/*--------------------------------*- C++ -*----------------------------------*\
| =========                 |                                                 |
| \\      /  F ield         | OpenFOAM: The Open Source CFD Toolbox           |
|  \\    /   O peration     | Version:  2306                                  |
|   \\  /    A nd           | Website:  www.openfoam.com                      |
|    \\/     M anipulation  |                                                 |
\*---------------------------------------------------------------------------*/
FoamFile
{
    version     2.0;
    format      ascii;
    arch        "LSB;label=32;scalar=64";
    class       volScalarField;
    location    "0.00156";
    object      H;
}
// * * * * * * * * * * * * * * * * * * * * * * * * * * * * * * * * * * * * * //

dimensions      [0 0 0 0 0 0 0];

internalField   nonuniform List<scalar> 
530
(
3.19497823e-05
3.12093287e-05
3.04991777e-05
2.97914027e-05
2.91144705e-05
2.84371246e-05
2.77909527e-05
2.71891216e-05
2.66518793e-05
2.61099715e-05
2.55941231e-05
2.50725117e-05
2.45768847e-05
2.40745459e-05
2.3598052e-05
2.31140055e-05
2.2655619e-05
2.21889316e-05
2.1747677e-05
2.129746e-05
2.08724067e-05
2.04378093e-05
2.00280684e-05
1.96082708e-05
1.92552848e-05
1.89093348e-05
1.85838666e-05
1.82492878e-05
1.79350419e-05
1.76113882e-05
1.73078635e-05
1.69947078e-05
1.67014221e-05
1.63983559e-05
1.61148439e-05
1.58214765e-05
1.55472883e-05
1.52632457e-05
1.49979474e-05
1.4722868e-05
1.44660469e-05
1.4196417e-05
1.39396616e-05
1.36718837e-05
1.34246236e-05
1.31656163e-05
1.29273654e-05
1.26767308e-05
1.24470237e-05
1.22425302e-05
1.20608343e-05
1.18682591e-05
1.16927089e-05
1.15060677e-05
1.13364295e-05
1.11554952e-05
1.09915482e-05
1.08161001e-05
1.06576329e-05
1.04874589e-05
1.03342684e-05
1.01691645e-05
1.00210559e-05
9.86082554e-06
9.71761184e-06
9.56206561e-06
9.42356743e-06
9.27252218e-06
9.13856731e-06
8.99184594e-06
8.8622689e-06
8.71969997e-06
8.59434155e-06
8.45575899e-06
8.33446576e-06
8.19970863e-06
8.08233254e-06
7.95124474e-06
7.83764272e-06
7.71007267e-06
7.60010635e-06
7.4759066e-06
7.36944213e-06
7.24846889e-06
7.14537689e-06
7.02748931e-06
6.92764509e-06
6.81270428e-06
6.71598837e-06
6.60385593e-06
6.51015503e-06
6.40069125e-06
6.30989941e-06
6.20831736e-06
6.14385941e-06
6.06723468e-06
6.00458627e-06
5.92955799e-06
5.86868286e-06
5.79519682e-06
5.73605365e-06
5.66406199e-06
5.60660651e-06
5.53606612e-06
5.48025253e-06
5.41112411e-06
5.35690592e-06
5.28915355e-06
5.23648418e-06
5.17007488e-06
5.11890852e-06
5.05381125e-06
5.00410451e-06
4.94028754e-06
4.89200292e-06
4.82942823e-06
4.78254066e-06
4.72115355e-06
4.67566168e-06
4.61537412e-06
4.57131836e-06
4.51198477e-06
4.46947344e-06
4.41086088e-06
4.37010178e-06
4.31346023e-06
4.27165521e-06
4.21813229e-06
4.17558803e-06
4.1248703e-06
4.08178283e-06
4.03365309e-06
3.99014568e-06
3.94445062e-06
3.90059807e-06
3.8572275e-06
3.81306841e-06
3.77194499e-06
3.72748305e-06
3.6885626e-06
3.64375586e-06
3.60704019e-06
3.56309875e-06
3.52764526e-06
3.48392042e-06
3.44888385e-06
3.40647475e-06
3.37191182e-06
3.33072646e-06
3.29665338e-06
3.25663451e-06
3.22305027e-06
3.18415641e-06
3.15105361e-06
3.11324991e-06
3.08061929e-06
3.04387357e-06
3.01170572e-06
2.97598702e-06
2.94427286e-06
2.90955094e-06
2.87828178e-06
2.84452702e-06
2.81369446e-06
2.78087794e-06
2.75047371e-06
2.71856729e-06
2.68858311e-06
2.65755949e-06
2.627987e-06
2.59781975e-06
2.5686504e-06
2.53931401e-06
2.51053902e-06
2.48200886e-06
2.45361924e-06
2.42587154e-06
2.39785802e-06
2.37086987e-06
2.34322292e-06
2.31697221e-06
2.28968202e-06
2.26414743e-06
2.23720387e-06
2.2123649e-06
2.18575747e-06
2.1615944e-06
2.13531217e-06
2.11180611e-06
2.08583768e-06
2.06297058e-06
2.03730402e-06
2.01505861e-06
1.98968156e-06
1.96804119e-06
1.94294105e-06
1.92188938e-06
1.89705384e-06
1.88474002e-06
1.87151376e-06
1.86082632e-06
1.84767186e-06
1.83716775e-06
1.82408515e-06
1.81376214e-06
1.80075168e-06
1.79060816e-06
1.77766911e-06
1.76770777e-06
1.75482996e-06
1.74506795e-06
1.73241603e-06
1.72261597e-06
1.71011465e-06
1.70039841e-06
1.68806359e-06
1.67841628e-06
1.66625665e-06
1.65667025e-06
1.64469004e-06
1.63516008e-06
1.62336074e-06
1.61388536e-06
1.60226591e-06
1.59284531e-06
1.58140302e-06
1.57203879e-06
1.56076988e-06
1.55146443e-06
1.5403646e-06
1.53112061e-06
1.52018553e-06
1.51100568e-06
1.50023116e-06
1.49111791e-06
1.48050007e-06
1.4714556e-06
1.4609909e-06
1.45201709e-06
1.44170228e-06
1.43280075e-06
1.42263291e-06
1.413805e-06
1.40378146e-06
1.3950283e-06
1.38514663e-06
1.37646917e-06
1.36672715e-06
1.35812616e-06
1.34852175e-06
1.33999788e-06
1.33052922e-06
1.322083e-06
1.31274834e-06
1.30438023e-06
1.29517797e-06
1.28688838e-06
1.27781697e-06
1.26960629e-06
1.26064556e-06
1.25223016e-06
1.24311243e-06
1.23477338e-06
1.22576942e-06
1.2175064e-06
1.20861478e-06
1.20042748e-06
1.19164679e-06
1.18353495e-06
1.1748638e-06
1.16682719e-06
1.15826416e-06
1.15030262e-06
1.14184631e-06
1.13395969e-06
1.1256087e-06
1.11779689e-06
1.10954984e-06
1.10181274e-06
1.09366825e-06
1.08600578e-06
1.07796248e-06
1.07037458e-06
1.06243111e-06
1.05491774e-06
1.04707271e-06
1.0396339e-06
1.03188586e-06
1.02452171e-06
1.01686914e-06
1.00957988e-06
1.00202114e-06
9.94807136e-07
9.873405e-07
9.80202254e-07
9.72825889e-07
9.65764046e-07
9.58476085e-07
9.51491373e-07
9.4428998e-07
9.37191719e-07
9.29612854e-07
9.22339152e-07
9.14908581e-07
9.07761788e-07
9.0047563e-07
8.93454883e-07
8.8630953e-07
8.79413758e-07
8.72405887e-07
8.65633802e-07
8.58760358e-07
8.52110472e-07
8.45368628e-07
8.38839292e-07
8.32226397e-07
8.25815843e-07
8.1932937e-07
8.13035759e-07
8.06673266e-07
8.00494723e-07
7.94253818e-07
7.88188462e-07
7.82066787e-07
7.76112744e-07
7.70107968e-07
7.64263378e-07
7.58373206e-07
7.52636212e-07
7.46858397e-07
7.41227131e-07
7.35559504e-07
7.30032058e-07
7.24472558e-07
7.19046965e-07
7.13593672e-07
7.08267873e-07
7.02919042e-07
6.9769088e-07
6.92444961e-07
6.87312184e-07
6.82167823e-07
6.77128117e-07
6.72084136e-07
6.67135182e-07
6.62190527e-07
6.57330083e-07
6.52402477e-07
6.47195666e-07
6.41989646e-07
6.36850431e-07
6.31707532e-07
6.26634496e-07
6.21555241e-07
6.16547142e-07
6.11531903e-07
6.06587708e-07
6.01636683e-07
5.96755571e-07
5.91868779e-07
5.87050114e-07
5.82227423e-07
5.77470714e-07
5.7271187e-07
5.68016728e-07
5.6332139e-07
5.58687487e-07
5.54055261e-07
5.49482299e-07
5.44912761e-07
5.40400453e-07
5.35893163e-07
5.31441215e-07
5.26995731e-07
5.22603843e-07
5.18219717e-07
5.1388758e-07
5.09564364e-07
5.0529166e-07
5.01028902e-07
4.96815308e-07
4.92612548e-07
4.88457739e-07
4.84314513e-07
4.80218158e-07
4.76133995e-07
4.72095754e-07
4.68070191e-07
4.64089701e-07
4.60122291e-07
4.56199153e-07
4.52289489e-07
4.48423241e-07
4.44570983e-07
4.40761077e-07
4.36965977e-07
4.33211759e-07
4.29473692e-07
4.25774385e-07
4.22093363e-07
4.1844807e-07
4.14824256e-07
4.11231984e-07
4.07665665e-07
4.04125374e-07
4.00616924e-07
3.971276e-07
3.93630165e-07
3.89811442e-07
3.8604084e-07
3.82300725e-07
3.78600977e-07
3.74936495e-07
3.713068e-07
3.6771524e-07
3.64154677e-07
3.60633614e-07
3.57141122e-07
3.53688408e-07
3.50262801e-07
3.46876527e-07
3.43516516e-07
3.40194972e-07
3.36899202e-07
3.33640824e-07
3.30407905e-07
3.2721124e-07
3.2403978e-07
3.20903452e-07
3.17792072e-07
3.14714762e-07
3.11662117e-07
3.08642548e-07
3.05647331e-07
3.0268426e-07
2.99745208e-07
2.96837421e-07
2.93953316e-07
2.91099629e-07
2.88269294e-07
2.85468552e-07
2.8269085e-07
2.79941928e-07
2.77215757e-07
2.74517563e-07
2.71841856e-07
2.69193332e-07
2.66567048e-07
2.63967174e-07
2.61389293e-07
2.58837094e-07
2.56306613e-07
2.5379852e-07
2.51220656e-07
2.48488247e-07
2.45590127e-07
2.42522854e-07
2.3927421e-07
2.35842317e-07
2.32212751e-07
2.28387485e-07
2.24361138e-07
2.20146824e-07
2.15706153e-07
2.11043147e-07
2.06145653e-07
2.01015394e-07
1.95644489e-07
1.90036171e-07
1.8418532e-07
1.78098961e-07
1.71775258e-07
1.65225908e-07
1.58453974e-07
1.5147651e-07
1.44303125e-07
1.36957309e-07
1.29456606e-07
1.21832201e-07
1.1411071e-07
1.06332073e-07
9.85326107e-08
9.07614782e-08
8.30643229e-08
7.5498798e-08
6.81178663e-08
6.09849809e-08
5.41562229e-08
4.76952286e-08
4.16546927e-08
3.60890314e-08
3.10396948e-08
2.65385195e-08
2.26087384e-08
1.9244933e-08
1.64468947e-08
1.41661887e-08
1.23729335e-08
1.09761565e-08
9.97762939e-09
9.02949908e-09
9.02845622e-09
9.02788278e-09
9.02762144e-09
9.02750585e-09
9.02745981e-09
9.02744701e-09
9.02744012e-09
9.02743841e-09
9.0274379e-09
9.02743778e-09
9.02743775e-09
9.02743775e-09
9.02743774e-09
9.02743774e-09
9.02743774e-09
9.02743774e-09
9.02743774e-09
9.02743774e-09
9.02743774e-09
9.02743774e-09
9.02743774e-09
9.02743774e-09
9.02743774e-09
9.02743774e-09
9.02743774e-09
9.02743774e-09
9.02743774e-09
9.02743774e-09
9.02743774e-09
)
;

boundaryField
{
    closed
    {
        type            calculated;
        value           nonuniform List<scalar> 0();
    }
    open
    {
        type            calculated;
        value           uniform 9.02743774e-09;
    }
    sides
    {
        type            empty;
    }
    procBoundary5to4
    {
        type            processor;
        value           uniform 3.26958103e-05;
    }
}


// ************************************************************************* //
