/*--------------------------------*- C++ -*----------------------------------*\
| =========                 |                                                 |
| \\      /  F ield         | OpenFOAM: The Open Source CFD Toolbox           |
|  \\    /   O peration     | Version:  2306                                  |
|   \\  /    A nd           | Website:  www.openfoam.com                      |
|    \\/     M anipulation  |                                                 |
\*---------------------------------------------------------------------------*/
FoamFile
{
    version     2.0;
    format      ascii;
    arch        "LSB;label=32;scalar=64";
    class       volScalarField;
    location    "0.00156";
    object      p;
}
// * * * * * * * * * * * * * * * * * * * * * * * * * * * * * * * * * * * * * //

dimensions      [1 -1 -2 0 0 0 0];

internalField   nonuniform List<scalar> 
530
(
101443.621
101444.405
101445.466
101446.8
101448.401
101450.258
101452.357
101454.683
101457.217
101459.937
101462.819
101465.837
101468.963
101472.169
101475.423
101478.697
101481.958
101485.177
101488.324
101491.371
101494.293
101497.065
101499.666
101502.077
101504.282
101506.271
101508.034
101509.569
101510.872
101511.949
101512.806
101513.452
101513.902
101514.173
101514.283
101514.254
101514.11
101513.875
101513.576
101513.238
101512.889
101512.554
101512.258
101512.025
101511.877
101511.833
101511.913
101512.13
101512.497
101513.022
101513.713
101514.573
101515.6
101516.794
101518.147
101519.651
101521.296
101523.067
101524.951
101526.931
101528.987
101531.102
101533.254
101535.425
101537.593
101539.739
101541.843
101543.885
101545.849
101547.718
101549.475
101551.109
101552.606
101553.957
101555.152
101556.186
101557.052
101557.749
101558.275
101558.63
101558.816
101558.836
101558.694
101558.397
101557.951
101557.363
101556.642
101555.798
101554.838
101553.774
101552.614
101551.369
101550.048
101548.662
101547.219
101545.729
101544.2
101542.641
101541.059
101539.462
101537.855
101536.246
101534.639
101533.039
101531.451
101529.878
101528.323
101526.789
101525.277
101523.79
101522.327
101520.891
101519.48
101518.096
101516.736
101515.4
101514.087
101512.796
101511.524
101510.27
101509.032
101507.808
101506.594
101505.389
101504.191
101502.996
101501.801
101500.606
101499.406
101498.2
101496.986
101495.76
101494.521
101493.267
101491.996
101490.706
101489.397
101488.067
101486.715
101485.34
101483.943
101482.522
101481.078
101479.611
101478.122
101476.612
101475.081
101473.532
101471.965
101470.383
101468.787
101467.179
101465.562
101463.938
101462.31
101460.68
101459.05
101457.425
101455.805
101454.194
101452.595
101451.011
101449.443
101447.894
101446.367
101444.864
101443.386
101441.937
101440.517
101439.129
101437.773
101436.452
101435.165
101433.914
101432.701
101431.524
101430.385
101429.285
101428.222
101427.196
101426.209
101425.258
101424.345
101423.467
101422.625
101421.818
101421.044
101420.302
101419.593
101418.914
101418.265
101417.644
101417.051
101416.484
101415.941
101415.423
101414.928
101414.454
101414
101413.566
101413.151
101412.753
101412.371
101412.006
101411.655
101411.318
101410.994
101410.683
101410.384
101410.097
101409.822
101409.55
101409.292
101409.043
101408.803
101408.572
101408.348
101408.131
101407.922
101407.719
101407.523
101407.334
101407.15
101406.973
101406.802
101406.636
101406.476
101406.321
101406.172
101406.028
101405.889
101405.755
101405.626
101405.501
101405.382
101405.267
101405.157
101405.051
101404.95
101404.853
101404.76
101404.672
101404.588
101404.508
101404.433
101404.361
101404.293
101404.229
101404.169
101404.112
101404.06
101404.01
101403.965
101403.923
101403.884
101403.848
101403.816
101403.787
101403.76
101403.737
101403.717
101403.7
101403.685
101403.673
101403.664
101403.657
101403.653
101403.651
101403.651
101403.654
101403.659
101403.666
101403.674
101403.685
101403.698
101403.713
101403.729
101403.747
101403.766
101403.787
101403.81
101403.834
101403.859
101403.886
101403.914
101403.943
101403.973
101404.005
101404.037
101404.071
101404.105
101404.14
101404.176
101404.213
101404.251
101404.29
101404.329
101404.369
101404.409
101404.451
101404.492
101404.535
101404.578
101404.621
101404.665
101404.71
101404.755
101404.801
101404.847
101404.893
101404.941
101404.988
101405.036
101405.085
101405.134
101405.183
101405.234
101405.284
101405.335
101405.387
101405.44
101405.492
101405.546
101405.6
101405.655
101405.711
101405.767
101405.824
101405.882
101405.941
101406
101406.061
101406.122
101406.184
101406.247
101406.312
101406.377
101406.443
101406.511
101406.579
101406.649
101406.72
101406.792
101406.866
101406.941
101407.017
101407.094
101407.174
101407.254
101407.336
101407.419
101407.504
101407.591
101407.679
101407.769
101407.861
101407.954
101408.049
101408.145
101408.244
101408.344
101408.446
101408.549
101408.655
101408.762
101408.871
101408.982
101409.095
101409.21
101409.327
101409.445
101409.566
101409.688
101409.812
101409.938
101410.066
101410.196
101410.327
101410.461
101410.596
101410.733
101410.872
101411.013
101411.156
101411.3
101411.446
101411.594
101411.744
101411.895
101412.049
101412.203
101412.36
101412.518
101412.677
101412.839
101413.001
101413.165
101413.331
101413.498
101413.667
101413.837
101414.008
101414.18
101414.354
101414.529
101414.705
101414.882
101415.06
101415.239
101415.419
101415.6
101415.782
101415.965
101416.148
101416.332
101416.517
101416.702
101416.888
101417.074
101417.261
101417.447
101417.635
101417.822
101418.009
101418.196
101418.384
101418.571
101418.758
101418.945
101419.131
101419.317
101419.502
101419.687
101419.871
101420.055
101420.237
101420.419
101420.6
101420.779
101420.958
101421.135
101421.311
101421.485
101421.658
101421.83
101421.999
101422.167
101422.333
101422.498
101422.66
101422.82
101422.978
101423.134
101423.293
101423.461
101423.637
101423.822
101424.015
101424.217
101424.426
101424.642
101424.864
101425.091
101425.321
101425.553
101425.782
101426.008
101426.226
101426.431
101426.62
101426.786
101426.926
101427.032
101427.101
101427.126
101427.105
101427.036
101426.919
101426.757
101426.556
101426.322
101426.061
101425.775
101425.456
101425.074
101424.57
101423.845
101422.776
101421.262
101419.325
101417.221
101415.521
101415.129
101417.106
101422.071
101428.958
101434.888
101437.71
101437.804
101437.038
101437.712
101439.984
101443.587
101444.579
101443.548
101431.801
101412.568
101406.162
101405.574
101397.508
101386.993
101379.076
101372.631
101371.497
101372.057
101372.952
101379.452
101379.161
101362.205
101345.009
101342.304
101371.74
101420.073
101447.798
101447.578
101450.175
101461.93
101457.348
101414.067
101375.321
)
;

boundaryField
{
    closed
    {
        type            zeroGradient;
    }
    open
    {
        type            waveTransmissive;
        gamma           1.25;
        fieldInf        101325;
        lInf            1;
        value           uniform 101374.886;
    }
    sides
    {
        type            empty;
    }
    procBoundary5to4
    {
        type            processor;
        value           uniform 101443.116;
    }
}


// ************************************************************************* //
