/*--------------------------------*- C++ -*----------------------------------*\
| =========                 |                                                 |
| \\      /  F ield         | OpenFOAM: The Open Source CFD Toolbox           |
|  \\    /   O peration     | Version:  2306                                  |
|   \\  /    A nd           | Website:  www.openfoam.com                      |
|    \\/     M anipulation  |                                                 |
\*---------------------------------------------------------------------------*/
FoamFile
{
    version     2.0;
    format      ascii;
    arch        "LSB;label=32;scalar=64";
    class       volScalarField;
    location    "0.00156";
    object      prefDPV_H2O;
}
// * * * * * * * * * * * * * * * * * * * * * * * * * * * * * * * * * * * * * //

dimensions      [1 -1 -1 0 0 0 0];

internalField   nonuniform List<scalar> 
530
(
1.09435e-06
1.09562354e-06
1.09684174e-06
1.09806481e-06
1.0992324e-06
1.10040828e-06
1.10152889e-06
1.1026406e-06
1.10368163e-06
1.10473508e-06
1.10573403e-06
1.10674761e-06
1.10770691e-06
1.1086827e-06
1.10960462e-06
1.11054463e-06
1.11143126e-06
1.11233745e-06
1.11319075e-06
1.11406502e-06
1.11488685e-06
1.11573102e-06
1.11652313e-06
1.117339e-06
1.11808902e-06
1.11885857e-06
1.11957883e-06
1.12032493e-06
1.12102177e-06
1.12174543e-06
1.12241979e-06
1.12312192e-06
1.12377477e-06
1.12445623e-06
1.12508849e-06
1.12575009e-06
1.12636271e-06
1.12700522e-06
1.12759908e-06
1.12822327e-06
1.12879924e-06
1.12941466e-06
1.12999686e-06
1.13061451e-06
1.13117806e-06
1.13177857e-06
1.13232446e-06
1.13290858e-06
1.13343784e-06
1.13398916e-06
1.13448386e-06
1.13501761e-06
1.13549699e-06
1.13601612e-06
1.13648072e-06
1.13698565e-06
1.13743596e-06
1.13792714e-06
1.13836361e-06
1.13884146e-06
1.13926453e-06
1.13972949e-06
1.14013955e-06
1.14059202e-06
1.14098948e-06
1.14142987e-06
1.14181511e-06
1.1422438e-06
1.14261718e-06
1.14303456e-06
1.14339644e-06
1.14380286e-06
1.14415359e-06
1.1445494e-06
1.14488932e-06
1.14527487e-06
1.14560431e-06
1.14597992e-06
1.1462992e-06
1.14666522e-06
1.14697465e-06
1.1473314e-06
1.14763128e-06
1.14797909e-06
1.14826972e-06
1.1486089e-06
1.14889057e-06
1.14922146e-06
1.14949445e-06
1.14981735e-06
1.15008196e-06
1.15039719e-06
1.15065369e-06
1.15096036e-06
1.15120381e-06
1.15149818e-06
1.15173384e-06
1.15202116e-06
1.15224919e-06
1.15252958e-06
1.15275006e-06
1.15302364e-06
1.1532367e-06
1.15350357e-06
1.15370931e-06
1.15396957e-06
1.15416809e-06
1.15442184e-06
1.15461327e-06
1.15486056e-06
1.15504502e-06
1.15528591e-06
1.15546354e-06
1.15569805e-06
1.15586899e-06
1.15609717e-06
1.1562615e-06
1.15648341e-06
1.15664116e-06
1.15685699e-06
1.15700797e-06
1.15721827e-06
1.1573619e-06
1.15756781e-06
1.15770286e-06
1.15789891e-06
1.15803772e-06
1.15821914e-06
1.15835979e-06
1.15852826e-06
1.1586696e-06
1.15882613e-06
1.15896746e-06
1.15911272e-06
1.15925358e-06
1.15938807e-06
1.15952817e-06
1.15965225e-06
1.15979143e-06
1.15990536e-06
1.16004361e-06
1.16014752e-06
1.16028048e-06
1.16037699e-06
1.16050842e-06
1.16059937e-06
1.16072553e-06
1.16081089e-06
1.16093194e-06
1.16101179e-06
1.16112776e-06
1.16120222e-06
1.16131311e-06
1.16138231e-06
1.16148812e-06
1.16155217e-06
1.16165291e-06
1.16171194e-06
1.16180758e-06
1.1618617e-06
1.16195226e-06
1.16200159e-06
1.16208707e-06
1.16213171e-06
1.16221211e-06
1.16225216e-06
1.16232752e-06
1.16236308e-06
1.16243341e-06
1.16246456e-06
1.16252989e-06
1.16255673e-06
1.16261709e-06
1.1626397e-06
1.16269513e-06
1.16271359e-06
1.16276413e-06
1.16277853e-06
1.16282421e-06
1.16283463e-06
1.16287551e-06
1.16288203e-06
1.16291815e-06
1.16292085e-06
1.16295226e-06
1.16295122e-06
1.16297799e-06
1.16297329e-06
1.16299547e-06
1.16298719e-06
1.16300484e-06
1.16299307e-06
1.16300625e-06
1.16299107e-06
1.16299986e-06
1.16298136e-06
1.16298583e-06
1.16296409e-06
1.16296684e-06
1.16294556e-06
1.16294473e-06
1.16292039e-06
1.1629156e-06
1.16288818e-06
1.1628795e-06
1.16284899e-06
1.16283651e-06
1.16280287e-06
1.16278673e-06
1.16274986e-06
1.16273049e-06
1.16269177e-06
1.16266707e-06
1.16262545e-06
1.16259679e-06
1.1625526e-06
1.1625198e-06
1.16247318e-06
1.16243625e-06
1.16238722e-06
1.16234623e-06
1.16229476e-06
1.16224985e-06
1.16219587e-06
1.16214716e-06
1.16209062e-06
1.16203824e-06
1.16197908e-06
1.16192315e-06
1.16186136e-06
1.16180197e-06
1.16173752e-06
1.16167476e-06
1.16160765e-06
1.16154162e-06
1.16147184e-06
1.1614026e-06
1.16133018e-06
1.16125781e-06
1.16118274e-06
1.16110731e-06
1.16102963e-06
1.1609512e-06
1.16087091e-06
1.16078957e-06
1.1607067e-06
1.1606225e-06
1.16053707e-06
1.16045008e-06
1.16036212e-06
1.16027241e-06
1.16018195e-06
1.16008958e-06
1.15999664e-06
1.15990169e-06
1.15980631e-06
1.15970883e-06
1.15961105e-06
1.1595111e-06
1.15941071e-06
1.15930478e-06
1.15919862e-06
1.1590903e-06
1.15898187e-06
1.15887124e-06
1.15876059e-06
1.15864771e-06
1.15853489e-06
1.15841982e-06
1.15830487e-06
1.15818768e-06
1.15807066e-06
1.15795141e-06
1.15783237e-06
1.15771112e-06
1.15759011e-06
1.15746694e-06
1.15734401e-06
1.15721897e-06
1.15709418e-06
1.15696733e-06
1.15684074e-06
1.15671215e-06
1.15658381e-06
1.15645354e-06
1.15632352e-06
1.15619162e-06
1.15605997e-06
1.15592652e-06
1.1557933e-06
1.15565834e-06
1.15552362e-06
1.15538723e-06
1.15525107e-06
1.15511329e-06
1.15497575e-06
1.15483664e-06
1.15469779e-06
1.15455742e-06
1.15441733e-06
1.15427584e-06
1.15413471e-06
1.15399205e-06
1.15384953e-06
1.15370558e-06
1.15356173e-06
1.15341656e-06
1.15327146e-06
1.15312513e-06
1.15297886e-06
1.15283143e-06
1.15268407e-06
1.15253562e-06
1.15238723e-06
1.15223782e-06
1.15208847e-06
1.15193817e-06
1.15178794e-06
1.15163682e-06
1.15148578e-06
1.1513339e-06
1.15118211e-06
1.15102954e-06
1.15087707e-06
1.15072389e-06
1.15057081e-06
1.15041707e-06
1.15026344e-06
1.15010921e-06
1.14995511e-06
1.14980045e-06
1.14964594e-06
1.14949092e-06
1.14933606e-06
1.14918074e-06
1.14902559e-06
1.14887005e-06
1.14871467e-06
1.14855896e-06
1.14840342e-06
1.1482476e-06
1.14809195e-06
1.14793609e-06
1.14778039e-06
1.14762455e-06
1.14746886e-06
1.1473131e-06
1.14715649e-06
1.14699578e-06
1.14683532e-06
1.14667493e-06
1.14651484e-06
1.14635483e-06
1.14619516e-06
1.1460356e-06
1.14587639e-06
1.14571731e-06
1.14555863e-06
1.14540008e-06
1.14524196e-06
1.14508401e-06
1.14492649e-06
1.14476918e-06
1.14461231e-06
1.14445569e-06
1.14429952e-06
1.14414362e-06
1.1439882e-06
1.14383308e-06
1.14367845e-06
1.14352414e-06
1.14337034e-06
1.14321689e-06
1.14306397e-06
1.14291142e-06
1.14275941e-06
1.1426078e-06
1.14245674e-06
1.14230612e-06
1.14215605e-06
1.14200645e-06
1.14185742e-06
1.14170886e-06
1.1415609e-06
1.14141343e-06
1.14126658e-06
1.14112024e-06
1.14097452e-06
1.14082934e-06
1.14068479e-06
1.1405408e-06
1.14039746e-06
1.14025469e-06
1.14011259e-06
1.13997108e-06
1.13983024e-06
1.13969001e-06
1.13955046e-06
1.13941154e-06
1.13927331e-06
1.13913574e-06
1.13899885e-06
1.13886265e-06
1.13872712e-06
1.13859232e-06
1.13845818e-06
1.1383248e-06
1.13819212e-06
1.13806064e-06
1.13792977e-06
1.13779964e-06
1.13767016e-06
1.13754141e-06
1.13741335e-06
1.13728602e-06
1.1371594e-06
1.13703351e-06
1.13690836e-06
1.13678394e-06
1.13666027e-06
1.13653734e-06
1.13641518e-06
1.13629377e-06
1.13617314e-06
1.13605326e-06
1.13593417e-06
1.13581584e-06
1.13569832e-06
1.13558156e-06
1.13546561e-06
1.13535044e-06
1.13523608e-06
1.13512251e-06
1.13500975e-06
1.13489779e-06
1.13478665e-06
1.13467632e-06
1.1345668e-06
1.1344581e-06
1.13435022e-06
1.13424315e-06
1.13413692e-06
1.1340315e-06
1.13392691e-06
1.13382314e-06
1.13372021e-06
1.1336181e-06
1.13351683e-06
1.13341638e-06
1.13331677e-06
1.13321798e-06
1.13312003e-06
1.13302281e-06
1.13292289e-06
1.13281683e-06
1.13270437e-06
1.13258519e-06
1.13245903e-06
1.13232559e-06
1.13218462e-06
1.13203584e-06
1.13187651e-06
1.13170515e-06
1.13152515e-06
1.13133633e-06
1.13113866e-06
1.13093212e-06
1.13071682e-06
1.13049291e-06
1.13026071e-06
1.13002058e-06
1.12977312e-06
1.12951899e-06
1.1292591e-06
1.12899445e-06
1.12872634e-06
1.12845618e-06
1.12818564e-06
1.12791652e-06
1.12765089e-06
1.12739087e-06
1.12713877e-06
1.12689691e-06
1.12666764e-06
1.12645315e-06
1.1262555e-06
1.1260764e-06
1.12591718e-06
1.12577865e-06
1.12566103e-06
1.1255639e-06
1.12548619e-06
1.12542628e-06
1.12538197e-06
1.12535087e-06
1.12533029e-06
1.12531776e-06
1.12531097e-06
1.12530805e-06
1.12530726e-06
1.12530903e-06
1.12530609e-06
1.12530447e-06
1.12530374e-06
1.12530341e-06
1.12530328e-06
1.12530325e-06
1.12530323e-06
1.12530322e-06
1.12530322e-06
1.12530322e-06
1.12530322e-06
1.12530322e-06
1.12530322e-06
1.12530322e-06
1.12530322e-06
1.12530322e-06
1.12530322e-06
1.12530322e-06
1.12530322e-06
1.12530322e-06
1.12530322e-06
1.12530322e-06
1.12530322e-06
1.12530322e-06
1.12530322e-06
1.12530322e-06
1.12530322e-06
1.12530322e-06
1.12530322e-06
)
;

boundaryField
{
    closed
    {
        type            calculated;
        value           nonuniform List<scalar> 0();
    }
    open
    {
        type            calculated;
        value           uniform 1.12530322e-06;
    }
    sides
    {
        type            empty;
    }
    procBoundary5to4
    {
        type            processor;
        value           uniform 1.09307732e-06;
    }
}


// ************************************************************************* //
