/*--------------------------------*- C++ -*----------------------------------*\
| =========                 |                                                 |
| \\      /  F ield         | OpenFOAM: The Open Source CFD Toolbox           |
|  \\    /   O peration     | Version:  2306                                  |
|   \\  /    A nd           | Website:  www.openfoam.com                      |
|    \\/     M anipulation  |                                                 |
\*---------------------------------------------------------------------------*/
FoamFile
{
    version     2.0;
    format      ascii;
    arch        "LSB;label=32;scalar=64";
    class       volScalarField;
    location    "0.00156";
    object      PV;
}
// * * * * * * * * * * * * * * * * * * * * * * * * * * * * * * * * * * * * * //

dimensions      [0 0 0 0 0 0 0];

internalField   nonuniform List<scalar> 
530
(
0.00762081934
0.00762676779
0.00763244269
0.00763822653
0.00764374402
0.00764936983
0.00765473792
0.0076601998
0.00766539737
0.00767069617
0.00767574674
0.00768089852
0.00768580785
0.0076908183
0.00769559191
0.00770046667
0.00770510977
0.00770985441
0.00771437202
0.00771899204
0.00772338895
0.00772788981
0.00773217063
0.00773655769
0.00774069667
0.00774492804
0.0077489454
0.00775306717
0.00775697678
0.00776099222
0.00776479677
0.00776870891
0.00777241114
0.00777622279
0.0077798255
0.0077835393
0.00778704527
0.00779066379
0.00779407578
0.00779760146
0.00780092218
0.00780433465
0.0078075039
0.00781077891
0.00781386069
0.00781705228
0.00782004957
0.00782316001
0.0078260757
0.00782908941
0.00783190523
0.00783483808
0.00783757476
0.00784043052
0.00784308954
0.00784586934
0.00784845199
0.007851157
0.00785366449
0.00785629585
0.00785872927
0.0078612881
0.00786364851
0.00786613588
0.00786842428
0.00787084122
0.00787305856
0.00787540604
0.00787755324
0.00787983221
0.00788191014
0.00788412151
0.00788613103
0.00788827567
0.00789021758
0.00789229635
0.00789417147
0.0078961852
0.00789799428
0.00789994379
0.00790168759
0.00790357368
0.00790525294
0.00790707642
0.00790869186
0.00791045354
0.00791200587
0.00791370654
0.00791519647
0.00791683694
0.0079182652
0.00791984623
0.00792121358
0.00792273461
0.00792403609
0.00792549289
0.00792673313
0.00792813109
0.00792931031
0.00793064949
0.00793176783
0.00793304832
0.0079341059
0.00793532779
0.00793632474
0.00793748807
0.00793842455
0.00793952934
0.00794040554
0.00794145176
0.00794226792
0.00794325548
0.00794401185
0.00794494065
0.00794563748
0.00794650739
0.00794714483
0.00794795589
0.00794853386
0.00794928654
0.00794980433
0.00795050014
0.00795095589
0.00795159808
0.00795198806
0.00795256101
0.00795292025
0.00795341022
0.00795373319
0.00795414492
0.00795442816
0.00795476465
0.00795500599
0.00795526918
0.0079554672
0.00795565846
0.0079558122
0.00795593264
0.00795604126
0.00795609196
0.00795615438
0.00795613678
0.00795615979
0.0079560671
0.00795605593
0.00795587232
0.00795583653
0.00795556546
0.00795550232
0.0079551465
0.00795505383
0.00795461579
0.00795449158
0.00795397381
0.0079538161
0.00795322105
0.007953028
0.00795235804
0.00795212789
0.0079513853
0.00795111645
0.0079503034
0.00794999437
0.00794911293
0.00794876238
0.0079478145
0.00794742125
0.00794640878
0.00794597176
0.00794489644
0.00794441474
0.00794327822
0.00794275104
0.0079415549
0.00794098155
0.00793972728
0.0079391072
0.00793779622
0.00793712894
0.00793576262
0.00793504778
0.00793362744
0.00793286474
0.00793139166
0.00793058091
0.00792905633
0.0079281974
0.00792662255
0.00792571537
0.00792409145
0.00792313604
0.00792146421
0.00792046069
0.00791874204
0.00791769066
0.0079159262
0.00791482737
0.00791301797
0.00791187956
0.00791003596
0.00790885211
0.00790696431
0.00790573447
0.00790380265
0.00790252769
0.007900552
0.00789923293
0.00789721339
0.00789585241
0.00789378682
0.00789239176
0.00789031852
0.00788883441
0.00788672906
0.00788518951
0.0078830587
0.00788145997
0.00787930706
0.00787764807
0.00787547457
0.00787375579
0.0078715619
0.00786978481
0.00786757
0.00786573661
0.00786350005
0.0078616125
0.00785935339
0.0078574138
0.00785513143
0.00785314178
0.00785083563
0.00784879777
0.00784646749
0.00784438313
0.0078420285
0.00783989924
0.00783752017
0.00783534754
0.00783294402
0.00783072948
0.00782830158
0.00782604654
0.00782359441
0.00782130025
0.00781882408
0.00781649214
0.00781399218
0.00781162377
0.00780910031
0.00780669673
0.0078041501
0.00780171261
0.00779914319
0.00779667305
0.00779408124
0.00779157967
0.00778896593
0.00778643414
0.00778379868
0.00778123389
0.00777857371
0.00777598081
0.00777330025
0.00777068043
0.00776798007
0.0077653345
0.00776261494
0.00775994476
0.00775720664
0.00775451299
0.00775175696
0.00774904097
0.00774626772
0.00774353049
0.00774074073
0.00773798335
0.00773517779
0.00773240135
0.00772958075
0.00772678632
0.00772395143
0.00772114008
0.00771829168
0.00771546445
0.00771260332
0.00770976127
0.00770688822
0.00770403236
0.00770114821
0.00769827957
0.00769538515
0.00769250474
0.00768960088
0.00768670969
0.00768379724
0.00768089627
0.00767797607
0.0076750663
0.00767213922
0.00766922011
0.00766628337
0.00766335573
0.00766041438
0.00765748159
0.00765453649
0.00765159948
0.00764865151
0.0076457112
0.00764276121
0.00763981854
0.00763686738
0.00763392325
0.00763097176
0.00762802708
0.00762507611
0.00762213177
0.00761918214
0.00761623902
0.00761329156
0.00761035052
0.00760740605
0.00760446796
0.00760152728
0.00759859298
0.00759565689
0.00759272722
0.00758979651
0.00758687228
0.00758394774
0.00758102976
0.00757811215
0.00757520122
0.00757229131
0.0075693882
0.00756648673
0.00756359223
0.00756069993
0.00755781478
0.00755493238
0.00755205735
0.00754918554
0.00754632135
0.00754346083
0.00754060821
0.00753775965
0.0075349193
0.00753208258
0.00752925094
0.00752642405
0.00752360561
0.0075207925
0.00751798798
0.00751518931
0.00751239939
0.00750961582
0.00750684119
0.00750407334
0.00750131465
0.00749856317
0.00749582106
0.00749308655
0.00749036165
0.00748764471
0.00748493762
0.00748223884
0.00747955015
0.0074768701
0.00747420038
0.00747153962
0.00746888941
0.00746624848
0.00746361833
0.00746099776
0.00745838818
0.00745578847
0.00745319997
0.00745062161
0.00744805467
0.00744549814
0.00744295323
0.00744041899
0.00743789655
0.00743538504
0.00743288551
0.00743039715
0.00742792095
0.00742545614
0.00742300366
0.0074205628
0.00741813443
0.00741571788
0.00741331397
0.00741092209
0.007408543
0.00740617611
0.00740382217
0.00740148059
0.00739915211
0.00739683613
0.00739453341
0.00739224332
0.00738996664
0.00738770268
0.00738545232
0.00738321472
0.00738099092
0.00737877954
0.00737657946
0.00737439247
0.00737221955
0.00737005993
0.00736791438
0.00736578229
0.00736366429
0.00736155988
0.00735946959
0.00735739301
0.00735533057
0.00735328193
0.00735124747
0.00734922689
0.00734722052
0.00734522807
0.00734324988
0.00734128565
0.0073393357
0.00733739977
0.00733547812
0.00733357051
0.00733167721
0.00732979797
0.00732793303
0.00732608217
0.00732424562
0.00732242314
0.00732061496
0.00731882085
0.00731704103
0.00731527527
0.00731352377
0.00731178632
0.00731006309
0.00730835389
0.00730665889
0.00730497788
0.00730331101
0.00730165811
0.00730001931
0.00729839442
0.00729678359
0.00729518661
0.00729360196
0.0072919735
0.00729024565
0.00728841356
0.00728647269
0.00728441824
0.00728224582
0.00727995093
0.00727752952
0.00727497822
0.00727229375
0.00726947268
0.00726651291
0.00726341304
0.00726017282
0.00725679298
0.00725327583
0.00724962505
0.0072458463
0.00724194715
0.00723793748
0.00723382965
0.00722963867
0.00722538249
0.00722108189
0.00721676085
0.00721244609
0.00720816738
0.00720395664
0.00719984809
0.00719587686
0.00719207868
0.0071884883
0.00718513842
0.00718205815
0.00717927132
0.0071767954
0.00717463945
0.00717280423
0.00717128045
0.00717005046
0.00716908783
0.0071683602
0.00716783114
0.00716746227
0.00716721803
0.00716706411
0.00716697381
0.00716692949
0.00716691341
0.00716690752
0.0071669049
0.00716690376
0.00716690325
0.00716690308
0.00716690298
0.00716690295
0.00716690293
0.00716690293
0.00716690293
0.00716690293
0.00716690293
0.00716690293
0.00716690293
0.00716690293
0.00716690293
0.00716690293
0.00716690293
0.00716690293
0.00716690293
0.00716690293
0.00716690293
0.00716690293
0.00716690293
0.00716690293
0.00716690293
0.00716690293
0.00716690293
)
;

boundaryField
{
    closed
    {
        type            zeroGradient;
    }
    open
    {
        type            zeroGradient;
    }
    sides
    {
        type            empty;
    }
    procBoundary5to4
    {
        type            processor;
        value           uniform 0.00761497836;
    }
}


// ************************************************************************* //
