/*--------------------------------*- C++ -*----------------------------------*\
| =========                 |                                                 |
| \\      /  F ield         | OpenFOAM: The Open Source CFD Toolbox           |
|  \\    /   O peration     | Version:  2306                                  |
|   \\  /    A nd           | Website:  www.openfoam.com                      |
|    \\/     M anipulation  |                                                 |
\*---------------------------------------------------------------------------*/
FoamFile
{
    version     2.0;
    format      ascii;
    arch        "LSB;label=32;scalar=64";
    class       volVectorField;
    location    "0.00156";
    object      U;
}
// * * * * * * * * * * * * * * * * * * * * * * * * * * * * * * * * * * * * * //

dimensions      [0 1 -1 0 0 0 0];

internalField   nonuniform List<vector> 
530
(
(1.82194054 0 0)
(1.82900959 0 0)
(1.83806019 0 0)
(1.84906099 0 0)
(1.86196953 0 0)
(1.87670872 0 0)
(1.89317636 0 0)
(1.91123652 0 0)
(1.93076158 0 0)
(1.9516067 0 0)
(1.97362043 0 0)
(1.99661067 0 0)
(2.02038352 0 0)
(2.04472261 0 0)
(2.06941784 0 0)
(2.09424235 0 0)
(2.11898105 0 0)
(2.14340932 0 0)
(2.16732018 0 0)
(2.19050502 0 0)
(2.21277861 0 0)
(2.23396204 0 0)
(2.25390162 0 0)
(2.27244567 0 0)
(2.28947704 0 0)
(2.30491155 0 0)
(2.31870109 0 0)
(2.3308149 0 0)
(2.34124867 0 0)
(2.35002159 0 0)
(2.35718264 0 0)
(2.3628047 0 0)
(2.36698601 0 0)
(2.3698461 0 0)
(2.37152438 0 0)
(2.37217727 0 0)
(2.37197476 0 0)
(2.37109783 0 0)
(2.36973445 0 0)
(2.36807714 0 0)
(2.36632032 0 0)
(2.36465175 0 0)
(2.36325831 0 0)
(2.36231425 0 0)
(2.36197721 0 0)
(2.36239106 0 0)
(2.36368867 0 0)
(2.36597633 0 0)
(2.36933589 0 0)
(2.37382677 0 0)
(2.37950717 0 0)
(2.38640451 0 0)
(2.39452735 0 0)
(2.40385032 0 0)
(2.41433747 0 0)
(2.42592245 0 0)
(2.43853244 0 0)
(2.45206605 0 0)
(2.46641997 0 0)
(2.48146579 0 0)
(2.49707797 0 0)
(2.51311037 0 0)
(2.5294243 0 0)
(2.54586552 0 0)
(2.56229131 0 0)
(2.57854874 0 0)
(2.59449961 0 0)
(2.61000072 0 0)
(2.62492591 0 0)
(2.63914882 0 0)
(2.65256127 0 0)
(2.66505913 0 0)
(2.67655649 0 0)
(2.68697499 0 0)
(2.69625345 0 0)
(2.70434091 0 0)
(2.71120162 0 0)
(2.71681196 0 0)
(2.72116073 0 0)
(2.72425 0 0)
(2.72609097 0 0)
(2.72670852 0 0)
(2.72613307 0 0)
(2.72440863 0 0)
(2.72158099 0 0)
(2.71770901 0 0)
(2.71284975 0 0)
(2.70707248 0 0)
(2.70044135 0 0)
(2.69303178 0 0)
(2.6849113 0 0)
(2.67615745 0 0)
(2.66683577 0 0)
(2.65701862 0 0)
(2.64676535 0 0)
(2.63615149 0 0)
(2.62524109 0 0)
(2.61410118 0 0)
(2.60278257 0 0)
(2.59134341 0 0)
(2.57982687 0 0)
(2.56828278 0 0)
(2.55674575 0 0)
(2.54525677 0 0)
(2.53384176 0 0)
(2.52253296 0 0)
(2.51134796 0 0)
(2.50031063 0 0)
(2.48943075 0 0)
(2.47872448 0 0)
(2.4681945 0 0)
(2.45785004 0 0)
(2.44768752 0 0)
(2.43771007 0 0)
(2.42790868 0 0)
(2.41828142 0 0)
(2.40881463 0 0)
(2.39950246 0 0)
(2.39032733 0 0)
(2.38128088 0 0)
(2.37234221 0 0)
(2.36350192 0 0)
(2.35473643 0 0)
(2.34603486 0 0)
(2.33736746 0 0)
(2.32872353 0 0)
(2.32008417 0 0)
(2.31142966 0 0)
(2.3027409 0 0)
(2.29400006 0 0)
(2.2851894 0 0)
(2.27629275 0 0)
(2.26729446 0 0)
(2.25818019 0 0)
(2.2489372 0 0)
(2.23955327 0 0)
(2.23001924 0 0)
(2.22032537 0 0)
(2.21046669 0 0)
(2.20043645 0 0)
(2.19023426 0 0)
(2.17985446 0 0)
(2.16929771 0 0)
(2.15856559 0 0)
(2.14766862 0 0)
(2.13660884 0 0)
(2.12539783 0 0)
(2.11404078 0 0)
(2.10255375 0 0)
(2.0909446 0 0)
(2.07923298 0 0)
(2.06742888 0 0)
(2.0555549 0 0)
(2.04362266 0 0)
(2.03165698 0 0)
(2.01967058 0 0)
(2.00768971 0 0)
(1.99572759 0 0)
(1.98381112 0 0)
(1.97195344 0 0)
(1.96018129 0 0)
(1.9485072 0 0)
(1.93695704 0 0)
(1.92554217 0 0)
(1.91428697 0 0)
(1.9032012 0 0)
(1.89230719 0 0)
(1.88161277 0 0)
(1.87113778 0 0)
(1.86088789 0 0)
(1.85088015 0 0)
(1.84111791 0 0)
(1.83161529 0 0)
(1.82237327 0 0)
(1.81340298 0 0)
(1.80470311 0 0)
(1.79628184 0 0)
(1.78813571 0 0)
(1.78027013 0 0)
(1.77267967 0 0)
(1.7653672 0 0)
(1.75832559 0 0)
(1.75155544 0 0)
(1.74504824 0 0)
(1.73880261 0 0)
(1.73280897 0 0)
(1.72706434 0 0)
(1.72155834 0 0)
(1.71628678 0 0)
(1.7112388 0 0)
(1.70640931 0 0)
(1.70178728 0 0)
(1.69736705 0 0)
(1.69313768 0 0)
(1.68909328 0 0)
(1.68522325 0 0)
(1.68152156 0 0)
(1.677977 0 0)
(1.67458211 0 0)
(1.6713276 0 0)
(1.66820937 0 0)
(1.66521873 0 0)
(1.66235031 0 0)
(1.65959573 0 0)
(1.65695022 0 0)
(1.65440624 0 0)
(1.65195994 0 0)
(1.64960436 0 0)
(1.64733414 0 0)
(1.64512035 0 0)
(1.64303231 0 0)
(1.64101452 0 0)
(1.63901577 0 0)
(1.63711167 0 0)
(1.63527496 0 0)
(1.63349585 0 0)
(1.63177361 0 0)
(1.63010456 0 0)
(1.62848782 0 0)
(1.62692041 0 0)
(1.62540142 0 0)
(1.62392848 0 0)
(1.62250071 0 0)
(1.62111627 0 0)
(1.61977434 0 0)
(1.61847345 0 0)
(1.61721289 0 0)
(1.61599144 0 0)
(1.61480846 0 0)
(1.61366293 0 0)
(1.61255429 0 0)
(1.61148166 0 0)
(1.61044454 0 0)
(1.60944217 0 0)
(1.60847409 0 0)
(1.60753963 0 0)
(1.60663837 0 0)
(1.6057697 0 0)
(1.60493321 0 0)
(1.60412834 0 0)
(1.60335468 0 0)
(1.60261169 0 0)
(1.60189895 0 0)
(1.60121593 0 0)
(1.6005622 0 0)
(1.59993723 0 0)
(1.59934055 0 0)
(1.59877166 0 0)
(1.59823007 0 0)
(1.59771525 0 0)
(1.59722672 0 0)
(1.59676393 0 0)
(1.59632637 0 0)
(1.59591351 0 0)
(1.59552481 0 0)
(1.59515974 0 0)
(1.59481769 0 0)
(1.59449805 0 0)
(1.59420065 0 0)
(1.59392658 0 0)
(1.59367268 0 0)
(1.59343624 0 0)
(1.59321905 0 0)
(1.59302123 0 0)
(1.59284215 0 0)
(1.59268119 0 0)
(1.59253775 0 0)
(1.59241132 0 0)
(1.59230132 0 0)
(1.59220724 0 0)
(1.59212853 0 0)
(1.59206467 0 0)
(1.59201513 0 0)
(1.59197941 0 0)
(1.59195698 0 0)
(1.59194737 0 0)
(1.59195007 0 0)
(1.59196461 0 0)
(1.59199051 0 0)
(1.59202732 0 0)
(1.59207458 0 0)
(1.59213186 0 0)
(1.59219871 0 0)
(1.59227473 0 0)
(1.5923595 0 0)
(1.59245264 0 0)
(1.59255376 0 0)
(1.5926625 0 0)
(1.59277849 0 0)
(1.5929014 0 0)
(1.5930309 0 0)
(1.59316669 0 0)
(1.59330845 0 0)
(1.59345592 0 0)
(1.59360881 0 0)
(1.59376689 0 0)
(1.59392991 0 0)
(1.59409767 0 0)
(1.59426989 0 0)
(1.5944463 0 0)
(1.59462709 0 0)
(1.59481201 0 0)
(1.59500054 0 0)
(1.59519274 0 0)
(1.59538859 0 0)
(1.59558799 0 0)
(1.59579087 0 0)
(1.59599717 0 0)
(1.59620684 0 0)
(1.59641987 0 0)
(1.59663625 0 0)
(1.59685599 0 0)
(1.59707911 0 0)
(1.59730565 0 0)
(1.59753567 0 0)
(1.59776924 0 0)
(1.59800643 0 0)
(1.59824735 0 0)
(1.59849211 0 0)
(1.59874084 0 0)
(1.59899366 0 0)
(1.59925074 0 0)
(1.59951222 0 0)
(1.59977828 0 0)
(1.6000491 0 0)
(1.60032488 0 0)
(1.60060581 0 0)
(1.60089209 0 0)
(1.60118396 0 0)
(1.60148163 0 0)
(1.60178532 0 0)
(1.60209528 0 0)
(1.60241175 0 0)
(1.60273497 0 0)
(1.60306519 0 0)
(1.60340265 0 0)
(1.60374763 0 0)
(1.60410036 0 0)
(1.60446111 0 0)
(1.60483013 0 0)
(1.60520767 0 0)
(1.605594 0 0)
(1.60598938 0 0)
(1.60639406 0 0)
(1.60680819 0 0)
(1.60723178 0 0)
(1.60766535 0 0)
(1.60811267 0 0)
(1.60857191 0 0)
(1.60903931 0 0)
(1.60951699 0 0)
(1.6100059 0 0)
(1.61050624 0 0)
(1.61101815 0 0)
(1.61154177 0 0)
(1.61207729 0 0)
(1.61262489 0 0)
(1.61318472 0 0)
(1.61375692 0 0)
(1.61434165 0 0)
(1.61493903 0 0)
(1.61554918 0 0)
(1.6161722 0 0)
(1.61680821 0 0)
(1.61745728 0 0)
(1.61811949 0 0)
(1.61879491 0 0)
(1.61948359 0 0)
(1.62018558 0 0)
(1.62090091 0 0)
(1.62162959 0 0)
(1.62237166 0 0)
(1.62312709 0 0)
(1.62389588 0 0)
(1.62467801 0 0)
(1.62547344 0 0)
(1.62628213 0 0)
(1.62710402 0 0)
(1.62793904 0 0)
(1.62878713 0 0)
(1.62964818 0 0)
(1.6305221 0 0)
(1.63140879 0 0)
(1.63230812 0 0)
(1.63321997 0 0)
(1.63414419 0 0)
(1.63508063 0 0)
(1.63602913 0 0)
(1.63698953 0 0)
(1.63796164 0 0)
(1.63894527 0 0)
(1.63994022 0 0)
(1.64094629 0 0)
(1.64196325 0 0)
(1.64299087 0 0)
(1.64402892 0 0)
(1.64507715 0 0)
(1.6461353 0 0)
(1.6472031 0 0)
(1.64828027 0 0)
(1.64936653 0 0)
(1.65046158 0 0)
(1.65156512 0 0)
(1.65267683 0 0)
(1.65379638 0 0)
(1.6549234 0 0)
(1.65605762 0 0)
(1.65719913 0 0)
(1.65834727 0 0)
(1.65950115 0 0)
(1.66066064 0 0)
(1.66182546 0 0)
(1.66299521 0 0)
(1.66416948 0 0)
(1.66534782 0 0)
(1.66652984 0 0)
(1.66771508 0 0)
(1.6689031 0 0)
(1.67009344 0 0)
(1.67128566 0 0)
(1.67247926 0 0)
(1.67367379 0 0)
(1.67486874 0 0)
(1.67606362 0 0)
(1.67725793 0 0)
(1.67845115 0 0)
(1.67964278 0 0)
(1.68083227 0 0)
(1.68201911 0 0)
(1.68320276 0 0)
(1.68438266 0 0)
(1.68555826 0 0)
(1.68672902 0 0)
(1.68789438 0 0)
(1.68905375 0 0)
(1.69020659 0 0)
(1.69135232 0 0)
(1.69249035 0 0)
(1.69362012 0 0)
(1.69474104 0 0)
(1.69585254 0 0)
(1.69695404 0 0)
(1.69804495 0 0)
(1.69912469 0 0)
(1.70019269 0 0)
(1.70124837 0 0)
(1.70229116 0 0)
(1.70332049 0 0)
(1.7043358 0 0)
(1.70533652 0 0)
(1.7063221 0 0)
(1.70729213 0 0)
(1.70824729 0 0)
(1.7092203 0 0)
(1.7102417 0 0)
(1.7113112 0 0)
(1.71242781 0 0)
(1.71358952 0 0)
(1.71479302 0 0)
(1.71603325 0 0)
(1.71730345 0 0)
(1.71860075 0 0)
(1.71991507 0 0)
(1.72122668 0 0)
(1.72251984 0 0)
(1.72377531 0 0)
(1.7249694 0 0)
(1.72607407 0 0)
(1.72705705 0 0)
(1.72788192 0 0)
(1.72850866 0 0)
(1.72889466 0 0)
(1.72899641 0 0)
(1.72877207 0 0)
(1.72818474 0 0)
(1.72720658 0 0)
(1.72582308 0 0)
(1.72403709 0 0)
(1.72187106 0 0)
(1.71936587 0 0)
(1.7165736 0 0)
(1.71354054 0 0)
(1.71027574 0 0)
(1.70670053 0 0)
(1.70257911 0 0)
(1.69744776 0 0)
(1.69059749 0 0)
(1.68121059 0 0)
(1.66874491 0 0)
(1.65355364 0 0)
(1.63758652 0 0)
(1.6249331 0 0)
(1.62184039 0 0)
(1.63531969 0 0)
(1.66846013 0 0)
(1.71387126 0 0)
(1.75421122 0 0)
(1.77546659 0 0)
(1.77879151 0 0)
(1.77830562 0 0)
(1.78617711 0 0)
(1.80870674 0 0)
(1.83535483 0 0)
(1.85400358 0 0)
(1.84465357 0 0)
(1.77265517 0 0)
(1.670258 0 0)
(1.63263006 0 0)
(1.62880491 0 0)
(1.59280088 0 0)
(1.53299803 0 0)
(1.49229526 0 0)
(1.45536817 0 0)
(1.45723969 0 0)
(1.45452908 0 0)
(1.48177165 0 0)
(1.50894308 0 0)
(1.50630288 0 0)
(1.39076807 0 0)
(1.29927829 0 0)
(1.31882945 0 0)
(1.59753942 0 0)
(1.94234119 0 0)
(2.15238267 0 0)
(2.13013919 0 0)
(2.09615049 0 0)
(2.02254735 0 0)
(1.87468679 0 0)
(1.42129284 0 0)
(1.30201176 0 0)
)
;

boundaryField
{
    closed
    {
        type            noSlip;
    }
    open
    {
        type            inletOutlet;
        inletValue      uniform (0 0 0);
        value           uniform (1.30201176 0 0);
    }
    sides
    {
        type            empty;
    }
    procBoundary5to4
    {
        type            processor;
        value           uniform (1.81684468 0 0);
    }
}


// ************************************************************************* //
