/*--------------------------------*- C++ -*----------------------------------*\
| =========                 |                                                 |
| \\      /  F ield         | OpenFOAM: The Open Source CFD Toolbox           |
|  \\    /   O peration     | Version:  2306                                  |
|   \\  /    A nd           | Website:  www.openfoam.com                      |
|    \\/     M anipulation  |                                                 |
\*---------------------------------------------------------------------------*/
FoamFile
{
    version     2.0;
    format      ascii;
    arch        "LSB;label=32;scalar=64";
    class       volScalarField;
    location    "0.00108";
    object      prefDh_H2O;
}
// * * * * * * * * * * * * * * * * * * * * * * * * * * * * * * * * * * * * * //

dimensions      [1 1 -3 0 0 0 0];

internalField   nonuniform List<scalar> 
531
(
92.4754729
92.3440804
89.0436669
87.7558768
87.8506831
92.4056891
92.3574302
89.4201692
87.7039044
87.815643
92.4780376
92.3205262
88.1036195
88.0222661
92.4923961
92.3491101
88.9772806
87.9649693
88.0196281
87.6068822
87.6596961
92.6850807
92.4084413
92.5336477
92.3966122
92.4162773
87.7867059
87.5624071
92.6586328
92.488098
88.2461252
87.5464019
87.6875009
92.6133887
92.3565761
88.0474789
87.8837942
92.7410355
92.3820669
87.8806125
87.7904866
92.854101
92.4577674
92.5705014
92.4691134
87.7420716
87.514498
92.7498609
92.4892994
88.3477475
87.5954451
87.7226625
92.59364
92.3229557
88.1136162
87.9302227
92.6615864
92.2883841
88.2204018
88.0960832
92.5786786
92.2835263
88.667809
88.1018145
87.8989078
87.9004009
92.6523734
92.3872081
88.9430474
87.7038817
87.7544507
92.5992875
92.3269021
88.1288062
87.9287762
92.7745251
92.3509046
88.0258678
87.8811945
92.8780983
92.4140787
92.5252818
92.4269805
87.8749821
87.6185002
92.810575
92.4298937
88.7863391
87.8700077
88.0159584
87.6610293
87.6908063
92.6736326
92.313163
92.360748
88.2603961
87.9337872
92.6895068
92.368028
89.4158325
87.7520288
87.7461195
92.5861884
92.3447691
88.169114
87.8865969
92.7188729
92.389343
88.9721694
87.710382
87.7116885
92.6503787
92.3490167
88.1386907
87.8949586
92.8716316
92.3758741
88.0386483
87.84385
93.0041263
92.4520021
92.5972639
92.4715083
87.8711341
87.4575319
92.9657814
92.4920641
88.4512362
87.6795771
87.6656187
92.6626613
92.4267586
88.9245539
87.6794342
87.6777015
92.6497964
92.3331413
88.1984007
87.9212885
92.8212328
92.2993417
88.2358023
88.0051611
92.7897945
92.2938872
88.2815723
88.0053005
92.7498046
92.3240097
89.3116873
87.8671587
87.8372226
92.6964747
92.3007626
88.8332694
88.0413978
87.8984925
87.8693975
92.8028317
92.3108503
88.2431425
88.074578
92.8231435
90.6780039
87.9009283
92.8776293
92.327282
88.2754292
87.9577562
92.7940232
92.3413125
89.2316255
87.8541322
87.8265456
92.7900859
92.3571156
89.4218484
87.7952507
87.7747952
92.7465914
92.3284614
88.2986054
87.9702108
92.7858272
92.342449
89.4581138
87.837067
87.7987619
92.7908089
92.3190326
88.3196038
87.9612679
92.800798
92.3305668
89.3158144
87.8538491
87.8246851
92.7814128
92.3537758
89.6467848
87.8346905
87.7981867
92.8009515
92.2966019
88.405658
88.0737678
92.7727551
92.2553118
89.1140296
88.1526663
87.9425637
87.9106636
92.8137094
92.3125769
88.3503449
88.0219689
92.8010477
92.3360463
89.4687267
87.9041878
87.8617573
92.804564
92.3545483
89.2631076
87.8428763
87.8186718
92.8031454
92.3748544
89.3319392
87.8215123
87.7862462
92.8216503
92.3355748
88.3846464
87.9715951
92.8042732
92.3505682
89.1337862
87.8428812
87.8201222
92.8137626
92.396807
89.0319544
87.7468207
87.7006871
92.8415861
92.3402355
88.2775981
87.9136996
92.8876244
92.3047628
88.2603467
87.941949
92.8896307
92.3017761
88.2549313
87.9429481
92.887337
92.3037682
88.2548065
87.9464984
92.8724158
92.314058
88.2999803
87.9332338
92.8237768
92.3699703
88.9030138
87.7751948
87.7503856
92.7936932
92.4117546
89.0317767
87.7433898
87.7082065
92.8083203
92.3515899
88.3075785
87.9698239
92.8141609
92.3251488
88.3232751
87.9723392
92.7613291
92.3914612
89.0616017
87.6904362
87.6788166
92.7363803
92.2913964
92.383948
89.4246001
87.6884974
87.6824094
92.6785719
92.2837085
92.3307013
89.0817738
88.0287536
87.8035993
87.7827936
92.7261144
92.3472711
88.2269243
87.9385492
92.6420373
92.3651009
88.9721327
87.817528
87.8180325
92.5961698
92.3837413
89.1928966
87.8056065
87.8057771
92.5815287
92.337782
88.305158
88.0261427
92.532338
92.3521896
89.1897742
87.8673254
87.8962756
92.5275173
92.3807716
89.3217573
87.8547202
87.9051141
92.5053733
92.3914487
89.3761815
87.865159
87.9334289
92.4916268
92.3990238
89.3950483
87.870763
87.9574528
92.469791
92.4116379
89.332055
87.8698775
87.9776257
92.452864
92.4272091
89.253505
87.8659023
87.9971263
92.4379114
92.4468698
89.1218594
87.8567076
88.0124919
92.4221509
92.4723238
88.9685488
87.8454111
88.0204503
92.4069115
92.4981981
88.8227796
87.83355
88.0411586
92.3985137
92.5230181
88.8209229
87.8296754
88.0446591
92.4217251
92.6911077
88.1826993
88.1806219
92.3482137
92.5676682
88.5668866
87.7769437
88.0376712
92.4031414
92.2453963
92.6273167
88.855487
87.9761936
87.956571
87.6714489
87.9876265
92.4888118
92.2956909
92.9317655
88.1825336
88.2254329
92.3697753
92.9589651
88.0959818
88.2448257
92.3388051
92.7353535
88.1270612
87.7314077
88.124345
92.4375193
93.0321059
88.0737618
88.2511766
92.3397675
92.7606893
88.1269491
87.7638211
88.1870522
92.4383074
92.9579922
88.1000923
88.3364193
92.3777348
92.9291891
88.0966761
88.4379645
92.3238915
92.7692491
88.1020864
87.8042781
88.4293044
92.3740774
92.7203393
88.1896164
87.9165537
87.8407671
88.3841726
92.4360848
92.2637807
92.8648799
88.222267
88.4865225
92.2779783
92.778895
88.1373139
87.8056137
88.4641856
92.3158904
92.2210545
92.7975531
88.3182958
87.9635642
87.9075249
88.5619573
92.3404981
92.7782068
88.0534979
87.8246923
88.6140968
92.3428966
92.7507579
88.1617049
87.8345709
88.5573374
92.3875704
93.0097995
88.1086786
88.5593737
92.2857884
92.7748488
88.0651874
87.8122212
88.544383
92.3891141
93.0508528
88.0728168
88.5477833
92.2816038
92.7680536
88.0524383
87.8289771
88.5759143
92.3742353
93.0962853
88.1341171
88.555587
92.2916738
93.0812636
88.1563723
88.8404056
92.2284519
92.6087989
88.3333165
88.1098425
88.1309828
88.032941
87.9274915
88.6731742
92.3216838
92.9910778
88.1909568
88.7480084
92.2198526
92.6717976
88.1645765
87.8835221
88.6832402
92.2506944
92.1979917
92.7664103
88.0955105
87.8215713
88.8307747
92.3461571
92.6904206
87.9813876
87.7896237
88.6266125
92.3554364
92.969687
88.0888248
88.6433452
92.2363916
92.6281421
88.1238324
87.9970197
88.0260699
87.8868827
88.5908491
92.3431418
92.9342792
88.1114453
88.692502
92.2578125
92.1829023
92.6799283
88.2495269
87.8427671
89.0051785
92.2930429
)
;

boundaryField
{
    closed
    {
        type            calculated;
        value           nonuniform List<scalar> 0();
    }
    open
    {
        type            calculated;
        value           nonuniform List<scalar> 0();
    }
    sides
    {
        type            empty;
    }
    procBoundary1to0
    {
        type            processor;
        value           uniform 87.9640171;
    }
    procBoundary1to2
    {
        type            processor;
        value           uniform 92.5421711;
    }
}


// ************************************************************************* //
