/*--------------------------------*- C++ -*----------------------------------*\
| =========                 |                                                 |
| \\      /  F ield         | OpenFOAM: The Open Source CFD Toolbox           |
|  \\    /   O peration     | Version:  2306                                  |
|   \\  /    A nd           | Website:  www.openfoam.com                      |
|    \\/     M anipulation  |                                                 |
\*---------------------------------------------------------------------------*/
FoamFile
{
    version     2.0;
    format      ascii;
    arch        "LSB;label=32;scalar=64";
    class       volScalarField;
    location    "0.00194";
    object      prefDh_H2O;
}
// * * * * * * * * * * * * * * * * * * * * * * * * * * * * * * * * * * * * * //

dimensions      [1 1 -3 0 0 0 0];

internalField   nonuniform List<scalar> 
530
(
-202.36957
-199.865602
-198.023968
-197.545406
-202.61814
-202.762222
-198.653626
-197.854142
-202.865811
-202.827103
-199.196347
-198.272555
-203.065168
-203.013852
-199.576493
-198.746087
-203.230998
-203.196849
-199.885276
-199.159846
-203.388541
-203.367502
-200.124826
-199.5681
-203.52567
-203.525825
-200.296457
-199.971488
-203.655698
-203.672759
-200.444438
-200.393084
-203.782122
-203.809353
-200.519739
-200.862171
-203.93082
-203.929517
-200.557016
-201.263102
-204.035284
-204.060999
-200.677257
-201.559174
-204.122986
-204.188109
-200.871426
-201.770207
-204.198646
-204.309728
-201.109063
-201.92681
-204.294697
-204.42347
-201.374696
-202.052532
-204.412318
-204.51647
-201.633148
-202.162019
-204.551346
-204.614162
-201.822049
-202.267076
-204.729127
-204.731627
-201.994902
-202.347037
-204.820339
-204.820588
-202.131747
-202.427542
-204.90764
-204.907515
-202.260207
-202.521369
-204.993316
-204.992649
-202.371279
-202.630791
-205.075718
-205.078065
-202.454971
-202.756338
-205.153765
-205.161323
-202.522316
-202.871884
-205.226291
-205.23884
-202.609853
-202.974097
-205.301315
-205.315032
-202.705548
-203.069979
-205.382826
-205.389611
-202.80573
-203.153374
-205.465598
-205.46902
-202.940228
-203.25228
-205.550119
-205.551041
-203.059562
-203.376273
-205.631675
-205.634641
-203.158473
-203.522658
-205.7116
-205.718219
-203.224404
-203.643963
-205.790462
-205.800583
-203.341918
-203.742537
-205.869699
-205.880931
-203.442692
-203.843859
-205.945487
-205.957022
-203.538979
-203.939326
-206.019841
-206.032646
-203.63226
-204.036637
-206.09432
-206.109091
-203.730695
-204.13532
-206.167271
-206.185255
-203.813649
-204.238954
-206.23853
-206.260049
-203.881204
-204.328715
-206.308992
-206.333744
-203.947734
-204.405132
-206.379062
-206.406516
-204.017636
-204.479452
-206.450748
-206.479909
-204.095361
-204.553729
-206.529428
-206.558484
-204.222091
-204.657637
-206.629452
-206.653232
-204.477374
-204.888174
-206.596833
-206.625464
-205.390308
-205.66157
-205.707434
-205.899804
-206.72688
-206.766521
-205.372865
-205.565729
-206.935359
-206.942281
-205.21718
-205.424838
-206.993936
-206.998543
-205.180056
-205.4044
-207.062799
-207.069239
-205.204809
-205.458972
-207.137068
-207.146338
-205.255477
-205.539562
-207.214738
-207.226365
-205.328267
-205.631649
-207.292405
-207.304848
-205.417053
-205.729066
-207.370276
-207.383153
-205.516993
-205.828982
-207.449375
-207.46211
-205.624602
-205.929468
-207.529468
-207.5413
-205.735657
-206.028018
-207.606762
-207.62055
-205.857791
-206.127527
-207.680068
-207.695293
-205.938924
-206.21232
-207.75078
-207.765707
-206.020068
-206.277622
-207.820056
-207.834176
-206.10238
-206.348991
-207.88894
-207.902491
-206.182305
-206.426847
-207.954579
-207.968165
-206.259878
-206.510749
-208.018195
-208.033249
-206.335532
-206.598471
-208.080919
-208.097939
-206.409983
-206.688167
-208.142889
-208.161132
-206.484726
-206.776339
-208.204659
-208.223002
-206.561049
-206.861397
-208.26579
-208.284135
-206.639568
-206.941234
-208.327915
-208.344826
-206.72952
-207.016978
-208.390741
-208.405659
-206.824684
-207.096777
-208.453459
-208.466135
-206.918667
-207.175644
-208.515404
-208.525797
-207.012295
-207.250534
-208.575691
-208.583879
-207.103006
-207.322905
-208.631882
-208.638289
-207.19289
-207.391582
-208.686425
-208.691485
-207.277671
-207.456954
-208.739624
-208.743431
-207.356134
-207.519077
-208.791283
-208.794163
-207.428281
-207.579265
-208.841384
-208.843831
-207.49619
-207.639981
-208.890192
-208.89271
-207.56368
-207.705636
-208.938196
-208.94126
-207.636049
-207.780417
-208.985778
-208.98975
-207.717238
-207.866117
-209.032107
-209.0378
-207.797853
-207.955084
-209.077506
-209.084382
-207.87659
-208.042437
-209.122248
-209.129691
-207.957861
-208.121209
-209.16716
-209.173441
-208.045672
-208.183896
-209.212308
-209.215762
-208.134221
-208.247203
-209.255163
-209.255745
-208.201415
-208.33751
-209.29473
-209.294203
-208.223394
-208.41574
-209.328975
-209.330827
-208.240911
-208.472095
-209.361483
-209.365105
-208.279726
-208.497779
-209.391598
-209.39828
-208.335008
-208.546363
-209.422548
-209.431371
-208.38019
-208.606953
-209.453364
-209.464272
-208.435953
-208.671403
-209.484272
-209.494672
-208.500349
-208.733975
-209.514938
-209.524071
-208.570083
-208.794053
-209.545188
-209.552476
-208.643422
-208.851857
-209.574964
-209.579909
-208.718832
-208.907369
-209.604416
-209.606495
-208.798285
-208.96272
-209.630626
-209.632181
-208.878324
-209.020665
-209.65547
-209.657145
-208.944831
-209.098154
-209.679887
-209.681354
-208.995409
-209.156775
-209.701528
-209.704374
-209.049462
-209.208271
-209.723304
-209.726007
-209.116152
-209.247676
-209.744282
-209.74667
-209.177492
-209.296571
-209.764353
-209.766804
-209.227928
-209.34856
-209.783342
-209.786154
-209.275613
-209.396429
-209.801558
-209.804574
-209.324659
-209.440536
-209.819133
-209.822068
-209.373815
-209.481593
-209.835967
-209.838723
-209.420874
-209.521263
-209.85195
-209.854608
-209.463529
-209.559774
-209.867082
-209.869682
-209.503709
-209.594945
-209.881476
-209.88392
-209.543978
-209.626741
-209.895192
-209.897362
-209.583188
-209.656602
-209.907963
-209.909727
-209.620416
-209.684743
-209.919749
-209.921232
-209.656088
-209.711335
-209.930931
-209.93215
-209.690664
-209.73686
-209.941994
-209.942948
-209.73243
-209.768891
-209.954496
-209.955072
-209.778406
-209.815282
-209.911052
-209.929035
-209.871681
-209.894296
-209.894641
-209.916708
-209.902463
-209.925687
-209.913588
-209.937662
-209.925536
-209.949935
-209.938494
-209.962628
-209.952331
-209.975555
-209.966867
-209.988509
-209.981852
-210.001235
-209.996967
-210.013447
-210.011842
-210.024832
-210.026104
-210.03506
-210.038015
-210.044385
-210.048064
-210.053207
-210.056319
-210.060343
-210.0627
-210.06564
-210.067284
-210.069269
-210.070326
-210.071558
-210.072195
-210.072916
-210.073296
-210.073722
-210.073844
-210.073765
-210.073712
-210.073676
-210.073654
-210.073642
-210.073636
-210.073634
-210.073632
-210.073632
-210.073632
-210.073632
-210.073632
-210.073632
-210.073632
-210.073632
-210.073632
-210.073632
-210.073632
-210.073632
-210.073632
-210.073632
-210.073632
-210.073632
-210.073632
-210.073632
-210.073632
-210.073632
-210.073632
-210.073632
-210.073632
-210.073632
-210.073632
-210.073632
)
;

boundaryField
{
    closed
    {
        type            calculated;
        value           nonuniform List<scalar> 0();
    }
    open
    {
        type            calculated;
        value           uniform -210.073632;
    }
    sides
    {
        type            empty;
    }
    procBoundary5to4
    {
        type            processor;
        value           uniform -200.20456;
    }
}


// ************************************************************************* //
