/*--------------------------------*- C++ -*----------------------------------*\
| =========                 |                                                 |
| \\      /  F ield         | OpenFOAM: The Open Source CFD Toolbox           |
|  \\    /   O peration     | Version:  2306                                  |
|   \\  /    A nd           | Website:  www.openfoam.com                      |
|    \\/     M anipulation  |                                                 |
\*---------------------------------------------------------------------------*/
FoamFile
{
    version     2.0;
    format      ascii;
    arch        "LSB;label=32;scalar=64";
    class       volScalarField;
    location    "0.00194";
    object      PV;
}
// * * * * * * * * * * * * * * * * * * * * * * * * * * * * * * * * * * * * * //

dimensions      [0 0 0 0 0 0 0];

internalField   nonuniform List<scalar> 
530
(
0.00697772672
0.00692916477
0.00689125756
0.00688608063
0.00698847097
0.00699105677
0.00690880832
0.00690165136
0.0069953446
0.007008423
0.00692378801
0.00691359095
0.00700310368
0.00701556258
0.00693539329
0.00692575259
0.00701047064
0.00702127139
0.00694507559
0.00693624373
0.00701716364
0.00702627185
0.00695292081
0.00694568166
0.00702291577
0.00703049852
0.00695895138
0.00695467593
0.00702795743
0.00703423239
0.00696346801
0.0069637169
0.00703235778
0.00703763365
0.00696593276
0.00697370611
0.0070366611
0.00704177281
0.00696724183
0.00698199176
0.00703959316
0.00704411823
0.00696971108
0.0069878209
0.00704189169
0.00704607175
0.00697327157
0.00699168244
0.00704369614
0.00704778002
0.00697737569
0.00699422687
0.00704582132
0.00704928353
0.00698196383
0.00699591524
0.0070481543
0.00705036218
0.00698623777
0.00699702755
0.00705069794
0.00705183657
0.00699034614
0.00699800842
0.00705383926
0.00705389368
0.00699400548
0.0069995835
0.0070561833
0.00705606527
0.00699670153
0.00700126082
0.00705821682
0.0070580797
0.00699898403
0.007002926
0.00705994548
0.00705988361
0.00700071011
0.0070046096
0.00706140639
0.00706125248
0.0070017925
0.00700637441
0.00706269299
0.007062422
0.00700240226
0.00700774354
0.00706385755
0.00706330602
0.0070031646
0.00700866042
0.00706458167
0.00706396283
0.00700377797
0.0070092748
0.00706451422
0.00706439342
0.0070042135
0.00700944644
0.00706406324
0.00706411383
0.00700434472
0.00700946357
0.00706315468
0.00706341281
0.00700406885
0.00700934086
0.00706222699
0.00706236543
0.00700338285
0.0070095045
0.0070611194
0.00706126905
0.00700200505
0.00700912076
0.0070600353
0.00705991781
0.00700154882
0.00700828819
0.00705884162
0.00705871147
0.00700071964
0.00700744127
0.00705760904
0.00705748234
0.00699975776
0.00700645833
0.0070564218
0.00705623725
0.00699870288
0.00700547765
0.00705519796
0.00705490102
0.00699776076
0.00700450696
0.00705411645
0.00705361599
0.006996726
0.00700365388
0.00705318076
0.00705248109
0.00699560159
0.00700276032
0.00705231531
0.00705147016
0.00699447564
0.00700173643
0.0070515355
0.00705055905
0.00699343137
0.00700070518
0.00705065472
0.00704967772
0.00699246375
0.0069996306
0.00704941106
0.00704851576
0.00699205003
0.00699883973
0.00704653436
0.00704573669
0.00699304088
0.00699951581
0.00703249417
0.00703315819
0.00700819325
0.00701279604
0.00701213953
0.00701569623
0.00703263828
0.00703338276
0.00700392848
0.00700717182
0.0070410951
0.00704075703
0.00699908116
0.00700249765
0.00704150692
0.00704142256
0.00699627847
0.00700005816
0.00704104036
0.00704091522
0.00699439447
0.00699865943
0.00704025317
0.00704004608
0.00699298413
0.0069977868
0.00703939172
0.00703908098
0.00699203432
0.00699723275
0.00703854919
0.00703819391
0.00699145329
0.00699689248
0.00703775965
0.00703741339
0.00699118137
0.00699672737
0.00703706968
0.00703676533
0.00699117488
0.0069967135
0.00703647791
0.00703627781
0.00699139049
0.00699681704
0.00703641271
0.00703592838
0.00699222317
0.00699713854
0.00703700584
0.00703625134
0.00699333958
0.00699789143
0.00703804278
0.00703722145
0.00699460781
0.00699882934
0.00703935105
0.00703850619
0.00699603665
0.00700005047
0.00704073273
0.00703991198
0.00699754425
0.00700150853
0.00704222854
0.00704135932
0.00699913071
0.00700317668
0.00704383569
0.00704284507
0.00700079409
0.007005008
0.00704553795
0.00704437083
0.00700253687
0.00700696957
0.00704731593
0.00704596287
0.00700437351
0.00700900918
0.00704909495
0.00704768808
0.00700632842
0.00701108954
0.00705090301
0.0070494615
0.00700838385
0.00701316488
0.00705255176
0.00705122464
0.0070105514
0.00701518541
0.00705409385
0.0070528989
0.0070128322
0.00701723344
0.00705561915
0.00705456483
0.00701517104
0.00701935382
0.00705718374
0.00705627706
0.00701759335
0.00702148871
0.00705886765
0.00705803138
0.00702005778
0.00702367033
0.00706057531
0.00705991225
0.00702259013
0.00702587531
0.00706235902
0.0070618706
0.00702512369
0.00702810517
0.00706424718
0.00706390989
0.00702763684
0.00703035875
0.00706625297
0.00706602462
0.00703012945
0.00703265482
0.0070683659
0.00706819425
0.00703263248
0.00703502874
0.00707055153
0.00707037946
0.00703519901
0.00703754555
0.00707275056
0.00707252726
0.0070379081
0.00704026291
0.00707490631
0.00707460115
0.0070408313
0.00704321042
0.00707709587
0.00707664729
0.00704384542
0.0070462755
0.00707929459
0.00707870887
0.00704688945
0.00704944504
0.00708145862
0.0070808464
0.00704997618
0.00705251371
0.00708350443
0.00708301355
0.00705313212
0.00705534527
0.0070854114
0.0070852016
0.00705626183
0.00705820999
0.00708729623
0.00708735459
0.0070591078
0.00706161129
0.00708923456
0.00708951596
0.00706121098
0.00706481236
0.00709172489
0.0070917639
0.00706332938
0.00706763373
0.00709430192
0.00709414297
0.00706592255
0.00706991177
0.00709714567
0.00709651999
0.00706885279
0.00707262821
0.0070995833
0.00709878985
0.00707155899
0.007075556
0.00710193165
0.00710089336
0.00707441167
0.00707856175
0.00710411565
0.00710299753
0.00707738186
0.00708154972
0.00710617245
0.00710506552
0.00708041851
0.00708448479
0.00710812789
0.00710711193
0.00708349291
0.00708736407
0.00710999713
0.00710913613
0.00708658731
0.00709018841
0.00711175481
0.00711110122
0.0070897713
0.00709299357
0.00711351211
0.00711300053
0.00709297137
0.00709582455
0.00711530926
0.00711481932
0.00709592645
0.00709900102
0.00711697607
0.00711657642
0.00709856181
0.00710179973
0.00711899572
0.00711834352
0.00710126296
0.00710443513
0.00712075398
0.0071201541
0.00710419623
0.00710682717
0.00712247801
0.00712194769
0.00710699577
0.00710937171
0.00712416247
0.00712364109
0.00710956372
0.00711194753
0.00712585381
0.00712528349
0.00711204807
0.00711441909
0.00712750018
0.00712690593
0.00711452491
0.00711679201
0.00712908037
0.0071285075
0.00711697136
0.00711908055
0.00713061283
0.0071300765
0.00711934866
0.00712131276
0.00713211762
0.00713160613
0.0071216156
0.00712349574
0.00713359371
0.00713310285
0.00712380408
0.00712558839
0.0071350287
0.00713457422
0.00712595977
0.0071275871
0.00713641463
0.00713601852
0.00712806146
0.00712951738
0.00713775648
0.00713742955
0.0071300902
0.00713138328
0.00713905856
0.00713880553
0.00713204933
0.00713318542
0.00714031566
0.00714014593
0.00713393226
0.00713491834
0.0071414363
0.00714137953
0.007135845
0.00713666471
0.00714215382
0.00714225697
0.00713751058
0.0071383871
0.00714058561
0.00714108226
0.00714053516
0.00714120637
0.00714177664
0.00714249827
0.0071428247
0.00714362402
0.00714405068
0.00714491551
0.00714539987
0.00714632233
0.00714687987
0.00714784874
0.00714848719
0.00714948884
0.00715021289
0.00715123049
0.00715204101
0.00715305328
0.00715394734
0.0071549273
0.00715589917
0.00715681226
0.00715785659
0.00715865767
0.00715962399
0.00716035377
0.00716131722
0.00716202478
0.00716284354
0.0071634869
0.00716413981
0.00716467343
0.0071651636
0.00716556496
0.00716590422
0.00716617485
0.00716638611
0.00716654697
0.00716666236
0.00716674521
0.00716680503
0.00716684722
0.00716687275
0.0071668878
0.00716689586
0.00716689995
0.00716690184
0.00716690265
0.00716690296
0.00716690307
0.00716690311
0.00716690312
0.00716690312
0.00716690312
0.00716690312
0.00716690312
0.00716690312
0.00716690312
0.00716690312
0.00716690312
0.00716690312
0.00716690312
0.00716690312
0.00716690312
0.00716690312
0.00716690312
0.00716690312
0.00716690312
0.00716690312
0.00716690312
0.00716690312
0.00716690312
0.00716690312
0.00716690312
)
;

boundaryField
{
    closed
    {
        type            zeroGradient;
    }
    open
    {
        type            zeroGradient;
    }
    sides
    {
        type            empty;
    }
    procBoundary5to4
    {
        type            processor;
        value           uniform 0.00693148223;
    }
}


// ************************************************************************* //
