/*--------------------------------*- C++ -*----------------------------------*\
| =========                 |                                                 |
| \\      /  F ield         | OpenFOAM: The Open Source CFD Toolbox           |
|  \\    /   O peration     | Version:  2306                                  |
|   \\  /    A nd           | Website:  www.openfoam.com                      |
|    \\/     M anipulation  |                                                 |
\*---------------------------------------------------------------------------*/
FoamFile
{
    version     2.0;
    format      ascii;
    arch        "LSB;label=32;scalar=64";
    class       volScalarField;
    location    "0.00194";
    object      Z;
}
// * * * * * * * * * * * * * * * * * * * * * * * * * * * * * * * * * * * * * //

dimensions      [0 0 0 0 0 0 0];

internalField   nonuniform List<scalar> 
530
(
0.0140463228
0.0142043838
0.0142548362
0.0142933081
0.014073207
0.0140940083
0.0142574205
0.0143169571
0.0141000442
0.0140936586
0.0142605155
0.0143235768
0.0141201811
0.0141094537
0.0142681764
0.0143249521
0.0141362201
0.0141255117
0.0142768477
0.0143264939
0.0141499116
0.0141401987
0.014286721
0.0143272579
0.0141620374
0.0141538695
0.0142979234
0.0143262327
0.0141727829
0.0141661094
0.0143104268
0.014322327
0.0141822712
0.0141764798
0.0143255956
0.0143155433
0.0141888478
0.0141841514
0.0143407919
0.0143103301
0.014196047
0.0141929762
0.0143504334
0.0143091534
0.0142033029
0.0142007787
0.0143549437
0.0143111255
0.0142106013
0.0142073936
0.014356046
0.0143149854
0.0142166071
0.0142129679
0.0143548283
0.0143196867
0.0142209462
0.0142179354
0.0143529704
0.0143245575
0.0142237002
0.0142214356
0.0143506495
0.0143292883
0.0142240463
0.0142231827
0.0143483674
0.0143319107
0.0142244647
0.0142238246
0.0143469135
0.0143331434
0.0142244332
0.014223868
0.0143452638
0.0143332386
0.0142240175
0.0142233902
0.0143437685
0.0143321482
0.0142228528
0.0142226576
0.0143429389
0.0143299456
0.0142208888
0.0142213735
0.0143422208
0.014327614
0.0142184023
0.0142196518
0.0143403489
0.014325351
0.0142161909
0.0142175679
0.014337565
0.0143229125
0.0142146035
0.0142150541
0.014334247
0.0143204546
0.0142130848
0.0142129367
0.0143306454
0.0143174128
0.0142117662
0.0142110884
0.0143272273
0.0143138234
0.014209785
0.0142094088
0.0143244251
0.0143090934
0.0142074416
0.0142074701
0.0143224923
0.0143050639
0.0142047326
0.0142054286
0.0143186884
0.014301803
0.0142019039
0.0142028477
0.014315205
0.0142982799
0.0141989997
0.0142000725
0.014311772
0.0142948963
0.0141958506
0.014197162
0.0143083715
0.0142913799
0.0141926976
0.0141943622
0.0143048134
0.0142877791
0.0141893025
0.0141915189
0.0143015098
0.0142840505
0.0141855864
0.014188454
0.0142985829
0.0142805476
0.0141817161
0.0141851606
0.0142957685
0.0142775185
0.0141777992
0.0141817257
0.0142929294
0.01427469
0.014174277
0.0141784883
0.0142897313
0.0142718187
0.0141723368
0.0141765109
0.0142842626
0.0142674705
0.0141755299
0.014179066
0.0142729433
0.0142574383
0.0141989604
0.0141984903
0.0142441733
0.0142331229
0.0142301382
0.0142232355
0.014197642
0.0141962953
0.0142431129
0.0142354222
0.0141797363
0.0141807178
0.0142500359
0.0142415208
0.0141736242
0.0141741812
0.0142535019
0.0142440924
0.0141700855
0.0141709382
0.0142551992
0.0142445075
0.0141680223
0.0141693526
0.0142560061
0.0142439475
0.0141668773
0.0141686901
0.0142561657
0.0142431042
0.0141664113
0.0141685378
0.014255893
0.0142422579
0.0141665226
0.0141687812
0.0142553996
0.0142415525
0.0141671005
0.0141693606
0.0142548377
0.0142410854
0.0141680984
0.0141702288
0.0142543399
0.0142409685
0.014168938
0.0141714013
0.0142536405
0.0142411373
0.014169381
0.01417222
0.0142531974
0.0142414328
0.0141696537
0.0141725863
0.0142531124
0.0142420988
0.0141700086
0.0141728747
0.0142533062
0.0142429102
0.0141706719
0.0141734222
0.0142538584
0.0142437447
0.0141715729
0.0141743805
0.0142547596
0.0142445778
0.0141726891
0.0141757613
0.0142559667
0.0142454797
0.0141740267
0.0141774999
0.0142574259
0.0142465139
0.0141756301
0.014179392
0.0142590556
0.0142478369
0.0141776292
0.0141814027
0.0142608151
0.0142494713
0.0141799039
0.0141836796
0.0142626289
0.0142514601
0.0141827629
0.0141862523
0.0142644197
0.0142537346
0.0141861896
0.0141892391
0.0142661985
0.0142562171
0.01419001
0.0141925597
0.0142681376
0.0142588585
0.0141940574
0.0141961171
0.0142702312
0.0142617462
0.0141982122
0.0141999008
0.0142725867
0.014264843
0.0142024479
0.0142037078
0.0142750705
0.0142681776
0.0142066984
0.0142076049
0.0142778625
0.0142717234
0.0142109792
0.014211569
0.014280991
0.0142754733
0.0142152403
0.0142155944
0.0142844464
0.0142793752
0.0142194818
0.0142197216
0.0142881448
0.0142833321
0.014223778
0.0142240361
0.0142919348
0.0142871784
0.0142282621
0.0142286821
0.0142956232
0.0142907553
0.014233051
0.0142337212
0.014299089
0.0142940122
0.0142379651
0.0142390624
0.0143025429
0.0142971985
0.0142430039
0.0142443905
0.0143059648
0.0143003585
0.0142482579
0.0142497885
0.0143092749
0.0143036887
0.0142539631
0.014255152
0.0143122774
0.0143075418
0.0142601633
0.0142605177
0.0143151534
0.0143113686
0.0142664598
0.0142660141
0.0143186417
0.0143144059
0.0142723683
0.0142714644
0.0143236181
0.0143178147
0.0142770271
0.0142767026
0.0143288634
0.0143218914
0.014281408
0.0142816476
0.014333569
0.0143268728
0.0142853634
0.014286593
0.0143377839
0.0143311595
0.0142898835
0.0142917827
0.0143421681
0.0143350004
0.0142946847
0.0142972052
0.0143460854
0.0143386794
0.0142998069
0.0143022049
0.0143496042
0.0143424035
0.0143051563
0.0143071575
0.0143528463
0.014346137
0.0143106716
0.0143120767
0.0143558736
0.0143498566
0.0143163099
0.014316979
0.0143587586
0.0143535616
0.0143220613
0.0143219117
0.0143615197
0.0143571809
0.014327151
0.0143268376
0.0143642211
0.014360622
0.0143320244
0.0143317519
0.0143672808
0.0143634314
0.0143370298
0.0143366209
0.0143706882
0.0143666543
0.0143414062
0.0143413715
0.0143739512
0.0143699683
0.014345957
0.0143459879
0.0143768105
0.0143735228
0.0143504058
0.0143504924
0.014379699
0.0143767177
0.0143548395
0.0143549732
0.0143827798
0.0143797228
0.0143591577
0.0143594149
0.014385823
0.0143827343
0.0143634041
0.0143637614
0.014388713
0.0143857423
0.0143676277
0.0143679971
0.0143914863
0.014388729
0.0143717819
0.0143721413
0.0143941975
0.0143916439
0.0143758283
0.0143761887
0.014396913
0.0143944703
0.014379764
0.0143801282
0.0143995858
0.0143972772
0.0143835981
0.0143839523
0.0144021433
0.0144000692
0.0143873436
0.0143876515
0.0144046175
0.0144028067
0.0143909947
0.0143912377
0.0144070314
0.0144054848
0.0143945417
0.0143947244
0.0144093651
0.0144080954
0.0143980034
0.014398137
0.014411577
0.0144105986
0.0144015262
0.0144016356
0.0144133442
0.0144126733
0.0144056555
0.0144057155
0.0144143097
0.0144137481
0.0144121946
0.0144121214
0.0144149809
0.0144149865
0.0144163524
0.0144165228
0.0144183594
0.0144186333
0.0144205504
0.0144209174
0.0144229698
0.0144234463
0.0144256176
0.0144262168
0.0144284894
0.0144292225
0.014431571
0.0144324434
0.0144348359
0.0144358429
0.014438243
0.0144393649
0.0144417361
0.0144429318
0.0144452449
0.0144464466
0.014448433
0.0144496356
0.0144515444
0.0144527648
0.014454364
0.0144554995
0.0144567625
0.0144577139
0.0144586537
0.0144593703
0.0144600134
0.0144604936
0.0144608869
0.0144611666
0.0144613744
0.0144615115
0.0144615999
0.0144616509
0.0144616801
0.0144616952
0.0144617024
0.0144617054
0.0144617066
0.0144617069
0.0144617069
0.0144617069
0.0144617069
0.0144617069
0.0144617069
0.0144617069
0.0144617069
0.0144617069
0.0144617069
0.0144617069
0.0144617069
0.0144617069
0.0144617069
0.0144617069
0.0144617069
0.0144617069
0.0144617069
0.0144617069
0.0144617069
0.0144617069
0.0144617069
0.0144617069
0.0144617069
0.0144617069
0.0144617069
0.0144617069
)
;

boundaryField
{
    closed
    {
        type            zeroGradient;
    }
    open
    {
        type            zeroGradient;
    }
    sides
    {
        type            empty;
    }
    procBoundary5to4
    {
        type            processor;
        value           uniform 0.0141743272;
    }
}


// ************************************************************************* //
