/*--------------------------------*- C++ -*----------------------------------*\
| =========                 |                                                 |
| \\      /  F ield         | OpenFOAM: The Open Source CFD Toolbox           |
|  \\    /   O peration     | Version:  2306                                  |
|   \\  /    A nd           | Website:  www.openfoam.com                      |
|    \\/     M anipulation  |                                                 |
\*---------------------------------------------------------------------------*/
FoamFile
{
    version     2.0;
    format      ascii;
    arch        "LSB;label=32;scalar=64";
    class       volScalarField;
    location    "0.00086";
    object      prefDZ_H;
}
// * * * * * * * * * * * * * * * * * * * * * * * * * * * * * * * * * * * * * //

dimensions      [1 -1 -1 0 0 0 0];

internalField   nonuniform List<scalar> 
530
(
0.000110618875
0.00010825857
0.000107847306
0.000107840689
0.000107840113
0.000107840096
0.000107840095
0.000107840095
0.000107840095
0.000107840095
0.000107840095
0.000107840095
0.000107840095
0.000107840095
0.000107840095
0.000107840095
0.000107840095
0.000107840095
0.000107840095
0.000107840095
0.000107840095
0.000107840095
0.000107840095
0.000107840095
0.000107840095
0.000107840095
0.000107840095
0.000107840095
0.000107840095
0.000107840095
0.000107840095
0.000107840095
0.000107840095
0.000107840095
0.000107840095
0.000107840095
0.000107840095
0.000107840095
0.000107840095
0.000107840095
0.000107840095
0.000107840095
0.000107840095
0.000107840095
0.000107840095
0.000107840095
0.000107840095
0.000107840095
0.000107840095
0.000107840095
0.000107840095
0.000107840095
0.000107840095
0.000107840095
0.000107840095
0.000107840095
0.000107840095
0.000107840095
0.000107840095
0.000107840095
0.000107840095
0.000107840095
0.000107840095
0.000107840095
0.000107840095
0.000107840095
0.000107840095
0.000107840095
0.000107840095
0.000107840096
0.000107840096
0.000107840098
0.000107840102
0.000107840114
0.00010784013
0.000107840185
0.000107840261
0.000107840441
0.000107840717
0.000107841336
0.000107841851
0.000107842714
0.000107847613
0.000107857667
0.000107845401
0.000107818223
0.00010786397
0.000108037787
0.000107865166
0.000107709961
0.00010772004
0.00011041984
0.000109948297
0.000107129849
0.000105942656
0.000107698079
0.000110308973
0.000110352179
0.000109977689
0.000106847703
0.00010628513
0.000106294315
0.000107727542
0.00011040548
0.000110252863
0.000110338474
0.000110166378
0.000106918961
0.000106552152
0.000106986364
0.000107802145
0.000110430813
0.000110289886
0.000107130071
0.000106927352
0.000107403222
0.000107105008
0.000107827651
0.00011038099
0.000110211713
0.000110361117
0.00011018695
0.000107051639
0.000105930664
0.000107786856
0.000110286837
0.000110293743
0.000106292058
0.000105813762
0.000107883636
0.00011027151
0.000110283253
0.000106828578
0.000107422727
0.000110379217
0.000110128029
0.000106642202
0.000107358299
0.000110417163
0.000110213659
0.000106768262
0.000107742332
0.000110369442
0.000110192305
0.000106335076
0.000105859046
0.000107873755
0.000110271568
0.000110354399
0.000106874834
0.000107417419
0.000110409134
0.000110294204
0.000106921003
0.000107754138
0.000110397625
0.00011024413
0.000106581996
0.000106064138
0.000107846476
0.000110295207
0.000110408129
0.000107114129
0.000107515195
0.000110424533
0.000110341298
0.000107097773
0.000107829344
0.000110423055
0.000110274255
0.000106793057
0.000106199934
0.000107770057
0.00011022994
0.000110428998
0.000106852809
0.000106595783
0.000106636456
0.000107749578
0.000110361111
0.00011044404
0.000107001275
0.000107390148
0.000110417893
0.000110375606
0.000107021784
0.000107640755
0.000110400838
0.000110281698
0.000106737165
0.000106024398
0.000107755087
0.000110289051
0.000110485246
0.000107204398
0.000107661736
0.000110359988
0.000110313071
0.000106949514
0.000106131125
0.000107854723
0.000110260767
0.000110358378
0.000106860206
0.000105857324
0.000107468412
0.000110243012
0.000110435337
0.000106898619
0.000106931605
0.000110318694
0.000110351973
0.000106730575
0.000106814888
0.000110330209
0.000110338379
0.000106594349
0.000106714966
0.000110323377
0.000110334076
0.000106524961
0.000106648868
0.000110321616
0.000110332286
0.000106500439
0.000106637887
0.000110323064
0.000110332957
0.000106513014
0.000106671099
0.000110334771
0.000110342457
0.000106591329
0.00010677645
0.000110361382
0.000110356453
0.000106686498
0.000107074092
0.000110355068
0.000110274188
0.000106502574
0.000105580112
0.000107188491
0.000110251811
0.000110455294
0.000106899314
0.000106966323
0.00011037095
0.000110398021
0.000106971083
0.00010729352
0.000110392839
0.000110316348
0.000106851386
0.000105920124
0.000107464793
0.00011030541
0.000110489673
0.000107111001
0.000107411154
0.000110401491
0.000110343245
0.000107087141
0.000106120367
0.000107560384
0.000110307079
0.000110555159
0.000107239163
0.00010751569
0.00011036705
0.000110417783
0.000107120408
0.000106784378
0.00010668106
0.000107460228
0.000110421377
0.000110501544
0.000107279432
0.00010755414
0.000110485671
0.000110376081
0.000107434398
0.000106393332
0.00010772154
0.000110301908
0.000110437216
0.000110381589
0.000107697885
0.000106744691
0.000106834513
0.000107585341
0.000110456642
0.000110411649
0.00010741297
0.000106404488
0.00010776443
0.000110381082
0.000110450998
0.000107780746
0.000106608136
0.000107787879
0.000110377067
0.00011042425
0.000107792498
0.0001064966
0.000107755532
0.000110363593
0.000110400555
0.000107539462
0.000106237749
0.000107369422
0.000110330904
0.00011045085
0.00010721157
0.000107223341
0.000110381911
0.000110299855
0.000107084783
0.000105851237
0.000106945791
0.000110272949
0.000110460432
0.000106725367
0.000106882375
0.000110363394
0.000110325557
0.000110335509
0.000110346613
0.000107174172
0.000106003742
0.000106117286
0.000106502339
0.000110336677
0.000110387364
0.000106728908
0.000106707587
0.000110373467
0.000110367572
0.000106853023
0.000106952997
0.000110396246
0.000110291073
0.000107033708
0.000105939999
0.000106951711
0.00011029813
0.000110461296
0.000107132553
0.000107014022
0.000110392192
0.0001104347
0.000107274263
0.000107303656
0.000110450516
0.000110376587
0.000107704267
0.000106703261
0.000107724986
0.000110383013
0.000110407762
0.000107790897
0.000106801588
0.000107334591
0.00010633944
0.000107249246
0.000110382418
0.000110390028
0.000110395867
0.000110394945
0.000107785012
0.000106336886
0.000107390804
0.000110344171
0.00011035289
0.000107556492
0.000106430887
0.000106975911
0.000105848563
0.000106704168
0.000110306044
0.000110380782
0.000110327292
0.000110402357
0.00010714513
0.000106817606
0.000110347323
0.000110307916
0.000107226247
0.000106007158
0.000106808575
0.000110293467
0.00011039541
0.000107191416
0.000107035602
0.000110331792
0.000110289292
0.000107378965
0.000106095044
0.000106887095
0.000110254989
0.00011038978
0.000106786225
0.00010715789
0.000110381478
0.000106916262
0.000106476285
0.000110362775
0.000110300985
0.000110405869
0.000106780742
0.000106456067
0.000110269228
0.00011031425
0.000110302475
0.000107607201
0.000106128828
0.00010701923
0.000106213667
0.00010672147
0.000110219278
0.000110380765
0.00010699338
0.00010701244
0.000110334521
0.000110329824
0.000110356352
0.00010730757
0.000106605346
0.000110345891
0.000110261761
0.00010713319
0.000105845245
0.000106567585
0.000110221613
0.000110400776
0.000106841625
0.000106832352
0.000110288194
0.000110327016
0.000110329131
0.000107470323
0.000105701161
0.00010664888
0.000110277251
0.000110345131
0.000107599941
0.000106362704
0.000107020572
0.000110324212
0.000110324935
0.000107835604
0.000106599071
0.000107151928
0.000110319622
0.000110343589
0.000107828
0.000106490448
0.000106969857
0.00011032541
0.000110337696
0.000107574459
0.000105963379
0.000106756756
0.0001103164
0.000110330014
0.000110333979
0.00011033701
0.000107727555
0.000105926382
0.000106607294
0.000110322345
0.000110304573
0.000107311812
0.000105843607
0.000106436242
0.000110265344
0.000110380308
0.000106932205
0.000106641334
0.000110315545
0.000110367761
0.000106819943
0.000106710383
0.000110350643
0.000110335057
0.000106884837
0.000106786557
0.000110392892
0.000110276252
0.000107227426
0.000106061133
0.000106540658
0.000110283272
0.000110384968
0.000107125957
0.000106878345
0.000110370903
0.00011035752
0.000107042352
0.000106916364
0.000110432072
0.000110300325
0.000107244453
0.000106070285
0.000106556389
0.00011032519
0.000110417129
0.000107108114
0.00010688539
0.000110415215
0.000110401645
0.000107102287
0.000107010914
0.000110462074
0.000110362957
0.000107430367
0.000106388656
0.000106799903
0.000110438773
0.00011037121
0.000107742414
0.000106304006
0.000107730342
0.00011041204
0.000107736605
0.000106932695
0.000110513611
0.000110395192
0.000107332451
0.000107203825
)
;

boundaryField
{
    closed
    {
        type            calculated;
        value           uniform 0.000143763672;
    }
    open
    {
        type            calculated;
        value           nonuniform List<scalar> 0();
    }
    sides
    {
        type            empty;
    }
    procBoundary0to1
    {
        type            processor;
        value           uniform 0.000110512049;
    }
}


// ************************************************************************* //
