/*--------------------------------*- C++ -*----------------------------------*\
| =========                 |                                                 |
| \\      /  F ield         | OpenFOAM: The Open Source CFD Toolbox           |
|  \\    /   O peration     | Version:  2306                                  |
|   \\  /    A nd           | Website:  www.openfoam.com                      |
|    \\/     M anipulation  |                                                 |
\*---------------------------------------------------------------------------*/
FoamFile
{
    version     2.0;
    format      ascii;
    arch        "LSB;label=32;scalar=64";
    class       volScalarField;
    location    "0.00086";
    object      prefDPV_T;
}
// * * * * * * * * * * * * * * * * * * * * * * * * * * * * * * * * * * * * * //

dimensions      [1 -1 -1 -1 0 0 0];

internalField   nonuniform List<scalar> 
530
(
6.02802614e-10
5.97912856e-10
5.97547419e-10
5.97549627e-10
5.97549776e-10
5.97549775e-10
5.97549775e-10
5.97549775e-10
5.97549775e-10
5.97549775e-10
5.97549775e-10
5.97549775e-10
5.97549775e-10
5.97549775e-10
5.97549775e-10
5.97549775e-10
5.97549775e-10
5.97549775e-10
5.97549775e-10
5.97549775e-10
5.97549775e-10
5.97549775e-10
5.97549775e-10
5.97549775e-10
5.97549775e-10
5.97549775e-10
5.97549775e-10
5.97549775e-10
5.97549775e-10
5.97549775e-10
5.97549775e-10
5.97549775e-10
5.97549775e-10
5.97549775e-10
5.97549775e-10
5.97549775e-10
5.97549775e-10
5.97549775e-10
5.97549775e-10
5.97549775e-10
5.97549775e-10
5.97549775e-10
5.97549775e-10
5.97549775e-10
5.97549775e-10
5.97549775e-10
5.97549775e-10
5.97549775e-10
5.97549775e-10
5.97549775e-10
5.97549775e-10
5.97549775e-10
5.97549775e-10
5.97549775e-10
5.97549775e-10
5.97549775e-10
5.97549775e-10
5.97549775e-10
5.97549775e-10
5.97549775e-10
5.97549775e-10
5.97549775e-10
5.97549775e-10
5.97549775e-10
5.97549775e-10
5.97549775e-10
5.97549775e-10
5.97549775e-10
5.97549775e-10
5.97549775e-10
5.97549775e-10
5.97549775e-10
5.97549777e-10
5.97549778e-10
5.97549773e-10
5.97549808e-10
5.97549878e-10
5.97549797e-10
5.97549981e-10
5.97550989e-10
5.97546263e-10
5.97538763e-10
5.97582984e-10
5.97678195e-10
5.97431249e-10
5.96770221e-10
5.97525667e-10
5.99677818e-10
5.97568167e-10
5.91044514e-10
5.93214592e-10
6.0918955e-10
6.1095468e-10
5.90374085e-10
5.89168611e-10
5.92399234e-10
6.08885847e-10
6.08266286e-10
6.11165578e-10
5.90173738e-10
5.89483277e-10
5.89366789e-10
5.92904052e-10
6.0885152e-10
6.0918974e-10
6.08815813e-10
6.10407797e-10
5.90153898e-10
5.89835608e-10
5.900811e-10
5.93701968e-10
6.08336815e-10
6.09549258e-10
5.90261313e-10
5.90241104e-10
5.90540497e-10
5.90293246e-10
5.96376021e-10
6.08460677e-10
6.09119637e-10
6.0848171e-10
6.10287075e-10
5.90213707e-10
5.89162752e-10
5.92804742e-10
6.08981119e-10
6.09833635e-10
5.89431866e-10
5.8906471e-10
5.91687962e-10
6.09009274e-10
6.10484148e-10
5.90004201e-10
5.91087567e-10
6.08678798e-10
6.11000545e-10
5.89667036e-10
5.91043089e-10
6.086149e-10
6.10504757e-10
5.89809745e-10
5.91393237e-10
6.08661819e-10
6.09810695e-10
5.89413527e-10
5.89167303e-10
5.91437435e-10
6.0896294e-10
6.09914396e-10
5.90029317e-10
5.90949216e-10
6.08495361e-10
6.09966326e-10
5.89964948e-10
5.91326964e-10
6.08509007e-10
6.09488982e-10
5.89647932e-10
5.89340618e-10
5.91478578e-10
6.087891e-10
6.09445245e-10
5.90283037e-10
5.9099643e-10
6.08333619e-10
6.0951528e-10
5.90150191e-10
5.91363839e-10
6.08359587e-10
6.09223463e-10
5.89814955e-10
5.89492698e-10
5.92281801e-10
6.08862815e-10
6.0874124e-10
5.90173872e-10
5.89762605e-10
5.89863892e-10
5.91084099e-10
6.08596794e-10
6.09030009e-10
5.90110477e-10
5.90789101e-10
6.08360815e-10
6.09116228e-10
5.90087799e-10
5.91124608e-10
6.08426729e-10
6.09094015e-10
5.89790813e-10
5.89263027e-10
5.9098664e-10
6.08786863e-10
6.08701524e-10
5.90435945e-10
5.91043632e-10
6.08433866e-10
6.08902526e-10
5.90078878e-10
5.89372338e-10
5.9138428e-10
6.08918559e-10
6.08863439e-10
5.90058952e-10
5.89064164e-10
5.90738927e-10
6.09047645e-10
6.08904698e-10
5.90131135e-10
5.90226839e-10
6.08762993e-10
6.09153923e-10
5.89854067e-10
5.90154391e-10
6.08833071e-10
6.0920653e-10
5.89691257e-10
5.90040199e-10
6.08895145e-10
6.09237503e-10
5.89614764e-10
5.89964262e-10
6.08907613e-10
6.09237735e-10
5.89584937e-10
5.89945595e-10
6.08906246e-10
6.09201054e-10
5.89588347e-10
5.8997157e-10
6.08857114e-10
6.09112301e-10
5.89648135e-10
5.90071628e-10
6.08740672e-10
6.08949138e-10
5.89745426e-10
5.904373e-10
6.08724359e-10
6.09014111e-10
5.89541384e-10
5.88750043e-10
5.90347477e-10
6.09081139e-10
6.0868941e-10
5.90075e-10
5.90157344e-10
6.08540566e-10
6.08716211e-10
5.90041867e-10
5.90623265e-10
6.08495638e-10
6.08790932e-10
5.89884982e-10
5.89066523e-10
5.90601344e-10
6.08853486e-10
6.08355937e-10
5.90263159e-10
5.90659606e-10
6.08367216e-10
6.08649544e-10
5.90106223e-10
5.89281843e-10
5.90618751e-10
6.08772869e-10
6.08122059e-10
5.90444908e-10
5.90642804e-10
6.08382848e-10
6.08364452e-10
5.90254814e-10
5.89887176e-10
5.8975106e-10
5.90617957e-10
6.08425579e-10
6.08197751e-10
5.9030789e-10
5.90752684e-10
6.08066608e-10
6.08444552e-10
5.90407886e-10
5.89573233e-10
5.91793023e-10
6.08950761e-10
6.07779135e-10
6.08723804e-10
5.90830722e-10
5.89879692e-10
5.89835343e-10
5.90824664e-10
6.08310087e-10
6.08377436e-10
5.90441066e-10
5.89462125e-10
5.9104341e-10
6.08460482e-10
6.08268762e-10
5.90968532e-10
5.89698767e-10
5.91364802e-10
6.08426422e-10
6.08321641e-10
5.90991637e-10
5.89605518e-10
5.90952179e-10
6.08573177e-10
6.08431671e-10
5.90707211e-10
5.89341001e-10
5.90481632e-10
6.08784736e-10
6.08272912e-10
5.90397907e-10
5.904278e-10
6.0857132e-10
6.08731942e-10
5.90148391e-10
5.89004487e-10
5.89955401e-10
6.09085496e-10
6.08408647e-10
5.89882456e-10
5.89991425e-10
6.08798765e-10
6.08791497e-10
6.08654082e-10
6.08958176e-10
5.9038584e-10
5.89073644e-10
5.891793e-10
5.89607086e-10
6.08897519e-10
6.08667947e-10
5.89817267e-10
5.89792516e-10
6.08769984e-10
6.08553494e-10
5.89929321e-10
5.90163818e-10
6.08610117e-10
6.08778371e-10
5.90072891e-10
5.89075898e-10
5.89953429e-10
6.08892515e-10
6.08316235e-10
5.90324927e-10
5.90043999e-10
6.08525292e-10
6.08275643e-10
5.90361584e-10
5.90454865e-10
6.08250617e-10
6.08380033e-10
5.90796001e-10
5.89838965e-10
5.90857963e-10
6.0837662e-10
6.08199981e-10
5.91427079e-10
5.899525e-10
5.90449033e-10
5.89422538e-10
5.9037665e-10
6.08772023e-10
6.08404779e-10
6.08321483e-10
6.08526797e-10
5.91679387e-10
5.89426432e-10
5.90555874e-10
6.08652024e-10
6.08456605e-10
5.90750554e-10
5.89594101e-10
5.90078785e-10
5.88929549e-10
5.89766949e-10
6.09194682e-10
6.08628644e-10
6.08782618e-10
6.08606493e-10
5.90302968e-10
5.89947915e-10
6.0877223e-10
6.08742236e-10
5.90326773e-10
5.8911455e-10
5.89837612e-10
6.08950324e-10
6.0838567e-10
5.90397385e-10
5.90211245e-10
6.08763933e-10
6.0870398e-10
5.90505925e-10
5.89287959e-10
5.8992848e-10
6.09122572e-10
6.08304452e-10
5.89916911e-10
5.90359811e-10
6.08853654e-10
5.90030902e-10
5.89533898e-10
6.09425385e-10
6.08657912e-10
6.09044203e-10
5.89929901e-10
5.89487342e-10
6.09498869e-10
6.08396707e-10
6.09060032e-10
5.90842908e-10
5.89356167e-10
5.90155633e-10
5.89478993e-10
5.89781432e-10
6.09089725e-10
6.08398882e-10
5.90223895e-10
5.90176402e-10
6.09007939e-10
6.08317641e-10
6.08844393e-10
5.90450251e-10
5.89773984e-10
6.08826465e-10
6.08883304e-10
5.90170577e-10
5.89016162e-10
5.89525836e-10
6.09205639e-10
6.08444303e-10
5.9006509e-10
5.8993846e-10
6.09209085e-10
6.08315577e-10
6.09023288e-10
5.90656085e-10
5.88762067e-10
5.89715053e-10
6.0893149e-10
6.0867413e-10
5.90869189e-10
5.89479843e-10
5.90208519e-10
6.08618262e-10
6.08564993e-10
5.91257694e-10
5.89786821e-10
5.90318749e-10
6.08582259e-10
6.08524592e-10
5.91098777e-10
5.89635413e-10
5.9011697e-10
6.08650489e-10
6.08635153e-10
5.90799295e-10
5.89033538e-10
5.8986301e-10
6.09024521e-10
6.08724486e-10
6.0852787e-10
6.08887824e-10
5.90980311e-10
5.88988011e-10
5.89698688e-10
6.08830459e-10
6.08856122e-10
5.90470125e-10
5.88951628e-10
5.89421124e-10
6.09050017e-10
6.0856152e-10
5.90161344e-10
5.89675817e-10
6.08944346e-10
6.08515226e-10
5.89970045e-10
5.89794043e-10
6.08870917e-10
6.08535368e-10
5.89997305e-10
5.8997169e-10
6.08649983e-10
6.08809522e-10
5.90334215e-10
5.89230062e-10
5.89524211e-10
6.08889227e-10
6.08476929e-10
5.90375926e-10
5.89965041e-10
6.08671585e-10
6.08424531e-10
5.90177979e-10
5.90088119e-10
6.08495162e-10
6.08738096e-10
5.90320371e-10
5.891907e-10
5.89491183e-10
6.08799787e-10
6.08422693e-10
5.90308223e-10
5.8990227e-10
6.08566378e-10
6.0834249e-10
5.90210341e-10
5.90100016e-10
6.08398067e-10
6.08562915e-10
5.90536277e-10
5.89421473e-10
5.89810058e-10
6.08342643e-10
6.08619329e-10
5.91895654e-10
5.89318805e-10
5.92884507e-10
6.0869469e-10
5.92073912e-10
5.89986491e-10
6.0818622e-10
6.08318185e-10
5.90370656e-10
5.90318266e-10
)
;

boundaryField
{
    closed
    {
        type            calculated;
        value           uniform 7.28245115e-10;
    }
    open
    {
        type            calculated;
        value           nonuniform List<scalar> 0();
    }
    sides
    {
        type            empty;
    }
    procBoundary0to1
    {
        type            processor;
        value           uniform 6.08242597e-10;
    }
}


// ************************************************************************* //
