/*--------------------------------*- C++ -*----------------------------------*\
| =========                 |                                                 |
| \\      /  F ield         | OpenFOAM: The Open Source CFD Toolbox           |
|  \\    /   O peration     | Version:  2306                                  |
|   \\  /    A nd           | Website:  www.openfoam.com                      |
|    \\/     M anipulation  |                                                 |
\*---------------------------------------------------------------------------*/
FoamFile
{
    version     2.0;
    format      ascii;
    arch        "LSB;label=32;scalar=64";
    class       volScalarField;
    location    "0.00092";
    object      mu;
}
// * * * * * * * * * * * * * * * * * * * * * * * * * * * * * * * * * * * * * //

dimensions      [1 -1 -1 0 0 0 0];

internalField   nonuniform List<scalar> 
530
(
1.98847364e-05
1.95503984e-05
1.95476559e-05
2.02042779e-05
2.02889929e-05
1.98209955e-05
1.94956119e-05
1.94777902e-05
2.01232054e-05
2.02974083e-05
1.98571281e-05
1.96541218e-05
1.96739831e-05
2.01575883e-05
2.03101283e-05
1.97964204e-05
1.95992497e-05
1.95353749e-05
1.97115998e-05
2.0093296e-05
2.02713534e-05
2.02883223e-05
2.02986099e-05
1.98426624e-05
1.95342547e-05
1.95040557e-05
1.99392627e-05
2.02749059e-05
1.98908715e-05
1.96790535e-05
1.95384851e-05
1.95555486e-05
1.99038918e-05
2.02645773e-05
1.99246307e-05
1.96577288e-05
1.95772634e-05
1.98619873e-05
2.02583528e-05
1.99421674e-05
1.96533916e-05
1.95728091e-05
1.98398451e-05
2.02328972e-05
2.02773876e-05
2.02890666e-05
1.99875259e-05
1.97056072e-05
1.95121772e-05
1.95171062e-05
1.98232452e-05
2.02470772e-05
1.99681116e-05
1.97258033e-05
1.95361554e-05
1.95368765e-05
1.98183812e-05
2.02478322e-05
2.00256988e-05
1.97501741e-05
1.95995978e-05
1.98002613e-05
2.02559037e-05
1.99987424e-05
1.97696622e-05
1.97869968e-05
2.02380766e-05
1.99902522e-05
1.96719229e-05
1.95068425e-05
1.9776413e-05
2.02523459e-05
1.99783807e-05
1.97773594e-05
1.97740108e-05
2.02443096e-05
1.99100405e-05
1.97475445e-05
1.97717374e-05
2.02463512e-05
1.99699748e-05
1.963462e-05
1.94699679e-05
1.97730851e-05
2.02606043e-05
1.99629642e-05
1.97784942e-05
1.97780276e-05
2.02550134e-05
1.99710231e-05
1.96383779e-05
1.94723161e-05
1.97779904e-05
2.0264458e-05
1.99434218e-05
1.97268702e-05
1.97722815e-05
2.02744331e-05
1.99262571e-05
1.9728511e-05
1.97763409e-05
2.02716239e-05
1.99671659e-05
1.96479508e-05
1.95198849e-05
1.98095143e-05
2.02791872e-05
1.99883757e-05
1.9672537e-05
1.95444803e-05
1.98221267e-05
2.02846724e-05
1.9971519e-05
1.96469215e-05
1.95175118e-05
1.98283354e-05
2.0295852e-05
1.98822676e-05
1.97301209e-05
1.98219237e-05
2.02958365e-05
1.99170477e-05
1.95924497e-05
1.95141167e-05
1.98543622e-05
2.0285206e-05
1.9954323e-05
1.96168855e-05
1.95585622e-05
1.98840533e-05
2.02820155e-05
1.99509072e-05
1.96052269e-05
1.95671412e-05
1.99015546e-05
2.02766936e-05
1.99154042e-05
1.95590898e-05
1.95496412e-05
1.99139034e-05
2.02731761e-05
1.98029519e-05
1.97542266e-05
1.99176121e-05
2.02769059e-05
1.9844084e-05
1.95601519e-05
1.96049413e-05
1.99683713e-05
2.02582662e-05
1.98345748e-05
1.95519936e-05
1.96165677e-05
1.99957519e-05
2.02390592e-05
1.97721069e-05
1.97590229e-05
1.99970281e-05
2.02373385e-05
1.97740119e-05
1.95673097e-05
1.97168554e-05
2.00733543e-05
2.02148351e-05
1.97638287e-05
1.95562275e-05
1.97364381e-05
2.01104207e-05
2.01862757e-05
1.97609084e-05
1.97635139e-05
2.01141361e-05
2.01833429e-05
1.97444851e-05
1.95856192e-05
1.97436767e-05
2.01850855e-05
2.01755125e-05
1.9746923e-05
1.96281397e-05
1.97514287e-05
2.02229398e-05
2.02280116e-05
1.97889794e-05
1.97108558e-05
1.97347119e-05
1.97555722e-05
1.97659995e-05
1.9781842e-05
2.0213608e-05
2.01082638e-05
1.97644127e-05
1.97667694e-05
2.01340061e-05
2.00611813e-05
1.976147e-05
1.97626205e-05
2.01308757e-05
2.00726101e-05
1.96725072e-05
1.95124722e-05
1.97448173e-05
2.01284745e-05
2.0019176e-05
1.97671323e-05
1.976252e-05
2.01232796e-05
2.00021885e-05
1.97692159e-05
1.97662772e-05
2.01312479e-05
2.00404163e-05
1.96318715e-05
1.95242999e-05
1.97544896e-05
2.0139752e-05
1.9995994e-05
1.97742751e-05
1.97662531e-05
2.01447952e-05
1.99834222e-05
1.97750699e-05
1.97687174e-05
2.01582724e-05
2.0037064e-05
1.96071674e-05
1.95293831e-05
1.97595833e-05
2.01697223e-05
1.99938667e-05
1.97818683e-05
1.97669494e-05
2.01923574e-05
1.99899721e-05
1.9783061e-05
1.97683748e-05
2.02142915e-05
2.0068408e-05
1.96037768e-05
1.9531665e-05
1.97642962e-05
2.02285381e-05
2.00293478e-05
1.97905396e-05
1.97776775e-05
2.02527678e-05
2.0122584e-05
1.96436965e-05
1.95608189e-05
1.97754358e-05
2.02589165e-05
2.0146787e-05
1.96451522e-05
1.95454334e-05
1.97719559e-05
2.02606286e-05
2.005174e-05
1.97862024e-05
1.97826308e-05
2.02869592e-05
2.01976748e-05
1.96440538e-05
1.95626504e-05
1.97801877e-05
2.02844287e-05
2.02228573e-05
1.96765256e-05
1.95667683e-05
1.97816875e-05
2.02891982e-05
2.02329885e-05
1.96765505e-05
1.95595403e-05
1.97800974e-05
2.02926586e-05
2.02427449e-05
1.96638972e-05
1.95383477e-05
1.97758225e-05
2.02947821e-05
2.02510836e-05
1.9630925e-05
1.95082663e-05
1.97698895e-05
2.02885154e-05
2.01223872e-05
1.97774314e-05
1.97825249e-05
2.03126334e-05
2.02597603e-05
1.96228389e-05
1.95187848e-05
1.9771047e-05
2.02993242e-05
2.0274335e-05
1.96732242e-05
1.9532483e-05
1.97729852e-05
2.03013795e-05
2.0277794e-05
1.96866237e-05
1.95350615e-05
1.9771482e-05
2.03022294e-05
2.0282197e-05
1.96978315e-05
1.95359075e-05
1.97706936e-05
2.03021536e-05
2.02855102e-05
1.97108868e-05
1.95361203e-05
1.9769604e-05
2.02997482e-05
2.02883665e-05
1.97037322e-05
1.95176973e-05
1.97675658e-05
2.02994424e-05
2.02905332e-05
1.9655111e-05
1.94820183e-05
1.97492044e-05
2.02644379e-05
2.03148983e-05
2.0155808e-05
1.96633924e-05
1.94336146e-05
1.97566311e-05
2.02917687e-05
2.0298913e-05
1.9687022e-05
1.94555165e-05
1.97667085e-05
2.02909429e-05
2.03004342e-05
1.97151639e-05
1.94590968e-05
1.97708899e-05
2.02823198e-05
2.0303243e-05
1.97680937e-05
1.97945892e-05
2.02978451e-05
2.03018437e-05
1.97463999e-05
1.94720291e-05
1.97759805e-05
2.02579363e-05
2.03035892e-05
1.97678404e-05
1.97886609e-05
2.02215779e-05
2.03007209e-05
1.97504082e-05
1.95666481e-05
1.96397275e-05
1.9579068e-05
1.96886383e-05
2.01929776e-05
2.02933836e-05
1.9766549e-05
1.97903717e-05
2.00276609e-05
2.02784671e-05
1.97708143e-05
1.95024066e-05
1.95129093e-05
2.00106877e-05
2.02584114e-05
1.97769261e-05
1.97447028e-05
1.98617429e-05
2.02227949e-05
1.97843957e-05
1.97095743e-05
1.98174429e-05
2.02056911e-05
1.98037081e-05
1.97083889e-05
1.97901461e-05
2.01836905e-05
1.98301873e-05
1.97231789e-05
1.97783064e-05
2.01712912e-05
1.98581921e-05
1.97536925e-05
1.97752646e-05
2.01630171e-05
1.98827925e-05
1.9775904e-05
1.97672288e-05
2.01793159e-05
1.99834421e-05
1.96636208e-05
1.94754892e-05
1.97625228e-05
2.01719635e-05
1.9942331e-05
1.9778582e-05
1.9768275e-05
2.01531416e-05
1.99437699e-05
1.97799583e-05
1.97661735e-05
2.01579193e-05
1.995766e-05
1.97798863e-05
1.97648676e-05
2.01811283e-05
2.00233621e-05
1.96806215e-05
1.9458614e-05
1.97557201e-05
2.01854421e-05
2.00081355e-05
1.97781011e-05
1.97637304e-05
2.01803577e-05
1.99996287e-05
1.97817623e-05
1.97642735e-05
2.02075603e-05
2.0011084e-05
1.97826846e-05
1.97667615e-05
2.02245546e-05
2.00354772e-05
1.97111536e-05
1.94935859e-05
1.97504089e-05
2.01952945e-05
2.03038399e-05
2.00730499e-05
1.97510323e-05
1.95861164e-05
1.95500758e-05
1.94852506e-05
1.97451362e-05
2.02122582e-05
2.03120404e-05
2.00181369e-05
1.9764955e-05
1.9772286e-05
2.02598138e-05
2.00145291e-05
1.96682705e-05
1.94747473e-05
1.97698627e-05
2.02711354e-05
1.9979667e-05
1.97684619e-05
1.97817131e-05
2.02785181e-05
2.00161885e-05
1.96786062e-05
1.95338304e-05
1.98122373e-05
2.02821311e-05
2.00231291e-05
1.96918984e-05
1.95522103e-05
1.98237541e-05
2.0287614e-05
2.00207415e-05
1.96861386e-05
1.95575326e-05
1.98285358e-05
2.02866514e-05
2.00225578e-05
1.96646103e-05
1.95575968e-05
1.98272659e-05
2.02838574e-05
2.00194715e-05
1.96278453e-05
1.95487643e-05
1.98222238e-05
2.02798458e-05
2.00107809e-05
1.95924203e-05
1.9529449e-05
1.98207149e-05
2.02759335e-05
1.98880826e-05
1.97284547e-05
1.97913359e-05
2.0280737e-05
1.99803456e-05
1.95253218e-05
1.95106843e-05
1.98139304e-05
2.02667213e-05
1.98766897e-05
1.97139147e-05
1.9793465e-05
2.02767268e-05
1.98718454e-05
1.97579335e-05
1.98071368e-05
2.02798328e-05
1.99772369e-05
1.95502662e-05
1.95653371e-05
1.98318827e-05
2.02764151e-05
2.00607228e-05
1.95709488e-05
1.95827644e-05
1.98356954e-05
2.02790173e-05
2.00979836e-05
1.95701483e-05
1.95783855e-05
1.98326646e-05
2.02817926e-05
2.01361921e-05
1.95702527e-05
1.95759794e-05
1.98319621e-05
2.0283656e-05
2.01693722e-05
1.95795498e-05
1.95811691e-05
1.98293002e-05
2.02858098e-05
2.0182566e-05
1.95831538e-05
1.95648144e-05
)
;

boundaryField
{
    closed
    {
        type            calculated;
        value           nonuniform List<scalar> 0();
    }
    open
    {
        type            calculated;
        value           nonuniform List<scalar> 0();
    }
    sides
    {
        type            empty;
    }
    procBoundary2to1
    {
        type            processor;
        value           uniform 2.0274513e-05;
    }
    procBoundary2to3
    {
        type            processor;
        value           uniform 1.98186298e-05;
    }
}


// ************************************************************************* //
