/*--------------------------------*- C++ -*----------------------------------*\
| =========                 |                                                 |
| \\      /  F ield         | OpenFOAM: The Open Source CFD Toolbox           |
|  \\    /   O peration     | Version:  2306                                  |
|   \\  /    A nd           | Website:  www.openfoam.com                      |
|    \\/     M anipulation  |                                                 |
\*---------------------------------------------------------------------------*/
FoamFile
{
    version     2.0;
    format      ascii;
    arch        "LSB;label=32;scalar=64";
    class       volScalarField;
    location    "0.00092";
    object      prefDZ_H2O;
}
// * * * * * * * * * * * * * * * * * * * * * * * * * * * * * * * * * * * * * //

dimensions      [1 -1 -1 0 0 0 0];

internalField   nonuniform List<scalar> 
530
(
-7.59349664e-07
-7.35876422e-07
-7.3594672e-07
-7.79740882e-07
-7.74784979e-07
-7.53426397e-07
-7.35234846e-07
-7.34932166e-07
-7.74950169e-07
-7.74782905e-07
-7.56883687e-07
-7.37338502e-07
-7.37777896e-07
-7.77425964e-07
-7.7450446e-07
-7.51371498e-07
-7.36392365e-07
-7.35597253e-07
-7.38656111e-07
-7.73633828e-07
-7.75919758e-07
-7.7477377e-07
-7.75188269e-07
-7.56403835e-07
-7.3552855e-07
-7.35322248e-07
-7.63657058e-07
-7.76118777e-07
-7.59995688e-07
-7.37546899e-07
-7.35657487e-07
-7.36220312e-07
-7.6110075e-07
-7.76527907e-07
-7.62609845e-07
-7.37290491e-07
-7.36406274e-07
-7.57813729e-07
-7.77076576e-07
-7.63877656e-07
-7.371939e-07
-7.36408236e-07
-7.55938841e-07
-7.78096544e-07
-7.75246335e-07
-7.75270126e-07
-7.66963636e-07
-7.37949089e-07
-7.35271001e-07
-7.35657097e-07
-7.54154984e-07
-7.77459637e-07
-7.65667739e-07
-7.38326203e-07
-7.35612624e-07
-7.35896216e-07
-7.53619203e-07
-7.7723833e-07
-7.69458958e-07
-7.38876564e-07
-7.36872093e-07
-7.51552959e-07
-7.77659219e-07
-7.6766716e-07
-7.42135511e-07
-7.49430397e-07
-7.78199557e-07
-7.67144743e-07
-7.37558381e-07
-7.3545406e-07
-7.48776385e-07
-7.78142707e-07
-7.66351892e-07
-7.39562757e-07
-7.47819901e-07
-7.78962516e-07
-7.61742052e-07
-7.3913039e-07
-7.47859432e-07
-7.77959565e-07
-7.65794822e-07
-7.37003676e-07
-7.3488402e-07
-7.48496649e-07
-7.77670925e-07
-7.65341944e-07
-7.39808798e-07
-7.48377193e-07
-7.77446531e-07
-7.65864131e-07
-7.37125981e-07
-7.34949731e-07
-7.49149853e-07
-7.77371921e-07
-7.64025119e-07
-7.38758524e-07
-7.4772756e-07
-7.77239256e-07
-7.62860796e-07
-7.38784437e-07
-7.48612094e-07
-7.76580981e-07
-7.65604457e-07
-7.37300442e-07
-7.35570359e-07
-7.52796438e-07
-7.75853149e-07
-7.67027003e-07
-7.37636933e-07
-7.35975251e-07
-7.541674e-07
-7.75437194e-07
-7.65897331e-07
-7.37227511e-07
-7.35485516e-07
-7.54963904e-07
-7.75241305e-07
-7.59524517e-07
-7.38626041e-07
-7.54187208e-07
-7.75040447e-07
-7.62058214e-07
-7.36387465e-07
-7.35330942e-07
-7.57165993e-07
-7.75208474e-07
-7.6471863e-07
-7.36829543e-07
-7.36074526e-07
-7.59579955e-07
-7.75198101e-07
-7.64479798e-07
-7.36674266e-07
-7.36201849e-07
-7.60947946e-07
-7.75534763e-07
-7.6194689e-07
-7.35961701e-07
-7.35787033e-07
-7.61902076e-07
-7.75951333e-07
-7.52215459e-07
-7.38886701e-07
-7.6214004e-07
-7.75754429e-07
-7.56256863e-07
-7.35987992e-07
-7.36609974e-07
-7.65684255e-07
-7.76426034e-07
-7.55469701e-07
-7.35891194e-07
-7.36736445e-07
-7.67502249e-07
-7.7763627e-07
-7.48186598e-07
-7.40052298e-07
-7.67586135e-07
-7.77797173e-07
-7.48970221e-07
-7.3618806e-07
-7.38228276e-07
-7.72416817e-07
-7.78839931e-07
-7.47687328e-07
-7.36063968e-07
-7.38457608e-07
-7.7456673e-07
-7.78859359e-07
-7.44322387e-07
-7.42165481e-07
-7.74727335e-07
-7.78677712e-07
-7.43007451e-07
-7.36568139e-07
-7.41812575e-07
-7.78850906e-07
-7.78247606e-07
-7.43556946e-07
-7.37321931e-07
-7.43529738e-07
-7.78188253e-07
-7.78241717e-07
-7.5114755e-07
-7.38618745e-07
-7.38839439e-07
-7.39076104e-07
-7.3932342e-07
-7.49339331e-07
-7.79419561e-07
-7.74342735e-07
-7.43603834e-07
-7.45271556e-07
-7.75779071e-07
-7.71499431e-07
-7.41951262e-07
-7.44505659e-07
-7.75595148e-07
-7.72178842e-07
-7.37722117e-07
-7.35533327e-07
-7.43970146e-07
-7.75531368e-07
-7.68936666e-07
-7.41433043e-07
-7.4441909e-07
-7.75157472e-07
-7.67882062e-07
-7.41353109e-07
-7.45163154e-07
-7.75639004e-07
-7.70263468e-07
-7.3725722e-07
-7.35773848e-07
-7.45517039e-07
-7.76187935e-07
-7.67484649e-07
-7.41389327e-07
-7.45566176e-07
-7.76371623e-07
-7.66680547e-07
-7.41203307e-07
-7.46017161e-07
-7.77132363e-07
-7.70048823e-07
-7.36949261e-07
-7.35866688e-07
-7.46602833e-07
-7.77830539e-07
-7.67345201e-07
-7.40983207e-07
-7.45925105e-07
-7.78960666e-07
-7.67099973e-07
-7.40624876e-07
-7.4603954e-07
-7.80139963e-07
-7.71916198e-07
-7.36959415e-07
-7.35980037e-07
-7.47237145e-07
-7.79203081e-07
-7.69563611e-07
-7.41493469e-07
-7.46751509e-07
-7.78357879e-07
-7.75096713e-07
-7.37597834e-07
-7.36489423e-07
-7.48385197e-07
-7.77759325e-07
-7.76401974e-07
-7.37604043e-07
-7.36264902e-07
-7.48043628e-07
-7.77513168e-07
-7.70922005e-07
-7.41028343e-07
-7.46865096e-07
-7.76494812e-07
-7.79267351e-07
-7.37546583e-07
-7.36520171e-07
-7.48528746e-07
-7.76151053e-07
-7.79909483e-07
-7.38016982e-07
-7.3656582e-07
-7.486298e-07
-7.75846462e-07
-7.79377748e-07
-7.37987506e-07
-7.3643408e-07
-7.48317679e-07
-7.75639615e-07
-7.78975967e-07
-7.37768856e-07
-7.3609035e-07
-7.47579872e-07
-7.75627479e-07
-7.78709678e-07
-7.3723007e-07
-7.35660846e-07
-7.46687658e-07
-7.75933114e-07
-7.74989939e-07
-7.39561915e-07
-7.45359196e-07
-7.74739741e-07
-7.77955538e-07
-7.37023977e-07
-7.35733412e-07
-7.46404723e-07
-7.75099161e-07
-7.77301867e-07
-7.37825409e-07
-7.35887732e-07
-7.4668093e-07
-7.74863575e-07
-7.76985038e-07
-7.38003845e-07
-7.35918494e-07
-7.46376486e-07
-7.74794146e-07
-7.76696596e-07
-7.38170145e-07
-7.35916784e-07
-7.46145849e-07
-7.74757041e-07
-7.76418002e-07
-7.38370703e-07
-7.35923961e-07
-7.4579799e-07
-7.74847481e-07
-7.76243925e-07
-7.38291063e-07
-7.3564478e-07
-7.44883387e-07
-7.75077472e-07
-7.7632324e-07
-7.3744326e-07
-7.3515891e-07
-7.42283138e-07
-7.75546488e-07
-7.73324746e-07
-7.77024892e-07
-7.37421359e-07
-7.34574598e-07
-7.41165426e-07
-7.75582132e-07
-7.75990301e-07
-7.38035693e-07
-7.34726609e-07
-7.41908045e-07
-7.75450721e-07
-7.75662487e-07
-7.38411586e-07
-7.34832122e-07
-7.41345805e-07
-7.75695483e-07
-7.76171167e-07
-7.39362858e-07
-7.40158755e-07
-7.75230092e-07
-7.75166032e-07
-7.38684111e-07
-7.35025328e-07
-7.39891989e-07
-7.76763159e-07
-7.75871305e-07
-7.42280384e-07
-7.41291784e-07
-7.78427545e-07
-7.7499499e-07
-7.42239796e-07
-7.36382466e-07
-7.37265694e-07
-7.36617666e-07
-7.38396643e-07
-7.793561e-07
-7.76183661e-07
-7.46333197e-07
-7.40925879e-07
-7.69560466e-07
-7.7620166e-07
-7.48791439e-07
-7.35402786e-07
-7.35843933e-07
-7.68473579e-07
-7.7814028e-07
-7.49822263e-07
-7.39125093e-07
-7.57759578e-07
-7.7970011e-07
-7.51086919e-07
-7.38560802e-07
-7.53882026e-07
-7.79699547e-07
-7.53175735e-07
-7.38504939e-07
-7.5096795e-07
-7.78492163e-07
-7.55565081e-07
-7.38721181e-07
-7.49286406e-07
-7.77829344e-07
-7.5783165e-07
-7.39190764e-07
-7.4850737e-07
-7.77408093e-07
-7.59689412e-07
-7.39511152e-07
-7.47017961e-07
-7.78364593e-07
-7.66686641e-07
-7.37396512e-07
-7.35154028e-07
-7.46242992e-07
-7.77882094e-07
-7.63957505e-07
-7.40098289e-07
-7.460815e-07
-7.76826514e-07
-7.64060571e-07
-7.39913136e-07
-7.45608502e-07
-7.77086236e-07
-7.64994644e-07
-7.4020857e-07
-7.45078415e-07
-7.78403149e-07
-7.69233847e-07
-7.37621839e-07
-7.34868923e-07
-7.43706971e-07
-7.78565531e-07
-7.68233511e-07
-7.39816094e-07
-7.44155857e-07
-7.78273897e-07
-7.67701466e-07
-7.3972346e-07
-7.44305578e-07
-7.79773014e-07
-7.68419932e-07
-7.40661884e-07
-7.45659438e-07
-7.7932058e-07
-7.69998455e-07
-7.38212621e-07
-7.3533807e-07
-7.44492453e-07
-7.79362499e-07
-7.74248781e-07
-7.72419077e-07
-7.39262978e-07
-7.36559008e-07
-7.3574922e-07
-7.35193174e-07
-7.44378379e-07
-7.78774418e-07
-7.74000507e-07
-7.68952968e-07
-7.40977252e-07
-7.47468545e-07
-7.77379675e-07
-7.68709635e-07
-7.37521981e-07
-7.34856908e-07
-7.48383905e-07
-7.76636915e-07
-7.66439483e-07
-7.39766789e-07
-7.49290933e-07
-7.76197043e-07
-7.68823946e-07
-7.37692452e-07
-7.35779043e-07
-7.53239024e-07
-7.7563956e-07
-7.69273566e-07
-7.37898033e-07
-7.36097547e-07
-7.54283204e-07
-7.75240588e-07
-7.69119295e-07
-7.37842003e-07
-7.36211456e-07
-7.54638887e-07
-7.75338456e-07
-7.69224951e-07
-7.37556996e-07
-7.36234589e-07
-7.54450748e-07
-7.75660283e-07
-7.6901725e-07
-7.3703661e-07
-7.36114791e-07
-7.53921398e-07
-7.76046504e-07
-7.68457013e-07
-7.36554619e-07
-7.35826998e-07
-7.53972457e-07
-7.76689599e-07
-7.60085348e-07
-7.38821948e-07
-7.50481213e-07
-7.76586275e-07
-7.66484423e-07
-7.35643972e-07
-7.35550591e-07
-7.53200467e-07
-7.77318749e-07
-7.5923063e-07
-7.38638515e-07
-7.51071663e-07
-7.77079994e-07
-7.58822469e-07
-7.39277726e-07
-7.52177139e-07
-7.76480818e-07
-7.66278615e-07
-7.36075167e-07
-7.36357495e-07
-7.54567031e-07
-7.76347035e-07
-7.71465426e-07
-7.36465858e-07
-7.36713701e-07
-7.54885987e-07
-7.76112193e-07
-7.73629338e-07
-7.36483425e-07
-7.36679359e-07
-7.54520214e-07
-7.75934028e-07
-7.75787326e-07
-7.3651862e-07
-7.36668401e-07
-7.54407481e-07
-7.75728785e-07
-7.77654445e-07
-7.36682661e-07
-7.3674786e-07
-7.54092551e-07
-7.75562113e-07
-7.78392026e-07
-7.36702877e-07
-7.36492786e-07
)
;

boundaryField
{
    closed
    {
        type            calculated;
        value           nonuniform List<scalar> 0();
    }
    open
    {
        type            calculated;
        value           nonuniform List<scalar> 0();
    }
    sides
    {
        type            empty;
    }
    procBoundary2to1
    {
        type            processor;
        value           uniform -7.75205656e-07;
    }
    procBoundary2to3
    {
        type            processor;
        value           uniform -7.52910721e-07;
    }
}


// ************************************************************************* //
