/*--------------------------------*- C++ -*----------------------------------*\
| =========                 |                                                 |
| \\      /  F ield         | OpenFOAM: The Open Source CFD Toolbox           |
|  \\    /   O peration     | Version:  2306                                  |
|   \\  /    A nd           | Website:  www.openfoam.com                      |
|    \\/     M anipulation  |                                                 |
\*---------------------------------------------------------------------------*/
FoamFile
{
    version     2.0;
    format      ascii;
    arch        "LSB;label=32;scalar=64";
    class       volScalarField;
    location    "0.00138";
    object      mu;
}
// * * * * * * * * * * * * * * * * * * * * * * * * * * * * * * * * * * * * * //

dimensions      [1 -1 -1 0 0 0 0];

internalField   nonuniform List<scalar> 
531
(
1.97799988e-05
1.93346405e-05
1.93417613e-05
2.02552974e-05
2.02714118e-05
1.98503326e-05
1.94227579e-05
1.94279798e-05
2.02607981e-05
1.97768189e-05
1.94176247e-05
2.0264566e-05
2.02720714e-05
2.02712392e-05
1.9789141e-05
1.95819594e-05
2.02651276e-05
2.02813635e-05
1.98016962e-05
1.97069878e-05
1.94919532e-05
1.94936197e-05
2.02559525e-05
2.02791629e-05
1.97941183e-05
1.9599446e-05
1.93155043e-05
1.93203906e-05
2.02370703e-05
2.0274259e-05
1.94528278e-05
1.93544766e-05
2.01835006e-05
2.02781266e-05
2.024914e-05
2.02807363e-05
2.02611973e-05
1.96988252e-05
1.93887647e-05
2.02620943e-05
2.02601295e-05
1.97788186e-05
1.90836073e-05
1.91112644e-05
2.0226217e-05
2.02768528e-05
2.02412057e-05
2.02836217e-05
1.97096847e-05
1.96196365e-05
2.02482294e-05
1.97736425e-05
1.92367071e-05
2.02627061e-05
2.02684313e-05
1.97044116e-05
1.95520274e-05
2.02632828e-05
2.02763854e-05
1.9822114e-05
1.97349854e-05
1.94171059e-05
1.94214475e-05
2.02608189e-05
2.02838057e-05
2.0269288e-05
1.97873548e-05
1.94138909e-05
1.94176497e-05
2.02675406e-05
2.02750622e-05
1.97764939e-05
1.93395189e-05
1.93472925e-05
2.02553329e-05
2.02946221e-05
1.97076359e-05
1.95290688e-05
2.02554362e-05
2.02945678e-05
1.96571727e-05
1.96116824e-05
2.02597988e-05
2.02879615e-05
2.02704072e-05
1.98196869e-05
1.96601422e-05
1.93988072e-05
1.93996527e-05
2.02677174e-05
2.02837026e-05
2.0272772e-05
1.97788749e-05
1.93760064e-05
1.93798087e-05
2.02654129e-05
2.02723778e-05
1.97750758e-05
1.92889522e-05
1.93035218e-05
2.02445802e-05
2.02864219e-05
1.96765828e-05
1.94917419e-05
2.02480944e-05
2.02837621e-05
1.96126652e-05
1.95829237e-05
2.02552088e-05
2.02769319e-05
2.02672402e-05
1.97866998e-05
1.95445041e-05
1.92081288e-05
1.92144431e-05
2.02364269e-05
2.02705245e-05
2.02463955e-05
2.02775934e-05
1.9636964e-05
1.93712809e-05
2.02449138e-05
2.02772088e-05
2.02547034e-05
2.02786926e-05
1.98095301e-05
1.96137384e-05
1.94192319e-05
1.94236819e-05
2.02527554e-05
2.02693989e-05
1.97884812e-05
1.91543807e-05
1.91642046e-05
2.02476763e-05
2.02630427e-05
2.02597627e-05
1.9624246e-05
1.93809718e-05
2.02469109e-05
2.02673583e-05
2.02563679e-05
2.02706474e-05
1.97911357e-05
1.95263864e-05
1.92678665e-05
1.92694089e-05
2.02515483e-05
2.02707091e-05
2.02557628e-05
1.97847328e-05
1.91157642e-05
1.91329327e-05
2.02352846e-05
2.02642337e-05
2.02467467e-05
2.02648061e-05
1.98053096e-05
1.95673405e-05
1.92909809e-05
1.9297824e-05
2.02386886e-05
2.02675278e-05
2.02480463e-05
2.02733789e-05
2.02627792e-05
1.97876577e-05
1.95098347e-05
1.9094574e-05
1.90994687e-05
2.02406958e-05
2.02708006e-05
2.02481317e-05
2.02774245e-05
2.02643183e-05
1.97790487e-05
1.94720324e-05
1.91282826e-05
1.91314588e-05
2.02455507e-05
2.02671574e-05
2.02573015e-05
2.02708393e-05
1.97877069e-05
1.95019801e-05
1.92815401e-05
1.92795548e-05
2.0264951e-05
2.02705015e-05
2.02702027e-05
1.97859583e-05
1.94305055e-05
2.02607972e-05
2.02808163e-05
1.96918929e-05
1.95444142e-05
2.02581429e-05
2.02852841e-05
1.9655584e-05
1.96185324e-05
2.02614881e-05
2.02800414e-05
2.02679153e-05
1.98524267e-05
1.96724771e-05
1.94503116e-05
1.94528915e-05
2.02734841e-05
1.97773175e-05
1.93821396e-05
2.02699664e-05
2.02793819e-05
1.97586127e-05
1.95712281e-05
2.02663399e-05
2.02742563e-05
1.9789753e-05
1.96403329e-05
1.93521838e-05
1.93534914e-05
2.0250739e-05
2.02631361e-05
2.02598284e-05
2.02633109e-05
1.97881375e-05
1.91120849e-05
1.91251221e-05
2.0221306e-05
2.02414129e-05
2.02281788e-05
2.02559984e-05
1.94261407e-05
1.93730025e-05
2.02410864e-05
1.97533303e-05
1.93524882e-05
2.0260913e-05
2.02660987e-05
2.02669596e-05
1.97915624e-05
1.95243876e-05
1.93152922e-05
1.93161372e-05
2.02592288e-05
2.02755245e-05
2.02615124e-05
2.02759664e-05
1.98009235e-05
1.96127098e-05
1.9350628e-05
1.93536749e-05
2.02437001e-05
2.02688902e-05
2.02509522e-05
2.02731414e-05
1.95930932e-05
1.93216896e-05
2.02639308e-05
2.02627834e-05
1.97927753e-05
1.93839146e-05
1.94554105e-05
2.02649528e-05
1.9782496e-05
1.93696781e-05
2.02614767e-05
2.02764247e-05
1.96633579e-05
1.94953024e-05
2.02540454e-05
2.02779621e-05
1.9548223e-05
1.95063124e-05
2.02555212e-05
2.02689434e-05
2.02671486e-05
1.96322768e-05
1.94268626e-05
2.02595979e-05
2.02780782e-05
2.02649435e-05
1.97753793e-05
1.91429894e-05
1.92647616e-05
2.02488955e-05
1.97080993e-05
1.93761142e-05
2.02621756e-05
2.02657841e-05
2.02667481e-05
1.97855682e-05
1.94776059e-05
2.02682505e-05
2.02729437e-05
1.97829043e-05
1.95518569e-05
1.93055107e-05
1.93085159e-05
2.02557322e-05
2.02678108e-05
2.02665357e-05
2.02667104e-05
1.97886097e-05
1.93755091e-05
1.93830094e-05
2.02551933e-05
2.02815912e-05
1.97624696e-05
1.94731854e-05
2.02607958e-05
2.02677563e-05
1.97863146e-05
1.93095172e-05
1.93140532e-05
2.02565082e-05
2.0264261e-05
2.02648567e-05
1.96459477e-05
1.96035542e-05
2.02528975e-05
1.97678564e-05
1.91282196e-05
2.02418812e-05
2.02592205e-05
2.02436868e-05
2.02686921e-05
1.95908463e-05
1.95083504e-05
2.02447206e-05
1.96924155e-05
1.89897675e-05
2.02367207e-05
2.02552894e-05
2.02394992e-05
2.02656445e-05
1.95596564e-05
1.94856851e-05
2.02414573e-05
1.97024545e-05
1.90080716e-05
2.02362633e-05
2.02551503e-05
2.02406935e-05
2.026703e-05
1.96538336e-05
1.9576227e-05
2.02454542e-05
1.97833362e-05
1.92975457e-05
2.02534885e-05
2.02591945e-05
2.02579541e-05
1.97905029e-05
1.93165375e-05
1.93259077e-05
2.02420986e-05
2.02630383e-05
1.97950405e-05
1.92308973e-05
1.9237662e-05
2.02479055e-05
2.02612558e-05
2.02648514e-05
1.9695902e-05
1.96428107e-05
2.02516068e-05
1.97871322e-05
1.92382008e-05
2.02478235e-05
2.02659537e-05
1.96277778e-05
1.94091078e-05
2.02415813e-05
2.02745761e-05
1.95753099e-05
1.94292311e-05
2.0239994e-05
2.02801243e-05
1.9504388e-05
1.94072631e-05
2.02408986e-05
2.02838316e-05
2.025515e-05
2.02876731e-05
1.97904925e-05
1.95703476e-05
2.02623702e-05
2.028165e-05
1.97858048e-05
1.96332478e-05
1.94703754e-05
1.94725061e-05
2.02586908e-05
2.02725839e-05
1.97813825e-05
1.93840355e-05
1.93902739e-05
2.02536819e-05
2.02667628e-05
1.97810379e-05
1.92900601e-05
1.9300664e-05
2.02408958e-05
2.0280777e-05
1.9525194e-05
1.94130249e-05
2.02439531e-05
2.0282666e-05
2.02598182e-05
2.0284599e-05
2.02807316e-05
1.97158439e-05
1.94995054e-05
2.02653198e-05
2.02818344e-05
1.96992104e-05
1.94140348e-05
2.02644425e-05
2.02760409e-05
1.97747458e-05
1.92076908e-05
1.92198742e-05
2.02524369e-05
2.02780467e-05
2.0275136e-05
1.9657172e-05
1.939833e-05
2.0262773e-05
2.02737656e-05
1.9776139e-05
1.92279222e-05
1.92375497e-05
2.02529145e-05
2.02771476e-05
2.02716149e-05
1.96860422e-05
1.94638305e-05
2.02645706e-05
2.02709002e-05
1.97742961e-05
1.93575952e-05
1.93631245e-05
2.02517665e-05
2.02818656e-05
1.97655126e-05
1.95081076e-05
2.02610108e-05
2.02707535e-05
1.97820026e-05
1.94366203e-05
1.94388942e-05
2.02553678e-05
2.02806867e-05
1.97885069e-05
1.95263163e-05
2.02636478e-05
2.02698163e-05
1.97789294e-05
1.93860305e-05
1.93926772e-05
2.02513007e-05
2.0286574e-05
1.96211127e-05
1.95453116e-05
2.02614216e-05
2.02830607e-05
2.02799123e-05
1.97487004e-05
1.94629929e-05
2.02645894e-05
2.02808155e-05
1.96978678e-05
1.9490991e-05
2.02650617e-05
2.02772224e-05
1.97779907e-05
1.9502091e-05
1.92462151e-05
1.92481542e-05
2.02561479e-05
2.02715765e-05
2.02717795e-05
1.96499407e-05
1.9419595e-05
2.02590241e-05
2.02748952e-05
2.02736104e-05
1.97775538e-05
1.94064394e-05
2.02598406e-05
2.02707936e-05
1.97240402e-05
1.94415379e-05
2.02613356e-05
2.02631943e-05
1.97755542e-05
1.93108732e-05
1.93241086e-05
2.02361448e-05
2.02817687e-05
1.96487868e-05
1.94661467e-05
2.02433657e-05
2.02790089e-05
1.95454855e-05
1.9508402e-05
2.02521274e-05
2.02744119e-05
2.02692364e-05
1.97041974e-05
1.93747075e-05
2.0256247e-05
2.02662762e-05
1.97830546e-05
1.91486543e-05
1.91629576e-05
2.02420464e-05
2.02679911e-05
2.02644795e-05
1.96583589e-05
1.93883348e-05
2.02507124e-05
2.02730149e-05
1.95093046e-05
1.94662621e-05
2.02543951e-05
2.02749892e-05
2.02713889e-05
1.97167042e-05
1.94444859e-05
2.02618192e-05
)
;

boundaryField
{
    closed
    {
        type            calculated;
        value           nonuniform List<scalar> 0();
    }
    open
    {
        type            calculated;
        value           nonuniform List<scalar> 0();
    }
    sides
    {
        type            empty;
    }
    procBoundary3to2
    {
        type            processor;
        value           uniform 2.02730701e-05;
    }
    procBoundary3to4
    {
        type            processor;
        value           uniform 2.02634721e-05;
    }
}


// ************************************************************************* //
