/*--------------------------------*- C++ -*----------------------------------*\
| =========                 |                                                 |
| \\      /  F ield         | OpenFOAM: The Open Source CFD Toolbox           |
|  \\    /   O peration     | Version:  2306                                  |
|   \\  /    A nd           | Website:  www.openfoam.com                      |
|    \\/     M anipulation  |                                                 |
\*---------------------------------------------------------------------------*/
FoamFile
{
    version     2.0;
    format      ascii;
    arch        "LSB;label=32;scalar=64";
    class       volScalarField;
    location    "0.00138";
    object      prefDh_T;
}
// * * * * * * * * * * * * * * * * * * * * * * * * * * * * * * * * * * * * * //

dimensions      [1 1 -3 -1 0 0 0];

internalField   nonuniform List<scalar> 
531
(
-0.000599068433
-0.000454247445
-0.000456356217
-0.000730322426
-0.000735841268
-0.000606539672
-0.000484852262
-0.000486526266
-0.000732295421
-0.00060594868
-0.000483128686
-0.000733730268
-0.000735970445
-0.000735816421
-0.000600397646
-0.000540015553
-0.000733785418
-0.000739299304
-0.000599609378
-0.000583281918
-0.000509148528
-0.000509246684
-0.000730538561
-0.000738562218
-0.000608645337
-0.000546288205
-0.000447700608
-0.000448995876
-0.000723897428
-0.000736880868
-0.000495801055
-0.000460762334
-0.000706269837
-0.000738255342
-0.000728055179
-0.00073914303
-0.000732156164
-0.000580460748
-0.000473124472
-0.000732762204
-0.000731878728
-0.000604003247
-0.000366331281
-0.000375690266
-0.000720052087
-0.000737848254
-0.00072514663
-0.000740210403
-0.000585062327
-0.000552891823
-0.000727858819
-0.000596613683
-0.000419965699
-0.000733014007
-0.000734781952
-0.000582669837
-0.00052979999
-0.00073316973
-0.000737513294
-0.000600773397
-0.000592973731
-0.000482917863
-0.000484077733
-0.000732335353
-0.000740174883
-0.000735064987
-0.000595706749
-0.000481775704
-0.000482738486
-0.000734676904
-0.000737157327
-0.000595604705
-0.000455905373
-0.000458000529
-0.00073032585
-0.000744145231
-0.000584033985
-0.000521195469
-0.000730387741
-0.000744066933
-0.000566516724
-0.000549891395
-0.000731973709
-0.000741634424
-0.000735438705
-0.000599189355
-0.000567134625
-0.000476373854
-0.000476511929
-0.00073480047
-0.000740141167
-0.000736317276
-0.00059692883
-0.000468568642
-0.000469581167
-0.000733915346
-0.000736215021
-0.000598872967
-0.000438302943
-0.000442832413
-0.000726491411
-0.000741222472
-0.000573480418
-0.00050847852
-0.000727771932
-0.000740208768
-0.000551227932
-0.000540251403
-0.000730339081
-0.000737679014
-0.000734304177
-0.000605860677
-0.000527416804
-0.000409946504
-0.000411983428
-0.000723738274
-0.000735589162
-0.000727038548
-0.000738104232
-0.000559675384
-0.000466672321
-0.000726721644
-0.000737917048
-0.000729928654
-0.000738410773
-0.000601271068
-0.000551095939
-0.000483828472
-0.000484998881
-0.000729436782
-0.000735169331
-0.00061009999
-0.000391115733
-0.000394381025
-0.0007276575
-0.000732839975
-0.000731722511
-0.000555106697
-0.0004703174
-0.000727424738
-0.00073439687
-0.000730520883
-0.000735555142
-0.000602985278
-0.000521054856
-0.000430812465
-0.000431245488
-0.000729077926
-0.000735527938
-0.000730305323
-0.000609338487
-0.000377653878
-0.000383388614
-0.000723230638
-0.00073332044
-0.000727058653
-0.000733468594
-0.000604528751
-0.000535411477
-0.000439124641
-0.000441245556
-0.000724499337
-0.000734440796
-0.000727617481
-0.000736467455
-0.000732677128
-0.000610977743
-0.000515447177
-0.000370025756
-0.00037166401
-0.000725278306
-0.000735669342
-0.00072770236
-0.000737952352
-0.000733261092
-0.000608248722
-0.000502265106
-0.000381819726
-0.000382904531
-0.000726993155
-0.000734387787
-0.000730893531
-0.000735660338
-0.0006030476
-0.000512555188
-0.000435513928
-0.000434804178
-0.00073386203
-0.000735444172
-0.000735502037
-0.000608395105
-0.00048742481
-0.000732262008
-0.000739177332
-0.000578545497
-0.000526843453
-0.000731324213
-0.000740732337
-0.00056599432
-0.00055253264
-0.000732547895
-0.000738806374
-0.000734551688
-0.000606395966
-0.000571430349
-0.000494373004
-0.000495125499
-0.000736777491
-0.000598752
-0.000470532316
-0.000735527273
-0.000738669206
-0.000601370075
-0.000536369655
-0.000734192417
-0.000736772388
-0.000604381663
-0.000560648923
-0.000460407671
-0.000460697227
-0.000728775647
-0.000732928591
-0.000731769816
-0.000733012586
-0.000608628785
-0.000376364211
-0.000380777062
-0.000718251935
-0.000725233624
-0.000720509662
-0.000730459923
-0.000486382996
-0.000467676803
-0.000725332548
-0.000599542902
-0.000460641326
-0.000732389245
-0.000733835504
-0.000734279046
-0.000599228268
-0.000520223381
-0.000447327868
-0.000447466095
-0.0007318068
-0.000737316259
-0.000732351489
-0.00073743178
-0.000600960946
-0.000550938067
-0.000459955461
-0.000460724768
-0.000726272092
-0.000734987745
-0.000728651166
-0.000736517688
-0.000544084671
-0.000449567485
-0.000733408241
-0.000732769814
-0.000599230013
-0.000471491371
-0.000496109978
-0.000733712506
-0.000602604352
-0.000466294079
-0.000732506317
-0.000737624336
-0.000568697724
-0.000509896854
-0.000729883183
-0.00073814201
-0.000528801445
-0.000513766012
-0.000730488272
-0.000734883445
-0.000734380329
-0.000557787831
-0.000486177751
-0.000731973155
-0.00073813984
-0.000733625125
-0.000605656959
-0.000387172614
-0.000429465357
-0.000728012597
-0.000583656568
-0.000468818201
-0.000732860803
-0.000733727304
-0.000734241654
-0.000604807494
-0.00050395871
-0.000734880359
-0.000736347034
-0.000604818512
-0.000529866941
-0.000443909224
-0.000444891647
-0.000730568329
-0.000734581705
-0.000734155706
-0.000734174814
-0.000596654922
-0.000468568619
-0.00047062944
-0.000730221406
-0.000739479942
-0.000603010953
-0.000502324035
-0.000732218729
-0.000734535418
-0.000604271241
-0.000445522652
-0.000446846164
-0.00073073475
-0.000733239105
-0.000733466909
-0.000562684829
-0.00054781103
-0.000729516635
-0.000604588199
-0.000381919824
-0.000725644707
-0.000731537576
-0.000726055922
-0.000734884172
-0.000543782147
-0.000514624612
-0.000726636115
-0.000578398915
-0.000333183854
-0.000723848087
-0.000730163936
-0.000724591763
-0.000733815383
-0.000532984537
-0.00050676952
-0.000725479249
-0.000581898847
-0.000339650259
-0.000723675774
-0.000730099759
-0.000724993547
-0.000734287855
-0.000565713921
-0.000538254408
-0.000726847574
-0.000608992746
-0.000441415524
-0.000729741568
-0.000731387218
-0.000731041246
-0.000608351232
-0.00044814284
-0.000451013147
-0.000725563044
-0.000732891428
-0.000610478067
-0.000418036056
-0.000420197241
-0.000727682903
-0.000732166745
-0.000733475803
-0.000580048598
-0.000561486413
-0.000729028576
-0.000603709928
-0.000420483338
-0.000727652161
-0.000733915388
-0.000556538406
-0.000480023767
-0.000725446546
-0.000736965298
-0.000538411752
-0.000486859479
-0.000724899019
-0.000738950273
-0.000513688439
-0.000479062406
-0.000725281188
-0.000740282671
-0.000730091089
-0.000741639345
-0.000609714437
-0.000535844587
-0.000732763872
-0.00073942182
-0.000601340622
-0.000557868842
-0.000501446185
-0.000501966777
-0.000731511174
-0.000736252512
-0.000604871476
-0.000471515555
-0.000473359639
-0.000729685068
-0.000734199594
-0.00060281802
-0.000438778034
-0.000441956471
-0.000725160207
-0.00073920542
-0.000520870611
-0.000481076933
-0.000726388293
-0.000739843795
-0.000731828887
-0.000740494091
-0.000739108079
-0.000586278181
-0.000511303477
-0.000733875848
-0.000739556403
-0.000580620001
-0.00048159058
-0.000733556524
-0.000737541627
-0.000604212674
-0.000409717653
-0.000413682281
-0.000729318293
-0.000738196752
-0.000737158168
-0.000566040235
-0.00047619085
-0.00073296613
-0.000736726428
-0.000605109143
-0.000416835582
-0.000419890361
-0.00072946948
-0.000737863515
-0.000735886883
-0.000576041806
-0.000499084948
-0.000733585021
-0.000735659965
-0.000601444819
-0.000462299832
-0.000463681416
-0.000728991285
-0.000739573564
-0.000603889602
-0.000514448474
-0.000732279563
-0.000735574641
-0.000598784226
-0.000489859477
-0.000490138221
-0.000730258198
-0.000739131254
-0.000611748404
-0.000520823595
-0.000733211023
-0.000735246109
-0.00059773566
-0.000472220936
-0.000473931101
-0.000728840332
-0.000741239161
-0.000553876068
-0.00052705204
-0.000732547707
-0.000739901179
-0.000738891994
-0.00059758402
-0.00049863561
-0.000733602797
-0.000739181212
-0.000580156033
-0.000508388078
-0.000733761452
-0.000737889829
-0.000607273368
-0.000512525517
-0.000423047507
-0.000423754512
-0.000730719844
-0.00073587575
-0.000736062188
-0.000563574864
-0.000483608721
-0.000731724642
-0.000736998986
-0.000736689194
-0.000607706485
-0.000479129545
-0.000731900475
-0.000735614592
-0.000589308039
-0.000491467179
-0.000732413085
-0.000732915793
-0.000602162612
-0.00044611261
-0.000450076045
-0.000723432823
-0.000739550238
-0.000563892405
-0.000499674945
-0.00072606001
-0.000738520715
-0.000527810852
-0.000514415981
-0.000729237637
-0.000736823551
-0.000735062484
-0.000582479849
-0.000468106054
-0.000730612216
-0.000734061816
-0.00060822937
-0.000389095058
-0.000393874974
-0.000725613358
-0.000734603841
-0.000733411084
-0.000566710508
-0.00047280099
-0.000728702385
-0.000736399744
-0.000515078075
-0.000499794325
-0.000730062473
-0.000737037002
-0.000735831447
-0.000586746939
-0.000492488539
-0.000732581554
)
;

boundaryField
{
    closed
    {
        type            calculated;
        value           nonuniform List<scalar> 0();
    }
    open
    {
        type            calculated;
        value           nonuniform List<scalar> 0();
    }
    sides
    {
        type            empty;
    }
    procBoundary3to2
    {
        type            processor;
        value           uniform -0.000736440218;
    }
    procBoundary3to4
    {
        type            processor;
        value           uniform -0.000732981336;
    }
}


// ************************************************************************* //
