/*--------------------------------*- C++ -*----------------------------------*\
| =========                 |                                                 |
| \\      /  F ield         | OpenFOAM: The Open Source CFD Toolbox           |
|  \\    /   O peration     | Version:  2306                                  |
|   \\  /    A nd           | Website:  www.openfoam.com                      |
|    \\/     M anipulation  |                                                 |
\*---------------------------------------------------------------------------*/
FoamFile
{
    version     2.0;
    format      ascii;
    arch        "LSB;label=32;scalar=64";
    class       volScalarField;
    location    "0.00138";
    object      rho;
}
// * * * * * * * * * * * * * * * * * * * * * * * * * * * * * * * * * * * * * //

dimensions      [1 -3 0 0 0 0 0];

internalField   nonuniform List<scalar> 
531
(
0.937344961
0.966417829
0.965922364
0.905122582
0.904450196
0.931700001
0.960821051
0.960476581
0.90480038
0.938129353
0.961155036
0.9044746
0.904523782
0.904434931
0.936664672
0.950674024
0.904623864
0.903980393
0.935506286
0.942702818
0.956452278
0.956296815
0.905120635
0.904061146
0.936820257
0.949581724
0.967673831
0.967314391
0.906096648
0.904283513
0.958977927
0.965148219
0.909419471
0.9040742
0.905590713
0.903971057
0.905109886
0.943251158
0.963033462
0.904759005
0.905077459
0.937859037
0.982415684
0.980611294
0.906711744
0.904112009
0.906144982
0.903776754
0.942641507
0.948282912
0.905498299
0.937777215
0.972686165
0.904680431
0.904657282
0.942922983
0.952631309
0.904711881
0.904307611
0.933819501
0.940953145
0.961231502
0.960919093
0.904802293
0.903871904
0.904638524
0.93651831
0.961433666
0.961158096
0.904483919
0.904271188
0.937458789
0.96615961
0.965593855
0.905182305
0.903148193
0.942750637
0.954034654
0.905147757
0.90320979
0.945965165
0.948776909
0.90486111
0.903657809
0.904600072
0.933914519
0.945731848
0.962372083
0.962299949
0.904408232
0.90388112
0.904435331
0.937359369
0.963849838
0.96357567
0.904618349
0.904421099
0.937833054
0.969397524
0.968407725
0.905805007
0.903617989
0.944755499
0.956441128
0.905569136
0.903833184
0.948819717
0.950646855
0.905124499
0.904312436
0.904791343
0.937313595
0.953147683
0.974514903
0.974091458
0.906072398
0.904487621
0.905812653
0.904087527
0.947269195
0.964112033
0.905638716
0.904157062
0.905407539
0.904105542
0.934972067
0.948689834
0.961107361
0.960781015
0.905285552
0.904556999
0.937438396
0.977903032
0.977252607
0.905533976
0.9049822
0.905116389
0.948053342
0.963514092
0.905522902
0.90471264
0.905296206
0.904533374
0.936689435
0.954258123
0.970677226
0.97056269
0.905242132
0.904568404
0.905316977
0.937688432
0.98034355
0.979211493
0.906231656
0.904834173
0.905864981
0.904857705
0.935549603
0.951656819
0.969235142
0.968769234
0.905961012
0.904696787
0.905686736
0.904420623
0.905039344
0.937544591
0.955314662
0.981652824
0.981331467
0.905749812
0.904438512
0.905610672
0.904136949
0.904903434
0.938092984
0.957704669
0.979497204
0.979290546
0.905486424
0.904619372
0.905160434
0.90444566
0.936952537
0.955769201
0.969759354
0.969881788
0.90442884
0.904546856
0.904396081
0.937472498
0.960280468
0.904810491
0.903904917
0.943673722
0.953012526
0.904951962
0.903685823
0.945989511
0.948286966
0.904721605
0.904035577
0.904663095
0.931463689
0.944866308
0.959020913
0.958840341
0.904089046
0.937535107
0.963342851
0.904283228
0.903973916
0.939381838
0.951317004
0.904536375
0.904332169
0.936849236
0.946946675
0.965283356
0.965182455
0.905249182
0.904846017
0.905013431
0.904811813
0.93728826
0.980525345
0.979676983
0.906979498
0.906039094
0.906807316
0.905171107
0.960593069
0.963950702
0.905798252
0.939707986
0.965265841
0.904677447
0.904812874
0.904629541
0.936302277
0.954291862
0.967579036
0.96750429
0.904742817
0.904150989
0.904919102
0.904164401
0.935599008
0.948665415
0.965361489
0.965131955
0.905623157
0.904488518
0.905452806
0.904230472
0.949911115
0.967169806
0.904561727
0.904877298
0.936185602
0.963238069
0.958659387
0.904571609
0.937327145
0.964115337
0.904731147
0.904104138
0.94545568
0.956109935
0.905123792
0.904045583
0.952795144
0.955413268
0.904940108
0.904602271
0.904569275
0.947416794
0.96046969
0.904663724
0.904078839
0.904661681
0.938161567
0.97852726
0.97075588
0.905460688
0.942550807
0.963739808
0.904564453
0.904816482
0.904595492
0.937220946
0.957264308
0.904395568
0.90434202
0.937451807
0.952547456
0.96819662
0.96799752
0.904924535
0.904568706
0.904611252
0.904643905
0.936357915
0.963767008
0.963225832
0.905140453
0.903794658
0.939134653
0.95752845
0.904819607
0.904595797
0.937109729
0.96796181
0.967643379
0.905014551
0.904846807
0.904798085
0.946574267
0.949257124
0.905141596
0.938768473
0.979458201
0.905698628
0.905043602
0.905874959
0.904532247
0.95010378
0.95530416
0.905564058
0.94357099
0.988222601
0.905936319
0.905241887
0.906086573
0.904691333
0.952096939
0.95675272
0.905745599
0.942936855
0.987071162
0.905978924
0.905268478
0.90604769
0.904637197
0.946105684
0.950995057
0.905593049
0.937716559
0.968746598
0.905098273
0.905194708
0.905173572
0.937053396
0.967558237
0.966917745
0.905896052
0.904843906
0.936806183
0.972973686
0.972518718
0.905505354
0.905036537
0.904804443
0.94340187
0.946771033
0.90526106
0.93701796
0.972499261
0.905514722
0.904697603
0.947762458
0.961628863
0.905851132
0.904231363
0.951115667
0.960332141
0.905921297
0.903909796
0.95562492
0.961714593
0.905794055
0.903689973
0.905294244
0.903484644
0.937160361
0.951348493
0.904776845
0.903896896
0.936976232
0.947364754
0.95775073
0.957591792
0.904921801
0.904355383
0.937615026
0.96325785
0.962823451
0.90525249
0.904661075
0.937492229
0.969228078
0.968489188
0.90594339
0.903849794
0.954293134
0.96134614
0.905590698
0.903774021
0.904941982
0.903699581
0.903925845
0.94206655
0.955853271
0.904527639
0.903807826
0.943136866
0.961294317
0.904587216
0.904089875
0.938136381
0.974428125
0.973618909
0.905220798
0.904030876
0.904196416
0.945809164
0.96229373
0.904668184
0.90421227
0.938062863
0.97312832
0.972475361
0.905206972
0.904085679
0.904404106
0.943954703
0.958123838
0.904578631
0.904408877
0.937951349
0.964896893
0.964480089
0.905339263
0.903775061
0.938913278
0.955292115
0.904811638
0.904437544
0.937074417
0.959859868
0.959655699
0.905137933
0.903849472
0.937422327
0.954122575
0.904655714
0.904470681
0.937252184
0.963059596
0.962565713
0.905319694
0.903490714
0.948087516
0.952859571
0.904616667
0.903765352
0.903833744
0.939897329
0.95810942
0.904516282
0.903808482
0.943148834
0.956324388
0.90449599
0.904019468
0.937988736
0.955644987
0.971878626
0.971759792
0.904828229
0.904332281
0.904202794
0.946192951
0.96085821
0.904684492
0.904193337
0.904118107
0.93803512
0.961689605
0.904764143
0.904340134
0.941454163
0.959465239
0.904697138
0.904759649
0.937804299
0.967792179
0.966873913
0.906129959
0.903674416
0.94629767
0.957840448
0.905642708
0.903866605
0.952842796
0.955146837
0.90506488
0.904174985
0.904387165
0.942681713
0.963663019
0.904932396
0.904494931
0.937537869
0.978015547
0.977076512
0.905658675
0.904452796
0.904590749
0.945594372
0.96276776
0.90514976
0.904147669
0.955079671
0.95778111
0.904866481
0.904085816
0.904212591
0.94182498
0.959178748
0.904578911
)
;

boundaryField
{
    closed
    {
        type            calculated;
        value           nonuniform List<scalar> 0();
    }
    open
    {
        type            calculated;
        value           nonuniform List<scalar> 0();
    }
    sides
    {
        type            empty;
    }
    procBoundary3to2
    {
        type            processor;
        value           uniform 0.904334673;
    }
    procBoundary3to4
    {
        type            processor;
        value           uniform 0.904679115;
    }
}


// ************************************************************************* //
