/*--------------------------------*- C++ -*----------------------------------*\
| =========                 |                                                 |
| \\      /  F ield         | OpenFOAM: The Open Source CFD Toolbox           |
|  \\    /   O peration     | Version:  2306                                  |
|   \\  /    A nd           | Website:  www.openfoam.com                      |
|    \\/     M anipulation  |                                                 |
\*---------------------------------------------------------------------------*/
FoamFile
{
    version     2.0;
    format      ascii;
    arch        "LSB;label=32;scalar=64";
    class       volScalarField;
    location    "0.00098";
    object      h;
}
// * * * * * * * * * * * * * * * * * * * * * * * * * * * * * * * * * * * * * //

dimensions      [0 2 -2 0 0 0 0];

internalField   nonuniform List<scalar> 
530
(
8135.94844
3611.65441
2300.64382
2276.37463
2273.96924
2273.89946
2273.89476
2273.89462
2273.89461
2273.89461
2273.89461
2273.89461
2273.89461
2273.89461
2273.89461
2273.89461
2273.89461
2273.89461
2273.89461
2273.89461
2273.89461
2273.89461
2273.89461
2273.89461
2273.89461
2273.89461
2273.89461
2273.89461
2273.89461
2273.89461
2273.89461
2273.89461
2273.89461
2273.89461
2273.89461
2273.89461
2273.89461
2273.89461
2273.89461
2273.89461
2273.89461
2273.89461
2273.89461
2273.89461
2273.89461
2273.89461
2273.89461
2273.89461
2273.89461
2273.89461
2273.89461
2273.89461
2273.89461
2273.89461
2273.89461
2273.89461
2273.89461
2273.89461
2273.89461
2273.89461
2273.89461
2273.89461
2273.89461
2273.89461
2273.89462
2273.89466
2273.89476
2273.89508
2273.89596
2273.89853
2273.90456
2273.92027
2273.95004
2274.01319
2274.17403
2274.43271
2274.91359
2275.78777
2277.8523
2280.16314
2282.93169
2288.34312
2296.4132
2308.28549
2328.89179
2340.24083
2236.06281
2025.05752
2145.2151
3223.23929
3410.94736
2044.82453
-2068.71913
-3034.06731
-154.802989
9448.98591
10420.3861
8255.49221
-4521.88597
-4813.96785
-3266.31602
-3500.18179
2688.93432
10212.1572
10213.7669
9623.44009
9940.63556
5225.49338
-5775.28722
-5780.0174
-3934.22586
-4269.66942
942.483673
10217.2003
10512.9945
9065.22947
-4940.10168
-5021.07422
-3536.31678
1808.43466
10143.49
10542.6604
9138.21939
-4752.43127
-4851.08389
-3294.31709
304.32856
10492.4345
9339.19106
-3058.22251
-1539.66826
10282.4913
9437.76593
-5405.6768
-5701.65557
-373.967837
10196.8362
9357.57791
-3649.45457
-2667.27594
10325.5674
9260.71536
-4004.7062
-3069.86028
10260.2872
9213.38865
-4267.60966
-3282.68578
10227.226
9190.57632
-4408.11953
-3413.89496
10210.5794
9179.49201
-4512.93836
-3500.0258
10183.5257
9183.16264
-4711.68757
-3236.14357
10029.8498
9406.4608
-6329.58167
-6581.19592
-1382.76619
10030.0837
9459.28247
-4441.63081
-2830.93317
10092.1004
9537.0545
-6081.53628
-6278.93728
-1215.6749
10084.3597
9471.8075
-4192.35457
-3045.19936
10280.6587
9272.15268
-4281.06947
-3312.53939
10257.2172
9191.85811
-4427.39436
-3400.80298
10234.4532
9134.86582
-4531.57422
-3434.18523
10209.1576
9109.76073
-4670.71092
-3024.30404
10067.613
9400.68217
-6237.64399
-6231.60342
-1247.03551
10076.3566
9291.07283
-4174.74095
-2811.55037
10274.8005
9095.1632
-4353.20109
-2622.5848
10115.7137
9368.30706
-6075.20815
-6071.06178
-1027.57325
10078.8343
9181.54601
-4231.65291
-2254.9929
10133.1084
9273.59011
-5973.08737
-5965.56406
-935.266189
10105.2783
9057.61507
-4060.03679
-2596.07871
10283.1139
8827.55145
-4262.5111
-2894.09387
10239.735
8739.15153
-4444.32457
-3010.25244
10196.2417
8707.06642
-4655.31677
-2616.49602
10063.6059
9102.57772
-6264.38892
-6257.26895
-1009.96993
10050.7608
8863.73927
-4187.10477
-2583.97463
10245.8745
8652.44686
-4372.46176
-2833.44109
10203.6316
8633.24281
-4517.64811
-2393.02632
10103.3182
9015.21016
-5874.34851
-5870.18427
-582.763186
10149.3958
8884.20084
-3655.53178
-2017.93534
10350.3178
8760.66592
-3804.81228
-1712.75309
10212.575
8951.46799
-5355.72284
-5355.31689
-127.165152
10215.2321
8820.80354
-3528.50794
-1484.70747
10244.8198
8592.68517
-5071.17641
-5070.98653
-3540.74905
-3689.14564
1783.54113
10390.4723
9068.63569
-4115.22563
-4109.29344
1390.94975
10451.9901
8814.05292
-2675.57634
-1104.85437
10470.1998
8588.53905
-3518.15139
-1589.42007
10202.9796
8433.34727
-5237.85857
-5237.2938
-3591.01067
-3312.49383
3176.38134
10525.7562
8740.75429
-3077.09262
-2858.8991
5410.68704
10605.8845
9012.35817
-3676.72364
-3669.84504
3083.06785
10363.5524
8926.9311
-4733.83845
-4728.36163
1166.18088
10193.3867
8693.42664
-4724.88031
-4726.37126
719.61998
10308.0312
8589.71295
-3170.85121
-858.809627
10315.4047
8619.62134
-4897.75726
-4894.15734
1090.89479
10195.8288
8620.28312
-4524.23262
-4524.07424
1621.44351
10242.6211
8644.57656
-4558.49566
-4553.5837
1241.3338
10225.1896
8460.13027
-4427.59827
-4424.21899
-3251.76017
1478.37353
10365.6493
8642.28553
-4352.04713
-4344.30919
1768.76886
10267.9671
8584.15323
-4468.73777
-4464.3434
1244.75108
10356.4724
8547.02455
-3089.12055
-1210.5527
10409.666
8443.35283
-3510.57294
-1374.45297
10221.6618
8546.78253
-5310.7401
-5310.53914
589.713228
10112.7184
8605.81292
-4940.36441
-4939.44023
688.680212
10267.4025
8590.72642
-3412.56707
-1202.13197
10261.8809
8693.38805
-5113.54657
-5116.31036
464.271694
10243.0227
8640.53628
-3479.89153
-1340.16493
10230.0116
8795.61274
-5364.56533
-5366.61066
558.924006
10090.1163
8844.91622
-5237.2784
-5237.50801
799.936369
10108.408
8870.09683
-5123.31892
-5121.63785
461.102572
10236.6083
8693.19232
-3444.42245
-1928.29564
10289.4711
8600.86752
-3791.80545
-1761.73291
10097.1425
8819.04072
-5734.99297
-5734.0092
-70.9826126
10135.6995
8664.99429
-3665.32535
-2167.61988
10226.2932
8558.46551
-3907.60973
-1827.12488
10054.8673
8810.61383
-5825.61735
-5820.67884
-57.1734521
10077.6351
8583.21963
-3883.17506
-1882.02076
10047.2924
8548.59814
-5674.59876
-5668.85782
4339.61095
9658.20452
2236.35924
-4429.20126
41.7783688
10049.9276
8215.02663
-5989.99442
-5526.68705
8859.05553
8741.9369
-3563.82026
-2488.98315
10053.539
8599.84705
-3592.49279
-1481.2845
10210.2601
8744.51782
-4297.5756
-3612.07129
8953.15187
9684.37149
-693.83216
-4637.38216
-3695.47788
4024.90845
9776.08044
2883.69142
-5327.39573
-1386.78109
10189.1938
9449.78729
-3719.95424
-3860.97929
2613.53434
10219.1903
9070.73582
-5614.50817
-5728.76573
393.798818
9949.8217
8186.20203
-4927.71414
-2567.73785
10228.4705
9375.96506
-3103.07426
-4046.83103
822.74976
10106.4551
8066.17268
-5268.02546
-3025.16187
10043.3828
9078.73077
-4130.16191
-5297.83102
-111.968059
10244.4425
9192.62231
-3563.78027
-3534.4015
2736.00336
10693.8729
10695.3594
9319.55435
-3105.82728
-3900.57635
-3366.04194
-3527.5473
-3777.28684
231.741037
10431.8767
9475.13857
-2473.54047
-3258.09102
2318.47074
10579.9694
9496.89129
-2350.98647
-3242.03638
-2603.79689
2026.11594
10425.8447
8918.08459
-4337.32433
-4331.68631
1309.73068
10243.0308
8641.93326
-4187.09311
)
;

boundaryField
{
    closed
    {
        type            lookUpEnthalpy;
        h0              uniform 256272.441;
        value           uniform 256272.441;
    }
    open
    {
        type            zeroGradient;
    }
    sides
    {
        type            empty;
    }
    procBoundary0to1
    {
        type            processor;
        value           uniform -4184.04818;
    }
}


// ************************************************************************* //
