/*--------------------------------*- C++ -*----------------------------------*\
| =========                 |                                                 |
| \\      /  F ield         | OpenFOAM: The Open Source CFD Toolbox           |
|  \\    /   O peration     | Version:  2306                                  |
|   \\  /    A nd           | Website:  www.openfoam.com                      |
|    \\/     M anipulation  |                                                 |
\*---------------------------------------------------------------------------*/
FoamFile
{
    version     2.0;
    format      ascii;
    arch        "LSB;label=32;scalar=64";
    class       volScalarField;
    location    "0.00156";
    object      prefDZ_H;
}
// * * * * * * * * * * * * * * * * * * * * * * * * * * * * * * * * * * * * * //

dimensions      [1 -1 -1 0 0 0 0];

internalField   nonuniform List<scalar> 
530
(
0.000114790032
0.000108882404
0.00010786774
0.000107842469
0.000107840206
0.000107840103
0.000107840096
0.000107840095
0.000107840095
0.000107840095
0.000107840095
0.000107840095
0.000107840095
0.000107840095
0.000107840095
0.000107840095
0.000107840095
0.000107840095
0.000107840095
0.000107840095
0.000107840095
0.000107840095
0.000107840095
0.000107840095
0.000107840095
0.000107840095
0.000107840095
0.000107840095
0.000107840095
0.000107840095
0.000107840095
0.000107840095
0.000107840095
0.000107840095
0.000107840095
0.000107840095
0.000107840095
0.000107840095
0.000107840095
0.000107840095
0.000107840095
0.000107840095
0.000107840095
0.000107840095
0.000107840095
0.000107840095
0.000107840095
0.000107840095
0.000107840095
0.000107840095
0.000107840095
0.000107840095
0.000107840095
0.000107840095
0.000107840095
0.000107840095
0.000107840095
0.000107840095
0.000107840095
0.000107840095
0.000107840095
0.000107840096
0.000107840096
0.000107840098
0.000107840099
0.000107840111
0.000107840112
0.000107840166
0.000107840188
0.000107840335
0.000107840473
0.000107840816
0.000107841624
0.000107841965
0.000107841629
0.000107842352
0.000107854559
0.000107865962
0.000107823792
0.000107791013
0.000107874458
0.000108129876
0.000107904503
0.000107763742
0.00010781624
0.000107915862
0.000107929112
0.00010768629
0.00010682888
0.000107620338
0.000110023115
0.000110575773
0.000110411969
0.000107589371
0.000105131778
0.000106267894
0.000110058985
0.00011043712
0.000110420319
0.000107690881
0.00010620699
0.000105961276
0.000107657865
0.000110281803
0.000110514035
0.00011038802
0.00011048942
0.000107738712
0.000106809659
0.00010650143
0.000106480822
0.000110209815
0.000110368515
0.000107783401
0.000107034283
0.000107713846
0.000110319101
0.000110505681
0.000110405413
0.000107768376
0.000107071018
0.000107151391
0.000106581074
0.000106624162
0.000105726784
0.000105731997
0.000110040021
0.000110244718
0.00011022513
0.000107913484
0.000106803393
0.000110017593
0.000110330576
0.000110186096
0.000110351686
0.000107812942
0.000106723592
0.000106285778
0.000106311328
0.000110020811
0.000110006704
0.000106477176
0.00010647413
0.000110111509
0.00011022496
0.000107778234
0.00010591549
0.000106025784
0.000110157641
0.000110334494
0.000110260147
0.00011036073
0.000107793881
0.000107026347
0.000106633909
0.000106642993
0.000110134752
0.00011027623
0.000107786051
0.000105950915
0.000107109489
0.00011019448
0.000107825306
0.000106392838
0.000110126645
0.00011032934
0.000107373723
0.000106796994
0.000110038161
0.000110324358
0.00010698317
0.000106808246
0.000110092101
0.000110315154
0.000110272263
0.000107782527
0.000106851493
0.000110158907
0.000110278909
0.000108056546
0.0001071531
0.000107213071
0.000106358911
0.000107159251
0.000110222102
0.000107749459
0.000106367827
0.000110261266
0.000110315724
0.000107737345
0.000106691752
0.000107548741
0.000110297382
0.000110394005
0.000107763968
0.000106131814
0.000107457762
0.00011025483
0.000107774517
0.000106541732
0.000110215566
0.000110307666
0.000110295446
0.000107851928
0.000106875487
0.000110206828
0.000110299148
0.000107913445
0.000107630884
0.00010762217
0.000107485688
0.000107752987
0.000107230006
0.000107193832
0.000110189499
0.000110395876
0.000107317534
0.000106709977
0.000110208541
0.000110254849
0.000107798488
0.000106411803
0.000106913987
0.000110148511
0.000110434524
0.00011021982
0.000107687885
0.000105475933
0.000106289587
0.000110137905
0.000110467839
0.000110222075
0.00010767502
0.000105447748
0.000106851724
0.000110140927
0.00010775607
0.000106152991
0.00011030202
0.000110270268
0.000107731991
0.000106767578
0.000107560459
0.000110300401
0.000110410766
0.000107760941
0.000106348795
0.000107604713
0.000110295125
0.000107771064
0.000106565072
0.000110308913
0.000110343035
0.000107732681
0.000106903187
0.000107756782
0.000110320827
0.000110418445
0.000107790225
0.000106362391
0.000106821433
0.000110256556
0.000110333756
0.000106891306
0.000106971907
0.000110256834
0.000110296778
0.000107790749
0.000106562193
0.000107860656
0.000110275642
0.000107877614
0.000106958494
0.000110104628
0.00011029556
0.000110225792
0.000107843988
0.000106231698
0.000106452289
0.00010654219
0.000110156677
0.000110143035
0.000107845488
0.00010542069
0.000106331218
0.000110152004
0.000110308131
0.000110226453
0.000107843182
0.000105070978
0.000105130529
0.000110116969
0.000110219387
0.000110210907
0.000110226051
0.000107819542
0.000105677556
0.00010586047
0.000110155342
0.000110257853
0.000107205712
0.000106306433
0.000110095501
0.000110317178
0.000106933222
0.000106266563
0.000110155755
0.000110215374
0.000107855919
0.000105984317
0.000106011512
0.000110182102
0.000110333411
0.000107498249
0.000106797936
0.000110230237
0.00011031152
0.000107814485
0.000106628245
0.000106626863
0.000110238281
0.000110309582
0.000107798124
0.000106890091
0.000106889332
0.00011027144
0.000110315272
0.000107766767
0.000106866627
0.000107132108
0.000106170336
0.000106182254
0.000110264501
0.000110342677
0.000110334422
0.000107806763
0.00010701485
0.000110263572
0.000110407747
0.0001073384
0.000106757517
0.000110251445
0.000110397468
0.000107398345
0.000106767841
0.000110283834
0.000110343033
0.000107762192
0.000106296937
0.000106320348
0.000110236363
0.000110425434
0.000107782341
0.000107116109
0.000110240807
0.000110423304
0.000107819941
0.000107193978
0.000106833833
0.000106836336
0.000110237843
0.0001104148
0.000107606365
0.000107476822
0.000110210898
0.000110352535
0.000110325919
0.000107850038
0.000107243849
0.00010709861
0.00010679145
0.000105973497
0.000106006576
0.000110080439
0.000110324262
0.000106599121
0.000106497447
0.000110086639
0.00011034474
0.000110226761
0.00011039152
0.000110372691
0.000107773014
0.000106448908
0.000107268065
0.00010711145
0.000107344181
0.000107767234
0.000107238133
0.000107310257
0.000110387416
0.000110407158
0.000110411154
0.000107782145
0.000107065275
0.000110284862
0.000110452803
0.000107490001
0.000106910349
0.00011027179
0.000110298366
0.000107795433
0.000106920911
0.000106534682
0.000106351735
0.000110205465
0.000110387527
0.000107017602
0.00010734813
0.000110274423
0.00010968767
0.000106786591
0.000106377646
0.000110188461
0.000110213618
0.000107857271
0.00010534974
0.000105616678
0.000110211726
0.000110302506
0.000110281212
0.000110323724
0.000110331841
0.00011032138
0.000107806009
0.000106211122
0.000106772418
0.000105859046
0.000105890428
0.000110162771
0.000110338903
0.000107506126
0.000107031953
0.000110245895
0.000110313432
0.000107794337
0.000107187413
0.000106991629
0.000106855443
0.00011030144
0.000110234316
0.000107751536
0.000105961465
0.000106908424
0.000110267985
0.000110386581
0.000110363947
0.00010763395
0.000106661857
0.000110352547
0.000110253474
0.000107725078
0.000106665306
0.00010668367
0.00011028678
0.000110421396
0.000107786621
0.000106466803
0.000106475718
0.000110372354
0.000110361089
0.000107733117
0.000106453953
0.000106471485
0.000110298242
0.000110400917
0.000107845625
0.000106702408
0.000106282485
0.00010628617
0.000110302316
0.000110334261
0.000110350049
0.000107492891
0.000106954841
0.000110294615
0.000110263698
0.000110310935
0.00010805709
0.000107371381
0.000107143816
0.000107142314
0.000106621541
0.000106620364
0.000110334285
0.000108076201
0.000106739522
0.000110377874
0.000110387582
0.000107734063
0.000107119713
0.000107405052
0.000110424666
0.000110409404
0.000107710858
0.000106357635
0.000106520161
0.000110390351
0.000110396155
0.00010713724
0.000107194947
0.000110377711
0.000110084187
0.000106925311
0.000106606834
0.00011038636
0.000110266457
0.000107746348
0.000106184805
0.000107104573
0.000110363655
0.000107778688
0.000106266609
0.000110339671
0.000110333252
0.000106363535
0.000106522325
0.000110254409
0.000110299281
0.000110287248
0.00010733062
0.000104966962
0.000106210957
0.000110195412
0.000110407872
0.000106936547
0.000107764053
0.000110370495
0.000107783949
0.000106689403
)
;

boundaryField
{
    closed
    {
        type            calculated;
        value           uniform 0.000144124992;
    }
    open
    {
        type            calculated;
        value           nonuniform List<scalar> 0();
    }
    sides
    {
        type            empty;
    }
    procBoundary0to1
    {
        type            processor;
        value           uniform 0.000110353576;
    }
}


// ************************************************************************* //
