/*--------------------------------*- C++ -*----------------------------------*\
| =========                 |                                                 |
| \\      /  F ield         | OpenFOAM: The Open Source CFD Toolbox           |
|  \\    /   O peration     | Version:  2306                                  |
|   \\  /    A nd           | Website:  www.openfoam.com                      |
|    \\/     M anipulation  |                                                 |
\*---------------------------------------------------------------------------*/
FoamFile
{
    version     2.0;
    format      ascii;
    arch        "LSB;label=32;scalar=64";
    class       volScalarField;
    location    "0.00156";
    object      prefDh_T;
}
// * * * * * * * * * * * * * * * * * * * * * * * * * * * * * * * * * * * * * //

dimensions      [1 1 -3 -1 0 0 0];

internalField   nonuniform List<scalar> 
530
(
-0.00111252537
-0.000671466899
-0.00059342154
-0.000591386561
-0.000591203353
-0.000591195115
-0.000591194529
-0.000591194503
-0.000591194501
-0.000591194501
-0.000591194501
-0.000591194501
-0.000591194501
-0.000591194501
-0.000591194501
-0.000591194501
-0.000591194501
-0.000591194501
-0.000591194501
-0.000591194501
-0.000591194501
-0.000591194501
-0.000591194501
-0.000591194501
-0.000591194501
-0.000591194501
-0.000591194501
-0.000591194501
-0.000591194501
-0.000591194501
-0.000591194501
-0.000591194501
-0.000591194501
-0.000591194501
-0.000591194501
-0.000591194501
-0.000591194501
-0.000591194501
-0.000591194501
-0.000591194501
-0.000591194501
-0.000591194501
-0.000591194501
-0.000591194501
-0.000591194501
-0.000591194501
-0.000591194501
-0.000591194501
-0.000591194501
-0.000591194501
-0.000591194501
-0.000591194501
-0.000591194501
-0.000591194501
-0.000591194501
-0.000591194501
-0.000591194501
-0.000591194501
-0.000591194501
-0.000591194504
-0.000591194504
-0.000591194529
-0.000591194544
-0.000591194711
-0.000591194753
-0.000591195742
-0.000591195799
-0.00059120013
-0.000591201745
-0.000591213512
-0.000591225222
-0.000591251053
-0.000591310883
-0.000591340995
-0.000591355375
-0.000591424152
-0.000592120592
-0.000592834682
-0.000590570735
-0.000589327649
-0.000593369974
-0.000608749545
-0.000595173851
-0.000589675443
-0.000591034885
-0.000596041081
-0.00059758668
-0.000589940099
-0.00053865218
-0.000580459285
-0.000730008732
-0.0007586749
-0.000749214734
-0.000580894412
-0.000430720471
-0.000501319608
-0.000733470523
-0.000750902578
-0.000749882829
-0.000589099167
-0.000497035818
-0.000481838339
-0.000584720646
-0.000744054362
-0.000755404761
-0.000748264296
-0.000754206677
-0.00058732105
-0.000535391993
-0.00051638639
-0.000515009745
-0.000741086871
-0.000747016756
-0.000589359372
-0.000550162102
-0.00058419725
-0.000745211407
-0.000754331202
-0.00074844314
-0.00058870112
-0.000552718475
-0.000557503637
-0.000522085487
-0.000524517987
-0.000468215608
-0.000468168574
-0.000732012207
-0.000739574781
-0.000739287949
-0.000605258747
-0.000536132925
-0.00073124065
-0.000745217053
-0.000737581028
-0.000746507982
-0.000597110329
-0.000531322324
-0.000503589277
-0.000506237929
-0.000729984114
-0.000729685319
-0.000515570984
-0.000516622832
-0.000735019486
-0.000739029235
-0.000594261343
-0.00048013319
-0.000486441469
-0.000737866833
-0.000745377257
-0.000741228036
-0.000746647525
-0.000592957818
-0.000549953277
-0.000525511172
-0.000525801632
-0.000736784697
-0.000742179731
-0.000594408989
-0.000482448583
-0.000555413053
-0.00073952197
-0.000593037689
-0.000509987347
-0.000736642802
-0.000745055963
-0.000572993391
-0.000535484421
-0.000731797193
-0.000744512003
-0.000548362946
-0.000536261105
-0.000735657278
-0.000743509649
-0.00074183955
-0.000598040394
-0.000539451328
-0.000738434525
-0.00074161343
-0.000604552825
-0.00055821359
-0.00056150573
-0.000508119332
-0.000558231889
-0.000740912238
-0.000589115405
-0.000508430868
-0.000743958701
-0.000744349753
-0.000588509417
-0.000529096555
-0.000582531562
-0.000744181033
-0.000748401524
-0.000591035618
-0.000493344327
-0.000577242174
-0.000742812556
-0.000594130363
-0.000519602609
-0.000742472075
-0.000743092882
-0.000743873787
-0.000601483834
-0.000540874144
-0.000740616722
-0.000742507494
-0.000596472322
-0.000588397426
-0.000587199672
-0.00057940456
-0.00059335318
-0.000563632496
-0.000559802983
-0.000740128878
-0.000748618864
-0.000568577322
-0.000530036678
-0.000740921765
-0.000740694233
-0.000591191155
-0.000512063672
-0.000542513204
-0.000736503043
-0.000750076243
-0.000738324386
-0.000586175707
-0.000452448922
-0.000502308762
-0.000736706395
-0.000752409058
-0.000738954469
-0.00058539223
-0.000450674011
-0.000538033539
-0.000736511822
-0.000587705974
-0.000495214231
-0.000745996759
-0.000741753064
-0.000587456608
-0.000534103321
-0.000583095102
-0.000744104799
-0.000749243623
-0.000590036888
-0.000506939664
-0.000586128835
-0.000744775523
-0.000589315324
-0.000520668063
-0.000746139001
-0.00074567235
-0.000587946537
-0.00054230457
-0.000594676878
-0.000745091036
-0.000749637772
-0.000592559775
-0.000507908868
-0.000537835551
-0.000742304869
-0.000747690971
-0.000541186193
-0.000547483468
-0.000741962597
-0.000742622166
-0.000591982155
-0.000520804414
-0.000602020751
-0.000743225808
-0.000601614439
-0.000546096287
-0.000736130243
-0.000742075266
-0.000740658274
-0.000600812389
-0.000501231669
-0.000514327658
-0.00052081531
-0.000737579296
-0.000734631266
-0.000599735864
-0.000449197467
-0.000506179879
-0.00073740279
-0.000743031598
-0.00073941234
-0.000600941935
-0.000426535441
-0.000429703669
-0.000735430392
-0.000739556377
-0.000738497592
-0.000739727272
-0.00059570562
-0.000465252058
-0.000476284807
-0.000736797349
-0.000741130846
-0.000562378859
-0.000504682258
-0.000734341871
-0.000744934283
-0.00054495281
-0.000502334594
-0.000737450692
-0.000738724744
-0.000601374775
-0.000484805352
-0.000485603665
-0.000738262667
-0.000745370041
-0.000580250582
-0.000535579504
-0.000741363011
-0.000743824429
-0.000596967333
-0.0005253205
-0.00052478358
-0.000740825267
-0.000743548478
-0.000593908957
-0.000541741982
-0.000541426289
-0.000742520792
-0.000743765787
-0.000591947398
-0.000540153995
-0.000556389738
-0.000495947185
-0.000496348946
-0.000743096505
-0.000745058767
-0.000745349717
-0.000592321989
-0.000548806889
-0.000743045632
-0.000749295574
-0.000569764593
-0.000532396997
-0.000742827872
-0.000748835109
-0.000573488982
-0.000533335904
-0.000744305664
-0.000745889104
-0.000594205067
-0.000504078067
-0.000504539625
-0.000740833945
-0.000750454249
-0.000598026259
-0.000555006407
-0.000741332547
-0.000749898612
-0.000596777395
-0.000559990292
-0.000538218676
-0.000537276366
-0.00074149836
-0.00074938026
-0.000587010222
-0.000578202205
-0.000739681289
-0.000744998667
-0.000744085267
-0.000593868178
-0.000563640079
-0.000555022975
-0.000534970553
-0.00048401512
-0.000485138105
-0.000732996732
-0.000744910405
-0.000524094117
-0.000516356821
-0.000734572169
-0.000745615312
-0.000740680756
-0.00074795336
-0.000747398053
-0.000595720215
-0.000513359968
-0.000564769055
-0.000555204091
-0.000569789015
-0.000592619165
-0.000563099472
-0.0005676348
-0.000749280374
-0.000748356682
-0.000749405152
-0.000595681266
-0.000552113273
-0.000743516383
-0.000752691559
-0.000578964458
-0.000542810629
-0.000742739025
-0.000742732358
-0.000595052729
-0.000543328248
-0.000519057096
-0.000506592217
-0.000740213125
-0.00074806844
-0.000549605482
-0.000571757958
-0.000742367138
-0.000712423913
-0.000534894353
-0.000510389229
-0.000738274556
-0.000738687209
-0.000602171214
-0.000444024197
-0.000460473255
-0.000740572437
-0.000744151603
-0.000743246276
-0.000745209284
-0.000744930654
-0.000744658854
-0.000597728644
-0.00049885733
-0.000533715662
-0.000476621523
-0.000477686558
-0.000736864053
-0.000745641446
-0.000580967095
-0.000550490971
-0.000741006215
-0.000743436935
-0.000593877086
-0.000560604836
-0.000547789118
-0.00053961876
-0.000744466625
-0.000739527382
-0.000591803949
-0.000483331535
-0.000542040004
-0.00074347622
-0.000747452699
-0.000747501816
-0.000587801916
-0.000527430505
-0.000746952431
-0.00074036757
-0.000589094136
-0.00052765685
-0.000527427689
-0.000743105441
-0.000750415981
-0.000595921128
-0.00051408605
-0.000514670864
-0.000747917127
-0.000746968483
-0.000592042946
-0.000513819167
-0.000514037544
-0.000743443164
-0.000749199786
-0.0006014955
-0.000529373314
-0.000502829288
-0.000502934716
-0.000745335619
-0.000744918238
-0.000747059739
-0.000579332939
-0.000545830248
-0.000743811132
-0.000740362481
-0.000743607252
-0.000604897081
-0.000571653537
-0.000557746626
-0.000557140439
-0.000524421183
-0.000524040644
-0.000745778956
-0.000605503155
-0.000531275262
-0.00074827861
-0.000747987413
-0.000587957022
-0.000555586353
-0.000573299181
-0.00075010944
-0.000749206923
-0.000589480719
-0.000507196744
-0.000516827148
-0.000749061822
-0.000748414447
-0.000556473231
-0.000561810082
-0.000747786072
-0.000735022784
-0.000542838341
-0.000524808905
-0.000748265401
-0.000741174635
-0.000591781996
-0.000496691951
-0.000554254621
-0.000747897359
-0.000589856702
-0.00050150699
-0.000746011978
-0.000745265555
-0.000508280251
-0.000518155732
-0.000742962574
-0.000742596436
-0.000745166384
-0.000568897353
-0.000419978256
-0.000497597138
-0.000737968136
-0.000749070369
-0.000544756563
-0.000596297455
-0.000747596307
-0.000594758705
-0.000528492252
)
;

boundaryField
{
    closed
    {
        type            calculated;
        value           uniform -0.00452451188;
    }
    open
    {
        type            calculated;
        value           nonuniform List<scalar> 0();
    }
    sides
    {
        type            empty;
    }
    procBoundary0to1
    {
        type            processor;
        value           uniform -0.000746221784;
    }
}


// ************************************************************************* //
