/*--------------------------------*- C++ -*----------------------------------*\
| =========                 |                                                 |
| \\      /  F ield         | OpenFOAM: The Open Source CFD Toolbox           |
|  \\    /   O peration     | Version:  2306                                  |
|   \\  /    A nd           | Website:  www.openfoam.com                      |
|    \\/     M anipulation  |                                                 |
\*---------------------------------------------------------------------------*/
FoamFile
{
    version     2.0;
    format      ascii;
    arch        "LSB;label=32;scalar=64";
    class       volScalarField;
    location    "0.00156";
    object      prefDh_H2O;
}
// * * * * * * * * * * * * * * * * * * * * * * * * * * * * * * * * * * * * * //

dimensions      [1 1 -3 0 0 0 0];

internalField   nonuniform List<scalar> 
530
(
92.5295793
89.990796
89.8119535
89.8188172
89.8195569
89.8195742
89.8195748
89.8195748
89.8195748
89.8195748
89.8195748
89.8195748
89.8195748
89.8195748
89.8195748
89.8195748
89.8195748
89.8195748
89.8195748
89.8195748
89.8195748
89.8195748
89.8195748
89.8195748
89.8195748
89.8195748
89.8195748
89.8195748
89.8195748
89.8195748
89.8195748
89.8195748
89.8195748
89.8195748
89.8195748
89.8195748
89.8195748
89.8195748
89.8195748
89.8195748
89.8195748
89.8195748
89.8195748
89.8195748
89.8195748
89.8195748
89.8195748
89.8195748
89.8195748
89.8195748
89.8195748
89.8195748
89.8195748
89.8195748
89.8195748
89.8195748
89.8195748
89.8195748
89.8195748
89.8195748
89.8195748
89.8195747
89.8195747
89.8195746
89.8195745
89.8195735
89.8195728
89.8195689
89.8195777
89.8195495
89.8194322
89.8195995
89.8201268
89.8196538
89.8138399
89.8121477
89.8497054
89.8757369
89.7252638
89.5311055
89.8946725
90.5509432
89.9740743
89.1568481
89.5706089
89.9781419
89.9069728
88.1710876
88.002293
88.8585525
92.7184976
92.1474626
92.2298661
88.4157784
87.5230207
87.774401
92.8299028
92.2385706
92.2425018
88.3615425
87.7405436
87.6828248
88.6488234
92.5092909
92.205366
92.2809926
92.2380059
89.2188164
87.9272221
87.8530301
87.8444084
92.6544162
92.2797409
89.4376673
88.0123834
89.3970626
92.3996117
92.1561737
92.197644
89.3602531
88.0307032
88.0453003
87.8998116
87.9017792
87.669309
87.6539682
92.805409
92.3145256
92.4008379
88.5324428
87.9634476
92.8650286
92.3341081
92.4699234
92.3301378
88.5904876
87.9486317
87.8229774
87.8709886
92.7296351
92.7842402
87.8722346
87.9186867
92.6667365
92.3782808
88.6158716
87.7193736
87.7221612
92.661019
92.3261605
92.3761016
92.2908993
89.0116243
88.019409
87.9179725
87.9104983
92.6943994
92.3702385
88.6883843
87.7321896
88.0504035
92.599363
89.3761437
87.8389384
92.7285641
92.326578
88.1553354
87.9532679
92.7963301
92.3057985
88.0445871
87.95876
92.839222
92.267721
92.3620999
88.2532972
87.9868279
92.7061037
92.303471
90.3378333
88.0646168
88.0668776
87.8398244
88.0548152
92.5668942
89.0719391
87.8327737
92.6197662
92.3406081
89.0200041
87.932013
88.1622247
92.4308238
92.2591233
88.949019
87.7598572
88.1480798
92.5516523
88.5909956
87.8887486
92.7490736
92.2728468
92.4139478
88.374085
87.9905405
92.6284284
92.2686073
89.8899807
88.2060939
88.1852599
88.1680995
88.4496381
88.1047892
88.0463231
92.6843367
92.2680863
88.1122422
87.9298537
92.6465983
92.358005
89.3389029
87.8776051
87.9753507
92.5884606
92.1787603
92.3437594
88.7855665
87.6079877
87.7665529
92.6688045
92.1989714
92.3880494
88.7519801
87.6010878
87.9391945
92.6332855
89.3654849
87.7869827
92.5704373
92.3656982
89.1180717
87.9612364
88.1608061
92.4064603
92.2393629
89.0675358
87.8165422
88.180869
92.4982579
89.2990162
87.8806658
92.543477
92.3039336
89.0509314
87.9878024
88.2854651
92.3787027
92.231062
89.0293496
87.8245263
87.9880519
92.4950803
92.541877
87.9721629
88.0356879
92.4621611
92.2925387
89.1252298
87.8912617
88.3962532
92.4690416
88.6709369
88.013726
92.8097816
92.2500468
92.522198
88.3832481
87.8507997
87.8775767
87.9330192
92.640105
92.4487718
88.5738047
87.6056585
87.824832
92.6510106
92.2646452
92.4045504
88.3525002
87.4899654
87.4740406
92.6728867
92.4583776
92.4106548
92.4355671
88.8934764
87.6630369
87.6886261
92.5759052
92.3804426
88.1067643
87.8205113
92.6973526
92.3854289
88.0217191
87.8160681
92.6336145
92.4056569
88.4410051
87.7516096
87.7207832
92.5554101
92.3317264
88.1733691
87.9547492
92.561127
92.3170427
88.6321793
87.9223693
87.9059116
92.4652998
92.3031335
88.9145181
87.9928895
87.9836816
92.428877
92.2902302
88.8404602
87.9825592
88.0428146
87.7772723
87.7668307
92.5216567
92.2504272
92.3240732
89.2647728
88.0025845
92.5223695
92.261358
88.1144501
87.9217373
92.5727088
92.2785588
88.1303867
87.9344031
92.5205733
92.3236191
88.427488
87.8176961
87.7860217
92.4771658
92.2649473
88.2531755
88.0265088
92.4971178
92.2268447
88.7293047
88.0517579
87.9777633
87.9416358
92.529468
92.2286353
88.2034063
88.1466804
92.5188328
92.1887383
92.2582207
89.5423144
88.0818254
88.0567665
87.9461139
87.7441863
87.7131803
92.6608503
92.3425161
87.9366832
87.8598778
92.7703815
92.2889917
92.5186473
92.2328005
92.2903591
88.3194164
87.8485526
88.0768935
88.0404437
88.1059684
88.740583
88.0746493
88.095506
92.3768517
92.1798857
92.2517578
88.4383782
88.0213285
92.4423591
92.3108466
88.148612
87.9916664
92.446786
92.2934295
88.7015957
87.9897714
87.8831063
87.7976432
92.5991677
92.2660716
88.0234786
88.1599142
92.3976842
93.0191972
87.9525468
87.8872376
92.5197029
92.4123313
88.3301318
87.5537661
87.6047594
92.595874
92.3986014
92.4387515
92.3727932
92.3008577
92.3362096
88.4064242
87.8017626
87.9388023
87.7065955
87.6762188
92.5390182
92.3248436
88.1821821
88.0269767
92.4379112
92.2709921
88.8734108
88.0817204
88.0101892
87.9851546
92.4334886
92.3698462
88.6772105
87.744227
87.9697493
92.5363124
92.2157989
92.3500176
88.1848995
87.9313982
92.3656172
92.3362368
88.780588
87.9326775
87.8897978
92.3938192
92.2846472
88.4553681
87.8389973
87.8423466
92.3394366
92.3179611
88.413359
87.8551511
87.8280722
92.3586408
92.2918453
88.2940289
87.9212552
87.8007629
87.7969583
92.5079633
92.2858695
92.3897845
88.1548424
88.0114981
92.413018
92.2772716
92.3007037
90.2980237
88.1184332
88.0656924
88.0491381
87.9034593
87.8923368
92.363885
90.418016
87.916965
92.3405696
92.258417
89.065896
88.038508
88.1144079
92.238117
92.2438383
88.5462289
87.8078597
87.8323485
92.3400378
92.2479776
88.036879
88.1072734
92.296756
92.8265876
87.9660836
87.9472992
92.2906173
92.3350309
88.6171848
87.7746411
88.0223553
92.3877305
89.3070788
87.7841345
92.3541055
92.3231518
87.8361264
87.8752108
92.5678843
92.2758901
92.5798768
88.1008759
87.4654529
87.7533421
92.4515741
92.2402512
88.0089546
88.2319621
92.3209625
88.6072332
87.9154374
)
;

boundaryField
{
    closed
    {
        type            calculated;
        value           uniform 120.324483;
    }
    open
    {
        type            calculated;
        value           nonuniform List<scalar> 0();
    }
    sides
    {
        type            empty;
    }
    procBoundary0to1
    {
        type            processor;
        value           uniform 92.2933131;
    }
}


// ************************************************************************* //
