/*--------------------------------*- C++ -*----------------------------------*\
| =========                 |                                                 |
| \\      /  F ield         | OpenFOAM: The Open Source CFD Toolbox           |
|  \\    /   O peration     | Version:  2306                                  |
|   \\  /    A nd           | Website:  www.openfoam.com                      |
|    \\/     M anipulation  |                                                 |
\*---------------------------------------------------------------------------*/
FoamFile
{
    version     2.0;
    format      ascii;
    arch        "LSB;label=32;scalar=64";
    class       volVectorField;
    location    "0.00156";
    object      U;
}
// * * * * * * * * * * * * * * * * * * * * * * * * * * * * * * * * * * * * * //

dimensions      [0 1 -1 0 0 0 0];

internalField   nonuniform List<vector> 
530
(
(0.199161157 0 0)
(0.278945566 0 0)
(0.283911056 0 0)
(0.301217071 0 0)
(0.259187009 0 0)
(0.226047455 0 0)
(0.172370373 0 0)
(0.13771095 0 0)
(0.0848097756 0 0)
(0.049670059 0 0)
(0.0297543623 0 0)
(0.0546307089 0 0)
(0.0969695278 0 0)
(0.149659127 0 0)
(0.183502216 0 0)
(0.198662716 0 0)
(0.194327893 0 0)
(0.197252067 0 0)
(0.212172071 0 0)
(0.257264418 0 0)
(0.340769667 0 0)
(0.489636497 0 0)
(0.706093881 0 0)
(0.937512735 0 0)
(1.07053804 0 0)
(1.01424369 0 0)
(0.791585091 0 0)
(0.534916998 0 0)
(0.351788056 0 0)
(0.255240401 0 0)
(0.211769122 0 0)
(0.190093875 0 0)
(0.178108212 0 0)
(0.178059169 0 0)
(0.187049971 0 0)
(0.204984238 0 0)
(0.228703825 0 0)
(0.255712336 0 0)
(0.285461387 0 0)
(0.315086346 0 0)
(0.344424589 0 0)
(0.371680283 0 0)
(0.396558914 0 0)
(0.417934567 0 0)
(0.4359863 0 0)
(0.451049848 0 0)
(0.463822752 0 0)
(0.474844901 0 0)
(0.484526963 0 0)
(0.492723483 0 0)
(0.499628857 0 0)
(0.504867062 0 0)
(0.50875788 0 0)
(0.511419255 0 0)
(0.513128618 0 0)
(0.514390527 0 0)
(0.515223776 0 0)
(0.515899241 0 0)
(0.516415381 0 0)
(0.516756493 0 0)
(0.516796037 0 0)
(0.516366175 0 0)
(0.515443423 0 0)
(0.514057489 0 0)
(0.512177321 0 0)
(0.5099337 0 0)
(0.507420185 0 0)
(0.504609927 0 0)
(0.501595299 0 0)
(0.498439251 0 0)
(0.495141716 0 0)
(0.491870486 0 0)
(0.488674717 0 0)
(0.485481376 0 0)
(0.4823417 0 0)
(0.479311986 0 0)
(0.47645338 0 0)
(0.473676866 0 0)
(0.470824785 0 0)
(0.467992809 0 0)
(0.465467123 0 0)
(0.463932809 0 0)
(0.46208562 0 0)
(0.46010819 0 0)
(0.45791637 0 0)
(0.456176733 0 0)
(0.455522821 0 0)
(0.454953032 0 0)
(0.452914434 0 0)
(0.453924265 0 0)
(0.463353704 0 0)
(0.468860146 0 0)
(0.462008739 0 0)
(0.447683635 0 0)
(0.441077309 0 0)
(0.439286397 0 0)
(0.444517603 0 0)
(0.450304333 0 0)
(0.44480327 0 0)
(0.434222304 0 0)
(0.432681026 0 0)
(0.439131116 0 0)
(0.446863061 0 0)
(0.456011174 0 0)
(0.460877627 0 0)
(0.460180286 0 0)
(0.454198491 0 0)
(0.446611418 0 0)
(0.444471952 0 0)
(0.443065649 0 0)
(0.438078126 0 0)
(0.446028269 0 0)
(0.453429156 0 0)
(0.445935445 0 0)
(0.442352556 0 0)
(0.444851481 0 0)
(0.45183973 0 0)
(0.456341978 0 0)
(0.454448276 0 0)
(0.448300169 0 0)
(0.446647325 0 0)
(0.449084222 0 0)
(0.450167857 0 0)
(0.449191693 0 0)
(0.444415984 0 0)
(0.440162886 0 0)
(0.451984489 0 0)
(0.464613024 0 0)
(0.45605978 0 0)
(0.441521222 0 0)
(0.440690795 0 0)
(0.451982748 0 0)
(0.459013739 0 0)
(0.459015078 0 0)
(0.453153059 0 0)
(0.443306078 0 0)
(0.438993945 0 0)
(0.436507408 0 0)
(0.43396472 0 0)
(0.438693871 0 0)
(0.450679453 0 0)
(0.454625384 0 0)
(0.448558289 0 0)
(0.449436585 0 0)
(0.445409175 0 0)
(0.434797335 0 0)
(0.426879544 0 0)
(0.424714377 0 0)
(0.432392401 0 0)
(0.438776036 0 0)
(0.438705397 0 0)
(0.43352438 0 0)
(0.425148208 0 0)
(0.421829633 0 0)
(0.419903753 0 0)
(0.423201787 0 0)
(0.433380972 0 0)
(0.432910607 0 0)
(0.423238099 0 0)
(0.417241419 0 0)
(0.416430178 0 0)
(0.416450953 0 0)
(0.411086962 0 0)
(0.409884403 0 0)
(0.419317689 0 0)
(0.419406378 0 0)
(0.41120781 0 0)
(0.412322397 0 0)
(0.422169493 0 0)
(0.421790948 0 0)
(0.413227697 0 0)
(0.415464607 0 0)
(0.426630503 0 0)
(0.431482917 0 0)
(0.427503703 0 0)
(0.417319434 0 0)
(0.415877307 0 0)
(0.425330352 0 0)
(0.426515529 0 0)
(0.421073584 0 0)
(0.419418704 0 0)
(0.419119221 0 0)
(0.417226567 0 0)
(0.414443082 0 0)
(0.412051351 0 0)
(0.405724699 0 0)
(0.404451212 0 0)
(0.413800278 0 0)
(0.414123306 0 0)
(0.405099418 0 0)
(0.400081977 0 0)
(0.395507833 0 0)
(0.394836672 0 0)
(0.392956459 0 0)
(0.383807811 0 0)
(0.380055407 0 0)
(0.379171125 0 0)
(0.376790731 0 0)
(0.370272096 0 0)
(0.367723325 0 0)
(0.374916383 0 0)
(0.378475457 0 0)
(0.376746383 0 0)
(0.369658249 0 0)
(0.367174236 0 0)
(0.37459333 0 0)
(0.375557753 0 0)
(0.369732317 0 0)
(0.367850062 0 0)
(0.369057538 0 0)
(0.369972934 0 0)
(0.368965583 0 0)
(0.363492499 0 0)
(0.362795622 0 0)
(0.37052863 0 0)
(0.369690621 0 0)
(0.362302926 0 0)
(0.363617899 0 0)
(0.372779474 0 0)
(0.373908136 0 0)
(0.36560406 0 0)
(0.358818458 0 0)
(0.356364289 0 0)
(0.36052526 0 0)
(0.363851412 0 0)
(0.358925186 0 0)
(0.349145813 0 0)
(0.343548465 0 0)
(0.344198364 0 0)
(0.350578462 0 0)
(0.354677779 0 0)
(0.349584486 0 0)
(0.339934571 0 0)
(0.335259704 0 0)
(0.335633396 0 0)
(0.335819123 0 0)
(0.33162374 0 0)
(0.329833395 0 0)
(0.336682088 0 0)
(0.337522838 0 0)
(0.330229357 0 0)
(0.32521182 0 0)
(0.320602526 0 0)
(0.319440079 0 0)
(0.31766321 0 0)
(0.310289735 0 0)
(0.307130121 0 0)
(0.305411157 0 0)
(0.302534487 0 0)
(0.298912008 0 0)
(0.297606204 0 0)
(0.30322844 0 0)
(0.304127745 0 0)
(0.297284733 0 0)
(0.293123275 0 0)
(0.296288441 0 0)
(0.302289547 0 0)
(0.301399762 0 0)
(0.294790561 0 0)
(0.290144339 0 0)
(0.283634992 0 0)
(0.281797852 0 0)
(0.285497823 0 0)
(0.288739258 0 0)
(0.288655127 0 0)
(0.285886897 0 0)
(0.281284023 0 0)
(0.275098343 0 0)
(0.272979061 0 0)
(0.27714764 0 0)
(0.280140975 0 0)
(0.276523498 0 0)
(0.273469044 0 0)
(0.279678709 0 0)
(0.286625643 0 0)
(0.284405092 0 0)
(0.27808098 0 0)
(0.272502693 0 0)
(0.268207864 0 0)
(0.267929035 0 0)
(0.272575727 0 0)
(0.273472413 0 0)
(0.266452858 0 0)
(0.26008889 0 0)
(0.25974232 0 0)
(0.264659019 0 0)
(0.268669336 0 0)
(0.264372679 0 0)
(0.255857844 0 0)
(0.249518214 0 0)
(0.250212261 0 0)
(0.256946141 0 0)
(0.262909055 0 0)
(0.262597853 0 0)
(0.261112458 0 0)
(0.256502865 0 0)
(0.250390676 0 0)
(0.250567792 0 0)
(0.255836912 0 0)
(0.256966357 0 0)
(0.25111991 0 0)
(0.250020708 0 0)
(0.256339128 0 0)
(0.257717221 0 0)
(0.251481291 0 0)
(0.250464173 0 0)
(0.257017288 0 0)
(0.259856633 0 0)
(0.253777735 0 0)
(0.247332188 0 0)
(0.24652266 0 0)
(0.252725716 0 0)
(0.25589698 0 0)
(0.250679729 0 0)
(0.250228572 0 0)
(0.256382972 0 0)
(0.258399181 0 0)
(0.25254312 0 0)
(0.247089262 0 0)
(0.245764169 0 0)
(0.25121293 0 0)
(0.254918731 0 0)
(0.249953256 0 0)
(0.245649946 0 0)
(0.244403606 0 0)
(0.249085679 0 0)
(0.252000983 0 0)
(0.247452036 0 0)
(0.244586517 0 0)
(0.243314667 0 0)
(0.241657976 0 0)
(0.241906983 0 0)
(0.246451172 0 0)
(0.250152782 0 0)
(0.248727519 0 0)
(0.244222424 0 0)
(0.24318899 0 0)
(0.24871278 0 0)
(0.249477448 0 0)
(0.244387948 0 0)
(0.244896257 0 0)
(0.251541485 0 0)
(0.252642635 0 0)
(0.247119302 0 0)
(0.246770686 0 0)
(0.253122792 0 0)
(0.254689469 0 0)
(0.248611058 0 0)
(0.243674107 0 0)
(0.2440771 0 0)
(0.250022192 0 0)
(0.252121213 0 0)
(0.247671547 0 0)
(0.247947967 0 0)
(0.253745066 0 0)
(0.254974861 0 0)
(0.249831123 0 0)
(0.246266099 0 0)
(0.24463881 0 0)
(0.242504 0 0)
(0.246920286 0 0)
(0.250238398 0 0)
(0.245345162 0 0)
(0.245210071 0 0)
(0.250511509 0 0)
(0.253306494 0 0)
(0.249764002 0 0)
(0.244357713 0 0)
(0.242117777 0 0)
(0.241717791 0 0)
(0.240114959 0 0)
(0.236867109 0 0)
(0.2395973 0 0)
(0.246277148 0 0)
(0.244250475 0 0)
(0.237180282 0 0)
(0.236217192 0 0)
(0.242742041 0 0)
(0.247165547 0 0)
(0.247082949 0 0)
(0.24610081 0 0)
(0.24223172 0 0)
(0.235873962 0 0)
(0.234625956 0 0)
(0.237442839 0 0)
(0.238745818 0 0)
(0.23789027 0 0)
(0.23562725 0 0)
(0.233398215 0 0)
(0.232222553 0 0)
(0.234367592 0 0)
(0.235945909 0 0)
(0.231396515 0 0)
(0.224674288 0 0)
(0.222946036 0 0)
(0.22646892 0 0)
(0.226434167 0 0)
(0.222609883 0 0)
(0.222684709 0 0)
(0.226350875 0 0)
(0.226468179 0 0)
(0.221469819 0 0)
(0.217236351 0 0)
(0.214584848 0 0)
(0.2170335 0 0)
(0.224127959 0 0)
(0.223187163 0 0)
(0.216994991 0 0)
(0.201057696 0 0)
(0.188626669 0 0)
(0.22198774 0 0)
(0.250723811 0 0)
(0.239643527 0 0)
(0.2329032 0 0)
(0.23047094 0 0)
(0.222599466 0 0)
(0.216285704 0 0)
(0.215674521 0 0)
(0.220353641 0 0)
(0.22292062 0 0)
(0.221526634 0 0)
(0.220034989 0 0)
(0.218795721 0 0)
(0.21348872 0 0)
(0.205491608 0 0)
(0.201804419 0 0)
(0.20081644 0 0)
(0.19856414 0 0)
(0.196479581 0 0)
(0.200482318 0 0)
(0.202402756 0 0)
(0.196797434 0 0)
(0.194976039 0 0)
(0.19754566 0 0)
(0.196520435 0 0)
(0.190911924 0 0)
(0.186786924 0 0)
(0.184555491 0 0)
(0.184815893 0 0)
(0.187603044 0 0)
(0.186572184 0 0)
(0.180478557 0 0)
(0.175290658 0 0)
(0.173769934 0 0)
(0.175982549 0 0)
(0.17734371 0 0)
(0.173300986 0 0)
(0.167194444 0 0)
(0.164933175 0 0)
(0.16689637 0 0)
(0.165992131 0 0)
(0.160521412 0 0)
(0.155752008 0 0)
(0.157340379 0 0)
(0.160486492 0 0)
(0.157737776 0 0)
(0.151914332 0 0)
(0.147614213 0 0)
(0.150428635 0 0)
(0.153740106 0 0)
(0.150481537 0 0)
(0.144958552 0 0)
(0.140978833 0 0)
(0.143930435 0 0)
(0.147070254 0 0)
(0.143698572 0 0)
(0.138346957 0 0)
(0.13354773 0 0)
(0.131034242 0 0)
(0.133100044 0 0)
(0.136139048 0 0)
(0.135599067 0 0)
(0.131993962 0 0)
(0.127718875 0 0)
(0.125725207 0 0)
(0.126117806 0 0)
(0.126314364 0 0)
(0.123775657 0 0)
(0.121231539 0 0)
(0.11905453 0 0)
(0.116255007 0 0)
(0.113554413 0 0)
(0.111510129 0 0)
(0.11017608 0 0)
(0.109529821 0 0)
(0.108766743 0 0)
(0.107945738 0 0)
(0.108429884 0 0)
(0.107033034 0 0)
(0.103177836 0 0)
(0.0999910563 0 0)
(0.0977249371 0 0)
(0.0964907431 0 0)
(0.0941763413 0 0)
(0.0897756128 0 0)
(0.087472764 0 0)
(0.0889877626 0 0)
(0.0908947361 0 0)
(0.0887791199 0 0)
(0.0844062095 0 0)
(0.0717664375 0 0)
(0.0586415245 0 0)
(0.0719538873 0 0)
(0.0858180419 0 0)
(0.0738014379 0 0)
(0.0637172322 0 0)
(0.0610382795 0 0)
(0.0570720468 0 0)
(0.0546848696 0 0)
(0.0556920763 0 0)
(0.0557055966 0 0)
(0.0532325985 0 0)
(0.0505089669 0 0)
(0.0492525264 0 0)
(0.0476293001 0 0)
(0.0430547673 0 0)
(0.0389923615 0 0)
(0.0392070069 0 0)
(0.0407174547 0 0)
(0.0386821768 0 0)
(0.035073286 0 0)
(0.0311225578 0 0)
(0.0312079972 0 0)
(0.0327732456 0 0)
(0.0318099628 0 0)
(0.0282743503 0 0)
(0.0232393456 0 0)
(0.019375744 0 0)
(0.018127673 0 0)
(0.0166940923 0 0)
)
;

boundaryField
{
    closed
    {
        type            noSlip;
    }
    open
    {
        type            inletOutlet;
        inletValue      nonuniform List<vector> 0();
        value           nonuniform List<vector> 0();
    }
    sides
    {
        type            empty;
    }
    procBoundary0to1
    {
        type            processor;
        value           uniform (0.0146782758 0 0);
    }
}


// ************************************************************************* //
