/*--------------------------------*- C++ -*----------------------------------*\
| =========                 |                                                 |
| \\      /  F ield         | OpenFOAM: The Open Source CFD Toolbox           |
|  \\    /   O peration     | Version:  2306                                  |
|   \\  /    A nd           | Website:  www.openfoam.com                      |
|    \\/     M anipulation  |                                                 |
\*---------------------------------------------------------------------------*/
FoamFile
{
    version     2.0;
    format      ascii;
    arch        "LSB;label=32;scalar=64";
    class       surfaceScalarField;
    location    "0.00026";
    object      phi;
}
// * * * * * * * * * * * * * * * * * * * * * * * * * * * * * * * * * * * * * //

dimensions      [1 0 -1 0 0 0 0];

oriented        oriented;

internalField   nonuniform List<scalar> 
529
(
-1.49941223e-07
-1.6491686e-07
-1.68808394e-07
-1.62043949e-07
-1.45089927e-07
-1.18384423e-07
-8.26404986e-08
-3.85882371e-08
1.30991723e-08
7.16996169e-08
1.36486973e-07
2.06652988e-07
2.81313129e-07
3.59816919e-07
4.4143036e-07
5.25386885e-07
6.10983921e-07
6.97522172e-07
7.84365734e-07
8.70900814e-07
9.56577888e-07
1.04088277e-06
1.12336368e-06
1.20361232e-06
1.28127882e-06
1.35606096e-06
1.42770354e-06
1.49593749e-06
1.56067425e-06
1.62180664e-06
1.67925684e-06
1.73298656e-06
1.78299038e-06
1.82929006e-06
1.87193808e-06
1.91100295e-06
1.94658209e-06
1.97877826e-06
2.00772203e-06
2.03353955e-06
2.05638452e-06
2.07639761e-06
2.0937475e-06
2.1086282e-06
2.12116777e-06
2.13151761e-06
2.13982096e-06
2.14626734e-06
2.15103962e-06
2.15428845e-06
2.15619305e-06
2.15690423e-06
2.15659583e-06
2.15541817e-06
2.15353869e-06
2.15110584e-06
2.14827992e-06
2.14520522e-06
2.1420342e-06
2.13890304e-06
2.13595655e-06
2.13331583e-06
2.13112017e-06
2.12947009e-06
2.1284959e-06
2.12829203e-06
2.12895284e-06
2.13054811e-06
2.13317244e-06
2.13685808e-06
2.14166228e-06
2.14760052e-06
2.15471296e-06
2.16298213e-06
2.17241319e-06
2.18297161e-06
2.19462554e-06
2.2073189e-06
2.22098985e-06
2.23555679e-06
2.25093476e-06
2.26701912e-06
2.2837062e-06
2.3008735e-06
2.31840301e-06
2.33616018e-06
2.3540176e-06
2.37183461e-06
2.38947963e-06
2.40681158e-06
2.42369986e-06
2.44000806e-06
2.45561123e-06
2.47038199e-06
2.48420482e-06
2.49696487e-06
2.50855882e-06
2.51888689e-06
2.52785964e-06
2.53539379e-06
2.54141514e-06
2.54585582e-06
2.5486597e-06
2.54978548e-06
2.54918285e-06
2.54687912e-06
2.54277768e-06
2.53685647e-06
2.5290993e-06
2.51949752e-06
2.50804797e-06
2.49475401e-06
2.47962473e-06
2.46267532e-06
2.44392303e-06
2.42339876e-06
2.40113524e-06
2.37717185e-06
2.35155372e-06
2.32433312e-06
2.29556826e-06
2.26532512e-06
2.23367573e-06
2.20070049e-06
2.16648588e-06
2.13112718e-06
2.0947256e-06
2.0573912e-06
2.01923968e-06
1.98039515e-06
1.94098676e-06
1.9011512e-06
1.86102918e-06
1.82076761e-06
1.78051598e-06
1.74042832e-06
1.70065918e-06
1.66136591e-06
1.62270364e-06
1.58482873e-06
1.54789182e-06
1.51204367e-06
1.4774252e-06
1.44417667e-06
1.41242453e-06
1.38229324e-06
1.35389145e-06
1.32732247e-06
1.30268349e-06
1.28004506e-06
1.25946841e-06
1.2410092e-06
1.22470115e-06
1.21057333e-06
1.19863293e-06
1.18888171e-06
1.1813015e-06
1.17586843e-06
1.17254099e-06
1.17127231e-06
1.17200098e-06
1.17466029e-06
1.17917354e-06
1.18545799e-06
1.19342602e-06
1.20298472e-06
1.2140379e-06
1.22649065e-06
1.24023982e-06
1.25519391e-06
1.27125223e-06
1.28831567e-06
1.30629235e-06
1.32510662e-06
1.34465394e-06
1.36487314e-06
1.38567004e-06
1.40698816e-06
1.42874835e-06
1.45089808e-06
1.47337193e-06
1.49612185e-06
1.51909352e-06
1.54224317e-06
1.56552472e-06
1.58889764e-06
1.61232123e-06
1.63575673e-06
1.65916613e-06
1.68251086e-06
1.70575325e-06
1.72885347e-06
1.75177243e-06
1.77446799e-06
1.79689851e-06
1.81901901e-06
1.84078495e-06
1.8621486e-06
1.88306285e-06
1.90347802e-06
1.92334544e-06
1.94261478e-06
1.9612374e-06
1.97916412e-06
1.99634825e-06
2.01274384e-06
2.02830835e-06
2.04300121e-06
2.05678622e-06
2.06963028e-06
2.08150551e-06
2.09238817e-06
2.10226037e-06
2.11110915e-06
2.11892785e-06
2.12571528e-06
2.13147672e-06
2.13622314e-06
2.13997196e-06
2.14274622e-06
2.14457509e-06
2.14549308e-06
2.14554032e-06
2.14476175e-06
2.14320726e-06
2.14093087e-06
2.13799077e-06
2.13444848e-06
2.13036882e-06
2.12581915e-06
2.12086919e-06
2.11559036e-06
2.11005557e-06
2.1043386e-06
2.09851384e-06
2.09265574e-06
2.08683854e-06
2.08113578e-06
2.07561998e-06
2.07036217e-06
2.06543159e-06
2.06089524e-06
2.05681753e-06
2.05325983e-06
2.05028011e-06
2.0479325e-06
2.04626684e-06
2.04532827e-06
2.04515677e-06
2.04578669e-06
2.0472463e-06
2.04955729e-06
2.05273435e-06
2.05678467e-06
2.06170754e-06
2.06749386e-06
2.07412583e-06
2.08157654e-06
2.08980967e-06
2.09877925e-06
2.10842947e-06
2.11869452e-06
2.12949861e-06
2.14075598e-06
2.15237107e-06
2.16423875e-06
2.17624468e-06
2.18826575e-06
2.20017069e-06
2.21182073e-06
2.22307042e-06
2.23376849e-06
2.24375895e-06
2.2528821e-06
2.26097583e-06
2.26787686e-06
2.27342213e-06
2.27745021e-06
2.27980279e-06
2.28032622e-06
2.27887299e-06
2.2753033e-06
2.26948659e-06
2.26130302e-06
2.2506449e-06
2.23741809e-06
2.22154328e-06
2.20295719e-06
2.18161363e-06
2.15748445e-06
2.13056034e-06
2.10085148e-06
2.06838795e-06
2.03322009e-06
1.99541857e-06
1.95507429e-06
1.9122981e-06
1.86722037e-06
1.81999026e-06
1.77077492e-06
1.71975843e-06
1.66714067e-06
1.61313582e-06
1.55797111e-06
1.50188489e-06
1.4451253e-06
1.38794805e-06
1.33061482e-06
1.27339142e-06
1.21654476e-06
1.16034743e-06
1.10506051e-06
1.0509457e-06
9.98259174e-07
9.47249706e-07
8.98156661e-07
8.51208766e-07
8.06622418e-07
7.646005e-07
7.25331121e-07
6.88986616e-07
6.55722646e-07
6.25677492e-07
5.98971493e-07
5.75706658e-07
5.55966433e-07
5.3981563e-07
5.27300501e-07
5.18448957e-07
5.13270926e-07
5.11758829e-07
5.13888178e-07
5.19618272e-07
5.28892986e-07
5.41641643e-07
5.5777995e-07
5.7721099e-07
5.99826264e-07
6.25506752e-07
6.54124014e-07
6.85541283e-07
7.19614573e-07
7.56193768e-07
7.95123703e-07
8.36245214e-07
8.79396155e-07
9.24412381e-07
9.71128687e-07
1.01937969e-06
1.06900069e-06
1.1198284e-06
1.17170174e-06
1.22446244e-06
1.27795568e-06
1.33203063e-06
1.38654092e-06
1.44134507e-06
1.49630688e-06
1.55129571e-06
1.60618672e-06
1.66086114e-06
1.71520633e-06
1.76911596e-06
1.82249004e-06
1.87523492e-06
1.92726329e-06
1.97849415e-06
2.02885267e-06
2.07827011e-06
2.12668366e-06
2.17403631e-06
2.22027664e-06
2.26535862e-06
2.30924143e-06
2.35188919e-06
2.39327078e-06
2.4333596e-06
2.4721333e-06
2.50957357e-06
2.54566588e-06
2.5803993e-06
2.61376619e-06
2.64576203e-06
2.6763852e-06
2.70563674e-06
2.73352018e-06
2.7600413e-06
2.78520802e-06
2.80903016e-06
2.8315193e-06
2.85268864e-06
2.87255283e-06
2.89112789e-06
2.908431e-06
2.92448048e-06
2.93929563e-06
2.95289667e-06
2.96530462e-06
2.97654125e-06
2.98662902e-06
2.99559099e-06
3.00345078e-06
3.01023253e-06
3.01596083e-06
3.02066074e-06
3.02435769e-06
3.02707748e-06
3.02884629e-06
3.02969059e-06
3.02963719e-06
3.02871318e-06
3.02694595e-06
3.02436315e-06
3.02099271e-06
3.01686281e-06
3.01200188e-06
3.00643861e-06
3.00020194e-06
2.99332104e-06
2.98582535e-06
2.97774452e-06
2.96910845e-06
2.9599473e-06
2.95029145e-06
2.9401715e-06
2.92961831e-06
2.91866296e-06
2.90733676e-06
2.89567122e-06
2.88369809e-06
2.8714493e-06
2.858957e-06
2.8462535e-06
2.83337127e-06
2.82034295e-06
2.80720127e-06
2.79397907e-06
2.78070928e-06
2.76742481e-06
2.75415862e-06
2.74094358e-06
2.72781248e-06
2.71479797e-06
2.70193247e-06
2.68924813e-06
2.67677678e-06
2.66454982e-06
2.65259815e-06
2.64095211e-06
2.62964136e-06
2.6186948e-06
2.6081405e-06
2.59798467e-06
2.58760179e-06
2.57708304e-06
2.56654729e-06
2.55614643e-06
2.546071e-06
2.53655609e-06
2.52788693e-06
2.52040345e-06
2.51450276e-06
2.51063771e-06
2.50930932e-06
2.51104975e-06
2.51639172e-06
2.52581952e-06
2.53969635e-06
2.55816367e-06
2.58101094e-06
2.60752054e-06
2.6363034e-06
2.66515889e-06
2.69101697e-06
2.71004182e-06
2.71799407e-06
2.71093505e-06
2.68628971e-06
2.64414451e-06
2.58846179e-06
2.52773394e-06
2.47439711e-06
2.44268072e-06
2.44524219e-06
2.48929852e-06
2.57305441e-06
2.68232797e-06
2.78799771e-06
2.84969522e-06
2.82914122e-06
2.7101674e-06
2.50932228e-06
2.27110896e-06
2.07112848e-06
1.99217305e-06
2.07040454e-06
2.25082359e-06
2.46773704e-06
2.72496917e-06
2.70912021e-06
2.2475652e-06
1.55591015e-06
9.5568242e-07
8.50125662e-07
1.19312653e-06
1.71327248e-06
2.01420348e-06
2.32689857e-06
2.844143e-06
3.13685519e-06
2.90292944e-06
2.46617626e-06
2.23697893e-06
2.03499516e-06
1.951788e-06
2.07727712e-06
2.46946379e-06
2.93973789e-06
2.8778377e-06
2.31495442e-06
1.86956259e-06
1.78562353e-06
1.81422695e-06
1.9665547e-06
2.27116369e-06
2.40876717e-06
2.30368461e-06
2.29553097e-06
2.41692239e-06
)
;

boundaryField
{
    closed
    {
        type            calculated;
        value           nonuniform List<scalar> 0();
    }
    open
    {
        type            calculated;
        value           uniform 2.38437767e-06;
    }
    sides
    {
        type            empty;
        value           nonuniform List<scalar> 0();
    }
    procBoundary5to4
    {
        type            processor;
        value           uniform 1.23522322e-07;
    }
}


// ************************************************************************* //
