/*--------------------------------*- C++ -*----------------------------------*\
| =========                 |                                                 |
| \\      /  F ield         | OpenFOAM: The Open Source CFD Toolbox           |
|  \\    /   O peration     | Version:  2306                                  |
|   \\  /    A nd           | Website:  www.openfoam.com                      |
|    \\/     M anipulation  |                                                 |
\*---------------------------------------------------------------------------*/
FoamFile
{
    version     2.0;
    format      ascii;
    arch        "LSB;label=32;scalar=64";
    class       volScalarField;
    location    "0.00026";
    object      prefDh_H2O;
}
// * * * * * * * * * * * * * * * * * * * * * * * * * * * * * * * * * * * * * //

dimensions      [1 1 -3 0 0 0 0];

internalField   nonuniform List<scalar> 
530
(
-198.831773
-199.024178
-199.205452
-199.391738
-199.567157
-199.751014
-199.920296
-200.097783
-200.259992
-200.431445
-200.587095
-200.752848
-200.897951
-201.051959
-201.189992
-201.339019
-201.471752
-201.615971
-201.743682
-201.883276
-202.006235
-202.141397
-202.25986
-202.390796
-202.50501
-202.631935
-202.742139
-202.862609
-202.964699
-203.079263
-203.177754
-203.288833
-203.383856
-203.49159
-203.583276
-203.687804
-203.776282
-203.877738
-203.963141
-204.061658
-204.14412
-204.239828
-204.319487
-204.410923
-204.486269
-204.574917
-204.646523
-204.728076
-204.794819
-204.874555
-204.93932
-205.017304
-205.080156
-205.156458
-205.217455
-205.292147
-205.351344
-205.424505
-205.48195
-205.553668
-205.609402
-205.679775
-205.733835
-205.802957
-205.855379
-205.923314
-205.974138
-206.039774
-206.089875
-206.154007
-206.202728
-206.264726
-206.310292
-206.368592
-206.413625
-206.470231
-206.514721
-206.569686
-206.613636
-206.66701
-206.710431
-206.762253
-206.805164
-206.855467
-206.897885
-206.946701
-206.988644
-207.036009
-207.07749
-207.123441
-207.164476
-207.209055
-207.249656
-207.292905
-207.333086
-207.375053
-207.414826
-207.455558
-207.494937
-207.534486
-207.573483
-207.611906
-207.650529
-207.687476
-207.724302
-207.758326
-207.791908
-207.82323
-207.856492
-207.886879
-207.919799
-207.949282
-207.981843
-208.010452
-208.04307
-208.071279
-208.103748
-208.13107
-208.163159
-208.189623
-208.22133
-208.246966
-208.278289
-208.303123
-208.334065
-208.358122
-208.388685
-208.41199
-208.442178
-208.464755
-208.494574
-208.516445
-208.545901
-208.567088
-208.596189
-208.616712
-208.64547
-208.665348
-208.693774
-208.713024
-208.741133
-208.759771
-208.78758
-208.805622
-208.833144
-208.850609
-208.877859
-208.894769
-208.922909
-208.941378
-208.971269
-208.989241
-209.018629
-209.036091
-209.064951
-209.081887
-209.110197
-209.126591
-209.15433
-209.170172
-209.197317
-209.212605
-209.239131
-209.253863
-209.279753
-209.293925
-209.319168
-209.332771
-209.357362
-209.370387
-209.394306
-209.406784
-209.429692
-209.442249
-209.463835
-209.476469
-209.496764
-209.509417
-209.528492
-209.541089
-209.559026
-209.571492
-209.58837
-209.60064
-209.616533
-209.628549
-209.643523
-209.655238
-209.669354
-209.680729
-209.694042
-209.705045
-209.717605
-209.728214
-209.740063
-209.750261
-209.761439
-209.771216
-209.781759
-209.791107
-209.801047
-209.809967
-209.819334
-209.827825
-209.836648
-209.844716
-209.85302
-209.86067
-209.868481
-209.875723
-209.883064
-209.889907
-209.896801
-209.903257
-209.909724
-209.915805
-209.921868
-209.927587
-209.933264
-209.938635
-209.943946
-209.948983
-209.953946
-209.958663
-209.963297
-209.967708
-209.97203
-209.97615
-209.980177
-209.984019
-209.987767
-209.991347
-209.994831
-209.998161
-210.001397
-210.004492
-210.007494
-210.010366
-210.013148
-210.01581
-210.018385
-210.02085
-210.023232
-210.025511
-210.027711
-210.029817
-210.031847
-210.033789
-210.035661
-210.037451
-210.039174
-210.040822
-210.042407
-210.043923
-210.045379
-210.046771
-210.048108
-210.049385
-210.05061
-210.051782
-210.052904
-210.053976
-210.055003
-210.055984
-210.056922
-210.057818
-210.058675
-210.059493
-210.060275
-210.061021
-210.061733
-210.062412
-210.063061
-210.063679
-210.064268
-210.06483
-210.065366
-210.065876
-210.066363
-210.066826
-210.067267
-210.067687
-210.068086
-210.068466
-210.068828
-210.069172
-210.069499
-210.06981
-210.070105
-210.070386
-210.070653
-210.070906
-210.071147
-210.071376
-210.071593
-210.071798
-210.071994
-210.072179
-210.072355
-210.072522
-210.072681
-210.072831
-210.072973
-210.073108
-210.073235
-210.073358
-210.073471
-210.073584
-210.073682
-210.073785
-210.07378
-210.073764
-210.07375
-210.073737
-210.073726
-210.073715
-210.073706
-210.073698
-210.073691
-210.073684
-210.073678
-210.073673
-210.073669
-210.073664
-210.073661
-210.073657
-210.073654
-210.073652
-210.07365
-210.073647
-210.073646
-210.073644
-210.073643
-210.073641
-210.07364
-210.073639
-210.073638
-210.073637
-210.073637
-210.073636
-210.073636
-210.073635
-210.073635
-210.073634
-210.073634
-210.073634
-210.073633
-210.073633
-210.073633
-210.073633
-210.073633
-210.073633
-210.073632
-210.073632
-210.073632
-210.073632
-210.073632
-210.073632
-210.073632
-210.073632
-210.073632
-210.073632
-210.073632
-210.073632
-210.073632
-210.073632
-210.073632
-210.073632
-210.073632
-210.073632
-210.073632
-210.073632
-210.073632
-210.073632
-210.073632
-210.073632
-210.073632
-210.073632
-210.073632
-210.073632
-210.073632
-210.073632
-210.073632
-210.073632
-210.073632
-210.073632
-210.073632
-210.073632
-210.073632
-210.073632
-210.073632
-210.073632
-210.073632
-210.073632
-210.073632
-210.073632
-210.073632
-210.073632
-210.073632
-210.073632
-210.073632
-210.073632
-210.073632
-210.073632
-210.073632
-210.073632
-210.073632
-210.073632
-210.073632
-210.073632
-210.073632
-210.073632
-210.073632
-210.073632
-210.073632
-210.073632
-210.073632
-210.073632
-210.073632
-210.073632
-210.073632
-210.073632
-210.073632
-210.073632
-210.073632
-210.073632
-210.073632
-210.073632
-210.073632
-210.073632
-210.073632
-210.073632
-210.073632
-210.073632
-210.073632
-210.073632
-210.073632
-210.073632
-210.073632
-210.073632
-210.073632
-210.073632
-210.073632
-210.073632
-210.073632
-210.073632
-210.073632
-210.073632
-210.073632
-210.073632
-210.073632
-210.073632
-210.073632
-210.073632
-210.073632
-210.073632
-210.073632
-210.073632
-210.073632
-210.073632
-210.073632
-210.073632
-210.073632
-210.073632
-210.073632
-210.073632
-210.073632
-210.073632
-210.073632
-210.073632
-210.073632
-210.073632
-210.073632
-210.073632
-210.073632
-210.073632
-210.073632
-210.073632
-210.073632
-210.073632
-210.073632
-210.073632
-210.073632
-210.073632
-210.073632
-210.073632
-210.073632
-210.073632
-210.073632
-210.073632
-210.073632
-210.073632
-210.073632
-210.073632
-210.073632
-210.073632
-210.073632
-210.073632
-210.073632
-210.073632
-210.073632
-210.073632
-210.073632
-210.073632
-210.073632
-210.073632
-210.073632
-210.073632
-210.073632
-210.073632
-210.073632
-210.073632
-210.073632
-210.073632
-210.073632
-210.073632
-210.073632
-210.073632
-210.073632
-210.073632
-210.073632
-210.073632
-210.073632
-210.073632
-210.073632
-210.073632
-210.073632
-210.073632
-210.073632
-210.073632
)
;

boundaryField
{
    closed
    {
        type            calculated;
        value           nonuniform List<scalar> 0();
    }
    open
    {
        type            calculated;
        value           uniform -210.073632;
    }
    sides
    {
        type            empty;
    }
    procBoundary5to4
    {
        type            processor;
        value           uniform -198.642235;
    }
}


// ************************************************************************* //
