/*--------------------------------*- C++ -*----------------------------------*\
| =========                 |                                                 |
| \\      /  F ield         | OpenFOAM: The Open Source CFD Toolbox           |
|  \\    /   O peration     | Version:  2306                                  |
|   \\  /    A nd           | Website:  www.openfoam.com                      |
|    \\/     M anipulation  |                                                 |
\*---------------------------------------------------------------------------*/
FoamFile
{
    version     2.0;
    format      ascii;
    arch        "LSB;label=32;scalar=64";
    class       volScalarField;
    location    "0.00084";
    object      H;
}
// * * * * * * * * * * * * * * * * * * * * * * * * * * * * * * * * * * * * * //

dimensions      [0 0 0 0 0 0 0];

internalField   nonuniform List<scalar> 
531
(
1.00585234e-09
3.86492004e-08
5.33980474e-08
4.52948924e-08
1.1429851e-09
1.05598444e-09
4.24647363e-08
4.24298245e-08
1.18828101e-09
1.07498033e-09
4.12564687e-08
3.94976586e-08
1.24684177e-09
1.12994021e-09
3.79991515e-08
4.80526551e-08
4.06427134e-08
1.2566792e-09
1.17996906e-09
3.73457074e-08
3.66412522e-08
1.32522962e-09
1.19651438e-09
3.71216998e-08
4.72447254e-08
4.00534765e-08
1.291246e-09
1.2149352e-09
3.70157787e-08
3.59562324e-08
1.38440857e-09
1.2349265e-09
3.41775494e-08
4.42182459e-08
3.62086288e-08
1.32374388e-09
1.25315181e-09
3.36581195e-08
4.32899886e-08
4.49385256e-08
3.96100422e-08
1.2560712e-09
1.34107649e-09
1.11542359e-09
1.35313325e-09
9.56704039e-10
4.05491779e-08
4.73274646e-08
4.25265712e-08
4.79368222e-08
3.78244784e-08
1.33060155e-09
1.40677792e-09
9.83945892e-10
3.54352891e-08
4.53846149e-08
3.39621374e-08
1.33093949e-09
1.09038026e-09
3.50808684e-08
4.46047077e-08
3.36390182e-08
1.32359836e-09
1.06765589e-09
3.68027623e-08
4.44209675e-08
4.47933149e-08
3.56373917e-08
1.25747286e-09
1.3274842e-09
1.09813656e-09
1.30672222e-09
7.87467874e-10
4.25956211e-08
4.59605992e-08
4.43312035e-08
3.46255177e-08
1.33622892e-09
9.41532904e-10
3.7746563e-08
4.51895357e-08
3.16978811e-08
1.31017463e-09
1.01422666e-09
3.5838114e-08
4.37214495e-08
3.0763423e-08
1.33546967e-09
1.02348113e-09
3.5089447e-08
4.27900652e-08
3.03714001e-08
1.33424528e-09
1.04436846e-09
3.44323517e-08
4.31874585e-08
4.2569421e-08
3.50314696e-08
1.27239062e-09
6.67626681e-10
4.1127217e-08
3.66712336e-08
1.29649622e-09
6.76919967e-10
4.0988175e-08
3.46238746e-08
1.29817248e-09
9.06156956e-10
4.32974391e-08
4.82606484e-08
3.42730722e-08
1.17726859e-09
7.32160474e-10
4.14345111e-08
3.55756368e-08
1.17002134e-09
1.29295334e-09
7.24887366e-10
4.50527341e-08
5.17460102e-08
3.28366965e-08
1.16114803e-09
1.20235627e-09
1.5144885e-08
4.72748915e-08
4.91734611e-08
3.5104602e-08
1.1014585e-09
4.56090926e-10
4.62268878e-08
4.04506438e-08
1.15578351e-09
1.14957366e-09
4.50065463e-08
3.84185547e-08
1.19564906e-09
4.56075881e-10
4.35182862e-08
3.755399e-08
1.24976679e-09
6.34045195e-10
4.1189931e-08
3.40181485e-08
1.29092421e-09
9.59481601e-10
4.24481596e-08
4.74761276e-08
3.22802443e-08
1.21689657e-09
7.93508747e-10
3.95449993e-08
3.33693364e-08
1.30791069e-09
1.02888858e-09
4.10899578e-08
4.60541384e-08
2.92523702e-08
1.21153345e-09
1.05265158e-09
4.12651871e-08
4.71116592e-08
3.18725613e-08
1.17761702e-09
8.2483503e-10
3.87139194e-08
3.31565475e-08
1.27356659e-09
1.16468674e-09
3.7491386e-08
4.43675253e-08
2.89194139e-08
1.206432e-09
1.15184993e-09
3.56382051e-08
4.37124537e-08
2.87449508e-08
1.18928261e-09
1.17485222e-09
3.19662516e-08
4.45582388e-08
4.45629029e-08
3.35427222e-08
9.00047749e-10
1.34006259e-09
1.13325443e-09
3.85581798e-08
3.60187722e-08
1.09406837e-09
1.21016605e-09
3.35845514e-08
4.22812662e-08
4.14882584e-08
3.03723096e-08
1.02643827e-09
1.4101059e-09
1.22985868e-09
3.16622169e-08
4.20534124e-08
3.94229007e-08
4.34671912e-08
3.62361363e-08
8.98681759e-10
8.78887015e-10
4.17023267e-08
4.36971718e-08
6.32890579e-10
8.27770273e-10
4.16031477e-08
4.27002191e-08
7.22552387e-10
9.21372035e-10
4.00376106e-08
4.15237911e-08
7.58677886e-10
9.81190616e-10
3.98205071e-08
4.16358817e-08
6.09188967e-10
1.23442544e-09
9.22211292e-10
4.04195136e-08
5.00696107e-08
3.46280815e-08
1.01623913e-09
1.18751375e-09
3.42895914e-08
4.54581789e-08
3.35127813e-08
1.07821395e-09
1.1931411e-09
3.48288017e-08
4.69988559e-08
3.72614976e-08
9.73786525e-10
1.13626897e-09
3.8374486e-08
4.06722782e-08
7.98088652e-10
1.15162411e-09
3.70350175e-08
4.61771008e-08
3.13817336e-08
9.56336635e-10
1.15266246e-09
3.87608697e-08
4.40958444e-08
5.23651779e-10
1.09982192e-09
3.82663762e-08
4.16290364e-08
5.94843207e-10
1.14635372e-09
3.28901704e-08
4.62082343e-08
3.80033783e-08
8.83452453e-10
1.23846708e-09
3.42728784e-08
3.94201003e-08
5.8905404e-10
1.20336732e-09
3.12623251e-08
4.4478409e-08
3.59187915e-08
9.49634409e-10
1.27819549e-09
2.74071315e-08
4.34917018e-08
3.94642508e-08
9.32005893e-10
1.27536422e-09
2.959113e-08
4.24511966e-08
4.44823391e-08
4.07829042e-08
7.85304267e-10
1.30477534e-09
1.07203261e-09
1.35293843e-09
1.29358033e-09
3.19366531e-08
4.18182912e-08
3.91385826e-08
3.93239675e-08
3.14685309e-08
2.5694273e-08
3.241053e-08
3.17632851e-08
1.03590381e-09
1.18600568e-09
3.17671798e-08
4.65805175e-08
3.98931523e-08
1.07138615e-09
1.03153599e-09
3.76733839e-08
3.90209982e-08
8.72739186e-10
7.94910885e-10
3.79458725e-08
3.62500441e-08
9.11324006e-10
9.2696541e-10
3.3186599e-08
4.67968901e-08
3.79578157e-08
1.05504276e-09
6.68401715e-10
3.57031432e-08
3.39010598e-08
9.9816409e-10
9.04046366e-10
3.26618076e-08
4.48389717e-08
3.40793455e-08
1.08209363e-09
9.28335792e-10
3.09834906e-08
4.41428191e-08
3.38766255e-08
1.09516555e-09
9.50662694e-10
3.07358548e-08
4.43032043e-08
3.42594835e-08
1.07545733e-09
9.78246291e-10
3.03332363e-08
4.44629365e-08
3.49990385e-08
1.0201631e-09
9.90270209e-10
2.90387656e-08
4.42228625e-08
3.58547905e-08
9.64502936e-10
1.00802686e-09
2.813201e-08
4.4115841e-08
3.66743405e-08
9.3227753e-10
1.0174784e-09
2.79398551e-08
4.44235619e-08
3.74272529e-08
9.24828076e-10
1.00429563e-09
2.90631246e-08
4.57190421e-08
3.98742835e-08
8.77219311e-10
1.0154405e-09
3.3285612e-08
3.64693693e-08
4.86498696e-10
1.01785467e-09
2.86173677e-08
4.54413325e-08
4.03877737e-08
8.60987831e-10
1.06855608e-09
2.57613088e-08
4.41142743e-08
4.05830534e-08
8.73262525e-10
1.08819677e-09
2.56453927e-08
4.516114e-08
4.08689656e-08
5.61839032e-10
1.35916051e-09
1.07723261e-09
2.76120988e-08
4.63300195e-08
4.40745393e-08
9.10467627e-10
1.11804063e-09
2.82292298e-08
4.94829864e-08
4.6098529e-08
9.81228476e-10
1.14061918e-09
3.07144984e-08
5.42757601e-08
4.68343125e-08
6.79620351e-10
1.49136718e-09
1.04151562e-09
1.7326143e-09
1.56176611e-09
3.28285167e-08
5.57459482e-08
4.67899111e-08
4.31671628e-09
5.33533251e-09
3.93825238e-08
3.72944702e-08
7.05217662e-09
7.51283583e-09
8.17812355e-09
8.88461529e-09
9.61350158e-09
1.04579199e-08
1.12805384e-08
1.21245788e-08
1.28363511e-08
1.35270444e-08
1.39587452e-08
1.40447011e-08
1.37639052e-08
1.12881372e-08
8.79694534e-09
9.2963696e-09
9.68116452e-09
1.03832689e-08
1.1040896e-08
1.19177927e-08
1.29293245e-08
1.42596258e-08
1.5191333e-08
1.29344762e-08
1.10030128e-08
1.07879277e-08
1.13940028e-08
1.25942795e-08
1.46607717e-08
1.54204804e-08
1.55793973e-08
1.52152308e-08
1.36016633e-08
2.08171232e-09
1.59522234e-09
1.61566099e-09
1.66647652e-09
1.65834495e-09
1.62150054e-09
1.54405034e-09
1.49080281e-09
1.23103128e-09
7.3809864e-10
4.3001649e-10
2.49364443e-09
8.23955614e-09
8.60706028e-09
1.1829043e-08
4.02181636e-08
9.00674059e-08
1.2804804e-07
3.56111476e-07
2.15673414e-06
4.48539006e-06
9.48183125e-06
1.35103934e-05
2.87324763e-05
4.05424486e-05
5.20882641e-05
6.22741292e-05
7.35948575e-05
8.88350251e-05
0.00010280836
0.000117402266
0.000131267172
0.000145223851
0.000156552665
0.000168231739
0.000177638416
0.000186582297
0.000193467264
0.000199761259
0.000204332713
0.000207739829
0.000210847889
0.000213220537
0.000215062381
0.00021533757
0.000215324291
0.000213712393
0.000212004196
0.000209236503
0.000206380943
0.000202833767
0.000199397462
0.000195288281
0.000191270893
0.000186592425
0.000181011451
0.0001746378
0.000169801731
0.000165405926
0.000161690521
0.000157368219
0.000153719444
0.000149571183
0.000146115795
0.000142009848
0.000138634659
0.000134684974
0.000131502535
0.000127702545
0.000124575413
0.000120506739
0.000117059712
0.000113178827
0.000110161593
0.00010693821
0.000104365957
0.000101295579
9.8859988e-05
9.59208616e-05
9.35710808e-05
9.06999952e-05
8.83997538e-05
8.57630894e-05
8.38506326e-05
8.15136594e-05
7.95623569e-05
7.71198163e-05
7.51419876e-05
7.28663524e-05
7.1029262e-05
6.89158847e-05
6.71984961e-05
6.52298967e-05
6.36216266e-05
6.17850939e-05
6.03267695e-05
5.88371554e-05
5.75953553e-05
5.61710786e-05
5.49805289e-05
5.36214434e-05
)
;

boundaryField
{
    closed
    {
        type            calculated;
        value           nonuniform List<scalar> 0();
    }
    open
    {
        type            calculated;
        value           nonuniform List<scalar> 0();
    }
    sides
    {
        type            empty;
    }
    procBoundary4to3
    {
        type            processor;
        value           uniform 1.17458372e-09;
    }
    procBoundary4to5
    {
        type            processor;
        value           uniform 5.24840414e-05;
    }
}


// ************************************************************************* //
