/*--------------------------------*- C++ -*----------------------------------*\
| =========                 |                                                 |
| \\      /  F ield         | OpenFOAM: The Open Source CFD Toolbox           |
|  \\    /   O peration     | Version:  2306                                  |
|   \\  /    A nd           | Website:  www.openfoam.com                      |
|    \\/     M anipulation  |                                                 |
\*---------------------------------------------------------------------------*/
FoamFile
{
    version     2.0;
    format      ascii;
    arch        "LSB;label=32;scalar=64";
    class       volScalarField;
    location    "0.00084";
    object      rho;
}
// * * * * * * * * * * * * * * * * * * * * * * * * * * * * * * * * * * * * * //

dimensions      [1 -3 0 0 0 0 0];

internalField   nonuniform List<scalar> 
531
(
0.905898348
0.946465068
0.972366687
0.958137773
0.904855833
0.905015303
0.952752626
0.952961703
0.903668439
0.905101556
0.950742712
0.947695062
0.903348187
0.905218382
0.945260708
0.962329236
0.94992389
0.904089317
0.904236345
0.944205366
0.943048621
0.902962146
0.904703137
0.944300179
0.961308604
0.949501865
0.904107425
0.904364862
0.944614572
0.942835457
0.903466422
0.905550619
0.942908053
0.957208091
0.944508627
0.905729764
0.905970609
0.942414558
0.956696265
0.959551329
0.951042225
0.906188463
0.906393042
0.907409673
0.906662524
0.909173803
0.952980107
0.964252053
0.956649205
0.965579199
0.949194932
0.906873174
0.907010527
0.909050779
0.944746533
0.961062029
0.94498102
0.906819504
0.908281987
0.944542336
0.959606575
0.944692016
0.906756335
0.908016599
0.945765105
0.958966168
0.959440031
0.944772162
0.906077203
0.906125001
0.907154827
0.906620205
0.909244105
0.95500616
0.960620754
0.958283984
0.942567792
0.905209563
0.908325066
0.94685046
0.959072955
0.942538372
0.905667498
0.907316248
0.943336305
0.95640485
0.941786643
0.905170061
0.907212714
0.942513572
0.954476309
0.941513401
0.905328537
0.906834952
0.941712038
0.954988936
0.954108436
0.941679803
0.905001568
0.907856903
0.951650749
0.943226848
0.9043628
0.907864477
0.951450269
0.940030195
0.904632627
0.907349217
0.955036251
0.963395866
0.941236577
0.906235765
0.906590793
0.951527
0.941678656
0.906286621
0.906045543
0.907391533
0.957976649
0.969747774
0.941558584
0.906791778
0.906059015
0.930847054
0.961796874
0.965044126
0.940706186
0.906614689
0.908714327
0.959912098
0.949263252
0.905497986
0.910650099
0.957879394
0.945510285
0.905254565
0.909086637
0.955272117
0.943796147
0.904549127
0.907195396
0.951321678
0.93889447
0.904250136
0.905952978
0.952962656
0.961258757
0.939902565
0.904454051
0.904418211
0.947765342
0.938563219
0.903080165
0.904142709
0.949754383
0.957705738
0.938392008
0.903526399
0.902910283
0.949214019
0.958870678
0.938035736
0.902791257
0.902174615
0.944635806
0.936764032
0.901401316
0.901335612
0.942146658
0.952969279
0.936756975
0.90179329
0.900753551
0.938695021
0.951328057
0.936312253
0.901898358
0.900446398
0.936586251
0.952533313
0.95234288
0.937165677
0.90295769
0.899925399
0.905433277
0.942535738
0.937088896
0.901088827
0.89972532
0.936757661
0.947946426
0.946657689
0.935811663
0.902928578
0.900302051
0.89997376
0.936618175
0.94749574
0.943743892
0.950282768
0.938237258
0.903877423
0.901602163
0.948562884
0.95134375
0.905913899
0.903287884
0.948973642
0.950255824
0.906407753
0.903687369
0.947001972
0.948901933
0.906892589
0.903631736
0.946658321
0.949662134
0.907769772
0.904726802
0.904465082
0.948232069
0.964341624
0.938720034
0.904711286
0.902309503
0.938331658
0.955050961
0.937416884
0.902541925
0.901085795
0.937145328
0.956227339
0.939495518
0.90171802
0.898741007
0.940883485
0.944323139
0.901149651
0.899236076
0.938378128
0.953110445
0.934395271
0.901135936
0.897746901
0.940633358
0.949611674
0.90274989
0.898470926
0.940028456
0.945551636
0.902718505
0.899866586
0.935588506
0.953754595
0.940133345
0.902114407
0.898490535
0.936100936
0.943200699
0.903246005
0.900128384
0.93650877
0.952087597
0.938142334
0.902685404
0.900743413
0.935918754
0.951272878
0.944865776
0.903536404
0.901158788
0.937351043
0.950947019
0.954211428
0.94830477
0.905576566
0.903391778
0.904781821
0.903096717
0.903951431
0.941563798
0.95214628
0.94832516
0.948520603
0.94195628
0.939916444
0.942167166
0.942879468
0.905861391
0.906778311
0.943207519
0.962564389
0.951637824
0.907510318
0.908280342
0.947321424
0.95076392
0.90827062
0.910767646
0.947976685
0.946374735
0.908163753
0.910790997
0.943286272
0.963468988
0.948880813
0.907475448
0.910971391
0.943540539
0.943668399
0.906117602
0.90909475
0.941588133
0.957792461
0.942397845
0.904465429
0.90686862
0.939551039
0.954304475
0.939936315
0.901843497
0.90404207
0.936948582
0.951886236
0.937259532
0.899473793
0.901244387
0.934631159
0.950079695
0.935459445
0.898595408
0.900145724
0.933775362
0.949582734
0.936534823
0.899961234
0.90134275
0.935373046
0.951638355
0.94017493
0.902545009
0.903512354
0.937454197
0.954098929
0.942886633
0.903507354
0.904070506
0.937936413
0.956001556
0.946064998
0.902726726
0.901485889
0.935599767
0.938303519
0.903552276
0.900935289
0.934366204
0.952346603
0.944020201
0.900512214
0.900321472
0.933777615
0.950894482
0.94549391
0.901417213
0.901594425
0.935783572
0.954240246
0.948009347
0.904905226
0.900821056
0.903641585
0.938238455
0.957233434
0.953794046
0.901210835
0.900615316
0.938679287
0.963047444
0.957455931
0.898686148
0.898677043
0.942149539
0.97171819
0.960284546
0.899017948
0.894089733
0.896783729
0.891926226
0.892743567
0.949961753
0.976502743
0.965442382
0.900988821
0.90193658
0.962866513
0.962529645
0.904410004
0.903087447
0.90435043
0.90411019
0.904499795
0.904710349
0.905109999
0.905230471
0.905248254
0.904821014
0.903968861
0.901639295
0.898835839
0.888508849
0.882920897
0.893767837
0.90003674
0.908625415
0.914354783
0.919710993
0.92387338
0.928289201
0.934809234
0.933559918
0.94238909
0.946987759
0.951911807
0.953724267
0.954638651
0.961337831
0.973555747
0.982642904
0.990998729
0.910806892
0.924997618
0.937769517
0.961454167
0.977799918
0.998845448
1.01983955
1.03622544
1.05960525
1.0015747
0.918438611
0.893804458
0.867588231
0.835441333
0.824170311
0.711423525
0.677204951
0.655396022
0.612161307
0.525498066
0.484681452
0.439396464
0.419084834
0.374723833
0.354261507
0.338385192
0.326977776
0.315579414
0.303901874
0.294075272
0.285106009
0.277422975
0.270175432
0.264328374
0.258511486
0.253809019
0.249105551
0.245317657
0.241473318
0.238569504
0.235951708
0.23372295
0.231396657
0.229315392
0.227235468
0.225281703
0.22350065
0.221772503
0.22009892
0.218625708
0.217118834
0.215791458
0.214350086
0.213113525
0.211775158
0.210319733
0.20870843
0.207611646
0.206750409
0.20604589
0.205243122
0.204568857
0.203834725
0.203224294
0.202546287
0.201963557
0.201338774
0.200807539
0.200225755
0.199707401
0.199047737
0.198423353
0.197789581
0.197255436
0.196756362
0.196313927
0.195852214
0.195437669
0.194991511
0.19458738
0.194156945
0.193764936
0.193373035
0.193045768
0.192701711
0.192369042
0.191994159
0.19165628
0.191297289
0.19097861
0.190644866
0.190352623
0.190043667
0.18977556
0.189489194
0.189250736
0.189019458
0.188819347
0.188600457
0.188412605
0.188207082
)
;

boundaryField
{
    closed
    {
        type            calculated;
        value           nonuniform List<scalar> 0();
    }
    open
    {
        type            calculated;
        value           nonuniform List<scalar> 0();
    }
    sides
    {
        type            empty;
    }
    procBoundary4to3
    {
        type            processor;
        value           uniform 0.905200295;
    }
    procBoundary4to5
    {
        type            processor;
        value           uniform 0.188033646;
    }
}


// ************************************************************************* //
