/*--------------------------------*- C++ -*----------------------------------*\
| =========                 |                                                 |
| \\      /  F ield         | OpenFOAM: The Open Source CFD Toolbox           |
|  \\    /   O peration     | Version:  2306                                  |
|   \\  /    A nd           | Website:  www.openfoam.com                      |
|    \\/     M anipulation  |                                                 |
\*---------------------------------------------------------------------------*/
FoamFile
{
    version     2.0;
    format      ascii;
    arch        "LSB;label=32;scalar=64";
    class       volVectorField;
    location    "0.00084";
    object      U;
}
// * * * * * * * * * * * * * * * * * * * * * * * * * * * * * * * * * * * * * //

dimensions      [0 1 -1 0 0 0 0];

internalField   nonuniform List<vector> 
531
(
(-0.152335257 0 0)
(-0.148096313 0 0)
(-0.14619511 0 0)
(-0.128476895 0 0)
(-0.110064966 0 0)
(-0.0905254069 0 0)
(-0.0790723916 0 0)
(-0.0768331289 0 0)
(-0.0613435131 0 0)
(-0.0353576555 0 0)
(-0.0233705807 0 0)
(-0.0241801654 0 0)
(-0.0128142848 0 0)
(0.010070068 0 0)
(0.015819233 0 0)
(0.0201166854 0 0)
(0.0268363776 0 0)
(0.0248515376 0 0)
(0.03329995 0 0)
(0.0332777704 0 0)
(0.0102750823 0 0)
(-0.00657573823 0 0)
(-0.0132978251 0 0)
(-0.0357184974 0 0)
(-0.0633950448 0 0)
(-0.0867177748 0 0)
(-0.126880818 0 0)
(-0.165899295 0 0)
(-0.203537942 0 0)
(-0.252978868 0 0)
(-0.311281935 0 0)
(-0.369662582 0 0)
(-0.419463122 0 0)
(-0.471076162 0 0)
(-0.51250535 0 0)
(-0.58070275 0 0)
(-0.658320058 0 0)
(-0.706315685 0 0)
(-0.762265204 0 0)
(-0.814627859 0 0)
(-0.828368747 0 0)
(-0.885017741 0 0)
(-0.948102861 0 0)
(-0.990022838 0 0)
(-1.03199699 0 0)
(-1.07828725 0 0)
(-1.10517453 0 0)
(-1.13911231 0 0)
(-1.16959629 0 0)
(-1.17891192 0 0)
(-1.14671988 0 0)
(-1.15876737 0 0)
(-1.18318473 0 0)
(-1.18052322 0 0)
(-1.14109999 0 0)
(-1.1049862 0 0)
(-1.09237943 0 0)
(-1.11787115 0 0)
(-1.11921957 0 0)
(-1.07220019 0 0)
(-1.03065089 0 0)
(-1.00782434 0 0)
(-1.01978375 0 0)
(-1.01220849 0 0)
(-0.989028758 0 0)
(-0.976202825 0 0)
(-0.942591853 0 0)
(-0.899712751 0 0)
(-0.878188308 0 0)
(-0.850597386 0 0)
(-0.821606798 0 0)
(-0.797752302 0 0)
(-0.763551127 0 0)
(-0.736896539 0 0)
(-0.7233282 0 0)
(-0.696518461 0 0)
(-0.665306696 0 0)
(-0.650638817 0 0)
(-0.619870052 0 0)
(-0.591270781 0 0)
(-0.574222902 0 0)
(-0.551136449 0 0)
(-0.545355692 0 0)
(-0.526105502 0 0)
(-0.505769982 0 0)
(-0.498701202 0 0)
(-0.482310072 0 0)
(-0.477567221 0 0)
(-0.458432415 0 0)
(-0.428084026 0 0)
(-0.412909936 0 0)
(-0.399956572 0 0)
(-0.394284726 0 0)
(-0.375737059 0 0)
(-0.350401475 0 0)
(-0.339837043 0 0)
(-0.328777977 0 0)
(-0.315827756 0 0)
(-0.307824563 0 0)
(-0.27741271 0 0)
(-0.253689719 0 0)
(-0.256453925 0 0)
(-0.25922605 0 0)
(-0.230733586 0 0)
(-0.20807139 0 0)
(-0.203470779 0 0)
(-0.196489131 0 0)
(-0.178229036 0 0)
(-0.167043486 0 0)
(-0.168989389 0 0)
(-0.164684997 0 0)
(-0.165396279 0 0)
(-0.142478443 0 0)
(-0.126984243 0 0)
(-0.139028808 0 0)
(-0.147321522 0 0)
(-0.155752643 0 0)
(-0.13500939 0 0)
(-0.123494297 0 0)
(-0.129618739 0 0)
(-0.128598892 0 0)
(-0.124297374 0 0)
(-0.11859183 0 0)
(-0.111262384 0 0)
(-0.104997773 0 0)
(-0.0928441739 0 0)
(-0.0912643854 0 0)
(-0.113547904 0 0)
(-0.0682312609 0 0)
(-0.0265325083 0 0)
(-0.0599797416 0 0)
(-0.0880791794 0 0)
(-0.0320381615 0 0)
(0.0182644988 0 0)
(-0.010055464 0 0)
(-0.0378872598 0 0)
(0.0173005949 0 0)
(0.0647275384 0 0)
(0.0334501715 0 0)
(0.0147550086 0 0)
(0.0691490802 0 0)
(0.102241534 0 0)
(0.113356365 0 0)
(0.140953005 0 0)
(0.173362404 0 0)
(0.208940645 0 0)
(0.233165825 0 0)
(0.267258692 0 0)
(0.294589541 0 0)
(0.353844226 0 0)
(0.401516882 0 0)
(0.429590187 0 0)
(0.474970597 0 0)
(0.525537042 0 0)
(0.569185539 0 0)
(0.607387573 0 0)
(0.650508165 0 0)
(0.700167377 0 0)
(0.745510156 0 0)
(0.788970807 0 0)
(0.836327443 0 0)
(0.882400543 0 0)
(0.928371239 0 0)
(0.993702549 0 0)
(1.03132144 0 0)
(1.05746686 0 0)
(1.10687829 0 0)
(1.14635902 0 0)
(1.16625298 0 0)
(1.18467677 0 0)
(1.20819135 0 0)
(1.2452933 0 0)
(1.26103571 0 0)
(1.2789921 0 0)
(1.31082324 0 0)
(1.32478781 0 0)
(1.35810989 0 0)
(1.36755137 0 0)
(1.3363219 0 0)
(1.32567295 0 0)
(1.34065411 0 0)
(1.36400222 0 0)
(1.40118194 0 0)
(1.39063797 0 0)
(1.45378801 0 0)
(1.49444966 0 0)
(1.45144048 0 0)
(1.43022953 0 0)
(1.41971719 0 0)
(1.3709807 0 0)
(1.35303638 0 0)
(1.34954619 0 0)
(1.34234086 0 0)
(1.36175448 0 0)
(1.34470193 0 0)
(1.3068732 0 0)
(1.22901393 0 0)
(1.16849128 0 0)
(1.12006626 0 0)
(1.05761286 0 0)
(0.976099572 0 0)
(0.891240478 0 0)
(0.825532124 0 0)
(0.768349464 0 0)
(0.704299053 0 0)
(0.62006582 0 0)
(0.546803662 0 0)
(0.492750437 0 0)
(0.429351936 0 0)
(0.350747259 0 0)
(0.288667852 0 0)
(0.243614772 0 0)
(0.186185456 0 0)
(0.125982932 0 0)
(0.0924012212 0 0)
(0.0637761938 0 0)
(0.0174391509 0 0)
(0.0103744428 0 0)
(0.043251827 0 0)
(0.0377312303 0 0)
(0.0551146869 0 0)
(0.0858677183 0 0)
(0.116564773 0 0)
(0.175051125 0 0)
(0.240238197 0 0)
(0.298921705 0 0)
(0.36662801 0 0)
(0.442096924 0 0)
(0.541742427 0 0)
(0.632449967 0 0)
(0.695733682 0 0)
(0.767441248 0 0)
(0.825973856 0 0)
(0.902436109 0 0)
(0.98910946 0 0)
(1.04437826 0 0)
(1.09718514 0 0)
(1.17041668 0 0)
(1.21083967 0 0)
(1.23277893 0 0)
(1.27300569 0 0)
(1.28990658 0 0)
(1.32035844 0 0)
(1.3212247 0 0)
(1.29190051 0 0)
(1.26617541 0 0)
(1.26140214 0 0)
(1.22395776 0 0)
(1.15702084 0 0)
(1.10911132 0 0)
(1.08333278 0 0)
(1.03338805 0 0)
(0.948486103 0 0)
(0.888198904 0 0)
(0.818788577 0 0)
(0.762830464 0 0)
(0.718084684 0 0)
(0.652681938 0 0)
(0.587807924 0 0)
(0.553698069 0 0)
(0.514569234 0 0)
(0.451679474 0 0)
(0.398831408 0 0)
(0.335761861 0 0)
(0.285693677 0 0)
(0.238343451 0 0)
(0.182460858 0 0)
(0.126872123 0 0)
(0.068307992 0 0)
(0.0102821057 0 0)
(-0.0420871124 0 0)
(-0.0931768859 0 0)
(-0.147524027 0 0)
(-0.207018837 0 0)
(-0.261102126 0 0)
(-0.322708461 0 0)
(-0.367721571 0 0)
(-0.43921067 0 0)
(-0.508452523 0 0)
(-0.60741617 0 0)
(-0.675052945 0 0)
(-0.746303112 0 0)
(-0.832334381 0 0)
(-0.91427462 0 0)
(-1.00967981 0 0)
(-1.10995032 0 0)
(-1.20506687 0 0)
(-1.2948812 0 0)
(-1.4260463 0 0)
(-1.54243975 0 0)
(-1.60021953 0 0)
(-1.63701576 0 0)
(-1.639207 0 0)
(-1.70736996 0 0)
(-1.83074628 0 0)
(-1.90853539 0 0)
(-1.91479443 0 0)
(-1.96785014 0 0)
(-2.05999984 0 0)
(-2.08586498 0 0)
(-2.03993331 0 0)
(-2.04431219 0 0)
(-2.05867624 0 0)
(-2.00048367 0 0)
(-1.92426708 0 0)
(-1.80995093 0 0)
(-1.74640516 0 0)
(-1.71766464 0 0)
(-1.63214261 0 0)
(-1.55096472 0 0)
(-1.49802823 0 0)
(-1.40524964 0 0)
(-1.26981922 0 0)
(-1.13764537 0 0)
(-1.00961716 0 0)
(-0.881829945 0 0)
(-0.715923826 0 0)
(-0.532943927 0 0)
(-0.362413968 0 0)
(-0.174511516 0 0)
(0.041335013 0 0)
(0.271646442 0 0)
(0.474230059 0 0)
(0.649523667 0 0)
(0.844692975 0 0)
(1.05912862 0 0)
(1.22976999 0 0)
(1.32649729 0 0)
(1.38319744 0 0)
(1.46071016 0 0)
(1.55306005 0 0)
(1.56295461 0 0)
(1.48315602 0 0)
(1.37068093 0 0)
(1.22642161 0 0)
(1.08932191 0 0)
(0.946532437 0 0)
(0.762046136 0 0)
(0.573430218 0 0)
(0.392602948 0 0)
(0.234724247 0 0)
(0.10784387 0 0)
(-0.00651653029 0 0)
(-0.108306524 0 0)
(-0.168544308 0 0)
(-0.175173417 0 0)
(-0.128454696 0 0)
(-0.0542911039 0 0)
(0.0395715854 0 0)
(0.148555747 0 0)
(0.305255506 0 0)
(0.490566311 0 0)
(0.651623455 0 0)
(0.760779796 0 0)
(0.923190671 0 0)
(1.06809961 0 0)
(1.11573109 0 0)
(1.14477994 0 0)
(1.12361923 0 0)
(1.11273981 0 0)
(1.07689687 0 0)
(0.973391766 0 0)
(0.860259451 0 0)
(0.721507051 0 0)
(0.603554026 0 0)
(0.499886327 0 0)
(0.376965995 0 0)
(0.263745316 0 0)
(0.165505806 0 0)
(0.109866462 0 0)
(0.0887690588 0 0)
(0.044115383 0 0)
(0.0285403834 0 0)
(0.0202436639 0 0)
(0.0138796082 0 0)
(0.0383383475 0 0)
(0.0778870507 0 0)
(0.0927756909 0 0)
(0.107415454 0 0)
(0.10676127 0 0)
(0.129428528 0 0)
(0.156567222 0 0)
(0.150349002 0 0)
(0.139632234 0 0)
(0.113704929 0 0)
(0.113753787 0 0)
(0.124921888 0 0)
(0.108476083 0 0)
(0.0985997248 0 0)
(0.0788964195 0 0)
(0.0691436161 0 0)
(0.0538931545 0 0)
(0.0423291235 0 0)
(0.0338996115 0 0)
(0.0611892767 0 0)
(0.0741702014 0 0)
(0.0692279087 0 0)
(0.0849805314 0 0)
(0.128373564 0 0)
(0.154860206 0 0)
(0.184336004 0 0)
(0.214832515 0 0)
(0.243858992 0 0)
(0.271305676 0 0)
(0.296238206 0 0)
(0.31731924 0 0)
(0.335228668 0 0)
(0.347784738 0 0)
(0.356946391 0 0)
(0.362999845 0 0)
(0.370524202 0 0)
(0.365720035 0 0)
(0.351406793 0 0)
(0.333210107 0 0)
(0.314241669 0 0)
(0.296648464 0 0)
(0.280352582 0 0)
(0.265742154 0 0)
(0.253499592 0 0)
(0.245381963 0 0)
(0.242282586 0 0)
(0.243165959 0 0)
(0.243760991 0 0)
(0.251948595 0 0)
(0.266804063 0 0)
(0.288203218 0 0)
(0.31434258 0 0)
(0.343419085 0 0)
(0.3699135 0 0)
(0.424843983 0 0)
(0.459595728 0 0)
(0.502546074 0 0)
(0.499221002 0 0)
(0.497371207 0 0)
(0.477457271 0 0)
(0.447367442 0 0)
(0.424129551 0 0)
(0.319526724 0 0)
(0.406065 0 0)
(0.0166023897 0 0)
(-0.484215814 0 0)
(-0.492305907 0 0)
(0.137718617 0 0)
(0.786754228 0 0)
(0.9925261 0 0)
(0.990096836 0 0)
(0.886463281 0 0)
(0.931651024 0 0)
(0.883934902 0 0)
(0.857227232 0 0)
(0.845912232 0 0)
(0.830772827 0 0)
(0.827894589 0 0)
(0.865405952 0 0)
(0.914611634 0 0)
(0.928495631 0 0)
(0.938992635 0 0)
(0.952158926 0 0)
(0.972042621 0 0)
(0.995572983 0 0)
(1.02094944 0 0)
(1.04803402 0 0)
(1.0771833 0 0)
(1.10997797 0 0)
(1.14651403 0 0)
(1.18895458 0 0)
(1.23628902 0 0)
(1.29003 0 0)
(1.34830941 0 0)
(1.41100444 0 0)
(1.47634018 0 0)
(1.5450822 0 0)
(1.61628742 0 0)
(1.68945054 0 0)
(1.76304767 0 0)
(1.83589379 0 0)
(1.90587013 0 0)
(1.97399674 0 0)
(2.03987878 0 0)
(2.10137357 0 0)
(2.15833105 0 0)
(2.21069048 0 0)
(2.25824049 0 0)
(2.30103793 0 0)
(2.33994493 0 0)
(2.37546206 0 0)
(2.40652456 0 0)
(2.43184273 0 0)
(2.45119005 0 0)
(2.46573555 0 0)
(2.47684194 0 0)
(2.48489032 0 0)
(2.49009676 0 0)
(2.49269252 0 0)
(2.49306583 0 0)
(2.49146724 0 0)
(2.48819819 0 0)
(2.48351466 0 0)
(2.47784031 0 0)
(2.4717204 0 0)
(2.46562766 0 0)
(2.45965003 0 0)
(2.45375303 0 0)
(2.447903 0 0)
(2.44230651 0 0)
(2.43740981 0 0)
(2.43368139 0 0)
(2.43148671 0 0)
(2.43110004 0 0)
(2.43280434 0 0)
(2.43679409 0 0)
(2.44325257 0 0)
(2.45227641 0 0)
(2.4640888 0 0)
(2.47892929 0 0)
(2.49712981 0 0)
(2.51878484 0 0)
(2.54398425 0 0)
(2.57261371 0 0)
(2.60470436 0 0)
(2.64012163 0 0)
(2.67885663 0 0)
(2.72071747 0 0)
(2.7656319 0 0)
(2.81328898 0 0)
(2.86350862 0 0)
(2.91592086 0 0)
(2.97034754 0 0)
(3.02650762 0 0)
(3.08417047 0 0)
(3.14292889 0 0)
)
;

boundaryField
{
    closed
    {
        type            noSlip;
    }
    open
    {
        type            inletOutlet;
        inletValue      nonuniform List<vector> 0();
        value           nonuniform List<vector> 0();
    }
    sides
    {
        type            empty;
    }
    procBoundary4to3
    {
        type            processor;
        value           uniform (-0.168458273 0 0);
    }
    procBoundary4to5
    {
        type            processor;
        value           uniform (3.20249883 0 0);
    }
}


// ************************************************************************* //
