/*--------------------------------*- C++ -*----------------------------------*\
| =========                 |                                                 |
| \\      /  F ield         | OpenFOAM: The Open Source CFD Toolbox           |
|  \\    /   O peration     | Version:  2306                                  |
|   \\  /    A nd           | Website:  www.openfoam.com                      |
|    \\/     M anipulation  |                                                 |
\*---------------------------------------------------------------------------*/
FoamFile
{
    version     2.0;
    format      ascii;
    arch        "LSB;label=32;scalar=64";
    class       volScalarField;
    location    "0.00194";
    object      sourcePV;
}
// * * * * * * * * * * * * * * * * * * * * * * * * * * * * * * * * * * * * * //

dimensions      [1 -3 -1 0 0 0 0];

internalField   nonuniform List<scalar> 
530
(
0.0241488821
0.0773839732
0.0819230182
0.0815760518
0.0815318
0.081530495
0.0815304455
0.081530443
0.0815304428
0.0815304428
0.0815304428
0.0815304428
0.0815304428
0.0815304428
0.0815304428
0.0815304428
0.0815304428
0.0815304428
0.0815304428
0.0815304428
0.0815304428
0.0815304428
0.0815304428
0.0815304428
0.0815304428
0.0815304428
0.0815304428
0.0815304428
0.0815304428
0.0815304428
0.0815304428
0.0815304428
0.0815304428
0.0815304428
0.0815304428
0.0815304428
0.0815304428
0.0815304428
0.0815304428
0.0815304428
0.0815304428
0.0815304428
0.0815304428
0.0815304428
0.0815304428
0.0815304428
0.0815304428
0.0815304428
0.0815304428
0.0815304428
0.0815304428
0.0815304428
0.0815304428
0.0815304428
0.0815304428
0.0815304428
0.0815304428
0.0815304428
0.0815304429
0.0815304431
0.0815304437
0.081530445
0.0815304492
0.081530458
0.0815304724
0.0815304917
0.0815304511
0.0815311398
0.0815310939
0.0815285452
0.0815345034
0.081536577
0.081528681
0.0815185594
0.0815547518
0.0815646251
0.0815375032
0.0815105712
0.0814597493
0.0814229064
0.081619402
0.0829651483
0.0833016659
0.0791309365
0.0747952117
0.0748361505
0.110209943
0.131281675
0.11288844
0.00302115722
0.00612650134
0.0252300905
0.120573891
0.144482176
0.145467055
0.150507997
0.160913126
0.112413548
0.00339030817
0.00548280846
0.00512740972
0.00539700311
0.00575943289
0.00580459066
0.0603359076
0.141850298
0.149724043
0.152402076
0.157636917
0.15796421
0.173207925
0.172526173
0.0372175032
0.00493511406
0.00476022828
0.00514617873
0.00548998514
0.00542715456
0.0680337996
0.149419492
0.157033882
0.157906653
0.176240112
0.174680644
0.0447391076
0.00509268863
0.00490922832
0.00546370268
0.00529567108
0.00599290416
0.00546564617
0.0857544722
0.147770344
0.151083883
0.152581401
0.171076147
0.161690863
0.00338378636
0.00518220706
0.0964379259
0.147420034
0.16385639
0.154231396
0.0039400241
0.00534687923
0.00488323486
0.0050099952
0.0867149584
0.167096185
0.153458131
0.00457831059
0.00500838499
0.10806976
0.166097524
0.15006752
0.00505903991
0.00457757205
0.126744494
0.122898362
0.00564632165
0.00545595592
0.109151939
0.161339483
0.134493263
0.00529134045
0.00543423641
0.104645518
0.163336627
0.123365883
0.00488646431
0.00664532389
0.00508494167
0.0958373061
0.155246225
0.125681179
0.00549885009
0.00564648235
0.10675299
0.15749368
0.123855786
0.00555999568
0.00576511946
0.106790808
0.14660012
0.145535012
0.149852891
0.170620141
0.16089532
0.00468744899
0.00476576251
0.144349226
0.1428717
0.00324774881
0.00626311466
0.00418529512
0.132140412
0.133444463
0.00425507597
0.00652805724
0.00504888399
0.114404477
0.15500649
0.168184755
0.157822742
0.00463141114
0.00471653947
0.146656478
0.138116847
0.0052416474
0.00411276482
0.143195875
0.135667433
0.00532476466
0.00400349455
0.142246339
0.133192927
0.00530624103
0.00358058417
0.14215472
0.12927905
0.00545301287
0.00537726611
0.131269416
0.177440289
0.145527373
0.00449587206
0.00407882493
0.147173734
0.133640035
0.0053014484
0.00519439672
0.131037268
0.180310701
0.150346504
0.00441728364
0.00429140592
0.148796018
0.141369034
0.00500425631
0.00392148128
0.146579563
0.140482691
0.0050167553
0.00377943792
0.145977944
0.138850066
0.00498639934
0.00345368628
0.144715575
0.134133628
0.00493136412
0.00245204723
0.143583483
0.128495859
0.0050623154
0.00502494596
0.127073446
0.175485413
0.146972845
0.00406531284
0.00344437771
0.144062192
0.126667775
0.0046736697
0.0153023496
0.140898168
0.120575953
0.00490054912
0.00483998652
0.124907259
0.170400815
0.136588744
0.00388165311
0.0144956872
0.140544429
0.114184764
0.00480768996
0.00453568071
0.126838447
0.169558733
0.133061669
0.00374628597
0.0154977709
0.138957963
0.110437142
0.00449417714
0.0313809755
0.139629063
0.108179309
0.0043066398
0.0317672399
0.147857615
0.131048341
0.00371280804
0.00453469397
0.122855584
0.158171633
0.0842925809
0.00486033087
0.00435454164
0.121282235
0.145161305
0.167012131
0.172094135
0.0398936011
0.00460149073
0.130213076
0.143466415
0.0231579863
0.00601710448
0.00422775231
0.12576156
0.167768218
0.118591108
0.00360884652
0.00437904513
0.120219296
0.161038421
0.107895043
0.00389856414
0.0043807516
0.119626166
0.159351209
0.104043941
0.00396617465
0.00410604286
0.122307277
0.158827107
0.110409235
0.00369645347
0.00466814984
0.112996793
0.155483342
0.0920925932
0.00426390894
0.00622844062
0.12461098
0.16325143
0.129136975
0.00279352035
0.0373017478
0.140102789
0.1203018
0.00320007037
0.00604753958
0.0210377081
0.133608709
0.163347074
0.107994113
0.00348153708
0.00338968605
0.136914311
0.161371365
0.0697802148
0.00445032441
0.0238426815
0.142402141
0.160035105
0.0623927426
0.00460296621
0.0314956165
0.146287326
0.161003052
0.0530519451
0.00479555318
0.053747049
0.150225603
0.16826543
0.101004848
0.00384973562
0.0899689406
0.145439782
0.0290203453
0.0052132657
0.056868307
0.157424256
0.163585299
0.0398101974
0.00527146886
0.103885762
0.140626907
0.017117476
0.00548803343
0.0638844467
0.160736483
0.163279126
0.0226747173
0.0055326791
0.111360062
0.142529884
0.00758424645
0.00558928265
0.0722538889
0.16385555
0.163784522
0.0113819944
0.00567652192
0.116376741
0.143270239
0.00239058113
0.0057366997
0.0755452064
0.161768406
0.161332147
0.00223893949
0.00550902591
0.0660222703
0.160550716
0.160126126
0.00276001559
0.00550441218
0.0782879055
0.165727311
0.165457631
0.00331997451
0.0053292198
0.0887539098
0.175650516
0.174254481
0.00349904329
0.00567802883
0.134822745
0.154841162
0.0037326573
0.00600048695
0.137104679
0.150672408
0.00413688885
0.00605075059
0.132413441
0.14647663
0.00472183158
0.00572750329
0.0932342735
0.169045686
0.165469135
0.00466043622
0.00596301246
0.128444414
0.141784347
0.0048547864
0.00639358066
0.124666145
0.13273107
0.0050268908
0.00653749087
0.0872240913
0.129174376
0.160033524
0.156724119
0.00472649673
0.00595651627
0.0675641078
0.139786317
0.143358715
0.174287877
0.171737266
0.0045356009
0.00565608353
0.131921927
0.146455804
0.00456295409
0.00561616616
0.0975055417
0.170104954
0.166722941
0.00452638525
0.00584941425
0.128785503
0.144528144
0.00427915003
0.0062053086
0.128247345
0.140323349
0.00431544391
0.00625916664
0.124542423
0.138274471
0.00441255698
0.00592604506
0.0867064928
0.162343168
0.162179474
0.00458448171
0.00556690694
0.0876354167
0.166604234
0.166558012
0.00456950117
0.00551740985
0.0902805794
0.167867095
0.167865842
0.00450022754
0.00546531849
0.0915320234
0.169875678
0.169081163
0.00433933763
0.00586605452
0.123702755
0.144312675
0.00430104261
0.00581419203
0.0932910124
0.166194028
0.165331617
0.00421180463
0.0059464242
0.121905325
0.142631932
0.00427416462
0.00591599185
0.0918370513
0.163048462
0.162806772
0.00418325357
0.00554002056
0.0875393888
0.168561905
0.167346763
0.00370877119
0.00571363481
0.00542851647
0.0535864977
0.141973746
0.147764242
0.176700006
0.175275619
0.00342230329
)
;

boundaryField
{
    closed
    {
        type            calculated;
        value           uniform 0;
    }
    open
    {
        type            calculated;
        value           nonuniform List<scalar> 0();
    }
    sides
    {
        type            empty;
    }
    procBoundary0to1
    {
        type            processor;
        value           uniform 0;
    }
}


// ************************************************************************* //
