/*--------------------------------*- C++ -*----------------------------------*\
| =========                 |                                                 |
| \\      /  F ield         | OpenFOAM: The Open Source CFD Toolbox           |
|  \\    /   O peration     | Version:  2306                                  |
|   \\  /    A nd           | Website:  www.openfoam.com                      |
|    \\/     M anipulation  |                                                 |
\*---------------------------------------------------------------------------*/
FoamFile
{
    version     2.0;
    format      ascii;
    arch        "LSB;label=32;scalar=64";
    class       volScalarField;
    location    "0.00064";
    object      H;
}
// * * * * * * * * * * * * * * * * * * * * * * * * * * * * * * * * * * * * * //

dimensions      [0 0 0 0 0 0 0];

internalField   nonuniform List<scalar> 
531
(
1.14996126e-09
6.03040079e-09
3.15949045e-08
3.55993497e-08
3.15439465e-08
3.0516364e-08
3.5535267e-08
3.46271275e-08
5.49539172e-10
9.27785029e-10
3.06530707e-08
3.72736333e-08
8.40124112e-09
7.99209186e-10
2.97226957e-08
3.97283496e-08
1.17493143e-08
7.76859309e-10
2.82375546e-08
3.87905961e-08
1.20151689e-08
5.72624981e-10
3.01786224e-08
3.79840717e-08
1.20007722e-08
1.00440677e-09
1.50781849e-08
4.06479696e-08
4.10492186e-08
6.92956563e-09
1.07049136e-09
1.41688646e-08
3.90440882e-08
4.22478967e-08
1.79864955e-08
1.00370288e-09
1.21482345e-09
1.84645944e-08
3.68905355e-08
4.63203653e-08
4.7105777e-08
9.92191783e-09
8.92649894e-10
1.79744416e-08
4.17976181e-08
4.43156116e-08
2.03658695e-08
9.58504877e-10
1.11084629e-09
2.4759652e-08
4.63597398e-08
4.64765763e-08
6.170798e-09
9.38732809e-10
3.36838986e-08
3.91636569e-08
9.05161175e-09
1.35389389e-09
3.29063824e-08
3.67001572e-08
6.71729194e-09
4.71984556e-10
3.27535614e-08
3.84489511e-08
1.03829906e-08
9.30462129e-10
1.86881045e-08
4.37720334e-08
3.870652e-08
2.71294759e-09
2.02640511e-09
3.48543996e-08
3.965806e-08
1.01827397e-08
9.98302975e-10
1.60983507e-08
4.1448979e-08
4.30882757e-08
9.03040642e-09
1.02723088e-09
1.36652879e-08
3.91274079e-08
4.22899671e-08
1.64702276e-08
1.05853385e-09
1.20176512e-09
2.12353349e-08
3.71832377e-08
3.93458036e-08
4.28365857e-08
4.69262092e-08
3.14491235e-08
5.61599218e-10
1.22127348e-09
1.50945597e-08
3.87026799e-08
3.18214905e-08
5.63450194e-10
3.7591047e-09
3.79069757e-08
3.61232817e-08
1.011624e-09
5.84151902e-09
3.84774748e-08
3.10435981e-08
6.16605755e-10
1.82617104e-08
3.96217755e-08
2.107972e-08
8.49005566e-10
1.47160688e-08
3.98451073e-08
3.80024023e-08
1.6946948e-09
1.161788e-09
1.67666304e-08
4.14740983e-08
4.28976394e-08
6.07972938e-09
1.04853422e-09
1.69174578e-08
4.56635358e-08
4.95821858e-08
1.36335598e-08
6.7471214e-10
3.21652889e-08
4.17798107e-08
8.90350511e-09
7.50252853e-10
3.1441321e-08
3.99870723e-08
8.58216274e-09
1.0968745e-09
1.49469517e-08
4.11796339e-08
4.67060482e-08
2.58249413e-08
9.00294424e-10
1.05924299e-09
2.91804147e-08
4.56154757e-08
3.66972785e-08
5.55094115e-10
7.24414344e-10
3.54715167e-08
4.23084088e-08
8.74960151e-09
1.07829401e-09
1.70756261e-08
4.40026208e-08
4.42498142e-08
5.6582877e-10
6.98591423e-10
3.51823898e-08
4.07518208e-08
4.397037e-09
1.11859135e-09
1.84788023e-08
4.48617793e-08
4.73460433e-08
1.48365359e-08
1.00754856e-09
1.45330591e-08
4.0831612e-08
4.10172868e-08
4.98295897e-10
1.15068222e-09
2.40501622e-08
4.38564919e-08
3.77265376e-08
6.58613887e-10
1.18981013e-09
2.34063207e-08
4.47011201e-08
4.16796039e-08
6.00812871e-10
1.14544746e-09
2.48241166e-08
4.5595832e-08
4.13198769e-08
6.36443953e-10
1.14420061e-09
2.44734666e-08
4.58457976e-08
3.82020751e-08
8.24879722e-10
1.35049697e-09
1.19573991e-09
2.39482269e-08
3.87932795e-08
4.04216272e-08
4.68830504e-08
4.79333409e-08
1.84655161e-08
9.67540104e-10
9.40110554e-10
1.17719713e-09
8.41060268e-10
3.14133598e-08
4.22316839e-08
4.65906634e-08
4.67254214e-08
1.33978176e-08
1.1587975e-09
1.1769207e-09
2.44832029e-08
4.36302573e-08
3.71568086e-08
7.58000116e-10
1.14562143e-09
2.79310407e-08
4.67011538e-08
3.95904408e-08
7.07041559e-10
1.12405139e-09
2.75517927e-08
4.75052616e-08
3.67114851e-08
6.78326773e-10
3.48843284e-09
3.90808846e-08
3.68614023e-08
7.9461133e-10
1.14831636e-09
2.67474149e-08
4.56873609e-08
3.86328382e-08
6.97512498e-10
1.13207675e-09
2.73029549e-08
4.61424657e-08
3.85820381e-08
7.02912006e-10
1.13463712e-09
2.66791375e-08
4.69132672e-08
4.24154549e-08
5.21906337e-10
1.26829144e-09
1.48159648e-08
3.75585971e-08
3.42299969e-08
5.08216487e-10
1.37623474e-09
5.6830291e-10
2.91146345e-08
3.92429978e-08
3.86346469e-08
4.12318695e-08
4.62742331e-08
2.92386125e-08
8.4195514e-10
3.81975883e-09
3.82514331e-08
3.87968421e-08
4.32813955e-10
1.26428388e-09
2.0349827e-08
3.76000918e-08
2.92118752e-08
9.49897627e-10
1.12406793e-09
2.77929422e-08
4.8361458e-08
4.81863197e-08
9.60089603e-10
1.16097572e-09
1.7515841e-08
3.90364748e-08
3.4814831e-08
5.31254738e-10
1.3544831e-09
5.50885328e-09
3.14205257e-08
3.91711803e-08
4.00850596e-08
4.75939451e-08
4.726706e-08
7.99123544e-09
1.03595965e-09
1.01139507e-09
1.17160672e-09
1.30125246e-08
3.59725337e-08
4.94695374e-08
4.45314073e-08
5.35727423e-10
5.20137356e-10
3.82653896e-08
4.29543258e-08
1.41371893e-08
1.16992874e-09
1.21212462e-09
2.37964022e-08
4.33720598e-08
4.36981639e-08
1.30202027e-08
1.16699647e-09
1.16132711e-09
2.32175147e-08
3.87193229e-08
4.56416694e-08
4.641346e-08
1.59755574e-08
1.11648017e-09
1.02037382e-09
3.05252737e-08
4.60494129e-08
3.59166593e-08
4.92565757e-10
1.273888e-09
1.19001427e-09
1.50148132e-08
3.43015147e-08
4.07598421e-08
4.97865008e-08
4.34232172e-08
2.22555909e-09
1.53262691e-09
3.80083206e-08
4.49782405e-08
2.09534752e-08
8.58110169e-10
1.02434594e-09
1.14911975e-09
3.11299454e-09
3.17190548e-08
4.13905235e-08
4.88568308e-08
4.66367097e-08
2.38997805e-09
9.46925173e-10
2.76928452e-08
4.01756726e-08
2.38253779e-08
9.42474472e-10
1.03177824e-09
2.96728705e-08
4.56390252e-08
4.04533254e-08
9.73206244e-10
1.11171593e-09
1.94058277e-08
4.17296969e-08
4.0787868e-08
8.20086979e-09
1.19348424e-09
1.2218875e-09
1.96279326e-08
3.59798258e-08
3.98840337e-08
4.62757035e-08
4.87652729e-08
2.52649975e-08
6.54102915e-10
1.15091098e-09
1.14779648e-09
1.09463701e-08
3.48236396e-08
4.60444689e-08
4.64836926e-08
1.24457985e-08
1.10750348e-09
1.12038989e-09
2.85050342e-08
4.49620677e-08
3.45656561e-08
4.78284689e-10
6.07175019e-10
3.530637e-08
4.27968505e-08
1.9262364e-08
9.87903398e-10
2.20822624e-09
3.25645072e-08
4.71122534e-08
4.37228187e-08
3.62721944e-09
1.06018558e-09
1.72849258e-08
4.39138388e-08
4.70204991e-08
1.7561841e-08
8.75658647e-10
1.06122022e-09
1.1608353e-09
9.86675335e-09
3.56286332e-08
4.22396045e-08
4.8470315e-08
5.23297064e-08
3.32041698e-08
7.81730047e-10
1.2366183e-09
3.19388662e-08
4.78269347e-08
2.195368e-08
1.04573839e-09
2.21120588e-09
2.4208484e-09
3.31877709e-08
4.9163348e-08
1.97541719e-08
5.01127061e-09
5.34544856e-09
6.38008303e-09
6.88746026e-09
8.02023402e-09
8.71226874e-09
9.76986546e-09
1.05474252e-08
1.14798063e-08
1.2298112e-08
1.29853129e-08
1.37878122e-08
1.41087921e-08
1.43942815e-08
1.42949308e-08
1.23862984e-08
8.97144844e-09
9.21736935e-09
9.57237987e-09
1.0340421e-08
1.08428414e-08
1.21046371e-08
1.27873756e-08
1.48499908e-08
1.51840488e-08
1.1666004e-08
1.06995121e-08
1.08528178e-08
1.1746485e-08
1.3872201e-08
1.4662934e-08
1.49192636e-08
1.47323013e-08
1.47339197e-08
1.00728414e-08
5.31186647e-09
7.1286093e-09
9.73945477e-09
9.43420451e-09
1.66906989e-09
1.81835336e-09
2.02049477e-09
2.21071948e-09
6.36562174e-10
2.17240402e-09
2.21305369e-09
1.82707351e-08
6.23857352e-08
3.38345058e-07
5.90088635e-07
8.34861358e-07
1.15852795e-06
1.50973953e-06
1.92224805e-06
2.37119154e-06
2.8341514e-06
3.34246315e-06
4.08394199e-06
5.38388399e-06
7.50538933e-06
1.04326943e-05
1.37227899e-05
1.75511185e-05
2.20204797e-05
2.6617688e-05
3.19753742e-05
3.68037407e-05
4.27165719e-05
4.73327839e-05
5.32410455e-05
5.87840339e-05
6.63150244e-05
6.8395109e-05
7.2437711e-05
7.99522412e-05
9.07341968e-05
8.14309394e-05
8.16661752e-05
0.000100805
0.000105550964
8.43177416e-05
7.67138325e-05
0.000107484079
0.000101476965
8.35904147e-05
8.2893502e-05
0.000100382556
9.36035706e-05
8.82381694e-05
8.51024446e-05
8.52030504e-05
8.06896585e-05
8.29878353e-05
7.81655902e-05
6.25673129e-05
6.38350699e-05
8.95599788e-05
7.31402353e-05
2.05094961e-05
4.08758532e-05
8.98508978e-05
5.20869815e-05
7.60990311e-11
3.22083004e-05
6.96069739e-05
2.085285e-05
8.54401572e-11
3.34166305e-05
5.76490785e-05
6.52185021e-06
1.07552194e-10
3.00128451e-05
4.78222037e-05
2.61675678e-06
1.34637559e-10
2.61307918e-05
3.70994385e-05
1.51684694e-06
1.6766816e-10
2.17956429e-05
3.08872651e-05
5.9282434e-07
1.95144071e-10
1.88998113e-05
2.50657232e-05
4.44235164e-07
6.34181397e-07
1.4329908e-05
)
;

boundaryField
{
    closed
    {
        type            calculated;
        value           nonuniform List<scalar> 0();
    }
    open
    {
        type            calculated;
        value           nonuniform List<scalar> 0();
    }
    sides
    {
        type            empty;
    }
    procBoundary4to3
    {
        type            processor;
        value           uniform 1.20476942e-08;
    }
    procBoundary4to5
    {
        type            processor;
        value           uniform 1.63571797e-05;
    }
}


// ************************************************************************* //
