/*--------------------------------*- C++ -*----------------------------------*\
| =========                 |                                                 |
| \\      /  F ield         | OpenFOAM: The Open Source CFD Toolbox           |
|  \\    /   O peration     | Version:  2306                                  |
|   \\  /    A nd           | Website:  www.openfoam.com                      |
|    \\/     M anipulation  |                                                 |
\*---------------------------------------------------------------------------*/
FoamFile
{
    version     2.0;
    format      ascii;
    arch        "LSB;label=32;scalar=64";
    class       volScalarField;
    location    "0.00064";
    object      h;
}
// * * * * * * * * * * * * * * * * * * * * * * * * * * * * * * * * * * * * * //

dimensions      [0 2 -2 0 0 0 0];

internalField   nonuniform List<scalar> 
531
(
9779.35351
7021.41222
-868.590014
-2299.95762
-792.420909
-408.560017
-2262.03718
-1975.1956
8268.59846
9018.76715
-487.812403
-2716.96989
5976.66266
8738.01628
-172.108658
-3349.28803
5140.61481
8719.88819
347.395299
-3076.6309
5074.40881
8216.93571
-340.268776
-2897.15905
5095.23227
9441.56482
4576.58843
-3633.66245
-3771.51361
6420.82695
9608.2182
4890.32525
-3239.89955
-4103.26193
3534.84072
9625.03299
10058.3636
3744.84859
-2646.58982
-5208.28504
-5362.9492
5581.86236
9154.07858
3763.72846
-3957.19095
-4650.84147
2871.04125
9485.98173
9904.10588
1577.19932
-5149.77518
-5190.16699
6646.17348
7901.5289
-1625.30469
-3171.66824
5931.32029
7824.60661
-1309.94526
-2521.24004
6581.45005
8116.04767
-1236.49371
-2973.77559
5631.56889
9279.18447
3482.45063
-4464.53888
-3170.14322
7577.23738
7750.51652
-2050.11229
-3322.18854
5661.55572
9447.98063
4322.04465
-3861.40241
-4305.63473
5918.18965
9500.55586
5020.32176
-3256.44011
-4110.07493
3971.77515
9739.3879
10055.8546
2743.98517
-2677.31458
-3311.2893
-4322.56335
-5362.46802
-912.555064
8485.19298
10011.6898
4640.69715
-3123.95146
-963.223842
8406.78789
7361.30675
-2900.33356
-2443.76294
7953.37843
6773.66511
-3019.47436
-642.980328
7826.15185
3405.00661
-3343.89549
2398.57813
9098.47586
4631.25155
-3410.58291
-2941.62679
7900.24645
9882.06278
4263.44145
-3845.75025
-4204.99014
6678.47891
9681.79897
4301.43431
-5015.85456
-6050.09793
4592.86449
8511.12967
-1060.7712
-3836.28209
5985.99258
8736.05427
-734.767646
-3387.50559
6035.84255
9827.34052
4906.37041
-3877.50807
-5334.7737
1076.75153
9298.58661
9582.827
18.7826998
-4903.05333
-2583.30623
8420.20985
8665.91988
-2263.3502
-4047.41864
5811.89273
9744.15996
4148.68209
-4543.65029
-4549.11988
7989.08464
8560.02576
-2155.90485
-3599.07207
7065.45726
9851.67586
3814.48695
-4834.93382
-5532.42293
4118.02767
9528.5775
4827.67049
-3674.16155
-3724.4398
8123.84896
9798.92483
1870.69501
-4505.69623
-2884.45267
8574.2738
9917.06467
2112.95411
-4733.55121
-3935.07663
8346.2219
9766.78224
1615.13694
-4992.75707
-3855.00351
8403.57187
9765.79138
1668.02373
-4999.88548
-3072.47904
7815.86012
10386.8336
10126.5639
1847.99222
-3071.9401
-3638.65289
-5383.46608
-5682.66954
3350.09676
9411.22963
9397.90842
10016.626
9043.29696
-719.653745
-4019.26817
-5327.04058
-5333.35669
4712.34938
9960.21194
10055.5017
1680.67808
-4425.58597
-2740.04245
8772.15152
9734.96639
519.435001
-5271.78814
-3378.46716
8611.13719
9713.45498
642.466715
-5487.0277
-2610.71115
8584.30931
7285.18528
-3180.77112
-2581.06673
8874.25579
9776.39429
926.090263
-4989.05907
-3126.91565
8599.62459
9696.42232
735.282464
-5125.05291
-3126.81679
8584.88467
9682.2855
940.899321
-5323.39596
-4200.48442
8090.91093
10126.0401
4731.83361
-2784.67025
-1833.71539
8226.63644
10461.0024
8463.62712
68.4803477
-3176.11486
-3119.70121
-3875.33736
-5210.76945
-13.0098409
9044.01824
7270.78421
-2957.30596
-3149.22781
7936.62099
10035.7076
3069.1637
-2883.3907
21.7396553
9252.0014
9643.79962
531.637984
-5701.35283
-5750.86831
7526.67164
9806.00177
3934.33813
-3184.74967
-2069.33347
8263.86491
10379.6721
7356.46622
-782.719165
-3141.17331
-3549.84198
-5522.68713
-5426.96269
6055.6907
9590.96473
9624.84143
9934.90959
5434.28662
-2474.8664
-6002.29285
-4670.6476
7763.3622
8070.07811
-3006.90785
-4259.91348
4565.84175
9937.20964
10070.05
1868.16872
-4381.11935
-4546.72419
4862.99176
9964.68591
9849.76674
2161.17106
-3132.67567
-5074.62662
-5256.94727
4020.98828
9789.3347
9519.89501
-516.958407
-4990.62112
-2469.35749
7867.45388
10152.4838
10178.0832
4623.42526
-1786.5619
-3773.87763
-6095.99086
-4366.22893
7482.50868
7759.96855
-2980.21872
-4777.35838
2637.38311
9143.82841
9615.13171
9955.9615
7765.62975
-804.578515
-3861.14866
-5869.9389
-5242.65801
7413.42282
9145.66652
609.945834
-3482.45459
1830.07048
9392.56224
9522.29421
-156.713758
-4911.23437
-3619.41081
7806.92636
9638.62204
3298.01077
-3929.86471
-3728.90612
6110.77218
9992.4513
10175.2149
3238.19669
-2340.80704
-3492.48345
-5264.37475
-5869.20808
1216.03698
8596.64905
9835.64846
9888.2522
5880.36522
-2086.22215
-5125.34937
-5253.64455
5037.30742
9786.50851
9824.81667
226.150037
-4730.21964
-1969.3688
8141.53381
8381.41525
-2241.81198
-4192.37822
3147.68234
9443.37254
8079.55165
-1239.99291
-5359.00678
-4514.72549
7033.35775
9485.51908
3901.71265
-4655.52319
-5495.71149
3297.2238
8877.21166
9389.33802
9628.29395
5627.83346
-2485.3035
-4346.01272
-6172.66997
-7208.38588
-1910.12464
8124.97143
8824.86034
-1591.33061
-6260.3738
621.37484
7516.72447
8236.80559
7600.36554
-2734.50651
-7482.92548
-316.762427
5520.44389
5362.94301
5337.66343
5181.80223
4924.1015
4730.1911
4441.00759
4258.8173
4021.44705
3861.24859
3739.8677
3586.14156
3595.54264
3638.22993
3710.58752
4704.09486
5894.60569
6218.3834
6157.26002
6166.51438
5880.36869
5525.03864
4947.44561
4175.66997
4101.26875
5252.05337
5513.06862
5412.60672
4430.64573
3371.79354
1454.0153
-821.929639
-3232.10584
-4910.23751
-2743.00667
-2724.27697
-4838.82431
-6916.59306
-7793.32972
-8516.80234
-11011.4285
-15806.8814
-20672.6681
-21882.2367
-22654.4824
-26216.6739
-31873.6332
-42724.2511
-47029.4415
-50843.1256
-55097.9304
-59786.5715
-63398.0286
-68483.1214
-71869.5596
-77234.5806
-80708.022
-86076.6887
-89496.8214
-94600.2114
-97611.0117
-102467.615
-105327.21
-110250.626
-113242.226
-118326.319
-121221.439
-126353.696
-129194.367
-134609.254
-137071.427
-141930.498
-145625.396
-152673.527
-150406.85
-151862.143
-162953.334
-171065.004
-157434.01
-158242.42
-179097.224
-187499.274
-164539.93
-171057.609
-188489.075
-190675.582
-177486.578
-184149.478
-190409.862
-193916.677
-194890.032
-199439.069
-196877.553
-201376.811
-217760.442
-214050.996
-185025.894
-200451.07
-247788.349
-226358.39
-176972.351
-210910.953
-265103.095
-221587.811
-183467.551
-226621.904
-257010.071
-207027.261
-182814.475
-228707.276
-243958.425
-198587.97
-180700.772
-222185.78
-232032.285
-191909.878
-180474.417
-213898.034
-219646.658
-187114.087
-177088.87
-207044.9
-210624.635
-181908.777
-174150.847
-199889.559
-197570.876
-178712.114
)
;

boundaryField
{
    closed
    {
        type            lookUpEnthalpy;
        h0              nonuniform List<scalar> 0();
        value           nonuniform List<scalar> 0();
    }
    open
    {
        type            zeroGradient;
    }
    sides
    {
        type            empty;
    }
    procBoundary4to3
    {
        type            processor;
        value           uniform 5095.09046;
    }
    procBoundary4to5
    {
        type            processor;
        value           uniform -174514.083;
    }
}


// ************************************************************************* //
