/*--------------------------------*- C++ -*----------------------------------*\
| =========                 |                                                 |
| \\      /  F ield         | OpenFOAM: The Open Source CFD Toolbox           |
|  \\    /   O peration     | Version:  2306                                  |
|   \\  /    A nd           | Website:  www.openfoam.com                      |
|    \\/     M anipulation  |                                                 |
\*---------------------------------------------------------------------------*/
FoamFile
{
    version     2.0;
    format      ascii;
    arch        "LSB;label=32;scalar=64";
    class       volScalarField;
    location    "0.00064";
    object      prefDZ_T;
}
// * * * * * * * * * * * * * * * * * * * * * * * * * * * * * * * * * * * * * //

dimensions      [1 -1 -1 -1 0 0 0];

internalField   nonuniform List<scalar> 
531
(
-1.22798916e-09
-1.22555872e-09
-1.19397199e-09
-1.19089451e-09
-1.19422091e-09
-1.19521597e-09
-1.19103776e-09
-1.19144134e-09
-1.23350439e-09
-1.23010821e-09
-1.19499613e-09
-1.19061954e-09
-1.22259933e-09
-1.23126408e-09
-1.19586177e-09
-1.19006986e-09
-1.2177775e-09
-1.23145459e-09
-1.19737334e-09
-1.19046463e-09
-1.21740112e-09
-1.23331965e-09
-1.19539448e-09
-1.19047956e-09
-1.21740712e-09
-1.22931251e-09
-1.21299993e-09
-1.18958474e-09
-1.1892944e-09
-1.22467452e-09
-1.22870545e-09
-1.2141666e-09
-1.18983413e-09
-1.18888653e-09
-1.20931029e-09
-1.22924593e-09
-1.22733969e-09
-1.20863191e-09
-1.19053395e-09
-1.18760014e-09
-1.18765958e-09
-1.22040575e-09
-1.23034177e-09
-1.20926605e-09
-1.18916223e-09
-1.18831353e-09
-1.20631517e-09
-1.22967354e-09
-1.22825102e-09
-1.20119598e-09
-1.18796089e-09
-1.18787608e-09
-1.22575327e-09
-1.23369095e-09
-1.19216261e-09
-1.19038582e-09
-1.22153182e-09
-1.23302055e-09
-1.19294702e-09
-1.19103143e-09
-1.22486384e-09
-1.23421096e-09
-1.19315515e-09
-1.19062902e-09
-1.21958664e-09
-1.2299829e-09
-1.20838657e-09
-1.18870129e-09
-1.18980749e-09
-1.23083541e-09
-1.23187029e-09
-1.19135212e-09
-1.19013809e-09
-1.21989168e-09
-1.22935976e-09
-1.2116518e-09
-1.18927727e-09
-1.18876872e-09
-1.22158133e-09
-1.22910222e-09
-1.21484392e-09
-1.18984447e-09
-1.18889956e-09
-1.21127694e-09
-1.22874817e-09
-1.22744583e-09
-1.20527908e-09
-1.19073677e-09
-1.18980401e-09
-1.18836666e-09
-1.1874598e-09
-1.19380578e-09
-1.23335524e-09
-1.2273101e-09
-1.21294069e-09
-1.19007436e-09
-1.19371605e-09
-1.23335375e-09
-1.22920376e-09
-1.19036042e-09
-1.19072972e-09
-1.23348139e-09
-1.22618696e-09
-1.19039762e-09
-1.19457921e-09
-1.2344039e-09
-1.20897083e-09
-1.18996612e-09
-1.20542023e-09
-1.23072411e-09
-1.21350541e-09
-1.1898622e-09
-1.19024051e-09
-1.23228069e-09
-1.22784719e-09
-1.21074349e-09
-1.18939768e-09
-1.18910312e-09
-1.22587674e-09
-1.22885364e-09
-1.21052598e-09
-1.1878881e-09
-1.18676109e-09
-1.21519038e-09
-1.23237387e-09
-1.19350056e-09
-1.18982564e-09
-1.22172802e-09
-1.23167018e-09
-1.19438712e-09
-1.19017462e-09
-1.22222563e-09
-1.22839756e-09
-1.21301195e-09
-1.1888482e-09
-1.18735818e-09
-1.199864e-09
-1.23022629e-09
-1.22880749e-09
-1.19640575e-09
-1.18844536e-09
-1.19065651e-09
-1.23342446e-09
-1.2319089e-09
-1.19094386e-09
-1.18927636e-09
-1.22217205e-09
-1.22858426e-09
-1.21036204e-09
-1.1885362e-09
-1.18879768e-09
-1.2342687e-09
-1.23215851e-09
-1.19120511e-09
-1.18991273e-09
-1.22842277e-09
-1.22821009e-09
-1.2086039e-09
-1.18794224e-09
-1.1870235e-09
-1.21363674e-09
-1.2292517e-09
-1.21366121e-09
-1.18958158e-09
-1.1895246e-09
-1.23397951e-09
-1.22797439e-09
-1.20203819e-09
-1.18857312e-09
-1.19021848e-09
-1.23249212e-09
-1.22760622e-09
-1.20278475e-09
-1.18831184e-09
-1.18914243e-09
-1.23304573e-09
-1.2280311e-09
-1.201178e-09
-1.18793558e-09
-1.18915336e-09
-1.2327279e-09
-1.22804155e-09
-1.2015136e-09
-1.18818455e-09
-1.18972627e-09
-1.23402561e-09
-1.22609849e-09
-1.22746244e-09
-1.20211262e-09
-1.19049547e-09
-1.18927057e-09
-1.18729775e-09
-1.18688297e-09
-1.20870859e-09
-1.2296268e-09
-1.22985883e-09
-1.227662e-09
-1.23080937e-09
-1.19443016e-09
-1.1893419e-09
-1.18726755e-09
-1.18738799e-09
-1.21547482e-09
-1.22783617e-09
-1.22764687e-09
-1.20151554e-09
-1.18874901e-09
-1.19032784e-09
-1.23159367e-09
-1.22804436e-09
-1.19781065e-09
-1.18769185e-09
-1.18972496e-09
-1.23207173e-09
-1.22822705e-09
-1.19818919e-09
-1.18744524e-09
-1.19051111e-09
-1.23232178e-09
-1.22979648e-09
-1.19022733e-09
-1.19088691e-09
-1.23125417e-09
-1.2280037e-09
-1.1990478e-09
-1.18806149e-09
-1.18996656e-09
-1.23215533e-09
-1.22817046e-09
-1.19846087e-09
-1.18784672e-09
-1.18990121e-09
-1.23211454e-09
-1.2281565e-09
-1.19910858e-09
-1.1876547e-09
-1.18854075e-09
-1.23378365e-09
-1.22688041e-09
-1.21329881e-09
-1.1905908e-09
-1.19169722e-09
-1.23387269e-09
-1.22585714e-09
-1.23358896e-09
-1.19653102e-09
-1.19046059e-09
-1.19001138e-09
-1.18892642e-09
-1.18753361e-09
-1.19632171e-09
-1.23080167e-09
-1.22921003e-09
-1.19047141e-09
-1.19004742e-09
-1.23458632e-09
-1.22695679e-09
-1.20634515e-09
-1.19005833e-09
-1.19640515e-09
-1.22983391e-09
-1.22825868e-09
-1.19789078e-09
-1.18725824e-09
-1.18680343e-09
-1.23417661e-09
-1.22788867e-09
-1.20983354e-09
-1.1901473e-09
-1.1911456e-09
-1.23366399e-09
-1.22607066e-09
-1.22607637e-09
-1.19421251e-09
-1.19057262e-09
-1.18935824e-09
-1.18735457e-09
-1.18749881e-09
-1.22322473e-09
-1.22899368e-09
-1.22918225e-09
-1.22774409e-09
-1.2155521e-09
-1.19033873e-09
-1.18688787e-09
-1.18845886e-09
-1.23464576e-09
-1.23380388e-09
-1.19019716e-09
-1.18886346e-09
-1.21442515e-09
-1.22775656e-09
-1.22735592e-09
-1.202266e-09
-1.1886879e-09
-1.18815394e-09
-1.21595899e-09
-1.22776782e-09
-1.22786566e-09
-1.20299075e-09
-1.19004459e-09
-1.18754125e-09
-1.18744349e-09
-1.21197353e-09
-1.22825433e-09
-1.22915015e-09
-1.19490953e-09
-1.18846533e-09
-1.19029648e-09
-1.23457968e-09
-1.22682296e-09
-1.22748623e-09
-1.21306716e-09
-1.19212089e-09
-1.18891615e-09
-1.18674203e-09
-1.18883241e-09
-1.23186472e-09
-1.23277617e-09
-1.19001955e-09
-1.18839526e-09
-1.20559086e-09
-1.2306325e-09
-1.22907919e-09
-1.22791656e-09
-1.2298524e-09
-1.19426097e-09
-1.18920615e-09
-1.18691532e-09
-1.18777535e-09
-1.2316525e-09
-1.22990106e-09
-1.1980705e-09
-1.18986353e-09
-1.20221446e-09
-1.22984115e-09
-1.22905616e-09
-1.19590602e-09
-1.18842798e-09
-1.18942209e-09
-1.23375903e-09
-1.2283599e-09
-1.20749288e-09
-1.189234e-09
-1.18921163e-09
-1.22280229e-09
-1.22754169e-09
-1.22722868e-09
-1.20721983e-09
-1.19115794e-09
-1.18943556e-09
-1.18724378e-09
-1.18681913e-09
-1.20045701e-09
-1.23252477e-09
-1.2279558e-09
-1.22795723e-09
-1.21843868e-09
-1.19105026e-09
-1.18773255e-09
-1.18754199e-09
-1.2167378e-09
-1.22832835e-09
-1.22820713e-09
-1.19704187e-09
-1.18863402e-09
-1.19137615e-09
-1.23415108e-09
-1.23298224e-09
-1.19085114e-09
-1.18905237e-09
-1.20769134e-09
-1.2294468e-09
-1.23108672e-09
-1.19300715e-09
-1.18768785e-09
-1.18836278e-09
-1.22986895e-09
-1.22884207e-09
-1.21015786e-09
-1.18780501e-09
-1.18684892e-09
-1.20998754e-09
-1.23058734e-09
-1.22887667e-09
-1.22797384e-09
-1.22045402e-09
-1.18978409e-09
-1.18748634e-09
-1.18485837e-09
-1.18373275e-09
-1.19089403e-09
-1.23165257e-09
-1.22781943e-09
-1.19202733e-09
-1.18359493e-09
-1.2043923e-09
-1.23056551e-09
-1.22464561e-09
-1.22535128e-09
-1.1892561e-09
-1.17829735e-09
-1.20829972e-09
-1.22081001e-09
-1.21995593e-09
-1.21604051e-09
-1.21447733e-09
-1.21066688e-09
-1.20838987e-09
-1.20479465e-09
-1.20195651e-09
-1.19846777e-09
-1.19502434e-09
-1.19182586e-09
-1.18759655e-09
-1.18502956e-09
-1.1809484e-09
-1.17808021e-09
-1.17528363e-09
-1.17541511e-09
-1.16872735e-09
-1.16491301e-09
-1.15718155e-09
-1.15291536e-09
-1.1424468e-09
-1.13766769e-09
-1.12650048e-09
-1.12164836e-09
-1.12071154e-09
-1.11268076e-09
-1.10447475e-09
-1.0947375e-09
-1.07999782e-09
-1.06921413e-09
-1.04930528e-09
-1.0357886e-09
-1.01641911e-09
-1.01169786e-09
-1.03615893e-09
-9.85900778e-10
-9.54972669e-10
-9.55088122e-10
-9.60281353e-10
-9.19813225e-10
-9.14213865e-10
-8.6657363e-10
-9.08489943e-10
-8.12212892e-10
-8.94824613e-10
-7.53267657e-10
-8.02182775e-10
-6.77009678e-10
-6.65926314e-10
-6.23922493e-10
-6.05952723e-10
-5.82774909e-10
-5.58606336e-10
-5.42768567e-10
-5.18565826e-10
-5.05904645e-10
-4.8119897e-10
-4.66011823e-10
-4.39220975e-10
-4.21263679e-10
-3.97714795e-10
-3.81654626e-10
-3.61060365e-10
-3.47262353e-10
-3.29039591e-10
-3.17177842e-10
-3.00952394e-10
-2.90681354e-10
-2.75867499e-10
-2.6667899e-10
-2.52791108e-10
-2.44743521e-10
-2.29684963e-10
-2.2910106e-10
-2.22416077e-10
-2.03793097e-10
-1.89365404e-10
-2.06928264e-10
-1.98745277e-10
-1.69256816e-10
-1.62256898e-10
-1.82255196e-10
-1.69673684e-10
-1.5127253e-10
-1.49543512e-10
-1.55511666e-10
-1.47103216e-10
-1.42991625e-10
-1.39769896e-10
-1.3720039e-10
-1.3361489e-10
-1.31855711e-10
-1.29184545e-10
-1.2063892e-10
-1.19995026e-10
-1.28974503e-10
-1.22404586e-10
-9.56904266e-11
-1.05293454e-10
-1.26205646e-10
-1.09969994e-10
-8.55336749e-11
-1.00325887e-10
-1.15495748e-10
-9.53870544e-11
-8.54715557e-11
-1.00190496e-10
-1.09659663e-10
-8.93748734e-11
-8.55680579e-11
-9.84370097e-11
-1.05164445e-10
-8.75340016e-11
-8.56398451e-11
-9.66944446e-11
-1.00744248e-10
-8.68764688e-11
-8.56997678e-11
-9.49107858e-11
-9.82043898e-11
-8.62681344e-11
-8.57072524e-11
-9.37178441e-11
-9.59075056e-11
-8.60817288e-11
-8.62210442e-11
-9.19150303e-11
)
;

boundaryField
{
    closed
    {
        type            calculated;
        value           nonuniform List<scalar> 0();
    }
    open
    {
        type            calculated;
        value           nonuniform List<scalar> 0();
    }
    sides
    {
        type            empty;
    }
    procBoundary4to3
    {
        type            processor;
        value           uniform -1.21733129e-09;
    }
    procBoundary4to5
    {
        type            processor;
        value           uniform -9.26565184e-11;
    }
}


// ************************************************************************* //
