/*--------------------------------*- C++ -*----------------------------------*\
| =========                 |                                                 |
| \\      /  F ield         | OpenFOAM: The Open Source CFD Toolbox           |
|  \\    /   O peration     | Version:  2306                                  |
|   \\  /    A nd           | Website:  www.openfoam.com                      |
|    \\/     M anipulation  |                                                 |
\*---------------------------------------------------------------------------*/
FoamFile
{
    version     2.0;
    format      ascii;
    arch        "LSB;label=32;scalar=64";
    class       volScalarField;
    location    "0.00064";
    object      prefDh_T;
}
// * * * * * * * * * * * * * * * * * * * * * * * * * * * * * * * * * * * * * //

dimensions      [1 1 -3 -1 0 0 0];

internalField   nonuniform List<scalar> 
531
(
-0.000745683344
-0.000668700125
-0.000588790059
-0.000600452441
-0.000593750947
-0.000592311869
-0.000602070513
-0.000601856545
-0.000720903211
-0.000743553732
-0.000590248729
-0.000587812779
-0.000655770476
-0.000737103563
-0.000587715861
-0.000567423304
-0.000634183178
-0.000734849662
-0.000586607109
-0.00057669571
-0.000632606689
-0.000726312572
-0.000587853245
-0.00058213799
-0.000632663425
-0.000738788797
-0.000617243206
-0.000557634847
-0.000552829514
-0.000665540014
-0.000741498537
-0.000621497804
-0.000570242649
-0.00054166415
-0.000603902537
-0.000732336737
-0.000744671044
-0.000606182303
-0.000589520948
-0.000503547895
-0.000497444048
-0.000645656626
-0.000734385333
-0.000606235283
-0.00054668888
-0.000522956768
-0.000596422911
-0.000731249522
-0.000736715035
-0.000590083086
-0.000505009514
-0.000503645984
-0.000670702665
-0.000711985999
-0.000596513079
-0.000573586472
-0.000650694036
-0.000708224038
-0.000596466991
-0.000594797131
-0.000666177899
-0.00071577794
-0.000597756184
-0.000580228104
-0.00064204578
-0.000734895579
-0.000603098032
-0.000529332427
-0.000572224963
-0.000696174755
-0.000701586937
-0.000605044845
-0.000568399357
-0.000643368834
-0.000737791194
-0.000613180117
-0.000549925356
-0.000534836155
-0.000650935968
-0.000739677379
-0.000623817373
-0.000569775767
-0.000541449995
-0.000610089493
-0.000735557452
-0.000743154662
-0.000596706875
-0.000589333637
-0.00056803185
-0.000534088707
-0.000497991957
-0.000580672049
-0.000713512249
-0.00074692063
-0.000617464826
-0.000574312861
-0.000588193529
-0.000717172229
-0.000687545754
-0.000581697977
-0.000595875529
-0.000710442658
-0.000672693104
-0.000578272858
-0.000589846912
-0.000716790601
-0.00060235224
-0.000567391088
-0.000589979913
-0.000730589411
-0.000618686284
-0.000565118905
-0.000580137686
-0.000703375857
-0.000743827896
-0.000611687189
-0.000550561721
-0.000538315448
-0.000671280118
-0.000736235361
-0.00061189187
-0.000510220987
-0.000472536853
-0.000623450483
-0.000728959587
-0.000591593268
-0.000551154753
-0.000651570952
-0.000730708106
-0.000595295412
-0.000566389354
-0.000653889728
-0.00073750807
-0.000619064151
-0.000548804444
-0.000499269289
-0.000583742008
-0.000730188175
-0.000740938799
-0.000587164866
-0.00051346527
-0.000591733819
-0.000715325181
-0.000729845353
-0.000601645844
-0.000543752622
-0.000653851396
-0.000737936484
-0.000610425032
-0.000526619474
-0.000526218233
-0.000715147424
-0.000730350498
-0.000605643654
-0.000559185006
-0.000684153811
-0.00073945278
-0.000607078784
-0.00051669547
-0.000492524032
-0.000616675257
-0.000736206318
-0.00061998844
-0.000556337985
-0.000554646399
-0.000719410624
-0.000745143927
-0.00059275249
-0.000527938706
-0.00058171659
-0.000724242294
-0.000746116436
-0.000594430979
-0.000520005243
-0.000547390273
-0.000725125564
-0.000745539069
-0.000592064884
-0.000511002781
-0.000549978548
-0.000727849773
-0.000745419657
-0.000590270527
-0.000510290597
-0.000574782802
-0.000714475544
-0.000750719973
-0.000740127414
-0.000591155723
-0.000576909068
-0.000556931503
-0.000497558724
-0.000487107294
-0.000601624161
-0.00073509178
-0.000731945597
-0.000741381988
-0.000731546616
-0.000595660365
-0.000544733023
-0.00049972865
-0.000499261851
-0.000624776323
-0.000740925715
-0.000740082625
-0.000590774533
-0.000530684863
-0.000586171958
-0.000730402884
-0.000746577233
-0.000589991257
-0.000500929856
-0.000565819061
-0.000729557452
-0.000744654163
-0.000589402832
-0.000493151985
-0.000590439449
-0.000726626369
-0.000691251541
-0.000572968429
-0.00059259586
-0.000731537845
-0.000745578829
-0.000589665348
-0.000510936969
-0.000573934929
-0.000728692131
-0.000746176154
-0.000589689207
-0.000506208368
-0.000573754694
-0.000729993407
-0.000746936721
-0.00058929186
-0.000499015455
-0.000538195955
-0.000724215597
-0.000748972089
-0.000618704476
-0.000585763334
-0.000598524153
-0.000716509856
-0.000751505754
-0.000708539667
-0.000588742633
-0.000573594169
-0.000574270218
-0.000549002398
-0.000503575607
-0.000586514948
-0.000731640186
-0.000687917449
-0.000580329058
-0.000573490218
-0.000717631712
-0.000751266154
-0.000599704682
-0.000581216156
-0.000588058309
-0.000738355072
-0.000746896075
-0.000588070325
-0.000485087637
-0.000484672817
-0.00071677904
-0.00074616411
-0.000608141197
-0.000572665241
-0.000599380093
-0.000718394364
-0.000751398817
-0.000670424178
-0.000590355992
-0.000574906938
-0.000559817851
-0.000492011125
-0.000495375737
-0.000658772897
-0.000737720163
-0.000733361442
-0.000743331326
-0.000627141372
-0.000593436265
-0.000473978098
-0.000522136973
-0.000718614494
-0.000724811751
-0.000578105548
-0.000536410182
-0.000620919626
-0.00074305097
-0.000743971037
-0.00059050351
-0.000532244955
-0.000526571646
-0.000626854984
-0.000741800122
-0.000744808652
-0.000594298081
-0.000573975313
-0.000508529267
-0.00050201764
-0.000611788657
-0.000741246921
-0.00073815106
-0.000584504883
-0.000509980563
-0.000593400187
-0.000717692582
-0.000748821759
-0.000737719551
-0.000617638378
-0.000610002251
-0.000552104476
-0.000470644478
-0.000532739764
-0.000702721833
-0.000707029061
-0.000578344451
-0.000518306534
-0.000593803626
-0.00073015133
-0.000735394316
-0.000739853036
-0.000689666102
-0.000599176512
-0.000549849918
-0.000479464371
-0.000501854289
-0.000701733039
-0.000741625169
-0.00059028714
-0.000562868769
-0.000589630738
-0.000732451693
-0.000739517418
-0.000587512863
-0.000513186498
-0.000557811372
-0.0007128603
-0.000745570838
-0.000601291235
-0.000547650026
-0.00055403696
-0.0006566019
-0.000744166347
-0.000741814495
-0.000600762264
-0.000600366812
-0.000561721696
-0.000502061176
-0.000479874699
-0.000582918085
-0.000722702392
-0.000743991213
-0.00074190328
-0.000637523948
-0.000597379482
-0.000506409913
-0.000501955305
-0.000630036929
-0.000740217321
-0.00074056689
-0.000585145512
-0.000519707848
-0.000598916018
-0.000715630897
-0.000724620221
-0.000601825841
-0.000538748253
-0.000599135842
-0.000736614054
-0.00069545085
-0.000589466365
-0.000497517933
-0.000527672589
-0.000692608386
-0.000744274126
-0.000608047277
-0.000522850042
-0.000494244543
-0.000602627875
-0.000741917146
-0.0007475318
-0.000751739268
-0.000645869351
-0.000586875793
-0.000532107878
-0.000473050414
-0.000438452286
-0.000552641627
-0.000755970478
-0.000783233082
-0.000546556226
-0.000470117645
-0.000564749028
-0.000785892397
-0.000796604979
-0.000786149593
-0.000505332747
-0.000425666184
-0.000571010301
-0.000749972713
-0.000747151437
-0.000746800016
-0.000744194842
-0.000740340193
-0.000737545842
-0.000733835221
-0.000732158493
-0.000730422609
-0.000730891342
-0.000732738917
-0.000737047204
-0.000743112636
-0.000756782801
-0.000771794243
-0.000822926759
-0.000887949493
-0.000820081273
-0.000785732282
-0.000727113688
-0.000702048633
-0.000652687309
-0.00063961566
-0.000596872617
-0.000577467365
-0.000581064695
-0.000546257343
-0.000521759915
-0.000507432395
-0.000484881018
-0.000465071886
-0.000399350827
-0.000358080828
-0.000294705489
-0.000389779299
-0.000634670067
-0.000391471793
-0.000389339594
-0.000418321085
-0.000426296504
-0.000253297529
-0.000228233874
-2.97950323e-05
-0.000380894388
-0.000321997246
-0.000509797879
-0.000617271645
-0.000640645023
-0.00108312887
-0.00119293946
-0.00117206494
-0.00116852722
-0.00113382003
-0.00106897751
-0.00102769902
-0.000920443635
-0.000869208735
-0.000732059938
-0.000671088256
-0.000517034292
-0.000441284139
-0.000281835299
-0.000199210751
-4.63016174e-05
2.82342031e-05
0.000175013613
0.000247882997
0.000390758827
0.000469014373
0.000624173382
0.000677011381
0.000800328578
0.000943308685
0.00122506546
0.00104007244
0.000940807232
0.00170873781
0.00214172478
0.00111925143
0.00122946486
0.00272091454
0.00315708137
0.00169551529
0.00226511298
0.0033711415
0.00345704664
0.00278720041
0.00326177905
0.00355546456
0.00375266795
0.00384082244
0.00409038718
0.00409005167
0.00432053329
0.00507469449
0.00506365525
0.00400923442
0.00471285007
0.00732187995
0.00632158581
0.00409073745
0.00579895287
0.00843477928
0.00678085604
0.00507940112
0.00734233411
0.00841875906
0.00673120825
0.00563762756
0.0080383322
0.00840581285
0.00689200706
0.00608617285
0.0082267812
0.00839265188
0.00706790588
0.00657011357
0.00827221716
0.00837780858
0.00726104937
0.00684518035
0.00831251274
0.00836463642
0.007385175
0.00709852438
0.00831093968
0.0082903228
0.00758520787
)
;

boundaryField
{
    closed
    {
        type            calculated;
        value           nonuniform List<scalar> 0();
    }
    open
    {
        type            calculated;
        value           nonuniform List<scalar> 0();
    }
    sides
    {
        type            empty;
    }
    procBoundary4to3
    {
        type            processor;
        value           uniform -0.00063237073;
    }
    procBoundary4to5
    {
        type            processor;
        value           uniform 0.00748907315;
    }
}


// ************************************************************************* //
