/*--------------------------------*- C++ -*----------------------------------*\
| =========                 |                                                 |
| \\      /  F ield         | OpenFOAM: The Open Source CFD Toolbox           |
|  \\    /   O peration     | Version:  2306                                  |
|   \\  /    A nd           | Website:  www.openfoam.com                      |
|    \\/     M anipulation  |                                                 |
\*---------------------------------------------------------------------------*/
FoamFile
{
    version     2.0;
    format      ascii;
    arch        "LSB;label=32;scalar=64";
    class       volScalarField;
    location    "0.0008";
    object      h;
}
// * * * * * * * * * * * * * * * * * * * * * * * * * * * * * * * * * * * * * //

dimensions      [0 2 -2 0 0 0 0];

internalField   nonuniform List<scalar> 
530
(
-199729.915
-222644.282
-222599.9
-191333.928
-193554.32
-210852.499
-214593.541
-190943.661
-186993.264
-193097.273
-207267.85
-200690.642
-182083.422
-186269.941
-200800.384
-200812.298
-177562.3
-181204.107
-194431.689
-194737.961
-172674.918
-176285.132
-188516
-188801.512
-168121.739
-171377.946
-183066.893
-183118.333
-163654.299
-166427.572
-177876.312
-177697.236
-159246.946
-161757.901
-172883.575
-172646.945
-154892.703
-157149.887
-168028.888
-167802.748
-150587.152
-152600.211
-163303.27
-163086.359
-146301.611
-148097.346
-158651.974
-158438.252
-142003.014
-143687.87
-154042.676
-153810.912
-137712.566
-139371.083
-149430.085
-149225.976
-133402.559
-135096.107
-144866.31
-144572.236
-129087.11
-130847.114
-140334.777
-139915.311
-124776.234
-126628.212
-135827.006
-135310.746
-120481.517
-122421.445
-131338.111
-130759.847
-116217.014
-118196.624
-126858.534
-126229.728
-111971.38
-113958.486
-122282.857
-121710.023
-107689.12
-109685.02
-117626.371
-117088.861
-103401.019
-105343.244
-112933.89
-112404.307
-99127.6015
-100991.182
-108261.604
-107715.506
-94851.6483
-96629.7021
-103611.127
-103046.855
-90581.9812
-92272.0754
-98975.4894
-98437.4621
-86355.9561
-87949.6691
-94464.7551
-93899.1519
-82176.4542
-83702.6493
-90030.9974
-89473.8328
-78016.2657
-79505.2244
-85648.3332
-85093.2466
-73883.5106
-75349.4819
-81279.6823
-80736.9924
-69804.2941
-71253.4565
-76943.6183
-76434.6072
-65778.6679
-67221.6927
-72739.0019
-72179.4598
-61884.8009
-63274.8851
-68727.9266
-68096.7846
-58131.7431
-59477.0278
-64831.8474
-64197.0282
-54503.3637
-55767.8879
-61031.5186
-60426.5844
-50986.2761
-52180.4606
-57359.9112
-56770.8879
-47558.6396
-48716.0008
-53812.523
-53236.9578
-44256.4557
-45378.4776
-50382.2902
-49823.7216
-41061.9795
-42137.8575
-46986.5177
-46511.2722
-37957.2394
-38965.0004
-43669.5906
-43269.1162
-35006.0725
-35928.765
-40475.1999
-40143.1845
-32162.1433
-33031.6598
-37420.4499
-37127.6686
-29401.9214
-30245.4276
-34493.3847
-34265.4902
-26807.1945
-27553.7557
-31724.3224
-31536.6505
-24326.5475
-25038.4649
-29059.6874
-28921.8051
-21973.0845
-22639.5577
-26561.0439
-26426.92
-19780.352
-20372.9117
-24200.8645
-24093.8054
-17750.2723
-18249.8994
-21965.2193
-21890.8368
-15825.1892
-16258.2008
-19869.8924
-19806.6496
-13986.8002
-14386.4993
-17894.4481
-17846.3962
-12250.3658
-12623.1719
-16032.8941
-16012.7032
-10577.0277
-11001.3005
-14306.9851
-14291.8599
-8972.63252
-9497.70887
-12729.7343
-12659.9409
-7510.64801
-8109.67671
-11262.6527
-11142.4812
-6209.97194
-6832.11351
-9884.81902
-9729.02321
-5043.03941
-5657.56531
-8598.42065
-8418.6666
-3975.23722
-4551.49164
-7409.29749
-7241.2872
-2993.59277
-3544.62897
-6319.13737
-6171.27316
-2095.45797
-2649.83952
-5322.54968
-5187.76676
-1274.09298
-1833.37608
-4408.1793
-4288.15111
-533.415856
-1090.80313
-3576.50224
-3473.01305
103.295659
-416.067104
-2838.0643
-2738.91434
657.466501
188.18844
-2165.21522
-2076.31114
1134.53118
722.755183
-1560.19609
-1481.93915
1553.95038
1195.11804
-1017.04845
-948.240356
1909.98971
1600.82612
-534.834875
-470.909065
2235.86646
1959.78722
-126.616373
-42.5161452
2510.51766
2246.65769
257.504708
339.575794
2736.00112
2489.74637
598.749322
676.307732
2919.16184
2691.85656
900.27751
974.505191
3063.80332
2855.77325
1167.88982
1233.64759
3175.00431
2991.45779
1396.52228
1458.38546
3261.39098
3097.28073
1592.95169
1652.05573
3324.46471
3176.57809
1761.42387
1819.9466
3366.97934
3212.34048
1915.1843
1963.21153
3400.83929
3243.16683
2039.91638
2079.21207
3403.89125
3291.06256
2173.77889
2178.63061
3346.14223
3320.62504
2278.49788
2245.64061
3300.04927
3323.89707
2358.91739
2305.05416
3257.02382
3307.68343
2418.45766
2354.36729
3217.74734
3278.14892
2461.63272
2393.44186
3179.01922
3241.99645
2492.19801
2422.41431
3140.14551
3201.94221
2512.46359
2442.67767
3100.77575
3159.43413
2524.15839
2455.84656
3060.95448
3115.27583
2529.12813
2463.02033
3020.61908
3070.30589
2528.81059
2465.29925
2979.94864
3025.12496
2524.38738
2463.65854
2939.2057
2980.22257
2516.83244
2458.95081
2898.69425
2935.99492
2506.94997
2451.9109
2858.71776
2892.76656
2495.4054
2443.1637
2819.55731
2850.8018
2482.74705
2433.23515
2781.4639
2810.30967
2469.42234
2422.56426
2744.65988
2771.44365
2455.78998
2411.51565
2709.33894
2734.30255
2442.12855
2400.39331
2675.64478
2698.95011
2428.65397
2389.44776
2643.65621
2665.43565
2415.58661
2378.83556
2613.38362
2633.80537
2403.14508
2368.6402
2584.80063
2604.0388
2391.5405
2358.91108
2557.53714
2576.26659
2381.25271
2349.4871
2530.78861
2550.68213
2372.12602
2341.06669
2504.09409
2526.25125
2365.35843
2333.67969
2474.71554
2503.05925
2364.22664
2327.2979
2431.08994
2481.09664
2408.16521
2322.32522
2380.01532
2461.25259
2440.9971
2317.93632
2326.48659
2443.64597
2433.08406
2313.01953
2314.18192
2428.10128
2417.73664
2307.57515
2308.54383
2416.27048
2400.84561
2302.81427
2305.00951
2403.91611
2387.97187
2297.1628
2301.42287
2391.99798
2375.70498
2293.52849
2298.23106
2380.01437
2364.8341
2290.9588
2295.20667
2368.39559
2355.09587
2289.08066
2292.49217
2357.47537
2346.16883
2287.66102
2290.21422
2347.62394
2337.97345
2287.09573
2289.05132
2337.3971
2329.48518
2293.94899
2293.11339
2330.39317
2322.5768
2312.20496
2307.85998
2313.18659
2308.32515
2308.59031
2304.31066
2305.05432
2301.19607
2301.28283
2297.89277
2297.51875
2294.6023
2293.80857
2291.35678
2290.23478
2288.24334
2286.88984
2285.21526
2283.8615
2282.54066
2281.28484
2279.91929
2278.22885
2277.17036
2276.0981
2275.42919
2274.85594
2274.49237
2274.23496
2274.07773
2273.9851
2273.93422
2273.90973
2273.8987
2273.89486
2273.89387
2273.89391
2273.89415
2273.89437
2273.8945
2273.89457
2273.89459
2273.8946
2273.89461
2273.89461
2273.89461
2273.89461
2273.89461
2273.89461
2273.89461
2273.89461
2273.89461
2273.89461
2273.89461
2273.89461
2273.89461
2273.89461
2273.89461
2273.89461
2273.89461
2273.89461
2273.89461
2273.89461
2273.89461
2273.89461
2273.89461
2273.89461
2273.89461
2273.89461
2273.89461
2273.89461
2273.89461
2273.89461
2273.89461
2273.89461
)
;

boundaryField
{
    closed
    {
        type            lookUpEnthalpy;
        h0              nonuniform List<scalar> 0();
        value           nonuniform List<scalar> 0();
    }
    open
    {
        type            zeroGradient;
    }
    sides
    {
        type            empty;
    }
    procBoundary5to4
    {
        type            processor;
        value           uniform -194326.635;
    }
}


// ************************************************************************* //
