/*--------------------------------*- C++ -*----------------------------------*\
| =========                 |                                                 |
| \\      /  F ield         | OpenFOAM: The Open Source CFD Toolbox           |
|  \\    /   O peration     | Version:  2306                                  |
|   \\  /    A nd           | Website:  www.openfoam.com                      |
|    \\/     M anipulation  |                                                 |
\*---------------------------------------------------------------------------*/
FoamFile
{
    version     2.0;
    format      ascii;
    arch        "LSB;label=32;scalar=64";
    class       volScalarField;
    location    "0.0008";
    object      prefDh_H2O;
}
// * * * * * * * * * * * * * * * * * * * * * * * * * * * * * * * * * * * * * //

dimensions      [1 1 -3 0 0 0 0];

internalField   nonuniform List<scalar> 
530
(
-196.784793
-202.157766
-202.112451
-196.656003
-197.296696
-201.932578
-202.401802
-198.577224
-197.671343
-199.822835
-202.671132
-201.819141
-198.190469
-199.006277
-202.88802
-202.894479
-198.710469
-199.406341
-203.097586
-203.064065
-199.073983
-199.789371
-203.277702
-203.242759
-199.471954
-200.105346
-203.433354
-203.412779
-199.837745
-200.363611
-203.572009
-203.568338
-200.12757
-200.642905
-203.701787
-203.704566
-200.360912
-200.85399
-203.828912
-203.833485
-200.591324
-201.03073
-203.954744
-203.960075
-200.808583
-201.202196
-204.082371
-204.08867
-201.008709
-201.384736
-204.214074
-204.221966
-201.200549
-201.578131
-204.345086
-204.352744
-201.378993
-201.775842
-204.479062
-204.492042
-201.571363
-201.98896
-204.616801
-204.636964
-201.757923
-202.214803
-204.758373
-204.784459
-201.944051
-202.436356
-204.903941
-204.933966
-202.137667
-202.6504
-205.05099
-205.082925
-202.337535
-202.86338
-205.20342
-205.232968
-202.545047
-203.073139
-205.364136
-205.39163
-202.782308
-203.292797
-205.530799
-205.557519
-203.025046
-203.521477
-205.700206
-205.727658
-203.267479
-203.74551
-205.869278
-205.89692
-203.511652
-203.969117
-206.036626
-206.063584
-203.760381
-204.193283
-206.20159
-206.2304
-203.984435
-204.418661
-206.365929
-206.395033
-204.194437
-204.622379
-206.530872
-206.56041
-204.406466
-204.832733
-206.695813
-206.724158
-204.622323
-205.044362
-206.857823
-206.884973
-204.840043
-205.257449
-207.016832
-207.046338
-205.063609
-205.471318
-207.170072
-207.202872
-205.257231
-205.665599
-207.320744
-207.353612
-205.457444
-205.840152
-207.469507
-207.499679
-205.655784
-206.01627
-207.60901
-207.637748
-205.837584
-206.192098
-207.745101
-207.772526
-206.017352
-206.366889
-207.878223
-207.903895
-206.187426
-206.536328
-208.011189
-208.032434
-206.367783
-206.692363
-208.14221
-208.159579
-206.555022
-206.854617
-208.269392
-208.283258
-206.730418
-207.018577
-208.388175
-208.399216
-206.888208
-207.171981
-208.501929
-208.509865
-207.05824
-207.307759
-208.610301
-208.616234
-207.217695
-207.459698
-208.715906
-208.719328
-207.370737
-207.598587
-208.81553
-208.8187
-207.522652
-207.731205
-208.910656
-208.912517
-207.668687
-207.847858
-209.001546
-209.001987
-207.805544
-207.963022
-209.087483
-209.087506
-207.926899
-208.071171
-209.163447
-209.162881
-208.039796
-208.171058
-209.234325
-209.232317
-208.131721
-208.275451
-209.300542
-209.298154
-208.203934
-208.376504
-209.361489
-209.361135
-208.276952
-208.475088
-209.418854
-209.420472
-208.362332
-208.569762
-209.47335
-209.476452
-208.453989
-208.660923
-209.524834
-209.528955
-208.541971
-208.740909
-209.57301
-209.576701
-208.62324
-208.816983
-209.617818
-209.620697
-208.698206
-208.893408
-209.659408
-209.6617
-208.766909
-208.965234
-209.698136
-209.69982
-208.832893
-209.031071
-209.733926
-209.735024
-208.90248
-209.089457
-209.76635
-209.76744
-208.973033
-209.143291
-209.796465
-209.797335
-209.043916
-209.193996
-209.82415
-209.824787
-209.109625
-209.242372
-209.849516
-209.850122
-209.174942
-209.290952
-209.872637
-209.873342
-209.229258
-209.332622
-209.892646
-209.894273
-209.282818
-209.382429
-209.911435
-209.913183
-209.336245
-209.429522
-209.928654
-209.930417
-209.388207
-209.474558
-209.944389
-209.946205
-209.438886
-209.518378
-209.95882
-209.960509
-209.487324
-209.558378
-209.971744
-209.973458
-209.531734
-209.596498
-209.983378
-209.985156
-209.573141
-209.632645
-209.993865
-209.995809
-209.612249
-209.675048
-210.003734
-210.005421
-209.646021
-209.709772
-210.012422
-210.013963
-209.684846
-209.730598
-210.021087
-210.021888
-209.739921
-209.748138
-210.02856
-210.028224
-209.782299
-209.769332
-210.035091
-210.033977
-209.817038
-209.792441
-210.040695
-210.039136
-209.845061
-209.815987
-210.045503
-210.043716
-209.868818
-209.837771
-210.049639
-210.047733
-209.889009
-209.857686
-210.053192
-210.051243
-209.906391
-209.875753
-210.056242
-210.054302
-209.921496
-209.892153
-210.058861
-210.056959
-209.934803
-209.907017
-210.061109
-210.059261
-209.946653
-209.9205
-210.063038
-210.061251
-209.9573
-209.93275
-210.06469
-210.062968
-209.966931
-209.943903
-210.066103
-210.064448
-209.975693
-209.954082
-210.067309
-210.06572
-209.983699
-209.963393
-210.068337
-210.066813
-209.991039
-209.97193
-210.069212
-210.067751
-209.997782
-209.979779
-210.069953
-210.068556
-210.00398
-209.987018
-210.07058
-210.069247
-210.009677
-209.993718
-210.071108
-210.069839
-210.01492
-209.999938
-210.071554
-210.070348
-210.019787
-210.005699
-210.071931
-210.070784
-210.024345
-210.011039
-210.072257
-210.071154
-210.028768
-210.015935
-210.072559
-210.071459
-210.033384
-210.020338
-210.072836
-210.071736
-210.038336
-210.024734
-210.073154
-210.07199
-210.044876
-210.029041
-210.073657
-210.072229
-210.057308
-210.033284
-210.065122
-210.07247
-210.074375
-210.037182
-210.047663
-210.072685
-210.073111
-210.04051
-210.044724
-210.072842
-210.072898
-210.043369
-210.046486
-210.072937
-210.07294
-210.044929
-210.049858
-210.07302
-210.073049
-210.046802
-210.052087
-210.07303
-210.073137
-210.048777
-210.054389
-210.073091
-210.073218
-210.051097
-210.056376
-210.073168
-210.073284
-210.053548
-210.058132
-210.073251
-210.073343
-210.05597
-210.059792
-210.073335
-210.073402
-210.058273
-210.061462
-210.073441
-210.073493
-210.061152
-210.063746
-210.073795
-210.073765
-210.064282
-210.06671
-210.070121
-210.071427
-210.069008
-210.070378
-210.069841
-210.070958
-210.070275
-210.071217
-210.070775
-210.071551
-210.071276
-210.071902
-210.071784
-210.072279
-210.072293
-210.072678
-210.072792
-210.073098
-210.073278
-210.073509
-210.073725
-210.073798
-210.073754
-210.073727
-210.073698
-210.07368
-210.073663
-210.073653
-210.073644
-210.073639
-210.073636
-210.073634
-210.073633
-210.073632
-210.073632
-210.073632
-210.073632
-210.073632
-210.073632
-210.073632
-210.073632
-210.073632
-210.073632
-210.073632
-210.073632
-210.073632
-210.073632
-210.073632
-210.073632
-210.073632
-210.073632
-210.073632
-210.073632
-210.073632
-210.073632
-210.073632
-210.073632
-210.073632
-210.073632
-210.073632
-210.073632
-210.073632
-210.073632
-210.073632
-210.073632
-210.073632
-210.073632
-210.073632
-210.073632
-210.073632
-210.073632
-210.073632
-210.073632
-210.073632
-210.073632
)
;

boundaryField
{
    closed
    {
        type            calculated;
        value           nonuniform List<scalar> 0();
    }
    open
    {
        type            calculated;
        value           uniform -210.073632;
    }
    sides
    {
        type            empty;
    }
    procBoundary5to4
    {
        type            processor;
        value           uniform -195.614104;
    }
}


// ************************************************************************* //
