/*--------------------------------*- C++ -*----------------------------------*\
| =========                 |                                                 |
| \\      /  F ield         | OpenFOAM: The Open Source CFD Toolbox           |
|  \\    /   O peration     | Version:  2306                                  |
|   \\  /    A nd           | Website:  www.openfoam.com                      |
|    \\/     M anipulation  |                                                 |
\*---------------------------------------------------------------------------*/
FoamFile
{
    version     2.0;
    format      ascii;
    arch        "LSB;label=32;scalar=64";
    class       volScalarField;
    location    "0.00114";
    object      alpha;
}
// * * * * * * * * * * * * * * * * * * * * * * * * * * * * * * * * * * * * * //

dimensions      [1 -1 -1 0 0 0 0];

internalField   nonuniform List<scalar> 
531
(
3.67860424e-05
3.6247354e-05
3.55634678e-05
3.54253101e-05
3.59868069e-05
3.67697982e-05
3.63411314e-05
3.56260243e-05
3.54371434e-05
3.59369837e-05
3.67624682e-05
3.64698196e-05
3.56627888e-05
3.52918593e-05
3.53159426e-05
3.63814502e-05
3.68095356e-05
3.63749894e-05
3.57487341e-05
3.57604101e-05
3.66889585e-05
3.64763113e-05
3.56506435e-05
3.53303157e-05
3.57715904e-05
3.67578797e-05
3.65275895e-05
3.57968107e-05
3.57939538e-05
3.58189789e-05
3.57321894e-05
3.57039378e-05
3.57602579e-05
3.67519542e-05
3.65860376e-05
3.56650976e-05
3.52753933e-05
3.56956837e-05
3.66609634e-05
3.66715157e-05
3.56869745e-05
3.53070507e-05
3.57020994e-05
3.66735232e-05
3.67089575e-05
3.57510242e-05
3.57529103e-05
3.65292503e-05
3.66129049e-05
3.57451808e-05
3.57514801e-05
3.65436237e-05
3.66894916e-05
3.5709369e-05
3.54159901e-05
3.57689909e-05
3.67688715e-05
3.67545778e-05
3.57191562e-05
3.54540724e-05
3.54178343e-05
3.542478e-05
3.59976777e-05
3.68061249e-05
3.67016449e-05
3.56995227e-05
3.54068649e-05
3.57787526e-05
3.67933049e-05
3.64802822e-05
3.57434021e-05
3.57286009e-05
3.63063509e-05
3.68402507e-05
3.63010817e-05
3.56591608e-05
3.53591194e-05
3.53741202e-05
3.57850649e-05
3.68107493e-05
3.6763268e-05
3.57328052e-05
3.55672658e-05
3.58548685e-05
3.67987298e-05
3.64262698e-05
3.54401087e-05
3.53190801e-05
3.58382155e-05
3.68190191e-05
3.63920663e-05
3.57686404e-05
3.57847451e-05
3.58224137e-05
3.57239131e-05
3.57127523e-05
3.60781344e-05
3.68050728e-05
3.59648338e-05
3.55602985e-05
3.57121575e-05
3.67602241e-05
3.66342298e-05
3.56889679e-05
3.5471193e-05
3.59955959e-05
3.67661121e-05
3.59451985e-05
3.55885531e-05
3.57280713e-05
3.67796418e-05
3.662301e-05
3.56480459e-05
3.54898331e-05
3.59739242e-05
3.67881386e-05
3.61973208e-05
3.53989225e-05
3.54697398e-05
3.60356592e-05
3.67855226e-05
3.60898259e-05
3.53935021e-05
3.55027505e-05
3.61042706e-05
3.6782044e-05
3.60083858e-05
3.53876701e-05
3.55228938e-05
3.61531194e-05
3.67795424e-05
3.59511389e-05
3.5378649e-05
3.55506622e-05
3.6219e-05
3.67757383e-05
3.58932967e-05
3.54178465e-05
3.56612675e-05
3.64879026e-05
3.6759965e-05
3.57849203e-05
3.56067843e-05
3.57896316e-05
3.68174748e-05
3.64551139e-05
3.55080253e-05
3.55737084e-05
3.63570859e-05
3.67542469e-05
3.57828934e-05
3.56081148e-05
3.58255951e-05
3.68106098e-05
3.62249507e-05
3.54118031e-05
3.55424084e-05
3.63713654e-05
3.67584966e-05
3.57715565e-05
3.52910088e-05
3.53125716e-05
3.56809257e-05
3.65854738e-05
3.67706977e-05
3.57753926e-05
3.54119868e-05
3.57070092e-05
3.68056049e-05
3.67701689e-05
3.57426313e-05
3.55497244e-05
3.5816139e-05
3.68274759e-05
3.63933176e-05
3.54735452e-05
3.55878641e-05
3.65507505e-05
3.67666716e-05
3.5754465e-05
3.54444027e-05
3.57515106e-05
3.68223675e-05
3.66659625e-05
3.56150518e-05
3.57366244e-05
3.67878807e-05
3.67534117e-05
3.5633359e-05
3.53546234e-05
3.58196515e-05
3.68242897e-05
3.66734164e-05
3.53187817e-05
3.53121752e-05
3.58503269e-05
3.68235626e-05
3.64876133e-05
3.54057017e-05
3.54351302e-05
3.60092395e-05
3.68126391e-05
3.61552045e-05
3.54474963e-05
3.56038682e-05
3.63488283e-05
3.6800814e-05
3.59274917e-05
3.52830818e-05
3.52834569e-05
3.57196209e-05
3.67468773e-05
3.68133814e-05
3.59067471e-05
3.53695163e-05
3.54973101e-05
3.59769924e-05
3.68269233e-05
3.63384436e-05
3.55337458e-05
3.56759489e-05
3.66243862e-05
3.68021852e-05
3.58086238e-05
3.55693922e-05
3.58123262e-05
3.68348493e-05
3.63746194e-05
3.53239453e-05
3.5345361e-05
3.5898776e-05
3.6821731e-05
3.63916085e-05
3.53658032e-05
3.53800704e-05
3.5938977e-05
3.6819082e-05
3.62953791e-05
3.53433957e-05
3.53963759e-05
3.6079362e-05
3.68154748e-05
3.59119423e-05
3.56184788e-05
3.5827881e-05
3.68386255e-05
3.63936068e-05
3.53872451e-05
3.54270999e-05
3.60010347e-05
3.6819644e-05
3.63773938e-05
3.53166391e-05
3.53034614e-05
3.54923881e-05
3.55368388e-05
3.59005558e-05
3.68516475e-05
3.68361817e-05
3.5773222e-05
3.56984421e-05
3.58928083e-05
3.68388282e-05
3.63435929e-05
3.53313202e-05
3.53538058e-05
3.61891369e-05
3.68091047e-05
3.58599242e-05
3.55544448e-05
3.58134259e-05
3.68114687e-05
3.64426564e-05
3.53412755e-05
3.52899398e-05
3.58725061e-05
3.67902894e-05
3.63948963e-05
3.53227174e-05
3.52723299e-05
3.60878843e-05
3.67989473e-05
3.58552183e-05
3.55878171e-05
3.59338706e-05
3.67971345e-05
3.59056327e-05
3.55268644e-05
3.5748757e-05
3.67591951e-05
3.68025913e-05
3.56123574e-05
3.52921218e-05
3.57692955e-05
3.67296855e-05
3.67610411e-05
3.56489809e-05
3.53058806e-05
3.57456437e-05
3.67050789e-05
3.67377859e-05
3.56621612e-05
3.53163796e-05
3.57289087e-05
3.66831181e-05
3.66282233e-05
3.56724315e-05
3.53056202e-05
3.57461138e-05
3.67147491e-05
3.62984323e-05
3.57338493e-05
3.57234385e-05
3.66150124e-05
3.6485457e-05
3.56872129e-05
3.52691266e-05
3.56946648e-05
3.6656442e-05
3.64643152e-05
3.57357722e-05
3.5725585e-05
3.65067105e-05
3.65506688e-05
3.56907327e-05
3.52437315e-05
3.56606162e-05
3.66210526e-05
3.65437555e-05
3.57346292e-05
3.57402419e-05
3.62609037e-05
3.64097418e-05
3.57086851e-05
3.56175677e-05
3.58957569e-05
3.67065819e-05
3.60855041e-05
3.55980599e-05
3.56969708e-05
3.64500908e-05
3.65876091e-05
3.57280569e-05
3.55980681e-05
3.5776701e-05
3.66413612e-05
3.63146108e-05
3.57270899e-05
3.56907276e-05
3.63169456e-05
3.66289099e-05
3.57746329e-05
3.53960193e-05
3.56229641e-05
3.64445584e-05
3.67024255e-05
3.57419199e-05
3.57310188e-05
3.58790715e-05
3.62919563e-05
3.5784237e-05
3.57464577e-05
3.58313202e-05
3.67184789e-05
3.61809525e-05
3.55823818e-05
3.55581868e-05
3.62851006e-05
3.66460526e-05
3.57663374e-05
3.57626561e-05
3.59656863e-05
3.67067715e-05
3.59681351e-05
3.5517345e-05
3.55543452e-05
3.63324966e-05
3.67518833e-05
3.58812154e-05
3.54871547e-05
3.55694212e-05
3.64269034e-05
3.67527743e-05
3.58602657e-05
3.54874156e-05
3.56006316e-05
3.64974309e-05
3.67537115e-05
3.58369589e-05
3.54609775e-05
3.56080947e-05
3.6607248e-05
3.67606448e-05
3.58274606e-05
3.54927212e-05
3.54293308e-05
3.55357619e-05
3.61983662e-05
3.68226721e-05
3.67385355e-05
3.57343684e-05
3.53648389e-05
3.56236638e-05
3.67327689e-05
3.67590727e-05
3.57765875e-05
3.53820156e-05
3.56991901e-05
3.67357777e-05
3.6687548e-05
3.57692781e-05
3.57598852e-05
3.66928226e-05
3.67468626e-05
3.5733779e-05
3.52304956e-05
3.56942824e-05
3.67518751e-05
3.67158535e-05
3.57802337e-05
3.57656803e-05
3.67455588e-05
3.67399832e-05
3.57615053e-05
3.57607823e-05
3.64034851e-05
3.64130409e-05
3.57281597e-05
3.57243034e-05
3.67261723e-05
3.67922981e-05
3.57510292e-05
3.52518447e-05
3.56983931e-05
3.68099569e-05
3.68036333e-05
3.57538367e-05
3.56106726e-05
3.61765051e-05
3.68019409e-05
3.59030785e-05
3.54263107e-05
3.56394926e-05
3.68049002e-05
3.68030278e-05
3.57654099e-05
3.52953032e-05
3.56704279e-05
3.68267412e-05
3.68037789e-05
3.57425924e-05
3.52138165e-05
3.57029178e-05
3.68226619e-05
3.67975233e-05
3.57297791e-05
3.50755128e-05
3.5702828e-05
3.67967607e-05
3.67808536e-05
3.56642319e-05
3.57126998e-05
3.6849262e-05
3.68218738e-05
3.57319486e-05
3.53436242e-05
3.56136171e-05
3.6283421e-05
3.685214e-05
3.67930374e-05
3.57365546e-05
3.53676497e-05
3.5336585e-05
3.57330699e-05
3.68578958e-05
3.68248094e-05
3.5730701e-05
3.52637867e-05
3.57251895e-05
3.68325974e-05
3.68456594e-05
3.56952123e-05
3.57661495e-05
3.68740061e-05
3.68162556e-05
3.56826095e-05
3.50465693e-05
3.57165757e-05
3.6828262e-05
3.68460244e-05
3.56165935e-05
3.57299993e-05
3.68580083e-05
3.68276562e-05
3.55932735e-05
3.57297027e-05
3.68810105e-05
3.68120422e-05
3.57000015e-05
3.51061135e-05
3.57100879e-05
3.68528727e-05
3.68261696e-05
3.57194873e-05
3.51980586e-05
3.57131029e-05
3.68564239e-05
3.68248223e-05
3.57186057e-05
3.52325583e-05
3.57143481e-05
3.68573349e-05
3.68220773e-05
3.57170617e-05
3.52405671e-05
3.57142424e-05
3.68575493e-05
3.68195434e-05
3.57144027e-05
3.52374756e-05
3.57142123e-05
3.68583084e-05
3.68176555e-05
3.57117543e-05
3.52433164e-05
3.57163021e-05
3.68586143e-05
3.68149987e-05
3.57100371e-05
3.52542919e-05
3.57220621e-05
)
;

boundaryField
{
    closed
    {
        type            calculated;
        value           nonuniform List<scalar> 0();
    }
    open
    {
        type            calculated;
        value           nonuniform List<scalar> 0();
    }
    sides
    {
        type            empty;
    }
    procBoundary1to0
    {
        type            processor;
        value           uniform 3.61324631e-05;
    }
    procBoundary1to2
    {
        type            processor;
        value           uniform 3.68584183e-05;
    }
}


// ************************************************************************* //
