/*--------------------------------*- C++ -*----------------------------------*\
| =========                 |                                                 |
| \\      /  F ield         | OpenFOAM: The Open Source CFD Toolbox           |
|  \\    /   O peration     | Version:  2306                                  |
|   \\  /    A nd           | Website:  www.openfoam.com                      |
|    \\/     M anipulation  |                                                 |
\*---------------------------------------------------------------------------*/
FoamFile
{
    version     2.0;
    format      ascii;
    arch        "LSB;label=32;scalar=64";
    class       surfaceScalarField;
    location    "0.00114";
    object      phi;
}
// * * * * * * * * * * * * * * * * * * * * * * * * * * * * * * * * * * * * * //

dimensions      [1 0 -1 0 0 0 0];

oriented        oriented;

internalField   nonuniform List<scalar> 
530
(
2.55424713e-05
2.66776554e-05
2.74086166e-05
2.72989471e-05
2.60876636e-05
2.57557033e-05
2.67423067e-05
2.72644957e-05
2.69581916e-05
2.57084917e-05
2.5222014e-05
2.61124186e-05
2.6561891e-05
2.61274455e-05
2.5227621e-05
2.33818934e-05
2.29727476e-05
2.35486708e-05
2.31700794e-05
2.26963235e-05
2.20405872e-05
2.27182477e-05
2.29946277e-05
2.25719163e-05
2.17310645e-05
2.11982274e-05
2.17730254e-05
2.14754567e-05
2.10522529e-05
2.05772557e-05
2.01060013e-05
1.95519217e-05
1.86769784e-05
1.80030401e-05
1.83956719e-05
1.7755887e-05
1.69885407e-05
1.61522882e-05
1.51573618e-05
1.46788767e-05
1.38322862e-05
1.28523178e-05
1.18962981e-05
1.08265164e-05
1.0160426e-05
8.95797518e-06
7.75527463e-06
6.32478594e-06
5.36579314e-06
4.02630029e-06
2.72456948e-06
1.54223931e-06
5.86955828e-07
-7.21595639e-07
-2.15195446e-06
-3.25729551e-06
-4.1757921e-06
-5.13803158e-06
-6.1599031e-06
-7.32707394e-06
-8.26600632e-06
-8.97572341e-06
-9.5520796e-06
-1.02502811e-05
-1.10158262e-05
-1.16909717e-05
-1.22762121e-05
-1.2586379e-05
-1.29711304e-05
-1.35719353e-05
-1.38192999e-05
-1.41147721e-05
-1.37057042e-05
-1.39917338e-05
-1.46397911e-05
-1.54417655e-05
-1.55886437e-05
-1.53945734e-05
-1.50968186e-05
-1.49512378e-05
-1.50519952e-05
-1.49933757e-05
-1.47775542e-05
-1.43253367e-05
-1.41480486e-05
-1.4383312e-05
-1.48669508e-05
-1.45243806e-05
-1.40418714e-05
-1.38829082e-05
-1.42115077e-05
-1.4155122e-05
-1.40967219e-05
-1.40798663e-05
-1.40517833e-05
-1.40133555e-05
-1.34401263e-05
-1.3389296e-05
-1.37515701e-05
-1.37239098e-05
-1.36016989e-05
-1.3305084e-05
-1.34455737e-05
-1.40460617e-05
-1.38179571e-05
-1.32337777e-05
-1.30965187e-05
-1.33114219e-05
-1.31983864e-05
-1.29621808e-05
-1.26276728e-05
-1.26134534e-05
-1.29928558e-05
-1.2603985e-05
-1.19592351e-05
-1.16908417e-05
-1.20431387e-05
-1.18339411e-05
-1.13644321e-05
-1.07207318e-05
-1.0453764e-05
-1.06790287e-05
-1.04873664e-05
-1.00564358e-05
-9.46164883e-06
-9.26496563e-06
-9.48734757e-06
-9.41200588e-06
-9.099405e-06
-8.59322852e-06
-8.45731911e-06
-8.65708998e-06
-8.61569892e-06
-8.32947793e-06
-7.82422325e-06
-7.70338371e-06
-7.85945859e-06
-7.90216121e-06
-7.68347039e-06
-7.09864161e-06
-7.03514699e-06
-7.12775761e-06
-7.20118966e-06
-7.12519195e-06
-7.12545256e-06
-7.51338158e-06
-7.70344271e-06
-7.70852734e-06
-7.30737482e-06
-7.36347795e-06
-7.55612061e-06
-7.69414484e-06
-7.63809252e-06
-7.71025394e-06
-8.19053449e-06
-8.39184552e-06
-8.34390354e-06
-7.91191266e-06
-7.9820756e-06
-8.18147355e-06
-8.29004354e-06
-8.33131575e-06
-8.16584506e-06
-7.52642971e-06
-7.53509283e-06
-7.64262441e-06
-7.69596159e-06
-7.64529879e-06
-7.4944632e-06
-7.45030816e-06
-7.43497031e-06
-7.41359492e-06
-7.23802055e-06
-7.18484158e-06
-7.48860166e-06
-7.57451907e-06
-7.42466548e-06
-6.75076974e-06
-6.68038578e-06
-6.66310903e-06
-6.61545386e-06
-6.44964258e-06
-6.3162562e-06
-6.37639715e-06
-6.4156042e-06
-6.10852962e-06
-5.81472647e-06
-5.63803926e-06
-5.84635157e-06
-5.71281508e-06
-5.46479584e-06
-5.30375704e-06
-5.05575512e-06
-5.12004478e-06
-4.99552211e-06
-4.75507688e-06
-4.59188257e-06
-4.57755358e-06
-4.46080649e-06
-4.31933829e-06
-4.02703637e-06
-3.85743269e-06
-3.84576735e-06
-3.77353138e-06
-3.60325228e-06
-3.15535355e-06
-2.96169732e-06
-2.9508735e-06
-2.80901963e-06
-2.7065046e-06
-2.55855986e-06
-2.19085742e-06
-2.04068178e-06
-2.04810239e-06
-1.97699591e-06
-1.87948652e-06
-1.76891091e-06
-1.66056913e-06
-1.53220804e-06
-1.58351686e-06
-1.57509093e-06
-1.06423246e-06
-8.81697566e-07
-8.01647003e-07
-7.9151336e-07
-6.78528487e-07
-5.22210374e-07
-2.63608541e-07
-1.77512089e-07
-1.6735164e-07
-9.13728686e-08
4.8081884e-08
3.14324263e-07
3.89016356e-07
3.60794023e-07
4.0494983e-07
5.07390415e-07
7.489844e-07
8.10753626e-07
7.47037075e-07
8.21237531e-07
9.40734408e-07
1.04687609e-06
1.02710657e-06
1.05562035e-06
1.14029675e-06
1.47103145e-06
1.57686719e-06
1.52956098e-06
1.57506923e-06
1.69769021e-06
2.07534347e-06
2.30062405e-06
2.43805395e-06
2.62999345e-06
2.77318766e-06
2.96288657e-06
3.21185886e-06
3.65014576e-06
4.03009991e-06
4.35081901e-06
4.63109087e-06
5.02604183e-06
5.92917219e-06
6.61174546e-06
7.05989628e-06
7.31969129e-06
7.91676267e-06
8.76862834e-06
9.50945573e-06
1.00312698e-05
1.06374232e-05
1.22017087e-05
1.34700013e-05
1.42258695e-05
1.46715237e-05
1.53534875e-05
1.72085835e-05
1.87278674e-05
1.95852558e-05
1.95709232e-05
2.03723072e-05
2.1816501e-05
2.30171938e-05
2.31943363e-05
2.38426983e-05
2.53874656e-05
2.65981128e-05
2.71456762e-05
2.74138088e-05
2.82540637e-05
3.10740102e-05
3.19229329e-05
3.22164199e-05
3.2287869e-05
3.27193652e-05
3.56997363e-05
3.62248225e-05
3.63898942e-05
3.63724346e-05
3.70737389e-05
3.71970208e-05
3.78861799e-05
3.79670294e-05
3.74642275e-05
3.91759277e-05
4.03385269e-05
4.00984489e-05
3.89941273e-05
3.81017067e-05
3.91126738e-05
3.86258113e-05
3.80797397e-05
3.69014208e-05
3.80708175e-05
3.875804e-05
3.87186371e-05
3.82437809e-05
3.74129077e-05
3.89741267e-05
3.90259943e-05
3.90435377e-05
3.80057703e-05
3.79768517e-05
3.77806174e-05
3.77858204e-05
3.74032527e-05
3.64690338e-05
3.78376753e-05
3.7513524e-05
3.70951789e-05
3.50865955e-05
3.45991156e-05
3.40179318e-05
3.34079711e-05
3.19386534e-05
3.10566042e-05
3.14105451e-05
3.11026098e-05
3.02775293e-05
2.84668325e-05
2.75074796e-05
2.64119594e-05
2.50464252e-05
2.32322532e-05
2.14205198e-05
2.05950086e-05
1.86397095e-05
1.64983978e-05
1.37750215e-05
1.19481332e-05
1.00022628e-05
7.91874047e-06
5.60226977e-06
3.81099314e-06
2.4708831e-06
7.94071795e-07
-9.60272326e-07
-2.4612432e-06
-3.69346479e-06
-4.99862086e-06
-6.28323303e-06
-7.18922082e-06
-7.90679795e-06
-8.94348253e-06
-1.02334274e-05
-1.08759468e-05
-1.10569579e-05
-1.16707668e-05
-1.23793852e-05
-1.2830902e-05
-1.28625313e-05
-1.30240413e-05
-1.36950409e-05
-1.40291889e-05
-1.38127793e-05
-1.31664509e-05
-1.32058076e-05
-1.35572726e-05
-1.36536544e-05
-1.32438571e-05
-1.24315506e-05
-1.23891151e-05
-1.26412328e-05
-1.27213441e-05
-1.23279498e-05
-1.149347e-05
-1.14135586e-05
-1.15488431e-05
-1.15420631e-05
-1.10538827e-05
-1.00524763e-05
-9.80529682e-06
-9.70491444e-06
-9.73507982e-06
-9.46615977e-06
-8.99361255e-06
-8.43208516e-06
-8.17796102e-06
-8.08344314e-06
-7.97865787e-06
-7.95714641e-06
-7.58057078e-06
-6.9873659e-06
-6.79972256e-06
-6.76370722e-06
-6.78012035e-06
-6.48693683e-06
-6.15946489e-06
-5.88726791e-06
-5.68620822e-06
-5.5383125e-06
-4.79667577e-06
-4.61259059e-06
-4.48866165e-06
-4.50911372e-06
-4.17327752e-06
-3.83110216e-06
-3.50785579e-06
-3.24667703e-06
-3.00963552e-06
-2.58401671e-06
-2.20707573e-06
-1.93390931e-06
-1.91910143e-06
-1.45592434e-06
-1.1134543e-06
-1.14733497e-06
-1.13643347e-06
-5.25024839e-07
-3.17037087e-07
-2.05232183e-07
-2.31013251e-07
-2.03451508e-07
1.01936e-08
2.81088394e-07
3.94164228e-07
3.27052107e-07
4.88525533e-07
6.27198524e-07
7.21210554e-07
6.7912679e-07
6.41551964e-07
8.22056512e-07
9.56272227e-07
9.98761999e-07
9.39305214e-07
8.51606034e-07
9.35014385e-07
1.03879347e-06
1.04563477e-06
9.56812758e-07
8.30017561e-07
9.06240111e-07
1.05352072e-06
1.05101379e-06
9.4458773e-07
7.87980454e-07
8.59801312e-07
1.11729163e-06
1.00465963e-06
8.10221015e-07
9.16231862e-07
1.00677944e-06
1.01222114e-06
9.44295679e-07
8.9647417e-07
8.8762578e-07
8.82563446e-07
9.35496487e-07
9.11350255e-07
8.79243831e-07
8.56935625e-07
8.52055411e-07
8.54463143e-07
9.05794036e-07
8.61443305e-07
7.63658202e-07
7.09009419e-07
6.64531836e-07
7.04158989e-07
5.51488518e-07
4.538962e-07
3.8861936e-07
3.58630505e-07
2.06051962e-07
3.79032085e-08
-8.02821999e-08
-1.74447698e-07
-1.99618837e-07
-4.44746276e-07
-7.0102415e-07
-7.98181532e-07
-8.67547488e-07
-1.09196027e-06
-1.28587399e-06
-1.39940509e-06
-1.52181092e-06
-1.80842173e-06
-1.97162438e-06
-2.1166989e-06
-2.23935613e-06
-2.37792821e-06
-2.53221475e-06
-2.69198808e-06
-2.84481013e-06
-2.99066959e-06
-3.17625824e-06
-3.36391132e-06
-3.54271166e-06
-3.71426999e-06
-3.8779695e-06
-4.09552334e-06
-4.29234001e-06
-4.46388824e-06
-4.62609212e-06
-4.78346426e-06
-5.00947141e-06
-5.19069806e-06
-5.33577658e-06
-5.47520193e-06
-5.62503978e-06
-5.86259306e-06
-6.03693328e-06
-6.17337899e-06
-6.30749318e-06
-6.47111139e-06
-6.73974672e-06
-6.91887142e-06
-7.04365949e-06
)
;

boundaryField
{
    closed
    {
        type            calculated;
        value           nonuniform List<scalar> 0();
    }
    open
    {
        type            calculated;
        value           nonuniform List<scalar> 0();
    }
    sides
    {
        type            empty;
        value           nonuniform List<scalar> 0();
    }
    procBoundary1to0
    {
        type            processor;
        value           uniform -2.56357586e-05;
    }
    procBoundary1to2
    {
        type            processor;
        value           uniform -7.15076452e-06;
    }
}


// ************************************************************************* //
