/*--------------------------------*- C++ -*----------------------------------*\
| =========                 |                                                 |
| \\      /  F ield         | OpenFOAM: The Open Source CFD Toolbox           |
|  \\    /   O peration     | Version:  2306                                  |
|   \\  /    A nd           | Website:  www.openfoam.com                      |
|    \\/     M anipulation  |                                                 |
\*---------------------------------------------------------------------------*/
FoamFile
{
    version     2.0;
    format      ascii;
    arch        "LSB;label=32;scalar=64";
    class       volScalarField;
    location    "0.00174";
    object      H;
}
// * * * * * * * * * * * * * * * * * * * * * * * * * * * * * * * * * * * * * //

dimensions      [0 0 0 0 0 0 0];

internalField   nonuniform List<scalar> 
531
(
1.22682236e-09
9.2716092e-10
1.28103603e-09
1.21034668e-09
3.52670513e-08
4.7073989e-08
5.35474006e-08
5.35939937e-08
7.35350233e-10
1.10418439e-09
4.26202565e-08
4.80320905e-08
8.13083051e-10
1.14859814e-09
3.95440121e-08
4.68421119e-08
9.27230046e-10
1.0958523e-09
3.28008585e-08
5.16017409e-08
5.10887514e-08
8.69306595e-10
1.1622175e-09
4.17253844e-08
4.51483302e-08
7.75754291e-10
1.223937e-09
1.10431005e-09
4.06729388e-08
4.45523054e-08
7.62283011e-10
1.30212249e-09
1.05275569e-09
3.24862907e-08
5.53958826e-08
5.45941958e-08
8.34234584e-10
1.18290961e-09
1.07796842e-09
3.84573871e-08
4.45095925e-08
8.16787156e-10
1.30969521e-09
1.10515986e-09
3.13870978e-08
5.00745207e-08
4.97123826e-08
9.84391752e-10
1.17007473e-09
3.33670054e-08
4.49930902e-08
5.25431322e-08
5.25829592e-08
7.61932298e-10
1.19893989e-09
1.02014868e-09
3.57333956e-08
4.75972248e-08
8.99315598e-10
1.1910302e-09
3.984491e-08
4.39299886e-08
8.69475766e-10
1.25106737e-09
4.07119461e-08
4.05658707e-08
9.174155e-10
2.90547577e-08
5.12878631e-08
9.589748e-10
1.11733168e-09
3.72246288e-08
4.5961927e-08
9.96421392e-10
1.12049296e-09
3.14693956e-08
5.05799998e-08
4.98801984e-08
9.41178362e-10
1.22729938e-09
1.20801654e-09
3.68932287e-08
4.33982527e-08
1.03008235e-09
1.17603206e-09
2.957598e-08
4.62739393e-08
4.45744186e-08
5.70036956e-08
5.64854363e-08
6.72889928e-10
1.15279241e-09
8.84457349e-10
1.27906328e-09
1.11721468e-09
3.15849498e-08
5.02294938e-08
4.9543364e-08
9.2934683e-10
1.2094509e-09
3.99551823e-08
4.4344491e-08
8.68789282e-10
1.26015816e-09
4.17644583e-08
4.13192228e-08
9.11610262e-10
3.15845222e-08
5.27003743e-08
9.24994643e-10
1.1275811e-09
4.09255909e-08
4.58324919e-08
8.6547092e-10
1.22652157e-09
4.30015636e-08
4.30909847e-08
7.94144724e-10
1.33214044e-09
1.05150122e-09
2.86175258e-08
4.95842208e-08
4.92114692e-08
1.0553337e-09
1.12019852e-09
3.10870371e-08
5.01370509e-08
4.95114772e-08
9.84535181e-10
1.20774562e-09
3.75504953e-08
4.32778107e-08
9.59455257e-10
1.26369864e-09
3.70327462e-08
4.14907537e-08
1.01818122e-09
1.27385685e-09
3.15996546e-08
4.05544686e-08
4.83671444e-08
4.81024596e-08
8.80986885e-10
1.19534969e-09
4.37757649e-08
4.42434152e-08
8.01831727e-10
1.2702359e-09
1.08836494e-09
3.62468328e-08
4.63580919e-08
9.3322743e-10
1.1997253e-09
4.0527025e-08
4.45842667e-08
8.76343919e-10
1.23202159e-09
4.28797236e-08
4.28097182e-08
8.07658303e-10
1.31118835e-09
1.07348043e-09
2.55699423e-08
4.36725917e-08
4.9889965e-08
4.96647828e-08
8.40866912e-10
1.16050163e-09
4.38974812e-08
4.71081631e-08
8.01529438e-10
1.19955134e-09
4.52547737e-08
4.55188306e-08
7.33733683e-10
1.30622697e-09
9.68369923e-10
3.25168167e-08
5.40731235e-08
5.25731872e-08
8.55453683e-10
1.14493852e-09
4.28911577e-08
4.68413891e-08
7.28860113e-10
1.19184909e-09
9.96382197e-10
1.22987197e-09
2.20498926e-08
3.98760365e-08
4.21670457e-08
4.40155349e-08
5.5696216e-08
5.51322507e-08
7.38748969e-10
1.08825838e-09
1.01472631e-09
1.14956629e-09
2.91243596e-08
4.34223518e-08
5.04527299e-08
5.03607583e-08
8.36263309e-10
1.20558831e-09
1.07280251e-09
3.74277695e-08
4.34424415e-08
8.49709782e-10
1.31284701e-09
1.07265715e-09
2.87534023e-08
4.92370847e-08
4.86585111e-08
1.00138051e-09
1.10779604e-09
3.20574046e-08
5.18710247e-08
5.09687387e-08
8.89647469e-10
1.19047708e-09
4.19216069e-08
4.3638323e-08
7.67614197e-10
1.3220592e-09
1.0318475e-09
3.10133854e-08
5.23376717e-08
5.11535159e-08
8.49895801e-10
1.20705508e-09
1.11884601e-09
3.9194783e-08
5.0032237e-08
9.46339205e-10
9.04753283e-10
3.46514135e-08
7.78931263e-10
1.33358864e-09
3.57073909e-08
4.17480567e-08
5.06395185e-08
5.02546446e-08
8.08749977e-10
1.25718493e-09
1.09919879e-09
3.03922727e-08
4.69072998e-08
4.46928671e-08
5.62513637e-08
5.58580086e-08
6.92262364e-10
1.1033203e-09
1.06029202e-09
4.42544631e-08
5.05766549e-08
6.386022e-10
1.09904139e-09
9.92180046e-10
1.12406871e-09
3.4781687e-08
4.67242948e-08
9.35225584e-10
1.09604011e-09
3.29072665e-08
5.20249548e-08
5.12538782e-08
8.18260072e-10
1.18927028e-09
4.1053436e-08
4.30590495e-08
7.23036719e-10
1.31812029e-09
1.08176319e-09
2.50475368e-08
4.67569054e-08
4.45446186e-08
5.67085362e-08
5.61274893e-08
5.80167111e-10
1.15144828e-09
9.05739228e-10
1.27337776e-09
1.19241558e-09
3.21816e-08
5.03401414e-08
4.96873675e-08
8.00655521e-10
1.20724019e-09
4.08489006e-08
4.2926189e-08
7.2694205e-10
1.32111741e-09
1.12376811e-09
2.77007476e-08
4.71988558e-08
4.46806876e-08
5.62341172e-08
5.58829207e-08
5.92047385e-10
1.10114616e-09
1.0327778e-09
4.4638075e-08
5.22441395e-08
5.5626199e-10
1.09015005e-09
9.61736586e-10
1.12548334e-09
3.93287583e-08
4.70378609e-08
7.0497875e-10
1.15189277e-09
1.10044253e-09
1.16748947e-09
2.4469451e-08
4.47644535e-08
4.2971143e-08
5.29997781e-08
5.25042254e-08
6.22479418e-10
1.104905e-09
4.62646995e-08
5.11862143e-08
5.74070262e-10
1.11176608e-09
1.04574618e-09
1.13086756e-09
3.43053981e-08
4.84709831e-08
5.52120291e-08
5.52011515e-08
5.80126712e-10
1.16529161e-09
1.02310965e-09
3.9797751e-08
4.73769891e-08
7.19452064e-10
1.30610234e-09
1.1942298e-09
3.36129461e-08
5.16022955e-08
5.1146681e-08
9.60922485e-10
1.27827777e-09
4.16305814e-08
4.42243573e-08
7.99130089e-10
1.41718419e-09
1.26794975e-09
2.59250198e-08
5.10811882e-08
4.88724616e-08
6.13598166e-08
6.10797171e-08
6.50372941e-10
1.23232975e-09
1.1237845e-09
1.30902608e-09
1.36484125e-09
1.40406645e-09
2.0994289e-08
5.78965079e-08
5.79028225e-08
1.48710459e-09
1.73557483e-09
2.10560546e-09
4.77039261e-08
5.47198322e-08
2.85297406e-09
3.90767217e-09
4.09388082e-09
4.93856226e-09
5.44191846e-09
5.96558969e-09
6.08744769e-09
4.93957672e-08
5.53824089e-08
8.21108604e-09
8.48784081e-09
9.30735534e-09
9.80106453e-09
1.05455565e-08
1.1072954e-08
1.17040694e-08
1.22555084e-08
1.28043985e-08
1.33076786e-08
1.3811144e-08
1.41327258e-08
1.44530813e-08
1.44336642e-08
1.42385621e-08
1.32499697e-08
1.12990942e-08
8.86179272e-09
9.11719028e-09
9.46439352e-09
9.81361156e-09
1.02620815e-08
1.07014362e-08
1.1279159e-08
1.1800688e-08
1.25389771e-08
1.3187384e-08
1.45990955e-08
1.53421809e-08
1.51419531e-08
1.21506077e-08
1.08503691e-08
1.05284601e-08
1.06431025e-08
1.08301776e-08
1.19094731e-08
1.24974348e-08
1.4413466e-08
1.44229958e-08
1.48796128e-08
1.46493888e-08
1.49233662e-08
1.45856207e-08
1.46148794e-08
1.42571935e-08
1.29592107e-08
1.38779691e-09
1.48637578e-09
1.49675765e-09
1.56377544e-09
1.59539331e-09
1.65010925e-09
1.70842909e-09
1.78140397e-09
1.90557442e-09
2.05957696e-09
2.33463822e-09
1.91486058e-09
1.47327231e-09
1.10962802e-09
7.32679506e-10
4.76618022e-10
3.24937899e-10
2.27691874e-10
1.0702182e-10
3.54042609e-11
2.69629212e-11
2.29036089e-11
3.26150266e-11
8.43940287e-11
2.45657381e-10
4.57554901e-10
1.93310845e-09
5.77145381e-09
1.94415794e-08
3.88870163e-08
8.3140931e-08
1.08226737e-07
1.6593258e-07
2.3531463e-07
4.23611176e-07
5.62651452e-07
9.8789293e-07
1.28793624e-06
2.3257917e-06
2.95804866e-06
4.76417013e-06
5.72742828e-06
8.46291817e-06
9.84730375e-06
1.37612157e-05
1.53563794e-05
2.00843503e-05
2.17951362e-05
2.71068734e-05
2.88137566e-05
3.48804913e-05
3.63992005e-05
4.24498854e-05
4.35763013e-05
4.92651746e-05
4.99405277e-05
5.50326134e-05
5.53295134e-05
5.96768926e-05
5.98877851e-05
6.36530042e-05
6.38555267e-05
6.70612318e-05
6.57087107e-05
6.75193412e-05
6.81715257e-05
7.0437623e-05
6.48016235e-05
6.43763691e-05
7.06957518e-05
7.49432698e-05
5.76542758e-05
5.33743933e-05
7.7831613e-05
8.90967023e-05
3.62813704e-05
2.19969981e-05
8.48564697e-05
9.24460348e-05
6.85990921e-06
6.39725223e-07
6.46276067e-05
7.40068015e-05
6.8625072e-11
7.97617414e-11
4.24258637e-05
6.12064238e-05
9.27850927e-11
1.10741415e-10
3.02633315e-05
4.72399955e-05
1.27456367e-10
1.40387544e-10
2.23632532e-05
3.7826527e-05
1.59942298e-10
1.73969173e-10
1.75255965e-05
3.10639148e-05
1.94223223e-10
2.05112699e-10
1.45067463e-05
2.60360004e-05
3.41565888e-08
2.30864907e-10
1.28792433e-05
2.20969563e-05
1.31198202e-08
2.55147388e-10
)
;

boundaryField
{
    closed
    {
        type            calculated;
        value           nonuniform List<scalar> 0();
    }
    open
    {
        type            calculated;
        value           nonuniform List<scalar> 0();
    }
    sides
    {
        type            empty;
    }
    procBoundary4to3
    {
        type            processor;
        value           uniform 6.22190335e-10;
    }
    procBoundary4to5
    {
        type            processor;
        value           uniform 1.17652482e-05;
    }
}


// ************************************************************************* //
