/*--------------------------------*- C++ -*----------------------------------*\
| =========                 |                                                 |
| \\      /  F ield         | OpenFOAM: The Open Source CFD Toolbox           |
|  \\    /   O peration     | Version:  2306                                  |
|   \\  /    A nd           | Website:  www.openfoam.com                      |
|    \\/     M anipulation  |                                                 |
\*---------------------------------------------------------------------------*/
FoamFile
{
    version     2.0;
    format      ascii;
    arch        "LSB;label=32;scalar=64";
    class       volVectorField;
    location    "0.00174";
    object      U;
}
// * * * * * * * * * * * * * * * * * * * * * * * * * * * * * * * * * * * * * //

dimensions      [0 1 -1 0 0 0 0];

internalField   nonuniform List<vector> 
531
(
(0.293596432 0 0)
(0.293990655 0 0)
(0.293207958 0 0)
(0.289554357 0 0)
(0.282739637 0 0)
(0.277689785 0 0)
(0.275636095 0 0)
(0.280967714 0 0)
(0.291154608 0 0)
(0.29062145 0 0)
(0.281448317 0 0)
(0.27890833 0 0)
(0.285844082 0 0)
(0.286534039 0 0)
(0.27865785 0 0)
(0.276361233 0 0)
(0.282421503 0 0)
(0.283405489 0 0)
(0.275019665 0 0)
(0.26677819 0 0)
(0.273108004 0 0)
(0.28326132 0 0)
(0.279682375 0 0)
(0.271503245 0 0)
(0.26952662 0 0)
(0.276076522 0 0)
(0.280086845 0 0)
(0.273268326 0 0)
(0.266367862 0 0)
(0.268481198 0 0)
(0.275048341 0 0)
(0.27898815 0 0)
(0.275667822 0 0)
(0.266526334 0 0)
(0.257883024 0 0)
(0.258551178 0 0)
(0.267955326 0 0)
(0.273777983 0 0)
(0.268614606 0 0)
(0.261446678 0 0)
(0.261681385 0 0)
(0.267962219 0 0)
(0.272157456 0 0)
(0.269519083 0 0)
(0.262089941 0 0)
(0.255728618 0 0)
(0.255879111 0 0)
(0.263301648 0 0)
(0.266422559 0 0)
(0.259712623 0 0)
(0.252405157 0 0)
(0.248762589 0 0)
(0.24869166 0 0)
(0.255975133 0 0)
(0.263119323 0 0)
(0.262790839 0 0)
(0.254752014 0 0)
(0.249072166 0 0)
(0.254358382 0 0)
(0.254918573 0 0)
(0.247541505 0 0)
(0.24539898 0 0)
(0.251179149 0 0)
(0.251816568 0 0)
(0.245361486 0 0)
(0.240469824 0 0)
(0.240865644 0 0)
(0.239419756 0 0)
(0.23748561 0 0)
(0.242651527 0 0)
(0.243788085 0 0)
(0.236556822 0 0)
(0.232887976 0 0)
(0.23727999 0 0)
(0.238684577 0 0)
(0.231982308 0 0)
(0.224910881 0 0)
(0.225605798 0 0)
(0.232552218 0 0)
(0.237127348 0 0)
(0.234999546 0 0)
(0.227797088 0 0)
(0.224454011 0 0)
(0.228666751 0 0)
(0.229661728 0 0)
(0.224119929 0 0)
(0.218237666 0 0)
(0.21411861 0 0)
(0.210905838 0 0)
(0.210943474 0 0)
(0.21704938 0 0)
(0.223333393 0 0)
(0.224773027 0 0)
(0.224411295 0 0)
(0.221028786 0 0)
(0.214718449 0 0)
(0.209184029 0 0)
(0.209381489 0 0)
(0.215011018 0 0)
(0.216622535 0 0)
(0.209115669 0 0)
(0.205488736 0 0)
(0.209877339 0 0)
(0.210500688 0 0)
(0.203526651 0 0)
(0.197943239 0 0)
(0.197500821 0 0)
(0.196414787 0 0)
(0.195324264 0 0)
(0.199163671 0 0)
(0.200439391 0 0)
(0.192613261 0 0)
(0.187823081 0 0)
(0.191548588 0 0)
(0.19214573 0 0)
(0.183744148 0 0)
(0.178907666 0 0)
(0.183210853 0 0)
(0.187631165 0 0)
(0.185955989 0 0)
(0.180928047 0 0)
(0.175388623 0 0)
(0.17535131 0 0)
(0.179484658 0 0)
(0.181699681 0 0)
(0.176472039 0 0)
(0.170193992 0 0)
(0.171007056 0 0)
(0.176170167 0 0)
(0.177836787 0 0)
(0.170426316 0 0)
(0.165198446 0 0)
(0.16810306 0 0)
(0.169777909 0 0)
(0.162577943 0 0)
(0.15738456 0 0)
(0.160148283 0 0)
(0.162821537 0 0)
(0.159721475 0 0)
(0.153648851 0 0)
(0.151161071 0 0)
(0.152151615 0 0)
(0.156155452 0 0)
(0.158787876 0 0)
(0.150522991 0 0)
(0.144395375 0 0)
(0.148081261 0 0)
(0.153670697 0 0)
(0.151653709 0 0)
(0.144177809 0 0)
(0.139224033 0 0)
(0.141689162 0 0)
(0.143976268 0 0)
(0.136177455 0 0)
(0.12991341 0 0)
(0.132801241 0 0)
(0.135022899 0 0)
(0.12696149 0 0)
(0.120070471 0 0)
(0.123708745 0 0)
(0.129811768 0 0)
(0.129306595 0 0)
(0.126834357 0 0)
(0.120928265 0 0)
(0.118009691 0 0)
(0.119648024 0 0)
(0.123126556 0 0)
(0.12676048 0 0)
(0.118703754 0 0)
(0.11149133 0 0)
(0.114374402 0 0)
(0.117462516 0 0)
(0.109093985 0 0)
(0.101310418 0 0)
(0.104812366 0 0)
(0.11149406 0 0)
(0.11067837 0 0)
(0.107498222 0 0)
(0.103017925 0 0)
(0.1049987 0 0)
(0.110641022 0 0)
(0.113971678 0 0)
(0.105230445 0 0)
(0.0960650859 0 0)
(0.0986151469 0 0)
(0.107097316 0 0)
(0.110695711 0 0)
(0.11065621 0 0)
(0.109266709 0 0)
(0.105855515 0 0)
(0.103560982 0 0)
(0.100845832 0 0)
(0.0992330985 0 0)
(0.101275634 0 0)
(0.105595374 0 0)
(0.114682026 0 0)
(0.118352714 0 0)
(0.118163386 0 0)
(0.116944835 0 0)
(0.112459726 0 0)
(0.11058994 0 0)
(0.114394194 0 0)
(0.119079336 0 0)
(0.126698299 0 0)
(0.125053597 0 0)
(0.119589163 0 0)
(0.115832142 0 0)
(0.118907789 0 0)
(0.126432367 0 0)
(0.126285403 0 0)
(0.124322424 0 0)
(0.120821391 0 0)
(0.122515774 0 0)
(0.128010182 0 0)
(0.133890295 0 0)
(0.131691828 0 0)
(0.127211434 0 0)
(0.130369969 0 0)
(0.13742727 0 0)
(0.142129041 0 0)
(0.135674835 0 0)
(0.129822722 0 0)
(0.134678151 0 0)
(0.14297952 0 0)
(0.142656166 0 0)
(0.139703967 0 0)
(0.13569953 0 0)
(0.138831613 0 0)
(0.147034791 0 0)
(0.155835184 0 0)
(0.153799968 0 0)
(0.147280989 0 0)
(0.143904698 0 0)
(0.147816845 0 0)
(0.15697518 0 0)
(0.161254784 0 0)
(0.1631885 0 0)
(0.166971383 0 0)
(0.162265725 0 0)
(0.154207658 0 0)
(0.153636366 0 0)
(0.158269403 0 0)
(0.165565329 0 0)
(0.175138369 0 0)
(0.17526153 0 0)
(0.173561001 0 0)
(0.171115756 0 0)
(0.168874544 0 0)
(0.169049284 0 0)
(0.171847143 0 0)
(0.180199947 0 0)
(0.191608183 0 0)
(0.189405125 0 0)
(0.18135733 0 0)
(0.177433947 0 0)
(0.184748876 0 0)
(0.196443646 0 0)
(0.200197302 0 0)
(0.199104829 0 0)
(0.19764066 0 0)
(0.200241978 0 0)
(0.207259079 0 0)
(0.214172663 0 0)
(0.211006665 0 0)
(0.206125687 0 0)
(0.208995962 0 0)
(0.21872123 0 0)
(0.225517114 0 0)
(0.220267113 0 0)
(0.217682921 0 0)
(0.225787363 0 0)
(0.235215007 0 0)
(0.234738804 0 0)
(0.231766448 0 0)
(0.229473616 0 0)
(0.227287326 0 0)
(0.225968552 0 0)
(0.22745851 0 0)
(0.23740884 0 0)
(0.250739836 0 0)
(0.254736564 0 0)
(0.256389348 0 0)
(0.25339555 0 0)
(0.247981821 0 0)
(0.244690834 0 0)
(0.247975249 0 0)
(0.25894245 0 0)
(0.266634449 0 0)
(0.261399921 0 0)
(0.260546103 0 0)
(0.270012875 0 0)
(0.279159029 0 0)
(0.277365272 0 0)
(0.272460106 0 0)
(0.270023356 0 0)
(0.268944153 0 0)
(0.26744556 0 0)
(0.267914837 0 0)
(0.28002057 0 0)
(0.294426781 0 0)
(0.285796137 0 0)
(0.277622578 0 0)
(0.281834567 0 0)
(0.292927508 0 0)
(0.303976976 0 0)
(0.305160705 0 0)
(0.300901728 0 0)
(0.295470515 0 0)
(0.296781349 0 0)
(0.306815715 0 0)
(0.316246558 0 0)
(0.317425287 0 0)
(0.314308834 0 0)
(0.310470116 0 0)
(0.308926398 0 0)
(0.307965827 0 0)
(0.305763473 0 0)
(0.312562001 0 0)
(0.326330411 0 0)
(0.328911776 0 0)
(0.321119155 0 0)
(0.321144689 0 0)
(0.333275532 0 0)
(0.343460621 0 0)
(0.344206831 0 0)
(0.340194286 0 0)
(0.333737414 0 0)
(0.328674458 0 0)
(0.326115699 0 0)
(0.334496753 0 0)
(0.349841211 0 0)
(0.356925474 0 0)
(0.357249058 0 0)
(0.348789096 0 0)
(0.346162145 0 0)
(0.359501851 0 0)
(0.369766453 0 0)
(0.36587436 0 0)
(0.355404467 0 0)
(0.348735944 0 0)
(0.351054513 0 0)
(0.361748958 0 0)
(0.365261256 0 0)
(0.359732048 0 0)
(0.363711567 0 0)
(0.37726256 0 0)
(0.38559259 0 0)
(0.380775483 0 0)
(0.371011445 0 0)
(0.366885117 0 0)
(0.365304701 0 0)
(0.360342558 0 0)
(0.367518615 0 0)
(0.38641184 0 0)
(0.394268094 0 0)
(0.392289689 0 0)
(0.390174874 0 0)
(0.389116195 0 0)
(0.38421739 0 0)
(0.379523727 0 0)
(0.37586357 0 0)
(0.383369197 0 0)
(0.402295619 0 0)
(0.408064065 0 0)
(0.399724865 0 0)
(0.386164209 0 0)
(0.389689277 0 0)
(0.4058823 0 0)
(0.413222664 0 0)
(0.413183314 0 0)
(0.413864102 0 0)
(0.417056086 0 0)
(0.420737522 0 0)
(0.412795993 0 0)
(0.398193118 0 0)
(0.402428344 0 0)
(0.419452817 0 0)
(0.425769322 0 0)
(0.424863282 0 0)
(0.424302579 0 0)
(0.424647891 0 0)
(0.425355162 0 0)
(0.425944951 0 0)
(0.426664997 0 0)
(0.427368576 0 0)
(0.428266473 0 0)
(0.429123197 0 0)
(0.430197363 0 0)
(0.431350936 0 0)
(0.43278417 0 0)
(0.434702831 0 0)
(0.437944322 0 0)
(0.441871838 0 0)
(0.444143008 0 0)
(0.443178185 0 0)
(0.440864222 0 0)
(0.438885174 0 0)
(0.437204646 0 0)
(0.435770845 0 0)
(0.434542402 0 0)
(0.433643006 0 0)
(0.432936225 0 0)
(0.43221294 0 0)
(0.430767073 0 0)
(0.429487129 0 0)
(0.429088541 0 0)
(0.429905799 0 0)
(0.428732784 0 0)
(0.4276009 0 0)
(0.426290858 0 0)
(0.425845416 0 0)
(0.425195915 0 0)
(0.425198558 0 0)
(0.424234892 0 0)
(0.42205169 0 0)
(0.417929609 0 0)
(0.414101551 0 0)
(0.410201055 0 0)
(0.407374508 0 0)
(0.403467433 0 0)
(0.400586406 0 0)
(0.399090915 0 0)
(0.420093452 0 0)
(0.426959409 0 0)
(0.423751091 0 0)
(0.419108052 0 0)
(0.415082457 0 0)
(0.410137521 0 0)
(0.405815987 0 0)
(0.400576999 0 0)
(0.395517739 0 0)
(0.389963311 0 0)
(0.385037304 0 0)
(0.383288498 0 0)
(0.382376551 0 0)
(0.381372431 0 0)
(0.380143858 0 0)
(0.37887336 0 0)
(0.37751394 0 0)
(0.376204789 0 0)
(0.374693567 0 0)
(0.37312331 0 0)
(0.371186245 0 0)
(0.370393195 0 0)
(0.375491538 0 0)
(0.38684768 0 0)
(0.4001042 0 0)
(0.391305613 0 0)
(0.369877902 0 0)
(0.360818943 0 0)
(0.373572888 0 0)
(0.386252021 0 0)
(0.399190273 0 0)
(0.409661923 0 0)
(0.419981364 0 0)
(0.430056555 0 0)
(0.441703545 0 0)
(0.45355327 0 0)
(0.467169954 0 0)
(0.480659801 0 0)
(0.495322223 0 0)
(0.509502697 0 0)
(0.524502505 0 0)
(0.538841211 0 0)
(0.553497921 0 0)
(0.567134596 0 0)
(0.58062821 0 0)
(0.593235239 0 0)
(0.605730845 0 0)
(0.617333399 0 0)
(0.628683783 0 0)
(0.639234181 0 0)
(0.649474086 0 0)
(0.658731162 0 0)
(0.667582679 0 0)
(0.675727013 0 0)
(0.683783718 0 0)
(0.690195747 0 0)
(0.69522213 0 0)
(0.70008761 0 0)
(0.70899466 0 0)
(0.716480684 0 0)
(0.716650487 0 0)
(0.725221048 0 0)
(0.748692714 0 0)
(0.746369159 0 0)
(0.706936143 0 0)
(0.713234951 0 0)
(0.798378299 0 0)
(0.807185344 0 0)
(0.693309275 0 0)
(0.628576166 0 0)
(0.644350664 0 0)
(0.762586071 0 0)
(0.853178364 0 0)
(0.736674127 0 0)
(0.788541261 0 0)
(0.904762419 0 0)
(0.733792268 0 0)
(0.549296601 0 0)
(0.722887786 0 0)
(1.01469057 0 0)
(1.09999371 0 0)
(0.820474813 0 0)
(0.590226118 0 0)
(0.765051006 0 0)
(0.85688696 0 0)
(0.796401149 0 0)
(0.730745802 0 0)
(0.788956178 0 0)
(0.843387189 0 0)
(0.770309429 0 0)
(0.722533081 0 0)
(0.814561358 0 0)
(0.884556862 0 0)
(0.788223817 0 0)
(0.704885633 0 0)
(0.802616613 0 0)
(0.909280794 0 0)
(0.81170274 0 0)
(0.698213604 0 0)
(0.796020112 0 0)
(0.921778424 0 0)
(0.826470672 0 0)
(0.694193657 0 0)
(0.783067483 0 0)
(0.917003937 0 0)
(0.830502836 0 0)
(0.688352691 0 0)
(0.768599562 0 0)
(0.907579971 0 0)
)
;

boundaryField
{
    closed
    {
        type            noSlip;
    }
    open
    {
        type            inletOutlet;
        inletValue      nonuniform List<vector> 0();
        value           nonuniform List<vector> 0();
    }
    sides
    {
        type            empty;
    }
    procBoundary4to3
    {
        type            processor;
        value           uniform (0.288611059 0 0);
    }
    procBoundary4to5
    {
        type            processor;
        value           uniform (0.842148836 0 0);
    }
}


// ************************************************************************* //
