/*--------------------------------*- C++ -*----------------------------------*\
| =========                 |                                                 |
| \\      /  F ield         | OpenFOAM: The Open Source CFD Toolbox           |
|  \\    /   O peration     | Version:  2306                                  |
|   \\  /    A nd           | Website:  www.openfoam.com                      |
|    \\/     M anipulation  |                                                 |
\*---------------------------------------------------------------------------*/
FoamFile
{
    version     2.0;
    format      ascii;
    arch        "LSB;label=32;scalar=64";
    class       volScalarField;
    location    "0.00014";
    object      alpha;
}
// * * * * * * * * * * * * * * * * * * * * * * * * * * * * * * * * * * * * * //

dimensions      [1 -1 -1 0 0 0 0];

internalField   nonuniform List<scalar> 
3801
(
3.67578929e-05
3.53551626e-05
3.49665747e-05
3.56988599e-05
3.6796104e-05
3.67635127e-05
3.54213079e-05
3.56875773e-05
3.68417771e-05
3.68361344e-05
3.6787863e-05
3.55319962e-05
3.5598132e-05
3.68612824e-05
3.679267e-05
3.5535916e-05
3.5166997e-05
3.56831365e-05
3.68424798e-05
3.68241195e-05
3.56637167e-05
3.51299169e-05
3.55888604e-05
3.68414848e-05
3.68336459e-05
3.54979293e-05
3.54808413e-05
3.68485087e-05
3.6827969e-05
3.5518059e-05
3.52112717e-05
3.52260007e-05
3.53401735e-05
3.68682811e-05
3.68075872e-05
3.56023251e-05
3.48896458e-05
3.5438001e-05
3.68341796e-05
3.68385979e-05
3.68255693e-05
3.68398976e-05
3.57310269e-05
3.52000017e-05
3.52038582e-05
3.53950356e-05
3.68808479e-05
3.68098239e-05
3.56186319e-05
3.49006626e-05
3.54357312e-05
3.68340292e-05
3.68514449e-05
3.55679202e-05
3.54210683e-05
3.68735338e-05
3.68080273e-05
3.57140734e-05
3.50108932e-05
3.55532006e-05
3.68456962e-05
3.68544623e-05
3.56174173e-05
3.54838867e-05
3.68368977e-05
3.68337889e-05
3.56960823e-05
3.55540598e-05
3.68368173e-05
3.6815997e-05
3.56410972e-05
3.54725182e-05
3.68464543e-05
3.6806049e-05
3.57087393e-05
3.59651004e-05
3.68455405e-05
3.57370982e-05
3.56973851e-05
3.64011995e-05
3.59259083e-05
3.57188188e-05
3.6472221e-05
3.68551405e-05
3.67573257e-05
3.57223737e-05
3.51969955e-05
3.53160546e-05
3.53111172e-05
3.53028689e-05
3.52405267e-05
3.56032163e-05
3.68154882e-05
3.6821581e-05
3.56642069e-05
3.56659721e-05
3.67007573e-05
3.68548699e-05
3.67323071e-05
3.57099907e-05
3.56669039e-05
3.66986395e-05
3.67824734e-05
3.57452573e-05
3.56966505e-05
3.66619235e-05
3.67619195e-05
3.5698984e-05
3.52338379e-05
3.53914474e-05
3.57080854e-05
3.63878626e-05
3.67811361e-05
3.57073474e-05
3.55969083e-05
3.6185407e-05
3.67792233e-05
3.57571392e-05
3.56638322e-05
3.61554186e-05
3.67940043e-05
3.67590191e-05
3.60766992e-05
3.51937278e-05
3.51994306e-05
3.53109764e-05
3.52290729e-05
3.53129023e-05
3.57946543e-05
3.68162025e-05
3.61936196e-05
3.52847361e-05
3.57566793e-05
3.68168278e-05
3.68124985e-05
3.64697141e-05
3.54553813e-05
3.57401107e-05
3.68234717e-05
3.67012577e-05
3.54122238e-05
3.57335092e-05
3.68099777e-05
3.57253372e-05
3.56177017e-05
3.68346692e-05
3.68099299e-05
3.54602267e-05
3.52397884e-05
3.54262677e-05
3.51935122e-05
3.54264295e-05
3.68437782e-05
3.68407517e-05
3.68433536e-05
3.6830824e-05
3.56923612e-05
3.53023012e-05
3.54776401e-05
3.68457864e-05
3.68481295e-05
3.5585969e-05
3.55622647e-05
3.68608948e-05
3.68301707e-05
3.56989712e-05
3.56320593e-05
3.57184593e-05
3.55603629e-05
3.55525904e-05
3.68296219e-05
3.68556198e-05
3.55816767e-05
3.54364763e-05
3.68382728e-05
3.68405807e-05
3.55822418e-05
3.52830374e-05
3.50533719e-05
3.50656646e-05
3.68276779e-05
3.68168469e-05
3.68244722e-05
3.56848578e-05
3.51896157e-05
3.68151516e-05
3.683208e-05
3.54952743e-05
3.52773261e-05
3.68032817e-05
3.68332702e-05
3.5484926e-05
3.52961435e-05
3.68026907e-05
3.68323293e-05
3.55286061e-05
3.53137056e-05
3.68142199e-05
3.68296078e-05
3.57397474e-05
3.52776617e-05
3.5072422e-05
3.50785321e-05
3.68010582e-05
3.68293386e-05
3.55169148e-05
3.52783552e-05
3.68033796e-05
3.68335369e-05
3.55232371e-05
3.53271942e-05
3.68137382e-05
3.68346341e-05
3.55178576e-05
3.53453636e-05
3.68317568e-05
3.68314969e-05
3.55505495e-05
3.53715444e-05
3.68577334e-05
3.6812116e-05
3.573939e-05
3.52939472e-05
3.53252259e-05
3.68319983e-05
3.68408721e-05
3.56132942e-05
3.54239146e-05
3.68565303e-05
3.684186e-05
3.54997006e-05
3.53796549e-05
3.6863989e-05
3.68358573e-05
3.56466066e-05
3.53391471e-05
3.52606738e-05
3.53170368e-05
3.68478969e-05
3.68198296e-05
3.55409749e-05
3.55447266e-05
3.68469359e-05
3.68131392e-05
3.55319307e-05
3.5573182e-05
3.68468908e-05
3.68157997e-05
3.54790807e-05
3.55085732e-05
3.68485645e-05
3.6819998e-05
3.53814374e-05
3.55692147e-05
3.68665566e-05
3.68175403e-05
3.68530785e-05
3.6814989e-05
3.57077111e-05
3.52892667e-05
3.54299089e-05
3.52158077e-05
3.52623395e-05
3.50750653e-05
3.52898206e-05
3.68298499e-05
3.68404528e-05
3.54759664e-05
3.55179415e-05
3.68392227e-05
3.68320113e-05
3.54986449e-05
3.55641176e-05
3.68532733e-05
3.68334401e-05
3.54763838e-05
3.55276673e-05
3.68582175e-05
3.6829241e-05
3.5598146e-05
3.51582367e-05
3.5434179e-05
3.68280253e-05
3.68628643e-05
3.54861565e-05
3.54832344e-05
3.68337987e-05
3.68392737e-05
3.55761848e-05
3.538838e-05
3.53036536e-05
3.53682805e-05
3.68321125e-05
3.68448996e-05
3.5444818e-05
3.54555569e-05
3.683443e-05
3.68402546e-05
3.53951677e-05
3.56761057e-05
3.68532306e-05
3.5705203e-05
3.52357887e-05
3.68448878e-05
3.68379452e-05
3.5415407e-05
3.53617051e-05
3.68475589e-05
3.68187327e-05
3.55363621e-05
3.51550975e-05
3.53208077e-05
3.49766571e-05
3.5125668e-05
3.68418609e-05
3.6827071e-05
3.68446592e-05
3.68291765e-05
3.57050394e-05
3.51351046e-05
3.53003889e-05
3.68230128e-05
3.68526997e-05
3.54376957e-05
3.53165025e-05
3.68328395e-05
3.68497363e-05
3.53855322e-05
3.53168432e-05
3.68397596e-05
3.68446734e-05
3.53782419e-05
3.53523235e-05
3.68429534e-05
3.6837093e-05
3.68358946e-05
3.68373739e-05
3.57232397e-05
3.53954774e-05
3.54782266e-05
3.53580946e-05
3.52256011e-05
3.52247324e-05
3.68146669e-05
3.68334952e-05
3.55566731e-05
3.54169136e-05
3.6818577e-05
3.68318989e-05
3.55370968e-05
3.54294465e-05
3.6824502e-05
3.68263315e-05
3.5540591e-05
3.53805211e-05
3.6833126e-05
3.68162852e-05
3.56981886e-05
3.51053974e-05
3.51245384e-05
3.68047396e-05
3.68303589e-05
3.55021761e-05
3.53969312e-05
3.68181975e-05
3.68176279e-05
3.68202034e-05
3.56627762e-05
3.52555184e-05
3.6811956e-05
3.68268838e-05
3.55225011e-05
3.53216027e-05
3.68033544e-05
3.68278484e-05
3.55717608e-05
3.53466574e-05
3.68132076e-05
3.68203136e-05
3.57205204e-05
3.53367684e-05
3.54268557e-05
3.51859291e-05
3.51901137e-05
3.67851229e-05
3.68223339e-05
3.575804e-05
3.55016847e-05
3.53475912e-05
3.53457019e-05
3.67909961e-05
3.68019891e-05
3.5766882e-05
3.53171942e-05
3.53207557e-05
3.67495067e-05
3.68355701e-05
3.57864465e-05
3.55346433e-05
3.67604441e-05
3.68436791e-05
3.57784084e-05
3.54992588e-05
3.67683145e-05
3.68404723e-05
3.57701099e-05
3.54428419e-05
3.5189123e-05
3.51975379e-05
3.6743798e-05
3.68320537e-05
3.57904051e-05
3.54388872e-05
3.6762783e-05
3.68316799e-05
3.57650379e-05
3.54587033e-05
3.51059252e-05
3.51069993e-05
3.67554036e-05
3.67976404e-05
3.67998216e-05
3.57791099e-05
3.549957e-05
3.67704211e-05
3.68293879e-05
3.67715589e-05
3.57971426e-05
3.51156558e-05
3.51215136e-05
3.67183722e-05
3.68298088e-05
3.58069477e-05
3.54306323e-05
3.67565572e-05
3.68359093e-05
3.57948117e-05
3.53931546e-05
3.67792438e-05
3.68065242e-05
3.57825905e-05
3.50221253e-05
3.50292877e-05
3.67615173e-05
3.68135741e-05
3.57912822e-05
3.53696586e-05
3.67937962e-05
3.68050511e-05
3.57933854e-05
3.49946475e-05
3.50041816e-05
3.67874377e-05
3.67913273e-05
3.67924797e-05
3.57683945e-05
3.53761253e-05
3.6803792e-05
3.6836502e-05
3.56928839e-05
3.53712252e-05
3.67978476e-05
3.68371323e-05
3.56697536e-05
3.53585961e-05
3.66111082e-05
3.68279523e-05
3.67888144e-05
3.68316083e-05
3.58303622e-05
3.53656892e-05
3.53986655e-05
3.53289629e-05
3.53013618e-05
3.53321435e-05
3.51120655e-05
3.51154173e-05
3.68200148e-05
3.6780746e-05
3.58318323e-05
3.53068154e-05
3.5307323e-05
3.67948428e-05
3.68201364e-05
3.57307399e-05
3.53870094e-05
3.68158083e-05
3.6830072e-05
3.57187163e-05
3.52020522e-05
3.47978347e-05
3.48076084e-05
3.67879543e-05
3.68148472e-05
3.678543e-05
3.68207301e-05
3.68157712e-05
3.57237456e-05
3.53140468e-05
3.68219462e-05
3.68235249e-05
3.57330803e-05
3.53891401e-05
3.52419416e-05
3.52437789e-05
3.67977099e-05
3.68020754e-05
3.57727532e-05
3.51978483e-05
3.52040092e-05
3.67629116e-05
3.68342084e-05
3.56199042e-05
3.53166781e-05
3.67772034e-05
3.68407988e-05
3.68067216e-05
3.68484342e-05
3.56955842e-05
3.52342682e-05
3.67920405e-05
3.68371795e-05
3.55893828e-05
3.52298576e-05
3.67910355e-05
3.68269298e-05
3.57046841e-05
3.50310317e-05
3.50738651e-05
3.67937937e-05
3.68433906e-05
3.56477472e-05
3.53942948e-05
3.6797033e-05
3.683745e-05
3.56415707e-05
3.54650304e-05
3.67963658e-05
3.68378592e-05
3.5662664e-05
3.53286404e-05
3.68315792e-05
3.68190914e-05
3.54421177e-05
3.53334904e-05
3.68050813e-05
3.68160092e-05
3.5340615e-05
3.52125662e-05
3.52910328e-05
3.56980178e-05
3.68359628e-05
3.68518587e-05
3.52681735e-05
3.51970274e-05
3.5330538e-05
3.57030938e-05
3.68353215e-05
3.67729451e-05
3.54513678e-05
3.56277474e-05
3.68372069e-05
3.6748373e-05
3.54358111e-05
3.56897748e-05
3.68340439e-05
3.67227541e-05
3.54031361e-05
3.57237163e-05
3.68340617e-05
3.66921458e-05
3.53528611e-05
3.57441263e-05
3.68352708e-05
3.66341825e-05
3.533552e-05
3.57775039e-05
3.6832249e-05
3.67281411e-05
3.5083211e-05
3.50831845e-05
3.57938967e-05
3.68040797e-05
3.6682498e-05
3.52178071e-05
3.52688653e-05
3.60688859e-05
3.68128278e-05
3.67705193e-05
3.68082436e-05
3.67596085e-05
3.53051348e-05
3.52906344e-05
3.54847704e-05
3.5301511e-05
3.56881878e-05
3.68384946e-05
3.68333763e-05
3.67703987e-05
3.60326672e-05
3.559226e-05
3.58672724e-05
3.67992852e-05
3.59449382e-05
3.51143522e-05
3.51132439e-05
3.56785113e-05
3.68403788e-05
3.67962854e-05
3.57151942e-05
3.50742259e-05
3.56972399e-05
3.68378888e-05
3.68089746e-05
3.55209428e-05
3.57126283e-05
3.68470736e-05
3.68007705e-05
3.55209309e-05
3.57152324e-05
3.68678547e-05
3.68123076e-05
3.55558614e-05
3.51415165e-05
3.57006384e-05
3.68390324e-05
3.6846735e-05
3.56138406e-05
3.53295172e-05
3.54928923e-05
3.54256622e-05
3.5400259e-05
3.54657106e-05
3.53198237e-05
3.57046785e-05
3.68407644e-05
3.68704783e-05
3.5546382e-05
3.56117162e-05
3.68402079e-05
3.68545473e-05
3.55715162e-05
3.56162356e-05
3.6840016e-05
3.68552622e-05
3.55594114e-05
3.56109116e-05
3.68281965e-05
3.68782301e-05
3.54431237e-05
3.5730971e-05
3.68559049e-05
3.57597922e-05
3.55583173e-05
3.68682003e-05
3.68505755e-05
3.54146865e-05
3.56511577e-05
3.68446482e-05
3.6824456e-05
3.53659147e-05
3.50738619e-05
3.57371092e-05
3.68068842e-05
3.68594912e-05
3.52215275e-05
3.51349021e-05
3.53771088e-05
3.57740488e-05
3.68346587e-05
3.67896616e-05
3.68420165e-05
3.67938331e-05
3.54666909e-05
3.49571013e-05
3.57274488e-05
3.68091239e-05
3.679886e-05
3.54290962e-05
3.56453336e-05
3.68440723e-05
3.67727398e-05
3.51035203e-05
3.49702716e-05
3.5733854e-05
3.67950098e-05
3.68356953e-05
3.6752233e-05
3.68431949e-05
3.66134136e-05
3.54595719e-05
3.50577192e-05
3.52857853e-05
3.53214724e-05
3.53137733e-05
3.5724517e-05
3.68137303e-05
3.67364162e-05
3.56633827e-05
3.57454955e-05
3.67867843e-05
3.67359269e-05
3.54934016e-05
3.51562648e-05
3.57227969e-05
3.6805683e-05
3.67542431e-05
3.56890674e-05
3.52842102e-05
3.57209523e-05
3.68160885e-05
3.68135095e-05
3.6813616e-05
3.67687989e-05
3.57420315e-05
3.57328701e-05
3.61940769e-05
3.67722109e-05
3.57340545e-05
3.52272097e-05
3.53096752e-05
3.54851767e-05
3.56081059e-05
3.60704707e-05
3.68035658e-05
3.60350192e-05
3.51556917e-05
3.52493646e-05
3.58864172e-05
3.68160605e-05
3.6482163e-05
3.53794794e-05
3.57592268e-05
3.68433256e-05
3.66561046e-05
3.54071059e-05
3.57646505e-05
3.68416916e-05
3.67997956e-05
3.6827196e-05
3.67372419e-05
3.51801951e-05
3.51878249e-05
3.53883002e-05
3.52827271e-05
3.54220839e-05
3.52704667e-05
3.56960025e-05
3.68283014e-05
3.67889295e-05
3.52765422e-05
3.53670911e-05
3.68394387e-05
3.67922878e-05
3.55919112e-05
3.68319926e-05
3.68205714e-05
3.5127941e-05
3.51020283e-05
3.55725352e-05
3.68324265e-05
3.68051543e-05
3.53939674e-05
3.57249564e-05
3.68400494e-05
3.5705427e-05
3.55015567e-05
3.68333178e-05
3.68259121e-05
3.54593469e-05
3.54409563e-05
3.68374738e-05
3.68216073e-05
3.53607038e-05
3.54108885e-05
3.68390301e-05
3.68124439e-05
3.52403327e-05
3.54682622e-05
3.68510063e-05
3.6809057e-05
3.68456046e-05
3.53960572e-05
3.51799203e-05
3.68344265e-05
3.68197616e-05
3.52490971e-05
3.52622339e-05
3.68367078e-05
3.68094632e-05
3.51814259e-05
3.53362156e-05
3.68456357e-05
3.68123929e-05
3.68365377e-05
3.54049326e-05
3.52362709e-05
3.68469671e-05
3.68062812e-05
3.5323135e-05
3.5147944e-05
3.53545787e-05
3.52037641e-05
3.54254503e-05
3.68262929e-05
3.68238854e-05
3.55157525e-05
3.5288902e-05
3.55160834e-05
3.68426834e-05
3.68213033e-05
3.55742621e-05
3.52444226e-05
3.56307378e-05
3.68408789e-05
3.68274264e-05
3.68424086e-05
3.56181566e-05
3.53956758e-05
3.68347803e-05
3.68322361e-05
3.53776496e-05
3.52866446e-05
3.49411854e-05
3.53071027e-05
3.68601526e-05
3.68196102e-05
3.68464544e-05
3.55379269e-05
3.52469294e-05
3.68345933e-05
3.68234947e-05
3.5494093e-05
3.56207863e-05
3.68522263e-05
3.5714408e-05
3.53480887e-05
3.54671599e-05
3.53936107e-05
3.68457576e-05
3.68339769e-05
3.5654752e-05
3.52461986e-05
3.54208681e-05
3.68260217e-05
3.68604367e-05
3.55143623e-05
3.53793784e-05
3.68195653e-05
3.68565836e-05
3.55944171e-05
3.54212572e-05
3.6816657e-05
3.6851563e-05
3.55195845e-05
3.53612049e-05
3.68145368e-05
3.68499897e-05
3.55331187e-05
3.53436762e-05
3.68198273e-05
3.68475226e-05
3.56448052e-05
3.52944565e-05
3.52517436e-05
3.52496144e-05
3.6805864e-05
3.68471144e-05
3.56202202e-05
3.53791943e-05
3.6811732e-05
3.68550173e-05
3.556566e-05
3.53315797e-05
3.68133779e-05
3.68601179e-05
3.55344946e-05
3.52928534e-05
3.68125619e-05
3.68627462e-05
3.55121199e-05
3.52664482e-05
3.68105658e-05
3.6865037e-05
3.54936417e-05
3.52628996e-05
3.68094847e-05
3.68666994e-05
3.54001756e-05
3.53108527e-05
3.68260761e-05
3.686698e-05
3.68411098e-05
3.56783123e-05
3.49180345e-05
3.49827501e-05
3.68498234e-05
3.68634282e-05
3.56841174e-05
3.506351e-05
3.50668496e-05
3.6867872e-05
3.68580792e-05
3.56683422e-05
3.50816652e-05
3.51084782e-05
3.68765449e-05
3.68896185e-05
3.55588952e-05
3.53443649e-05
3.69143924e-05
3.68846425e-05
3.54225155e-05
3.53126501e-05
3.69264277e-05
3.68743995e-05
3.53280241e-05
3.52946088e-05
3.69391527e-05
3.68690039e-05
3.52369483e-05
3.52639786e-05
3.69596635e-05
3.68799981e-05
3.51523462e-05
3.52153263e-05
3.69847106e-05
3.69267121e-05
3.51805704e-05
3.49966554e-05
3.49421717e-05
3.5220845e-05
3.69952344e-05
3.69487991e-05
3.69914486e-05
3.69485976e-05
3.5257467e-05
3.51769393e-05
3.70548834e-05
3.7004744e-05
3.52486783e-05
3.47568587e-05
3.52739748e-05
3.70300205e-05
3.70590806e-05
3.50956328e-05
3.50761225e-05
3.7054153e-05
3.70942685e-05
3.49784568e-05
3.51476412e-05
3.70840474e-05
3.51898476e-05
3.47998572e-05
3.71009592e-05
3.71207782e-05
3.49595439e-05
3.48398187e-05
3.71031617e-05
3.71368425e-05
3.49917143e-05
3.49199778e-05
3.71076704e-05
3.71594628e-05
3.71324234e-05
3.71527801e-05
3.71421409e-05
3.71515768e-05
3.71490906e-05
3.71522386e-05
3.71531168e-05
3.71540435e-05
3.71564424e-05
3.71572385e-05
3.71604938e-05
3.71619076e-05
3.71654933e-05
3.71676602e-05
3.71713446e-05
3.71742114e-05
3.71779437e-05
3.71813616e-05
3.71852287e-05
3.7188987e-05
3.71931833e-05
3.7197046e-05
3.72018842e-05
3.72056569e-05
3.72115952e-05
3.72152433e-05
3.72228085e-05
3.72265661e-05
3.72359503e-05
3.72401065e-05
3.72507393e-05
3.72550586e-05
3.72677804e-05
3.3703046e-05
3.3914253e-05
3.39114116e-05
3.38488418e-05
3.52369271e-05
3.43772016e-05
3.38548511e-05
3.39593469e-05
3.44647527e-05
3.45085923e-05
3.47177793e-05
3.41050617e-05
3.38307409e-05
3.38506931e-05
3.42037187e-05
3.40242872e-05
3.47129642e-05
3.49737083e-05
3.3964531e-05
3.39431728e-05
3.38760069e-05
3.40404786e-05
3.38059549e-05
3.37824426e-05
3.37873455e-05
3.41469646e-05
3.37738485e-05
3.37903094e-05
3.37498576e-05
3.47482401e-05
3.37765558e-05
3.53450934e-05
3.55588146e-05
3.50004247e-05
3.52170139e-05
3.56866336e-05
3.53966659e-05
3.73892334e-05
3.72492552e-05
3.68170693e-05
3.68539839e-05
3.69418988e-05
3.77922109e-05
3.78755396e-05
3.78791448e-05
3.79532327e-05
3.79613905e-05
3.8617034e-05
3.85772905e-05
3.8600832e-05
3.85151132e-05
3.87530681e-05
3.8589087e-05
3.90916236e-05
3.87658784e-05
3.92310455e-05
3.95892783e-05
4.04108587e-05
3.91444597e-05
3.95579361e-05
4.03199094e-05
4.07724115e-05
4.04116574e-05
4.00360278e-05
4.03599104e-05
4.05625074e-05
4.06285939e-05
4.02689215e-05
4.06507358e-05
4.10989171e-05
4.06691072e-05
4.09118927e-05
3.85782712e-05
4.30656935e-05
4.25651409e-05
4.02973425e-05
4.12292e-05
4.25896163e-05
4.13573765e-05
4.20707778e-05
4.1565015e-05
4.24396702e-05
4.31656412e-05
4.18149251e-05
4.30842051e-05
4.36482879e-05
4.44280993e-05
4.49925496e-05
4.4400458e-05
4.45459356e-05
4.48350774e-05
4.49915118e-05
4.5311577e-05
4.56874669e-05
4.62885734e-05
4.67756311e-05
4.71993419e-05
4.75816734e-05
4.79119851e-05
4.82377375e-05
4.85484459e-05
4.89020712e-05
4.92746108e-05
4.99964618e-05
5.0842876e-05
5.14737217e-05
5.20475383e-05
5.26027684e-05
5.30958634e-05
5.35865195e-05
5.40276282e-05
5.44761611e-05
5.48635805e-05
5.52917066e-05
5.56906953e-05
5.61265241e-05
5.65454523e-05
5.70011591e-05
5.74298365e-05
5.78699551e-05
5.82808268e-05
5.86963735e-05
5.90860757e-05
5.94837602e-05
5.98567171e-05
6.02418205e-05
6.06013287e-05
6.09746768e-05
6.13192844e-05
6.16812274e-05
6.20091703e-05
6.23507644e-05
6.2661319e-05
6.29851853e-05
6.32831242e-05
6.35973245e-05
6.38889222e-05
6.41923133e-05
6.44756322e-05
6.47683943e-05
6.5043631e-05
6.53268475e-05
6.55942192e-05
6.58691479e-05
6.61292208e-05
6.63969311e-05
6.66505393e-05
6.69124378e-05
6.71610738e-05
6.74201087e-05
6.76658294e-05
6.79239826e-05
6.81655468e-05
6.84184063e-05
6.86722105e-05
6.89410347e-05
6.91951817e-05
6.94541831e-05
6.9697921e-05
6.99429447e-05
7.01747611e-05
7.04072811e-05
7.06289089e-05
7.08506647e-05
7.10640653e-05
7.12770151e-05
7.14849931e-05
7.16913904e-05
7.18940276e-05
7.20951519e-05
7.23003952e-05
7.24996243e-05
7.2691925e-05
7.28773794e-05
7.30723899e-05
7.32533241e-05
7.34162317e-05
7.35765611e-05
7.37707515e-05
7.39326549e-05
7.40718509e-05
7.4207688e-05
7.44121477e-05
7.45615074e-05
7.46836903e-05
7.47585987e-05
7.51337098e-05
7.53056581e-05
7.51993873e-05
7.52384528e-05
7.59878369e-05
7.61243206e-05
7.56757644e-05
7.57895065e-05
7.68851945e-05
7.68201582e-05
7.62170961e-05
7.5757629e-05
7.75326163e-05
7.73459329e-05
7.60912971e-05
7.57676115e-05
7.82120007e-05
7.76926471e-05
7.60656414e-05
7.57851713e-05
7.86186894e-05
7.80328771e-05
7.60866973e-05
7.60572575e-05
7.87141417e-05
7.81811133e-05
7.62253723e-05
7.59942343e-05
7.86428432e-05
7.85277012e-05
7.61667042e-05
7.62403514e-05
7.88026885e-05
7.85938816e-05
7.65423076e-05
7.64714962e-05
7.86990534e-05
7.84980864e-05
7.69176942e-05
7.68955215e-05
7.84698608e-05
7.84912919e-05
7.74586765e-05
7.74167794e-05
7.83340328e-05
7.82906138e-05
7.79814059e-05
7.78800965e-05
7.86258162e-05
7.86133538e-05
7.83416878e-05
7.82567062e-05
7.84819596e-05
7.84874263e-05
7.84059395e-05
7.8411283e-05
7.84129263e-05
7.8443141e-05
7.8419073e-05
7.8462114e-05
7.84403512e-05
7.84964351e-05
7.84752558e-05
7.85386418e-05
7.85060951e-05
7.85738842e-05
7.85257171e-05
7.85988921e-05
7.85338454e-05
7.86146551e-05
7.85307165e-05
7.86210067e-05
7.85169691e-05
7.86176222e-05
7.85131656e-05
7.86065042e-05
7.85322114e-05
7.86293317e-05
7.85513135e-05
7.86510632e-05
7.85707633e-05
7.8671637e-05
7.85911694e-05
7.86925958e-05
7.86140921e-05
7.87134294e-05
7.86444541e-05
7.87429332e-05
7.8669257e-05
7.87718633e-05
7.86911733e-05
7.87971341e-05
7.87175142e-05
7.88204603e-05
7.87467696e-05
7.88399274e-05
7.87766994e-05
7.88623296e-05
7.88092504e-05
7.88895069e-05
7.8840617e-05
7.89178505e-05
7.88752992e-05
7.89471889e-05
7.89077981e-05
7.89773737e-05
7.89427919e-05
7.90070118e-05
7.89755467e-05
7.90379974e-05
7.90104448e-05
7.90687388e-05
7.90408807e-05
7.90971864e-05
7.90766977e-05
7.91283134e-05
7.91021139e-05
7.91553097e-05
7.91380757e-05
7.91839332e-05
7.91602589e-05
7.92107346e-05
7.91947106e-05
7.92366671e-05
7.92113721e-05
7.92615268e-05
7.92498866e-05
7.92867517e-05
7.92563641e-05
7.93103241e-05
7.9302005e-05
7.93318394e-05
7.92965699e-05
7.93584618e-05
7.93569305e-05
7.93748523e-05
7.93284006e-05
7.94055173e-05
7.94153585e-05
7.94127722e-05
7.93643846e-05
7.94587194e-05
7.94897164e-05
7.94524428e-05
7.94366426e-05
7.95226314e-05
7.95825646e-05
7.95265277e-05
7.95115828e-05
7.96100487e-05
7.96566813e-05
7.96110506e-05
7.9592956e-05
7.96771109e-05
7.97155819e-05
7.9695795e-05
7.96790218e-05
7.97481133e-05
7.97732956e-05
7.97876952e-05
7.97661264e-05
7.98392832e-05
7.9835945e-05
7.9886786e-05
7.9853637e-05
7.99316244e-05
7.99119746e-05
7.9975205e-05
7.99490903e-05
8.0016606e-05
7.99915043e-05
8.00550278e-05
8.00256747e-05
8.00894174e-05
8.00587639e-05
8.01204696e-05
8.00866941e-05
8.01482379e-05
8.01136967e-05
8.01739631e-05
8.01356842e-05
8.01973498e-05
8.01603378e-05
8.02207861e-05
8.01760819e-05
8.02408737e-05
8.02026277e-05
8.02643423e-05
8.0208392e-05
8.0278083e-05
8.02434476e-05
8.03065876e-05
8.02315897e-05
8.0304178e-05
8.02886772e-05
8.03561042e-05
8.02453397e-05
8.03092726e-05
8.03453148e-05
8.04719554e-05
8.02504971e-05
8.02799121e-05
8.04350504e-05
8.05797604e-05
8.02393469e-05
8.01250237e-05
8.05155985e-05
8.0562777e-05
8.01550689e-05
7.99545263e-05
8.05401447e-05
8.06028111e-05
8.00425741e-05
7.98396176e-05
8.05532225e-05
8.0728106e-05
7.99738296e-05
7.97729359e-05
8.05462219e-05
8.08361955e-05
7.99116587e-05
7.96721863e-05
8.05319956e-05
8.09506183e-05
7.9886421e-05
7.96385615e-05
8.05653508e-05
8.10572003e-05
7.98943755e-05
7.9635417e-05
8.0603908e-05
8.11352905e-05
7.99132049e-05
7.96504219e-05
8.06435087e-05
8.11602775e-05
7.99417226e-05
7.97161028e-05
8.06897918e-05
8.10904912e-05
7.99711381e-05
8.00403629e-05
8.07512123e-05
8.09352465e-05
8.0043764e-05
8.02170906e-05
8.08435591e-05
8.08065564e-05
8.01118813e-05
8.03078815e-05
8.08997212e-05
8.07208084e-05
8.02233945e-05
8.03509251e-05
8.09319763e-05
8.07248517e-05
8.03212917e-05
8.03867802e-05
8.0889862e-05
8.07425035e-05
8.03804955e-05
8.04091089e-05
8.07817049e-05
8.07571911e-05
8.04098907e-05
8.04168172e-05
8.06561755e-05
8.07355331e-05
8.04989073e-05
8.04262377e-05
8.06005717e-05
8.07042834e-05
8.05859047e-05
8.04386782e-05
8.05391369e-05
8.06664382e-05
8.06281554e-05
8.04552807e-05
8.05197834e-05
8.06538814e-05
8.06387732e-05
8.04796697e-05
8.05274572e-05
8.06410994e-05
8.06357799e-05
8.05129821e-05
8.05455712e-05
8.06267608e-05
8.06290138e-05
8.05415885e-05
8.05651033e-05
8.06106476e-05
8.06179363e-05
8.05629843e-05
8.0579236e-05
8.06005576e-05
8.06082008e-05
8.05774641e-05
8.05888922e-05
8.059526e-05
8.06023599e-05
8.05852599e-05
8.05937534e-05
8.05941668e-05
8.06005185e-05
8.05909576e-05
8.05976029e-05
8.05961212e-05
8.06014895e-05
8.05962601e-05
8.06015361e-05
8.06000304e-05
8.06045668e-05
8.06018646e-05
8.06062217e-05
8.060537e-05
8.06091647e-05
8.06072536e-05
8.06106915e-05
8.06097686e-05
8.06128488e-05
8.06121802e-05
8.06150895e-05
8.06150246e-05
8.06177136e-05
8.06180142e-05
8.0620566e-05
8.0621325e-05
8.06237423e-05
8.06248732e-05
8.06272033e-05
8.06287205e-05
8.06309829e-05
8.063285e-05
8.06350768e-05
8.06372886e-05
8.06395001e-05
8.06416539e-05
8.06431322e-05
8.06452177e-05
8.06467236e-05
8.06490936e-05
8.06506531e-05
8.06532951e-05
8.06549329e-05
8.06578349e-05
8.06595742e-05
8.06627261e-05
8.06645879e-05
8.06679812e-05
8.06699841e-05
8.06736125e-05
8.06757724e-05
8.06796309e-05
8.06819614e-05
8.06860461e-05
8.06885593e-05
8.06928653e-05
8.06949952e-05
8.06987703e-05
8.07007842e-05
8.07047743e-05
8.07070222e-05
8.07112246e-05
8.0713714e-05
8.07181277e-05
8.07208631e-05
8.07254879e-05
8.07284712e-05
8.07333069e-05
8.07365381e-05
8.07415845e-05
8.07450616e-05
8.07503187e-05
8.07540375e-05
8.07595056e-05
8.07634595e-05
8.07691393e-05
8.07733198e-05
8.07792114e-05
8.07835368e-05
8.07888323e-05
8.07923051e-05
8.07975928e-05
8.08013518e-05
8.08068436e-05
8.0810876e-05
8.08165709e-05
8.08208641e-05
8.0826759e-05
8.0831301e-05
8.0837391e-05
8.08421707e-05
8.0848449e-05
8.08534564e-05
8.08599143e-05
8.08651403e-05
8.08717686e-05
8.08772044e-05
8.08839943e-05
8.08896305e-05
8.0896577e-05
8.0902401e-05
8.09095062e-05
8.09151282e-05
8.0921404e-05
8.09267824e-05
8.09330706e-05
8.09386824e-05
8.09448171e-05
8.09501124e-05
8.09561146e-05
8.09615793e-05
8.09677315e-05
8.09733515e-05
8.09796548e-05
8.09854191e-05
8.09918741e-05
8.09977736e-05
8.10043798e-05
8.10104081e-05
8.10171637e-05
8.10233171e-05
8.10302176e-05
8.1036496e-05
8.10435344e-05
8.10499405e-05
8.10571074e-05
8.10636459e-05
8.1070931e-05
8.1077607e-05
8.10850006e-05
8.10918182e-05
8.10993131e-05
8.11062736e-05
8.11138671e-05
8.11209686e-05
8.11286632e-05
8.11359003e-05
8.1143705e-05
8.11510686e-05
8.11589988e-05
8.11664775e-05
8.11745563e-05
8.11821351e-05
8.11903921e-05
8.11980548e-05
8.12065343e-05
8.12142562e-05
8.12230082e-05
8.12307659e-05
8.12398827e-05
8.12476206e-05
8.12571867e-05
8.12648691e-05
8.12751117e-05
8.12825778e-05
8.12936204e-05
8.13008352e-05
8.13133358e-05
8.13197605e-05
8.13337747e-05
8.13395164e-05
8.13572098e-05
8.13603062e-05
8.13809572e-05
8.13824223e-05
8.14139044e-05
8.14061862e-05
8.1443394e-05
8.14320456e-05
8.15000201e-05
8.14604267e-05
8.15225988e-05
8.1491685e-05
8.16292465e-05
8.15260622e-05
8.15886462e-05
8.15617961e-05
8.17260381e-05
8.16026244e-05
8.15442854e-05
8.16338473e-05
8.17475507e-05
8.16853712e-05
8.14906584e-05
8.16940466e-05
8.18087064e-05
8.17501453e-05
8.14968397e-05
8.17133116e-05
8.18580322e-05
8.17817736e-05
8.15052296e-05
8.16879784e-05
8.19486945e-05
8.17936983e-05
8.15257285e-05
8.16599725e-05
8.20308343e-05
8.1816722e-05
8.15566664e-05
8.16536243e-05
8.20978069e-05
8.18679339e-05
8.15943728e-05
8.16693346e-05
8.21545969e-05
8.19221667e-05
8.16349672e-05
8.16982554e-05
8.22086385e-05
8.19701565e-05
8.16791151e-05
8.17316693e-05
8.22565951e-05
8.20114049e-05
8.17248923e-05
8.17683181e-05
8.2302003e-05
8.20519432e-05
8.17713585e-05
8.18093352e-05
8.23465891e-05
8.2104112e-05
8.18182531e-05
8.18537534e-05
8.23907073e-05
8.21525217e-05
8.18657264e-05
8.18999578e-05
8.24345102e-05
8.21982662e-05
8.19136913e-05
8.19470434e-05
8.24780075e-05
8.22407105e-05
8.196227e-05
8.19944104e-05
8.25225631e-05
8.2283057e-05
8.20117412e-05
8.20421682e-05
8.25685449e-05
8.23261402e-05
8.20614718e-05
8.20903046e-05
8.26138988e-05
8.23699718e-05
8.21107854e-05
8.2138756e-05
8.26583691e-05
8.24145194e-05
8.2159899e-05
8.21874145e-05
8.27031507e-05
8.24597654e-05
8.22088829e-05
8.22360954e-05
8.27482571e-05
8.25054563e-05
8.22576872e-05
8.22843754e-05
8.27937678e-05
8.25510745e-05
8.23059665e-05
8.23322002e-05
8.2838477e-05
8.25965518e-05
8.2353272e-05
8.23797967e-05
8.28835426e-05
8.26422254e-05
8.23999661e-05
8.2427307e-05
8.29286719e-05
8.26880126e-05
8.24460885e-05
8.2474301e-05
8.29735278e-05
8.27334746e-05
8.24917306e-05
8.25207146e-05
8.30179728e-05
8.27786503e-05
8.25369675e-05
8.25665575e-05
8.30619855e-05
8.28237644e-05
8.2581785e-05
8.26119292e-05
8.31053239e-05
8.28683771e-05
8.2626125e-05
8.26568658e-05
8.31481098e-05
8.29124647e-05
8.2670193e-05
8.27013787e-05
8.31903376e-05
8.29558539e-05
8.27139994e-05
8.27454747e-05
8.32320442e-05
8.29974922e-05
8.27575072e-05
8.27891915e-05
8.32731527e-05
8.30387099e-05
8.28006456e-05
8.28325919e-05
8.33138514e-05
8.30795214e-05
8.28434115e-05
8.28756484e-05
8.33542017e-05
8.31198275e-05
8.2885897e-05
8.29184155e-05
8.33943822e-05
8.31595373e-05
8.29279245e-05
8.29608648e-05
8.34343318e-05
8.31985663e-05
8.29693268e-05
8.30029511e-05
8.34723425e-05
8.32367995e-05
8.30099806e-05
8.30445975e-05
8.35094984e-05
8.32742195e-05
8.30500476e-05
8.30856853e-05
8.35464766e-05
8.33108336e-05
8.30895602e-05
8.31258357e-05
8.35831723e-05
8.33470313e-05
8.31284663e-05
8.31654331e-05
8.36194598e-05
8.33827088e-05
8.3166684e-05
8.32043417e-05
8.36552638e-05
8.34178601e-05
8.32041683e-05
8.32425269e-05
8.36904538e-05
8.34526079e-05
8.32408741e-05
8.32798944e-05
8.3724963e-05
8.34865772e-05
8.32767543e-05
8.33163864e-05
8.37587423e-05
8.35200233e-05
8.3311778e-05
8.3352036e-05
8.37917934e-05
8.35529563e-05
8.33459862e-05
8.33868689e-05
8.38240502e-05
8.35854009e-05
8.33794823e-05
8.34208767e-05
8.38553249e-05
8.36173429e-05
8.34082015e-05
8.34540584e-05
8.38853671e-05
8.36487093e-05
8.34355505e-05
8.34864192e-05
8.39143605e-05
8.367942e-05
8.34621288e-05
8.35179572e-05
8.39426043e-05
8.37094507e-05
8.34878509e-05
8.35486738e-05
8.39701802e-05
8.37388012e-05
8.35127259e-05
8.35785733e-05
8.39971072e-05
8.37674959e-05
8.35368148e-05
8.36076679e-05
8.40233475e-05
8.37955946e-05
8.35599476e-05
8.36359687e-05
8.40488375e-05
8.38230284e-05
8.35824291e-05
8.36634792e-05
8.40735914e-05
8.38489914e-05
8.36044022e-05
8.36902181e-05
8.40975957e-05
8.38743676e-05
8.36256082e-05
8.37162365e-05
8.41209618e-05
8.38991378e-05
8.3645478e-05
8.37415287e-05
8.41438854e-05
8.39232572e-05
8.36639006e-05
8.37660915e-05
8.41664779e-05
8.39466695e-05
8.3680761e-05
8.37899113e-05
8.41888504e-05
8.39692708e-05
8.3695831e-05
8.38129627e-05
8.42112521e-05
8.39909879e-05
8.37087476e-05
8.38351997e-05
8.42338613e-05
8.40119411e-05
8.37202696e-05
8.3856479e-05
8.42558054e-05
8.40326821e-05
8.37324934e-05
8.38768427e-05
8.42758371e-05
8.40530571e-05
8.37464605e-05
8.38963558e-05
8.4293857e-05
8.40730534e-05
8.37615856e-05
8.39150598e-05
8.43103996e-05
8.40926553e-05
8.37769503e-05
8.39329955e-05
8.43261064e-05
8.41118185e-05
8.37921797e-05
8.39501362e-05
8.43410227e-05
8.41305432e-05
8.38073157e-05
8.39664421e-05
8.4355108e-05
8.41488828e-05
8.38224072e-05
8.39818876e-05
8.43683272e-05
8.4166911e-05
8.38374861e-05
8.39964934e-05
8.43806354e-05
8.41845738e-05
8.38525663e-05
8.40102877e-05