/*--------------------------------*- C++ -*----------------------------------*\
| =========                 |                                                 |
| \\      /  F ield         | OpenFOAM: The Open Source CFD Toolbox           |
|  \\    /   O peration     | Version:  2306                                  |
|   \\  /    A nd           | Website:  www.openfoam.com                      |
|    \\/     M anipulation  |                                                 |
\*---------------------------------------------------------------------------*/
FoamFile
{
    version     2.0;
    format      ascii;
    arch        "LSB;label=32;scalar=64";
    class       volScalarField;
    location    "0.00014";
    object      prefDh_H2O;
}
// * * * * * * * * * * * * * * * * * * * * * * * * * * * * * * * * * * * * * //

dimensions      [1 1 -3 0 0 0 0];

internalField   nonuniform List<scalar> 
3801
(
92.8952449
87.946274
87.6753909
88.730305
92.3973908
92.8188802
88.0284103
88.3490901
92.2805241
92.1953893
92.6361288
88.0988877
88.1689419
92.2092948
92.4833781
88.0962123
87.8112475
88.2678985
92.2845954
92.3705541
88.2136008
87.7709144
88.1351448
92.3006043
92.3223275
88.086739
88.0497976
92.3159375
92.3481581
88.0993727
87.8455942
87.8361027
87.9606102
92.2962438
92.4364888
88.150707
87.5868547
88.0122004
92.4460756
92.317523
92.33158
92.3627735
88.6788215
87.832776
87.8184226
88.0107123
92.3457901
92.412863
88.1663452
87.6007972
88.0033573
92.4441702
92.2708232
88.1712285
88.0137609
92.4231488
92.3956309
88.4518666
87.6964512
88.1094847
92.4139041
92.2893224
88.2265086
88.0588944
92.5652079
92.3308534
88.305637
88.1339557
92.5493485
92.3854373
88.2566142
88.0939469
92.5564235
92.8230686
88.2776908
90.3925719
92.3308479
88.6225966
88.3019011
92.0717038
90.2164071
88.554477
92.3246635
92.1795322
92.6872322
89.1386994
87.8570091
87.8977121
87.9342059
87.8972103
87.890585
88.1585282
92.7313352
92.683445
88.2732596
88.2155415
93.0018772
92.2249315
92.9405655
88.4610101
88.2680014
93.002721
92.6988417
88.4621976
88.2794211
92.9019211
92.8078446
88.3353336
87.8789174
87.98687
88.2669415
92.0376605
92.732225
88.9128047
88.1761908
91.328257
92.6818198
89.3877036
88.2261638
91.2061816
92.3832239
92.5184049
90.9424093
87.8614675
87.8472469
87.9306869
87.8508151
87.9164915
89.4603076
92.5009083
91.3681327
87.8943264
89.0521483
92.3722176
92.3243767
92.2805048
88.0460246
88.4091247
92.3077391
93.0211501
88.0034601
88.6756511
92.4933657
88.6925563
88.16554
92.178559
92.4880086
88.0422045
87.8629017
88.0030624
87.8120503
87.9913258
92.270189
92.2848324
92.205188
92.3307715
88.4215756
87.907351
88.0356258
92.2500215
92.2173376
88.1446105
88.1246915
92.23527
92.2079627
88.6798396
88.2015938
88.9414658
88.1454348
88.0982823
92.3796404
92.2016264
88.1585263
88.0066068
92.461931
92.2756568
88.1463915
87.8930281
87.6960199
87.7083515
92.6133476
92.300794
92.4605032
88.2490459
87.8133482
92.6243494
92.3306568
88.1070781
87.8823475
92.6904826
92.313458
88.1041548
87.8982592
92.7047679
92.3112108
88.1398926
87.9168151
92.6616783
92.3267592
88.3101919
87.894666
87.7476656
87.7169629
92.724399
92.3509124
88.1399409
87.885019
92.705554
92.3107989
88.1434535
87.9249653
92.6610981
92.2976923
88.1300131
87.9411924
92.5926738
92.2961757
88.1429195
87.9739591
92.4573628
92.325177
88.9117179
87.9263864
87.9159154
92.4127423
92.2733267
88.1976766
88.0007951
92.3700341
92.2754856
88.0852823
87.9599275
92.3133354
92.3137171
88.2138134
87.9365781
87.8763587
87.9076157
92.3273885
92.3704056
88.1207302
88.1163394
92.2672948
92.3769426
88.1066445
88.1430583
92.2617035
92.3932521
88.0582138
88.0900437
92.2752146
92.4365537
87.965438
88.1421389
92.2900873
92.3096836
92.2530762
92.3936881
88.4596066
87.9177444
88.0112165
87.8478471
87.8640637
87.7199521
87.888742
92.3240595
92.3962568
88.0590287
88.1109374
92.2477441
92.3397568
88.0668409
88.1516746
92.2284568
92.3137308
88.0342778
88.1187645
92.2023364
92.3347699
88.1397446
87.7973042
87.9974603
92.321337
92.2670331
88.0617958
88.0596678
92.2469356
92.26216
88.1418628
87.9846558
87.9073569
87.9614734
92.3118691
92.2797942
88.026629
88.0378286
92.2957215
92.2223764
87.9795576
88.2296482
92.3285075
88.486691
87.8425338
92.2590176
92.2774056
87.9825547
87.9656826
92.2949994
92.3315569
88.0956467
87.7954843
87.9163195
87.631372
87.7539564
92.3828787
92.3552294
92.2573897
92.3268798
88.6520373
87.7745543
87.8818138
92.3797862
92.267289
88.0268435
87.8994822
92.4001751
92.2676929
87.9745737
87.901911
92.4164528
92.2691262
87.9642744
87.9390533
92.4268083
92.2766266
92.276379
92.2725226
88.7258256
87.9867615
88.0613638
87.9536414
87.852947
87.834417
92.4642973
92.2934908
88.142619
88.004085
92.468904
92.2639868
88.1217195
88.0165615
92.4831228
92.2792379
88.1178544
87.983782
92.4615409
92.3554272
88.2471208
87.7667929
87.7479433
92.5011839
92.3132952
88.1016274
87.9910577
92.6647972
92.2561038
92.405929
88.229305
87.8747192
92.6325589
92.3216292
88.1211534
87.9247621
92.6939153
92.3092083
88.1628731
87.9505763
92.677917
92.327086
88.5455855
87.960692
88.0147023
87.8441179
87.8124995
92.7373184
92.3137537
88.7918986
88.0925026
87.9806226
87.9607892
92.7700159
92.3445343
89.0857325
87.9701036
87.9209972
92.8461071
92.2714965
88.6173896
88.0990706
92.9031364
92.2476036
88.510963
88.0685183
92.9411933
92.2772631
88.8718226
88.0251164
87.8634564
87.8168887
93.0656451
92.3309446
88.5115633
88.0246392
93.0445055
92.3103003
88.8433944
88.0551785
87.7840635
87.763728
93.1284872
92.3203208
92.4085418
88.9282421
88.083956
93.1133806
92.2490426
92.389079
89.4394139
87.8100705
87.7496819
93.0530755
92.3454024
88.5554245
88.0166286
93.0766861
92.3166106
88.4414872
87.9952981
93.0318683
92.4067697
89.0797552
87.7304004
87.6918363
93.0256097
92.393556
88.4546207
87.9870172
92.9546018
92.4118095
89.1559297
87.6930543
87.6832719
92.9522367
92.3394578
92.4445138
88.6481451
87.9829329
92.8771612
92.3162771
88.2996634
87.9648377
92.8724387
92.3119199
88.2854571
87.9583838
92.7131169
92.3618173
92.5432776
92.3415969
89.6132605
87.9614499
87.9957064
87.9353314
87.9221562
87.9505503
87.7748197
87.7789236
92.6636858
92.4087947
89.5900249
87.9693038
87.9295869
92.6529771
92.3168906
88.3240137
87.9867639
92.7156826
92.3356563
88.293506
87.833441
87.5227809
87.4962468
92.9748838
92.3982883
92.6199082
92.3011551
92.3091136
88.396474
87.9240822
92.7058199
92.3281484
88.6631887
87.9997056
87.8766278
87.8753566
92.7437037
92.3782603
89.163181
87.8602615
87.8183422
92.7811414
92.3186375
88.2146822
87.9111928
92.8992438
92.3198025
92.460676
92.3180739
88.2470755
87.8367898
92.7813233
92.3335661
88.1586276
87.8431881
92.7375035
92.3757825
88.4780415
87.6939829
87.6971667
92.5718496
92.3024943
88.2169204
87.9775374
92.6361599
92.2617401
88.2124309
88.0437112
92.5550684
92.2718412
88.2381724
87.923833
92.5631345
92.3042074
88.0478177
87.978667
92.3753838
92.714812
87.9396469
87.882357
87.8974384
88.2756867
92.3181188
92.5266712
87.8785655
87.8303428
87.9329839
88.2571205
92.2905633
92.6443702
88.0351128
88.1924768
92.2870997
92.8207302
88.0227928
88.2658434
92.3082564
92.9762077
87.995723
88.3111151
92.333048
92.985796
87.9507771
88.338295
92.3477452
92.7990961
87.9330844
88.4014758
92.3630767
93.0853958
87.7310175
87.774549
89.3072008
92.4333808
92.9341619
87.850763
87.9064478
90.855629
92.3241072
92.4759196
92.3328331
92.859083
87.9464249
87.9570535
88.0759298
87.9598332
88.3364556
92.4308209
92.3377559
92.5872878
90.755994
88.1925145
89.8917057
92.4448329
90.3652657
87.7561008
87.7809333
88.2239789
92.5692073
92.5573498
88.2734067
87.7452917
88.4564776
92.3840781
92.6429505
88.1092344
88.2802333
92.2850063
92.6034949
88.0923881
88.2850049
92.2383602
92.4636948
88.1142874
87.7912472
88.5600686
92.3045847
92.331699
88.1848147
87.9439296
88.0807406
88.0284122
88.0043058
88.0548486
87.9336176
88.3204442
92.2971931
92.2547791
88.1208652
88.1814036
92.2613932
92.289781
88.1410996
88.195327
92.2636787
92.3012784
88.1339021
88.1860736
92.2944
92.2897855
88.0539454
88.6946435
92.4573626
89.0888964
88.1561339
92.258361
92.3832387
88.004587
88.2331021
92.3113406
92.4528027
87.9641477
87.7555076
88.8234698
92.4319995
92.441988
87.8727924
87.7783368
87.9973068
89.0556324
92.3697148
92.4905575
92.3442258
92.7745086
88.0515407
87.6860509
88.7486232
92.4836328
92.842988
88.058864
88.2384112
92.5419454
92.9001725
87.760278
87.6909727
89.0147571
92.3755648
92.3105614
92.6198405
92.3491077
92.7506763
88.0446397
87.7605837
87.8944539
87.9452109
87.9494271
88.7727445
92.6496893
93.0314499
88.2604192
88.3189539
92.8119312
92.9858387
88.0928662
87.8575481
88.914113
92.6351425
92.8850742
88.2764363
87.9479741
89.0458108
92.4118723
92.3852852
92.4604168
92.7482266
89.1832673
88.3227106
91.3595775
92.6615358
89.3209796
87.8554895
87.9092918
88.0739114
88.1694418
90.8667425
92.506017
90.7925149
87.7895526
87.8802957
89.954874
92.4281814
92.3089888
87.9724887
88.716472
92.3258544
92.8552757
87.9808959
88.9213413
92.2783923
92.3741131
92.3193675
92.894942
87.8088016
87.8400546
87.9838438
87.9094452
88.0063881
87.8953362
88.3660401
92.3348838
92.6047294
87.8818273
87.9638125
92.2701033
92.6533791
88.1395004
92.4253673
92.4104109
87.7651323
87.7409735
88.1383014
92.326554
92.3749099
87.98811
88.5448137
92.3425575
88.268397
88.0702787
92.2508281
92.3527531
88.0488788
88.0189478
92.2989884
92.3758564
87.9613096
87.9993019
92.3324767
92.3671784
87.8526902
88.0586327
92.3721855
92.2882937
92.4068631
87.9989024
87.7965019
92.3205007
92.4046887
87.8651041
87.8733716
92.3511119
92.4015805
87.8015005
87.9432199
92.3716611
92.3025768
92.4108875
87.9993363
87.8557088
92.2771942
92.4169949
87.9161657
87.7951772
87.9479449
87.8372128
88.0082969
92.2979876
92.3404454
88.0965854
87.8985192
88.0929915
92.2519544
92.3305259
88.1324467
87.8694936
88.1812715
92.3421214
92.1929121
92.3302523
88.1785491
87.9893043
92.2600967
92.2915035
87.9762644
87.8967206
87.6050068
87.9126097
92.5239109
92.2728026
92.4723249
88.1054866
87.8702917
92.3194312
92.2699398
88.0561273
88.1854765
92.2990361
88.6981986
87.9352511
88.0336664
87.9774418
92.3368838
92.293542
88.1825425
87.8663075
87.9806445
92.3854542
92.218978
88.0887083
87.9463743
92.4670677
92.2364057
88.1630554
87.989981
92.5004602
92.2463097
88.0986133
87.9383956
92.555008
92.2628106
88.1109115
87.925713
92.5628207
92.2834242
88.1953039
87.8894612
87.8687013
87.8465443
92.606069
92.2777351
88.1943801
87.9551114
92.622213
92.2575756
88.1449316
87.9065454
92.6559333
92.2644673
88.1194737
87.869521
92.6842187
92.2710305
88.1026376
87.8440693
92.7120642
92.2730183
88.0893565
87.8389663
92.7485449
92.2633373
88.0053957
87.8781302
92.8246816
92.1926238
92.3893174
88.5902609
87.5687747
87.5994425
92.5131017
92.3395574
88.5000564
87.6769212
87.6746294
92.4906589
92.3370202
88.5656701
87.6961255
87.684502
92.3991149
92.2490944
88.1054845
87.8813638
92.3659027
92.3099771
87.9778851
87.8396199
92.3402188
92.434155
87.8820643
87.8171747
92.3251242
92.5489702
87.7846545
87.7840196
92.3059961
92.6241789
87.6822176
87.722483
92.239753
92.4356356
87.7060015
87.5314345
87.473899
87.7019621
92.221343
92.2840892
92.1793289
92.4726189
87.715049
87.6656544
92.0386445
92.2819098
87.6836487
87.2724239
87.7068081
92.1734855
92.1389182
87.5350192
87.5165412
92.1755991
92.0602285
87.4076728
87.5485768
92.2305856
87.5614699
87.239285
92.2328832
92.1206913
87.332934
87.2425087
92.206715
92.0195593
87.3609185
87.2852216
92.1616347
91.9160041
92.0684937
91.8755043
91.9610714
91.8324392
91.8849121
91.7865775
91.819491
91.7371432
91.7532338
91.6845225
91.6854514
91.6296054
91.6180446
91.5725932
91.5519174
91.5129857
91.4868225
91.4499535
91.4221109
91.382697
91.3572939
91.3105747
91.2922122
91.2330953
91.2269572
91.1498804
91.16165
91.0607652
91.0962809
90.9655475
91.0300551
90.8634627
90.8690357
91.1299926
92.2553782
85.3462432
90.8724224
93.1226795
92.8471799
87.5385981
84.7634038
92.1411974
91.9945386
83.2042232
82.0848755
88.9220963
87.0923625
82.1810182
84.2100872
90.5553136
90.9312088
84.872797
85.0263074
87.0044612
87.093987
85.651652
85.5201878
85.1868579
85.9704089
84.6316358
84.2321163
84.0582856
85.9005007
83.6191247
83.2470686
80.3317567
86.0969315
83.7224458
80.3968504
82.0928386
86.1760513
85.0284336
81.0706
81.2999223
82.1596648
84.02941
81.0805683
81.9336562
80.3623526
80.9625306
80.2286307
80.9896244
79.1620752
80.4779555
78.2303075
81.4107514
77.7683998
81.8033608
78.8433597
79.412097
74.4340823
83.6798032
81.7526988
76.2521568
73.9193288
76.7804317
77.1505843
75.6863913
74.9902588
75.1643214
75.4433245
74.3460762
73.5759524
74.2640845
73.8479348
82.5367669
64.2197607
66.6087885
75.055574
71.4470776
66.4759706
70.1864052
68.0600758
68.5467118
66.0105758
63.9543571
66.6979068
62.7336076
61.1257948
58.5826098
57.1155743
57.5821338
56.9622948
55.6616882
55.0135892
53.716957
52.5526124
50.6785371
49.1766293
47.7099038
46.3739687
45.123172
43.8701206
42.6880376
41.3777425
40.1307178
37.8660605
35.0033848
32.5814231
30.340326
28.1304069
26.0517649
23.9931953
21.9779638
19.9967386
18.0915124
16.141409
14.1547154
12.1414781
10.0409789
7.89632214
5.68548517
3.49561143
1.26411297
-0.905115261
-3.11205006
-5.27188998
-7.462857
-9.62636615
-11.8022786
-13.9586797
-16.1023326
-18.2385409
-20.3275181
-22.3831057
-24.3893627
-26.3589386
-28.3024841
-30.2178941
-32.1246949
-33.9738808
-35.8255846
-37.6040668
-39.3946982
-41.1020063
-42.824227
-44.4606059
-46.1083872
-47.6758563
-49.2459899
-50.7460235
-52.235194
-53.6740791
-55.0809973
-56.4694996
-57.8088736
-59.1615836
-60.5227293
-61.9462896
-63.2891017
-64.6796724
-65.9601234
-67.298
-68.5126263
-69.8081465
-70.9633435
-72.2198878
-73.3300475
-74.5615781
-75.5955478
-76.7881833
-77.8296842
-79.0509719
-79.8835954
-81.0148561
-82.0725995
-83.3690267
-83.5943325
-84.6572723
-86.1034422
-87.6935805
-86.4508361
-87.4785864
-90.2526365
-92.5077636
-88.3919902
-89.6259949
-94.3805954
-97.5535658
-90.3026468
-91.6348389
-98.0532649
-104.106096
-90.5930774
-91.0409096
-104.43655
-114.588569
-87.3050955
-89.6594468
-115.564281
-122.868125
-82.7666302
-89.6198554
-123.527619
-130.954001
-83.1081117
-89.4499645
-132.774742
-138.632995
-84.5267416
-90.9086287
-141.202644
-147.320701
-89.2423728
-97.5489154
-148.335347
-151.501387
-96.3853256
-109.949873
-151.933826
-153.808907
-109.620657
-117.534479
-154.787217
-152.645563
-121.123706
-122.538816
-152.05496
-152.498093
-129.899733
-129.890751
-150.930747
-152.028959
-137.336659
-135.776226
-148.891584
-150.010839
-145.904931
-145.535116
-147.93878
-148.305033
-148.944044
-149.425328
-150.050993
-150.647345
-151.259472
-151.881291
-152.560893
-153.163326
-153.94617
-154.504054
-155.38357
-155.879884
-156.827821
-157.258108
-158.263678
-158.636294
-159.682458
-160.006409
-161.083192
-161.361273
-162.4559
-162.690779
-163.839794
-163.98746
-165.263653
-165.354341
-166.65466
-166.687301
-168.005292
-167.980425
-169.301655
-169.221929
-170.545042
-170.408098
-171.732694
-171.545611
-172.831766
-172.615015
-173.832243
-173.594698
-174.765974
-174.499082
-175.618917
-175.314791
-176.417419
-176.074061
-177.135023
-176.777267
-177.814338
-177.442655
-178.416974
-178.049898
-179.010292
-178.64054
-179.523242
-179.177685
-180.066057
-179.71945
-180.518048
-180.216254
-181.038854
-180.72335
-181.452399
-181.199032
-181.974973
-181.689865
-182.353842
-182.150153
-182.911857
-182.634348
-183.238273
-183.086607
-183.854053
-183.554932
-184.104808
-184.010867
-184.808805
-184.449488
-184.918546
-184.913022
-185.796835
-185.297686
-185.643629
-185.797668
-186.850451
-186.055161
-186.218882
-186.69443
-188.060741
-186.702135
-186.441764
-187.689361
-189.056348
-187.085466
-187.106217
-188.677842
-189.936159
-187.957155
-188.046651
-189.325067
-190.553875
-189.009696
-189.069867
-189.834959
-190.974128
-189.99352
-190.088331
-190.430622
-191.268348
-190.765636
-191.036691
-191.091628
-191.620463
-191.400608
-191.793286
-191.683796
-192.143163
-191.961825
-192.393284
-192.223865
-192.682271
-192.479018
-192.9376
-192.723978
-193.208371
-192.963518
-193.452182
-193.191713
-193.724125
-193.417078
-193.931185
-193.618467
-194.229488
-193.831706
-194.344399
-193.97891
-194.732741
-194.207296
-194.640982
-194.223474
-195.273841
-194.584376
-194.74457
-194.237613
-195.9285
-195.149306
-194.567754
-193.576727
-196.733642
-196.507248
-193.932431
-190.822046
-197.979378
-199.627102
-192.915284
-187.400386
-199.689793
-201.481422
-191.540279
-185.076483
-201.10693
-202.385219
-189.978614
-183.109918
-201.766972
-202.993619
-188.255726
-180.29642
-202.365632
-203.875892
-187.325996
-179.636202
-202.757697
-204.478331
-187.150254
-179.24741
-202.9487
-204.798806
-187.266894
-179.091899
-203.022324
-204.912302
-187.421742
-179.30409
-203.007803
-204.495037
-187.566451
-180.648719
-202.940037
-202.504192
-187.681165
-186.538818
-202.531605
-201.49511
-187.592179
-188.879185
-202.279567
-200.169242
-188.138518
-190.220598
-201.733244
-199.411944
-189.049501
-190.986289
-200.386033
-198.777194
-190.404672
-191.599416
-199.175705
-198.344914
-191.770521
-192.060642
-198.058714
-198.319138
-192.875531
-192.576304
-196.867271
-198.2568
-194.884631
-193.053861
-195.406554
-198.275311
-196.522066
-193.566674
-194.715839
-198.235184
-197.149776
-194.432972
-194.847829
-198.102979
-197.289542
-195.198742
-195.322147
-197.826105
-197.268216
-195.871312
-195.85054
-197.584284
-197.217869
-196.467277
-196.39446
-197.453112
-197.242764
-196.926409
-196.871563
-197.458878
-197.350522
-197.280677
-197.249723
-197.584242
-197.534011
-197.576477
-197.564591
-197.776498
-197.760916
-197.845407
-197.852204
-198.001487
-198.010539
-198.105126
-198.127602
-198.245507
-198.271577
-198.364306
-198.39943
-198.497106
-198.534459
-198.621489
-198.664811
-198.752201
-198.798706
-198.880943
-198.931597
-199.012116
-199.065826
-199.143162
-199.200016
-199.275363
-199.334789
-199.407889
-199.469711
-199.54105
-199.6049
-199.67455
-199.740193
-199.807298
-199.872315
-199.937091
-200.003352
-200.067012
-200.134303
-200.196962
-200.265093
-200.326864
-200.395654
-200.456629
-200.525918
-200.586177
-200.655813
-200.715426
-200.785268
-200.844295
-200.914214
-200.972703
-201.042578
-201.100569
-201.168612
-201.223967
-201.290787
-201.345707
-201.412193
-201.466694
-201.532757
-201.586853
-201.652412
-201.70611
-201.77109
-201.824393
-201.888723
-201.941634
-202.005246
-202.057764
-202.120596
-202.172719
-202.234711
-202.286436
-202.347534
-202.398857
-202.4588
-202.507198
-202.562041
-202.608803
-202.662753
-202.709081
-202.762097
-202.807981
-202.860027
-202.905454
-202.956501
-203.001456
-203.05148
-203.095948
-203.144925
-203.188893
-203.236805
-203.280261
-203.327087
-203.370031
-203.415743
-203.458188
-203.502747
-203.544728
-203.586771
-203.624844
-203.664377
-203.70157
-203.740331
-203.776137
-203.812719
-203.846987
-203.882773
-203.916243
-203.951231
-203.983884
-204.018081
-204.049891
-204.083308
-204.11424
-204.146892
-204.176902
-204.208807
-204.237838
-204.269013
-204.296996
-204.327462
-204.354311
-204.384084
-204.409693
-204.438793
-204.46303
-204.491479
-204.514179
-204.542005
-204.562957
-204.590204
-204.609139
-204.635875
-204.652436
-204.678778
-204.692513
-204.718626
-204.728899
-204.755081
-204.761138
-204.787747
-204.788393
-204.816151
-204.810236
-204.839759
-204.824826
-204.857931
-204.83273
-204.869959
-204.828529
-204.875008
-204.818622
-204.872159
-204.782994
-204.860391
-204.75594
-204.838437
-204.655853
-204.805385
-204.640427
-204.759293
-204.368739
-204.700094
-204.518392
-204.625408
-203.682612
-204.533924
-204.62227
-204.434046
-202.065382
-204.281674
-205.342049
-204.203563
-199.321352
-203.87963
-206.550008
-204.05638
-196.844309
-203.271066
-207.468427
-204.206836
-194.91208
-202.41938
-207.813575
-204.76081
-193.103482
-201.266106
-208.052481
-205.611344
-192.219603
-199.863496
-208.158705
-206.430983
-191.761124
-198.516359
-208.225341
-207.084867
-191.558767
-197.569161
-208.278154
-207.516489
-191.522945
-196.701428
-208.329208
-207.685459
-191.547209
-196.119151
-208.363583
-207.837131
-191.664361
-195.723756
-208.392974
-207.96127
-191.822511
-195.503222
-208.422568
-208.043628
-191.994807
-195.558155
-208.453799
-208.096776
-192.178951
-195.704337
-208.486708
-208.139055
-192.373949
-195.904549
-208.521318
-208.181467
-192.57826
-196.11235
-208.550664
-208.226932
-192.774312
-196.323788
-208.56832
-208.272039
-192.956006
-196.528083
-208.580848
-208.316849
-193.122488
-196.725127
-208.600507
-208.361945
-193.272751
-196.913949
-208.623937
-208.407769
-193.416888
-197.092053
-208.649905
-208.453406
-193.554413
-197.259679
-208.677037
-208.504238
-193.68246
-197.42179
-208.709787
-208.555182
-193.815414
-197.577111
-208.752883
-208.598245
-193.935076
-197.723495
-208.797162
-208.630728
-194.045349
-197.857602
-208.842757
-208.659086
-194.151598
-197.984315
-208.888654
-208.688231
-194.256468
-198.103695
-208.93449
-208.718156
-194.361577
-198.214521
-208.980097
-208.747445
-194.468329
-198.319499
-209.025302
-208.776696
-194.577491
-198.419372
-209.068139
-208.807143
-194.689429
-198.513942
-209.110609
-208.839099
-194.803152
-198.600605
-209.15381
-208.872022
-194.919533
-198.688706
-209.19924
-208.905333
-195.035531
-198.779533
-209.244888
-208.938619
-195.149797
-198.873562
-209.288341
-208.972265
-195.259633
-198.972041
-209.332093
-209.005542
-195.364684
-199.075596
-209.379183
-209.038058
-195.448557
-199.185091
-209.432706
-209.070027
-195.518166
-199.2991
-209.488545
-209.10139
-195.582086
-199.414954
-209.545377
-209.132708
-195.641332
-199.529663
-209.602971
-209.163681
-195.69687
-199.641086
-209.661192
-209.194753
-195.749551
-199.748063
-209.719903
-209.225757
-195.799496
-199.847772
-209.778764
-209.258924
-195.846918
-199.945849
-209.838537
-209.293
-195.891503
-200.037958
-209.898297
-209.325664
-195.933842
-200.123612
-209.957619
-209.357811
-195.975572
-200.202253
-210.013129
-209.389271
-196.021238
-200.274082
-210.041558
-209.420008
-196.073724
-200.340503
-210.062827
-209.45006
-196.12947
-200.402985
-210.083049
-209.479325
-196.183769
-200.461984
-210.102597
-209.507806
-196.235719
-200.517625
-210.12148
-209.535583
-196.285315
-200.569835
-210.139744
-209.562887
-196.332936
-200.617483
-210.157269
-209.590286
-196.380247
-200.660747
-210.174272
-209.619212
-196.42666
-200.692653
-210.190858
-209.649856
-196.472756
-200.720877
-210.206841
-209.681571
-196.515987
-200.746016
-210.221823
-209.712183
-196.552844
-200.769362
-210.235734
-209.741084
-196.581507
-200.791838
-210.248497
-209.767258
-196.600372
-200.815187
-210.259955
-209.79086
-196.605371
-200.840336
-210.269858
-209.812764
-196.592901
-200.864404
-210.278754
-209.832447
-196.579922
-200.874492
-210.288113
-209.846402
-196.585634
-200.87475
-210.298652
-209.856919
-196.615078
-200.865989
-210.309951
-209.869985
-196.657595
-200.849632
-210.321369
-209.888456
-196.699991
-200.82598
-210.332645
-209.912034
-196.74233
-200.794451
-210.343811
-209.940732
-196.785761
-200.753686
-210.354904
-209.974508
-196.831195
-200.701894
-210.365948
-210.012982
-196.879497
-200.640698
-210.376953
-210.056296
-196.931423
-200.569556
-210.387917
-210.104305
-196.987594
-200.48817
-210.398827
-210.156239
-197.048551
-200.397193
-210.409653
-210.211001
-197.114516
-200.297876
-210.420329
-210.267363
-197.185203
-200.191825
-210.43057
-210.324357
-197.259155
-200.080146
-210.440473
-210.380743
-197.335876
-199.964407
-210.450071
-210.435504
-197.415466
-199.84698
-210.459376
-210.486555
-197.497368
-199.733197
-210.468298
-210.531193
-197.577725
-199.629623
-210.476797
-210.554471
-197.655579
-199.540937
-210.484855
-210.555303
-197.730266
-199.462018
-210.492494
-210.556438
-197.80213
-199.389645
-210.499774
-210.557575
-197.870851
-199.321837
-210.50671
-210.558567
-197.936859
-199.257393
-210.513427
-210.559464
-198.000178
-199.198625
-210.520094
-210.560318
-198.062066
-199.146896
-210.52687
-210.561186
-198.121982
-199.104528
-210.533352
-210.562266
-198.17215
-199.075758
-210.539123
-210.563687
-198.208568
-199.062221
-210.54421
-210.565347
-198.232567
-199.060943
-210.548813
-210.567016
-198.25006
-199.061814
-210.552557
-210.5685
-198.262388
-199.063267
-210.555606
-210.569773
-198.270951
-199.064844
-210.558106
-210.570816
-198.276443
-199.066363
-210.560141
-210.571635
-198.279164
-199.067752
-210.561754
-210.57227
-198.279609
-199.069086
-210.563041
-210.572824
-198.279258
-199.07124
-210.564232
-210.574023
-198.282339
-199.081683
-210.566668
-210.5752
-198.296486
-199.089566
-210.567864
-210.575419
-198.299393
-199.093336
-210.568531
-210.575386
-198.299201
-199.097631
-210.568907
-210.57521
-198.297029
-199.101952
-210.568998
-210.574838
-198.294307
-199.104745
-210.568964
-210.574251
-198.291964
-199.106016
-210.568622
-210.573623
-198.289257
-199.106512
-210.567933
-210.572885
-198.28487
-199.107998
-210.566891
-210.572117
-198.274717
-199.114686
-210.565278
-210.571272
-198.251018
-199.132988
-210.563414
-210.570222
-198.223297
-199.134514
-210.561833
-210.568871
-198.220826
-199.127401
-210.56019
-210.567344
-198.217908
-199.12332
-210.55822
-210.565624
-198.196918
-199.125034
-210.556829
-210.563512
-198.202895
-199.099127
-210.554812
-210.561603
-198.201061
-199.105982
-210.55291
-210.559683
-198.173724
-199.10563
-210.550327
-210.55793
-198.163256
-199.102824
-210.547502
-210.555827
-198.145797
-199.106827
-210.544791
-210.553772
-198.120484
-199.105952
-210.54231
-210.55127
-198.116935
-199.083896
-210.540209
-210.548324
-198.124566
-199.063409
-210.538268
-210.545038
-198.128293
-199.042386
-210.536238
-210.542181
-198.125689
-199.030034
-210.533681
-210.539085
-198.118983
-199.0142
-210.531079
-210.536069
-198.114431
-198.998796
-210.528368
-210.532899
-198.107211
-198.985945
-210.525429
-210.529777
-198.096067
-198.976319
-210.522263
-210.52672
-198.081508
-198.96806
-210.518859
-210.52358
-198.06633
-198.958413
-210.515437
-210.520295
-198.052704
-198.94582
-210.511998
-210.516852
-198.041539
-198.929822
-210.508601
-210.513222
-198.032699
-198.948099
-210.508909
-210.509489
-198.022918
-198.933038
-210.505345
-210.50615
-198.001558
-198.900309
-210.497077
-210.503024
-197.946458
-198.921372
-210.492277
-210.499911
-197.904097
-198.915948
-210.487703
-210.496292
-197.89155
-198.89151
-210.484326
-210.492496
-197.899427
-198.876497
-210.481237
-210.488258
-197.874283
-198.85576
-210.478028
-210.484506
-197.879604
-198.872193
-210.478484
-210.480029
-197.865716
-198.847261
-210.474413
-210.476648
-197.864602
-198.820902
-210.466021
-210.472561
-197.789725
-198.829097
-210.461257
-210.469017
-197.779218
-198.795993
-210.457417
-210.464745
-197.785569
-198.781089
-210.453975
-210.46019
-197.765038
-198.765792
-210.449181
-210.456271
-197.739088
-198.758442
-210.445752
-210.451834
-197.732783
-198.724897
-210.442333
-210.447334
-197.743095
-198.698474
-210.438875
-210.442857
-197.734743
-198.685179
-210.435092
-210.438862
-197.720271
-198.672835
-210.430898
-210.434631
-197.70648
-198.659089
-210.427011
-210.430287
-197.691149
-198.650155
-210.422755
-210.426167
-197.671297
-198.641817
-210.418636
-210.421844
-197.654263
-198.630027
-210.414517
-210.417358
-197.643183
-198.612317
-210.410864
-210.412698
-197.637242
-198.593669
-210.407097
-210.408063
-197.633769
-198.571381
-210.40363
-210.403291
-197.635661
-198.554956
-210.399546
-210.399676
-197.632355
-198.570682
-210.385423
-210.396233
-197.587777
-198.639426
-210.346549
-210.39289
-197.558151
-198.658444
-210.332648
-210.388517
-197.538414
-198.642568
-210.332377
-210.37055
-197.53772
-198.637037
-210.347617
-210.363566
-197.459172
-198.657273
-210.341068
-210.340934
-197.476613
-198.652193
-210.325977
-210.32765
-197.480855
-198.66315
-210.306904
-210.318038
-197.474786
-198.660007
-210.280836
-210.303821
-197.532341
-198.608498
-210.266239
-210.287574
-197.600635
-198.602471
-210.249652
-210.27442
-197.593038
-198.641785
-210.237749
-210.251771
-197.576227
-198.696455
-210.229082
-210.227806
-197.551655
-198.759638
-210.222757
-210.21036
-197.529083
-198.816664
-210.229567
-210.192928
-197.485463
-198.876734
-210.224198
-210.165789
-197.448039
-198.942314
-210.219292
-210.138431
-197.411523
-199.011963
-210.214092
-210.110362
-197.376018
-199.084387
-210.209039
-210.082164
-197.340964
-199.158197
-210.204258
-210.053845
-197.306136
-199.232854
-210.199823
-210.025576
-197.271467
-199.307825
-210.19574
-209.997483
-197.237024
-199.382606
-210.19199
-209.969686
-197.202908
-199.456677
-210.188546
-209.942308
-197.169236
-199.52952
-210.185373
-209.915467
-197.136136
-199.600621
-210.182427
-209.889277
-197.103744
-199.669477
-210.179661
-209.863851
-197.072202
-199.73561
-210.177014
-209.839301
-197.041658
-199.798542
-210.174413
-209.815786
-197.012278
-199.857801
-210.171773
-209.79369
-196.984171
-199.912618
-210.169084
-209.772898
-196.957368
-199.962689
-210.166315
-209.753252
-196.931915
-200.008271
-210.16343
-209.734698
-196.907869
-200.049397
-210.160526
-209.717222
-196.885308
-200.086118
-210.157592
-209.700813
-196.864376
-200.118487
-210.154462
-209.685449
-196.845009
-200.146588
-210.151063
-209.671108
-196.827164
-200.17056
-210.147402
-209.65778
-196.810763
-200.190647
-210.143535
-209.645723
-196.795633
-200.206955
-210.139397
-209.634555
-196.781761
-200.219755
-210.13499
-209.624207
-196.769094
-200.229401
-210.130322
-209.6146
-196.757566
-200.23621
-210.125395
-209.605667
-196.747107
-200.24047
-210.120215
-209.597353
-196.737659
-200.242439
-210.114779
-209.589604
-196.729167
-200.242361
-210.109087
-209.582372
-196.721589
-200.240461
-210.103133
-209.575609
-196.714891
-200.236957
-210.096907
-209.56927
-196.709047
-200.232059
-210.090402
-209.563308
-196.704036
-200.225972
-210.083608
-209.557682
-196.699841
-200.218899
-210.076515
-209.552349
-196.696446
-200.211039
-210.069117
-209.547268
-196.693832
-200.202586
-210.061411
-209.542398
-196.691976
-200.193731
-210.053395
-209.537701
-196.690854
-200.184659
-210.04507
-209.533138
-196.690442
-200.175542
-210.036436
-209.528673
-196.690708
-200.166544
-210.027502
-209.524273
-196.691612
-200.157816