/*--------------------------------*- C++ -*----------------------------------*\
| =========                 |                                                 |
| \\      /  F ield         | OpenFOAM: The Open Source CFD Toolbox           |
|  \\    /   O peration     | Version:  2306                                  |
|   \\  /    A nd           | Website:  www.openfoam.com                      |
|    \\/     M anipulation  |                                                 |
\*---------------------------------------------------------------------------*/
FoamFile
{
    version     2.0;
    format      ascii;
    arch        "LSB;label=32;scalar=64";
    class       volScalarField;
    location    "0.00014";
    object      rho;
}
// * * * * * * * * * * * * * * * * * * * * * * * * * * * * * * * * * * * * * //

dimensions      [1 -3 0 0 0 0 0];

internalField   nonuniform List<scalar> 
3801
(
0.887677399
0.932906909
0.947109967
0.923111448
0.889312891
0.891654529
0.935227762
0.926898433
0.890977832
0.8918145
0.894670133
0.935515261
0.934142538
0.893982959
0.897219124
0.938122427
0.95139044
0.934192822
0.897493722
0.898727225
0.936536637
0.955374224
0.940112048
0.899987872
0.900683722
0.944615833
0.945471425
0.901255078
0.902312456
0.945294935
0.956181811
0.955926881
0.952490596
0.902471798
0.904996871
0.944261332
0.96923265
0.950635163
0.905396352
0.905444269
0.9062435
0.906123746
0.942436343
0.961080043
0.961249908
0.955185468
0.906433446
0.909266246
0.948272177
0.973542978
0.95521679
0.909663386
0.909135544
0.951715682
0.956858021
0.909152307
0.911540094
0.94718697
0.971693584
0.952796228
0.910513648
0.910073934
0.950869071
0.955184126
0.910893818
0.910769709
0.948182801
0.952842108
0.910839588
0.911408687
0.950060002
0.955830861
0.910644463
0.912393477
0.947806245
0.939641222
0.910790916
0.947065733
0.948377372
0.926134399
0.941154558
0.947712659
0.923819836
0.910263119
0.913968414
0.946858387
0.96490354
0.960120528
0.960019586
0.959646302
0.961458389
0.948202597
0.908614709
0.907909757
0.94494848
0.944023964
0.910846121
0.904324741
0.90877928
0.940512466
0.941623334
0.908289313
0.904342655
0.936562185
0.937301041
0.906006178
0.901447275
0.933828598
0.948557462
0.941734006
0.929585874
0.907214977
0.893211718
0.925446984
0.927829696
0.907834772
0.887669389
0.918172965
0.919915011
0.903431822
0.881864626
0.882095627
0.902438058
0.930133114
0.929014668
0.924598378
0.926808137
0.923739583
0.907835026
0.876055785
0.895884806
0.925253042
0.910193702
0.877559928
0.878483055
0.890677385
0.923449334
0.915042531
0.882284252
0.888486471
0.930427896
0.921118464
0.888502106
0.924052229
0.92883107
0.890887088
0.893021704
0.937323375
0.945773165
0.940221247
0.948955066
0.941670238
0.896279949
0.89691695
0.897223558
0.898209017
0.935153564
0.948913663
0.943174042
0.899020467
0.899178723
0.940413139
0.941487253
0.899475727
0.900688682
0.937390993
0.93999216
0.937126365
0.942812207
0.943018479
0.901855502
0.900915829
0.942619048
0.947589469
0.902144205
0.901990136
0.943029266
0.953422975
0.961385192
0.961084526
0.903360527
0.903513956
0.903512916
0.940400976
0.957443347
0.904341396
0.90357423
0.947494979
0.954912921
0.905293953
0.904004585
0.948402876
0.954810138
0.905858912
0.904581353
0.947489966
0.954842407
0.906024451
0.90531193
0.940842071
0.956822574
0.964172832
0.963992163
0.907644838
0.906458867
0.949808
0.957993974
0.908347688
0.907125673
0.950505867
0.957264362
0.908879119
0.908028807
0.95166641
0.95768965
0.909200663
0.909159875
0.951542583
0.957935273
0.90921546
0.910904809
0.946057285
0.961768572
0.960792784
0.911288049
0.911048051
0.951672202
0.95827327
0.911188172
0.911780504
0.956288529
0.960507291
0.91151544
0.912603787
0.951725042
0.962399412
0.965213256
0.963224865
0.912489523
0.913507046
0.955561217
0.955342692
0.912338922
0.913554513
0.955572839
0.954034489
0.911960736
0.913046266
0.956874081
0.955716776
0.911327495
0.912317349
0.959516425
0.952900206
0.910018586
0.91155522
0.91008931
0.911364234
0.947125901
0.961500279
0.956320815
0.96360095
0.96169443
0.968022499
0.960350857
0.909301809
0.908863548
0.953516202
0.951994789
0.908336735
0.90855361
0.952126811
0.949904853
0.907391
0.908069547
0.952426427
0.950788497
0.906872356
0.907940512
0.947940571
0.96321231
0.953493113
0.907770633
0.906482334
0.951699828
0.951781304
0.907386471
0.907196768
0.948522662
0.955007619
0.957893481
0.955657239
0.907456829
0.906981598
0.953014129
0.952655551
0.907362268
0.907087649
0.954705828
0.945058701
0.906746346
0.944031791
0.960183828
0.906959326
0.907212094
0.9539203
0.955914129
0.906890911
0.907914332
0.949778466
0.963019694
0.957224706
0.969072169
0.963934829
0.907128246
0.907597842
0.906881056
0.907468426
0.943895198
0.963579426
0.957724319
0.907665687
0.906509686
0.953070105
0.957106819
0.907269247
0.906533011
0.954745253
0.957023977
0.906971837
0.906634768
0.954900013
0.955761607
0.90680397
0.90683698
0.906860081
0.906787032
0.942975088
0.954218129
0.951366012
0.955451592
0.960033567
0.959944793
0.907624136
0.906768663
0.948584297
0.95327076
0.907369833
0.90666987
0.949102563
0.952706789
0.907038457
0.906726804
0.948779819
0.954256269
0.906538035
0.906949844
0.943056656
0.963537895
0.962678279
0.907279186
0.906143253
0.94966406
0.953108293
0.906709162
0.906249707
0.906259111
0.943669273
0.957590367
0.90651192
0.905596839
0.948249212
0.954937757
0.906522425
0.905201992
0.946186025
0.953725937
0.905811035
0.905117536
0.94059677
0.953762618
0.950459768
0.958770592
0.958409948
0.906168705
0.904393228
0.938772691
0.947397611
0.952686932
0.952627129
0.905521862
0.904670629
0.938034744
0.953492205
0.953123546
0.90674613
0.903187784
0.937251724
0.945528363
0.906299277
0.90274704
0.937363732
0.946617266
0.905965477
0.902801634
0.937511143
0.948515383
0.957453978
0.95700207
0.90687818
0.903152853
0.936977385
0.948757324
0.906328155
0.903246091
0.937828416
0.948270071
0.960499177
0.96033279
0.906967199
0.9046733
0.904743137
0.937706127
0.947169775
0.90659794
0.903750831
0.905912766
0.937334907
0.960789908
0.960429861
0.908624353
0.904186501
0.937482867
0.95010806
0.907649527
0.904228552
0.938168923
0.951770774
0.907134918
0.905637182
0.93880537
0.965008156
0.964646091
0.908208098
0.905828392
0.939070914
0.953453954
0.907352642
0.906499083
0.939311465
0.966770519
0.96654493
0.907961259
0.907317724
0.907421235
0.940618262
0.954040923
0.907712144
0.906068809
0.943544558
0.95435136
0.908082436
0.90618443
0.944485029
0.954894388
0.914395079
0.906577891
0.908083344
0.906384779
0.938895198
0.954518341
0.953377309
0.955728473
0.956683634
0.955596336
0.963158075
0.963032749
0.906753909
0.907810891
0.938443683
0.956376842
0.956125
0.907468732
0.906218094
0.941690712
0.953270545
0.906711171
0.905822641
0.941936791
0.959595331
0.973539967
0.973072673
0.907951264
0.906439871
0.907686677
0.90618078
0.906394569
0.941788688
0.955869013
0.906612617
0.906185178
0.941537078
0.953404872
0.958492563
0.958445106
0.907543716
0.907026397
0.940335373
0.960151943
0.959793387
0.908828413
0.905933394
0.945690665
0.955929909
0.908565971
0.905813057
0.907139345
0.90557679
0.943030562
0.958861849
0.908040962
0.906041
0.946768537
0.959122852
0.908092895
0.90649932
0.942820093
0.966092575
0.964518499
0.90793942
0.905988387
0.945036423
0.953718062
0.908094889
0.90639666
0.945555494
0.951669343
0.908436766
0.906858818
0.945435296
0.957018903
0.907966517
0.908371853
0.954000816
0.958153304
0.909788002
0.91004375
0.958670271
0.963673226
0.961097534
0.947539525
0.910596077
0.91057869
0.963254916
0.966130379
0.961824168
0.949275637
0.912527628
0.915325609
0.958841094
0.95299308
0.913431847
0.91725109
0.960225463
0.951678578
0.914166056
0.918793861
0.961745549
0.95082271
0.91427808
0.919819527
0.9633404
0.949950202
0.913955377
0.921227288
0.963347082
0.94808688
0.913334945
0.917529779
0.970980811
0.970966009
0.946118174
0.912966959
0.917365421
0.964882371
0.962793288
0.935713267
0.910892958
0.912233624
0.910544998
0.912537576
0.95992704
0.960327198
0.953251504
0.959598643
0.945786236
0.90841701
0.908426677
0.910790075
0.934537125
0.949031705
0.939779971
0.909573617
0.93728131
0.965363654
0.965486744
0.945813924
0.90826178
0.909750554
0.944523251
0.966676975
0.944975337
0.907936331
0.909129969
0.950966076
0.944302928
0.907233627
0.909090353
0.950590475
0.943946624
0.906200123
0.908279201
0.949064096
0.96341409
0.943986922
0.907022226
0.906785287
0.947074359
0.956923814
0.951351756
0.953778996
0.954749891
0.952598164
0.957786719
0.944621365
0.907854357
0.906972141
0.950701316
0.948691999
0.908660621
0.908396659
0.950706262
0.949467022
0.909499373
0.909182538
0.951943772
0.950375271
0.910583531
0.908965391
0.956612007
0.946678625
0.910178105
0.945910761
0.952978623
0.909760373
0.91055956
0.958002928
0.950024807
0.910894759
0.911812097
0.960009812
0.970365442
0.947440133
0.912817257
0.911144198
0.965796914
0.96887324
0.960750311
0.94724887
0.912775358
0.914638607
0.912851729
0.91512091
0.958610788
0.976647781
0.949825854
0.914735344
0.915480106
0.960402268
0.95277103
0.913309647
0.915948552
0.970771479
0.975148024
0.948070289
0.91310366
0.911151059
0.913780244
0.909722069
0.917330279
0.953627575
0.96668375
0.957526279
0.955240539
0.954323964
0.938859322
0.90286741
0.90474024
0.937459556
0.933373393
0.899486967
0.900588914
0.939313873
0.95016964
0.929843312
0.89485081
0.896116648
0.928569955
0.941639416
0.92557293
0.889893036
0.888976359
0.888124888
0.889033088
0.920102322
0.919533532
0.90445357
0.885348705
0.916790507
0.93302951
0.929489302
0.923093115
0.918469225
0.90370717
0.88029468
0.904230646
0.932731451
0.929746491
0.909075133
0.880084367
0.891456498
0.926727407
0.914821824
0.88125836
0.888825736
0.928985038
0.918335448
0.885216599
0.887820265
0.887940977
0.89252881
0.943485278
0.944329947
0.938526889
0.94319965
0.939339722
0.945497032
0.931798097
0.896370274
0.898761194
0.948577433
0.946304659
0.898889842
0.901501418
0.940490242
0.901016021
0.901874525
0.957958623
0.959290702
0.943595392
0.902994237
0.904295955
0.950732185
0.939681599
0.903850906
0.940866559
0.948005661
0.904683666
0.905250002
0.950185527
0.950929959
0.905322277
0.906091989
0.954207649
0.952598769
0.905845241
0.906920906
0.958855222
0.951214954
0.905986903
0.907479575
0.906477875
0.95427373
0.961784927
0.907218302
0.907958013
0.959927087
0.959623015
0.90776645
0.908895082
0.962826801
0.957681636
0.907989977
0.909169111
0.908535
0.95569277
0.961574283
0.908223335
0.909798043
0.958603616
0.964755774
0.957514159
0.962751611
0.954975579
0.908822423
0.908880394
0.951693832
0.959395723
0.95146244
0.907776878
0.908499191
0.949098887
0.960456551
0.946941367
0.907451469
0.907683791
0.907227879
0.947088244
0.954691962
0.907206731
0.907261732
0.955121315
0.958183323
0.969985431
0.957360344
0.906266363
0.907367376
0.906601515
0.949213523
0.959253017
0.906740752
0.907029989
0.950492555
0.946186622
0.90594148
0.94284204
0.95535826
0.95119254
0.9537162
0.905984162
0.906300099
0.944465918
0.958669518
0.952446949
0.906500869
0.905110192
0.949254639
0.953732568
0.906667742
0.905131114
0.946401639
0.952217641
0.906707493
0.905232217
0.948906481
0.954227802
0.906795642
0.905276701
0.948432
0.954847372
0.906642712
0.905418583
0.944573586
0.956634856
0.95819406
0.958157841
0.907340486
0.905582686
0.945698463
0.953865272
0.907227571
0.90538651
0.947658225
0.955539449
0.907249079
0.905232524
0.948717758
0.956790591
0.907203267
0.905004806
0.949306412
0.957447408
0.907039428
0.904641448
0.949636607
0.957233165
0.906813101
0.904298451
0.952581488
0.955397206
0.906237438
0.904243057
0.905410152
0.943093133
0.969492402
0.967439881
0.906091978
0.905768054
0.94440936
0.966228209
0.966609717
0.907620209
0.908332543
0.947568408
0.968549688
0.968164532
0.910205318
0.910191071
0.954628959
0.962545994
0.911163118
0.912670639
0.96153548
0.965546628
0.912416717
0.914552729
0.965884194
0.966950281
0.912457517
0.915112855
0.968967842
0.967739021
0.911286976
0.914157291
0.970869143
0.968255387
0.90919373
0.911045078
0.968499532
0.974297331
0.975644762
0.965389774
0.906308772
0.907526235
0.905481925
0.906789569
0.961531135
0.963905697
0.901235951
0.902794684
0.959827042
0.976511574
0.958130566
0.900349766
0.899078753
0.963507796
0.964065751
0.898974323
0.897516291
0.96748551
0.961822266
0.89872947
0.960905411
0.975065149
0.899402422
0.89904727
0.970741288
0.975507723
0.901089937
0.900112109
0.971338669
0.974133131
0.902191957
0.900387487
0.901685297
0.900984756
0.901625841
0.901344231
0.901649319
0.901584218
0.901712003
0.901690774
0.901699343
0.901657199
0.901597883
0.901545149
0.901472254
0.901414912
0.901318108
0.901190883
0.900979305
0.900676174
0.900269695
0.899775361
0.899247466
0.898745403
0.89834371
0.898119173
0.898121104
0.898331654
0.89864749
0.898952229
0.898960103
0.898517306
0.897558459
0.896282162
0.895080946
1.02534908
1.01938199
1.01004312
1.01964002
0.986038398
1.00018759
0.994712141
1.00327493
1.00057872
0.996305285
0.978780982
0.995024894
1.00346172
0.996381671
0.98979788
0.99540145
0.993001602
0.988611071
1.00086854
1.00049656
1.00639074
1.00194828
1.00456549
1.00189818
1.00261429
0.995012889
0.999792548
0.993728193
0.997741629
0.977214044
0.9939341
0.926930521
0.928779732
0.940058299
0.931798952
0.930242346
0.936301064
0.876673482
0.876730218
0.879726136
0.880090848
0.881396383
0.858409045
0.853821942
0.855850936
0.85167675
0.852679088
0.833470852
0.835587743
0.831809673
0.83542776
0.824909665
0.838696161
0.819111953
0.82790683
0.809207994
0.817157818
0.791055002
0.813044117
0.794546104
0.786578889
0.771711833
0.776478779
0.789602319
0.783451136
0.775049673
0.769605947
0.78373242
0.774194505
0.756228468
0.762431545
0.742684992
0.824524468
0.731005647
0.728382379
0.770850127
0.758627649
0.723017178
0.746697828
0.728282324
0.748553205
0.725379674
0.704066917
0.735363325
0.712142478
0.700131543
0.682785388
0.668370607
0.682195147
0.677821423
0.670059193
0.66522752
0.65696859
0.64677622
0.63164578
0.62016767
0.610529539
0.602109775
0.594801822
0.587816073
0.581230145
0.57404562
0.566694904
0.553068715
0.537780435
0.526882113
0.517092792
0.507828076
0.499723367
0.491867048
0.484816142
0.477760514
0.47155828
0.464953208
0.458805424
0.452314018
0.446104076
0.439532843
0.433385106
0.427252591
0.42157586
0.416012464
0.410844266
0.405721081
0.40095815
0.396177401
0.391740994
0.387260276
0.383144488
0.378928584
0.375125266
0.371290132
0.367803771
0.364261913
0.360997037
0.357646145
0.35452374
0.351361367
0.348392765
0.34540651
0.342582941
0.33975525
0.337070996
0.334385737
0.33183316
0.329275988
0.326845635
0.324403907
0.322085456
0.319737521
0.317517059
0.315241622
0.313114748
0.310925442
0.308751434
0.306475454
0.304342018
0.302178793
0.300165763
0.298142953
0.296257943
0.294356564
0.292581363
0.290787198
0.289101758
0.287396076
0.285788931
0.284156827
0.282608493
0.281025134
0.279529611
0.278022036
0.276608947
0.275151309
0.273903337
0.272538968
0.2712746
0.269905638
0.268971036
0.267742494
0.266464517
0.265076207
0.264589272
0.263375299
0.262001081
0.260703022
0.260134038
0.258712295
0.257696521
0.255941177
0.255388769
0.254091676
0.253303835
0.250510707
0.251471568
0.25085236
0.248263059
0.248245919
0.248630739
0.247860574
0.246159796
0.245818887
0.245473201
0.245964107
0.24337883
0.243322921
0.242819567
0.243556046
0.241122647
0.240074346
0.241222671
0.241595337
0.23886825
0.239066116
0.240231471
0.237877677
0.238395381
0.237166572
0.236896739
0.235963428
0.235142144
0.235926916
0.234063038
0.234570214
0.233788029
0.233724605
0.232444367
0.23244773
0.231750202
0.231572322
0.230855972
0.231240035
0.229244555
0.229581337
0.227632295
0.227689233
0.227465219
0.227498689
0.226655684
0.226569712
0.226589792
0.226345787
0.22615272
0.225833279
0.225699422
0.225315549
0.225156179
0.224727134
0.224540551
0.224094917
0.223944997
0.223498296
0.223405748
0.222953216
0.222928092
0.222460017
0.222514049
0.222024059
0.222166659
0.221651597
0.221789493
0.22133791
0.221323227
0.220881672
0.220885417
0.220459443
0.22047735
0.220072981
0.220099735
0.219718744
0.219745651
0.21939782
0.21939914
0.219074515
0.219113625
0.218787252
0.218877828
0.218548627
0.218651971
0.218347334
0.218441509
0.218189509
0.218247314
0.218037959
0.218064653
0.217881263
0.2178954
0.217727948
0.217729564
0.217580658
0.21757021
0.217429978
0.217414863
0.217287325
0.217255985
0.217133637
0.21710361
0.216984722
0.216946838
0.216836365
0.216789511
0.216680739
0.216640537
0.216532109
0.21648249
0.216380996
0.216330901
0.216228469
0.216183814
0.216083074
0.216034429
0.215936172
0.215885238
0.215788391
0.215747505
0.215648294
0.215600189
0.215507617
0.21546339
0.215364433
0.215316332
0.21522827
0.215183486
0.215091175
0.215038039
0.214949793
0.214840495
0.214779296
0.214694856
0.21459067
0.214362265
0.21443107
0.214202529
0.214136674
0.21391831
0.21394405
0.213740887
0.213674673
0.213479096
0.213478057
0.213305615
0.213232875
0.213053878
0.212995413
0.212855828
0.212720427
0.21261286
0.212431168
0.212372394
0.212144086
0.21212875
0.211865352
0.211836711
0.211593138
0.211567224
0.211323793
0.21129988
0.211065342
0.211047237
0.210818097
0.210802812
0.210581296
0.210569509
0.210353224
0.210343688
0.210131735
0.210124166
0.209915483
0.209905297
0.209699041
0.209691081
0.209485331
0.209473915
0.209268765
0.209264491
0.209060651
0.209049644
0.208843732
0.20884044
0.208648196
0.208623782
0.208419049
0.208399376
0.208240284
0.208190384
0.207893786
0.207949821
0.20776526
0.207704882
0.207771569
0.207550154
0.207679376
0.207457658
0.208304526
0.207390339
0.207934687
0.207491319
0.20846141
0.207306385
0.207885998
0.207458915
0.208140193
0.207147073
0.20762945
0.207423494
0.208020947
0.207072273
0.207677632
0.20759308
0.207811221
0.207121227
0.207618492
0.207493729
0.207510651
0.206987281
0.207451155
0.207263602
0.207202157
0.206783357
0.207199918
0.206926299
0.206868988
0.206421765
0.206757715
0.206357965
0.206335445
0.205941465
0.205714308
0.206029106
0.20564044
0.205811169
0.205405005
0.205838578
0.205637409
0.205634762
0.205404098
0.205567572
0.205688164
0.205323115
0.205373546
0.20525828
0.20551396
0.205147884
0.205279588
0.205121028
0.205363843
0.2051912
0.205286202
0.205297969
0.205353698
0.20546778
0.205394356
0.205630216
0.205468508
0.205520932
0.205513512
0.205563344
0.205569268
0.205569142
0.205590812
0.205596898
0.205706837
0.20567091
0.205676309
0.205696867
0.205757594
0.205781112
0.20577748
0.205818224
0.205849349
0.205893966
0.205900563
0.205947897
0.205973166
0.206021541
0.206049017
0.206091806
0.206125306
0.206166232
0.206205112
0.206240091
0.206273969
0.206306585
0.206347206
0.206373634
0.206408953
0.206432836
0.206468651
0.206487905
0.206516066
0.206532156
0.206558268
0.206570335
0.206589877
0.20659864
0.206614641
0.206619603
0.206629954
0.206631432
0.206637633
0.206635485
0.206636803
0.206631752
0.206633618
0.206626595
0.206624068
0.206614409
0.206608234
0.206596217
0.206586777
0.206572919
0.206560927
0.206545761
0.206531861
0.206516038
0.206500998
0.206485175
0.206469728
0.206454577
0.206439449
0.206425589
0.20641142
0.206399403
0.20638876
0.206382932
0.206376183
0.206372967
0.206368465
0.206367993
0.206365875
0.206368133
0.206368392
0.206373229
0.206375722
0.20638287
0.206387337
0.206396435
0.206402523
0.206413142
0.206420431
0.206432099
0.206440132
0.206452356
0.206460669
0.206475938
0.206487931
0.206504464
0.206515837
0.206531442
0.206541799
0.206556085
0.206565071
0.206577705
0.206585014
0.206595722
0.206601098
0.206609665
0.206612904
0.206619165
0.206620105
0.206623948
0.206622466
0.20662382
0.206619824
0.206618655
0.206612082
0.206608755
0.206603904
0.206604593
0.206598876
0.206596659
0.206588275
0.20658319
0.206572131
0.20656422
0.206550489
0.206539792
0.206523404
0.206509962
0.206490939
0.20647479
0.206453166
0.206434351
0.206410166
0.206388728
0.206362025
0.206338019
0.206308836
0.206282339
0.206250694
0.206223587
0.206194255
0.206166755
0.206135638
0.206105618
0.206073697
0.206043973
0.206011348
0.205979483
0.205944838
0.205910994
0.205874448
0.205838791
0.205800481
0.205763181
0.205723261
0.20568449
0.205643127
0.205603053
0.205560432
0.205519214
0.205475532
0.205433319
0.205388781
0.205345711
0.205300525
0.205256728
0.205211093
0.20516669
0.205120792
0.205075904
0.205029908
0.204984649
0.2049387
0.204893182
0.204847407
0.204801736
0.204756244
0.204710521
0.204665415
0.204619726
0.204575107
0.204529525
0.204485498
0.20444007
0.204396715
0.204351474
0.204308891
0.204263808
0.204221956
0.204177033
0.204135977
0.204091065
0.204050264
0.204005543
0.203965074
0.203920245
0.20387769
0.203834178
0.203790161
0.203747435
0.203692263
0.203657378
0.203594624
0.203566066
0.203457966
0.203466278
0.20335861
0.203371436
0.203152271
0.203252813
0.203122858
0.20317006
0.202855115
0.203033734
0.203208721
0.202987484
0.202957291
0.202860515
0.203617478
0.202851197
0.203128586
0.202738012
0.20382904
0.202831588
0.20321763
0.202689876
0.204028116
0.202946058
0.203261386
0.202780175
0.203975969
0.203202028
0.203226906
0.202880714
0.203867756
0.203406077
0.203161054
0.202919346
0.203780585
0.203482213
0.20311831
0.20292172
0.203705575
0.203539652
0.203053877
0.202903264
0.203602925
0.203548986
0.202967814
0.202868354
0.203502436
0.203550759
0.202881872
0.20282209
0.20341508
0.20353193
0.202795237
0.202756422
0.203314496
0.2034274
0.202702081
0.202664839
0.203201553
0.203308573
0.202598212
0.202561084
0.203081897
0.20318375
0.202488891
0.202453683
0.20295828
0.203062638
0.202369624
0.202339746
0.202810733
0.202921133
0.202230947
0.20220422
0.202647557
0.202764249
0.202077732
0.202053434
0.202480298
0.202597322
0.201919143
0.201892726
0.202312118
0.202422248
0.201754268
0.201724745
0.202138782
0.202241578
0.201584539
0.201551935
0.201961924
0.202058125
0.201412561
0.201377762
0.20178422
0.201874921
0.201241198
0.201205026
0.201608755
0.201693917
0.201072079
0.201032924
0.201434039
0.201512214
0.200903052
0.200860169
0.201259608
0.201331355
0.20073514
0.200689409
0.201087211
0.201153669
0.200569835
0.200521834
0.200917707
0.200979668
0.200407277
0.200357603
0.200750857
0.200809565
0.200247319
0.200197823
0.200587216
0.200643777
0.200090298
0.200041813
0.200426155
0.200481275
0.199937165
0.199888196
0.200267562
0.200322824
0.199786151
0.199737833
0.200110767
0.200172363
0.199636403
0.199590045
0.199956312
0.200023753
0.199488377
0.199443691
0.199803596
0.199876198
0.199341594
0.199298197
0.199651928
0.19972919
0.199195347
0.199152954
0.199500937
0.199582618
0.199049957
0.199008197
0.199351001
0.199436816
0.198906098
0.198863113
0.199209672
0.199291369
0.198765646
0.198718613
0.199072286
0.199146103
0.198625431
0.198574505
0.198935034
0.199001735
0.19848529
0.198431613
0.19879776
0.198857204
0.198345197
0.198288562
0.198660502
0.198712913
0.198205289
0.198145795
0.198523343
0.198569034
0.198065624
0.198003269
0.19838653
0.198425682
0.197926648
0.197861572
0.198250848
0.198283586
0.197788614
0.197721464
0.198115848
0.198142158
0.197650647
0.197581906
0.197980474
0.198000287
0.19751201
0.197441448
0.197844001
0.197857129
0.197371583
0.19729963
0.197707342
0.197711172
0.197241546
0.197155229
0.197570877
0.197563812
0.197112802
0.197009347
0.197433789
0.197415793
0.196983729
0.196862945
0.197296414
0.197267634
0.196854543
0.196716425
0.197159111
0.197119736
0.196725632
0.196570198
0.197022374
0.19697265
0.196597482
0.196424899
0.196887053
0.196827445
0.196471476
0.196281453
0.196754418
0.196685472
0.196348221
0.196141485
0.196625426
0.19655178
0.196228326
0.196005999
0.196502922
0.196423827
0.196113891
0.195875107
0.1963846
0.196298159
0.196001608
0.195745146
0.196261157
0.19616769
0.195886578
0.195610263
0.196133225
0.196031923
0.195767861
0.195469319
0.195999777
0.195890239
0.195645162
0.195322878
0.195856293
0.195744853
0.195516118
0.195162163
0.195686645
0.195562354
0.195345212
0.194966647
0.195491675
0.195361634
0.195167243
0.19477162
0.195303215
0.195171064
0.195004645
0.194598062
0.195139057
0.195007192
0.194868361
0.19445448
0.195002677
0.19487244
0.194750365
0.194332491
0.194888178
0.194759672
0.194650242
0.194229875
0.194792819
0.194666446
0.194566532
0.194145366
0.194714923
0.194591353
0.194497918
0.194077857
0.194653093
0.194533387
0.194443091
0.194026058
0.194606168
0.194490976
0.194400907
0.193988698
0.194572946
0.194462762
0.19437003
0.193964298
0.194552056
0.194447195
0.194348918
0.193951151
0.194541781
0.194442375
0.194335479
0.19394693
0.194539663
0.194445727
0.19432692
0.193948686
0.19454262
0.194453844
0.194319918
0.193952266
0.194545224
0.194461525
0.194308502
0.193952642
0.194543662
0.194464435
0.194294946
0.193951591
0.194540909
0.194465861
0.194283682
0.193952638
0.194539442
0.194468485
0.194273412
0.19395493
0.194539628
0.194473571
0.194264219
0.193965396
0.194540971
0.194481977
0.194254981
0.193984525
0.194540779
0.194489504
0.1942465
0.194002034
0.194542379
0.194498645
0.194240007
0.194020301
0.194546597
0.194510045
0.19423708
0.194041442
0.194556142
0.19452444
0.19424666
0.194068595
0.194573101
0.194548843
0.194261767
0.194109268
0.194605587
0.194588153
0.194289689
0.194161074
0.194658515
0.194644783
0.194333057
0.194226348
0.194715723
0.194706395
0.194382513
0.194293054
0.194774818
0.194768713
0.194434276
0.19435736
0.194834848
0.19482959
0.194483326
0.194418116
0.194882713
0.19487939
0.194523695
0.194467308
0.194921683
0.194919939
0.194556938
0.194507152
0.194955278
0.194954419
0.194585256
0.194540686
0.194984244
0.194984004
0.194609507
0.194569117
0.195009048
0.195009242
0.194630268
0.19459314
0.195030328
0.195030873
0.194648301
0.194613748
0.195049599
0.195050202
0.19466591
0.194631626
0.195070053
0.195073702
0.194682771
0.194654956
0.195096417
0.195101172
0.194705346
0.194681421
0.195122465
0.195127506
0.194727966
0.194706541
0.195146941
0.195152373
0.194749495
0.194729969
0.195170064
0.195175595
0.194769953
0.1947519
0.195191472
0.195197564
0.194788471
0.194772296
0.195210893
0.19521734
0.194805828
0.194790295
0.195229258
0.195234886
0.194822168
0.194806197
0.195245835
0.195250274
0.19483717
0.194819347
0.195260111
0.195263189
0.194851388
0.194830282
0.195273444
0.195274728
0.194865909
0.194841096
0.195287267
0.195288215
0.194878396
0.194853563
0.195300541
0.195301783
0.194893285
0.194866589
0.195312175
0.195313612
0.194904926
0.194877409
0.195325824
0.195324672
0.194915127
0.194890303
0.195335512
0.195339253
0.194927931
0.194902976
0.195348644
0.19535158
0.194939834
0.194914596
0.195362719
0.195363942
0.194953374
0.194925828
0.195377075
0.195377286
0.194970799
0.194939459
0.195390654
0.19539085
0.194985273
0.194951489
0.195407129
0.19540477
0.194999403
0.194966055
0.195421884
0.195421253
0.195012596
0.194983175
0.195436783
0.195438594
0.195027197
0.195002555
0.195450564
0.19545646
0.195039824
0.195019391
0.195468306
0.195473652
0.195056353
0.195037875
0.195484601
0.195491295
0.195071203
0.195054267
0.195500748
0.195508091
0.195086221
0.195071278
0.195516639
0.195524952
0.195101877
0.195087612
0.195532745
0.195541237
0.195117738
0.195102978
0.195549113
0.195556964
0.195134151
0.19511825
0.195565339
0.195572795
0.19515007
0.195133551
0.195581196
0.195588418
0.195165536
0.195148993
0.195596933
0.195604361
0.195180975
0.195165895
0.19561426
0.195622763
0.195183384
0.195185843
0.195630698
0.195640367
0.195199098
0.195200007
0.195643874
0.195653593
0.195230376
0.195209344
0.195659232
0.19566554
0.195249305
0.195221637
0.195676394
0.195681689
0.195269978
0.195238534
0.195695129
0.195701491
0.195288027
0.195258408
0.195713569
0.195723445
0.195304592
0.195277736
0.19572878
0.195745633
0.195322277
0.195299191
0.195750922
0.195768684
0.195326292
0.195324317
0.195771502
0.195788317
0.195346926
0.195343367
0.19579356
0.195805786
0.195381267
0.19535685
0.195807763
0.195824001
0.195404554
0.19537611
0.195829803
0.195847847
0.195425597
0.195401247
0.195857102
0.195869469
0.195443191
0.195423586
0.195876733
0.195891915
0.195468088
0.195445403
0.195901693
0.195916446
0.195488241
0.195470648
0.195925475
0.19594321
0.195509954
0.195497563
0.195949562
0.195970471
0.195533574
0.195524707
0.195974038
0.19599593
0.195555984
0.195547632
0.195998652
0.196018751
0.195578421
0.195570114
0.196020793
0.196042642
0.195598656
0.19559256
0.196041909
0.196064774
0.195620318
0.195613631
0.196064475
0.196087863
0.195641277
0.195635867
0.196086517
0.19611105
0.19566302
0.195659427
0.196109012
0.196136814
0.195683409
0.195684557
0.196131846
0.196162144
0.195705261
0.195710034
0.196155848
0.196188998
0.195725719
0.195736228
0.196179116
0.196214776
0.195748297
0.195757857
0.196205187
0.19624028
0.195775656
0.195777766
0.196232457
0.196262806
0.195804783
0.195797914
0.196258324
0.196286937
0.195832771
0.195821789
0.196282539
0.196313811
0.195854988
0.195849994
0.196305959
0.196339898
0.195880074
0.195872411
0.196332395
0.196365462
0.195905935
0.195902514
0.196357605
0.196392582
0.19593474
0.195932442
0.196383953
0.196423582
0.195959851
0.195959569
0.196412001
0.196453291
0.195987427
0.195992439
0.196439099
0.196486743
0.196013714
0.196027082
0.196466561
0.196516387
0.196042819
0.196056562
0.196495121
0.19654511
0.196071793
0.196085821
0.196523617
0.196574315
0.196101501
0.196116173
0.196553283
0.196605759
0.196134047
0.196149843
0.196586083
0.196640597
0.196167647
0.196183214
0.196618593
0.196673231
0.19619927
0.196215059
0.196648392
0.19670426
0.19622977
0.196245645
0.196677265
0.196734268
0.196259323
0.196275288
0.196705314
0.196763385
0.196288032
0.196304003
0.196732461
0.196791468
0.196315674
0.196331576
0.196758508
0.196818343
0.196342151
0.196357937
0.196783408
0.196843978
0.196367442
0.196383073
0.196807153
0.196868365
0.196391541
0.196406976
0.196829728
0.19689149
0.196414431
0.196429636
0.196851128
0.196913347
0.196436112
0.196451055
0.196871358
0.196933947
0.196456595
0.196471257
0.196890441
0.196953324
0.196475916
0.196490279
0.196908422
0.196971526
0.196494123
0.196508189
0.196925361
0.196988623
0.196511316
0.196525111
0.19694145
0.197004928
0.196527667
0.196541573
0.196956754
0.197020106
0.196543194
0.196557088
0.196971253
0.197034295
0.196557943
0.196571791
0.196985035
0.197047754
0.196571983
0.196585789
0.196998191
0.197060604
0.196585412
0.196599209
0.197010831
0.197072972