/*--------------------------------*- C++ -*----------------------------------*\
| =========                 |                                                 |
| \\      /  F ield         | OpenFOAM: The Open Source CFD Toolbox           |
|  \\    /   O peration     | Version:  2306                                  |
|   \\  /    A nd           | Website:  www.openfoam.com                      |
|    \\/     M anipulation  |                                                 |
\*---------------------------------------------------------------------------*/
FoamFile
{
    version     2.0;
    format      ascii;
    arch        "LSB;label=32;scalar=64";
    class       volScalarField;
    location    "0.00128";
    object      H2;
}
// * * * * * * * * * * * * * * * * * * * * * * * * * * * * * * * * * * * * * //

dimensions      [0 0 0 0 0 0 0];

internalField   nonuniform List<scalar> 
531
(
0.0110300627
0.0107424129
0.0106753377
0.0107076188
0.0110491144
0.0110399723
0.0107478296
0.0106754544
0.0107064188
0.0110491965
0.0110423537
0.0107375842
0.0106705607
0.0107004185
0.0110487516
0.0110426991
0.0107312558
0.0106697811
0.0107029827
0.011043856
0.0110219417
0.0107998234
0.0106876132
0.0107290907
0.0110359074
0.0110448665
0.0107129651
0.0106731444
0.0107217843
0.0110591918
0.0110008479
0.0110558191
0.0106963521
0.010675312
0.0106716292
0.0106756868
0.0109346794
0.011014792
0.0110735381
0.0106807571
0.0106646854
0.0107457623
0.0110318436
0.0110572895
0.0106870403
0.0106689081
0.0107409507
0.011031183
0.0110793871
0.0106956151
0.0107218714
0.0110281882
0.0110549856
0.0106952877
0.0107241037
0.0110268391
0.011059487
0.0106843175
0.010671873
0.0107786896
0.0110220805
0.0110631055
0.0106891476
0.0106649878
0.0106649933
0.0107164328
0.0110229069
0.0110069888
0.0108673976
0.0106743188
0.0106649769
0.0107516395
0.011020739
0.0110582016
0.0106983403
0.0107226852
0.0110121964
0.0110129937
0.0107910573
0.0106724058
0.0106682155
0.0106666861
0.0107931637
0.0110128361
0.0110344741
0.0106893465
0.010675416
0.0108042856
0.0110121688
0.011034155
0.0106849241
0.0106768945
0.0108714626
0.0110055817
0.0110227259
0.0107063495
0.0106771355
0.0106764056
0.0106736971
0.0108144493
0.0110071073
0.0110227204
0.0106965619
0.0106752819
0.0107752612
0.0110108381
0.0110310168
0.010684424
0.0106633036
0.0107343321
0.011017688
0.0110323162
0.0106906997
0.0107058419
0.0110137032
0.0110379696
0.0106777103
0.0106604289
0.0107411661
0.0110192643
0.0110305546
0.0106836789
0.010662688
0.0107441258
0.0110183858
0.0110300904
0.010683771
0.0106617395
0.0107432667
0.0110181715
0.0110297555
0.0106835455
0.0106610892
0.0107426237
0.0110174228
0.0110292141
0.0106839115
0.0106611305
0.010743674
0.0110158222
0.0110298454
0.0106838804
0.0106594887
0.0107322467
0.0110164736
0.0110220575
0.0106902729
0.0107028401
0.0110092186
0.0110374642
0.0106797133
0.0106600564
0.0107359288
0.0110164874
0.0110247547
0.0106887935
0.0107020718
0.0110116796
0.0110402493
0.0106785215
0.0106608376
0.0107470261
0.011018792
0.0110419498
0.0106805623
0.0106650722
0.0106630482
0.0107533501
0.011015673
0.0110348
0.0106823175
0.01066485
0.0107588905
0.0110163907
0.0110330814
0.0106895989
0.0107049025
0.0110161542
0.0110503329
0.0106778394
0.01066236
0.0107483998
0.0110201451
0.0110442223
0.0106866958
0.0107042463
0.0110197623
0.0110473426
0.0106785245
0.0106637166
0.0107577227
0.0110223359
0.011073012
0.0106814587
0.0107024078
0.0110257298
0.0110606698
0.0106739121
0.0106625219
0.0107597002
0.0110261398
0.0110761455
0.0106781374
0.0106695111
0.0108020457
0.0110229525
0.0110188506
0.010679772
0.0106718365
0.0108233321
0.0110242712
0.0109491236
0.0106633711
0.0106523839
0.0106976774
0.0110382496
0.0110005313
0.0108818164
0.0106703127
0.0106680424
0.0108209103
0.0110252299
0.0109815851
0.0106796478
0.0106760219
0.0110614493
0.0110155089
0.0108561937
0.0106709585
0.0106698501
0.0110498712
0.0110126218
0.010785282
0.0106664785
0.0107089262
0.011028415
0.0110297749
0.0106775308
0.0106670175
0.0109100539
0.0110200368
0.0108782143
0.010666032
0.0106630854
0.010937764
0.0110144736
0.0108103817
0.0106726165
0.0107423016
0.0110147506
0.0110090559
0.0106765563
0.0106590063
0.0107705702
0.0110158402
0.0110094042
0.0106853237
0.0106710621
0.0106815916
0.0106782624
0.0107586017
0.0110143851
0.0110142776
0.0106767108
0.0106734211
0.0110296585
0.0110119544
0.0107678221
0.0106692285
0.0107874598
0.011011404
0.010862707
0.0106743905
0.0107570192
0.011009673
0.0110161613
0.0106643554
0.0106540873
0.0107615538
0.0110178301
0.0110183327
0.0106551798
0.0106486274
0.0108089097
0.0110171355
0.0108526448
0.0106740272
0.0108247278
0.0110088295
0.0108438551
0.0106786822
0.0107750169
0.0110083796
0.0110230458
0.0106594132
0.0106577855
0.0107840307
0.011016758
0.0110268791
0.0106614222
0.0106586865
0.0107849521
0.011017213
0.0110310542
0.0106605336
0.0106577229
0.0107825507
0.0110183877
0.0110366495
0.0106549623
0.0106535458
0.010832876
0.0110186142
0.010871149
0.0106827596
0.0107707151
0.0110114498
0.0110497227
0.0106511883
0.0106515931
0.0108377122
0.0110216551
0.010858008
0.0106816394
0.010776966
0.0110136119
0.0110826012
0.0106485692
0.0106500145
0.0108437252
0.0110248193
0.0108347102
0.0106766056
0.0108396405
0.011016771
0.0108165497
0.0106804567
0.0108034245
0.0110149136
0.0109783494
0.0106522312
0.0106552209
0.0108352488
0.0110203888
0.010915197
0.010684865
0.0107981324
0.0110154902
0.0109396213
0.0106608452
0.010666887
0.0108709616
0.011024485
0.0109128488
0.0106549557
0.0106607395
0.0108768818
0.0110262458
0.0108332294
0.0106783844
0.0108438726
0.0110221984
0.0108072737
0.0106822333
0.0108542112
0.0110232264
0.0108370066
0.0106546918
0.0106654774
0.0109159108
0.0110257431
0.0108181261
0.0106897985
0.0108807706
0.0110223299
0.0108360514
0.0106659365
0.0106778744
0.0109478452
0.0110259898
0.0108428912
0.010668456
0.0106793454
0.0109613517
0.0110258475
0.0108394001
0.010670429
0.0106816531
0.0109677434
0.0110255391
0.0108394304
0.010671371
0.0106829521
0.0109661
0.0110274425
0.0108395163
0.0106632794
0.0106627263
0.0106891353
0.0109221177
0.0110065802
0.0110344372
0.0107990891
0.0106665818
0.0106784649
0.0109662691
0.011033897
0.0107975236
0.0106621653
0.0106738611
0.0109616867
0.0110321249
0.0107803976
0.010692532
0.0109223986
0.0110337674
0.0107736154
0.0106567418
0.0106727906
0.0109571631
0.0110383339
0.0107592517
0.0106839587
0.0109179085
0.0110350801
0.0107584354
0.0106827095
0.0109159402
0.0110329012
0.010765302
0.0106863756
0.0109222024
0.0110361555
0.0107653689
0.0106558381
0.0106733075
0.0109597504
0.011032764
0.0107804177
0.0106924093
0.0109314507
0.0110305727
0.0107888925
0.010667199
0.0106834253
0.010990811
0.0110318469
0.010796578
0.0106686342
0.0106822942
0.0109816333
0.0110328625
0.0107915689
0.0106638696
0.010678241
0.0109653871
0.0110354383
0.0107838096
0.0106571392
0.0106712968
0.0109321533
0.011029967
0.0108012527
0.0106886822
0.010893627
0.011030493
0.0107925755
0.0106576316
0.0106761448
0.0109424356
0.0110107351
0.0110320837
0.0108282223
0.0106649126
0.0106668789
0.0106902759
0.0109065668
0.0110288999
0.0108116774
0.0106614474
0.0106762348
0.0109247914
0.0110271813
0.0108299984
0.01069365
0.0108817126
0.0110295331
0.0108060098
0.0106581566
0.0106734218
0.0109173091
0.0110314511
0.0108211757
0.010687095
0.0108590851
0.0110253883
0.0108263924
0.0106912833
0.0108840579
0.0110304587
0.0108067639
0.0106618849
0.0106800772
0.0109617958
0.0110356427
0.0108108589
0.0106659917
0.0106809187
0.0109596092
0.0110336601
0.0108214751
0.0106682743
0.010682863
0.010959543
0.0110325357
0.0108291738
0.0106695489
0.0106833761
0.0109547064
0.0110319495
0.0108355514
0.0106695349
0.0106828108
0.0109486758
0.0110315253
0.0108422555
0.010669215
0.010682304
0.0109413886
0.0110305437
0.0108509047
)
;

boundaryField
{
    closed
    {
        type            calculated;
        value           nonuniform List<scalar> 0();
    }
    open
    {
        type            calculated;
        value           nonuniform List<scalar> 0();
    }
    sides
    {
        type            empty;
    }
    procBoundary1to0
    {
        type            processor;
        value           uniform 0.0110294236;
    }
    procBoundary1to2
    {
        type            processor;
        value           uniform 0.0106693047;
    }
}


// ************************************************************************* //
