/*--------------------------------*- C++ -*----------------------------------*\
| =========                 |                                                 |
| \\      /  F ield         | OpenFOAM: The Open Source CFD Toolbox           |
|  \\    /   O peration     | Version:  2306                                  |
|   \\  /    A nd           | Website:  www.openfoam.com                      |
|    \\/     M anipulation  |                                                 |
\*---------------------------------------------------------------------------*/
FoamFile
{
    version     2.0;
    format      ascii;
    arch        "LSB;label=32;scalar=64";
    class       volScalarField;
    location    "0.00128";
    object      prefDh_H2;
}
// * * * * * * * * * * * * * * * * * * * * * * * * * * * * * * * * * * * * * //

dimensions      [1 1 -3 0 0 0 0];

internalField   nonuniform List<scalar> 
531
(
37.6888086
28.5856442
25.1225025
28.645858
37.575682
37.5281926
28.7488355
24.971166
28.7297483
37.6318807
37.4910773
28.713226
24.1761864
28.6736919
37.7369709
37.582823
28.6999917
24.0388142
28.4423622
37.8540517
38.22836
29.0620583
27.5302106
28.6936892
38.145017
37.4992659
28.7606943
24.3176213
28.1347159
36.7743922
38.9380111
35.5400049
28.9179306
25.3230214
25.4446562
26.3496802
31.8414267
38.6019356
36.4859322
27.50239
22.9120879
28.6743291
38.1361473
37.2855516
28.0637722
23.8381048
28.7528786
38.1660383
36.7066804
29.1209099
29.3701158
38.5345953
35.633802
28.9679587
29.3718924
38.5451645
37.3548507
27.3738073
24.50812
29.0249892
38.3524153
37.283059
28.0978399
23.9276711
23.9374216
28.6410951
38.5164159
38.7794245
30.2111661
26.469807
24.0070776
28.88003
38.3985378
37.6902745
29.4390055
29.1645701
38.9991441
38.5752914
28.9134897
25.8077401
25.4072632
24.8474239
29.0498031
38.6783472
38.3163559
28.5742548
25.6466655
29.1503543
38.6453102
38.4635815
27.8153961
26.1605791
30.2586082
38.7616206
38.3381186
28.8433773
26.2385824
26.7860649
25.9915339
29.2604653
38.7918391
38.4969083
29.0667714
25.7563042
28.9052575
38.7358966
38.5027407
28.0397173
23.3994534
28.8257893
38.4673862
38.7252347
28.6719919
29.893202
38.92928
38.2314851
26.9176752
22.7731113
28.9290699
38.3642343
38.5404119
27.724136
23.2650544
28.9397669
38.3476106
38.5522736
27.7630265
23.1293299
28.9588524
38.3363112
38.5590776
27.728632
23.0283444
28.9804861
38.3318161
38.5662003
27.7658613
23.0655732
29.0178222
38.3730959
38.5251294
27.826785
22.6697382
28.9578843
38.2499763
38.8486967
28.5566972
29.5504217
38.8843467
38.1142042
27.3247389
22.6441325
28.9519273
38.2512352
38.7837467
28.2714423
29.3856799
38.807521
38.0172721
27.0789752
22.8160345
29.0174082
38.2259526
38.2074839
27.0098652
23.7613953
24.0539301
29.1786536
38.4400537
38.3310098
27.6664254
23.6205048
28.8835023
38.1876581
38.5137235
28.5273021
29.6904306
38.5985668
37.6258715
27.1640986
23.1051996
28.8705972
38.1204982
38.1239706
28.0875379
29.5894013
38.4459898
37.7406554
27.3559183
23.4119257
28.7883167
38.0749549
36.9151251
27.3408814
29.4452715
38.298194
37.2648902
26.6674505
23.2467272
28.8010964
37.9180252
36.3202463
27.0390435
24.4143516
29.0512074
37.9224717
34.3552136
27.1422524
24.9285051
29.3313337
38.0564469
32.2347808
25.0491786
22.1214552
28.6925238
37.6332282
38.9571762
30.5338794
26.035789
24.8262594
29.2742873
37.7090565
33.1811435
25.8052003
25.5039179
35.8731608
37.9775495
30.0920415
24.8750027
24.8476695
37.9569255
38.4913144
28.968428
24.7257463
29.0620847
38.0043029
38.7017345
26.8088747
24.1336109
31.1644473
37.8827555
30.4546684
24.4080336
24.2169319
31.9083535
38.4283377
29.1700288
25.9148103
28.5445306
38.4272207
39.1443851
27.026369
23.5113782
28.7563396
38.0961087
38.9336049
27.8827948
25.2596815
27.2218059
26.2306798
28.8099108
38.0169472
38.940343
25.9844263
25.7459098
38.605831
38.2754956
28.7412726
25.2688059
28.8065024
38.6039468
30.0192638
26.2521365
28.7343736
38.4627596
38.8225201
24.5405212
22.4869951
28.8792621
38.155878
38.7581667
22.9369803
21.7594903
29.1656368
38.294629
29.789653
26.0187432
29.3242675
38.5692163
29.6426628
26.9090766
28.8607382
38.475922
38.7169094
23.5496313
22.9877679
29.0814695
38.0619176
38.5595999
23.5148304
23.0039881
29.1686031
38.039299
38.4638417
23.3724666
22.7343442
29.1884147
38.0402069
38.3979136
22.6437263
22.0032728
29.5903522
38.1372425
30.2247472
27.1318686
29.1145703
38.3302763
38.1381394
22.3211595
21.3466742
29.6434519
38.0249146
29.9273718
26.8518738
29.1303862
38.2741842
36.657699
21.9438445
21.040668
29.7204568
38.0284142
29.3971371
26.1158368
29.5874778
38.3786986
29.1324639
26.9494645
29.1863814
38.3192534
33.132022
22.4540595
22.3913199
29.6448447
38.1289157
31.2734136
27.4627842
29.2432415
38.1757831
31.9601261
23.5688825
24.2083249
30.3396642
37.8452196
31.2070742
22.5062902
23.4843386
30.4180679
38.0542387
29.3222487
26.4747519
29.67509
38.2682824
28.9114764
27.2400842
29.921459
38.1285757
29.4025869
22.6437068
24.7084527
31.3414696
38.1211757
29.1349904
28.3263001
30.5041341
38.0158831
29.4214133
24.1668344
26.6494774
32.198419
37.8709864
29.5529131
24.3754084
26.9192185
32.5766596
37.8660384
29.4981532
24.6924069
27.3108865
32.7599581
37.8564614
29.50602
24.860188
27.4342279
32.713777
37.7687069
29.4624076
23.8423189
23.9728189
28.5594474
31.5153802
38.5675736
37.4621596
28.7440627
24.142844
26.9406762
32.7231113
37.6431216
28.7658356
23.4815464
26.4159942
32.5931409
37.9333368
28.7138833
28.8689099
31.5049449
37.6752239
28.5137529
22.8153768
26.2026815
32.4656445
37.7710944
28.4558271
27.4954751
31.370124
37.8460471
28.3826433
27.4980609
31.320236
37.9368455
28.4922003
28.0326778
31.4967977
37.6442485
28.4089216
22.6529564
26.4661302
32.538053
37.9059606
28.7029263
28.9030547
31.7494523
37.672536
28.6953357
24.2201159
27.9236008
33.4483843
37.6537739
28.821857
24.3708585
27.7031262
33.170976
37.6686571
28.7308889
23.7169344
27.0367029
32.6964006
37.6599551
28.5785952
22.7976612
26.0739675
31.7691663
38.0445322
28.8264209
28.3534305
30.7903288
37.8247764
28.674249
22.9634197
26.7659397
32.0508723
38.2843066
37.4379425
29.2012831
24.0723784
24.5615331
28.7254249
31.1289837
37.8879162
28.9739677
23.5425555
26.583154
31.5795848
38.00493
29.2872121
29.1048321
30.5346769
37.8044557
28.8466759
23.1031412
26.1356469
31.3823985
37.9291918
29.0581364
28.192754
30.021295
38.1733891
29.1881157
29.0631265
30.5906245
37.8419202
28.8519508
23.6627999
27.2951874
32.5900928
37.5964232
28.9139967
24.1247954
27.5501205
32.5249988
37.6526744
29.1099851
24.5245307
27.8368901
32.5223471
37.6638499
29.2520259
24.7778974
27.9077916
32.386714
37.6742822
29.3677632
24.8401566
27.819957
32.2202089
37.6837615
29.496052
24.8501286
27.7539424
32.0227748
37.7092507
29.6763256
)
;

boundaryField
{
    closed
    {
        type            calculated;
        value           nonuniform List<scalar> 0();
    }
    open
    {
        type            calculated;
        value           nonuniform List<scalar> 0();
    }
    sides
    {
        type            empty;
    }
    procBoundary1to0
    {
        type            processor;
        value           uniform 37.9368218;
    }
    procBoundary1to2
    {
        type            processor;
        value           uniform 24.9271592;
    }
}


// ************************************************************************* //
