/*--------------------------------*- C++ -*----------------------------------*\
| =========                 |                                                 |
| \\      /  F ield         | OpenFOAM: The Open Source CFD Toolbox           |
|  \\    /   O peration     | Version:  2306                                  |
|   \\  /    A nd           | Website:  www.openfoam.com                      |
|    \\/     M anipulation  |                                                 |
\*---------------------------------------------------------------------------*/
FoamFile
{
    version     2.0;
    format      ascii;
    arch        "LSB;label=32;scalar=64";
    class       volScalarField;
    location    "0.00128";
    object      prefDPV_T;
}
// * * * * * * * * * * * * * * * * * * * * * * * * * * * * * * * * * * * * * //

dimensions      [1 -1 -1 -1 0 0 0];

internalField   nonuniform List<scalar> 
531
(
6.09788015e-10
5.94065926e-10
5.90245349e-10
5.92047088e-10
6.10784731e-10
6.10308595e-10
5.94352555e-10
5.90250692e-10
5.91964636e-10
6.10787796e-10
6.10433687e-10
5.93766235e-10
5.9001489e-10
5.91627358e-10
6.10762269e-10
6.10449711e-10
5.93402823e-10
5.89977358e-10
5.91811706e-10
6.10504126e-10
6.09352216e-10
5.97312559e-10
5.90841664e-10
5.93278801e-10
6.10082754e-10
6.10564654e-10
5.92337399e-10
5.9013936e-10
5.92946399e-10
6.11327851e-10
6.08235601e-10
6.11154378e-10
5.91354615e-10
5.90244632e-10
5.90069343e-10
5.90268099e-10
6.04696063e-10
6.08970639e-10
6.12082961e-10
5.90518391e-10
5.89732995e-10
5.94245155e-10
6.09870893e-10
6.11217802e-10
5.90819762e-10
5.89935382e-10
5.93954344e-10
6.09835742e-10
6.12384078e-10
5.91233927e-10
5.92754949e-10
6.09671024e-10
6.11102042e-10
5.91216787e-10
5.92883376e-10
6.09600386e-10
6.11331081e-10
5.90684705e-10
5.9007815e-10
5.96092671e-10
6.09356599e-10
6.11521582e-10
5.90919149e-10
5.89746487e-10
5.89746762e-10
5.92556446e-10
6.09395906e-10
6.08559544e-10
6.01049095e-10
5.90204456e-10
5.89746072e-10
5.94551449e-10
6.09285557e-10
6.11256731e-10
5.91388005e-10
5.9283429e-10
6.08825846e-10
6.08877489e-10
5.96828953e-10
5.90108506e-10
5.89906724e-10
5.89830602e-10
5.96927802e-10
6.0886684e-10
6.10004062e-10
5.90933895e-10
5.90250826e-10
5.9755656e-10
6.08832821e-10
6.09984038e-10
5.90717632e-10
5.90324005e-10
6.01279802e-10
6.08486607e-10
6.09390596e-10
5.91942757e-10
5.90335957e-10
5.90305971e-10
5.90171083e-10
5.98128636e-10
6.08565429e-10
6.09386632e-10
5.91343475e-10
5.90244966e-10
5.95914121e-10
6.0876129e-10
6.0981936e-10
5.90696784e-10
5.89665168e-10
5.93560314e-10
6.09124824e-10
6.09882014e-10
5.90998431e-10
5.91749611e-10
6.08906103e-10
6.10188424e-10
5.90368782e-10
5.89526985e-10
5.93938391e-10
6.09209434e-10
6.09794371e-10
5.90658127e-10
5.89635538e-10
5.94107615e-10
6.09163999e-10
6.09769873e-10
5.90662889e-10
5.89589832e-10
5.94054919e-10
6.09153084e-10
6.09752239e-10
5.90651909e-10
5.89558511e-10
5.94014297e-10
6.09114145e-10
6.09723825e-10
5.90669518e-10
5.89560466e-10
5.94068948e-10
6.09029712e-10
6.09757717e-10
5.90668747e-10
5.89481648e-10
5.9341879e-10
6.09066534e-10
6.09343807e-10
5.90977042e-10
5.91577204e-10
6.08673304e-10
6.10164696e-10
5.90467348e-10
5.89509228e-10
5.93632301e-10
6.09067227e-10
6.09486062e-10
5.9090437e-10
5.91539456e-10
6.08803468e-10
6.10312235e-10
5.90408641e-10
5.89546691e-10
5.94262618e-10
6.09187996e-10
6.10396721e-10
5.905042e-10
5.89750422e-10
5.8965357e-10
5.94601846e-10
6.09020377e-10
6.10020732e-10
5.90593541e-10
5.89739702e-10
5.94970133e-10
6.09063649e-10
6.09926852e-10
5.90945127e-10
5.91675391e-10
6.09041762e-10
6.10847257e-10
5.90377467e-10
5.89619868e-10
5.94365739e-10
6.09260981e-10
6.10517231e-10
5.9080386e-10
5.9164358e-10
6.09233512e-10
6.10688631e-10
5.90411862e-10
5.896851e-10
5.94918201e-10
6.09376283e-10
6.1204674e-10
5.90549633e-10
5.91555832e-10
6.09548213e-10
6.11394762e-10
5.9018725e-10
5.89627527e-10
5.95030509e-10
6.09578249e-10
6.12220147e-10
5.90390137e-10
5.89964533e-10
5.97443681e-10
6.09411902e-10
6.0919523e-10
5.90468183e-10
5.90077139e-10
5.98633907e-10
6.09477649e-10
6.05475377e-10
5.8967404e-10
5.89138393e-10
5.91466315e-10
6.10216397e-10
6.08218632e-10
6.01834297e-10
5.90011164e-10
5.89895282e-10
5.9850295e-10
6.09535481e-10
6.07212835e-10
5.90453443e-10
5.90279167e-10
6.11441609e-10
6.09022484e-10
6.00413161e-10
5.90034942e-10
5.89981805e-10
6.10815875e-10
6.08860064e-10
5.9648435e-10
5.89820134e-10
5.92056989e-10
6.09694993e-10
6.09749938e-10
5.90359262e-10
5.8984433e-10
6.03379672e-10
6.09260745e-10
6.01637705e-10
5.89797605e-10
5.89655851e-10
6.04875154e-10
6.089581e-10
5.97907849e-10
5.90119264e-10
5.94066166e-10
6.08972572e-10
6.08658563e-10
5.90315597e-10
5.89458241e-10
5.95667267e-10
6.09037046e-10
6.08681805e-10
5.90737145e-10
5.90041371e-10
5.90554721e-10
5.90389424e-10
5.94965506e-10
6.0896299e-10
6.08935799e-10
5.90314215e-10
5.9015635e-10
6.09746096e-10
6.088303e-10
5.95510583e-10
5.89954033e-10
5.96638421e-10
6.08793916e-10
6.00812043e-10
5.90205941e-10
5.94886365e-10
6.08706984e-10
6.09036849e-10
5.89717881e-10
5.89220436e-10
5.9512489e-10
6.09139443e-10
6.09151634e-10
5.89273241e-10
5.88956878e-10
5.97822917e-10
6.09100018e-10
6.00264984e-10
5.90186936e-10
5.98716745e-10
6.08660502e-10
5.99776884e-10
5.90414538e-10
5.95907432e-10
6.08639242e-10
6.09398471e-10
5.89477874e-10
5.89398931e-10
5.96392653e-10
6.0908569e-10
6.09602139e-10
5.89574478e-10
5.89442425e-10
5.96431355e-10
6.09109931e-10
6.09822212e-10
5.89531571e-10
5.89396047e-10
5.96288913e-10
6.09171168e-10
6.10115736e-10
5.89262654e-10
5.89195001e-10
5.99143575e-10
6.0918076e-10
6.01268572e-10
5.90609046e-10
5.95616108e-10
6.08802716e-10
6.1080409e-10
5.89080355e-10
5.89102407e-10
5.99416491e-10
6.09341914e-10
6.00553361e-10
5.90553826e-10
5.95975242e-10
6.0891675e-10
6.12551307e-10
5.8895384e-10
5.89026918e-10
5.99754126e-10
6.09506875e-10
5.99287477e-10
5.90309999e-10
5.99540176e-10
6.09079062e-10
5.98274247e-10
5.90498682e-10
5.97500181e-10
6.08983582e-10
6.07045015e-10
5.89130739e-10
5.89275405e-10
5.99272097e-10
6.09273501e-10
6.03665819e-10
5.90711333e-10
5.97182939e-10
6.09016967e-10
6.04975814e-10
5.89546762e-10
5.89838166e-10
6.01232589e-10
6.09493574e-10
6.03540308e-10
5.89262423e-10
5.89541575e-10
6.01566635e-10
6.09580698e-10
5.99214931e-10
5.90396843e-10
5.99771586e-10
6.09364688e-10
5.97772948e-10
5.90585154e-10
6.00330708e-10
6.09421508e-10
5.99421233e-10
5.89249584e-10
5.89772239e-10
6.03687581e-10
6.09552957e-10
5.98365842e-10
5.9095215e-10
6.0177875e-10
6.09377314e-10
5.99361522e-10
5.89792442e-10
5.90374067e-10
6.0540495e-10
6.09571487e-10
5.997378e-10
5.89913799e-10
5.90445929e-10
6.06129368e-10
6.09564174e-10
5.99543313e-10
5.90009101e-10
5.90558482e-10
6.06471813e-10
6.09548306e-10
5.99543567e-10
5.90054657e-10
5.90620895e-10
6.06384009e-10
6.09649556e-10
5.99557083e-10
5.89664224e-10
5.89637917e-10
5.9092383e-10
6.04017406e-10
6.08543272e-10
6.1002123e-10
5.97325713e-10
5.89823399e-10
5.90404587e-10
6.06393859e-10
6.09989064e-10
5.97230687e-10
5.89610258e-10
5.90182338e-10
6.0614921e-10
6.09890144e-10
5.96244262e-10
5.91086603e-10
6.04039677e-10
6.09981595e-10
5.95884672e-10
5.89348565e-10
5.90129819e-10
6.05908218e-10
6.10217751e-10
5.95061622e-10
5.90668916e-10
6.03803611e-10
6.10046291e-10
5.95026496e-10
5.90610124e-10
6.03696713e-10
6.09930572e-10
5.95406152e-10
5.90788208e-10
6.04030283e-10
6.10106883e-10
5.95423992e-10
5.89304977e-10
5.90156685e-10
6.06045798e-10
6.09924102e-10
5.9624729e-10
5.91081292e-10
6.04525727e-10
6.09814985e-10
5.96740857e-10
5.89853172e-10
5.9064856e-10
6.0770462e-10
6.09881875e-10
5.97165806e-10
5.8992235e-10
5.90592874e-10
6.07214836e-10
6.09934526e-10
5.96890305e-10
5.89692478e-10
5.90394995e-10
6.0634643e-10
6.10069112e-10
5.96465581e-10
5.89367775e-10
5.90058041e-10
6.04563063e-10
6.0977505e-10
5.9743717e-10
5.90900098e-10
6.02480703e-10
6.09807434e-10
5.96958743e-10
5.89391501e-10
5.90293471e-10
6.0511173e-10
6.08766527e-10
6.09898977e-10
5.98944266e-10
5.89743094e-10
5.89838652e-10
5.90979288e-10
6.03175322e-10
6.0972291e-10
5.98018613e-10
5.89575717e-10
5.90295992e-10
6.04163757e-10
6.09630618e-10
5.99032115e-10
5.91141872e-10
6.01827922e-10
6.09757815e-10
5.97710858e-10
5.89416856e-10
5.90159128e-10
6.03761343e-10
6.09855083e-10
5.98558335e-10
5.908238e-10
6.00597643e-10
6.09533258e-10
5.9883951e-10
5.91030897e-10
6.01954948e-10
6.09805264e-10
5.97753902e-10
5.89596908e-10
5.90484139e-10
6.06153373e-10
6.10081177e-10
5.979817e-10
5.8979502e-10
5.9052653e-10
6.06035301e-10
6.09976495e-10
5.98566224e-10
5.89905393e-10
5.90621148e-10
6.06031521e-10
6.09917583e-10
5.98990442e-10
5.89967166e-10
5.9064606e-10
6.05771788e-10
6.09886769e-10
5.99342488e-10
5.89966701e-10
5.90618493e-10
6.0544763e-10
6.09864428e-10
5.99711581e-10
5.89951431e-10
5.90593938e-10
6.05055312e-10
6.09812658e-10
6.00185276e-10
)
;

boundaryField
{
    closed
    {
        type            calculated;
        value           nonuniform List<scalar> 0();
    }
    open
    {
        type            calculated;
        value           nonuniform List<scalar> 0();
    }
    sides
    {
        type            empty;
    }
    procBoundary1to0
    {
        type            processor;
        value           uniform 6.09749134e-10;
    }
    procBoundary1to2
    {
        type            processor;
        value           uniform 5.89956012e-10;
    }
}


// ************************************************************************* //
