/*--------------------------------*- C++ -*----------------------------------*\
| =========                 |                                                 |
| \\      /  F ield         | OpenFOAM: The Open Source CFD Toolbox           |
|  \\    /   O peration     | Version:  2306                                  |
|   \\  /    A nd           | Website:  www.openfoam.com                      |
|    \\/     M anipulation  |                                                 |
\*---------------------------------------------------------------------------*/
FoamFile
{
    version     2.0;
    format      ascii;
    arch        "LSB;label=32;scalar=64";
    class       volScalarField;
    location    "0.00128";
    object      Z;
}
// * * * * * * * * * * * * * * * * * * * * * * * * * * * * * * * * * * * * * //

dimensions      [0 0 0 0 0 0 0];

internalField   nonuniform List<scalar> 
531
(
0.0141000869
0.0145743028
0.0148013401
0.0146474677
0.0141156141
0.0141094387
0.0145682525
0.0148064467
0.0146525789
0.0141149933
0.0141116572
0.0145880685
0.0148228657
0.0146631834
0.0141134002
0.0141108035
0.014600608
0.014825807
0.0146506156
0.0141084079
0.0140876584
0.0144729108
0.0147450926
0.0146048482
0.0140991086
0.0141134176
0.0146400658
0.0148230037
0.0146025041
0.0141329565
0.0140635857
0.0141676606
0.0146793114
0.0147947423
0.0147834478
0.0147607263
0.0142906369
0.0140780072
0.0141470312
0.0147308457
0.0148518668
0.0145701898
0.0140961824
0.0141251347
0.0147248556
0.0148305587
0.0145824088
0.0140953422
0.0141482944
0.0147062938
0.0146408554
0.0140888913
0.0141743653
0.0147111073
0.0146362986
0.0140877618
0.014125866
0.0147434109
0.0148146974
0.0145140176
0.0140863528
0.0141293648
0.0147284178
0.0148207503
0.0148204472
0.0146291869
0.014085127
0.0140700606
0.0143736001
0.0147535558
0.014818176
0.0145644906
0.0140848135
0.014120824
0.0146917693
0.014632711
0.0140716757
0.0140769254
0.0144860408
0.0147726351
0.0147777831
0.0147937577
0.0144857622
0.0140756658
0.0140960633
0.0147115813
0.0147842088
0.0144665922
0.0140755183
0.0140941409
0.0147290056
0.0147697963
0.01436743
0.0140691656
0.014087004
0.0146563028
0.014767619
0.0147468763
0.0147689767
0.014449717
0.0140700171
0.0140852055
0.0146836038
0.014780255
0.0145173828
0.014073501
0.0140913633
0.0147196848
0.0148345166
0.0145981989
0.014081718
0.0140898192
0.0147111762
0.0146906899
0.0140735819
0.0140996332
0.0147450599
0.0148490612
0.0145873908
0.0140840796
0.0140905923
0.0147294701
0.0148376571
0.0145816629
0.0140835977
0.0140901122
0.0147282719
0.0148402583
0.0145840083
0.0140835618
0.0140897856
0.0147290032
0.014842288
0.0145859914
0.0140830408
0.0140893013
0.01472849
0.0148412002
0.0145849911
0.014081351
0.0140902364
0.0147262075
0.0148506675
0.0146065735
0.01408324
0.0140807885
0.0147144003
0.0147075804
0.0140706387
0.0141006224
0.0147349126
0.0148523941
0.0145988311
0.0140832364
0.014083532
0.0147213565
0.014711721
0.0140733628
0.0141038181
0.0147410881
0.0148484254
0.0145781165
0.0140852867
0.0141028454
0.0147480494
0.0148262098
0.014813084
0.0145701271
0.0140804853
0.0140961367
0.0147284532
0.0148302733
0.0145498417
0.0140838839
0.0140927739
0.0147138996
0.0147073168
0.0140790848
0.014115897
0.0147364844
0.0148420695
0.0145708091
0.0140875239
0.0141054888
0.0147232035
0.014709423
0.014083537
0.0141123243
0.014731069
0.0148348448
0.0145493367
0.0140897166
0.0141410928
0.0147382583
0.0147103585
0.0140897281
0.0141278374
0.0147455976
0.0148379427
0.0145457113
0.0140944236
0.0141534555
0.0147416638
0.0148133791
0.0144682251
0.0140919501
0.0142039877
0.0147416072
0.0148010367
0.0144344217
0.0140914004
0.0142748104
0.0147801736
0.0148557309
0.0146694338
0.0141068921
0.0140631341
0.0143548733
0.014760251
0.0147971189
0.0144375694
0.0140961829
0.0142404087
0.0147872628
0.0147901518
0.0141694327
0.0140856083
0.0143913155
0.014801119
0.0147998992
0.0141115866
0.0140775726
0.0144991314
0.0147974277
0.0146578864
0.0140951383
0.0140881957
0.0147485392
0.014817835
0.0143195893
0.014090184
0.0143595549
0.0148070922
0.0148077958
0.0142886471
0.0140796975
0.0144551777
0.0147693754
0.0145732738
0.0140799225
0.0140677149
0.0147385714
0.0148232744
0.0145224166
0.0140845045
0.0140702478
0.0147274803
0.0147885519
0.0147428015
0.0147702185
0.014548205
0.0140842889
0.0140738991
0.0147754247
0.0147768402
0.0140891862
0.0140794749
0.0145275027
0.0147845832
0.0144901135
0.0140753874
0.0143778627
0.0147613768
0.0145491354
0.0140756173
0.0140766183
0.0147994838
0.0148472225
0.0145443073
0.0140853495
0.0140789744
0.0148348766
0.0148606962
0.0144579355
0.0140832413
0.0143908319
0.0147687248
0.0144315578
0.0140737864
0.0144035031
0.0147475064
0.0145165595
0.0140744704
0.0140829908
0.0148227789
0.0148378527
0.0145049385
0.0140856014
0.0140876292
0.0148275369
0.0148389112
0.0145056421
0.0140862103
0.0140918329
0.0148304918
0.0148456963
0.0145110615
0.0140871012
0.0140967385
0.014843803
0.0148612774
0.0144228933
0.0140861624
0.0143673042
0.0147485298
0.0145327991
0.0140784694
0.0141093345
0.0148474666
0.0148779377
0.0144150432
0.0140897749
0.0143842487
0.0147558985
0.0145206162
0.0140807677
0.014153078
0.0148548617
0.0148845625
0.0144056372
0.0140921402
0.0144145121
0.0147707321
0.0144100096
0.014082014
0.0144421882
0.0147499482
0.0144693026
0.0140812604
0.0142476754
0.0148450683
0.0148521197
0.0144197638
0.0140876134
0.014313702
0.0147414701
0.0144814168
0.0140833274
0.014286774
0.014824764
0.0148151906
0.0143699428
0.0140940173
0.0143163555
0.0148480992
0.0148272871
0.0143611546
0.0140929212
0.0144154132
0.0147620857
0.014404256
0.0140873981
0.0144541492
0.0147435662
0.0143910043
0.0140897765
0.0144103647
0.0148433364
0.0147960494
0.014312693
0.0140917682
0.0144392228
0.0147216795
0.0143561107
0.0140903934
0.0144126083
0.014814779
0.0147549119
0.0142758344
0.0140948592
0.0144031243
0.0148126892
0.0147485976
0.0142608506
0.0140948091
0.01440826
0.0148060853
0.0147397645
0.0142539527
0.014094687
0.0144083963
0.0148023885
0.014738252
0.0142558321
0.0140971606
0.0144071727
0.0148203842
0.0148151328
0.0147116284
0.0143052174
0.0140720629
0.0141060943
0.0144654612
0.0148167412
0.0147459058
0.0142560803
0.0141035176
0.0144691235
0.0148299227
0.0147544681
0.0142612808
0.0140987561
0.0145014874
0.0147082622
0.0143051649
0.0141030377
0.0145091864
0.0148414754
0.0147596917
0.0142665633
0.0141053088
0.0145362685
0.0147383076
0.0143105037
0.0141019949
0.0145357309
0.0147354246
0.0143127549
0.0140992968
0.0145251859
0.0147244587
0.0143054359
0.0141051966
0.014522593
0.0148450191
0.0147514755
0.0142634608
0.0140995564
0.0145011295
0.0147067147
0.0142946704
0.0141006651
0.0144841011
0.0148153841
0.0147216188
0.0142301346
0.0141018489
0.0144725433
0.0148131652
0.0147270638
0.0142395294
0.0141024361
0.0144798322
0.0148254732
0.0147419789
0.0142569105
0.0141044723
0.0144908132
0.0148427182
0.0147610199
0.0142938264
0.0140958385
0.0144635213
0.0147181181
0.0143396711
0.0140988049
0.0144762554
0.0148383534
0.0147470191
0.0142814857
0.0140784333
0.0141046122
0.0144217531
0.0148159474
0.0148036503
0.0147082058
0.0143239611
0.0140968625
0.0144473275
0.0148266955
0.0147537066
0.0143021607
0.0140942
0.0144205916
0.0147022164
0.0143550618
0.0140983205
0.0144548324
0.0148348479
0.0147633899
0.0143110135
0.0140982991
0.0144313829
0.0147202961
0.0143843948
0.0140908992
0.014424864
0.0146980589
0.0143520964
0.0140985774
0.0144535166
0.0148236275
0.0147368011
0.0142604549
0.0141053851
0.0144472916
0.01481624
0.0147294793
0.014262488
0.0141032258
0.0144321631
0.014807508
0.0147234907
0.0142624675
0.0141022475
0.014421251
0.0148016209
0.0147220841
0.0142677607
0.0141016822
0.0144122129
0.0147995421
0.0147239894
0.0142744612
0.01410125
0.0144029323
0.0147985964
0.0147252315
0.0142826723
0.0141002077
0.0143913943
)
;

boundaryField
{
    closed
    {
        type            zeroGradient;
    }
    open
    {
        type            zeroGradient;
    }
    sides
    {
        type            empty;
    }
    procBoundary1to0
    {
        type            processor;
        value           uniform 0.0140966851;
    }
    procBoundary1to2
    {
        type            processor;
        value           uniform 0.0147962144;
    }
}


// ************************************************************************* //
