/*--------------------------------*- C++ -*----------------------------------*\
| =========                 |                                                 |
| \\      /  F ield         | OpenFOAM: The Open Source CFD Toolbox           |
|  \\    /   O peration     | Version:  2306                                  |
|   \\  /    A nd           | Website:  www.openfoam.com                      |
|    \\/     M anipulation  |                                                 |
\*---------------------------------------------------------------------------*/
FoamFile
{
    version     2.0;
    format      ascii;
    arch        "LSB;label=32;scalar=64";
    class       volScalarField;
    location    "4e-05";
    object      rho;
}
// * * * * * * * * * * * * * * * * * * * * * * * * * * * * * * * * * * * * * //

dimensions      [1 -3 0 0 0 0 0];

internalField   nonuniform List<scalar> 
531
(
0.935602404
0.93567671
0.935753225
0.935831869
0.935912561
0.935995214
0.936079739
0.936166044
0.936254034
0.936343608
0.936434659
0.936527075
0.936620737
0.936715516
0.936811278
0.936907879
0.937005165
0.937102973
0.937201129
0.937299452
0.937397747
0.937495813
0.937593438
0.937690401
0.937786474
0.93788142
0.937974997
0.938066959
0.938157055
0.938245033
0.938330639
0.938413621
0.938493731
0.938570724
0.938644364
0.938714421
0.938780678
0.93884293
0.938900983
0.938954665
0.939003815
0.939048295
0.939087988
0.939122794
0.93915264
0.939177474
0.939197268
0.939212018
0.939221746
0.939226497
0.93922634
0.939221369
0.939211699
0.939197468
0.939178837
0.939155984
0.939129108
0.939098426
0.939064166
0.939026576
0.938985911
0.938942439
0.938896435
0.938848182
0.938797964
0.938746071
0.93869279
0.938638406
0.938583203
0.938527455
0.938471432
0.93841539
0.938359577
0.938304226
0.938249556
0.938195769
0.938143052
0.93809157
0.938041472
0.937992884
0.937945913
0.937900644
0.937857141
0.937815447
0.937775583
0.937737549
0.937701327
0.937666878
0.937634144
0.937603051
0.93757351
0.937545417
0.937518654
0.937493096
0.937468606
0.937445041
0.937422254
0.937400096
0.937378416
0.937357065
0.9373359
0.937314783
0.937293582
0.937272177
0.937250459
0.937228334
0.937205719
0.937182552
0.937158783
0.937134384
0.937109344
0.937083672
0.937057396
0.937030564
0.937003242
0.936975518
0.936947496
0.936919297
0.936891061
0.936862941
0.936835107
0.936807737
0.936781025
0.936755171
0.936730384
0.936706876
0.936684866
0.936664571
0.936646209
0.936629995
0.93661614
0.936604845
0.936596307
0.936590708
0.93658822
0.936588998
0.936593185
0.936600903
0.936612257
0.936627331
0.93664619
0.936668876
0.936695407
0.936725782
0.936759973
0.936797931
0.936839583
0.936884835
0.936933567
0.936985642
0.937040899
0.937099158
0.93716022
0.93722387
0.937289875
0.937357989
0.937427951
0.937499492
0.937572329
0.937646173
0.937720728
0.937795693
0.937870765
0.937945637
0.938020002
0.938093557
0.938165998
0.938237028
0.938306351
0.938373682
0.93843874
0.938501253
0.938560958
0.938617602
0.93867094
0.938720741
0.938766785
0.938808861
0.938846772
0.938880335
0.938909378
0.938933741
0.938953279
0.93896786
0.938977365
0.938981689
0.93898074
0.93897444
0.938962728
0.938945552
0.938922879
0.938894688
0.938860974
0.938821747
0.938777031
0.938726866
0.93867131
0.938610435
0.93854433
0.9384731
0.938396869
0.938315778
0.938229985
0.938139668
0.938045023
0.937946265
0.937843629
0.937737369
0.937627762
0.937515101
0.937399704
0.937281905
0.937162063
0.937040556
0.93691778
0.936794155
0.936670117
0.936546122
0.936422644
0.936300173
0.936179214
0.936060286
0.935943919
0.935830653
0.935721035
0.935615614
0.935514944
0.935419574
0.935330046
0.935246894
0.935170636
0.935101772
0.935040777
0.934988098
0.934944148
0.934909299
0.934883881
0.934868173
0.9348624
0.934866728
0.934881256
0.934906017
0.934940969
0.934985996
0.935040901
0.935105406
0.935179151
0.935261693
0.935352509
0.935450997
0.935556479
0.935668207
0.935785371
0.935907102
0.936032485
0.936160563
0.936290354
0.936420856
0.93655106
0.936679963
0.936806579
0.936929949
0.937049153
0.93716332
0.937271637
0.937373359
0.937467818
0.937554426
0.937632682
0.937702178
0.9377626
0.93781373
0.937855447
0.937887726
0.937910637
0.93792434
0.937929085
0.937925206
0.937913113
0.937893291
0.937866293
0.937832728
0.937793262
0.937748608
0.937699514
0.937646765
0.937591167
0.937533546
0.937474737
0.937415578
0.937356906
0.937299545
0.937244304
0.937191966
0.937143287
0.937098986
0.937059743
0.937026188
0.936998901
0.936978405
0.936965162
0.936959568
0.936961949
0.936972559
0.936991577
0.937019103
0.93705516
0.937099687
0.937152545
0.937213514
0.937282296
0.937358514
0.937441717
0.937531386
0.937626932
0.93772771
0.937833015
0.937942099
0.938054169
0.9381684
0.938283945
0.938399938
0.938515506
0.938629777
0.938741892
0.938851007
0.938956307
0.939057012
0.939152381
0.939241724
0.939324406
0.939399847
0.939467535
0.939527024
0.939577935
0.939619962
0.939652871
0.939676499
0.939690755
0.939695616
0.939691129
0.939677402
0.939654609
0.939622978
0.939582794
0.939534388
0.93947814
0.939414468
0.939343827
0.939266702
0.939183606
0.939095074
0.939001657
0.938903921
0.938802438
0.938697787
0.938590549
0.938481301
0.938370614
0.938259051
0.938147162
0.938035483
0.937924533
0.937814809
0.937706789
0.937600925
0.937497644
0.937397345
0.9373004
0.937207149
0.9371179
0.937032932
0.936952489
0.93687678
0.936805984
0.936740243
0.936679667
0.936624332
0.93657428
0.936529524
0.936490044
0.93645579
0.936426685
0.936402628
0.936383491
0.936369125
0.936359364
0.936354023
0.936352903
0.936355794
0.936362479
0.936372733
0.936386328
0.936403035
0.936422628
0.936444881
0.936469574
0.936496494
0.936525431
0.936556185
0.936588561
0.93662237
0.936657427
0.936693553
0.93673057
0.936768298
0.936806556
0.936845159
0.936883912
0.936922612
0.936961043
0.936998975
0.937036161
0.937072338
0.937107224
0.937140521
0.937171912
0.937201065
0.937227634
0.937251264
0.937271595
0.937288266
0.937300918
0.937309207
0.937312806
0.937311413
0.937304759
0.937292619
0.937274815
0.937251226
0.937221797
0.937186543
0.937145556
0.937099012
0.937047172
0.936990386
0.936929097
0.936863836
0.936795227
0.936723978
0.936650878
0.936576793
0.936502656
0.936429455
0.936358226
0.936290037
0.936225971
0.936167118
0.936114549
0.936069307
0.936032379
0.936004689
0.935987067
0.935980242
0.935984817
0.936001256
0.936029867
0.936070794
0.936124
0.936189267
0.936266189
0.936354171
0.936452433
0.936560021
0.936675815
0.936798546
0.936926818
0.937059127
0.937193893
0.937329479
0.937464233
0.937596507
0.937724696
0.937847263
0.937962769
0.938069898
0.938167478
0.938254503
0.938330149
0.938393782
0.938444968
0.938483476
0.938509277
0.938522538
0.93852362
0.938513059
0.93849156
0.938459979
0.938419306
0.93837065
0.938315217
0.938254294
0.938189229
0.938121415
0.938052268
0.937983215
0.937915675
0.937851043
0.937790678
0.937735892
0.937687931
0.937647972
0.93761711
0.937596347
0.937586587
0.937588626
0.937603147
0.937630712
0.937671757
0.937726588
0.937795373
0.937878144
0.937974787
0.938085045
0.938208516
0.938344651
0.938492755
0.938651995
0.938821397
0.938999859
0.939186154
0.939378945
0.939576795
0.939778181
0.939981514
0.940185152
0.940387419
0.940586631
0.940781121
0.940969238
0.941149396
)
;

boundaryField
{
    closed
    {
        type            calculated;
        value           nonuniform List<scalar> 0();
    }
    open
    {
        type            calculated;
        value           nonuniform List<scalar> 0();
    }
    sides
    {
        type            empty;
    }
    procBoundary3to2
    {
        type            processor;
        value           uniform 0.935530393;
    }
    procBoundary3to4
    {
        type            processor;
        value           uniform 0.9413201;
    }
}


// ************************************************************************* //
