/*--------------------------------*- C++ -*----------------------------------*\
| =========                 |                                                 |
| \\      /  F ield         | OpenFOAM: The Open Source CFD Toolbox           |
|  \\    /   O peration     | Version:  2306                                  |
|   \\  /    A nd           | Website:  www.openfoam.com                      |
|    \\/     M anipulation  |                                                 |
\*---------------------------------------------------------------------------*/
FoamFile
{
    version     2.0;
    format      ascii;
    arch        "LSB;label=32;scalar=64";
    class       volScalarField;
    location    "0.0012";
    object      alpha;
}
// * * * * * * * * * * * * * * * * * * * * * * * * * * * * * * * * * * * * * //

dimensions      [1 -1 -1 0 0 0 0];

internalField   nonuniform List<scalar> 
531
(
3.56030017e-05
3.50878686e-05
3.56909568e-05
3.68432215e-05
3.68343985e-05
3.5662448e-05
3.50971811e-05
3.57105017e-05
3.68221159e-05
3.56974761e-05
3.53050625e-05
3.68634052e-05
3.68034278e-05
3.68506179e-05
3.5194414e-05
3.50978707e-05
3.68423931e-05
3.67887024e-05
3.57032125e-05
3.55279143e-05
3.52438036e-05
3.52929215e-05
3.68508624e-05
3.68004352e-05
3.57472035e-05
3.54209936e-05
3.52596515e-05
3.52814239e-05
3.68336554e-05
3.68100823e-05
3.50374121e-05
3.51134197e-05
3.6866156e-05
3.68143942e-05
3.68593136e-05
3.68186528e-05
3.57007761e-05
3.50993653e-05
3.55665507e-05
3.68400204e-05
3.68196708e-05
3.56935635e-05
3.50789077e-05
3.54679286e-05
3.67962603e-05
3.68385612e-05
3.63849116e-05
3.54385014e-05
3.49178237e-05
3.5745619e-05
3.68157424e-05
3.56661891e-05
3.52819077e-05
3.68786463e-05
3.68251034e-05
3.5381364e-05
3.54707788e-05
3.68615384e-05
3.68246663e-05
3.59116848e-05
3.55945375e-05
3.5128107e-05
3.54459509e-05
3.68090017e-05
3.68290033e-05
3.6815875e-05
3.55168653e-05
3.4795414e-05
3.54575723e-05
3.68221536e-05
3.68256499e-05
3.54846161e-05
3.49912642e-05
3.56818473e-05
3.68263112e-05
3.68519309e-05
3.5210185e-05
3.52389205e-05
3.68238624e-05
3.68313773e-05
3.52447145e-05
3.55678744e-05
3.68325224e-05
3.67990531e-05
3.6841874e-05
3.57539537e-05
3.52220472e-05
3.52765017e-05
3.55763852e-05
3.68258906e-05
3.68017034e-05
3.68253009e-05
3.55473119e-05
3.49020013e-05
3.54171006e-05
3.68011337e-05
3.68302915e-05
3.54559075e-05
3.47715618e-05
3.50655604e-05
3.68229912e-05
3.68217249e-05
3.53199716e-05
3.53642477e-05
3.68278385e-05
3.68120692e-05
3.52524092e-05
3.55704959e-05
3.68378067e-05
3.68067126e-05
3.68232635e-05
3.55755671e-05
3.5125333e-05
3.49879004e-05
3.52013647e-05
3.68437703e-05
3.68075605e-05
3.68262168e-05
3.5759493e-05
3.52596094e-05
3.57292576e-05
3.68237152e-05
3.68371441e-05
3.68208399e-05
3.68369053e-05
3.53720455e-05
3.50736178e-05
3.50803892e-05
3.51332205e-05
3.68429927e-05
3.68104717e-05
3.53517221e-05
3.47077269e-05
3.53379488e-05
3.68334217e-05
3.68200719e-05
3.68330598e-05
3.55083659e-05
3.55052243e-05
3.68541363e-05
3.68290921e-05
3.68391531e-05
3.57076787e-05
3.51764515e-05
3.55044618e-05
3.5194759e-05
3.54404122e-05
3.68147376e-05
3.68223886e-05
3.59796304e-05
3.54723313e-05
3.51128977e-05
3.54157764e-05
3.68369578e-05
3.68313632e-05
3.68335493e-05
3.68241244e-05
3.57132531e-05
3.52228198e-05
3.51629787e-05
3.52284134e-05
3.68645189e-05
3.6807805e-05
3.68525342e-05
3.68003711e-05
3.57199966e-05
3.51980185e-05
3.53746227e-05
3.49490381e-05
3.5171713e-05
3.68430366e-05
3.68078291e-05
3.68357107e-05
3.67976635e-05
3.57360048e-05
3.52207125e-05
3.538748e-05
3.49717041e-05
3.51069338e-05
3.68336073e-05
3.68207242e-05
3.6827308e-05
3.68213675e-05
3.55190465e-05
3.50614419e-05
3.50909247e-05
3.51542097e-05
3.68682786e-05
3.68154709e-05
3.59087267e-05
3.53947491e-05
3.56734045e-05
3.68519184e-05
3.68596479e-05
3.56995824e-05
3.55164996e-05
3.68807216e-05
3.68486459e-05
3.54822319e-05
3.55281422e-05
3.68821247e-05
3.68201884e-05
3.57904541e-05
3.55701338e-05
3.56107421e-05
3.52766962e-05
3.57019717e-05
3.68431116e-05
3.56972768e-05
3.52201008e-05
3.688224e-05
3.68353916e-05
3.53666818e-05
3.53082855e-05
3.68680003e-05
3.6833867e-05
3.5748781e-05
3.54822614e-05
3.51868049e-05
3.56204294e-05
3.68480801e-05
3.68164868e-05
3.6839901e-05
3.57101233e-05
3.52019915e-05
3.51427244e-05
3.54488867e-05
3.68423607e-05
3.68320497e-05
3.68229074e-05
3.56782608e-05
3.49308316e-05
3.56731771e-05
3.68159082e-05
3.57041915e-05
3.53334136e-05
3.68926638e-05
3.67982949e-05
3.58421127e-05
3.55333104e-05
3.55081298e-05
3.52175154e-05
3.53762703e-05
3.68486852e-05
3.68387068e-05
3.68399355e-05
3.68432087e-05
3.57098207e-05
3.52820184e-05
3.51868244e-05
3.53090622e-05
3.68490209e-05
3.68358677e-05
3.68329792e-05
3.57178524e-05
3.51727466e-05
3.5680499e-05
3.68550253e-05
3.68631646e-05
3.54577904e-05
3.4852296e-05
3.57003961e-05
3.68420818e-05
3.56898743e-05
3.51616414e-05
3.68737086e-05
3.68170852e-05
3.53818347e-05
3.54365921e-05
3.68418161e-05
3.68095986e-05
3.53479577e-05
3.51423787e-05
3.68541995e-05
3.6804491e-05
3.58957832e-05
3.4993163e-05
3.50781494e-05
3.68369952e-05
3.68109861e-05
3.59099537e-05
3.55339915e-05
3.52066727e-05
3.57356959e-05
3.68141114e-05
3.56905681e-05
3.51738735e-05
3.68606997e-05
3.67931599e-05
3.68384679e-05
3.51337866e-05
3.48272787e-05
3.6856234e-05
3.67932384e-05
3.57272252e-05
3.53548173e-05
3.51947336e-05
3.52031016e-05
3.68356079e-05
3.67980227e-05
3.68215084e-05
3.68070464e-05
3.57307501e-05
3.47852538e-05
3.48406868e-05
3.68350007e-05
3.68233686e-05
3.53776527e-05
3.51940173e-05
3.68611229e-05
3.68004123e-05
3.56903011e-05
3.53327866e-05
3.58064352e-05
3.67432326e-05
3.68179159e-05
3.65028987e-05
3.4942894e-05
3.4989875e-05
3.68268603e-05
3.55991544e-05
3.48987045e-05
3.68234576e-05
3.67706897e-05
3.68011885e-05
3.60695939e-05
3.47314496e-05
3.49656714e-05
3.6802878e-05
3.55831607e-05
3.48946376e-05
3.6815001e-05
3.67414739e-05
3.67911209e-05
3.63327293e-05
3.47716345e-05
3.48825168e-05
3.67886503e-05
3.5605394e-05
3.48410204e-05
3.68040104e-05
3.67219208e-05
3.67838173e-05
3.6757995e-05
3.4793538e-05
3.48597449e-05
3.68007645e-05
3.56519598e-05
3.50051679e-05
3.68150629e-05
3.6770711e-05
3.67977578e-05
3.58679901e-05
3.48458169e-05
3.48771378e-05
3.68158938e-05
3.67894006e-05
3.58057814e-05
3.49372156e-05
3.49726143e-05
3.68105176e-05
3.67904762e-05
3.59864012e-05
3.50252411e-05
3.51309612e-05
3.68271547e-05
3.57704296e-05
3.50161912e-05
3.68360373e-05
3.68193022e-05
3.54396993e-05
3.52541365e-05
3.68286324e-05
3.68213502e-05
3.54047771e-05
3.53290455e-05
3.6822114e-05
3.68135225e-05
3.5292932e-05
3.53042823e-05
3.68281543e-05
3.67970647e-05
3.67996804e-05
3.59975387e-05
3.4893208e-05
3.49064748e-05
3.68218093e-05
3.68076169e-05
3.57777853e-05
3.55025398e-05
3.50849783e-05
3.50857073e-05
3.6838193e-05
3.68219465e-05
3.5551575e-05
3.53167632e-05
3.59536322e-05
3.68054369e-05
3.68121719e-05
3.57551658e-05
3.48375813e-05
3.48567887e-05
3.67815184e-05
3.68001472e-05
3.52027283e-05
3.5071316e-05
3.67849425e-05
3.67817934e-05
3.67715716e-05
3.67858219e-05
3.6767489e-05
3.50134209e-05
3.47914839e-05
3.68100787e-05
3.67732293e-05
3.53276003e-05
3.49508264e-05
3.68006972e-05
3.67693799e-05
3.57795086e-05
3.46502214e-05
3.47004845e-05
3.6784925e-05
3.6780008e-05
3.67732649e-05
3.52550388e-05
3.48050354e-05
3.68050848e-05
3.6771015e-05
3.57917841e-05
3.46527165e-05
3.47135462e-05
3.67928926e-05
3.67919411e-05
3.67857366e-05
3.5327706e-05
3.48590209e-05
3.68286056e-05
3.67884111e-05
3.57333776e-05
3.51094376e-05
3.53022377e-05
3.67994121e-05
3.68111528e-05
3.5725096e-05
3.52175154e-05
3.68411263e-05
3.68066936e-05
3.57264248e-05
3.51634351e-05
3.5459739e-05
3.68026183e-05
3.68262471e-05
3.56568122e-05
3.51726148e-05
3.6843596e-05
3.6814951e-05
3.56438766e-05
3.51072929e-05
3.57838887e-05
3.6786022e-05
3.68385741e-05
3.54911513e-05
3.49143291e-05
3.67964604e-05
3.67783913e-05
3.62829589e-05
3.48771277e-05
3.48746272e-05
3.67898534e-05
3.67915681e-05
3.54659684e-05
3.53052417e-05
3.6799044e-05
3.67811292e-05
3.57728071e-05
3.55391623e-05
3.49548146e-05
3.49601891e-05
3.68003963e-05
3.67741982e-05
3.67843381e-05
3.5510243e-05
3.50737859e-05
3.68009755e-05
3.67798275e-05
3.67837642e-05
3.53890874e-05
3.48143858e-05
3.68010165e-05
3.67828864e-05
3.53297591e-05
3.50256361e-05
3.67967914e-05
3.6768533e-05
3.59679537e-05
3.49190962e-05
3.49254799e-05
3.67787335e-05
3.68006276e-05
3.54294682e-05
3.51824558e-05
3.67697481e-05
3.67921282e-05
3.53434852e-05
3.52343781e-05
3.67823431e-05
3.67811251e-05
3.67701477e-05
3.53228179e-05
3.48634717e-05
3.67857319e-05
3.67644473e-05
3.57960525e-05
3.46660911e-05
3.46824182e-05
3.67706499e-05
3.67677007e-05
3.67696975e-05
3.52823653e-05
3.47710769e-05
3.67627523e-05
3.67735408e-05
3.51829132e-05
3.50737961e-05
3.67526538e-05
3.67680996e-05
3.67641936e-05
3.52319691e-05
3.4910672e-05
3.67866651e-05
)
;

boundaryField
{
    closed
    {
        type            calculated;
        value           nonuniform List<scalar> 0();
    }
    open
    {
        type            calculated;
        value           nonuniform List<scalar> 0();
    }
    sides
    {
        type            empty;
    }
    procBoundary3to2
    {
        type            processor;
        value           uniform 3.68392335e-05;
    }
    procBoundary3to4
    {
        type            processor;
        value           uniform 3.67661902e-05;
    }
}


// ************************************************************************* //
