/*--------------------------------*- C++ -*----------------------------------*\
| =========                 |                                                 |
| \\      /  F ield         | OpenFOAM: The Open Source CFD Toolbox           |
|  \\    /   O peration     | Version:  2306                                  |
|   \\  /    A nd           | Website:  www.openfoam.com                      |
|    \\/     M anipulation  |                                                 |
\*---------------------------------------------------------------------------*/
FoamFile
{
    version     2.0;
    format      ascii;
    arch        "LSB;label=32;scalar=64";
    class       volScalarField;
    location    "0.0012";
    object      H;
}
// * * * * * * * * * * * * * * * * * * * * * * * * * * * * * * * * * * * * * //

dimensions      [0 0 0 0 0 0 0];

internalField   nonuniform List<scalar> 
531
(
3.72203833e-08
4.77692035e-08
3.48139044e-08
1.31538195e-09
1.27697236e-09
3.61175437e-08
4.7687827e-08
3.25946907e-08
1.16230615e-09
3.4561077e-08
4.37401269e-08
1.30333591e-09
1.21244502e-09
1.17594775e-09
4.57247633e-08
4.76691411e-08
1.35589137e-09
1.17919963e-09
3.30321045e-08
3.96058078e-08
4.45282712e-08
4.399062e-08
1.36656888e-09
1.21610751e-09
2.8518259e-08
4.14782842e-08
4.44189655e-08
4.4098561e-08
1.21968288e-09
1.12778197e-09
4.86430582e-08
4.7353997e-08
1.26021916e-09
1.16222773e-09
1.33369496e-09
1.14058333e-09
3.33278268e-08
4.76173024e-08
3.81294782e-08
1.32139067e-09
1.22660309e-09
3.51769867e-08
4.81631032e-08
3.99566076e-08
1.07421722e-09
1.35406828e-09
7.03827585e-09
4.04396218e-08
5.12367608e-08
2.70450101e-08
1.14900687e-09
3.43875205e-08
4.40665498e-08
1.43168998e-09
1.21086956e-09
4.15046382e-08
4.01645041e-08
1.35086628e-09
1.34788044e-09
1.96889402e-08
3.75331601e-08
4.72638705e-08
4.04296636e-08
1.07200493e-09
1.35388262e-09
9.77855521e-10
3.91577786e-08
5.34712146e-08
4.03435909e-08
1.21789005e-09
1.19443094e-09
3.9732322e-08
4.97369911e-08
3.4414985e-08
1.22140461e-09
1.28868333e-09
4.54486184e-08
4.45943759e-08
1.22810498e-09
1.21470667e-09
4.48919052e-08
3.83041352e-08
1.10439351e-09
1.36556225e-09
1.05130043e-09
3.22653413e-08
4.54489234e-08
4.43122254e-08
3.83588369e-08
1.12267775e-09
1.33231132e-09
1.03679912e-09
3.87312579e-08
5.15048621e-08
4.12061998e-08
1.20037543e-09
1.15095766e-09
4.07450696e-08
5.38170302e-08
4.81829263e-08
1.18731049e-09
1.12389982e-09
4.33126692e-08
4.24513137e-08
1.25411142e-09
1.185882e-09
4.46159259e-08
3.82774513e-08
1.16070344e-09
1.34478976e-09
1.08241515e-09
3.82437462e-08
4.73204186e-08
4.96651533e-08
4.57315368e-08
1.16202083e-09
1.29679279e-09
1.13644811e-09
2.8682013e-08
4.45951148e-08
3.08802678e-08
1.28224486e-09
1.30850323e-09
1.27720491e-09
1.17574675e-09
4.22480571e-08
4.81503973e-08
4.78417474e-08
4.70156396e-08
1.27382146e-09
1.04935097e-09
4.2481214e-08
5.5026714e-08
4.26930467e-08
1.11509522e-09
1.30327201e-09
1.13471487e-09
3.94705396e-08
3.9417861e-08
1.24694451e-09
1.38908071e-09
1.14047289e-09
3.31824755e-08
4.62958361e-08
3.93235915e-08
4.59661638e-08
4.06223997e-08
1.28665684e-09
1.3123965e-09
1.73704071e-08
4.00896462e-08
4.7406932e-08
4.10888806e-08
1.24315018e-09
1.26421331e-09
1.31985456e-09
1.19338251e-09
3.38864747e-08
4.52607461e-08
4.61585193e-08
4.50893252e-08
1.28517596e-09
1.18816168e-09
1.34590057e-09
1.14841504e-09
3.1353618e-08
4.58655313e-08
4.21039942e-08
5.04894721e-08
4.61400791e-08
1.2209266e-09
1.18115532e-09
1.31015065e-09
1.1496059e-09
3.10324445e-08
4.54687013e-08
4.19488695e-08
5.00966174e-08
4.74133571e-08
1.20028069e-09
1.14947132e-09
1.26033206e-09
1.11554156e-09
3.92580287e-08
4.84042723e-08
4.75628022e-08
4.65392092e-08
1.28819462e-09
1.22831501e-09
1.93218792e-08
4.16864748e-08
3.44923688e-08
1.40654071e-09
1.4113402e-09
3.10196703e-08
3.87850285e-08
1.44214226e-09
1.31263177e-09
3.93509403e-08
3.88796139e-08
1.42383344e-09
1.3331522e-09
2.43222863e-08
3.83003794e-08
3.70488463e-08
4.41236079e-08
3.26366609e-08
1.22038688e-09
3.16633478e-08
4.51174256e-08
1.41945076e-09
1.22742523e-09
4.17874239e-08
4.33548565e-08
1.40483045e-09
1.29465032e-09
2.82627207e-08
3.98490312e-08
4.58784276e-08
3.69858386e-08
1.16796639e-09
1.3918315e-09
1.14655074e-09
3.54428636e-08
4.56447418e-08
4.67416201e-08
4.06300688e-08
1.17556819e-09
1.38842735e-09
1.10077006e-09
3.45733293e-08
5.09459591e-08
3.31546222e-08
1.15915605e-09
2.90768529e-08
4.31695133e-08
1.44962579e-09
1.27018442e-09
2.183718e-08
3.91929535e-08
3.92365378e-08
4.52957053e-08
4.19354967e-08
1.2661418e-09
1.28662521e-09
1.32637386e-09
1.27068079e-09
3.42847202e-08
4.39003143e-08
4.57537939e-08
4.3283794e-08
1.22948052e-09
1.37518412e-09
1.21615903e-09
3.02624899e-08
4.61190953e-08
3.4400785e-08
1.29433604e-09
1.29947844e-09
4.00944748e-08
5.22460286e-08
3.20505978e-08
1.15993545e-09
3.29692817e-08
4.64026717e-08
1.36975588e-09
1.25665195e-09
4.17883812e-08
4.10667687e-08
1.29004648e-09
1.24617597e-09
4.25776454e-08
4.68795933e-08
1.29325507e-09
1.16524909e-09
2.03317302e-08
4.96539957e-08
4.80096443e-08
1.23031637e-09
1.24855417e-09
1.98644855e-08
3.90381664e-08
4.56791275e-08
3.24538337e-08
1.15606575e-09
3.5772432e-08
4.64159497e-08
1.1629478e-09
1.170097e-09
1.07959774e-09
4.69017476e-08
5.28408765e-08
1.25312202e-09
1.14698849e-09
3.17406118e-08
4.29741322e-08
4.5742721e-08
4.5799099e-08
1.17165652e-09
1.18169266e-09
1.27025408e-09
1.17306484e-09
3.32482129e-08
5.35837912e-08
5.24836205e-08
1.13930828e-09
1.16566088e-09
4.1994971e-08
4.58585991e-08
1.26432617e-09
1.20706539e-09
3.49975014e-08
4.35420917e-08
2.42841066e-08
1.00142513e-09
1.2821737e-09
4.22194767e-09
5.05800669e-08
4.9975784e-08
9.68180817e-10
3.80995511e-08
5.16004862e-08
1.01649201e-09
1.13545416e-09
1.0069027e-09
1.46381232e-08
5.46259663e-08
5.03316071e-08
9.7979012e-10
3.84436305e-08
5.17508665e-08
9.94301558e-10
1.01621177e-09
9.91348346e-10
7.7282915e-09
5.39103962e-08
5.19705977e-08
9.57909356e-10
3.82036477e-08
5.27859151e-08
9.76327437e-10
8.84768218e-10
9.76489354e-10
8.74603851e-10
5.35210794e-08
5.24182998e-08
9.13272422e-10
3.732493e-08
4.96952861e-08
1.00209185e-09
1.2208364e-09
1.02736785e-09
2.2787582e-08
5.2516508e-08
5.1961143e-08
1.15255312e-09
1.09290448e-09
2.6060855e-08
5.08578477e-08
5.01468545e-08
1.09229179e-09
1.12549798e-09
1.72414764e-08
4.91445988e-08
4.70910149e-08
1.05759691e-09
2.83967267e-08
4.92309818e-08
1.14134406e-09
1.20216426e-09
4.09888675e-08
4.45996036e-08
1.07160329e-09
1.25814345e-09
4.18128987e-08
4.3114464e-08
1.03926681e-09
1.2612794e-09
4.40268294e-08
4.37360463e-08
1.00188758e-09
1.25270261e-09
1.06137839e-09
1.68340573e-08
5.16185712e-08
5.13156007e-08
1.1211481e-09
1.21429631e-09
2.81829584e-08
3.98320523e-08
4.79695402e-08
4.78620662e-08
1.05168074e-09
1.21871234e-09
3.8546585e-08
4.34299603e-08
1.80558549e-08
1.29200052e-09
1.25255932e-09
3.05385807e-08
5.27181324e-08
5.22445195e-08
9.25108111e-10
1.12694584e-09
4.6116401e-08
4.8339992e-08
7.21971459e-10
1.10901234e-09
8.66789427e-10
1.10316354e-09
1.06995327e-09
4.94133871e-08
5.35804602e-08
8.73894111e-10
1.04975633e-09
4.34540537e-08
5.07127336e-08
1.02153955e-09
1.0260773e-09
3.05914732e-08
5.61251527e-08
5.51937109e-08
8.65953311e-10
1.09852618e-09
1.04767488e-09
4.48414034e-08
5.33487148e-08
9.76346453e-10
1.00737168e-09
2.83151765e-08
5.60792248e-08
5.49427955e-08
8.57442831e-10
1.13049716e-09
1.06998987e-09
4.32742542e-08
5.23179173e-08
9.90644158e-10
1.08703596e-09
3.27484039e-08
4.7738578e-08
4.37306624e-08
1.10273057e-09
1.2309772e-09
3.52579934e-08
4.54265793e-08
1.10229194e-09
1.18035831e-09
3.07272501e-08
4.66246937e-08
4.04111319e-08
1.10346232e-09
1.28095395e-09
3.67114125e-08
4.61873062e-08
1.04020564e-09
1.17610379e-09
3.63424237e-08
4.76582646e-08
2.49384642e-08
1.11736534e-09
1.25905451e-09
4.02520981e-08
5.12198996e-08
7.48667955e-10
1.07334791e-09
9.06358666e-09
5.20044378e-08
5.20224476e-08
7.60792906e-10
1.14010722e-09
4.0877202e-08
4.39052426e-08
9.524884e-10
1.22445826e-09
3.12735188e-08
3.95258304e-08
5.05641645e-08
5.04765826e-08
7.52427001e-10
1.15910849e-09
1.00437675e-09
3.99427929e-08
4.83630613e-08
7.16831821e-10
1.16448082e-09
9.86156769e-10
4.22152372e-08
5.31442845e-08
7.65054431e-10
1.07577195e-09
4.34443396e-08
4.92893567e-08
8.2774614e-10
1.07265559e-09
1.79929171e-08
5.12893499e-08
5.10219297e-08
7.94528963e-10
1.14417203e-09
4.17759981e-08
4.61864726e-08
7.58466777e-10
1.17948139e-09
4.34316923e-08
4.52453325e-08
7.09724235e-10
1.17935621e-09
1.09495959e-09
4.35746409e-08
5.22989513e-08
8.2137108e-10
9.96642964e-10
2.91317801e-08
5.58566146e-08
5.55387959e-08
7.12932987e-10
1.07856771e-09
9.78615618e-10
4.44823445e-08
5.39519348e-08
6.09536126e-10
1.06725806e-09
4.66145031e-08
4.83957598e-08
4.52902769e-10
1.11895e-09
9.94736845e-10
4.53545321e-08
5.1443803e-08
7.51512581e-10
)
;

boundaryField
{
    closed
    {
        type            calculated;
        value           nonuniform List<scalar> 0();
    }
    open
    {
        type            calculated;
        value           nonuniform List<scalar> 0();
    }
    sides
    {
        type            empty;
    }
    procBoundary3to2
    {
        type            processor;
        value           uniform 1.20824426e-09;
    }
    procBoundary3to4
    {
        type            processor;
        value           uniform 1.12229528e-09;
    }
}


// ************************************************************************* //
