/*--------------------------------*- C++ -*----------------------------------*\
| =========                 |                                                 |
| \\      /  F ield         | OpenFOAM: The Open Source CFD Toolbox           |
|  \\    /   O peration     | Version:  2306                                  |
|   \\  /    A nd           | Website:  www.openfoam.com                      |
|    \\/     M anipulation  |                                                 |
\*---------------------------------------------------------------------------*/
FoamFile
{
    version     2.0;
    format      ascii;
    arch        "LSB;label=32;scalar=64";
    class       volScalarField;
    location    "0.0012";
    object      prefDh_T;
}
// * * * * * * * * * * * * * * * * * * * * * * * * * * * * * * * * * * * * * //

dimensions      [1 1 -3 -1 0 0 0];

internalField   nonuniform List<scalar> 
531
(
-0.000581592262
-0.000486128929
-0.000596218999
-0.000748654357
-0.000746503155
-0.000592676378
-0.000487887343
-0.000594352055
-0.000742919312
-0.00059693983
-0.000526636362
-0.000752611926
-0.000739625199
-0.00074880848
-0.00050596974
-0.000488014636
-0.000748877829
-0.000736328091
-0.000593976764
-0.000568233685
-0.000515051426
-0.000524382492
-0.000750689769
-0.000739055754
-0.000590885755
-0.000548211182
-0.000518091548
-0.000522189738
-0.000745801905
-0.000740155484
-0.000476712214
-0.000490908257
-0.000752753292
-0.000741358023
-0.000752078197
-0.000742010839
-0.000594264546
-0.000488287697
-0.000574956961
-0.000748066148
-0.000743043572
-0.00059777581
-0.0004845019
-0.000556571706
-0.000736846143
-0.000748086944
-0.000663844488
-0.000551048662
-0.00045438691
-0.000586201417
-0.000741503474
-0.000589674971
-0.000522269316
-0.000756921027
-0.000743989657
-0.000540409712
-0.000557267527
-0.000752692342
-0.000745222717
-0.000600711296
-0.000580122673
-0.000493692497
-0.000552517658
-0.000739401824
-0.00074615617
-0.000739891562
-0.000565763814
-0.000431476521
-0.000554764496
-0.000743461271
-0.000743942017
-0.000559736517
-0.000468134913
-0.000593149261
-0.000744334967
-0.000750155317
-0.000508916729
-0.000514130074
-0.000743904777
-0.000745293922
-0.000515390846
-0.000575337194
-0.000744467284
-0.000740223162
-0.000745850166
-0.000602908336
-0.000511212444
-0.000521326068
-0.000577064546
-0.000743301992
-0.000740435742
-0.000742360945
-0.000571531738
-0.000451435917
-0.000547287665
-0.000739045181
-0.000744462511
-0.000554677133
-0.000427109717
-0.000481970583
-0.0007433364
-0.000742471734
-0.000529344884
-0.00053758172
-0.000744958285
-0.00074111563
-0.000516769439
-0.000575840732
-0.000746074436
-0.000741568204
-0.000742385282
-0.000576826644
-0.000493175466
-0.000467502314
-0.000507316561
-0.000747291882
-0.000741274728
-0.000743499937
-0.000594076651
-0.000518161219
-0.000593663229
-0.000744396747
-0.000747361302
-0.000743767451
-0.000746036556
-0.00053900442
-0.00048349678
-0.000484717899
-0.000494609552
-0.000748208025
-0.000739482095
-0.00053513665
-0.000415125679
-0.000532545781
-0.000744751468
-0.000743864007
-0.000744866249
-0.000564278694
-0.000563621969
-0.000750199586
-0.000746514637
-0.000746152656
-0.000595364589
-0.000502700901
-0.000563409626
-0.000506121706
-0.000551541447
-0.000742626292
-0.000744419914
-0.000608534056
-0.000557528327
-0.000490821839
-0.00054695592
-0.00074669447
-0.000745767372
-0.000746745115
-0.000743623725
-0.000598513516
-0.000511291495
-0.000500053324
-0.000512307164
-0.000752662286
-0.000740275808
-0.000750827811
-0.000738390551
-0.000592964237
-0.000506717021
-0.000539431887
-0.000460255976
-0.000501735476
-0.000747708555
-0.000740213212
-0.000747087837
-0.000737854596
-0.000595568038
-0.000510961532
-0.000541875633
-0.00046448405
-0.000489682497
-0.00074560578
-0.000742514823
-0.000744911048
-0.000742319341
-0.000566261429
-0.000481229578
-0.000486656533
-0.000498497971
-0.000753449999
-0.000742211578
-0.000598507954
-0.000543159052
-0.000591530222
-0.000751288645
-0.000752893953
-0.000587550337
-0.000565443156
-0.000757440126
-0.000749722698
-0.000559012565
-0.000567821034
-0.000757546606
-0.000744176326
-0.000587957135
-0.000575783908
-0.000583015585
-0.000521279036
-0.000592609355
-0.000747718519
-0.000588862556
-0.000510703818
-0.000757527652
-0.000746226982
-0.00053768209
-0.000527077468
-0.000754515578
-0.000746566177
-0.000590494507
-0.000559344122
-0.000504555843
-0.000584903963
-0.000748219445
-0.000743997428
-0.000746361993
-0.00060172079
-0.000507405825
-0.000496352964
-0.000553221987
-0.000747136924
-0.000747105117
-0.000742489061
-0.000592806577
-0.000456836176
-0.000587775701
-0.000741634488
-0.000582982435
-0.00053190481
-0.000759919298
-0.000739145691
-0.000591713262
-0.000569048993
-0.000564080943
-0.000510276798
-0.000539660806
-0.000749283426
-0.000747465983
-0.000748097056
-0.000748221424
-0.000598859901
-0.000522211359
-0.000504510923
-0.000527192605
-0.000748999142
-0.00074774744
-0.000745631453
-0.00058941264
-0.000501927482
-0.000592817642
-0.00075083425
-0.00075252632
-0.00055465039
-0.000442219381
-0.000590631027
-0.000746930794
-0.000590897687
-0.00049988425
-0.000755329085
-0.000742810862
-0.000540672346
-0.000551052327
-0.000748126639
-0.000741197444
-0.000534449635
-0.00049632761
-0.000750657177
-0.000739385399
-0.000599212737
-0.000468488508
-0.000484330791
-0.000746578646
-0.000741500697
-0.000600947757
-0.000569085735
-0.000508323357
-0.000599451437
-0.000741241632
-0.000598048355
-0.000502240293
-0.000750720387
-0.000737141471
-0.000745431876
-0.000494684775
-0.000437482112
-0.000750682361
-0.000736934698
-0.000595626143
-0.000535996951
-0.000506038477
-0.000507675156
-0.000745735218
-0.000738236284
-0.00074383542
-0.000739977152
-0.000600562275
-0.000429650439
-0.000440046324
-0.000745302462
-0.000743204678
-0.000539967049
-0.000505942483
-0.000751776766
-0.000738963895
-0.000596579173
-0.000531953269
-0.000591492728
-0.000725413409
-0.000743224897
-0.000681185261
-0.000459111601
-0.000467854444
-0.000742021533
-0.000581420145
-0.000450803002
-0.000741794192
-0.000732263244
-0.00073719787
-0.000620127325
-0.000419508493
-0.000463343342
-0.000737280405
-0.000578464442
-0.000449995947
-0.000739871771
-0.000725199673
-0.000735011792
-0.000655750887
-0.000427013813
-0.00044772308
-0.000734191703
-0.000582725531
-0.000439856347
-0.000737476444
-0.000719972512
-0.000733391282
-0.000727186445
-0.000431106361
-0.000443416055
-0.000736217483
-0.000591414624
-0.000470717261
-0.000739958716
-0.000733093085
-0.000736699762
-0.000600903692
-0.000440937855
-0.000446785041
-0.000741568148
-0.000735638164
-0.000596746728
-0.000458021796
-0.000464648969
-0.000739902876
-0.000736169247
-0.000609782596
-0.000474478933
-0.000494197004
-0.000742934575
-0.000595676495
-0.000472784911
-0.000745531417
-0.000742733879
-0.000551620237
-0.000517098473
-0.000743367249
-0.000743686692
-0.000545203625
-0.000531021991
-0.000741740092
-0.00074213586
-0.000524400641
-0.0005264822
-0.000742604667
-0.000738728081
-0.000737414728
-0.000610894827
-0.000449810874
-0.000452306493
-0.000742462398
-0.000740489581
-0.000596690708
-0.000563349646
-0.000485622052
-0.000485738576
-0.000745109665
-0.000743427354
-0.000572257541
-0.000528774962
-0.000604693212
-0.000740799456
-0.000741778886
-0.000598382034
-0.000439358253
-0.000443026243
-0.00073243414
-0.000738138772
-0.000507692906
-0.000483088265
-0.000731192496
-0.000734254405
-0.000729862259
-0.00073501298
-0.000730984146
-0.000472271678
-0.000430692011
-0.000737727755
-0.000731951469
-0.000530903516
-0.000460535156
-0.000737238598
-0.000730944721
-0.000603859722
-0.000404116968
-0.000413691006
-0.000732559012
-0.000733792281
-0.000731938663
-0.00051737355
-0.00043321542
-0.000737694017
-0.000731095989
-0.000600164348
-0.000404599801
-0.000416171358
-0.000734091449
-0.000736513604
-0.000734676713
-0.000530839362
-0.000443379483
-0.0007425887
-0.000735381587
-0.000599759072
-0.000490224999
-0.000526080458
-0.000737757391
-0.000741364829
-0.00060458181
-0.000510327973
-0.000746186082
-0.000739976045
-0.000592611423
-0.000500294656
-0.000555234798
-0.000738412783
-0.000744895564
-0.000591969768
-0.000501926506
-0.000746092435
-0.000741603962
-0.000589127377
-0.000489806614
-0.000588402166
-0.000735190143
-0.000747173828
-0.000561348597
-0.000453760473
-0.000733779808
-0.000733222912
-0.000648724092
-0.000446758164
-0.000446306824
-0.000732556309
-0.000736530709
-0.000556735903
-0.000526745095
-0.000736243599
-0.000735234335
-0.000604284131
-0.000570410799
-0.000461305635
-0.000462308379
-0.000734612846
-0.000733201261
-0.000733763933
-0.00056493941
-0.000483555776
-0.000734392698
-0.000734391561
-0.000733473153
-0.000542334167
-0.000435009858
-0.000734858304
-0.000734155665
-0.000531320346
-0.00047455097
-0.000734598262
-0.000731221456
-0.00060819589
-0.00045459089
-0.00045584187
-0.000730624086
-0.000738401578
-0.000550033066
-0.000503822379
-0.000728459861
-0.00073702339
-0.000533989697
-0.000513523618
-0.000730549419
-0.00073479757
-0.000731763044
-0.000530024943
-0.00044416564
-0.000732297524
-0.000729663354
-0.000603413539
-0.000407009172
-0.000410238886
-0.000728209603
-0.000731109965
-0.000730553263
-0.000522533729
-0.000426860232
-0.000725626773
-0.000732182858
-0.000504007135
-0.000483559573
-0.000722095842
-0.000731580005
-0.000729593673
-0.000513096175
-0.000453011614
-0.000731822115
)
;

boundaryField
{
    closed
    {
        type            calculated;
        value           nonuniform List<scalar> 0();
    }
    open
    {
        type            calculated;
        value           nonuniform List<scalar> 0();
    }
    sides
    {
        type            empty;
    }
    procBoundary3to2
    {
        type            processor;
        value           uniform -0.000746818692;
    }
    procBoundary3to4
    {
        type            processor;
        value           uniform -0.000731225972;
    }
}


// ************************************************************************* //
