/*--------------------------------*- C++ -*----------------------------------*\
| =========                 |                                                 |
| \\      /  F ield         | OpenFOAM: The Open Source CFD Toolbox           |
|  \\    /   O peration     | Version:  2306                                  |
|   \\  /    A nd           | Website:  www.openfoam.com                      |
|    \\/     M anipulation  |                                                 |
\*---------------------------------------------------------------------------*/
FoamFile
{
    version     2.0;
    format      ascii;
    arch        "LSB;label=32;scalar=64";
    class       volScalarField;
    location    "0.00174";
    object      prefDh_T;
}
// * * * * * * * * * * * * * * * * * * * * * * * * * * * * * * * * * * * * * //

dimensions      [1 1 -3 -1 0 0 0];

internalField   nonuniform List<scalar> 
530
(
0.00788181183
0.00755305643
0.00852600642
0.00852419296
0.00788959807
0.00767749583
0.00852377594
0.00852229083
0.00789880429
0.0077900626
0.00852251732
0.00852016556
0.00789099969
0.00789768337
0.00851988194
0.00851767596
0.00786897914
0.00798971368
0.00851676358
0.00851497405
0.00785848745
0.00804573241
0.00851336705
0.00851202762
0.00788084885
0.00807482374
0.00850953691
0.00850856516
0.00790817822
0.00809197115
0.00850550791
0.0085046547
0.00793544295
0.00810730818
0.00850124224
0.00850041775
0.00795977237
0.00811935491
0.00849624063
0.00849588796
0.00798187288
0.00812829317
0.00848649452
0.0084910959
0.00800219054
0.00813496313
0.00847664606
0.00848607153
0.00801849437
0.00813939771
0.00846871161
0.00848074172
0.00803504349
0.00814057122
0.00846517775
0.00847277468
0.00805239253
0.00813769868
0.00846412743
0.00846715177
0.00806187217
0.00813476275
0.00846422106
0.00846381717
0.00806507264
0.00812780675
0.00845815444
0.00845787407
0.00806437797
0.00812109848
0.00845203004
0.00845181621
0.00806376782
0.00811626482
0.00844587086
0.00844568789
0.00806413316
0.00811276228
0.00843968793
0.00843949934
0.00806538007
0.00811074865
0.0084334604
0.00843323638
0.00806674488
0.0081083051
0.00842718182
0.00842690452
0.00806646631
0.00810952311
0.00842086515
0.00842057218
0.00806212319
0.00810992187
0.00841444122
0.0084141157
0.00805684075
0.00811179829
0.00840800438
0.0084076526
0.0080552614
0.00811218493
0.00840148599
0.00840118552
0.00805638798
0.00811355834
0.00839500506
0.00839470278
0.00805694401
0.00811364193
0.00838853341
0.00838821318
0.00805812939
0.00811223884
0.00838202435
0.00838169711
0.00806035482
0.00810982091
0.00837542155
0.00837507898
0.00806295335
0.00810943515
0.00836888625
0.0083684743
0.00806478345
0.00810603894
0.00836230226
0.00836192272
0.00806777414
0.00810314548
0.00835575641
0.00835539795
0.00806696047
0.00809920172
0.00834921012
0.00834893213
0.00806556617
0.00809681829
0.00834277653
0.00834250839
0.00806343184
0.00809386306
0.00833640275
0.00833615875
0.00806151949
0.00809169231
0.00833011346
0.00832988883
0.00806003291
0.00808964966
0.00832385948
0.00832364258
0.00805849953
0.00808763449
0.00831766371
0.0083174483
0.00805678405
0.00808563204
0.0083115471
0.00831132735
0.00805496667
0.00808390029
0.00830549123
0.0083052968
0.00805135868
0.00808242803
0.00829947416
0.0082993077
0.00805138889
0.00808514114
0.00829362456
0.00829336414
0.0080504043
0.00808663718
0.00828781027
0.00828753279
0.00805116255
0.00808617746
0.00828205402
0.00828177576
0.00805058428
0.008085909
0.0082763365
0.00827605969
0.00805002677
0.00808433094
0.00827067462
0.00827041428
0.00805166496
0.00808095441
0.00826508886
0.00826489081
0.00805306644
0.00807696865
0.00825956364
0.00825946875
0.00805196073
0.00807563081
0.00825426806
0.00825421905
0.00805101438
0.00807634673
0.00824914632
0.00824918416
0.00804574675
0.00807301543
0.00824417607
0.00824430044
0.00804087599
0.00806934738
0.00823937339
0.00823956675
0.00803655926
0.00806624208
0.00823473568
0.00823496232
0.00803285666
0.00806345971
0.00823024808
0.00823048642
0.00802942473
0.00806122694
0.00822594382
0.00822619076
0.00802639594
0.00805901963
0.00822181175
0.00822206286
0.00802331888
0.00805847403
0.0082178671
0.00821809608
0.00801951168
0.00805645267
0.00821405681
0.00821433545
0.00801621208
0.00805475793
0.00821041216
0.00821073216
0.00801441483
0.00805343784
0.00820693247
0.00820723695
0.00801284208
0.00805324071
0.00820357745
0.00820387582
0.00801097775
0.00805299238
0.00820031985
0.0082006661
0.00800889223
0.00805249975
0.0081972013
0.00819758375
0.00800683735
0.00805173574
0.00819418765
0.00819461647
0.00800532873
0.00805082469
0.00819132812
0.00819178894
0.00800490569
0.00805003524
0.00818863386
0.00818910546
0.00800580665
0.00804975381
0.00818610668
0.00818657349
0.00800769195
0.0080503659
0.00818373447
0.00818419915
0.00801030847
0.00805217097
0.00818150703
0.00818198477
0.00801318426
0.00805529088
0.0081794071
0.00817992572
0.00801651708
0.00805962806
0.00817744463
0.00817801234
0.00801979751
0.00806485742
0.00817561639
0.00817622846
0.00802349504
0.00806973357
0.00817392338
0.00817455359
0.00802771282
0.00807391009
0.0081723621
0.00817296569
0.00803244686
0.00807548807
0.00817092723
0.00817146279
0.00803755777
0.00807649373
0.00816960053
0.0081700432
0.00804286226
0.00807793427
0.00816836033
0.00816872826
0.00804815526
0.00807973026
0.0081672205
0.00816752135
0.00805339976
0.00808273341
0.00816619358
0.00816643465
0.00805918648
0.00808431815
0.00816522171
0.00816542051
0.00806110738
0.0080848183
0.0081642843
0.00816447536
0.00806234613
0.00808552313
0.00816342734
0.00816360275
0.00806417085
0.00808674439
0.0081626677
0.00816280452
0.0080666797
0.00808889122
0.00816199857
0.00816208113
0.00806978226
0.00809126119
0.00816141085
0.00816143736
0.00807320023
0.0080936804
0.00816089631
0.00816087015
0.00807677393
0.00809605889
0.00816044747
0.00816037464
0.00808027449
0.00809841015
0.00816004359
0.00815994589
0.00808449393
0.00810082857
0.00815968585
0.00815958127
0.00808871244
0.0081033471
0.00815937888
0.00815927642
0.00809281144
0.00810594843
0.0081591264
0.00815902776
0.00809675097
0.00810861228
0.00815892725
0.00815883207
0.00810051451
0.00811131281
0.00815877917
0.00815868662
0.00810409784
0.00811402066
0.0081586792
0.00815858886
0.00810750544
0.00811670517
0.00815862461
0.0081585362
0.00811073581
0.00811933866
0.00815861172
0.00815852638
0.0081138297
0.00812189012
0.00815863688
0.00815855622
0.00811679898
0.00812437147
0.00815869683
0.00815862204
0.00811963994
0.00812675803
0.00815878863
0.00815872027
0.00812236194
0.00812904302
0.00815890955
0.00815884759
0.00812497181
0.00813122779
0.00815905533
0.0081589978
0.00812747556
0.00813331718
0.00815921893
0.00815916676
0.00812987755
0.00813531574
0.00815940474
0.00815935725
0.00813217979
0.00813722517
0.00815961033
0.00815956695
0.00813438529
0.00813904696
0.0081598334
0.00815979365
0.00813650552
0.00814077608
0.00816007194
0.00816003503
0.00813852297
0.00814243577
0.00816032346
0.00816028943
0.00814048019
0.00814399158
0.00816058547
0.0081605556
0.00814233178
0.00814549434
0.00816085663
0.00816083211
0.00814408885
0.00814695149
0.0081611378
0.00816112038
0.00814578436
0.00814836577
0.00816143381
0.00816142586
0.00814787046
0.00815008113
0.00816177233
0.00816177851
0.00815041588
0.00815252015
0.0081584724
0.00815941973
0.00815575354
0.00815709885
0.00815715781
0.0081583406
0.00815754357
0.00815868892
0.00815813314
0.00815926287
0.00815876638
0.00815985497
0.00815947853
0.00816048308
0.00816026735
0.00816114695
0.00816112671
0.00816184391
0.00816200162
0.00816260439
0.00816288237
0.00816341512
0.00816376205
0.00816428447
0.00816463654
0.00816515561
0.0081654879
0.00816598273
0.00816628809
0.00816673748
0.00816700834
0.00816739181
0.00816762221
0.00816792555
0.00816811096
0.00816833086
0.00816846941
0.00816861448
0.00816870986
0.00816879603
0.00816885667
0.0081688788
0.00816889249
0.00816890069
0.00816890507
0.00816890732
0.00816890833
0.00816890874
0.00816890891
0.00816890896
0.00816890897
0.00816890897
0.00816890897
0.00816890897
0.00816890897
0.00816890897
0.00816890897
0.00816890897
0.00816890897
0.00816890897
0.00816890897
0.00816890897
0.00816890897
0.00816890897
0.00816890897
0.00816890897
0.00816890897
0.00816890897
0.00816890897
0.00816890897
0.00816890897
0.00816890897
0.00816890897
0.00816890897
0.00816890897
0.00816890897
)
;

boundaryField
{
    closed
    {
        type            calculated;
        value           nonuniform List<scalar> 0();
    }
    open
    {
        type            calculated;
        value           uniform 0.00816890897;
    }
    sides
    {
        type            empty;
    }
    procBoundary5to4
    {
        type            processor;
        value           uniform 0.00852592438;
    }
}


// ************************************************************************* //
