/*--------------------------------*- C++ -*----------------------------------*\
| =========                 |                                                 |
| \\      /  F ield         | OpenFOAM: The Open Source CFD Toolbox           |
|  \\    /   O peration     | Version:  2306                                  |
|   \\  /    A nd           | Website:  www.openfoam.com                      |
|    \\/     M anipulation  |                                                 |
\*---------------------------------------------------------------------------*/
FoamFile
{
    version     2.0;
    format      ascii;
    arch        "LSB;label=32;scalar=64";
    class       volScalarField;
    location    "0.00174";
    object      prefDZ_T;
}
// * * * * * * * * * * * * * * * * * * * * * * * * * * * * * * * * * * * * * //

dimensions      [1 -1 -1 -1 0 0 0];

internalField   nonuniform List<scalar> 
530
(
-9.29318334e-11
-9.56104932e-11
-8.77058124e-11
-8.76911126e-11
-9.29264536e-11
-9.46721969e-11
-8.77993727e-11
-8.77614566e-11
-9.29138879e-11
-9.38191648e-11
-8.78549056e-11
-8.78230604e-11
-9.3020681e-11
-9.29978807e-11
-8.7900053e-11
-8.78667596e-11
-9.32253556e-11
-9.22890068e-11
-8.79300884e-11
-8.7909993e-11
-9.33234563e-11
-9.18531752e-11
-8.79634699e-11
-8.79479168e-11
-9.31608698e-11
-9.16187898e-11
-8.79925646e-11
-8.79779284e-11
-9.29449302e-11
-9.1470294e-11
-8.80173405e-11
-8.80016204e-11
-9.2720299e-11
-9.13331178e-11
-8.80379029e-11
-8.80208966e-11
-9.25110395e-11
-9.1215318e-11
-8.80573017e-11
-8.80361646e-11
-9.23123359e-11
-9.11158961e-11
-8.80981877e-11
-8.80473418e-11
-9.21215418e-11
-9.1029078e-11
-8.81337619e-11
-8.80538145e-11
-9.19538873e-11
-9.09553813e-11
-8.8149073e-11
-8.80552515e-11
-9.1777593e-11
-9.09036375e-11
-8.81304449e-11
-8.80666607e-11
-9.15911089e-11
-9.08812032e-11
-8.8089296e-11
-8.80585885e-11
-9.14541437e-11
-9.08580625e-11
-8.80324016e-11
-8.80285617e-11
-9.13642692e-11
-9.08515293e-11
-8.80102719e-11
-8.80089973e-11
-9.13026484e-11
-9.08400348e-11
-8.79863571e-11
-8.79864e-11
-9.12376495e-11
-9.08111161e-11
-8.79627539e-11
-8.79625021e-11
-9.1162652e-11
-9.07691259e-11
-8.79389031e-11
-8.79381819e-11
-9.10793117e-11
-9.07123532e-11
-8.79146141e-11
-8.79125156e-11
-9.09938028e-11
-9.06558734e-11
-8.78885043e-11
-8.78853439e-11
-9.09201122e-11
-9.05673936e-11
-8.78645762e-11
-8.78581019e-11
-9.08760595e-11
-9.0484028e-11
-8.78379132e-11
-8.78321617e-11
-9.08416542e-11
-9.03868719e-11
-8.78115979e-11
-8.78069699e-11
-9.0778624e-11
-9.03042656e-11
-8.77831898e-11
-8.77819307e-11
-9.0693619e-11
-9.02126087e-11
-8.77573913e-11
-8.77567729e-11
-9.06090438e-11
-9.01311281e-11
-8.77316666e-11
-8.77311357e-11
-9.05182635e-11
-9.00620621e-11
-8.77057193e-11
-8.77046687e-11
-9.04188149e-11
-9.00015678e-11
-8.76792866e-11
-8.76771882e-11
-9.03162804e-11
-8.99243744e-11
-8.76551945e-11
-8.76497026e-11
-9.02207872e-11
-8.98727971e-11
-8.76286302e-11
-8.76229506e-11
-9.01172606e-11
-8.98177664e-11
-8.76016236e-11
-8.75963273e-11
-9.00448444e-11
-8.97723256e-11
-8.75728156e-11
-8.75704024e-11
-8.9977727e-11
-8.97136111e-11
-8.75468441e-11
-8.75446614e-11
-8.99179721e-11
-8.96610681e-11
-8.75214635e-11
-8.75198278e-11
-8.98578398e-11
-8.96034679e-11
-8.74978175e-11
-8.74963677e-11
-8.97957929e-11
-8.95463945e-11
-8.74749303e-11
-8.74735332e-11
-8.97358584e-11
-8.94907556e-11
-8.74530165e-11
-8.74516028e-11
-8.96792275e-11
-8.94367285e-11
-8.74322002e-11
-8.74308707e-11
-8.96254628e-11
-8.93822504e-11
-8.74129344e-11
-8.74116506e-11
-8.95870871e-11
-8.93270503e-11
-8.73971517e-11
-8.73957085e-11
-8.95224071e-11
-8.92390028e-11
-8.73860187e-11
-8.73825647e-11
-8.94680544e-11
-8.9161077e-11
-8.7374975e-11
-8.73717862e-11
-8.94012062e-11
-8.90985276e-11
-8.73647109e-11
-8.73620716e-11
-8.93477648e-11
-8.90362732e-11
-8.73548883e-11
-8.73529021e-11
-8.92961956e-11
-8.89881614e-11
-8.73463121e-11
-8.73443691e-11
-8.92284684e-11
-8.89589748e-11
-8.73389594e-11
-8.73373e-11
-8.91599328e-11
-8.89378451e-11
-8.73312227e-11
-8.73315797e-11
-8.91157223e-11
-8.88949944e-11
-8.73238555e-11
-8.73275371e-11
-8.90728209e-11
-8.88375393e-11
-8.73152984e-11
-8.73224398e-11
-8.90675082e-11
-8.88144995e-11
-8.73066603e-11
-8.73168762e-11
-8.90622328e-11
-8.87980865e-11
-8.72992732e-11
-8.73118051e-11
-8.90549794e-11
-8.87800229e-11
-8.729386e-11
-8.73078905e-11
-8.9045233e-11
-8.87625948e-11
-8.72901039e-11
-8.73046929e-11
-8.90359917e-11
-8.87433208e-11
-8.72878855e-11
-8.73032015e-11
-8.90261593e-11
-8.87267426e-11
-8.7286909e-11
-8.7303128e-11
-8.90200148e-11
-8.86988609e-11
-8.7286526e-11
-8.73027356e-11
-8.90243239e-11
-8.86863848e-11
-8.72873039e-11
-8.73055293e-11
-8.90255336e-11
-8.86736431e-11
-8.729086e-11
-8.73099413e-11
-8.90164935e-11
-8.86598705e-11
-8.72962995e-11
-8.73159961e-11
-8.9007922e-11
-8.86389126e-11
-8.73026733e-11
-8.73234571e-11
-8.90043995e-11
-8.86207226e-11
-8.73093596e-11
-8.73319656e-11
-8.90052832e-11
-8.86070291e-11
-8.73166317e-11
-8.73410189e-11
-8.90081634e-11
-8.85980427e-11
-8.73244239e-11
-8.73504548e-11
-8.90082292e-11
-8.85925874e-11
-8.73336309e-11
-8.73605986e-11
-8.90004361e-11
-8.85881307e-11
-8.73447441e-11
-8.7371682e-11
-8.8982424e-11
-8.8581064e-11
-8.73579782e-11
-8.73840413e-11
-8.89569722e-11
-8.85677551e-11
-8.73731313e-11
-8.73980135e-11
-8.89263874e-11
-8.85453327e-11
-8.73897947e-11
-8.74138262e-11
-8.88952021e-11
-8.85125475e-11
-8.74067625e-11
-8.7431513e-11
-8.88619382e-11
-8.84701705e-11
-8.74238453e-11
-8.74506149e-11
-8.88305108e-11
-8.84211377e-11
-8.74416609e-11
-8.74706345e-11
-8.87968966e-11
-8.83760902e-11
-8.74603234e-11
-8.74909005e-11
-8.8760103e-11
-8.83388262e-11
-8.7479881e-11
-8.75105303e-11
-8.8719909e-11
-8.83296549e-11
-8.7500344e-11
-8.7528837e-11
-8.86773963e-11
-8.83288244e-11
-8.75214332e-11
-8.75470091e-11
-8.86341103e-11
-8.83256993e-11
-8.75427913e-11
-8.75656684e-11
-8.85918442e-11
-8.83205495e-11
-8.75644137e-11
-8.75850416e-11
-8.85509252e-11
-8.83065211e-11
-8.75867984e-11
-8.76064347e-11
-8.85058797e-11
-8.83036453e-11
-8.76084641e-11
-8.76261442e-11
-8.84990673e-11
-8.83100163e-11
-8.7628009e-11
-8.76448804e-11
-8.85002623e-11
-8.83157765e-11
-8.76470383e-11
-8.76637253e-11
-8.84978289e-11
-8.83182525e-11
-8.7666618e-11
-8.76820038e-11
-8.84904515e-11
-8.83142759e-11
-8.76869248e-11
-8.77000854e-11
-8.84786312e-11
-8.8309116e-11
-8.7707668e-11
-8.77183982e-11
-8.84644821e-11
-8.83039569e-11
-8.77286241e-11
-8.77367587e-11
-8.84493304e-11
-8.82993944e-11
-8.77496703e-11
-8.77550589e-11
-8.84352211e-11
-8.82952604e-11
-8.77697074e-11
-8.77732441e-11
-8.84161664e-11
-8.82907698e-11
-8.77880865e-11
-8.77912633e-11
-8.8397598e-11
-8.82856064e-11
-8.78063741e-11
-8.78091418e-11
-8.83801853e-11
-8.82798744e-11
-8.78244692e-11
-8.78268696e-11
-8.83641393e-11
-8.82737081e-11
-8.78423344e-11
-8.78444228e-11
-8.83495564e-11
-8.82672903e-11
-8.78599253e-11
-8.78617698e-11
-8.83364324e-11
-8.82608326e-11
-8.78772058e-11
-8.78788757e-11
-8.8324688e-11
-8.82545557e-11
-8.78941722e-11
-8.7895705e-11
-8.83142927e-11
-8.82486516e-11
-8.79107964e-11
-8.79122436e-11
-8.83047698e-11
-8.8243334e-11
-8.79270557e-11
-8.79284567e-11
-8.82959832e-11
-8.82382969e-11
-8.79429297e-11
-8.79443046e-11
-8.82880965e-11
-8.8233865e-11
-8.79584027e-11
-8.79597558e-11
-8.82810155e-11
-8.8230117e-11
-8.79734616e-11
-8.79747885e-11
-8.82746637e-11
-8.82270144e-11
-8.79880806e-11
-8.79893573e-11
-8.82689699e-11
-8.82244912e-11
-8.80022107e-11
-8.80034404e-11
-8.8263876e-11
-8.82224882e-11
-8.801591e-11
-8.80170816e-11
-8.82593424e-11
-8.82209667e-11
-8.8029173e-11
-8.80302774e-11
-8.82553235e-11
-8.82198957e-11
-8.80419997e-11
-8.80430238e-11
-8.82517091e-11
-8.82192979e-11
-8.80543915e-11
-8.80553192e-11
-8.82486052e-11
-8.82189893e-11
-8.80663421e-11
-8.8067174e-11
-8.82456871e-11
-8.82192026e-11
-8.80778619e-11
-8.80785866e-11
-8.82432666e-11
-8.82195487e-11
-8.80889166e-11
-8.80896192e-11
-8.82412106e-11
-8.82199336e-11
-8.80995808e-11
-8.81003163e-11
-8.82391064e-11
-8.82201875e-11
-8.81102097e-11
-8.81110443e-11
-8.82329465e-11
-8.82170835e-11
-8.81222071e-11
-8.8123014e-11
-8.82199877e-11
-8.82055166e-11
-8.81629765e-11
-8.815734e-11
-8.81899852e-11
-8.81820839e-11
-8.81864011e-11
-8.81803901e-11
-8.81912753e-11
-8.81862093e-11
-8.81955283e-11
-8.81911766e-11
-8.82005633e-11
-8.81969114e-11
-8.82059391e-11
-8.82032824e-11
-8.82116469e-11
-8.8210244e-11
-8.82176628e-11
-8.82177025e-11
-8.82237672e-11
-8.82250748e-11
-8.82304038e-11
-8.82321977e-11
-8.82374748e-11
-8.82394923e-11
-8.8244492e-11
-8.82465664e-11
-8.825109e-11
-8.82530735e-11
-8.82570038e-11
-8.82587763e-11
-8.82619888e-11
-8.8263467e-11
-8.82658835e-11
-8.82670183e-11
-8.82686464e-11
-8.82694221e-11
-8.82703671e-11
-8.8270809e-11
-8.82712413e-11
-8.82714263e-11
-8.82715389e-11
-8.82717243e-11
-8.82718316e-11
-8.82718904e-11
-8.82719189e-11
-8.82719315e-11
-8.82719361e-11
-8.82719374e-11
-8.82719375e-11
-8.82719374e-11
-8.82719372e-11
-8.82719372e-11
-8.82719371e-11
-8.82719371e-11
-8.82719371e-11
-8.82719371e-11
-8.82719371e-11
-8.82719371e-11
-8.82719371e-11
-8.82719371e-11
-8.82719371e-11
-8.82719371e-11
-8.82719371e-11
-8.82719371e-11
-8.82719371e-11
-8.82719371e-11
-8.82719371e-11
-8.82719371e-11
-8.82719371e-11
-8.82719371e-11
-8.82719371e-11
-8.82719371e-11
-8.82719371e-11
-8.82719371e-11
-8.82719371e-11
-8.82719371e-11
)
;

boundaryField
{
    closed
    {
        type            calculated;
        value           nonuniform List<scalar> 0();
    }
    open
    {
        type            calculated;
        value           uniform -8.82719371e-11;
    }
    sides
    {
        type            empty;
    }
    procBoundary5to4
    {
        type            processor;
        value           uniform -8.76118118e-11;
    }
}


// ************************************************************************* //
