/*--------------------------------*- C++ -*----------------------------------*\
| =========                 |                                                 |
| \\      /  F ield         | OpenFOAM: The Open Source CFD Toolbox           |
|  \\    /   O peration     | Version:  2306                                  |
|   \\  /    A nd           | Website:  www.openfoam.com                      |
|    \\/     M anipulation  |                                                 |
\*---------------------------------------------------------------------------*/
FoamFile
{
    version     2.0;
    format      ascii;
    arch        "LSB;label=32;scalar=64";
    class       volScalarField;
    location    "0.00038";
    object      H2O;
}
// * * * * * * * * * * * * * * * * * * * * * * * * * * * * * * * * * * * * * //

dimensions      [0 0 0 0 0 0 0];

internalField   nonuniform List<scalar> 
530
(
0.139481405
0.139420628
0.13937436
0.139309576
0.139260458
0.139191913
0.13914015
0.139068075
0.13901388
0.138938493
0.138882088
0.138803599
0.138745206
0.138663802
0.13860311
0.138518325
0.138455982
0.138368565
0.138304763
0.138214858
0.138149802
0.138057545
0.137991438
0.137896964
0.137830011
0.137733451
0.137665853
0.137567334
0.137499918
0.137401238
0.137334179
0.13723376
0.137166668
0.13706463
0.136997699
0.136893919
0.136827108
0.136721859
0.136655531
0.136548884
0.136483217
0.136375249
0.136310406
0.136201208
0.136137326
0.136027011
0.135964189
0.135852913
0.135791188
0.135679172
0.135618497
0.13550605
0.135446271
0.135333815
0.135274593
0.135162483
0.135103347
0.134992286
0.13493266
0.134823538
0.134762566
0.134656667
0.134592917
0.13449241
0.134429771
0.134325479
0.13426638
0.134161388
0.134103648
0.133999649
0.133942185
0.133840224
0.13378269
0.13368348
0.13362553
0.133529251
0.133470775
0.133377553
0.13331856
0.13322842
0.133168997
0.133081893
0.133022176
0.132938025
0.132878171
0.132796872
0.132737042
0.132658491
0.132598843
0.132522938
0.13246362
0.132390267
0.132331415
0.132260527
0.132202263
0.132133763
0.1320762
0.132010015
0.131953254
0.131889321
0.131833454
0.131771712
0.131716823
0.131657263
0.131603855
0.131546812
0.131494463
0.131439397
0.131388155
0.131335006
0.131284911
0.131233621
0.131184709
0.131135221
0.131087521
0.131039782
0.130993318
0.130947277
0.130902069
0.130857676
0.13081374
0.130770948
0.130728293
0.130687058
0.130645691
0.130605968
0.130565894
0.13052764
0.130488859
0.130452034
0.130414543
0.130379107
0.130342903
0.130308817
0.13027389
0.130241119
0.130207457
0.130175968
0.130143622
0.130113144
0.130081676
0.130052352
0.130022137
0.129994019
0.129965034
0.129938091
0.129910318
0.129884518
0.129857936
0.129833248
0.129807837
0.12978423
0.129759968
0.129737413
0.129714279
0.129692746
0.129670717
0.129650178
0.129629233
0.129609661
0.129589776
0.129571147
0.129552298
0.129534591
0.12951675
0.129499947
0.129483873
0.129469101
0.129454302
0.129440361
0.129426454
0.129413313
0.129400261
0.129387886
0.129375655
0.129364012
0.129352569
0.129341627
0.129330937
0.129320665
0.129310694
0.129301064
0.129291779
0.129282762
0.12927413
0.129265699
0.129257687
0.129249817
0.129242392
0.129235057
0.129228189
0.129221365
0.129215024
0.129208685
0.129202842
0.129196966
0.129191593
0.129186156
0.129181226
0.129176206
0.129171693
0.129167069
0.129162948
0.129158699
0.129154945
0.12915105
0.129147641
0.129144081
0.129140994
0.12913775
0.129134965
0.129132018
0.129129513
0.129126846
0.129124603
0.129122199
0.129120198
0.12911804
0.129116265
0.129114338
0.129112771
0.129111059
0.129109685
0.129108174
0.129106977
0.129105653
0.12910462
0.129103469
0.129102586
0.129101596
0.12910085
0.129100008
0.129099387
0.129098683
0.129098176
0.129097598
0.129097195
0.129096732
0.129096422
0.129096066
0.12909584
0.12909558
0.129095432
0.129095256
0.129095178
0.129095076
0.129095062
0.129095033
0.129095065
0.129095126
0.129095194
0.129095326
0.129095389
0.1290956
0.129095682
0.12909595
0.129096058
0.129096366
0.129096504
0.129096839
0.129097008
0.129097362
0.12909756
0.129097928
0.129098152
0.129098528
0.129098776
0.129099157
0.129099425
0.129099809
0.129100093
0.129100477
0.129100774
0.129101157
0.129101464
0.129101843
0.129102158
0.129102532
0.129102852
0.12910322
0.129103542
0.129103904
0.129104226
0.129104581
0.129104901
0.129105247
0.129105564
0.129105902
0.129106214
0.129106542
0.129106849
0.129107167
0.129107467
0.129107775
0.129108067
0.129108364
0.129108648
0.129108935
0.12910921
0.129109486
0.129109751
0.129110016
0.129110272
0.129110527
0.129110772
0.129111016
0.129111252
0.129111485
0.129111711
0.129111933
0.129112149
0.129112361
0.129112566
0.129112768
0.129112964
0.129113156
0.129113342
0.129113524
0.1291137
0.129113873
0.12911404
0.129114203
0.129114362
0.129114516
0.129114666
0.129114811
0.129114953
0.12911509
0.129115223
0.129115352
0.129115478
0.1291156
0.129115718
0.129115832
0.129115943
0.12911605
0.129116154
0.129116255
0.129116352
0.129116447
0.129116538
0.129116626
0.129116712
0.129116794
0.129116874
0.129116951
0.129117026
0.129117098
0.129117168
0.129117235
0.1291173
0.129117363
0.129117423
0.129117482
0.129117538
0.129117592
0.129117645
0.129117696
0.129117744
0.129117792
0.129117837
0.129117881
0.129117923
0.129117964
0.129118003
0.129118041
0.129118077
0.129118113
0.129118146
0.129118179
0.12911821
0.129118241
0.12911827
0.129118299
0.129118325
0.129118352
0.129118377
0.129118401
0.129118393
0.129118366
0.12911834
0.129118316
0.129118294
0.129118273
0.129118254
0.129118235
0.129118218
0.129118203
0.129118188
0.129118174
0.129118161
0.129118149
0.129118138
0.129118128
0.129118118
0.129118109
0.129118101
0.129118093
0.129118086
0.129118079
0.129118073
0.129118067
0.129118062
0.129118057
0.129118052
0.129118048
0.129118044
0.129118041
0.129118037
0.129118034
0.129118031
0.129118028
0.129118026
0.129118024
0.129118021
0.129118019
0.129118018
0.129118016
0.129118014
0.129118013
0.129118012
0.12911801
0.129118009
0.129118008
0.129118007
0.129118006
0.129118005
0.129118005
0.129118004
0.129118003
0.129118003
0.129118002
0.129118002
0.129118001
0.129118001
0.129118
0.129118
0.129118
0.129117999
0.129117999
0.129117999
0.129117999
0.129117998
0.129117998
0.129117998
0.129117998
0.129117998
0.129117998
0.129117997
0.129117997
0.129117997
0.129117997
0.129117997
0.129117997
0.129117997
0.129117997
0.129117997
0.129117997
0.129117997
0.129117997
0.129117996
0.129117996
0.129117996
0.129117996
0.129117996
0.129117996
0.129117996
0.129117996
0.129117996
0.129117996
0.129117996
0.129117996
0.129117996
0.129117996
0.129117996
0.129117996
0.129117996
0.129117996
0.129117996
0.129117996
0.129117996
0.129117996
0.129117996
0.129117996
0.129117996
0.129117996
0.129117996
0.129117996
0.129117996
0.129117996
0.129117996
0.129117996
0.129117996
0.129117996
0.129117996
0.129117996
0.129117996
0.129117996
0.129117996
0.129117996
0.129117996
0.129117996
0.129117996
0.129117996
0.129117996
0.129117996
0.129117996
0.129117996
0.129117996
0.129117996
0.129117996
0.129117996
0.129117996
0.129117996
0.129117996
0.129117996
0.129117996
0.129117996
0.129117996
0.129117996
0.129117996
0.129117996
0.129117996
0.129117996
0.129117996
0.129117996
0.129117996
0.129117996
0.129117996
0.129117996
)
;

boundaryField
{
    closed
    {
        type            calculated;
        value           nonuniform List<scalar> 0();
    }
    open
    {
        type            calculated;
        value           uniform 0.129117996;
    }
    sides
    {
        type            empty;
    }
    procBoundary5to4
    {
        type            processor;
        value           uniform 0.139524641;
    }
}


// ************************************************************************* //
