/*--------------------------------*- C++ -*----------------------------------*\
| =========                 |                                                 |
| \\      /  F ield         | OpenFOAM: The Open Source CFD Toolbox           |
|  \\    /   O peration     | Version:  2306                                  |
|   \\  /    A nd           | Website:  www.openfoam.com                      |
|    \\/     M anipulation  |                                                 |
\*---------------------------------------------------------------------------*/
FoamFile
{
    version     2.0;
    format      ascii;
    arch        "LSB;label=32;scalar=64";
    class       volScalarField;
    location    "0.00038";
    object      prefDPV_H2;
}
// * * * * * * * * * * * * * * * * * * * * * * * * * * * * * * * * * * * * * //

dimensions      [1 -1 -1 0 0 0 0];

internalField   nonuniform List<scalar> 
530
(
-9.49565914e-05
-9.49724605e-05
-9.49894745e-05
-9.50036044e-05
-9.5018854e-05
-9.50313198e-05
-9.50449455e-05
-9.50558281e-05
-9.50679644e-05
-9.50773506e-05
-9.50881272e-05
-9.50961137e-05
-9.51056529e-05
-9.51122498e-05
-9.51185555e-05
-9.51215354e-05
-9.51266917e-05
-9.51284641e-05
-9.51325363e-05
-9.5133162e-05
-9.51362332e-05
-9.51357695e-05
-9.51379252e-05
-9.51364303e-05
-9.51377553e-05
-9.51352886e-05
-9.51358668e-05
-9.51324884e-05
-9.51325479e-05
-9.51286838e-05
-9.51282604e-05
-9.51235476e-05
-9.51225945e-05
-9.51170944e-05
-9.51155431e-05
-9.51074558e-05
-9.5104066e-05
-9.50952244e-05
-9.50914306e-05
-9.50818549e-05
-9.50777246e-05
-9.50674427e-05
-9.5063036e-05
-9.50520805e-05
-9.50474533e-05
-9.503586e-05
-9.50310626e-05
-9.5018873e-05
-9.5013946e-05
-9.50012127e-05
-9.49961803e-05
-9.49829748e-05
-9.49778368e-05
-9.49642582e-05
-9.49589136e-05
-9.4944883e-05
-9.49392337e-05
-9.49249682e-05
-9.49189169e-05
-9.49046364e-05
-9.48980175e-05
-9.48840322e-05
-9.48765422e-05
-9.48622303e-05
-9.485363e-05
-9.48378727e-05
-9.48295947e-05
-9.48134179e-05
-9.48049436e-05
-9.47887451e-05
-9.47798537e-05
-9.47636811e-05
-9.47541497e-05
-9.47382721e-05
-9.47283317e-05
-9.47129703e-05
-9.47026308e-05
-9.46877873e-05
-9.46770845e-05
-9.46627399e-05
-9.46517232e-05
-9.46378491e-05
-9.46265732e-05
-9.46131387e-05
-9.46016577e-05
-9.45886337e-05
-9.45769985e-05
-9.45643597e-05
-9.4552617e-05
-9.45403423e-05
-9.45285347e-05
-9.45166069e-05
-9.45047733e-05
-9.44931789e-05
-9.44813552e-05
-9.44700837e-05
-9.44583038e-05
-9.44473471e-05
-9.44356429e-05
-9.44249956e-05
-9.44133976e-05
-9.44030568e-05
-9.4391594e-05
-9.43815158e-05
-9.43697541e-05
-9.43594335e-05
-9.43477686e-05
-9.43376872e-05
-9.43261327e-05
-9.43162765e-05
-9.43048461e-05
-9.42952024e-05
-9.42839085e-05
-9.42744664e-05
-9.42633203e-05
-9.42540708e-05
-9.42430825e-05
-9.4234018e-05
-9.42231965e-05
-9.42143105e-05
-9.42036644e-05
-9.41949515e-05
-9.41844886e-05
-9.41759444e-05
-9.41656723e-05
-9.41572932e-05
-9.4147219e-05
-9.41390021e-05
-9.41291327e-05
-9.41210759e-05
-9.41114179e-05
-9.41035201e-05
-9.40940795e-05
-9.40863403e-05
-9.40771224e-05
-9.40695427e-05
-9.40605515e-05
-9.40531338e-05
-9.40444515e-05
-9.40368752e-05
-9.40279469e-05
-9.4020453e-05
-9.40117869e-05
-9.40044785e-05
-9.39960772e-05
-9.39889583e-05
-9.39808256e-05
-9.39738994e-05
-9.3966039e-05
-9.39593085e-05
-9.39517242e-05
-9.39451924e-05
-9.3937888e-05
-9.39315579e-05
-9.39245371e-05
-9.39184115e-05
-9.39116782e-05
-9.39057597e-05
-9.38993175e-05
-9.38936091e-05
-9.38874612e-05
-9.38819675e-05
-9.38761149e-05
-9.38708438e-05
-9.38652846e-05
-9.38602469e-05
-9.38552654e-05
-9.38508769e-05
-9.38463022e-05
-9.38421315e-05
-9.38378245e-05
-9.38338711e-05
-9.38298227e-05
-9.38260817e-05
-9.38222855e-05
-9.38187512e-05
-9.38152009e-05
-9.3811868e-05
-9.38085565e-05
-9.38054204e-05
-9.38023397e-05
-9.37993962e-05
-9.37965376e-05
-9.37937826e-05
-9.37911372e-05
-9.37885665e-05
-9.37861253e-05
-9.37837343e-05
-9.37814884e-05
-9.37792726e-05
-9.3777213e-05
-9.37751673e-05
-9.37732853e-05
-9.37714045e-05
-9.37696914e-05
-9.37679701e-05
-9.37664174e-05
-9.37648499e-05
-9.37634492e-05
-9.37620299e-05
-9.37607728e-05
-9.37594957e-05
-9.37583742e-05
-9.37572333e-05
-9.37562393e-05
-9.37552285e-05
-9.37543544e-05
-9.37534675e-05
-9.37527056e-05
-9.37519365e-05
-9.37512794e-05
-9.37506219e-05
-9.37500624e-05
-9.37495102e-05
-9.37490414e-05
-9.37485885e-05
-9.37482036e-05
-9.37478438e-05
-9.37475364e-05
-9.37472636e-05
-9.37470275e-05
-9.37468359e-05
-9.37466651e-05
-9.37465488e-05
-9.37464375e-05
-9.3746391e-05
-9.37463337e-05
-9.37463514e-05
-9.37463428e-05
-9.37464195e-05
-9.37464547e-05
-9.37465851e-05
-9.37466594e-05
-9.37468387e-05
-9.37469475e-05
-9.3747171e-05
-9.374731e-05
-9.37475735e-05
-9.37477384e-05
-9.37480378e-05
-9.3748225e-05
-9.37485561e-05
-9.37487628e-05
-9.37491198e-05
-9.37493447e-05
-9.37497211e-05
-9.37499617e-05
-9.37503573e-05
-9.37506052e-05
-9.3751034e-05
-9.37512813e-05
-9.37517249e-05
-9.3751965e-05
-9.37524237e-05
-9.37526706e-05
-9.3753133e-05
-9.37533903e-05
-9.37538487e-05
-9.37541176e-05
-9.37545676e-05
-9.37548475e-05
-9.37552866e-05
-9.3755576e-05
-9.37560029e-05
-9.37562999e-05
-9.3756714e-05
-9.37570162e-05
-9.37574172e-05
-9.37577225e-05
-9.37581103e-05
-9.37584166e-05
-9.37587912e-05
-9.37590967e-05
-9.37594581e-05
-9.37597611e-05
-9.37601095e-05
-9.37604085e-05
-9.3760744e-05
-9.37610378e-05
-9.37613605e-05
-9.3761648e-05
-9.37619582e-05
-9.37622385e-05
-9.37625362e-05
-9.37628086e-05
-9.37630941e-05
-9.3763358e-05
-9.37636315e-05
-9.37638865e-05
-9.37641481e-05
-9.37643938e-05
-9.37646439e-05
-9.37648801e-05
-9.37651187e-05
-9.37653453e-05
-9.37655728e-05
-9.37657898e-05
-9.37660064e-05
-9.37662137e-05
-9.37664197e-05
-9.37666174e-05
-9.37668131e-05
-9.37670012e-05
-9.37671869e-05
-9.37673658e-05
-9.37675418e-05
-9.37677115e-05
-9.37678781e-05
-9.3768039e-05
-9.37681965e-05
-9.37683487e-05
-9.37684974e-05
-9.37686413e-05
-9.37687816e-05
-9.37689174e-05
-9.37690496e-05
-9.37691776e-05
-9.37693021e-05
-9.37694226e-05
-9.37695397e-05
-9.3769653e-05
-9.3769763e-05
-9.37698695e-05
-9.37699727e-05
-9.37700726e-05
-9.37701694e-05
-9.3770263e-05
-9.37703537e-05
-9.37704414e-05
-9.37705262e-05
-9.37706083e-05
-9.37706876e-05
-9.37707644e-05
-9.37708385e-05
-9.37709101e-05
-9.37709793e-05
-9.37710462e-05
-9.37711107e-05
-9.3771173e-05
-9.37712332e-05
-9.37712913e-05
-9.37713473e-05
-9.37714014e-05
-9.37714535e-05
-9.37715038e-05
-9.37715523e-05
-9.37715991e-05
-9.37716441e-05
-9.37716876e-05
-9.37717294e-05
-9.37717698e-05
-9.37718086e-05
-9.37718461e-05
-9.37718822e-05
-9.37719169e-05
-9.37719503e-05
-9.37719826e-05
-9.37720136e-05
-9.37720435e-05
-9.37720722e-05
-9.37720999e-05
-9.37721265e-05
-9.37721521e-05
-9.37721768e-05
-9.37722005e-05
-9.37722233e-05
-9.37722454e-05
-9.37722665e-05
-9.37722869e-05
-9.37723065e-05
-9.37723253e-05
-9.37723435e-05
-9.37723608e-05
-9.37723779e-05
-9.37723938e-05
-9.37724096e-05
-9.37724244e-05
-9.37724386e-05
-9.37724326e-05
-9.37724143e-05
-9.37723977e-05
-9.37723821e-05
-9.3772368e-05
-9.3772355e-05
-9.3772343e-05
-9.37723321e-05
-9.3772322e-05
-9.37723128e-05
-9.37723043e-05
-9.37722965e-05
-9.37722894e-05
-9.37722829e-05
-9.37722769e-05
-9.37722714e-05
-9.37722664e-05
-9.37722619e-05
-9.37722577e-05
-9.37722539e-05
-9.37722504e-05
-9.37722472e-05
-9.37722443e-05
-9.37722416e-05
-9.37722392e-05
-9.3772237e-05
-9.3772235e-05
-9.37722332e-05
-9.37722315e-05
-9.377223e-05
-9.37722286e-05
-9.37722274e-05
-9.37722262e-05
-9.37722252e-05
-9.37722242e-05
-9.37722234e-05
-9.37722226e-05
-9.37722219e-05
-9.37722212e-05
-9.37722207e-05
-9.37722201e-05
-9.37722197e-05
-9.37722192e-05
-9.37722188e-05
-9.37722185e-05
-9.37722182e-05
-9.37722179e-05
-9.37722176e-05
-9.37722174e-05
-9.37722172e-05
-9.3772217e-05
-9.37722168e-05
-9.37722166e-05
-9.37722165e-05
-9.37722164e-05
-9.37722163e-05
-9.37722161e-05
-9.37722161e-05
-9.3772216e-05
-9.37722159e-05
-9.37722158e-05
-9.37722158e-05
-9.37722157e-05
-9.37722157e-05
-9.37722156e-05
-9.37722156e-05
-9.37722155e-05
-9.37722155e-05
-9.37722155e-05
-9.37722155e-05
-9.37722154e-05
-9.37722154e-05
-9.37722154e-05
-9.37722154e-05
-9.37722154e-05
-9.37722153e-05
-9.37722153e-05
-9.37722153e-05
-9.37722153e-05
-9.37722153e-05
-9.37722153e-05
-9.37722153e-05
-9.37722153e-05
-9.37722153e-05
-9.37722153e-05
-9.37722153e-05
-9.37722152e-05
-9.37722152e-05
-9.37722152e-05
-9.37722152e-05
-9.37722152e-05
-9.37722152e-05
-9.37722152e-05
-9.37722152e-05
-9.37722152e-05
-9.37722152e-05
-9.37722152e-05
-9.37722152e-05
-9.37722152e-05
-9.37722152e-05
-9.37722152e-05
-9.37722152e-05
-9.37722152e-05
-9.37722152e-05
-9.37722152e-05
-9.37722152e-05
-9.37722152e-05
-9.37722152e-05
-9.37722152e-05
-9.37722152e-05
-9.37722152e-05
-9.37722152e-05
-9.37722152e-05
-9.37722152e-05
-9.37722152e-05
-9.37722152e-05
-9.37722152e-05
-9.37722152e-05
-9.37722152e-05
-9.37722152e-05
-9.37722152e-05
-9.37722152e-05
-9.37722152e-05
-9.37722152e-05
-9.37722152e-05
-9.37722152e-05
-9.37722152e-05
-9.37722152e-05
-9.37722152e-05
-9.37722152e-05
-9.37722152e-05
-9.37722152e-05
-9.37722152e-05
-9.37722152e-05
-9.37722152e-05
-9.37722152e-05
-9.37722152e-05
-9.37722152e-05
-9.37722152e-05
-9.37722152e-05
-9.37722152e-05
-9.37722152e-05
-9.37722152e-05
-9.37722152e-05
-9.37722152e-05
-9.37722152e-05
-9.37722152e-05
-9.37722152e-05
-9.37722152e-05
-9.37722152e-05
-9.37722152e-05
-9.37722152e-05
)
;

boundaryField
{
    closed
    {
        type            calculated;
        value           nonuniform List<scalar> 0();
    }
    open
    {
        type            calculated;
        value           uniform -9.37722152e-05;
    }
    sides
    {
        type            empty;
    }
    procBoundary5to4
    {
        type            processor;
        value           uniform -9.49376687e-05;
    }
}


// ************************************************************************* //
