/*--------------------------------*- C++ -*----------------------------------*\
| =========                 |                                                 |
| \\      /  F ield         | OpenFOAM: The Open Source CFD Toolbox           |
|  \\    /   O peration     | Version:  2306                                  |
|   \\  /    A nd           | Website:  www.openfoam.com                      |
|    \\/     M anipulation  |                                                 |
\*---------------------------------------------------------------------------*/
FoamFile
{
    version     2.0;
    format      ascii;
    arch        "LSB;label=32;scalar=64";
    class       volScalarField;
    location    "0.00038";
    object      prefDPV_T;
}
// * * * * * * * * * * * * * * * * * * * * * * * * * * * * * * * * * * * * * //

dimensions      [1 -1 -1 -1 0 0 0];

internalField   nonuniform List<scalar> 
530
(
-3.83729461e-11
-3.8467417e-11
-3.85524485e-11
-3.86428748e-11
-3.87238748e-11
-3.8810425e-11
-3.88875862e-11
-3.89704154e-11
-3.90439302e-11
-3.91231831e-11
-3.9193241e-11
-3.92690541e-11
-3.93358409e-11
-3.94083968e-11
-3.94730764e-11
-3.95435878e-11
-3.96053523e-11
-3.96728473e-11
-3.9731831e-11
-3.9796417e-11
-3.98527403e-11
-3.99145317e-11
-3.99683019e-11
-4.00274187e-11
-4.00787318e-11
-4.01352983e-11
-4.01842409e-11
-4.02383845e-11
-4.02852854e-11
-4.0337769e-11
-4.03827436e-11
-4.04329858e-11
-4.04758725e-11
-4.05240125e-11
-4.05649791e-11
-4.06120717e-11
-4.06518532e-11
-4.06971113e-11
-4.07351128e-11
-4.07786246e-11
-4.08149204e-11
-4.08567637e-11
-4.08914354e-11
-4.09316771e-11
-4.09648124e-11
-4.100351e-11
-4.10352009e-11
-4.10724056e-11
-4.11027446e-11
-4.11385054e-11
-4.1167581e-11
-4.12019501e-11
-4.1229842e-11
-4.12628789e-11
-4.12896641e-11
-4.13213208e-11
-4.13469159e-11
-4.13771e-11
-4.14015693e-11
-4.1430333e-11
-4.14537489e-11
-4.14811462e-11
-4.15035586e-11
-4.15302539e-11
-4.15521448e-11
-4.1577957e-11
-4.15986501e-11
-4.1623612e-11
-4.16431325e-11
-4.16672681e-11
-4.16856982e-11
-4.17087156e-11
-4.17258609e-11
-4.17480764e-11
-4.17644926e-11
-4.17862443e-11
-4.18020071e-11
-4.18232758e-11
-4.18384627e-11
-4.18592277e-11
-4.18739145e-11
-4.18941575e-11
-4.19084147e-11
-4.19281236e-11
-4.19420134e-11
-4.19611841e-11
-4.19747596e-11
-4.19933963e-11
-4.20067017e-11
-4.20248162e-11
-4.2037888e-11
-4.2055498e-11
-4.20683666e-11
-4.20854942e-11
-4.20981854e-11
-4.21148558e-11
-4.21273922e-11
-4.21436325e-11
-4.21560343e-11
-4.21718724e-11
-4.21841586e-11
-4.21996227e-11
-4.22118115e-11
-4.22269873e-11
-4.22396834e-11
-4.22552065e-11
-4.22678741e-11
-4.22831159e-11
-4.22957541e-11
-4.2310725e-11
-4.23233316e-11
-4.23380423e-11
-4.23506146e-11
-4.23650757e-11
-4.23776106e-11
-4.23918327e-11
-4.24043267e-11
-4.24183201e-11
-4.24307698e-11
-4.24445441e-11
-4.24569461e-11
-4.2470511e-11
-4.2482862e-11
-4.24962262e-11
-4.25085232e-11
-4.25216953e-11
-4.25339355e-11
-4.25469235e-11
-4.25591043e-11
-4.25719162e-11
-4.25840349e-11
-4.25966786e-11
-4.26087319e-11
-4.26212162e-11
-4.26331985e-11
-4.26455347e-11
-4.26574346e-11
-4.26696396e-11
-4.2681608e-11
-4.26932663e-11
-4.27044426e-11
-4.27158267e-11
-4.2726947e-11
-4.2738238e-11
-4.27492897e-11
-4.27605022e-11
-4.27714791e-11
-4.27826224e-11
-4.27935207e-11
-4.28046016e-11
-4.28154185e-11
-4.28264434e-11
-4.28371763e-11
-4.28481511e-11
-4.28587982e-11
-4.2869728e-11
-4.28802889e-11
-4.28911768e-11
-4.29016535e-11
-4.29124996e-11
-4.29228978e-11
-4.29336988e-11
-4.29440276e-11
-4.29547778e-11
-4.29650495e-11
-4.29757434e-11
-4.2985879e-11
-4.29964602e-11
-4.30064726e-11
-4.30170797e-11
-4.30270092e-11
-4.30376146e-11
-4.30474596e-11
-4.30580419e-11
-4.30677963e-11
-4.30783399e-11
-4.30879936e-11
-4.3098487e-11
-4.31080276e-11
-4.31184613e-11
-4.31278757e-11
-4.31382408e-11
-4.31475166e-11
-4.31578046e-11
-4.31669302e-11
-4.31771323e-11
-4.31860975e-11
-4.31962049e-11
-4.32050005e-11
-4.32150047e-11
-4.32236227e-11
-4.3233515e-11
-4.32419484e-11
-4.32517206e-11
-4.32599631e-11
-4.32696072e-11
-4.32776537e-11
-4.32871621e-11
-4.32950078e-11
-4.33043734e-11
-4.33120145e-11
-4.33212306e-11
-4.33286639e-11
-4.33377242e-11
-4.33449471e-11
-4.3353846e-11
-4.33608565e-11
-4.33695888e-11
-4.33763854e-11
-4.33849465e-11
-4.33915283e-11
-4.33999139e-11
-4.34062805e-11
-4.34144871e-11
-4.34206385e-11
-4.34286629e-11
-4.34345998e-11
-4.34424393e-11
-4.34481626e-11
-4.34558152e-11
-4.34613261e-11
-4.34687901e-11
-4.34740905e-11
-4.34813647e-11
-4.34864565e-11
-4.34935404e-11
-4.3498426e-11
-4.35053193e-11
-4.35100011e-11
-4.35167042e-11
-4.35211851e-11
-4.35276987e-11
-4.35319815e-11
-4.3538307e-11
-4.35423947e-11
-4.35485341e-11
-4.35524292e-11
-4.35583855e-11
-4.35620904e-11
-4.35678677e-11
-4.35713846e-11
-4.35769872e-11
-4.35803196e-11
-4.35857493e-11
-4.35889045e-11
-4.35941556e-11
-4.35971464e-11
-4.36022045e-11
-4.36050426e-11
-4.36099128e-11
-4.36125842e-11
-4.36171947e-11
-4.36199229e-11
-4.36241989e-11
-4.36269289e-11
-4.36309119e-11
-4.36336131e-11
-4.36373327e-11
-4.36399863e-11
-4.3643467e-11
-4.36460597e-11
-4.36493225e-11
-4.36518443e-11
-4.36549071e-11
-4.36573503e-11
-4.36602285e-11
-4.36625876e-11
-4.36652947e-11
-4.36675658e-11
-4.36701136e-11
-4.36722945e-11
-4.36746933e-11
-4.36767828e-11
-4.36790421e-11
-4.36810399e-11
-4.36831682e-11
-4.36850747e-11
-4.36870797e-11
-4.3688896e-11
-4.36907847e-11
-4.36925124e-11
-4.36942913e-11
-4.36959324e-11
-4.36976076e-11
-4.36991641e-11
-4.37007412e-11
-4.37022158e-11
-4.37037e-11
-4.37050952e-11
-4.37064915e-11
-4.370781e-11
-4.37091231e-11
-4.37103678e-11
-4.3711602e-11
-4.37127758e-11
-4.37139353e-11
-4.37150411e-11
-4.37161298e-11
-4.37171706e-11
-4.37181923e-11
-4.37191709e-11
-4.37201292e-11
-4.37210485e-11
-4.37219467e-11
-4.37228096e-11
-4.37236511e-11
-4.37244603e-11
-4.3725248e-11
-4.37260062e-11
-4.37267432e-11
-4.37274531e-11
-4.37281422e-11
-4.37288062e-11
-4.37294501e-11
-4.37300708e-11
-4.3730672e-11
-4.37312518e-11
-4.37318128e-11
-4.37323539e-11
-4.3732877e-11
-4.37333817e-11
-4.37338692e-11
-4.37343395e-11
-4.37347935e-11
-4.37352315e-11
-4.3735654e-11
-4.37360615e-11
-4.37364545e-11
-4.37368335e-11
-4.37371988e-11
-4.3737551e-11
-4.37378902e-11
-4.37382173e-11
-4.37385322e-11
-4.37388358e-11
-4.37391279e-11
-4.37394095e-11
-4.37396803e-11
-4.37399412e-11
-4.37401922e-11
-4.37404339e-11
-4.37406662e-11
-4.374089e-11
-4.3741105e-11
-4.3741312e-11
-4.37415109e-11
-4.37417023e-11
-4.37418861e-11
-4.3742063e-11
-4.37422328e-11
-4.37423962e-11
-4.3742553e-11
-4.37427039e-11
-4.37428486e-11
-4.37429878e-11
-4.37431212e-11
-4.37432496e-11
-4.37433727e-11
-4.3743491e-11
-4.37436044e-11
-4.37437135e-11
-4.37438179e-11
-4.37439184e-11
-4.37440146e-11
-4.37441072e-11
-4.37441957e-11
-4.37442809e-11
-4.37443624e-11
-4.37444407e-11
-4.37445159e-11
-4.37445877e-11
-4.37446572e-11
-4.37447228e-11
-4.37447873e-11
-4.37448472e-11
-4.37449065e-11
-4.37449618e-11
-4.37450149e-11
-4.3745034e-11
-4.37450294e-11
-4.3745025e-11
-4.37450209e-11
-4.3745017e-11
-4.37450134e-11
-4.374501e-11
-4.37450068e-11
-4.37450037e-11
-4.37450009e-11
-4.37449983e-11
-4.37449958e-11
-4.37449934e-11
-4.37449913e-11
-4.37449892e-11
-4.37449873e-11
-4.37449855e-11
-4.37449839e-11
-4.37449823e-11
-4.37449808e-11
-4.37449794e-11
-4.37449782e-11
-4.3744977e-11
-4.37449759e-11
-4.37449748e-11
-4.37449739e-11
-4.37449729e-11
-4.37449721e-11
-4.37449713e-11
-4.37449706e-11
-4.37449699e-11
-4.37449693e-11
-4.37449687e-11
-4.37449682e-11
-4.37449676e-11
-4.37449672e-11
-4.37449667e-11
-4.37449663e-11
-4.37449659e-11
-4.37449656e-11
-4.37449653e-11
-4.3744965e-11
-4.37449647e-11
-4.37449644e-11
-4.37449642e-11
-4.3744964e-11
-4.37449638e-11
-4.37449636e-11
-4.37449634e-11
-4.37449632e-11
-4.37449631e-11
-4.3744963e-11
-4.37449628e-11
-4.37449627e-11
-4.37449626e-11
-4.37449625e-11
-4.37449624e-11
-4.37449623e-11
-4.37449622e-11
-4.37449622e-11
-4.37449621e-11
-4.3744962e-11
-4.3744962e-11
-4.37449619e-11
-4.37449619e-11
-4.37449618e-11
-4.37449618e-11
-4.37449618e-11
-4.37449617e-11
-4.37449617e-11
-4.37449617e-11
-4.37449616e-11
-4.37449616e-11
-4.37449616e-11
-4.37449616e-11
-4.37449616e-11
-4.37449615e-11
-4.37449615e-11
-4.37449615e-11
-4.37449615e-11
-4.37449615e-11
-4.37449614e-11
-4.37449614e-11
-4.37449614e-11
-4.37449614e-11
-4.37449614e-11
-4.37449614e-11
-4.37449614e-11
-4.37449614e-11
-4.37449614e-11
-4.37449614e-11
-4.37449614e-11
-4.37449614e-11
-4.37449614e-11
-4.37449614e-11
-4.37449614e-11
-4.37449614e-11
-4.37449614e-11
-4.37449614e-11
-4.37449614e-11
-4.37449614e-11
-4.37449614e-11
-4.37449614e-11
-4.37449614e-11
-4.37449614e-11
-4.37449614e-11
-4.37449614e-11
-4.37449614e-11
-4.37449614e-11
-4.37449614e-11
-4.37449614e-11
-4.37449614e-11
-4.37449614e-11
-4.37449614e-11
-4.37449614e-11
-4.37449614e-11
-4.37449614e-11
-4.37449614e-11
-4.37449614e-11
-4.37449614e-11
-4.37449614e-11
-4.37449614e-11
-4.37449614e-11
-4.37449614e-11
-4.37449614e-11
-4.37449614e-11
-4.37449614e-11
-4.37449614e-11
-4.37449614e-11
-4.37449614e-11
-4.37449614e-11
-4.37449614e-11
-4.37449614e-11
-4.37449614e-11
-4.37449614e-11
-4.37449614e-11
-4.37449614e-11
-4.37449614e-11
-4.37449614e-11
-4.37449614e-11
-4.37449614e-11
-4.37449614e-11
-4.37449614e-11
-4.37449614e-11
-4.37449614e-11
-4.37449614e-11
-4.37449614e-11
-4.37449614e-11
-4.37449614e-11
-4.37449614e-11
-4.37449614e-11
-4.37449614e-11
)
;

boundaryField
{
    closed
    {
        type            calculated;
        value           nonuniform List<scalar> 0();
    }
    open
    {
        type            calculated;
        value           uniform -4.37449614e-11;
    }
    sides
    {
        type            empty;
    }
    procBoundary5to4
    {
        type            processor;
        value           uniform -3.82836947e-11;
    }
}


// ************************************************************************* //
