/*--------------------------------*- C++ -*----------------------------------*\
| =========                 |                                                 |
| \\      /  F ield         | OpenFOAM: The Open Source CFD Toolbox           |
|  \\    /   O peration     | Version:  2306                                  |
|   \\  /    A nd           | Website:  www.openfoam.com                      |
|    \\/     M anipulation  |                                                 |
\*---------------------------------------------------------------------------*/
FoamFile
{
    version     2.0;
    format      ascii;
    arch        "LSB;label=32;scalar=64";
    class       volScalarField;
    location    "0.00038";
    object      T;
}
// * * * * * * * * * * * * * * * * * * * * * * * * * * * * * * * * * * * * * //

dimensions      [0 0 0 1 0 0 0];

internalField   nonuniform List<scalar> 
530
(
1710.46096
1710.57658
1710.77176
1710.83957
1710.98847
1711.01066
1711.11719
1711.09611
1711.16403
1711.10221
1711.13515
1711.0354
1711.03681
1710.89982
1710.81911
1710.58734
1710.4768
1710.21177
1710.07332
1709.77679
1709.6129
1709.2865
1709.09977
1708.74512
1708.53811
1708.15688
1707.93216
1707.52599
1707.29377
1706.88455
1706.64614
1706.2144
1705.96534
1705.51272
1705.25191
1704.73416
1704.43054
1703.8924
1703.58178
1703.02379
1702.70827
1702.13119
1701.8126
1701.21739
1700.89738
1700.28516
1699.96515
1699.33726
1699.01828
1698.37652
1698.05898
1697.40583
1697.0893
1696.42819
1696.11014
1695.44178
1695.11798
1694.448
1694.11444
1693.45055
1693.10092
1692.45404
1692.07717
1691.4383
1691.03882
1690.35592
1689.97452
1689.28066
1688.89894
1688.20827
1687.81799
1687.13693
1686.73456
1686.07068
1685.65762
1685.01398
1684.59014
1683.96707
1683.53328
1682.93035
1682.48797
1681.90435
1681.45498
1680.8897
1680.43498
1679.88708
1679.4286
1678.89718
1678.43642
1677.92069
1677.45902
1676.95832
1676.49699
1676.01075
1675.55093
1675.07867
1674.62143
1674.16276
1673.70914
1673.26373
1672.81471
1672.38233
1671.93881
1671.5179
1671.06599
1670.6405
1670.19327
1669.7787
1669.33664
1668.93248
1668.49607
1668.10185
1667.67152
1667.28684
1666.86298
1666.48746
1666.07041
1665.70375
1665.29382
1664.93574
1664.5332
1664.18345
1663.78857
1663.44692
1663.05993
1662.72619
1662.34731
1662.02132
1661.65074
1661.33234
1660.97027
1660.65934
1660.30593
1660.00238
1659.65778
1659.36154
1659.02586
1658.7369
1658.41216
1658.12429
1657.79901
1657.51658
1657.20093
1656.92601
1656.62006
1656.35268
1656.0565
1655.79667
1655.51033
1655.25806
1654.98164
1654.73694
1654.47049
1654.23338
1653.97698
1653.74746
1653.50116
1653.27925
1653.04312
1652.82885
1652.6029
1652.39635
1652.18057
1651.98193
1651.77616
1651.58571
1651.39003
1651.20763
1651.02186
1650.847
1650.67058
1650.50326
1650.33588
1650.17597
1650.0174
1649.86472
1649.71476
1649.56914
1649.42756
1649.28884
1649.15539
1649.02343
1648.89785
1648.7725
1648.65452
1648.53565
1648.42498
1648.31244
1648.2088
1648.10243
1648.00556
1647.9052
1647.8148
1647.7203
1647.6361
1647.54727
1647.46901
1647.38568
1647.31308
1647.23508
1647.16787
1647.09501
1647.03294
1646.96502
1646.90783
1646.84468
1646.7921
1646.73353
1646.68533
1646.63113
1646.58707
1646.53706
1646.49689
1646.45087
1646.41438
1646.37216
1646.33911
1646.30051
1646.27069
1646.23551
1646.20872
1646.17676
1646.1528
1646.1239
1646.10256
1646.07653
1646.05764
1646.0343
1646.01768
1645.99686
1645.98234
1645.96388
1645.95129
1645.93502
1645.92421
1645.90999
1645.90081
1645.88848
1645.88079
1645.87021
1645.86388
1645.8549
1645.84984
1645.84227
1645.8384
1645.83207
1645.82927
1645.82421
1645.82218
1645.81879
1645.81734
1645.81531
1645.81347
1645.81306
1645.81143
1645.81215
1645.81095
1645.81246
1645.81179
1645.81387
1645.81375
1645.81625
1645.81667
1645.8195
1645.82042
1645.82349
1645.82486
1645.82812
1645.82989
1645.83329
1645.83541
1645.83891
1645.84131
1645.84489
1645.84753
1645.85115
1645.85399
1645.85763
1645.86062
1645.86427
1645.86736
1645.871
1645.87417
1645.87777
1645.88099
1645.88455
1645.88778
1645.89129
1645.89452
1645.89795
1645.90116
1645.90452
1645.90768
1645.91096
1645.91406
1645.91725
1645.92028
1645.92337
1645.92633
1645.92931
1645.93218
1645.93507
1645.93784
1645.94062
1645.9433
1645.94596
1645.94854
1645.9511
1645.95357
1645.95601
1645.95839
1645.96072
1645.96298
1645.96521
1645.96737
1645.96949
1645.97154
1645.97355
1645.97551
1645.97742
1645.97927
1645.98108
1645.98283
1645.98454
1645.9862
1645.98782
1645.98938
1645.99091
1645.99239
1645.99382
1645.99521
1645.99656
1645.99787
1645.99914
1646.00037
1646.00156
1646.00272
1646.00384
1646.00492
1646.00597
1646.00698
1646.00796
1646.00891
1646.00983
1646.01072
1646.01157
1646.0124
1646.0132
1646.01398
1646.01473
1646.01545
1646.01615
1646.01682
1646.01747
1646.0181
1646.0187
1646.01929
1646.01985
1646.02039
1646.02092
1646.02143
1646.02191
1646.02239
1646.02284
1646.02328
1646.0237
1646.02411
1646.0245
1646.02488
1646.02525
1646.0256
1646.02594
1646.02627
1646.02659
1646.02689
1646.02719
1646.02747
1646.02774
1646.0275
1646.02697
1646.02647
1646.02601
1646.0256
1646.02521
1646.02486
1646.02453
1646.02423
1646.02396
1646.02371
1646.02347
1646.02326
1646.02307
1646.02289
1646.02272
1646.02257
1646.02244
1646.02231
1646.0222
1646.02209
1646.02199
1646.02191
1646.02183
1646.02175
1646.02168
1646.02162
1646.02157
1646.02152
1646.02147
1646.02143
1646.02139
1646.02135
1646.02132
1646.02129
1646.02126
1646.02124
1646.02122
1646.0212
1646.02118
1646.02116
1646.02115
1646.02113
1646.02112
1646.02111
1646.0211
1646.02109
1646.02108
1646.02108
1646.02107
1646.02106
1646.02106
1646.02105
1646.02105
1646.02104
1646.02104
1646.02104
1646.02103
1646.02103
1646.02103
1646.02103
1646.02102
1646.02102
1646.02102
1646.02102
1646.02102
1646.02102
1646.02101
1646.02101
1646.02101
1646.02101
1646.02101
1646.02101
1646.02101
1646.02101
1646.02101
1646.02101
1646.02101
1646.02101
1646.02101
1646.02101
1646.02101
1646.02101
1646.02101
1646.02101
1646.02101
1646.02101
1646.02101
1646.021
1646.021
1646.021
1646.021
1646.021
1646.021
1646.021
1646.021
1646.021
1646.021
1646.021
1646.021
1646.021
1646.021
1646.021
1646.021
1646.021
1646.021
1646.021
1646.021
1646.021
1646.021
1646.021
1646.021
1646.021
1646.021
1646.021
1646.021
1646.021
1646.021
1646.021
1646.021
1646.021
1646.021
1646.021
1646.021
1646.021
1646.021
1646.021
1646.021
1646.021
1646.021
1646.021
1646.021
1646.021
1646.021
1646.021
1646.021
1646.021
1646.021
1646.021
1646.021
1646.021
1646.021
1646.021
1646.021
1646.021
1646.021
1646.021
1646.021
1646.021
1646.021
1646.021
1646.021
)
;

boundaryField
{
    closed
    {
        type            fixedValue;
        value           nonuniform List<scalar> 0();
    }
    open
    {
        type            zeroGradient;
    }
    sides
    {
        type            empty;
    }
    procBoundary5to4
    {
        type            processor;
        value           uniform 1710.21551;
    }
}


// ************************************************************************* //
