/*--------------------------------*- C++ -*----------------------------------*\
| =========                 |                                                 |
| \\      /  F ield         | OpenFOAM: The Open Source CFD Toolbox           |
|  \\    /   O peration     | Version:  2306                                  |
|   \\  /    A nd           | Website:  www.openfoam.com                      |
|    \\/     M anipulation  |                                                 |
\*---------------------------------------------------------------------------*/
FoamFile
{
    version     2.0;
    format      ascii;
    arch        "LSB;label=32;scalar=64";
    class       volScalarField;
    location    "0.00088";
    object      prefDZ_H2O;
}
// * * * * * * * * * * * * * * * * * * * * * * * * * * * * * * * * * * * * * //

dimensions      [1 -1 -1 0 0 0 0];

internalField   nonuniform List<scalar> 
531
(
-7.76116281e-07
-7.38954838e-07
-7.32186927e-07
-7.35522452e-07
-7.75688481e-07
-7.74476881e-07
-7.36692068e-07
-7.3585923e-07
-7.74820399e-07
-7.74411264e-07
-7.36981342e-07
-7.37078205e-07
-7.74033484e-07
-7.75089926e-07
-7.3812052e-07
-7.33066212e-07
-7.37273733e-07
-7.74663441e-07
-7.74782723e-07
-7.38098672e-07
-7.38831476e-07
-7.73762418e-07
-7.75249665e-07
-7.38410176e-07
-7.33695939e-07
-7.38279358e-07
-7.74528163e-07
-7.75426608e-07
-7.38705125e-07
-7.40360212e-07
-7.73689186e-07
-7.7530109e-07
-7.39463277e-07
-7.34884638e-07
-7.41141777e-07
-7.74344068e-07
-7.75034645e-07
-7.39868065e-07
-7.35614128e-07
-7.35363078e-07
-7.38332155e-07
-7.75908917e-07
-7.73923902e-07
-7.77038698e-07
-7.73783552e-07
-7.77301173e-07
-7.38423393e-07
-7.3604667e-07
-7.36515245e-07
-7.35011346e-07
-7.37780908e-07
-7.77760728e-07
-7.73077561e-07
-7.77980963e-07
-7.39365263e-07
-7.35105574e-07
-7.41654844e-07
-7.74620832e-07
-7.75507958e-07
-7.39755046e-07
-7.35052953e-07
-7.41398861e-07
-7.747622e-07
-7.7534437e-07
-7.40014798e-07
-7.35428428e-07
-7.35544692e-07
-7.38310091e-07
-7.76893455e-07
-7.7412022e-07
-7.77109668e-07
-7.74041651e-07
-7.7702554e-07
-7.39517071e-07
-7.36020304e-07
-7.3539683e-07
-7.39085677e-07
-7.75296201e-07
-7.76040911e-07
-7.39452957e-07
-7.34817718e-07
-7.41190809e-07
-7.75149067e-07
-7.75673131e-07
-7.40862843e-07
-7.35654277e-07
-7.42477691e-07
-7.74787096e-07
-7.75707225e-07
-7.41464146e-07
-7.36063545e-07
-7.43161437e-07
-7.74597543e-07
-7.75727246e-07
-7.41609924e-07
-7.36216362e-07
-7.35797116e-07
-7.39111888e-07
-7.75672013e-07
-7.7851729e-07
-7.38330534e-07
-7.39430638e-07
-7.75920222e-07
-7.79195108e-07
-7.3872512e-07
-7.40735239e-07
-7.75995283e-07
-7.78618197e-07
-7.37754847e-07
-7.34003673e-07
-7.4003181e-07
-7.7626408e-07
-7.79073663e-07
-7.39775898e-07
-7.40759942e-07
-7.78935839e-07
-7.73801738e-07
-7.77179561e-07
-7.37321926e-07
-7.34656372e-07
-7.3916232e-07
-7.76623415e-07
-7.75116783e-07
-7.61015007e-07
-7.36175263e-07
-7.34682672e-07
-7.39896946e-07
-7.76330453e-07
-7.6732762e-07
-7.38139081e-07
-7.41270431e-07
-7.78192505e-07
-7.70355369e-07
-7.37798247e-07
-7.41436324e-07
-7.78143833e-07
-7.69337743e-07
-7.3831269e-07
-7.43037079e-07
-7.77620681e-07
-7.69048856e-07
-7.39203342e-07
-7.45562044e-07
-7.76881371e-07
-7.76062554e-07
-7.36573465e-07
-7.35250254e-07
-7.46970703e-07
-7.77446592e-07
-7.68173675e-07
-7.4017853e-07
-7.48063079e-07
-7.76404395e-07
-7.7631074e-07
-7.36991295e-07
-7.36150331e-07
-7.50176327e-07
-7.76790244e-07
-7.76803265e-07
-7.367995e-07
-7.35914338e-07
-7.49692664e-07
-7.77691162e-07
-7.66738326e-07
-7.40504576e-07
-7.49454531e-07
-7.76103515e-07
-7.78211943e-07
-7.37347192e-07
-7.36832212e-07
-7.52415201e-07
-7.76209592e-07
-7.79878287e-07
-7.37979527e-07
-7.3722617e-07
-7.52974282e-07
-7.7577977e-07
-7.78726854e-07
-7.38689486e-07
-7.36105574e-07
-7.36386343e-07
-7.44161515e-07
-7.75116041e-07
-7.7429052e-07
-7.58178877e-07
-7.41244039e-07
-7.50727892e-07
-7.75381707e-07
-7.76942043e-07
-7.38497717e-07
-7.36482696e-07
-7.36850483e-07
-7.52408722e-07
-7.76058223e-07
-7.7369011e-07
-7.71264191e-07
-7.3979554e-07
-7.37558753e-07
-7.36954078e-07
-7.35923512e-07
-7.4649163e-07
-7.77481561e-07
-7.65579018e-07
-7.37952498e-07
-7.43279436e-07
-7.79432368e-07
-7.65330671e-07
-7.38125571e-07
-7.43226519e-07
-7.79576596e-07
-7.65253261e-07
-7.383569e-07
-7.43851997e-07
-7.78938236e-07
-7.67651402e-07
-7.3969359e-07
-7.41107794e-07
-7.79553179e-07
-7.7464249e-07
-7.61875476e-07
-7.37451575e-07
-7.35482697e-07
-7.51970654e-07
-7.7812827e-07
-7.66522519e-07
-7.38137056e-07
-7.36216086e-07
-7.53622625e-07
-7.78000944e-07
-7.65884852e-07
-7.37955664e-07
-7.35771518e-07
-7.50983602e-07
-7.78615648e-07
-7.61168668e-07
-7.40178085e-07
-7.5013186e-07
-7.79500438e-07
-7.65738412e-07
-7.3772641e-07
-7.35866867e-07
-7.51176592e-07
-7.79424747e-07
-7.61322344e-07
-7.40096813e-07
-7.48537491e-07
-7.77923171e-07
-7.60590134e-07
-7.4064379e-07
-7.49402648e-07
-7.7944212e-07
-7.63786815e-07
-7.37962412e-07
-7.36595662e-07
-7.52610482e-07
-7.79152988e-07
-7.59346854e-07
-7.42603532e-07
-7.53368099e-07
-7.79912212e-07
-7.62836528e-07
-7.38787644e-07
-7.37912845e-07
-7.57234902e-07
-7.78633146e-07
-7.63079129e-07
-7.39162898e-07
-7.38333077e-07
-7.58384298e-07
-7.78670945e-07
-7.6036007e-07
-7.38575686e-07
-7.36455158e-07
-7.3680586e-07
-7.60612143e-07
-7.77202392e-07
-7.76288544e-07
-7.75529086e-07
-7.75286911e-07
-7.62724663e-07
-7.40625081e-07
-7.38620623e-07
-7.38714162e-07
-7.38980639e-07
-7.39166646e-07
-7.39036464e-07
-7.39541342e-07
-7.71614628e-07
-7.7730058e-07
-7.58878041e-07
-7.38146569e-07
-7.37653116e-07
-7.59552062e-07
-7.78738408e-07
-7.54391022e-07
-7.41948568e-07
-7.56005378e-07
-7.75649452e-07
-7.54125255e-07
-7.42197413e-07
-7.57044474e-07
-7.79588228e-07
-7.55401831e-07
-7.37368379e-07
-7.37164198e-07
-7.62550515e-07
-7.79367404e-07
-7.52911844e-07
-7.42325313e-07
-7.60378042e-07
-7.79121967e-07
-7.55358922e-07
-7.3773846e-07
-7.37748627e-07
-7.68924611e-07
-7.77990812e-07
-7.55809078e-07
-7.37871723e-07
-7.37896749e-07
-7.70928898e-07
-7.77776428e-07
-7.55147728e-07
-7.37731261e-07
-7.3778837e-07
-7.72979962e-07
-7.77711071e-07
-7.54404549e-07
-7.37451844e-07
-7.37799774e-07
-7.74364462e-07
-7.77597631e-07
-7.53650689e-07
-7.37309161e-07
-7.37865993e-07
-7.75939926e-07
-7.77470663e-07
-7.52768021e-07
-7.37119566e-07
-7.37984725e-07
-7.7679373e-07
-7.77526539e-07
-7.51625772e-07
-7.36866517e-07
-7.38096361e-07
-7.76341188e-07
-7.7799123e-07
-7.49706606e-07
-7.36295621e-07
-7.37825163e-07
-7.73651482e-07
-7.78711148e-07
-7.48163856e-07
-7.41194549e-07
-7.68094525e-07
-7.78557064e-07
-7.47651965e-07
-7.36114556e-07
-7.38830326e-07
-7.77168437e-07
-7.78146389e-07
-7.47230768e-07
-7.3647812e-07
-7.39756619e-07
-7.78790678e-07
-7.78358341e-07
-7.46128753e-07
-7.35935744e-07
-7.40506132e-07
-7.79555232e-07
-7.74085049e-07
-7.78528848e-07
-7.43122775e-07
-7.3513335e-07
-7.39649728e-07
-7.80505875e-07
-7.80506253e-07
-7.40961786e-07
-7.33647906e-07
-7.38630994e-07
-7.80825604e-07
-7.81537992e-07
-7.37143233e-07
-7.30728717e-07
-7.35021918e-07
-7.77943265e-07
-7.73542765e-07
-7.75772124e-07
-7.75157907e-07
-7.75499633e-07
-7.61887187e-07
-7.27183156e-07
-7.27088887e-07
-7.6686455e-07
-7.70705167e-07
-7.6578488e-07
-7.63189012e-07
-7.64180848e-07
-7.59944243e-07
-7.57430356e-07
-7.5300914e-07
-7.50026056e-07
-7.47411673e-07
-7.43363497e-07
-7.40269227e-07
-7.37001053e-07
-7.35272426e-07
-7.32228402e-07
-7.30915136e-07
-7.29730004e-07
-7.27655317e-07
-7.22671558e-07
-7.1922849e-07
-7.13631937e-07
-7.09439977e-07
-7.03081019e-07
-6.97034189e-07
-6.91905811e-07
-6.87877019e-07
-6.87464461e-07
-6.83373438e-07
-6.75991871e-07
-6.69641121e-07
-6.60822091e-07
-6.52259505e-07
-6.40048773e-07
-6.27769302e-07
-6.18774183e-07
-6.03266549e-07
-6.21334663e-07
-6.10339481e-07
-5.99329774e-07
-5.78936816e-07
-5.65337621e-07
-5.46266061e-07
-5.28016041e-07
-5.11423611e-07
-4.88979571e-07
-4.85898772e-07
-4.36782003e-07
-4.0084466e-07
-3.72339091e-07
-2.67470612e-07
-2.66878001e-07
-2.22900944e-07
-1.63184003e-07
-1.32782179e-07
-8.22792053e-08
-1.34815687e-08
9.9544517e-08
2.31444781e-07
3.64253588e-07
4.47952948e-07
6.10598951e-07
7.3267368e-07
8.26680657e-07
8.95047217e-07
9.62563333e-07
1.03520005e-06
1.0989321e-06
1.16402564e-06
1.21693809e-06
1.27422287e-06
1.31822942e-06
1.3673002e-06
1.40488452e-06
1.4473924e-06
1.47938511e-06
1.51542774e-06
1.54244169e-06
1.57025883e-06
1.58994503e-06
1.61186008e-06
1.63069428e-06
1.65195109e-06
1.67100169e-06
1.6909451e-06
1.70915853e-06
1.7283961e-06
1.74540433e-06
1.76261732e-06
1.77792172e-06
1.79418539e-06
1.80858864e-06
1.823873e-06
1.8410116e-06
1.85981778e-06
1.87508035e-06
1.88747516e-06
1.89704982e-06
1.90805508e-06
1.91740852e-06
1.92748354e-06
1.93595459e-06
1.94544519e-06
1.95347641e-06
1.96246443e-06
1.96996569e-06
1.97855173e-06
1.98606644e-06
1.99518624e-06
2.00401941e-06
2.01366799e-06
2.02146952e-06
2.02930062e-06
2.03593291e-06
2.0432276e-06
2.04952082e-06
2.05662649e-06
2.06277237e-06
2.06954112e-06
2.0754702e-06
2.08169963e-06
2.08702757e-06
2.09280012e-06
2.09796101e-06
2.10373002e-06
2.10944835e-06
2.11528921e-06
2.12075036e-06
2.126173e-06
2.13128595e-06
2.13632391e-06
2.14111812e-06
2.14580308e-06
2.15010972e-06
2.15414581e-06
2.15809597e-06
2.16191377e-06
2.16569502e-06
2.16931048e-06
2.17293423e-06
)
;

boundaryField
{
    closed
    {
        type            calculated;
        value           nonuniform List<scalar> 0();
    }
    open
    {
        type            calculated;
        value           nonuniform List<scalar> 0();
    }
    sides
    {
        type            empty;
    }
    procBoundary4to3
    {
        type            processor;
        value           uniform -7.75470988e-07;
    }
    procBoundary4to5
    {
        type            processor;
        value           uniform 2.17636233e-06;
    }
}


// ************************************************************************* //
