/*--------------------------------*- C++ -*----------------------------------*\
| =========                 |                                                 |
| \\      /  F ield         | OpenFOAM: The Open Source CFD Toolbox           |
|  \\    /   O peration     | Version:  2306                                  |
|   \\  /    A nd           | Website:  www.openfoam.com                      |
|    \\/     M anipulation  |                                                 |
\*---------------------------------------------------------------------------*/
FoamFile
{
    version     2.0;
    format      ascii;
    arch        "LSB;label=32;scalar=64";
    class       volScalarField;
    location    "0.00088";
    object      T;
}
// * * * * * * * * * * * * * * * * * * * * * * * * * * * * * * * * * * * * * //

dimensions      [0 0 0 1 0 0 0];

internalField   nonuniform List<scalar> 
531
(
339.665018
328.935326
318.917662
324.382443
339.895096
340.460903
325.738326
324.847605
340.310928
340.239252
326.381679
326.304142
340.604939
339.862546
328.021009
320.46864
326.86827
340.164093
340.234029
327.834619
328.778835
340.723383
339.831291
328.38942
321.344043
328.26076
340.262707
340.126102
328.708099
329.326476
340.820983
339.824312
329.041946
323.047568
328.959495
340.307862
340.223048
329.594265
324.358685
323.612733
328.366556
339.93517
340.433064
339.101799
340.383772
339.030484
328.414696
324.26312
325.876635
322.738269
327.846887
339.065695
340.553034
338.63674
328.90639
322.960105
328.920806
340.342942
340.053087
329.164998
323.196362
328.995003
340.262062
340.267504
329.576293
323.963187
323.805097
328.242207
339.516034
340.320105
338.915367
340.160796
339.164212
329.464353
324.436146
323.891265
329.075132
340.40234
339.835925
329.285995
322.623967
329.141653
340.151224
339.857537
329.334652
323.875057
329.191646
340.255769
339.736158
329.279321
324.467234
329.114251
340.232293
339.808614
329.610911
324.876405
324.227271
329.185346
340.138164
338.968183
327.671787
329.392868
340.072393
338.466426
328.188809
329.634409
340.144147
338.539825
326.849814
321.145882
329.027959
339.809435
337.67621
329.506079
329.360865
337.467787
340.073854
336.886958
326.466726
321.807814
328.614401
339.389301
339.69661
331.670981
324.875759
322.329538
328.750619
336.603532
333.485867
327.141574
329.057142
339.251014
334.501361
326.658705
329.053732
339.248294
334.151099
327.445072
329.031408
339.441771
334.049395
328.813108
329.198064
339.761641
336.487548
324.92686
322.912132
329.02831
339.36868
333.762578
329.860009
329.378348
339.896303
336.586112
325.632262
324.325769
329.453956
339.681161
336.806765
325.356306
323.933802
329.314037
339.346633
333.29515
329.768941
329.53813
339.965511
337.327526
326.243669
325.308771
329.840348
339.744364
338.309219
327.178519
325.901942
329.926297
339.87578
338.880311
328.230365
324.690047
325.166992
328.875628
340.346173
340.344284
330.918267
329.173684
329.617122
340.249586
336.844228
328.099371
325.119271
325.632995
329.759293
339.228611
340.240929
334.73417
329.219826
326.41526
326.310911
324.201637
328.945984
339.384556
332.926485
326.975822
328.915101
338.61973
332.849149
327.100757
328.919513
338.57664
332.825255
327.596142
328.927528
338.816861
333.588337
329.620929
329.371402
337.972416
340.012313
331.929129
326.908426
323.627804
329.453744
338.797861
333.223652
327.611737
324.481859
329.844001
338.757001
333.03191
327.423988
323.875545
329.363696
338.746696
331.660368
329.774879
329.284402
338.40606
332.983571
327.132261
324.006378
329.372114
338.600031
331.673604
329.706768
329.102945
337.270663
331.4579
329.749601
329.183949
337.851602
332.385272
327.492464
325.054059
329.65225
337.722097
331.162781
329.687505
329.86369
338.279684
332.117226
328.504807
326.914286
330.634294
338.739116
332.197789
329.100579
327.560003
330.906967
338.86763
331.44865
328.515144
325.285136
325.494522
331.481659
338.981185
339.317274
339.703877
339.924714
332.109141
329.10251
328.545605
328.689181
328.986477
329.302982
328.864089
329.377817
334.932565
339.475003
331.060489
327.790806
326.709418
331.174665
337.591271
329.997272
329.43767
330.335527
336.402399
329.962097
329.544921
330.577654
337.892598
330.194766
326.368046
325.848465
332.026651
337.793398
329.820158
329.72924
331.431116
338.599969
330.244676
326.70773
326.597797
334.001191
339.04996
330.368463
326.918124
326.869787
334.674905
339.135869
330.228464
326.702068
326.736902
335.389067
339.15737
330.07265
326.270749
326.841898
335.881461
339.186864
329.929047
326.042146
327.028013
336.450306
339.208503
329.774025
325.76558
327.295056
336.762105
339.190759
329.57732
325.420912
327.545176
336.59476
339.054151
329.270038
324.645443
327.200315
335.615016
338.948765
329.134984
329.575977
333.728317
338.744416
328.942681
324.418657
329.01982
336.891855
338.984176
328.93716
325.001113
328.775412
337.524717
339.00444
328.729829
324.378515
328.258345
337.794147
340.772543
337.40757
327.976933
323.68697
327.907616
338.71344
338.861184
327.347339
322.181875
326.805515
339.419203
339.380517
325.844424
319.254693
324.828169
341.98739
343.604743
343.020599
342.646655
342.018229
331.268742
318.447997
318.854875
333.821906
338.587589
334.263251
333.174064
337.423628
339.022989
339.130993
339.859603
340.092033
340.389758
340.776694
341.09327
341.739998
342.29949
344.040195
346.374556
348.778736
347.071124
343.578771
341.599579
338.966662
337.496303
335.743146
334.556763
332.832581
331.679228
331.895886
330.173907
328.403395
327.395497
326.940061
326.589911
324.316147
321.077995
318.876074
317.141551
344.231913
341.830763
338.000134
330.735691
326.031005
319.439689
313.270492
307.744135
300.569725
310.628189
329.477065
334.318489
370.892191
410.560409
412.085885
430.851539
467.886607
481.742849
505.096744
540.920422
605.928742
674.514653
741.856279
779.308759
855.417655
913.714538
957.121535
991.085933
1023.84123
1062.68364
1095.1277
1130.2776
1157.5823
1188.71548
1211.79434
1238.63348
1258.96776
1282.56332
1300.39533
1320.82993
1336.72027
1353.13487
1365.27177
1378.64212
1390.52977
1403.0315
1414.66112
1426.02833
1436.806
1447.60101
1457.44246
1467.09112
1475.9939
1485.09333
1493.43284
1501.97364
1512.23507
1523.60557
1532.71151
1539.75571
1545.05773
1551.06427
1556.22827
1561.68284
1566.38623
1571.47695
1575.97107
1580.68818
1584.8614
1589.32874
1593.55395
1598.30086
1603.44809
1608.64992
1613.22861
1617.32641
1621.19196
1624.97789
1628.63981
1632.32175
1635.92188
1639.46449
1642.97982
1646.17777
1649.20557
1652.10403
1655.02622
1657.97201
1661.27172
1664.35496
1667.52982
1670.40139
1673.3664
1676.04363
1678.81534
1681.31461
1683.75437
1685.82612
1688.02134
1689.99038
1692.08632
1693.96045
1695.96494
)
;

boundaryField
{
    closed
    {
        type            fixedValue;
        value           nonuniform List<scalar> 0();
    }
    open
    {
        type            zeroGradient;
    }
    sides
    {
        type            empty;
    }
    procBoundary4to3
    {
        type            processor;
        value           uniform 339.621204;
    }
    procBoundary4to5
    {
        type            processor;
        value           uniform 1697.75125;
    }
}


// ************************************************************************* //
