/*--------------------------------*- C++ -*----------------------------------*\
| =========                 |                                                 |
| \\      /  F ield         | OpenFOAM: The Open Source CFD Toolbox           |
|  \\    /   O peration     | Version:  2306                                  |
|   \\  /    A nd           | Website:  www.openfoam.com                      |
|    \\/     M anipulation  |                                                 |
\*---------------------------------------------------------------------------*/
FoamFile
{
    version     2.0;
    format      ascii;
    arch        "LSB;label=32;scalar=64";
    class       surfaceScalarField;
    location    "0.00036";
    object      phi;
}
// * * * * * * * * * * * * * * * * * * * * * * * * * * * * * * * * * * * * * //

dimensions      [1 0 -1 0 0 0 0];

oriented        oriented;

internalField   nonuniform List<scalar> 
530
(
-9.57166571e-07
-9.41750582e-07
-9.58268266e-07
-9.77648975e-07
-9.69233007e-07
-9.49839778e-07
-9.85768903e-07
-1.02084515e-06
-1.02599966e-06
-1.01774118e-06
-1.04375307e-06
-9.80722997e-07
-9.63041568e-07
-1.01898729e-06
-1.08241128e-06
-1.09049603e-06
-1.07448665e-06
-1.09088792e-06
-1.09091521e-06
-1.07030865e-06
-1.15238346e-06
-1.10154823e-06
-1.03723023e-06
-1.02318109e-06
-1.16537103e-06
-1.2114775e-06
-1.14846254e-06
-1.02669659e-06
-1.02643018e-06
-1.00993141e-06
-9.79989573e-07
-9.37018131e-07
-9.18820775e-07
-9.04843669e-07
-8.82162315e-07
-8.54816198e-07
-8.31527258e-07
-8.09431698e-07
-7.8531646e-07
-7.5941613e-07
-7.32660218e-07
-7.04638316e-07
-6.74951236e-07
-6.43912409e-07
-6.12242686e-07
-5.80680131e-07
-5.49927905e-07
-5.2062273e-07
-4.93243164e-07
-4.6805916e-07
-4.45160944e-07
-4.24518074e-07
-4.06031488e-07
-3.89575003e-07
-3.75026439e-07
-3.62285412e-07
-3.51278175e-07
-3.41954281e-07
-3.34278682e-07
-3.28222169e-07
-3.23752199e-07
-3.20825967e-07
-3.19387108e-07
-3.1936688e-07
-3.20689901e-07
-3.23283623e-07
-3.27089858e-07
-3.32076048e-07
-3.38243822e-07
-3.45632843e-07
-3.54318799e-07
-3.64405592e-07
-3.76012852e-07
-3.89260751e-07
-4.04254453e-07
-4.21070397e-07
-4.39746111e-07
-4.60274496e-07
-4.82602728e-07
-5.06635247e-07
-5.32239862e-07
-5.59255762e-07
-5.87502266e-07
-6.16787319e-07
-6.46915034e-07
-6.77691866e-07
-7.0893129e-07
-7.40457052e-07
-7.72105187e-07
-8.03725055e-07
-8.35179664e-07
-8.66345501e-07
-8.97112056e-07
-9.27381144e-07
-9.57066133e-07
-9.8609109e-07
-1.01438989e-06
-1.0419053e-06
-1.06858803e-06
-1.0943958e-06
-1.11929245e-06
-1.143247e-06
-1.16623293e-06
-1.18822743e-06
-1.20921082e-06
-1.22916609e-06
-1.24807856e-06
-1.26593563e-06
-1.28272673e-06
-1.29844322e-06
-1.31307845e-06
-1.32662783e-06
-1.33908888e-06
-1.3504613e-06
-1.36074697e-06
-1.36994993e-06
-1.37807627e-06
-1.38513401e-06
-1.3911328e-06
-1.39608366e-06
-1.39999862e-06
-1.40289027e-06
-1.40477133e-06
-1.40565416e-06
-1.40555026e-06
-1.40446981e-06
-1.40242127e-06
-1.39941105e-06
-1.3954433e-06
-1.39051989e-06
-1.38464058e-06
-1.37780338e-06
-1.37000528e-06
-1.36124307e-06
-1.35151459e-06
-1.34082004e-06
-1.32916355e-06
-1.31655484e-06
-1.3030109e-06
-1.28855762e-06
-1.2732312e-06
-1.25707944e-06
-1.24016263e-06
-1.22255414e-06
-1.20434056e-06
-1.18562153e-06
-1.16650915e-06
-1.14712701e-06
-1.12760906e-06
-1.10809813e-06
-1.08874439e-06
-1.06970371e-06
-1.05113601e-06
-1.03320361e-06
-1.01606971e-06
-9.99896926e-07
-9.8484591e-07
-9.71074142e-07
-9.58734754e-07
-9.47975464e-07
-9.3893756e-07
-9.31754936e-07
-9.26553155e-07
-9.23448539e-07
-9.22547273e-07
-9.23944531e-07
-9.27723632e-07
-9.33955231e-07
-9.42696561e-07
-9.5399075e-07
-9.67866214e-07
-9.84336157e-07
-1.00339819e-06
-1.02503405e-06
-1.04920952e-06
-1.0758744e-06
-1.1049627e-06
-1.13639297e-06
-1.17006872e-06
-1.20587901e-06
-1.2436992e-06
-1.28339176e-06
-1.32480722e-06
-1.36778519e-06
-1.41215546e-06
-1.45773917e-06
-1.50434999e-06
-1.55179539e-06
-1.59987782e-06
-1.64839601e-06
-1.69714611e-06
-1.74592296e-06
-1.79452122e-06
-1.84273646e-06
-1.89036623e-06
-1.93721108e-06
-1.98307548e-06
-2.02776877e-06
-2.07110598e-06
-2.11290867e-06
-2.1530057e-06
-2.19123398e-06
-2.22743921e-06
-2.2614766e-06
-2.29321155e-06
-2.32252037e-06
-2.34929099e-06
-2.37342364e-06
-2.39483159e-06
-2.41344178e-06
-2.42919561e-06
-2.44204953e-06
-2.45197577e-06
-2.45896294e-06
-2.46301661e-06
-2.46415985e-06
-2.46243368e-06
-2.45789747e-06
-2.45062915e-06
-2.44072542e-06
-2.42830173e-06
-2.41349216e-06
-2.39644916e-06
-2.37734304e-06
-2.35636137e-06
-2.33370812e-06
-2.30960265e-06
-2.28427848e-06
-2.25798183e-06
-2.23097006e-06
-2.2035098e-06
-2.17587497e-06
-2.1483446e-06
-2.12120055e-06
-2.09472498e-06
-2.06919787e-06
-2.04489437e-06
-2.02208205e-06
-2.00101829e-06
-1.98194751e-06
-1.96509856e-06
-1.95068218e-06
-1.93888856e-06
-1.92988507e-06
-1.92381422e-06
-1.92079179e-06
-1.92090531e-06
-1.92421279e-06
-1.93074173e-06
-1.94048858e-06
-1.95341843e-06
-1.9694652e-06
-1.98853212e-06
-2.0104926e-06
-2.03519151e-06
-2.06244675e-06
-2.09205126e-06
-2.12377523e-06
-2.15736867e-06
-2.19256423e-06
-2.22908019e-06
-2.26662363e-06
-2.30489373e-06
-2.34358518e-06
-2.3823915e-06
-2.42100845e-06
-2.45913731e-06
-2.49648798e-06
-2.53278201e-06
-2.56775527e-06
-2.60116048e-06
-2.63276933e-06
-2.66237442e-06
-2.6897907e-06
-2.71485667e-06
-2.73743517e-06
-2.75741374e-06
-2.77470477e-06
-2.78924511e-06
-2.80099551e-06
-2.80993964e-06
-2.81608293e-06
-2.81945109e-06
-2.8200885e-06
-2.81805639e-06
-2.81343094e-06
-2.80630133e-06
-2.79676771e-06
-2.78493927e-06
-2.77093231e-06
-2.75486847e-06
-2.73687302e-06
-2.7170734e-06
-2.6955979e-06
-2.67257454e-06
-2.6481302e-06
-2.62238995e-06
-2.59547664e-06
-2.56751066e-06
-2.53860997e-06
-2.5088903e-06
-2.47846551e-06
-2.44744816e-06
-2.41595014e-06
-2.38408348e-06
-2.35196111e-06
-2.31969779e-06
-2.28741086e-06
-2.25522109e-06
-2.22325334e-06
-2.1916371e-06
-2.16050687e-06
-2.1300023e-06
-2.10026812e-06
-2.07145379e-06
-2.04371278e-06
-2.01720169e-06
-1.99207895e-06
-1.96850325e-06
-1.94663179e-06
-1.92661812e-06
-1.90860994e-06
-1.8927466e-06
-1.87915662e-06
-1.86795503e-06
-1.85924076e-06
-1.85309409e-06
-1.84957415e-06
-1.84871659e-06
-1.85053145e-06
-1.8550012e-06
-1.8620791e-06
-1.87168789e-06
-1.88371872e-06
-1.89803059e-06
-1.91445017e-06
-1.93277205e-06
-1.95275958e-06
-1.9741462e-06
-1.99663737e-06
-2.01991308e-06
-2.04363098e-06
-2.06743e-06
-2.09093462e-06
-2.11375958e-06
-2.13551486e-06
-2.15581112e-06
-2.17426515e-06
-2.19050543e-06
-2.20417755e-06
-2.21494951e-06
-2.22251647e-06
-2.22660522e-06
-2.22697797e-06
-2.22343544e-06
-2.21581932e-06
-2.20401388e-06
-2.18794677e-06
-2.1675891e-06
-2.14295468e-06
-2.11409855e-06
-2.08111495e-06
-2.04413461e-06
-2.00332178e-06
-1.95887087e-06
-1.91100301e-06
-1.85996256e-06
-1.80601383e-06
-1.74943808e-06
-1.69053079e-06
-1.62959945e-06
-1.56696177e-06
-1.50294427e-06
-1.43788132e-06
-1.37211432e-06
-1.30599119e-06
-1.2398657e-06
-1.17409682e-06
-1.1090478e-06
-1.045085e-06
-9.82576345e-07
-9.21889388e-07
-8.63389047e-07
-8.07435028e-07
-7.54378998e-07
-7.04561616e-07
-6.58309479e-07
-6.15932091e-07
-5.77718898e-07
-5.43936458e-07
-5.14825769e-07
-4.90599787e-07
-4.71441121e-07
-4.57499923e-07
-4.48891947e-07
-4.45696789e-07
-4.47956295e-07
-4.55673164e-07
-4.68809756e-07
-4.87287179e-07
-5.10984673e-07
-5.3973939e-07
-5.73346607e-07
-6.11560442e-07
-6.54095107e-07
-7.00626728e-07
-7.50795732e-07
-8.0420979e-07
-8.60447273e-07
-9.19061165e-07
-9.79583331e-07
-1.04152904e-06
-1.10440163e-06
-1.16769715e-06
-1.2309089e-06
-1.29353156e-06
-1.35506493e-06
-1.41501709e-06
-1.47290722e-06
-1.52826779e-06
-1.58064657e-06
-1.62960841e-06
-1.67473715e-06
-1.7156377e-06
-1.75193861e-06
-1.78329512e-06
-1.80939265e-06
-1.82995056e-06
-1.84472601e-06
-1.85351737e-06
-1.85616708e-06
-1.85256352e-06
-1.84264174e-06
-1.82638313e-06
-1.80381407e-06
-1.77500382e-06
-1.74006201e-06
-1.69913598e-06
-1.65240819e-06
-1.60009401e-06
-1.54244003e-06
-1.47972307e-06
-1.41224988e-06
-1.34035779e-06
-1.264417e-06
-1.18483425e-06
-1.10205672e-06
-1.01657397e-06
-9.28921543e-07
-8.39687079e-07
-7.49512554e-07
-6.59087928e-07
-5.69138545e-07
-4.80423887e-07
-3.93762206e-07
-3.1002435e-07
-2.30094543e-07
-1.54805668e-07
-8.49397877e-08
-2.14528491e-08
3.44433718e-08
8.25305093e-08
1.22106384e-07
1.53804555e-07
1.74838584e-07
1.79697332e-07
1.70670717e-07
1.58782273e-07
1.41878922e-07
9.45898414e-08
2.77620161e-08
-4.11838108e-08
-6.00864364e-08
-1.49880929e-07
-3.24351987e-07
-4.47767806e-07
-5.82132717e-07
-7.09975532e-07
-9.18583594e-07
-1.08474461e-06
-1.26148303e-06
-1.44546395e-06
-1.6281834e-06
-1.81861439e-06
-2.08215836e-06
-2.25740102e-06
-2.4112566e-06
-2.60033498e-06
-2.89730043e-06
-3.07512225e-06
-3.1316593e-06
-3.31315921e-06
-3.55025053e-06
-3.88496344e-06
-3.99739869e-06
-4.13346666e-06
-4.22413635e-06
-4.38836705e-06
-4.77540645e-06
-4.82542525e-06
-4.89369397e-06
-4.97066549e-06
-5.05907715e-06
-4.99905132e-06
-5.07560345e-06
-5.32784437e-06
-5.36678735e-06
-5.1409105e-06
-5.18060691e-06
-5.37212049e-06
-5.34534788e-06
-5.3388276e-06
-5.34269028e-06
-5.63810469e-06
-5.60562988e-06
-5.54910682e-06
-5.47673459e-06
-5.46230248e-06
-5.49867785e-06
-5.59679623e-06
-5.49886946e-06
-5.28987349e-06
-5.30111438e-06
-5.27792899e-06
-5.14427672e-06
-5.00885528e-06
-4.9586308e-06
-4.94905924e-06
-5.02328143e-06
-4.9472208e-06
)
;

boundaryField
{
    closed
    {
        type            calculated;
        value           nonuniform List<scalar> 0();
    }
    open
    {
        type            calculated;
        value           nonuniform List<scalar> 0();
    }
    sides
    {
        type            empty;
        value           nonuniform List<scalar> 0();
    }
    procBoundary3to2
    {
        type            processor;
        value           uniform 9.49283087e-07;
    }
    procBoundary3to4
    {
        type            processor;
        value           uniform -4.87503391e-06;
    }
}


// ************************************************************************* //
