/*--------------------------------*- C++ -*----------------------------------*\
| =========                 |                                                 |
| \\      /  F ield         | OpenFOAM: The Open Source CFD Toolbox           |
|  \\    /   O peration     | Version:  2306                                  |
|   \\  /    A nd           | Website:  www.openfoam.com                      |
|    \\/     M anipulation  |                                                 |
\*---------------------------------------------------------------------------*/
FoamFile
{
    version     2.0;
    format      ascii;
    arch        "LSB;label=32;scalar=64";
    class       volScalarField;
    location    "0.00098";
    object      H;
}
// * * * * * * * * * * * * * * * * * * * * * * * * * * * * * * * * * * * * * //

dimensions      [0 0 0 0 0 0 0];

internalField   nonuniform List<scalar> 
530
(
1.7945296e-08
2.21872465e-08
2.22639552e-08
2.22494447e-08
2.22482667e-08
2.224825e-08
2.22482494e-08
2.22482494e-08
2.22482494e-08
2.22482494e-08
2.22482494e-08
2.22482494e-08
2.22482494e-08
2.22482494e-08
2.22482494e-08
2.22482494e-08
2.22482494e-08
2.22482494e-08
2.22482494e-08
2.22482494e-08
2.22482494e-08
2.22482494e-08
2.22482494e-08
2.22482494e-08
2.22482494e-08
2.22482494e-08
2.22482494e-08
2.22482494e-08
2.22482494e-08
2.22482494e-08
2.22482494e-08
2.22482494e-08
2.22482494e-08
2.22482494e-08
2.22482494e-08
2.22482494e-08
2.22482494e-08
2.22482494e-08
2.22482494e-08
2.22482494e-08
2.22482494e-08
2.22482494e-08
2.22482494e-08
2.22482494e-08
2.22482494e-08
2.22482494e-08
2.22482494e-08
2.22482494e-08
2.22482494e-08
2.22482494e-08
2.22482494e-08
2.22482494e-08
2.22482494e-08
2.22482494e-08
2.22482494e-08
2.22482494e-08
2.22482494e-08
2.22482494e-08
2.22482494e-08
2.22482494e-08
2.22482494e-08
2.22482494e-08
2.22482494e-08
2.22482494e-08
2.22482494e-08
2.22482495e-08
2.22482495e-08
2.22482497e-08
2.22482501e-08
2.22482518e-08
2.2248255e-08
2.22482611e-08
2.22482721e-08
2.22483334e-08
2.22483661e-08
2.22484186e-08
2.22499138e-08
2.22495918e-08
2.22326483e-08
2.22284216e-08
2.24122197e-08
2.24949167e-08
2.14351046e-08
2.10104887e-08
2.54110819e-08
2.89750102e-08
1.70005924e-08
1.03592569e-08
3.00657849e-08
4.04050792e-08
2.41000615e-08
1.28169325e-09
9.9418727e-10
4.79559769e-08
4.84467512e-08
2.587144e-08
1.12139895e-09
1.30663796e-09
9.2926884e-10
4.81520277e-08
4.82977793e-08
4.12587113e-08
2.45280133e-08
1.27424888e-09
1.19916088e-09
1.22711358e-09
1.01397814e-09
4.71462971e-08
4.71750473e-08
4.11559819e-08
3.11297551e-08
1.21492464e-09
1.10588895e-09
4.69804438e-08
4.72685001e-08
4.79160778e-08
3.92799027e-08
9.47199128e-10
1.25837826e-09
8.38364699e-10
1.2128567e-09
8.50011392e-10
4.86635619e-08
5.19519204e-08
2.89343813e-08
1.14625714e-09
1.18651086e-09
4.85116765e-08
4.85152333e-08
3.28241766e-08
1.21906231e-09
1.20504848e-09
4.42343489e-08
3.91383057e-08
1.27655533e-09
1.1490067e-09
4.29984806e-08
4.00491777e-08
1.2881613e-09
1.13074053e-09
4.37579401e-08
3.93208642e-08
1.24964184e-09
1.1374578e-09
4.87282077e-08
4.92485591e-08
3.21363816e-08
1.20154159e-09
1.2263052e-09
4.3721843e-08
3.79932735e-08
1.26243429e-09
1.17360799e-09
4.30034846e-08
3.81159984e-08
1.25028836e-09
1.15851204e-09
4.7529053e-08
4.78322214e-08
3.0753105e-08
1.2226249e-09
1.22959141e-09
4.24791089e-08
3.70062081e-08
1.27613482e-09
1.18353805e-09
4.1893549e-08
3.68954231e-08
1.25365086e-09
1.16800186e-09
4.71809553e-08
4.75624722e-08
3.11856395e-08
1.19316363e-09
1.13520758e-09
4.56446862e-08
4.53473059e-08
4.09891634e-08
3.17611939e-08
1.29364021e-09
1.21374734e-09
4.11411106e-08
3.74480493e-08
1.29786419e-09
1.16159318e-09
4.21168653e-08
3.75276185e-08
1.25975032e-09
1.14753178e-09
4.70447166e-08
4.74325029e-08
3.0159608e-08
1.19986405e-09
1.21816707e-09
4.34901338e-08
3.61603978e-08
1.2086892e-09
1.17307924e-09
4.78470789e-08
4.80568409e-08
3.06076984e-08
1.16994455e-09
1.16814077e-09
4.8271673e-08
4.83765972e-08
3.29301284e-08
1.1980973e-09
1.17027369e-09
4.46191641e-08
3.95107945e-08
1.24926873e-09
1.0954394e-09
4.40017223e-08
4.12897473e-08
1.2669114e-09
1.05850897e-09
4.42756432e-08
4.19689613e-08
1.2703329e-09
1.03963752e-09
4.4601167e-08
4.2244043e-08
1.27080102e-09
1.03128277e-09
4.46840217e-08
4.22081285e-08
1.27257889e-09
1.03066698e-09
4.44573769e-08
4.18288425e-08
1.27466883e-09
1.0366032e-09
4.41085187e-08
4.10994898e-08
1.26806249e-09
1.04854138e-09
4.4703731e-08
3.97105272e-08
1.22447037e-09
1.07448537e-09
4.97381554e-08
5.0193878e-08
3.28045086e-08
1.17484895e-09
1.17183167e-09
4.44940057e-08
3.78674815e-08
1.24560507e-09
1.12217054e-09
4.33786607e-08
3.78160094e-08
1.23992161e-09
1.11562441e-09
4.76433416e-08
4.79543428e-08
3.06931231e-08
1.20569069e-09
1.18143226e-09
4.35035845e-08
3.62092392e-08
1.23548613e-09
1.13855931e-09
4.66302438e-08
4.68299176e-08
2.97219742e-08
1.22727164e-09
1.1680665e-09
4.26343429e-08
3.72493208e-08
1.2579377e-09
1.07130163e-09
4.4905436e-08
4.49524527e-08
3.98138803e-08
2.9927673e-08
1.32623036e-09
1.17139419e-09
4.06204508e-08
3.54057925e-08
1.28285005e-09
1.12409034e-09
4.57514649e-08
4.60445079e-08
2.2803648e-08
1.17247446e-09
1.3102884e-09
9.91933629e-10
4.5491868e-08
4.56100911e-08
4.00897922e-08
2.8850928e-08
1.27695101e-09
1.15029634e-09
4.5377386e-08
4.55530632e-08
2.63481804e-08
1.21502007e-09
1.14428649e-09
4.55405346e-08
4.55483191e-08
2.6052369e-08
1.2120794e-09
1.12467194e-09
4.58474151e-08
4.59625678e-08
2.73806518e-08
1.20373469e-09
1.12321933e-09
4.64069053e-08
4.64823269e-08
3.00371825e-08
1.22028176e-09
1.12112568e-09
4.33862884e-08
3.64810874e-08
1.22491498e-09
1.07290033e-09
4.85966443e-08
4.88752708e-08
3.13226302e-08
1.18996371e-09
1.13264017e-09
4.43438965e-08
3.39032539e-08
1.19672901e-09
1.13425589e-09
1.16079897e-09
8.58189754e-10
5.08004437e-08
5.07690864e-08
4.35284482e-08
3.43268269e-08
1.26039848e-09
1.05852324e-09
4.33925262e-08
3.8628202e-08
1.27689465e-09
1.01418212e-09
4.36431424e-08
3.82530941e-08
1.24488676e-09
1.01819085e-09
4.83536671e-08
4.87636494e-08
3.11411064e-08
1.20702705e-09
1.1048771e-09
4.23059678e-08
3.60302988e-08
1.28595616e-09
1.06634165e-09
4.0806927e-08
3.53202485e-08
1.26890069e-09
1.06511877e-09
4.57693127e-08
4.60590632e-08
2.76858492e-08
1.17355271e-09
1.01368877e-09
4.75678717e-08
4.75901967e-08
4.17823682e-08
4.04183735e-08
1.39196338e-08
1.24532386e-09
1.07969472e-09
1.1946854e-09
9.03661463e-10
4.90856884e-08
4.94090181e-08
2.95723419e-08
1.13725956e-09
9.36748052e-10
4.92339709e-08
4.93365576e-08
4.20554959e-08
4.28641343e-08
2.26110907e-08
1.24689371e-09
1.1277464e-09
1.23883596e-09
8.2920097e-10
4.39058918e-08
3.97519229e-08
1.21755361e-09
9.24619794e-10
4.86051023e-08
4.90865269e-08
3.09685275e-08
1.16900722e-09
1.01115015e-09
4.43137617e-08
3.59430532e-08
1.19245786e-09
9.53852579e-10
4.99656371e-08
5.04092419e-08
3.17612067e-08
1.09626389e-09
9.87583769e-10
5.17543679e-08
2.85044759e-08
8.67456091e-10
4.03243995e-08
3.42835747e-08
1.12394811e-09
1.30613181e-09
8.03609732e-10
4.29056429e-08
3.90729706e-08
1.15695572e-09
1.20265551e-09
7.76139981e-10
5.20520249e-08
5.22595426e-08
4.29314238e-08
4.47982906e-08
2.906555e-08
1.21481777e-09
9.77790405e-10
4.34808255e-08
3.54493186e-08
1.22179482e-09
1.32016275e-09
8.29598873e-10
4.19726111e-08
3.92646622e-08
1.22722835e-09
8.65124639e-10
4.95838753e-08
5.01026538e-08
3.12682692e-08
1.15829406e-09
9.6577179e-10
4.40627678e-08
3.49436214e-08
1.21281011e-09
1.26009544e-09
8.64441563e-10
4.93027664e-08
4.95591636e-08
2.90636317e-08
1.1535655e-09
9.14766413e-10
4.73468485e-08
4.75512256e-08
2.88037984e-08
1.16642828e-09
9.10518196e-10
4.66369181e-08
4.6884376e-08
2.80261445e-08
1.16642553e-09
9.16209392e-10
4.72577249e-08
4.74134576e-08
2.91583932e-08
1.1657609e-09
8.76041036e-10
4.73602665e-08
4.7531954e-08
2.37789677e-08
1.14756992e-09
1.09264537e-09
1.12776983e-09
7.35096881e-10
5.0936593e-08
5.11988099e-08
3.00119573e-08
1.11692608e-09
8.31764334e-10
4.93451655e-08
4.96455161e-08
3.15594164e-08
1.1727501e-09
8.43040354e-10
4.42013494e-08
3.71755737e-08
1.24835696e-09
7.90768547e-10
4.29504761e-08
3.76724915e-08
1.26535421e-09
7.78623267e-10
4.32653687e-08
3.68095518e-08
1.22485612e-09
7.91362522e-10
4.88067078e-08
4.93740559e-08
3.08218644e-08
1.17326986e-09
8.61567947e-10
4.3288623e-08
3.60064611e-08
1.25370572e-09
8.14418922e-10
4.27085551e-08
3.59968403e-08
1.23445421e-09
8.08830647e-10
4.80932627e-08
4.86035726e-08
3.03687474e-08
1.19518771e-09
8.6814503e-10
4.26102392e-08
3.53625516e-08
1.27335251e-09
8.32892141e-10
4.16309001e-08
3.47952674e-08
1.24222514e-09
8.49090055e-10
4.74490743e-08
4.78955067e-08
3.06080591e-08
1.10541223e-09
6.7797823e-10
5.07546567e-08
4.4469583e-08
1.15587416e-09
6.87210688e-10
4.44779538e-08
3.67777072e-08
1.24624244e-09
8.06364517e-10
4.04546888e-08
3.45334016e-08
)
;

boundaryField
{
    closed
    {
        type            calculated;
        value           uniform 6.17055172e-13;
    }
    open
    {
        type            calculated;
        value           nonuniform List<scalar> 0();
    }
    sides
    {
        type            empty;
    }
    procBoundary0to1
    {
        type            processor;
        value           uniform 1.26348928e-09;
    }
}


// ************************************************************************* //
