/*--------------------------------*- C++ -*----------------------------------*\
| =========                 |                                                 |
| \\      /  F ield         | OpenFOAM: The Open Source CFD Toolbox           |
|  \\    /   O peration     | Version:  2306                                  |
|   \\  /    A nd           | Website:  www.openfoam.com                      |
|    \\/     M anipulation  |                                                 |
\*---------------------------------------------------------------------------*/
FoamFile
{
    version     2.0;
    format      ascii;
    arch        "LSB;label=32;scalar=64";
    class       volScalarField;
    location    "0.00098";
    object      h;
}
// * * * * * * * * * * * * * * * * * * * * * * * * * * * * * * * * * * * * * //

dimensions      [0 2 -2 0 0 0 0];

internalField   nonuniform List<scalar> 
530
(
8143.88448
3605.98241
2300.34538
2276.36621
2273.97048
2273.89957
2273.89475
2273.89462
2273.89461
2273.89461
2273.89461
2273.89461
2273.89461
2273.89461
2273.89461
2273.89461
2273.89461
2273.89461
2273.89461
2273.89461
2273.89461
2273.89461
2273.89461
2273.89461
2273.89461
2273.89461
2273.89461
2273.89461
2273.89461
2273.89461
2273.89461
2273.89461
2273.89461
2273.89461
2273.89461
2273.89461
2273.89461
2273.89461
2273.89461
2273.89461
2273.89461
2273.89461
2273.89461
2273.89461
2273.89461
2273.89461
2273.89461
2273.89461
2273.89461
2273.89461
2273.89461
2273.89461
2273.89461
2273.89461
2273.89461
2273.89461
2273.89461
2273.89461
2273.89461
2273.89461
2273.89461
2273.89461
2273.89461
2273.89463
2273.89466
2273.89483
2273.89517
2273.8966
2273.89942
2273.90927
2273.92733
2273.98472
2274.08307
2274.33433
2274.77298
2275.74557
2276.91459
2279.87297
2288.81242
2297.62643
2248.74856
2241.36928
2569.38575
2741.82671
1337.65273
169.763474
3876.45145
5660.85173
-270.552837
-3652.7405
1849.43569
10284.6084
9192.681
-5800.63597
-5848.35827
1278.12869
9871.30973
10430.5529
9027.99617
-5846.52561
-5847.84158
-3897.8122
1782.1931
10318.7639
10025.2704
10163.088
9325.52187
-5536.23637
-5549.79583
-3809.7256
-594.293329
10252.8232
9703.20613
-5396.5658
-5572.27039
-5578.79447
-3347.64337
9320.07948
10336.5941
9124.90167
10158.8502
9122.07773
-5988.96238
-6781.06364
199.460108
9946.44641
9938.67973
-5932.6687
-5933.45018
-1276.10598
10070.582
9939.90139
-4743.43302
-3347.37614
10253.6185
9738.31597
-4415.68191
-3582.33427
10272.3865
9722.81939
-4637.67688
-3357.77262
10079.4182
9813.10864
-6068.51331
-6110.03957
-1048.99206
10082.1418
9961.0891
-4565.81223
-3036.81947
10264.8401
9830.97568
-4391.68224
-3037.56085
10140.152
9864.91904
-5711.71804
-5718.66985
-512.587107
10168.0689
10001.4822
-4211.51987
-2745.673
10334.4818
9899.86456
-4067.93332
-2678.41207
10187.3339
9937.97766
-5595.77977
-5627.16394
-656.204966
10062.4529
9702.06584
-5112.16935
-5068.68048
-3789.76427
-869.058176
10406.8864
9985.78028
-3860.29563
-2851.1088
10369.4511
9844.92588
-4149.52891
-2843.81394
10181.1412
9890.57152
-5566.23321
-5574.22636
-276.40067
10166.1482
10008.5872
-4461.51586
-2485.10013
10122.4903
9949.31209
-5744.44766
-5765.44523
-404.741532
9985.80913
9925.27442
-5860.19603
-5862.53552
-1301.64055
10071.938
9881.81928
-4819.5868
-3414.88088
10219.6929
9634.14998
-4677.17804
-3889.25882
10231.8391
9546.58762
-4774.58783
-4063.11846
10212.8316
9503.37836
-4876.23781
-4133.10452
10199.6598
9483.01565
-4903.31112
-4120.21783
10203.3269
9485.10787
-4838.01604
-4011.94058
10220.5906
9510.15227
-4732.40617
-3806.44743
10214.6428
9556.02232
-4891.74625
-3417.13281
10030.8377
9683.1226
-6332.06441
-6341.13871
-1286.87372
10029.3232
9824.50947
-4768.50156
-2973.76652
10227.9728
9703.05986
-4487.08588
-2927.2651
10128.849
9758.42813
-5729.50752
-5730.06976
-475.206472
10135.8002
9869.83703
-4494.41339
-2503.04431
10151.325
9791.29077
-5431.57464
-5429.74764
-104.877839
10195.1659
9837.06296
-4259.81566
-2788.51486
10227.2664
9530.03832
-4943.58729
-4929.83555
-3501.21491
-159.427096
10467.8287
9861.72189
-3734.94179
-2260.83552
10257.4634
9780.89512
-5192.84413
-5197.22726
2291.15414
10049.8622
10463.7548
9334.04083
-5087.21666
-5083.07734
-3556.44698
263.125201
10324.9697
9859.72127
-5070.54424
-5072.87557
1118.5389
10159.1833
9810.89782
-5083.84505
-5072.34334
1256.28772
10152.8352
9797.98203
-5171.90087
-5178.46264
789.575729
10117.7863
9778.48354
-5333.94626
-5321.70691
-191.845254
10177.0403
9736.08013
-4469.54711
-2554.11326
10094.4444
9618.55554
-5992.60784
-5986.68175
-709.260261
10071.8141
9734.65335
-4726.40829
-1685.39991
10039.4904
9835.96823
9935.53974
8843.03244
-6564.77062
-6542.66344
-4505.26388
-1847.86296
10235.2821
9525.31681
-4514.951
-3151.53593
10242.244
9398.37926
-4598.07047
-3027.34364
10089.9898
9476.39991
-5944.43676
-5946.98948
-648.489818
10128.3237
9636.03446
-4163.76913
-2441.31778
10363.9182
9570.59822
-3764.15132
-2204.16268
10259.4864
9651.03584
-5179.52324
-5171.04283
662.27572
10075.8182
9409.14545
-5611.18503
-5640.51333
-3952.86713
-3642.77998
5085.16423
10319.7527
9840.81278
10137.7901
9184.91002
-6063.46058
-6091.82904
12.4566599
9929.54055
9214.86055
-6112.20835
-6119.20086
-4093.75795
-4318.52885
2447.95453
10259.8658
9900.12332
10229.1055
8850.05893
-4629.21908
-3398.45718
10097.0345
9274.22065
-5973.33522
-5993.2397
-542.291911
10064.0498
9434.19301
-4702.78424
-2365.58358
10031.5419
9340.02412
-6357.36479
-6364.84204
-864.515107
9811.86684
9285.47683
-6773.72525
355.201327
8959.8772
-3617.30212
-1814.73267
9801.43502
10544.1335
8698.65378
-4312.19209
-3246.05043
9983.87774
10168.6194
8700.98008
-6902.30558
-6901.24465
-4352.76021
-4814.44219
176.142418
10199.9331
9296.61863
-4475.83496
-2256.73728
10194.918
10536.5817
8823.80673
-4093.55375
-3269.23597
10109.3556
9074.48738
-6259.28521
-6275.92791
-667.719739
10016.4972
9265.24931
-4625.18756
-2086.14757
10181.165
10356.5208
9000.25051
-6126.8545
-6144.53732
218.556386
9989.50426
9203.08861
-5569.02804
-5562.8027
318.183881
10071.0319
9206.65439
-5362.22175
-5372.55379
607.027866
10078.8776
9203.3739
-5534.79734
-5528.16686
185.392567
10041.9837
9071.28829
-5573.75761
-5564.0148
2099.22168
10032.0955
9894.39529
9943.91914
8666.06118
-6563.2408
-6561.99401
-129.347315
9882.15166
8942.17995
-6138.92987
-6152.86226
-743.378395
10037.2361
8913.7581
-4699.20964
-2678.43359
10202.6415
8806.6309
-4380.58699
-2783.93061
10232.0879
8810.25614
-4475.07782
-2528.94644
10067.4662
8881.44076
-6040.70946
-6047.01385
-489.86269
10083.2256
8935.80816
-4430.29387
-2363.831
10233.586
8862.38485
-4309.4746
-2330.9931
10098.2202
8889.39564
-5845.76731
-5853.30887
-327.488976
10118.9884
8932.77564
-4256.85915
-2192.99698
10278.8456
8911.52659
-4006.50907
-1985.5094
10164.655
9047.00769
-5625.30514
-5608.2186
-370.066953
9909.32723
8396.08496
-6512.23634
-4705.74517
9920.33394
8540.24279
-4754.82521
-2497.96722
10293.669
8932.94409
-3646.37454
-1863.01255
)
;

boundaryField
{
    closed
    {
        type            lookUpEnthalpy;
        h0              uniform 256274.97;
        value           uniform 256274.97;
    }
    open
    {
        type            zeroGradient;
    }
    sides
    {
        type            empty;
    }
    procBoundary0to1
    {
        type            processor;
        value           uniform 10252.4569;
    }
}


// ************************************************************************* //
