/*--------------------------------*- C++ -*----------------------------------*\
| =========                 |                                                 |
| \\      /  F ield         | OpenFOAM: The Open Source CFD Toolbox           |
|  \\    /   O peration     | Version:  2306                                  |
|   \\  /    A nd           | Website:  www.openfoam.com                      |
|    \\/     M anipulation  |                                                 |
\*---------------------------------------------------------------------------*/
FoamFile
{
    version     2.0;
    format      ascii;
    arch        "LSB;label=32;scalar=64";
    class       volScalarField;
    location    "0.00098";
    object      prefDh_H2O;
}
// * * * * * * * * * * * * * * * * * * * * * * * * * * * * * * * * * * * * * //

dimensions      [1 1 -3 0 0 0 0];

internalField   nonuniform List<scalar> 
530
(
90.8886069
89.8565643
89.8173917
89.8194056
89.8195722
89.8195747
89.8195748
89.8195748
89.8195748
89.8195748
89.8195748
89.8195748
89.8195748
89.8195748
89.8195748
89.8195748
89.8195748
89.8195748
89.8195748
89.8195748
89.8195748
89.8195748
89.8195748
89.8195748
89.8195748
89.8195748
89.8195748
89.8195748
89.8195748
89.8195748
89.8195748
89.8195748
89.8195748
89.8195748
89.8195748
89.8195748
89.8195748
89.8195748
89.8195748
89.8195748
89.8195748
89.8195748
89.8195748
89.8195748
89.8195748
89.8195748
89.8195748
89.8195748
89.8195748
89.8195748
89.8195748
89.8195748
89.8195748
89.8195748
89.8195748
89.8195748
89.8195748
89.8195748
89.8195748
89.8195748
89.8195748
89.8195748
89.8195748
89.8195748
89.8195748
89.8195748
89.8195748
89.8195747
89.8195747
89.8195744
89.8195739
89.8195729
89.8195711
89.8195619
89.819556
89.8195456
89.8193407
89.819374
89.8216192
89.8221572
89.7977089
89.7867531
89.9280032
89.9844577
89.4102033
88.9792481
90.5401368
91.5149051
88.8434497
88.0565687
89.5798023
92.3001787
92.5744906
87.7108934
87.7302585
89.3578002
92.4492517
92.2747371
92.63405
87.706401
87.7180829
88.0166148
89.5281636
92.3056766
92.3780695
92.35044
92.5544999
87.764061
87.7602319
88.0504429
88.7341801
92.3588806
92.4664957
87.8146008
87.7578218
87.809014
88.1001088
92.6129997
92.3189643
92.7129466
92.362912
92.7024748
87.6841699
87.5940028
88.9861725
92.4258783
92.3911575
87.6971882
87.6971289
88.533305
92.3597478
92.375196
87.8811893
88.0862372
92.3054369
92.4284612
87.9260851
88.0572644
92.2949629
92.4445535
87.8885782
88.0990225
92.3332668
92.4365922
87.6531373
87.6776455
88.6012239
92.374603
92.3564475
87.9200167
88.1300615
92.3172945
92.404992
87.9382563
88.1420492
92.3310609
92.4171407
87.7154544
87.73818
88.7649696
92.3542049
92.3525386
87.9773625
88.1797691
92.3036337
92.3947004
87.9928534
88.2032451
92.32691
92.4071657
87.7393283
87.7574991
88.7185873
92.3823497
92.4412182
87.8319038
87.826073
88.0444603
88.653621
92.2865927
92.3665273
88.0239847
88.1703426
92.2839584
92.4149722
87.9737784
88.1821425
92.3218335
92.4260429
87.7412843
87.7709
88.8373811
92.3740593
92.3621336
87.949183
88.2281558
92.3674166
92.4024951
87.7275591
87.735622
88.7925837
92.4043431
92.4073515
87.7102272
87.717957
88.5263482
92.3778389
92.4065748
87.879509
88.0888596
92.3298383
92.477129
87.891875
88.0238121
92.3143141
92.5111023
87.8699573
88.0023227
92.3118906
92.5284389
87.8507356
87.993777
92.3118501
92.5361421
87.8452694
87.9967298
92.3102257
92.536636
87.8560106
88.0142972
92.3079595
92.5309429
87.8750041
88.0467025
92.3137898
92.519579
87.8526071
88.1072382
92.3561364
92.4942731
87.6174803
87.6504585
88.5299457
92.3990579
92.4066821
87.8926667
88.1497213
92.3327917
92.4524189
87.9266043
88.1683794
92.3402699
92.4567902
87.7170468
87.7432381
88.7749305
92.369699
92.3972784
87.9345324
88.2238511
92.3435042
92.436157
87.7681694
87.7863641
88.8905479
92.3495024
92.4095965
87.9682347
88.1824222
92.3221612
92.5003849
87.8460268
87.8568227
88.0750616
88.8700378
92.2568418
92.4061125
88.0363238
88.2670993
92.2999293
92.4489288
87.8031854
87.8269559
89.7471134
92.4006541
92.2706882
92.5734702
87.830168
87.8425924
88.0742107
89.0007788
92.3031798
92.4243713
87.8278775
87.8423803
89.2991454
92.361024
92.4307376
87.8360846
87.8422128
89.3381133
92.3637335
92.4480316
87.8215902
87.8286101
89.1760395
92.3718334
92.44974
87.7944425
87.8067265
88.8587245
92.3560172
92.4525392
87.9358042
88.2252583
92.3540888
92.49703
87.6768688
87.7028115
88.7024644
92.3849054
92.4426293
87.8992869
88.4175544
92.3798194
92.4388366
92.4134703
92.6993429
87.5993801
87.6066992
87.9315654
88.3733641
92.3198288
92.5115541
87.9143603
88.1350723
92.3054563
92.5527836
87.897183
88.1609769
92.3370471
92.5477103
87.6784246
87.7116183
88.7217679
92.3687179
92.4689323
87.9845541
88.2375355
92.2943724
92.5037757
88.0397354
88.2878776
92.3118614
92.5031296
87.8110828
87.840495
89.1372552
92.3991225
92.5529924
87.7653204
87.7536929
88.0389237
88.0628287
90.957714
92.3307403
92.4865548
92.3792401
92.6537143
87.6853393
87.6989027
88.9184586
92.4341135
92.6240138
87.6754656
87.6807127
87.9954066
87.9609512
89.7730384
92.3308647
92.4430754
92.3386252
92.7246607
87.9062444
88.1206081
92.3603743
92.6337407
87.6864146
87.7171146
88.7506462
92.403363
92.5547031
87.9078768
88.2679691
92.3837128
92.6067841
87.6247614
87.6570074
88.6547552
92.4725267
92.5782357
87.5821328
89.037384
92.6892474
88.0664805
88.385072
92.4485815
92.2721674
92.7495007
87.9678682
88.1310984
92.4156986
92.3715645
92.7736841
87.5490026
87.5653255
87.9505242
87.8979656
88.9742001
92.3602172
92.5865475
87.9414249
88.2737663
92.3542653
92.2601924
92.724713
87.9877056
88.1381642
92.3517098
92.6895679
87.6377029
87.6721975
88.713501
92.4137967
92.5976514
87.922417
88.3105827
92.3624148
92.3169724
92.6912651
87.6744912
87.6873787
88.9807784
92.4185326
92.6435936
87.7660229
87.7861546
89.0118285
92.4054655
92.6472993
87.8011821
87.8175542
89.104272
92.4052948
92.6423127
87.7742643
87.7904999
88.9699896
92.4066974
92.6799226
87.7649786
87.7839834
89.6248805
92.4228587
92.4740775
92.4421188
92.8106767
87.6108451
87.6317819
88.8715543
92.4529364
92.7210683
87.6725108
87.6905916
88.688843
92.4007034
92.7114857
87.8994433
88.2315875
92.3310684
92.7593221
87.9387353
88.2272735
92.3156468
92.7701229
87.9219646
88.2715416
92.3548404
92.7579064
87.6725091
87.7161582
88.7669101
92.3992032
92.6948161
87.9458399
88.2753779
92.3256461
92.7375635
87.9508996
88.2914202
92.3457795
92.7421831
87.7017577
87.7409205
88.8178677
92.3792419
92.6890915
87.967434
88.298093
92.3075101
92.7204947
87.9982708
88.3477645
92.3373468
92.7042319
87.7487005
87.7939852
88.7998075
92.4625052
92.8645378
87.6190409
87.9204065
92.4181034
92.8549011
87.8977586
88.2842397
92.3305832
92.7438665
88.0645362
88.3839559
)
;

boundaryField
{
    closed
    {
        type            calculated;
        value           uniform 120.213119;
    }
    open
    {
        type            calculated;
        value           nonuniform List<scalar> 0();
    }
    sides
    {
        type            empty;
    }
    procBoundary0to1
    {
        type            processor;
        value           uniform 92.3167106;
    }
}


// ************************************************************************* //
