/*--------------------------------*- C++ -*----------------------------------*\
| =========                 |                                                 |
| \\      /  F ield         | OpenFOAM: The Open Source CFD Toolbox           |
|  \\    /   O peration     | Version:  2306                                  |
|   \\  /    A nd           | Website:  www.openfoam.com                      |
|    \\/     M anipulation  |                                                 |
\*---------------------------------------------------------------------------*/
FoamFile
{
    version     2.0;
    format      ascii;
    arch        "LSB;label=32;scalar=64";
    class       volScalarField;
    location    "0.00098";
    object      prefDPV_T;
}
// * * * * * * * * * * * * * * * * * * * * * * * * * * * * * * * * * * * * * //

dimensions      [1 -1 -1 -1 0 0 0];

internalField   nonuniform List<scalar> 
530
(
6.04220766e-10
5.98019662e-10
5.97545771e-10
5.97549533e-10
5.97549777e-10
5.97549775e-10
5.97549775e-10
5.97549775e-10
5.97549775e-10
5.97549775e-10
5.97549775e-10
5.97549775e-10
5.97549775e-10
5.97549775e-10
5.97549775e-10
5.97549775e-10
5.97549775e-10
5.97549775e-10
5.97549775e-10
5.97549775e-10
5.97549775e-10
5.97549775e-10
5.97549775e-10
5.97549775e-10
5.97549775e-10
5.97549775e-10
5.97549775e-10
5.97549775e-10
5.97549775e-10
5.97549775e-10
5.97549775e-10
5.97549775e-10
5.97549775e-10
5.97549775e-10
5.97549775e-10
5.97549775e-10
5.97549775e-10
5.97549775e-10
5.97549775e-10
5.97549775e-10
5.97549775e-10
5.97549775e-10
5.97549775e-10
5.97549775e-10
5.97549775e-10
5.97549775e-10
5.97549775e-10
5.97549775e-10
5.97549775e-10
5.97549775e-10
5.97549775e-10
5.97549775e-10
5.97549775e-10
5.97549775e-10
5.97549775e-10
5.97549775e-10
5.97549775e-10
5.97549775e-10
5.97549775e-10
5.97549775e-10
5.97549775e-10
5.97549775e-10
5.97549775e-10
5.97549775e-10
5.97549775e-10
5.97549775e-10
5.97549775e-10
5.97549775e-10
5.97549775e-10
5.97549776e-10
5.97549777e-10
5.97549783e-10
5.97549792e-10
5.975498e-10
5.97549852e-10
5.97549979e-10
5.97549371e-10
5.97550015e-10
5.97560428e-10
5.97564078e-10
5.97459261e-10
5.97415065e-10
5.98029754e-10
5.98282584e-10
5.95805302e-10
5.94023892e-10
6.00732417e-10
6.05140318e-10
5.93437209e-10
5.90345717e-10
5.96550366e-10
6.0855028e-10
6.09934077e-10
5.88975843e-10
5.89128676e-10
5.95613905e-10
6.09284834e-10
6.08417528e-10
6.10227418e-10
5.889662e-10
5.89045848e-10
5.90185729e-10
5.96350515e-10
6.08572536e-10
6.08938318e-10
6.08796199e-10
6.09828072e-10
5.89215582e-10
5.89195863e-10
5.90371785e-10
5.93040896e-10
6.08826759e-10
6.09381502e-10
5.89493632e-10
5.89189711e-10
5.89539646e-10
5.90504252e-10
6.10101093e-10
6.08632672e-10
6.10585689e-10
6.08854695e-10
6.10537142e-10
5.88880349e-10
5.88634889e-10
5.94060776e-10
6.09168656e-10
6.09007718e-10
5.88942927e-10
5.8894288e-10
5.92197995e-10
6.08848579e-10
6.08933285e-10
5.89650324e-10
5.90413158e-10
6.08577796e-10
6.09200977e-10
5.89807349e-10
5.9032076e-10
6.08527194e-10
6.09277414e-10
5.89653741e-10
5.90501342e-10
6.08724427e-10
6.09231538e-10
5.88706402e-10
5.88891499e-10
5.92439085e-10
6.08916625e-10
6.08843931e-10
5.89831774e-10
5.90571909e-10
6.08631908e-10
6.09082656e-10
5.8987779e-10
5.90650577e-10
6.08708208e-10
6.09135906e-10
5.88966738e-10
5.89123166e-10
5.93121877e-10
6.08813245e-10
6.08821777e-10
5.90059816e-10
5.90777202e-10
6.08561485e-10
6.09028007e-10
5.90100981e-10
5.90902815e-10
6.08684263e-10
6.09082329e-10
5.89075689e-10
5.89212302e-10
5.92945327e-10
6.08954622e-10
6.09263911e-10
5.89482588e-10
5.8942442e-10
5.90323768e-10
5.92684496e-10
6.08475049e-10
6.08888438e-10
5.90218491e-10
5.90758826e-10
6.08466448e-10
6.0912776e-10
5.90009551e-10
5.90832912e-10
6.08661234e-10
6.09174862e-10
5.89075691e-10
5.89278884e-10
5.93430498e-10
6.08905903e-10
6.0886575e-10
5.89980659e-10
5.90986295e-10
6.0887922e-10
6.09059474e-10
5.89063049e-10
5.89127109e-10
5.93273302e-10
6.09064521e-10
6.09084434e-10
5.88998273e-10
5.89051698e-10
5.92186262e-10
6.0893269e-10
6.09085058e-10
5.89672328e-10
5.90458425e-10
6.08694732e-10
6.09437745e-10
5.89692737e-10
5.90229631e-10
6.08621261e-10
6.09604478e-10
5.89589033e-10
5.90161606e-10
6.08611839e-10
6.09689419e-10
5.89505086e-10
5.90134982e-10
6.08612941e-10
6.09727275e-10
5.89480414e-10
5.90149025e-10
6.08605019e-10
6.09729372e-10
5.89523649e-10
5.90219002e-10
6.08592777e-10
6.09700424e-10
5.89604366e-10
5.90345666e-10
6.08620503e-10
6.09643041e-10
5.89524302e-10
5.9058019e-10
6.08835652e-10
6.09512828e-10
5.88584433e-10
5.88813498e-10
5.92165929e-10
6.09035666e-10
6.09091157e-10
5.89737822e-10
5.90674479e-10
6.08707676e-10
6.09315965e-10
5.89841505e-10
5.90777315e-10
6.0875219e-10
6.09330926e-10
5.88985411e-10
5.89162571e-10
5.93173384e-10
6.08888552e-10
6.09042945e-10
5.89897408e-10
5.90965567e-10
6.08765051e-10
6.09231638e-10
5.89196504e-10
5.89318059e-10
5.93656047e-10
6.087887e-10
6.09103499e-10
5.90020025e-10
5.90812027e-10
6.08658245e-10
6.09556178e-10
5.89502996e-10
5.8956908e-10
5.9040383e-10
5.93585049e-10
6.08330553e-10
6.09084868e-10
5.90246958e-10
5.91148615e-10
6.08551778e-10
6.09292128e-10
5.89325825e-10
5.89487147e-10
5.97272698e-10
6.09041101e-10
6.08395424e-10
6.09915593e-10
5.89459954e-10
5.89541364e-10
5.90421383e-10
5.94139615e-10
6.08560302e-10
6.09170084e-10
5.89437301e-10
5.89535423e-10
5.95368196e-10
6.08845869e-10
6.09204491e-10
5.89498086e-10
5.89534066e-10
5.95545103e-10
6.08859107e-10
6.09286285e-10
5.89439877e-10
5.894899e-10
5.94865598e-10
6.08900249e-10
6.0929614e-10
5.89329593e-10
5.89406731e-10
5.93543973e-10
6.08820809e-10
6.09313307e-10
5.8989509e-10
5.90995542e-10
6.08819897e-10
6.09531942e-10
5.88832579e-10
5.89005813e-10
5.92878351e-10
6.08965612e-10
6.092673e-10
5.89763589e-10
5.91747988e-10
6.08945079e-10
6.09239763e-10
6.09111928e-10
6.10549425e-10
5.885687e-10
5.88608458e-10
5.8988237e-10
5.91579431e-10
6.086466e-10
6.0960865e-10
5.8977217e-10
5.90652035e-10
6.08579001e-10
6.09813e-10
5.89693856e-10
5.90770252e-10
6.0874099e-10
6.097818e-10
5.88821354e-10
5.89047403e-10
5.92951442e-10
6.08884712e-10
6.09399393e-10
5.90087001e-10
5.91029551e-10
6.0851548e-10
6.09568022e-10
5.90281749e-10
5.91260728e-10
6.08607134e-10
6.09557197e-10
5.89372831e-10
5.89566472e-10
5.94695373e-10
6.0903144e-10
6.09812928e-10
5.89257933e-10
5.89192624e-10
5.90356835e-10
5.90382761e-10
6.02612872e-10
6.08689161e-10
6.09461579e-10
6.08932796e-10
6.10303846e-10
5.88922369e-10
5.89027964e-10
5.93809613e-10
6.09208658e-10
6.10162574e-10
5.88877668e-10
5.88916616e-10
5.90128913e-10
5.8999696e-10
5.97403878e-10
6.08695586e-10
6.09253264e-10
6.08734731e-10
6.10666688e-10
5.89767604e-10
5.9066035e-10
6.08848911e-10
6.10202163e-10
5.88888449e-10
5.89106271e-10
5.93100867e-10
6.09052338e-10
6.09818466e-10
5.89810595e-10
5.91196877e-10
6.08963985e-10
6.10070206e-10
5.88645578e-10
5.88869587e-10
5.92692991e-10
6.09399029e-10
6.099425e-10
5.88549248e-10
5.9427315e-10
6.1049111e-10
5.90396084e-10
5.91648266e-10
6.0928851e-10
6.08394449e-10
6.10797009e-10
5.90040175e-10
5.9066533e-10
6.09117598e-10
6.08894042e-10
6.10909456e-10
5.88382275e-10
5.88494578e-10
5.89942477e-10
5.89793487e-10
5.94025068e-10
6.08838137e-10
6.09980132e-10
5.89935222e-10
5.911903e-10
6.08810906e-10
6.08339419e-10
6.10669463e-10
5.90077845e-10
5.90721484e-10
6.08807362e-10
6.10481557e-10
5.88688508e-10
5.88931725e-10
5.92940001e-10
6.09105565e-10
6.10034893e-10
5.89873668e-10
5.91344257e-10
6.08850203e-10
6.08621449e-10
6.10496616e-10
5.88877791e-10
5.88973878e-10
5.9407652e-10
6.09130251e-10
6.10254935e-10
5.89243583e-10
5.89376923e-10
5.94206543e-10
6.09061453e-10
6.10271858e-10
5.89387565e-10
5.89502682e-10
5.94590703e-10
6.09059895e-10
6.10248939e-10
5.89283763e-10
5.89390527e-10
5.94033294e-10
6.09070017e-10
6.10436919e-10
5.89238669e-10
5.89362767e-10
5.96779462e-10
6.09146263e-10
6.09398252e-10
6.09244552e-10
6.11085206e-10
5.88646592e-10
5.88790148e-10
5.93632536e-10
6.09300945e-10
6.10641081e-10
5.88869885e-10
5.88999741e-10
5.92869327e-10
6.0904256e-10
6.10599165e-10
5.89752746e-10
5.91087954e-10
6.08702128e-10
6.10832378e-10
5.89876202e-10
5.91103501e-10
6.08627441e-10
6.10882368e-10
5.89805507e-10
5.91287414e-10
6.08826035e-10
6.10818602e-10
5.88824884e-10
5.89124914e-10
5.93165037e-10
6.09031095e-10
6.10519376e-10
5.89944839e-10
5.91244445e-10
6.08673853e-10
6.10725622e-10
5.89926371e-10
5.913356e-10
6.08780839e-10
6.10744555e-10
5.88934489e-10
5.89203472e-10
5.9336816e-10
6.08934636e-10
6.10493e-10
5.90013442e-10
5.91322645e-10
6.08584979e-10
6.10641357e-10
5.90110667e-10
5.91557887e-10
6.08735077e-10
6.1055254e-10
5.8915205e-10
5.89451001e-10
5.9332856e-10
6.09342886e-10
6.11362095e-10
5.88678741e-10
5.89895665e-10
6.09134986e-10
6.11303388e-10
5.89765838e-10
5.9135765e-10
6.08690975e-10
6.10748222e-10
5.9039553e-10
5.91726046e-10
)
;

boundaryField
{
    closed
    {
        type            calculated;
        value           uniform 7.28055398e-10;
    }
    open
    {
        type            calculated;
        value           nonuniform List<scalar> 0();
    }
    sides
    {
        type            empty;
    }
    procBoundary0to1
    {
        type            processor;
        value           uniform 6.08630401e-10;
    }
}


// ************************************************************************* //
