/*--------------------------------*- C++ -*----------------------------------*\
| =========                 |                                                 |
| \\      /  F ield         | OpenFOAM: The Open Source CFD Toolbox           |
|  \\    /   O peration     | Version:  2306                                  |
|   \\  /    A nd           | Website:  www.openfoam.com                      |
|    \\/     M anipulation  |                                                 |
\*---------------------------------------------------------------------------*/
FoamFile
{
    version     2.0;
    format      ascii;
    arch        "LSB;label=32;scalar=64";
    class       volScalarField;
    location    "0.00142";
    object      H;
}
// * * * * * * * * * * * * * * * * * * * * * * * * * * * * * * * * * * * * * //

dimensions      [0 0 0 0 0 0 0];

internalField   nonuniform List<scalar> 
530
(
1.32940775e-08
2.18334156e-08
2.22916693e-08
2.22522441e-08
2.22483248e-08
2.22482519e-08
2.22482495e-08
2.22482494e-08
2.22482494e-08
2.22482494e-08
2.22482494e-08
2.22482494e-08
2.22482494e-08
2.22482494e-08
2.22482494e-08
2.22482494e-08
2.22482494e-08
2.22482494e-08
2.22482494e-08
2.22482494e-08
2.22482494e-08
2.22482494e-08
2.22482494e-08
2.22482494e-08
2.22482494e-08
2.22482494e-08
2.22482494e-08
2.22482494e-08
2.22482494e-08
2.22482494e-08
2.22482494e-08
2.22482494e-08
2.22482494e-08
2.22482494e-08
2.22482494e-08
2.22482494e-08
2.22482494e-08
2.22482494e-08
2.22482494e-08
2.22482494e-08
2.22482494e-08
2.22482494e-08
2.22482494e-08
2.22482494e-08
2.22482494e-08
2.22482494e-08
2.22482494e-08
2.22482494e-08
2.22482494e-08
2.22482494e-08
2.22482494e-08
2.22482494e-08
2.22482494e-08
2.22482494e-08
2.22482494e-08
2.22482494e-08
2.22482494e-08
2.22482494e-08
2.22482494e-08
2.22482494e-08
2.22482494e-08
2.22482494e-08
2.22482495e-08
2.22482496e-08
2.22482498e-08
2.22482506e-08
2.22482523e-08
2.22482555e-08
2.22482562e-08
2.22482758e-08
2.22483656e-08
2.22483014e-08
2.22479207e-08
2.22493648e-08
2.22502712e-08
2.22467342e-08
2.22430764e-08
2.22574319e-08
2.22570086e-08
2.22488973e-08
2.22305449e-08
2.22354311e-08
2.22939825e-08
2.26206094e-08
2.26977201e-08
2.16194347e-08
2.02309586e-08
2.03200712e-08
2.85916152e-08
3.48451859e-08
3.79320689e-08
2.68054027e-08
8.65040559e-10
1.40470229e-09
1.39684707e-09
2.52118254e-08
4.08631694e-08
4.14772366e-08
4.11068112e-08
4.45926914e-08
4.02136611e-08
3.93930251e-09
1.25324392e-09
1.19869558e-09
1.32285853e-09
1.35161019e-09
1.81240785e-08
3.96290241e-08
4.25653301e-08
4.26208325e-08
4.49815807e-08
4.63440075e-08
2.26299979e-08
7.18880498e-10
1.10209108e-09
1.13283922e-09
1.22384835e-09
1.24623319e-09
1.17919746e-08
3.66914325e-08
4.18608422e-08
4.19259565e-08
4.44692163e-08
4.63337121e-08
2.46011024e-08
7.71280547e-10
1.22763252e-09
1.15238732e-08
3.50421874e-08
4.34255391e-08
4.48132708e-08
2.50691069e-08
6.37294164e-10
1.16110257e-09
1.02049301e-09
1.75996351e-08
4.54694022e-08
4.82920973e-08
1.88000569e-08
8.75356043e-10
1.28358241e-08
3.87398281e-08
3.95908103e-08
1.35420077e-08
8.72082662e-10
2.15825951e-08
3.5057125e-08
1.63412332e-08
9.8365274e-10
5.98078974e-09
3.57196509e-08
3.51746986e-08
9.36482205e-09
7.61825212e-10
2.04587533e-08
4.47232711e-08
4.25577213e-08
1.54081755e-08
1.12139371e-09
9.18711395e-10
1.92684007e-08
3.75565281e-08
3.35261292e-08
2.40857438e-09
8.1357496e-10
2.05801687e-08
3.76107971e-08
3.28364176e-08
6.62492275e-10
6.16296231e-10
2.68289502e-08
4.10746585e-08
4.04778613e-08
4.05057109e-08
4.10374313e-08
3.23954246e-08
5.76953425e-10
5.81303833e-10
2.7594532e-08
3.67759425e-08
2.60384476e-08
8.49377025e-10
6.08462774e-10
3.11588948e-08
3.75703252e-08
2.29533756e-08
1.01102308e-09
7.58378864e-10
3.20500406e-08
4.48505895e-08
4.21216277e-08
2.54629044e-08
9.50210457e-10
8.37052612e-10
3.15027739e-08
3.14859157e-08
1.08819459e-09
9.85908795e-10
3.23211465e-08
3.86328958e-08
2.04624028e-08
8.11678878e-10
1.32237047e-08
4.12247372e-08
3.77999873e-08
3.02191987e-09
1.61255092e-09
3.42462593e-08
3.58736088e-08
3.2101906e-09
4.68438083e-10
3.18051666e-08
4.28390417e-08
2.86088601e-08
6.14948416e-10
5.68466934e-09
3.96043786e-08
4.09851012e-08
8.42300367e-09
9.4850296e-10
2.8270623e-08
4.1473899e-08
2.77450311e-08
1.01425423e-09
8.75210126e-09
3.95651636e-08
4.27018889e-08
1.4361909e-08
7.51306991e-10
2.48049689e-08
3.68562647e-08
1.88361148e-08
9.65672701e-10
2.21786485e-08
3.60927073e-08
2.08762937e-08
1.16763681e-09
1.96454831e-08
3.48589354e-08
2.22718594e-08
2.09648183e-09
1.6693596e-08
3.73448459e-08
3.32545578e-08
5.95374497e-09
3.59657164e-09
3.10410858e-08
4.26567186e-08
2.75332279e-08
2.83134706e-09
1.27224222e-08
3.40266754e-08
2.88216691e-08
3.98882623e-09
1.10729193e-08
3.29964734e-08
2.88078848e-08
4.29174913e-09
6.68612278e-09
3.32896175e-08
4.10100729e-08
2.61011052e-08
9.44310808e-10
8.47687411e-09
3.5151035e-08
3.50420843e-08
7.90642826e-09
5.21680389e-09
2.94158822e-08
4.27292607e-08
3.22440844e-08
3.47995464e-09
5.23805209e-09
3.1434221e-08
3.09264997e-08
4.24853128e-09
5.39112377e-09
3.22134661e-08
3.20984611e-08
5.00592764e-09
3.82531796e-09
3.08749765e-08
4.41849419e-08
3.36001549e-08
2.96943839e-09
3.51270475e-09
3.17286083e-08
3.1748148e-08
3.4352488e-09
2.26840745e-09
3.04723665e-08
4.00230246e-08
4.1472949e-08
4.48493066e-08
3.44536514e-08
2.33119059e-09
2.06214577e-09
3.09629233e-08
3.13337363e-08
2.20182474e-09
5.37645375e-10
2.80063592e-08
4.00554632e-08
2.99969987e-08
6.22653245e-10
6.83260161e-10
3.07413401e-08
4.03772434e-08
2.78688602e-08
7.48371939e-10
6.65588297e-10
3.39911867e-08
4.76895735e-08
3.61617444e-08
1.36131432e-09
5.54455374e-10
3.0277868e-08
3.91650473e-08
2.57469133e-08
8.97350329e-10
8.56007982e-10
3.13252126e-08
3.99861646e-08
2.61158867e-08
9.12164039e-10
8.6313177e-10
3.11510319e-08
4.127608e-08
4.27532308e-08
2.80681959e-08
8.62963714e-10
5.67704455e-10
3.51862176e-08
3.74570294e-08
8.72883408e-09
9.44674212e-10
1.93290043e-08
4.02930428e-08
3.37982358e-08
6.82946287e-10
7.06917593e-10
3.13863078e-08
4.44777887e-08
3.21695068e-08
8.33599373e-10
7.96934314e-10
3.25486232e-08
4.4837083e-08
3.19628511e-08
8.71725163e-10
8.10857827e-10
3.3479559e-08
4.54608994e-08
3.21223772e-08
9.24515203e-10
8.85563197e-10
3.28559795e-08
4.2541257e-08
4.5088928e-08
3.44304049e-08
8.34897629e-10
6.14941302e-10
3.4836046e-08
3.27640349e-08
9.86663973e-10
8.14978515e-10
3.42327422e-08
4.58725966e-08
3.18622541e-08
9.52820693e-10
7.1887413e-10
3.41074734e-08
3.20224299e-08
1.06055396e-09
8.49178937e-10
3.51226082e-08
4.66925761e-08
3.23144571e-08
9.71674177e-10
6.86638861e-10
3.63676301e-08
3.34522344e-08
1.04577628e-09
7.77439393e-10
3.79941673e-08
4.85946845e-08
3.28480157e-08
9.58774049e-10
6.04328456e-10
3.70118606e-08
3.31493381e-08
1.07087663e-09
7.55638718e-10
3.87888127e-08
4.80680966e-08
3.172323e-08
9.9501518e-10
5.36169102e-10
3.70231364e-08
3.24134293e-08
1.1017263e-09
7.23981583e-10
4.03572904e-08
4.77073488e-08
2.98139223e-08
1.03831616e-09
7.31363259e-10
4.09126288e-08
4.73110981e-08
2.89169254e-08
1.0461384e-09
7.09828987e-10
4.15668153e-08
4.73939293e-08
2.93439506e-08
1.02975208e-09
1.32471385e-09
3.76681074e-08
3.13371907e-08
1.11410535e-09
3.95315666e-09
3.73112164e-08
3.02542092e-08
1.14119861e-09
6.02091236e-10
4.34846298e-08
4.77170115e-08
2.79276783e-08
1.03841314e-09
3.38384224e-09
3.79503327e-08
3.03085196e-08
1.14403087e-09
4.91989561e-09
3.68178105e-08
2.91082248e-08
1.17938791e-09
6.37682453e-10
4.29358822e-08
4.52139851e-08
2.43001054e-08
1.12252517e-09
7.49293218e-10
4.11520063e-08
4.26527105e-08
4.01685344e-08
4.1977937e-08
2.49865138e-08
1.16522529e-09
8.40254796e-10
4.03136659e-08
4.27016418e-08
2.32803624e-08
1.145821e-09
8.60526964e-10
4.11594573e-08
4.50983454e-08
2.68546389e-08
1.08365061e-09
4.26996659e-10
3.66703234e-08
3.14471935e-08
1.09772354e-09
3.00316275e-09
3.74182036e-08
3.13307587e-08
1.05607016e-09
3.9378269e-09
3.72282181e-08
3.17024943e-08
1.02064856e-09
9.52749502e-10
4.21643634e-08
4.8405506e-08
2.97229572e-08
9.10456225e-10
9.51686767e-10
4.02316039e-08
4.74237312e-08
2.97147131e-08
8.89221643e-10
9.79961317e-10
3.84644079e-08
4.67570327e-08
2.99027562e-08
8.51881573e-10
9.83314864e-10
3.69125254e-08
4.68289488e-08
3.04299657e-08
8.04851486e-10
4.97424242e-10
3.45440009e-08
3.31272892e-08
7.8030809e-10
9.49103245e-10
3.48964127e-08
4.69949822e-08
3.22718536e-08
6.46594231e-10
5.47469445e-10
3.37962143e-08
3.36619706e-08
5.37108349e-10
9.03868339e-10
3.22369685e-08
4.55742709e-08
3.4122341e-08
6.07268136e-10
9.05595134e-10
3.00521641e-08
4.46103309e-08
3.29362309e-08
2.76852821e-09
1.22924475e-09
1.13430243e-09
3.33176836e-08
4.36820019e-08
4.26669569e-08
4.42498258e-08
3.64420745e-08
4.41987192e-09
1.22614558e-09
1.16601604e-09
3.14339551e-08
4.35197309e-08
3.68204461e-08
2.85552184e-09
1.04678446e-09
2.36063281e-08
)
;

boundaryField
{
    closed
    {
        type            calculated;
        value           uniform 2.7664983e-12;
    }
    open
    {
        type            calculated;
        value           nonuniform List<scalar> 0();
    }
    sides
    {
        type            empty;
    }
    procBoundary0to1
    {
        type            processor;
        value           uniform 4.02360258e-08;
    }
}


// ************************************************************************* //
