/*--------------------------------*- C++ -*----------------------------------*\
| =========                 |                                                 |
| \\      /  F ield         | OpenFOAM: The Open Source CFD Toolbox           |
|  \\    /   O peration     | Version:  2306                                  |
|   \\  /    A nd           | Website:  www.openfoam.com                      |
|    \\/     M anipulation  |                                                 |
\*---------------------------------------------------------------------------*/
FoamFile
{
    version     2.0;
    format      ascii;
    arch        "LSB;label=32;scalar=64";
    class       volScalarField;
    location    "0.00142";
    object      prefDh_H2O;
}
// * * * * * * * * * * * * * * * * * * * * * * * * * * * * * * * * * * * * * //

dimensions      [1 1 -3 0 0 0 0];

internalField   nonuniform List<scalar> 
530
(
92.0449929
89.9522142
89.8136472
89.8190179
89.8195637
89.8195744
89.8195748
89.8195748
89.8195748
89.8195748
89.8195748
89.8195748
89.8195748
89.8195748
89.8195748
89.8195748
89.8195748
89.8195748
89.8195748
89.8195748
89.8195748
89.8195748
89.8195748
89.8195748
89.8195748
89.8195748
89.8195748
89.8195748
89.8195748
89.8195748
89.8195748
89.8195748
89.8195748
89.8195748
89.8195748
89.8195748
89.8195748
89.8195748
89.8195748
89.8195748
89.8195748
89.8195748
89.8195748
89.8195748
89.8195748
89.8195748
89.8195748
89.8195748
89.8195748
89.8195748
89.8195748
89.8195748
89.8195748
89.8195748
89.8195748
89.8195748
89.8195748
89.8195748
89.8195748
89.8195748
89.8195748
89.8195748
89.8195748
89.8195748
89.8195747
89.8195746
89.8195743
89.8195738
89.8195736
89.8195706
89.819558
89.8195654
89.8196141
89.8194179
89.8192917
89.8197543
89.8202313
89.8183035
89.8183375
89.8194005
89.8218123
89.8211389
89.8133592
89.7702443
89.7601429
89.9027287
90.0892543
90.0765176
89.0242682
88.295701
88.1739692
89.2288009
92.6902646
92.1930076
92.201373
89.4338597
88.0044956
87.9973337
87.9948127
87.8935469
88.0795851
92.5044772
92.3283111
92.3801084
92.2655523
92.2381553
90.376634
88.0386856
87.948685
87.9634736
87.8650273
87.8347628
89.7690823
92.8238934
92.4684115
92.4411277
92.3547143
92.3360552
91.2727318
88.153089
87.9962741
87.9977884
87.882893
87.8420048
89.5057027
92.7744679
92.3495911
91.3006659
88.2877709
87.9275043
87.9181414
89.4473573
92.9002805
92.4157857
92.5441192
90.4558085
87.822813
87.7312622
90.2900783
92.6775109
91.1211593
88.1306524
88.0860547
91.0400392
92.6812872
89.9077136
88.2620165
90.6364552
92.5792454
92.173751
88.2511226
88.2859723
91.653315
92.7836331
90.05852
87.8685096
87.936431
90.7829572
92.4515846
92.6374705
90.2210894
88.1895509
88.4416504
92.7185554
92.735384
90.0424152
88.1819089
88.5157978
93.019273
92.9199346
89.2315103
88.0186107
88.025736
88.0206419
88.0318866
88.5618947
92.9566075
92.9529531
89.1424874
88.2470653
89.3291072
92.704377
93.0065312
88.7189594
88.1914441
89.7261252
92.5565411
93.0000055
88.6156125
87.8816872
87.9864473
89.4029815
92.6108807
92.9794285
88.7029913
88.6991187
92.9579206
92.9594109
88.5983761
88.2025285
90.0593441
92.7396714
91.0959853
88.0773682
88.1707371
92.6606519
92.8882506
88.3883225
88.2863409
92.6403772
93.0575152
88.6462129
88.0491944
89.0135818
92.9212664
92.2467846
88.1305916
88.0885299
91.8181859
92.981581
89.0534202
88.1012818
89.1175198
92.9735589
91.75738
88.1256341
88.0196755
90.9256398
93.0279184
89.4856666
88.2656658
90.2864476
92.9981755
89.8288316
88.2952957
90.0044154
92.9581895
90.1715988
88.3471441
89.8164083
92.8026468
90.5863402
88.2330197
88.4858776
92.1946683
92.5538224
88.7207906
88.0277657
89.1378127
92.6977656
91.1655011
88.4135483
88.9872743
92.5161379
91.4146178
88.5304509
88.9930397
92.4530318
92.0651401
88.4815956
88.1097856
89.3207318
92.9931642
91.8076636
88.2722207
88.2819496
91.9056941
92.3071775
88.9135877
88.0277625
88.5866343
92.584409
92.3003643
88.705681
88.7565395
92.4706834
92.2878076
88.6146923
88.6223616
92.352702
92.52222
88.7426785
87.9702501
88.43394
92.6715781
92.5817979
88.6736901
88.667741
92.6030972
92.776464
88.7974727
88.1131903
87.9958721
87.9294822
88.3462739
92.7744013
92.8154291
88.7663544
88.7242095
92.7904276
92.9930832
89.0955325
88.1835576
88.8643751
92.9141042
92.8578733
88.7701043
88.1522634
89.1112318
92.7987298
92.8745709
88.3845787
87.8358479
88.2254453
92.9351735
92.9773449
88.8284201
88.2031862
89.372489
92.6607214
92.6990042
88.7015519
88.1526752
89.3259597
92.6471054
92.6920461
88.7334113
88.061491
88.0163624
89.0926815
92.6927038
92.9651478
88.3053177
88.2348059
91.7731874
92.6170996
90.2123033
88.1546257
88.4384367
92.8591904
92.8361523
88.7047261
87.9986631
88.6099733
92.7209656
92.7532656
88.5698992
87.9721161
88.6301344
92.6861512
92.7407482
88.4668533
87.9391117
88.6122545
92.6373696
92.6726958
88.5515642
88.0025647
87.9166926
88.3655692
92.7198825
92.9218372
88.3647348
88.5751704
92.5819608
92.7364951
88.3864567
87.9274337
88.6501456
92.6094335
92.8260297
88.4292482
88.6584664
92.5138275
92.7046351
88.2884668
87.8869827
88.5987331
92.5922994
92.8559724
88.2953155
88.5005562
92.5282736
92.7712446
88.1784421
87.8019179
88.5362989
92.6044755
92.9316544
88.2679699
88.5315163
92.5045708
92.7911865
88.1540263
87.8224376
88.6652015
92.570561
92.9943571
88.2597404
88.611487
92.4756941
92.8203326
88.0892092
87.829715
88.8816904
92.5315504
92.8139908
88.0752562
87.8410738
88.987145
92.5240081
92.83391
88.0545124
87.8380162
88.941631
92.5383805
92.9686574
88.2185639
88.7303379
92.4624656
92.5321202
88.2157956
88.8501429
92.4379358
92.9332734
87.9653378
87.8266239
89.1082548
92.5301627
92.6377541
88.1948936
88.8409469
92.4350471
92.3831442
88.2196658
88.9809198
92.4019375
92.9005032
87.983204
87.9232753
89.5559631
92.450797
92.7982386
88.0733483
88.0256812
88.0694135
88.0173463
89.468402
92.4122254
92.7141778
88.093741
88.0169252
89.686733
92.4282772
92.6957813
88.0541097
87.921746
89.2418518
92.4868911
93.0948962
88.2187898
88.7185545
92.4757608
92.6855131
88.174562
88.7239765
92.5140735
92.5302935
88.1813342
88.6865936
92.545894
92.6134357
87.9637082
87.7815403
88.8975386
92.6462397
92.6144001
88.0421249
87.8179686
88.8988384
92.6657525
92.588311
88.1039369
87.8488993
88.8775597
92.700281
92.5847875
88.1492993
87.8467786
88.8148243
92.7442077
93.030099
88.3470137
88.5351016
92.7673651
92.6152912
88.2613699
87.8442278
88.6024079
92.8916
92.9838356
88.4299502
88.4753639
92.9939251
92.65632
88.5679371
87.9093708
88.4051584
93.0055976
92.6547451
88.826508
87.952168
88.5118741
92.6404136
92.3498411
92.4404022
88.4454246
87.9615513
87.9469764
87.9368914
88.2082254
92.4050095
92.3536666
92.411013
88.6642743
87.9952156
88.2324002
92.6478096
92.5248826
89.6413531
)
;

boundaryField
{
    closed
    {
        type            calculated;
        value           uniform 120.28103;
    }
    open
    {
        type            calculated;
        value           nonuniform List<scalar> 0();
    }
    sides
    {
        type            empty;
    }
    procBoundary0to1
    {
        type            processor;
        value           uniform 88.0843749;
    }
}


// ************************************************************************* //
