/*--------------------------------*- C++ -*----------------------------------*\
| =========                 |                                                 |
| \\      /  F ield         | OpenFOAM: The Open Source CFD Toolbox           |
|  \\    /   O peration     | Version:  2306                                  |
|   \\  /    A nd           | Website:  www.openfoam.com                      |
|    \\/     M anipulation  |                                                 |
\*---------------------------------------------------------------------------*/
FoamFile
{
    version     2.0;
    format      ascii;
    arch        "LSB;label=32;scalar=64";
    class       volScalarField;
    location    "0.00142";
    object      sourcePV;
}
// * * * * * * * * * * * * * * * * * * * * * * * * * * * * * * * * * * * * * //

dimensions      [1 -3 -1 0 0 0 0];

internalField   nonuniform List<scalar> 
530
(
0.0495953748
0.0803843319
0.0817037785
0.0815463273
0.0815307727
0.0815304558
0.0815304434
0.0815304428
0.0815304428
0.0815304428
0.0815304428
0.0815304428
0.0815304428
0.0815304428
0.0815304428
0.0815304428
0.0815304428
0.0815304428
0.0815304428
0.0815304428
0.0815304428
0.0815304428
0.0815304428
0.0815304428
0.0815304428
0.0815304428
0.0815304428
0.0815304428
0.0815304428
0.0815304428
0.0815304428
0.0815304428
0.0815304428
0.0815304428
0.0815304428
0.0815304428
0.0815304428
0.0815304428
0.0815304428
0.0815304428
0.0815304428
0.0815304428
0.0815304428
0.0815304428
0.0815304428
0.0815304428
0.0815304428
0.0815304428
0.0815304428
0.0815304428
0.0815304428
0.0815304428
0.0815304428
0.0815304428
0.0815304428
0.0815304428
0.0815304428
0.0815304428
0.0815304428
0.0815304428
0.0815304428
0.0815304429
0.081530443
0.0815304436
0.0815304449
0.0815304485
0.0815304569
0.0815304737
0.0815304828
0.0815305761
0.0815309338
0.0815307758
0.0815295204
0.0815349466
0.0815385416
0.081526314
0.0815137549
0.0815665932
0.0815666708
0.0815386179
0.0814745899
0.0814943428
0.0817073345
0.0828891678
0.0831689569
0.079284057
0.0742732079
0.0746014211
0.104374309
0.126758944
0.136627605
0.0979393807
0.00418532224
0.00650350563
0.00646185783
0.0922167147
0.146043492
0.147935425
0.146813519
0.157730834
0.143850028
0.0151616719
0.0058886272
0.0056421168
0.0061733201
0.00630327627
0.0666716016
0.142186147
0.151390417
0.151518257
0.158996731
0.163242173
0.082870836
0.00364058872
0.00524048964
0.00535838146
0.0057707037
0.0058470388
0.0437801364
0.132912824
0.14910807
0.149302389
0.157383089
0.163191222
0.0899737525
0.00389856311
0.00580311766
0.0428435344
0.127457901
0.154073894
0.158337426
0.091680249
0.00326444823
0.00547133292
0.00489061992
0.0647447877
0.160602095
0.169476723
0.0690739246
0.00430544602
0.0475603654
0.139212932
0.141933521
0.0500464945
0.0042709296
0.0791492505
0.127519362
0.0601809735
0.00471779192
0.022616693
0.129668066
0.127907415
0.0349183415
0.00382636867
0.0750946135
0.158198367
0.151401638
0.0567547273
0.00531076316
0.0044791374
0.0707928695
0.135438855
0.122044699
0.00965734078
0.00403725297
0.0755297177
0.135626302
0.119578059
0.00324596572
0.00318605931
0.098035676
0.146647887
0.144808836
0.144908247
0.146496736
0.117999818
0.00300464395
0.00305642405
0.100793882
0.132894763
0.0951906151
0.0041254891
0.00309896079
0.113573817
0.135475363
0.0840776874
0.0047993022
0.00360432216
0.116763819
0.158551021
0.149931074
0.093123965
0.004563311
0.00390950436
0.114806154
0.114745808
0.00478051151
0.00444281011
0.117733194
0.138680388
0.075094726
0.00395316521
0.0488621281
0.146939488
0.136234794
0.0117955922
0.00665668733
0.124611423
0.130033045
0.0124576801
0.00251936974
0.115887544
0.151946143
0.104428684
0.00312335045
0.0214710247
0.141847375
0.146176998
0.0314379917
0.0042687095
0.10321328
0.147632786
0.101325649
0.00450231067
0.032662353
0.141742012
0.151608958
0.0529991601
0.00351608383
0.09075131
0.133085191
0.0691961969
0.00428595847
0.0812806623
0.130673782
0.076575832
0.00503936606
0.0721390861
0.126766195
0.0816168565
0.00843871042
0.0614558603
0.13466801
0.121071406
0.0224755128
0.0139258893
0.113149322
0.151448592
0.100555873
0.0110852987
0.0470592194
0.123826955
0.105191903
0.0152940044
0.0410649674
0.120146146
0.105145855
0.01643421
0.0251796149
0.121196796
0.146193358
0.0954146474
0.00422790814
0.0316399105
0.127847862
0.1274596
0.0295389156
0.0198015413
0.107322346
0.151670105
0.117458198
0.0134717729
0.0198876353
0.114560909
0.112743494
0.0162501213
0.0204156861
0.117347828
0.116936877
0.0190030152
0.0147474135
0.112554759
0.156275134
0.122309289
0.0115982668
0.0135847083
0.115613821
0.11568377
0.0132807599
0.0090618367
0.111114445
0.143173189
0.147926493
0.158416694
0.125357972
0.00927146472
0.00829628611
0.112875389
0.114201656
0.00881139174
0.0028170041
0.102275472
0.143072697
0.109415233
0.00315873182
0.00342201177
0.112079038
0.144142816
0.101781064
0.00366421168
0.00332805934
0.123708463
0.167356991
0.131088674
0.00572589353
0.0028559788
0.110420229
0.140300898
0.0941608581
0.00431902896
0.00413857562
0.114169571
0.142948633
0.0954854104
0.00438188648
0.00417674532
0.113547431
0.147140814
0.151774907
0.102501817
0.00416629402
0.00289942441
0.12788538
0.135004521
0.0325440934
0.00452202874
0.0710150229
0.143879249
0.123011169
0.00337649524
0.00351416054
0.114389198
0.157093194
0.117191168
0.00401683178
0.00389030924
0.11854687
0.158263822
0.116451872
0.00417748648
0.00394233727
0.121874367
0.160260861
0.117022647
0.00440951249
0.00424927932
0.119643116
0.151166226
0.159183866
0.125269777
0.00402040805
0.00308258558
0.126644718
0.119311962
0.00465647013
0.00397035887
0.124564191
0.161551832
0.116091966
0.00455938083
0.00353361879
0.124107393
0.116662697
0.00498045278
0.00412302537
0.127741463
0.164169259
0.117709304
0.00463672175
0.00338636177
0.131510819
0.12176891
0.00490692904
0.00380722236
0.136803759
0.170218621
0.119617311
0.00457709134
0.00303442439
0.133552393
0.120688149
0.00502290399
0.00371951433
0.13929482
0.168551616
0.115594629
0.00474013319
0.00274809786
0.13361063
0.118060122
0.00516222418
0.00358844243
0.144260475
0.167427506
0.108757785
0.00491508621
0.00360341705
0.145993408
0.166184234
0.10554225
0.00495284716
0.0035094813
0.148047384
0.166445904
0.107075895
0.00489140163
0.00552754514
0.135694498
0.114214003
0.00523448683
0.0151387503
0.13461562
0.11034017
0.00534756
0.00305698612
0.154149384
0.167465206
0.101996487
0.00493153787
0.0130291144
0.13662264
0.110533952
0.00536254816
0.0186475999
0.133102184
0.106237051
0.00552060433
0.00320027761
0.152424589
0.159548361
0.0889642712
0.00531267515
0.00365889768
0.146728929
0.151442138
0.143741505
0.149405991
0.0914292043
0.00548651357
0.00405806753
0.144114594
0.151615838
0.0853009907
0.0054233297
0.00414054314
0.146805925
0.159198953
0.0981507058
0.00514422732
0.00225885409
0.132655832
0.114607249
0.00518301961
0.011674394
0.13506137
0.114190999
0.00500499203
0.0150934135
0.134463327
0.115520041
0.00486399489
0.00450477335
0.150125388
0.169691898
0.108434006
0.00441996565
0.0045002863
0.144011677
0.166590044
0.108404608
0.00433392925
0.00462496583
0.138451549
0.164467643
0.109078436
0.00417957594
0.00464492786
0.133596497
0.164693343
0.110966036
0.00397377432
0.00259800222
0.125677395
0.120609125
0.00385701049
0.00450846058
0.126950145
0.165208227
0.117557028
0.00330403368
0.00281503
0.12300621
0.122518256
0.00284103405
0.00432085271
0.11743163
0.160687602
0.124167932
0.00309722505
0.00432811109
0.109598491
0.157624558
0.119934521
0.0110186672
0.00579252571
0.00535776654
0.121301423
0.154762545
0.151705173
0.156564671
0.131992201
0.0169695488
0.00576999139
0.00549483269
0.114554651
0.154174211
0.133073027
0.011284474
0.00493843664
0.0864416046
)
;

boundaryField
{
    closed
    {
        type            calculated;
        value           uniform 0;
    }
    open
    {
        type            calculated;
        value           nonuniform List<scalar> 0();
    }
    sides
    {
        type            empty;
    }
    procBoundary0to1
    {
        type            processor;
        value           uniform 0;
    }
}


// ************************************************************************* //
