/*--------------------------------*- C++ -*----------------------------------*\
| =========                 |                                                 |
| \\      /  F ield         | OpenFOAM: The Open Source CFD Toolbox           |
|  \\    /   O peration     | Version:  2306                                  |
|   \\  /    A nd           | Website:  www.openfoam.com                      |
|    \\/     M anipulation  |                                                 |
\*---------------------------------------------------------------------------*/
FoamFile
{
    version     2.0;
    format      ascii;
    arch        "LSB;label=32;scalar=64";
    class       volScalarField;
    location    "0.00106";
    object      H;
}
// * * * * * * * * * * * * * * * * * * * * * * * * * * * * * * * * * * * * * //

dimensions      [0 0 0 0 0 0 0];

internalField   nonuniform List<scalar> 
531
(
2.02994393e-08
4.76293793e-08
4.90154685e-08
1.52292127e-08
9.05752423e-10
2.1519922e-08
3.82253277e-08
1.86597763e-08
8.73772348e-10
2.18899192e-08
3.78486056e-08
1.60978662e-08
8.2467243e-10
2.23605614e-08
4.73535882e-08
4.73085783e-08
6.70968561e-09
1.03940917e-09
2.36552818e-08
3.62849025e-08
1.27897263e-08
8.93461224e-10
2.35709123e-08
4.67497366e-08
4.44955767e-08
2.54183333e-09
1.10827587e-09
2.5048053e-08
3.49268529e-08
9.32033836e-09
9.5664198e-10
2.50352245e-08
4.5736057e-08
4.19152355e-08
4.9360399e-10
1.02785313e-09
2.79234953e-08
4.40154467e-08
4.47150037e-08
3.67146221e-08
5.00657941e-10
1.22756236e-09
8.42614808e-10
1.22122504e-09
1.10302748e-09
3.19172016e-08
4.66609045e-08
4.25310672e-08
4.37601265e-08
3.68312478e-08
2.42620791e-09
1.35511056e-09
9.10122824e-10
2.97922431e-08
4.70598521e-08
3.84486998e-08
7.56739717e-10
9.9104304e-10
2.91284991e-08
4.63514441e-08
3.71574494e-08
7.82513579e-10
9.81709272e-10
3.1890207e-08
4.53295721e-08
4.42016771e-08
3.36349275e-08
7.20178165e-10
1.24328097e-09
7.81656193e-10
1.22043603e-09
7.34320609e-10
3.32917678e-08
4.50958735e-08
4.2636877e-08
3.43568276e-08
8.25762125e-10
9.18481205e-10
3.18371461e-08
4.63853546e-08
3.3752037e-08
9.11195332e-10
9.07764256e-10
3.14242471e-08
4.52959136e-08
3.24745086e-08
9.28660341e-10
8.6119904e-10
3.13742322e-08
4.49517483e-08
3.21537639e-08
8.71901071e-10
7.79189204e-10
3.30332585e-08
4.47410783e-08
4.26326416e-08
3.39821058e-08
4.95916934e-10
7.98760926e-10
3.13339639e-08
3.52378441e-08
4.62029494e-09
7.84494199e-10
3.04148174e-08
3.43066033e-08
3.71462411e-09
6.87196459e-10
3.18969938e-08
4.50851131e-08
3.14139378e-08
8.10092775e-10
7.22899838e-10
3.00656052e-08
4.19594384e-08
2.88495742e-08
8.81240752e-10
6.91360641e-10
3.03156543e-08
4.31558898e-08
3.14114025e-08
6.85522011e-10
6.07349714e-10
3.19586367e-08
4.51042171e-08
4.28788171e-08
3.45680526e-08
4.35207528e-09
5.6570469e-10
3.09337942e-08
3.60365246e-08
8.01239157e-09
5.05959756e-10
3.09360318e-08
3.64586616e-08
8.6731819e-09
4.940815e-10
3.00486324e-08
3.57253575e-08
9.16214057e-09
5.17244515e-10
2.86420309e-08
3.43140768e-08
8.84353984e-09
4.67711991e-10
2.99674868e-08
4.62370199e-08
3.62386988e-08
5.89805102e-09
5.8966405e-10
2.63346166e-08
3.2926149e-08
1.02318025e-08
5.33365725e-10
2.69046445e-08
4.43295218e-08
3.53006656e-08
5.58518923e-09
5.89021196e-10
2.63517307e-08
4.43734971e-08
3.63336353e-08
8.08632103e-09
6.61430381e-10
2.25168795e-08
3.13955779e-08
1.22352911e-08
6.37710948e-10
2.24742166e-08
4.21228886e-08
3.50825051e-08
7.41038365e-09
7.3788958e-10
2.09384896e-08
4.17321006e-08
3.55650112e-08
9.28561495e-09
7.70890775e-10
1.97409948e-08
4.33539743e-08
4.3332772e-08
3.73266622e-08
1.5110274e-08
1.14823377e-09
9.07317181e-10
1.83014943e-08
3.23055365e-08
1.88973759e-08
7.83163208e-10
1.39302112e-08
4.254834e-08
4.30221662e-08
3.81748054e-08
1.72874574e-08
1.17829955e-09
1.12832374e-09
9.55240379e-09
4.38925073e-08
4.39558048e-08
4.24256737e-08
4.31808382e-08
2.62682958e-08
9.03840457e-10
8.05366206e-09
3.67094645e-08
3.14266393e-08
7.10796594e-10
4.76803894e-09
3.66676762e-08
3.34018406e-08
7.31585939e-10
1.45318802e-09
3.43771894e-08
3.27415876e-08
7.71361485e-10
7.09523104e-10
3.36238623e-08
4.4145227e-08
3.02749687e-08
9.97135227e-10
8.64596003e-10
3.30356551e-08
4.53204068e-08
3.32806683e-08
9.11402487e-10
8.53240165e-10
3.37441994e-08
4.77917016e-08
3.83560581e-08
7.98990212e-10
8.68998593e-10
3.41407138e-08
3.7922635e-08
2.691802e-09
7.44369574e-10
3.1908969e-08
4.76744409e-08
3.80442886e-08
6.42783957e-10
8.31330653e-10
3.45201676e-08
3.96670756e-08
5.37131031e-09
6.77929819e-10
3.32924812e-08
3.85787519e-08
4.07617939e-09
7.46981313e-10
3.23562295e-08
3.61046054e-08
2.58319761e-09
6.9291645e-10
3.18624505e-08
4.7035792e-08
3.67679816e-08
5.94205023e-10
8.5172683e-10
3.16720992e-08
3.39731816e-08
1.54598614e-09
7.77833261e-10
3.04676958e-08
4.44295841e-08
3.27010204e-08
6.80078772e-10
8.37660653e-10
3.08715135e-08
4.40083808e-08
3.23589288e-08
6.38635486e-10
7.40881855e-10
3.26939037e-08
4.29255482e-08
4.47096259e-08
3.62843463e-08
5.08193916e-09
1.0936559e-09
1.00258208e-09
1.00513193e-09
1.19337423e-09
9.13132941e-10
3.09820863e-08
4.12426696e-08
4.0912395e-08
4.12688611e-08
4.08907252e-08
4.28002193e-08
3.22098609e-08
5.10591579e-10
5.69336844e-10
3.30154452e-08
4.43263626e-08
3.23951958e-08
4.86288175e-10
4.55589689e-10
3.21843355e-08
3.22685334e-08
9.83130834e-10
1.24846699e-09
3.17862784e-08
3.0587163e-08
9.75301458e-10
2.77864085e-09
3.50064423e-08
4.42141084e-08
3.00409913e-08
4.91920983e-10
4.13448331e-09
3.16250813e-08
2.85303185e-08
8.63108294e-10
4.99797232e-09
3.55695175e-08
4.26792663e-08
2.27494215e-08
6.55905623e-10
7.57766871e-09
3.63159073e-08
4.23403525e-08
2.04336877e-08
7.1029533e-10
9.38863961e-09
3.71052947e-08
4.2084281e-08
1.7837296e-08
7.67931448e-10
1.13209926e-08
3.80572081e-08
4.1938818e-08
1.50361336e-08
8.24104978e-10
1.34741861e-08
3.91331073e-08
4.18649914e-08
1.21707647e-08
8.71970257e-10
1.5690893e-08
4.03764277e-08
4.2100898e-08
9.18839816e-09
9.0338699e-10
1.81370671e-08
4.17875041e-08
4.25461231e-08
6.73610177e-09
9.10544293e-10
2.0678186e-08
4.33806301e-08
4.34557052e-08
7.17450458e-09
9.82144746e-10
2.1491258e-08
3.38338915e-08
1.29793295e-08
8.36699946e-10
2.28382458e-08
4.36740623e-08
4.00726184e-08
8.40151312e-10
9.59386374e-10
2.44662762e-08
4.46947692e-08
4.06407372e-08
4.1328839e-10
9.39627776e-10
2.69323038e-08
4.90173399e-08
4.22626954e-08
4.57270493e-10
1.09424616e-09
1.12487904e-09
9.60078877e-10
3.46391568e-08
4.51435687e-08
7.23693272e-09
1.35758551e-09
3.24013611e-08
5.51332559e-08
4.21842445e-08
2.9265355e-09
4.37936758e-09
4.62719802e-09
3.28688049e-08
4.12022764e-08
6.88703881e-09
7.519533e-09
7.52529714e-09
9.11025167e-09
9.45396562e-09
1.0601425e-08
1.11445352e-08
1.20203598e-08
1.26203182e-08
1.33297697e-08
1.38252689e-08
1.41969479e-08
1.41952118e-08
1.36576382e-08
1.17775519e-08
8.88902286e-09
9.18838931e-09
9.67125611e-09
1.02182663e-08
1.08612998e-08
1.16118183e-08
1.25035661e-08
1.3658373e-08
1.4935826e-08
1.5112143e-08
1.15178611e-08
1.08827677e-08
1.07354108e-08
1.15346142e-08
1.25998727e-08
1.4641828e-08
1.54485901e-08
1.55143722e-08
1.5404607e-08
1.43988397e-08
7.89202088e-09
1.54788606e-09
1.60962367e-09
1.63393134e-09
1.65600967e-09
1.64814189e-09
1.61127798e-09
1.53506124e-09
1.44885889e-09
1.16915671e-09
5.69388515e-10
2.84013147e-10
1.64709155e-10
1.24157436e-09
3.87347229e-09
1.53450045e-08
2.36542807e-08
2.15149722e-08
3.85065926e-08
6.433572e-08
1.50567943e-07
4.16997156e-07
1.10692645e-06
3.19537984e-06
6.30253596e-06
1.09798697e-05
2.07839345e-05
2.88686772e-05
4.24265428e-05
5.49304934e-05
6.50829888e-05
7.85660709e-05
9.13669868e-05
0.00010672736
0.000118081824
0.000131197049
0.000140812888
0.000151771341
0.000159700434
0.000168467929
0.000174873202
0.000181429741
0.000186326332
0.000191027129
0.000194809812
0.000198086028
0.000200627789
0.000201714729
0.000202406688
0.000201405298
0.000200430506
0.000198344511
0.000195784531
0.000192685877
0.000189216407
0.000185722205
0.000182184668
0.000178449589
0.000174656678
0.000170055476
0.000165434293
0.000160781385
0.000155562982
0.000150917191
0.000146750018
0.000143202021
0.000139661774
0.000136417151
0.000133101302
0.000129972387
0.000126785939
0.000123781312
0.000120415223
0.000117144629
0.000113892238
0.000110615907
0.000107566309
0.000104335813
0.000101390338
9.84074426e-05
9.56541807e-05
9.29261245e-05
9.03822432e-05
8.77969977e-05
8.53684648e-05
8.30015549e-05
8.09362866e-05
7.88176946e-05
7.68373761e-05
7.47920395e-05
7.28969938e-05
7.09894042e-05
6.92038785e-05
6.7343712e-05
6.5444519e-05
6.35223029e-05
6.17412787e-05
5.99444941e-05
5.85014959e-05
5.70101074e-05
5.56444118e-05
5.42275406e-05
5.29293311e-05
5.15818657e-05
5.03448593e-05
4.90616712e-05
4.7960429e-05
4.68424e-05
4.58173971e-05
4.47531033e-05
4.37739458e-05
4.27589933e-05
4.18214861e-05
)
;

boundaryField
{
    closed
    {
        type            calculated;
        value           nonuniform List<scalar> 0();
    }
    open
    {
        type            calculated;
        value           nonuniform List<scalar> 0();
    }
    sides
    {
        type            empty;
    }
    procBoundary4to3
    {
        type            processor;
        value           uniform 9.80935025e-10;
    }
    procBoundary4to5
    {
        type            processor;
        value           uniform 4.08519483e-05;
    }
}


// ************************************************************************* //
