/*--------------------------------*- C++ -*----------------------------------*\
| =========                 |                                                 |
| \\      /  F ield         | OpenFOAM: The Open Source CFD Toolbox           |
|  \\    /   O peration     | Version:  2306                                  |
|   \\  /    A nd           | Website:  www.openfoam.com                      |
|    \\/     M anipulation  |                                                 |
\*---------------------------------------------------------------------------*/
FoamFile
{
    version     2.0;
    format      ascii;
    arch        "LSB;label=32;scalar=64";
    class       volScalarField;
    location    "0.00106";
    object      prefDPV_H2O;
}
// * * * * * * * * * * * * * * * * * * * * * * * * * * * * * * * * * * * * * //

dimensions      [1 -1 -1 0 0 0 0];

internalField   nonuniform List<scalar> 
531
(
-3.74172223e-07
-3.64261498e-07
-3.63905702e-07
-3.77238487e-07
-3.85327611e-07
-3.73480619e-07
-3.66122599e-07
-3.75157277e-07
-3.85437817e-07
-3.73272749e-07
-3.66257458e-07
-3.76719379e-07
-3.85616235e-07
-3.73009145e-07
-3.6442812e-07
-3.64361545e-07
-3.8275714e-07
-3.84834805e-07
-3.72321315e-07
-3.66581015e-07
-3.78783696e-07
-3.85357963e-07
-3.72345859e-07
-3.6462809e-07
-3.64954368e-07
-3.85585157e-07
-3.84583363e-07
-3.71603043e-07
-3.66868509e-07
-3.81016159e-07
-3.85123941e-07
-3.71570032e-07
-3.64835073e-07
-3.65512808e-07
-3.86844833e-07
-3.8489007e-07
-3.70083914e-07
-3.64935985e-07
-3.64901539e-07
-3.66469264e-07
-3.86801647e-07
-3.84098931e-07
-3.85504472e-07
-3.84148328e-07
-3.84601907e-07
-3.68022197e-07
-3.64594448e-07
-3.65041037e-07
-3.65302486e-07
-3.66269642e-07
-3.85520175e-07
-3.8364596e-07
-3.85286925e-07
-3.69044626e-07
-3.64657259e-07
-3.6605067e-07
-3.85872412e-07
-3.85017179e-07
-3.69468689e-07
-3.64740492e-07
-3.66319342e-07
-3.85780571e-07
-3.85070978e-07
-3.68157213e-07
-3.64720807e-07
-3.64986853e-07
-3.67369388e-07
-3.85990273e-07
-3.84047366e-07
-3.85727125e-07
-3.84155764e-07
-3.85951432e-07
-3.67442254e-07
-3.64950113e-07
-3.65288245e-07
-3.67132002e-07
-3.85633242e-07
-3.85285575e-07
-3.68179109e-07
-3.64744872e-07
-3.67298998e-07
-3.85304031e-07
-3.85320546e-07
-3.68374565e-07
-3.65014295e-07
-3.67888828e-07
-3.85232702e-07
-3.85485068e-07
-3.6840995e-07
-3.65111549e-07
-3.68042569e-07
-3.85443758e-07
-3.85792972e-07
-3.67635409e-07
-3.64979985e-07
-3.65293774e-07
-3.67270754e-07
-3.86834468e-07
-3.85729848e-07
-3.68469808e-07
-3.66842044e-07
-3.84114635e-07
-3.85777323e-07
-3.68887904e-07
-3.6718356e-07
-3.84724518e-07
-3.86127542e-07
-3.68111633e-07
-3.65046646e-07
-3.6835667e-07
-3.85664782e-07
-3.85987773e-07
-3.69024952e-07
-3.65725754e-07
-3.6962033e-07
-3.85395689e-07
-3.86098529e-07
-3.68900108e-07
-3.65500745e-07
-3.68383235e-07
-3.86122057e-07
-3.86416625e-07
-3.68098268e-07
-3.64933193e-07
-3.65152818e-07
-3.66998236e-07
-3.84268025e-07
-3.86584444e-07
-3.68584385e-07
-3.66712883e-07
-3.81885044e-07
-3.86808686e-07
-3.68570714e-07
-3.66641741e-07
-3.81446923e-07
-3.86851628e-07
-3.69006682e-07
-3.66792494e-07
-3.81109764e-07
-3.8676309e-07
-3.69715409e-07
-3.67197835e-07
-3.813142e-07
-3.8694412e-07
-3.6900731e-07
-3.64757403e-07
-3.66321079e-07
-3.83162116e-07
-3.86486436e-07
-3.7088474e-07
-3.67800722e-07
-3.80383673e-07
-3.86697841e-07
-3.70553764e-07
-3.65146773e-07
-3.66524779e-07
-3.83365573e-07
-3.86486758e-07
-3.70829074e-07
-3.65089797e-07
-3.66295443e-07
-3.81696523e-07
-3.86216577e-07
-3.72923877e-07
-3.68473565e-07
-3.79066251e-07
-3.863097e-07
-3.72941996e-07
-3.65575746e-07
-3.66657921e-07
-3.82095187e-07
-3.85926286e-07
-3.73810068e-07
-3.65635367e-07
-3.66530409e-07
-3.80873157e-07
-3.85804569e-07
-3.74507437e-07
-3.65309309e-07
-3.65104659e-07
-3.66249818e-07
-3.7723911e-07
-3.84415726e-07
-3.852653e-07
-3.75340293e-07
-3.68020562e-07
-3.7498752e-07
-3.85787578e-07
-3.78004977e-07
-3.65588832e-07
-3.65266003e-07
-3.66193662e-07
-3.75916571e-07
-3.84296972e-07
-3.84450462e-07
-3.80773959e-07
-3.65170674e-07
-3.65128459e-07
-3.65244626e-07
-3.65240616e-07
-3.70869402e-07
-3.85349465e-07
-3.81799741e-07
-3.66654956e-07
-3.68305516e-07
-3.8606461e-07
-3.84005708e-07
-3.66702873e-07
-3.67429353e-07
-3.85988841e-07
-3.86224563e-07
-3.67247653e-07
-3.67816903e-07
-3.85844006e-07
-3.86027993e-07
-3.67442614e-07
-3.65236347e-07
-3.68925883e-07
-3.84994205e-07
-3.85457995e-07
-3.67687438e-07
-3.64990531e-07
-3.67543961e-07
-3.85323502e-07
-3.85509067e-07
-3.67349839e-07
-3.64475587e-07
-3.66087897e-07
-3.85740673e-07
-3.85477482e-07
-3.67298833e-07
-3.66475403e-07
-3.85517354e-07
-3.8591536e-07
-3.68139884e-07
-3.64566873e-07
-3.66169382e-07
-3.86305772e-07
-3.85623659e-07
-3.67083133e-07
-3.6611777e-07
-3.83670592e-07
-3.86184406e-07
-3.67564844e-07
-3.66362136e-07
-3.84555695e-07
-3.85929072e-07
-3.68034874e-07
-3.66890154e-07
-3.85602198e-07
-3.86109019e-07
-3.68132572e-07
-3.64692719e-07
-3.66402179e-07
-3.8648062e-07
-3.85549383e-07
-3.6840787e-07
-3.67403671e-07
-3.86281288e-07
-3.85796134e-07
-3.6881583e-07
-3.65230143e-07
-3.67793514e-07
-3.86159235e-07
-3.85576361e-07
-3.68630666e-07
-3.65313015e-07
-3.67966324e-07
-3.86309042e-07
-3.85937054e-07
-3.67816987e-07
-3.65165121e-07
-3.64905005e-07
-3.6638835e-07
-3.83773782e-07
-3.84602364e-07
-3.84922708e-07
-3.84906751e-07
-3.84223058e-07
-3.85280707e-07
-3.68536331e-07
-3.65602353e-07
-3.65511939e-07
-3.65534806e-07
-3.65521849e-07
-3.65406422e-07
-3.68029906e-07
-3.86776824e-07
-3.86554324e-07
-3.67581235e-07
-3.65157261e-07
-3.67887147e-07
-3.86866643e-07
-3.86982844e-07
-3.68116681e-07
-3.68069282e-07
-3.86611094e-07
-3.8643146e-07
-3.68295851e-07
-3.68827478e-07
-3.86622887e-07
-3.85302331e-07
-3.66633436e-07
-3.65050442e-07
-3.68946103e-07
-3.86843946e-07
-3.84413347e-07
-3.68355094e-07
-3.69778838e-07
-3.86644552e-07
-3.83770818e-07
-3.66531122e-07
-3.6539915e-07
-3.72779911e-07
-3.86230273e-07
-3.82010655e-07
-3.66439272e-07
-3.65455795e-07
-3.74105302e-07
-3.86027922e-07
-3.80817234e-07
-3.66338962e-07
-3.65507203e-07
-3.75642327e-07
-3.85814663e-07
-3.79576879e-07
-3.66203415e-07
-3.6553304e-07
-3.77356677e-07
-3.85609022e-07
-3.78229013e-07
-3.66037054e-07
-3.65544981e-07
-3.79163908e-07
-3.85434913e-07
-3.76875166e-07
-3.65824819e-07
-3.65500851e-07
-3.81099631e-07
-3.85323772e-07
-3.7542237e-07
-3.65558613e-07
-3.65399201e-07
-3.8273703e-07
-3.85307275e-07
-3.73956873e-07
-3.65167615e-07
-3.65104759e-07
-3.82431734e-07
-3.85059547e-07
-3.73496321e-07
-3.67267969e-07
-3.78663712e-07
-3.85588329e-07
-3.72730908e-07
-3.6506699e-07
-3.65645717e-07
-3.86857199e-07
-3.85165051e-07
-3.71815995e-07
-3.64733569e-07
-3.65339537e-07
-3.87170886e-07
-3.8527817e-07
-3.70408985e-07
-3.63637254e-07
-3.64535651e-07
-3.87513388e-07
-3.84777272e-07
-3.84698266e-07
-3.8539711e-07
-3.65968463e-07
-3.6336454e-07
-3.83394827e-07
-3.84802945e-07
-3.66890966e-07
-3.60706415e-07
-3.61811103e-07
-3.8362693e-07
-3.80299606e-07
-3.81541093e-07
-3.66236662e-07
-3.60946886e-07
-3.80398133e-07
-3.76162864e-07
-3.77164775e-07
-3.74146086e-07
-3.73822999e-07
-3.72086406e-07
-3.71135268e-07
-3.69872779e-07
-3.6866005e-07
-3.67451087e-07
-3.66150141e-07
-3.64990442e-07
-3.63918278e-07
-3.62842921e-07
-3.62336999e-07
-3.61920724e-07
-3.60482914e-07
-3.58479958e-07
-3.56398013e-07
-3.54099358e-07
-3.51653872e-07
-3.48869685e-07
-3.45961503e-07
-3.4340326e-07
-3.4137523e-07
-3.41327737e-07
-3.38789519e-07
-3.36338903e-07
-3.31712016e-07
-3.28295818e-07
-3.23164452e-07
-3.17413327e-07
-3.11767898e-07
-3.05240845e-07
-3.00801647e-07
-3.04501432e-07
-3.03211482e-07
-2.98541322e-07
-2.90163591e-07
-2.82662739e-07
-2.74678789e-07
-2.66445399e-07
-2.57605074e-07
-2.48858456e-07
-2.40411082e-07
-2.39213319e-07
-2.34835398e-07
-2.12162354e-07
-2.06891349e-07
-1.51111983e-07
-1.31864322e-07
-1.41293765e-07
-1.21236081e-07
-6.98251501e-08
-5.17392303e-08
-2.5370246e-08
1.34030579e-08
5.35729522e-08
1.09850835e-07
1.66174635e-07
2.20823723e-07
2.9368859e-07
3.38594261e-07
4.03669677e-07
4.43054028e-07
4.7943344e-07
5.13123525e-07
5.46117293e-07
5.78235513e-07
6.05304934e-07
6.30901996e-07
6.52828356e-07
6.75346641e-07
6.94101557e-07
7.13687886e-07
7.29803892e-07
7.46797161e-07
7.60786323e-07
7.75098255e-07
7.86844201e-07
7.98336753e-07
8.08802594e-07
8.18434751e-07
8.29062751e-07
8.3711471e-07
8.47735723e-07
8.56267922e-07
8.66024884e-07
8.74185404e-07
8.82837005e-07
8.89940971e-07
8.97182431e-07
9.0366102e-07
9.10489618e-07
9.17599879e-07
9.24952073e-07
9.31840237e-07
9.39429343e-07
9.46048245e-07
9.51603607e-07
9.56340613e-07
9.60690805e-07
9.64708999e-07
9.68712072e-07
9.72540337e-07
9.76325582e-07
9.79942568e-07
9.83958597e-07
9.87927564e-07
9.91804607e-07
9.95741331e-07
9.99399845e-07
1.00344739e-06
1.00713717e-06
1.01085084e-06
1.01427974e-06
1.01781262e-06
1.02109314e-06
1.02438299e-06
1.02746921e-06
1.03049602e-06
1.03325239e-06
1.0360296e-06
1.03866245e-06
1.04131979e-06
1.04385111e-06
1.04641729e-06
1.04887825e-06
1.05137013e-06
1.05401549e-06
1.05662166e-06
1.05912153e-06
1.0615633e-06
1.06372997e-06
1.06586734e-06
1.06792145e-06
1.06995152e-06
1.07190452e-06
1.07383417e-06
1.07569495e-06
1.07753068e-06
1.07927625e-06
1.08098122e-06
1.08262907e-06
1.08424875e-06
1.08581739e-06
1.08735856e-06
1.08885558e-06
)
;

boundaryField
{
    closed
    {
        type            calculated;
        value           nonuniform List<scalar> 0();
    }
    open
    {
        type            calculated;
        value           nonuniform List<scalar> 0();
    }
    sides
    {
        type            empty;
    }
    procBoundary4to3
    {
        type            processor;
        value           uniform -3.85039859e-07;
    }
    procBoundary4to5
    {
        type            processor;
        value           uniform 1.09032441e-06;
    }
}


// ************************************************************************* //
