/*--------------------------------*- C++ -*----------------------------------*\
| =========                 |                                                 |
| \\      /  F ield         | OpenFOAM: The Open Source CFD Toolbox           |
|  \\    /   O peration     | Version:  2306                                  |
|   \\  /    A nd           | Website:  www.openfoam.com                      |
|    \\/     M anipulation  |                                                 |
\*---------------------------------------------------------------------------*/
FoamFile
{
    version     2.0;
    format      ascii;
    arch        "LSB;label=32;scalar=64";
    class       volScalarField;
    location    "0.00106";
    object      PV;
}
// * * * * * * * * * * * * * * * * * * * * * * * * * * * * * * * * * * * * * //

dimensions      [0 0 0 0 0 0 0];

internalField   nonuniform List<scalar> 
531
(
-0.00707472242
-0.00720856485
-0.00721258007
-0.00704517873
-0.00696439968
-0.00708160605
-0.00717318361
-0.00706216028
-0.00696616964
-0.00708339216
-0.00717257591
-0.00704883238
-0.00696776129
-0.00708530357
-0.00720924602
-0.0072078172
-0.007004893
-0.00696084744
-0.00709554899
-0.00716708298
-0.00703318461
-0.00696634579
-0.00709249346
-0.00720827283
-0.00719754694
-0.00698686954
-0.00695890112
-0.00710481747
-0.00716207441
-0.00701718971
-0.00696454964
-0.00710145277
-0.00720413588
-0.00718812372
-0.00697643966
-0.00695965906
-0.00711767637
-0.00719351947
-0.00719791578
-0.00716782667
-0.00698028313
-0.006959266
-0.00697329978
-0.00695729856
-0.00695874522
-0.00713673664
-0.00720615633
-0.00718451241
-0.00719661618
-0.00716516946
-0.00698733346
-0.00695326238
-0.00696588105
-0.00712325281
-0.00720991261
-0.00717226586
-0.00696784155
-0.00696052242
-0.00712313997
-0.00720596826
-0.00716767914
-0.00696665911
-0.0069589661
-0.00713999032
-0.00719847295
-0.00719502647
-0.00715128
-0.00697202154
-0.00695780551
-0.00697559452
-0.00695655986
-0.00696967147
-0.00714671107
-0.0072005029
-0.00718864477
-0.00715729905
-0.00696393203
-0.00696201504
-0.00713924605
-0.00720589763
-0.00715075412
-0.00696280928
-0.00696263017
-0.00713663431
-0.00720230555
-0.00714311082
-0.00696291476
-0.0069645536
-0.00713661029
-0.00720125752
-0.00714121732
-0.00696417605
-0.00696607589
-0.00714618143
-0.00719752264
-0.00718801829
-0.00715394098
-0.00697552922
-0.00696492876
-0.0071384605
-0.00716269291
-0.00699567151
-0.00696641612
-0.00713288636
-0.00715845851
-0.00699197177
-0.00697042774
-0.00713909333
-0.00720216944
-0.00713688151
-0.00696787165
-0.00697053535
-0.00712955914
-0.0071908912
-0.00712255063
-0.00696641435
-0.00697218018
-0.0071306395
-0.00719540771
-0.00713728647
-0.00697158059
-0.00697325233
-0.00713921375
-0.00719977241
-0.00718800509
-0.00715753507
-0.00699464826
-0.00697244507
-0.00713388152
-0.00716627559
-0.00701029698
-0.00697406053
-0.00713394387
-0.00716840842
-0.00701369983
-0.00697491229
-0.00712928076
-0.00716606341
-0.00701647125
-0.00697492722
-0.00712184224
-0.00715968345
-0.0070150517
-0.00697667015
-0.0071271446
-0.0072062805
-0.00716321916
-0.00700348813
-0.00697426895
-0.00710837019
-0.00715092158
-0.00702198909
-0.00697530305
-0.00710932769
-0.00719888175
-0.00715933194
-0.0070020551
-0.00697446005
-0.00710525188
-0.007198319
-0.0071634736
-0.00701387949
-0.00697287364
-0.00708652929
-0.00714108514
-0.00703254851
-0.00697269404
-0.00708474928
-0.00719028887
-0.00715898165
-0.00701143493
-0.00697129037
-0.00707574267
-0.00718820299
-0.00716134995
-0.00701985967
-0.00696988661
-0.00706793159
-0.00719398902
-0.00719091128
-0.00716817906
-0.00704746788
-0.00695869219
-0.0069701973
-0.00706258057
-0.00714484572
-0.00706573519
-0.00696581733
-0.0070395179
-0.00719223773
-0.00719071414
-0.00717202756
-0.00705848531
-0.00695748301
-0.00696161157
-0.00701832464
-0.00719434412
-0.00719419623
-0.00718550319
-0.0071906524
-0.00710275745
-0.00696108431
-0.00701072037
-0.00716900852
-0.00713491892
-0.00696634073
-0.00699642387
-0.00716993799
-0.00714867428
-0.00696614503
-0.00698309795
-0.00716148395
-0.00714745506
-0.00696502612
-0.00697250565
-0.00715314821
-0.00719882325
-0.00713091607
-0.00696077785
-0.00696703821
-0.00714881675
-0.0072029634
-0.00714926571
-0.00696149696
-0.00696610527
-0.00715234563
-0.00721235719
-0.00717207017
-0.00696413236
-0.0069628306
-0.00715843947
-0.00717491272
-0.00698612214
-0.00696893694
-0.00714011338
-0.00721336674
-0.00717155108
-0.00696999042
-0.00696341122
-0.00715992631
-0.00718175082
-0.00699856255
-0.00696822012
-0.00715108307
-0.00717835093
-0.00699306929
-0.00696674445
-0.00714691468
-0.00716977751
-0.00698633088
-0.00697070262
-0.00713963112
-0.00721140463
-0.00716731394
-0.00697253847
-0.00696333757
-0.00714469356
-0.00715916814
-0.00698245308
-0.00696816357
-0.007132026
-0.00720117916
-0.00714611744
-0.00697042879
-0.00696607381
-0.00713446922
-0.00719923743
-0.00714429665
-0.00697184813
-0.00696809656
-0.007146335
-0.00718937401
-0.00719763891
-0.0071639832
-0.00699895445
-0.00696222142
-0.00696657967
-0.00696714163
-0.00695991832
-0.00696556475
-0.00713296031
-0.00718346333
-0.00717969638
-0.00718207614
-0.00717937515
-0.00719041118
-0.00714161096
-0.00697529209
-0.00697448285
-0.00714461641
-0.00719813247
-0.00714185268
-0.00697716052
-0.0069777419
-0.0071454978
-0.00714581342
-0.00698059497
-0.00698175575
-0.00714342925
-0.00713542981
-0.00698063819
-0.00698943902
-0.00715697405
-0.00719699636
-0.00712665166
-0.00697828066
-0.00699491585
-0.00714215462
-0.00712165231
-0.00698092512
-0.00699959896
-0.00716171972
-0.00719162667
-0.00708396993
-0.00697385611
-0.00701178962
-0.00716488039
-0.00718992333
-0.00707148095
-0.00697212977
-0.00702037767
-0.00716830108
-0.00718883746
-0.00705784367
-0.00697026092
-0.00702960263
-0.007172366
-0.00718815965
-0.00704366266
-0.00696823573
-0.00703998416
-0.00717686884
-0.00718776907
-0.00702969126
-0.00696643559
-0.00705085527
-0.00718187719
-0.00718863292
-0.00701558546
-0.00696492999
-0.00706296016
-0.00718730131
-0.00719007252
-0.00700418513
-0.00696364918
-0.00707529379
-0.00719222219
-0.00719191693
-0.00700643211
-0.00696030415
-0.0070803104
-0.0071523155
-0.00703309062
-0.00696457504
-0.00708396291
-0.00719234515
-0.00717705368
-0.00697680388
-0.00695805395
-0.00709061631
-0.00719351965
-0.00717562221
-0.00697109268
-0.00695407556
-0.00709836524
-0.0072051564
-0.00717385985
-0.00696847504
-0.00694486826
-0.00694162471
-0.00693746659
-0.00712387966
-0.00717299324
-0.00698197305
-0.0069270352
-0.00709429418
-0.00719277956
-0.00713309111
-0.0069191716
-0.0068987825
-0.00690767784
-0.00705977405
-0.00709878767
-0.00690297726
-0.00686882739
-0.00687589643
-0.00685275704
-0.00684891686
-0.00683383453
-0.00682355952
-0.00681045395
-0.00679582963
-0.0067804981
-0.00676136378
-0.006742043
-0.00672034273
-0.00668884546
-0.00664941587
-0.00659774456
-0.00657611492
-0.00654285499
-0.00650981329
-0.00647509357
-0.00643719148
-0.00639641923
-0.00635171099
-0.00630567556
-0.00625169366
-0.00613902024
-0.00607685892
-0.00600757799
-0.0059086356
-0.00583627691
-0.0057415957
-0.00566596916
-0.00558491514
-0.00548868548
-0.00541298459
-0.00520477628
-0.00494386551
-0.00488289235
-0.00472430595
-0.0046043186
-0.00444530634
-0.00427863724
-0.00408406536
-0.00385831581
-0.00361352864
-0.00333661318
-0.0030681142
-0.00261556538
-0.00230629709
-0.00202973734
-0.00173078022
-0.00149800108
-0.00122216534
-0.00084954688
-0.000552159027
-0.000146314686
0.000292783372
0.000602387426
0.000964340383
0.00124360162
0.00150259462
0.00188025473
0.00215929979
0.00243646332
0.00270095449
0.00299534676
0.00328796623
0.00351998719
0.00377453695
0.00400004353
0.0042539661
0.00446720094
0.00470185379
0.00489461068
0.0051041721
0.00527572892
0.00545832724
0.00561055087
0.00576830921
0.00590594806
0.00604260873
0.0061666269
0.00627432044
0.00638615628
0.0064556064
0.00655014903
0.00661088508
0.00668146451
0.00673308312
0.00679073847
0.0068365737
0.00688725597
0.00692626392
0.00696753396
0.0069982642
0.00702974491
0.00705583589
0.00708168502
0.00710440007
0.00713085196
0.00715514212
0.00718084819
0.00720530473
0.00722832765
0.00725122481
0.00727235031
0.0072935262
0.00731227089
0.00733125094
0.00734825518
0.00736573418
0.00738136156
0.00739697301
0.00741099509
0.00742579013
0.00743924584
0.00745299607
0.00746559833
0.00747866747
0.00749076142
0.00750323425
0.00751497059
0.00752691535
0.00753818685
0.00754956544
0.00756032823
0.00757073534
0.00758064661
0.00759047051
0.00759942181
0.00760834933
0.0076169382
0.00762553495
0.00763400431
0.00764242501
0.00765058395
0.00765867063
0.00766654025
0.0076743118
0.00768191035
0.00768938402
0.00769664927
0.00770374136
0.00771073542
0.00771757025
0.00772432866
0.00773091376
0.00773744503
)
;

boundaryField
{
    closed
    {
        type            zeroGradient;
    }
    open
    {
        type            zeroGradient;
    }
    sides
    {
        type            empty;
    }
    procBoundary4to3
    {
        type            processor;
        value           uniform -0.00696355535;
    }
    procBoundary4to5
    {
        type            processor;
        value           uniform 0.0077437889;
    }
}


// ************************************************************************* //
