/*--------------------------------*- C++ -*----------------------------------*\
| =========                 |                                                 |
| \\      /  F ield         | OpenFOAM: The Open Source CFD Toolbox           |
|  \\    /   O peration     | Version:  2306                                  |
|   \\  /    A nd           | Website:  www.openfoam.com                      |
|    \\/     M anipulation  |                                                 |
\*---------------------------------------------------------------------------*/
FoamFile
{
    version     2.0;
    format      ascii;
    arch        "LSB;label=32;scalar=64";
    class       volScalarField;
    location    "0.00106";
    object      T;
}
// * * * * * * * * * * * * * * * * * * * * * * * * * * * * * * * * * * * * * //

dimensions      [0 0 0 1 0 0 0];

internalField   nonuniform List<scalar> 
531
(
330.09351
322.174322
321.282025
331.42658
339.522543
329.857501
327.68514
330.331716
339.338036
329.765155
327.966262
331.118436
339.159317
329.654261
322.411213
322.392273
334.937344
339.890428
329.656579
328.868858
332.317033
339.305639
329.484319
322.832182
324.112286
337.00919
340.101153
329.612171
329.593816
333.740383
339.480656
329.362189
323.457865
325.67908
338.24533
339.989574
329.137075
324.303896
323.974043
328.594889
337.86906
340.017263
338.565235
340.236874
340.079248
328.607891
322.85421
324.995355
324.71408
328.322858
336.878548
340.536088
339.236472
328.577803
322.694556
327.527761
339.03522
339.801791
329.018615
323.098796
328.272871
339.155209
339.982479
329.084766
323.562057
324.266447
329.224299
338.662021
340.12252
338.279131
340.275319
338.914436
328.896519
323.838862
325.181637
329.585768
339.433726
339.614633
329.071807
323.085015
329.16869
339.496306
339.532306
329.066625
323.791101
329.11919
339.464289
339.312662
329.111934
324.022763
329.125409
339.32057
339.147559
329.159875
324.022919
325.188331
329.4563
338.213376
339.323039
329.271309
329.523877
335.889754
339.215725
329.189049
329.685098
336.33412
338.805542
328.92062
323.913633
328.976656
339.044033
338.790689
329.062048
325.852678
329.088868
339.175239
338.596558
329.043752
325.142595
329.076617
338.610298
338.456655
328.982826
323.822605
324.961609
329.461654
335.987736
338.584219
328.96757
329.106692
334.328926
338.477736
328.916675
328.881329
334.030151
338.424774
328.951047
329.304453
333.80122
338.434182
329.061029
329.747679
333.936938
338.241554
328.786698
323.165471
328.574133
335.169116
338.482785
329.198324
329.583307
333.323559
338.370671
328.954563
324.336435
329.001273
335.309147
338.442331
328.931799
324.272617
328.513233
334.166092
338.625969
329.649773
329.399657
332.509815
338.645666
329.568311
325.65094
329.11012
334.417525
338.742701
329.860103
325.866158
329.040437
333.624314
338.850991
330.091208
324.898344
324.733274
328.136067
331.508973
340.015466
338.80338
330.540803
329.314597
330.394554
339.283221
331.891176
325.482019
325.002813
327.781304
330.884218
340.026126
339.566248
333.570621
324.549982
324.488158
325.22701
324.914273
328.919344
339.689179
334.256102
328.810422
328.797691
339.227829
335.806487
328.879525
329.041534
339.293932
337.43045
330.025058
329.322772
339.420257
338.599571
329.470857
324.488866
329.069352
339.812772
339.135371
329.356314
323.762869
329.252925
339.730593
339.220767
329.339626
322.216181
327.601158
339.47254
339.592811
329.8191
328.179304
336.977264
338.959598
329.052309
322.326259
327.800075
338.902368
339.582627
329.681925
327.150843
335.59611
339.121959
329.349789
327.815983
336.248196
339.293688
329.458147
329.289757
337.047329
338.863142
328.937961
322.727357
328.49899
338.692042
339.645366
329.648617
329.913905
337.54624
339.118356
328.997971
324.353549
329.164006
338.869346
339.302107
329.033738
324.610109
329.205205
338.695115
339.076779
329.239227
324.953714
323.979127
328.64047
335.630055
339.709731
339.249406
339.179071
339.895751
339.306494
328.867089
326.031085
326.069019
325.95567
326.08707
325.217823
329.17855
338.187869
338.275512
328.926516
324.345921
328.969881
338.104016
338.05547
329.46101
329.432138
337.764165
337.628384
329.427628
329.278257
337.777181
336.729509
328.897011
324.312297
328.677498
338.080281
336.092572
329.362275
329.101265
337.759122
335.600691
329.039896
325.262451
329.381383
338.49132
334.369128
328.691059
325.453551
329.896838
338.648066
333.590426
328.313001
325.605166
330.595717
338.829065
332.828049
327.833361
325.688092
331.493981
339.031323
332.053984
327.268377
325.729049
332.553953
339.211642
331.337598
326.584646
325.5926
333.795529
339.364864
330.638463
325.773003
325.317988
334.922316
339.504449
329.986711
324.767562
324.682201
334.704146
339.880217
329.845161
329.195826
332.244095
339.406063
329.379315
324.558278
326.515522
338.045135
340.050079
328.987431
323.848753
325.991921
338.62479
340.413418
328.203348
321.12679
324.589082
338.799996
341.327817
341.651316
342.133899
325.699711
322.427707
335.712673
342.689817
324.627996
316.668524
321.334026
341.300948
342.502401
340.704439
321.964553
318.758633
338.142219
341.604531
340.528786
341.030277
340.787248
340.639733
340.687391
340.479776
340.654066
340.622819
340.981364
341.365261
342.192461
343.701689
346.535087
348.671681
346.382996
343.662813
341.321161
339.197538
337.474328
335.981719
334.725293
332.988636
331.80123
332.21275
330.125734
328.972188
327.480501
326.984828
326.546074
324.163141
321.226482
317.88633
316.238011
329.193629
342.187881
338.756419
332.880544
327.584929
322.028855
316.379292
310.370291
304.498676
300
309.746064
312.583259
311.137491
353.938838
381.00658
412.864508
409.53032
422.218813
469.757704
490.95321
515.820973
555.472813
599.851931
659.764756
715.977137
769.624549
838.465879
881.092584
941.118144
982.008052
1016.81488
1053.48013
1087.35336
1122.78758
1150.6822
1178.8905
1201.76473
1226.58142
1246.64149
1268.43914
1286.19276
1305.4198
1321.49083
1338.37122
1352.7954
1367.0681
1380.39748
1392.13318
1405.28371
1414.3491
1427.41617
1437.09637
1448.633
1457.86455
1468.10369
1475.9153
1484.32782
1491.44059
1499.37024
1507.49747
1516.35989
1524.42004
1533.69395
1541.5473
1547.67584
1552.99478
1557.70178
1562.15194
1566.46085
1570.61577
1574.58634
1578.52116
1582.79881
1587.19086
1591.38816
1595.74567
1599.77937
1604.36336
1608.55065
1612.76045
1616.63645
1620.57445
1624.25366
1627.9373
1631.43529
1634.81446
1637.86379
1640.88389
1643.82251
1646.70801
1649.5549
1652.34938
1655.1462
1657.88168
1660.94873
1663.85422
1666.78418
1669.50455
1671.99476
1674.29653
1676.67013
1678.86145
1681.12773
1683.21668
1685.38614
1687.37937
1689.40473
1691.23057
1693.13865
1694.8781
1696.69844
1698.35843
1700.10043
)
;

boundaryField
{
    closed
    {
        type            fixedValue;
        value           nonuniform List<scalar> 0();
    }
    open
    {
        type            zeroGradient;
    }
    sides
    {
        type            empty;
    }
    procBoundary4to3
    {
        type            processor;
        value           uniform 339.613878;
    }
    procBoundary4to5
    {
        type            processor;
        value           uniform 1701.68742;
    }
}


// ************************************************************************* //
