/*--------------------------------*- C++ -*----------------------------------*\
| =========                 |                                                 |
| \\      /  F ield         | OpenFOAM: The Open Source CFD Toolbox           |
|  \\    /   O peration     | Version:  2306                                  |
|   \\  /    A nd           | Website:  www.openfoam.com                      |
|    \\/     M anipulation  |                                                 |
\*---------------------------------------------------------------------------*/
FoamFile
{
    version     2.0;
    format      ascii;
    arch        "LSB;label=32;scalar=64";
    class       volScalarField;
    location    "0.00148";
    object      H2O;
}
// * * * * * * * * * * * * * * * * * * * * * * * * * * * * * * * * * * * * * //

dimensions      [0 0 0 0 0 0 0];

internalField   nonuniform List<scalar> 
531
(
0.00405339579
0.00708333528
0.00708077434
0.0062924332
0.00180608994
0.000921647983
0.00427406029
0.00688301454
0.006439046
0.00148924947
0.000910606008
0.00448877408
0.00694924051
0.00646600501
0.00133306385
0.000899441714
0.00470374429
0.00700438218
0.00647271185
0.00117996092
0.000898380087
0.00481743371
0.00699339955
0.00638850983
0.000955429699
0.000916493161
0.00470549646
0.00695728763
0.0063292961
0.000798829035
0.000907845475
0.0049626766
0.00702327585
0.00627009424
0.000805608692
0.00104398366
0.000894294797
0.0043468348
0.00708739669
0.00703720369
0.00698913582
0.0062899895
0.000825966458
0.00091360822
0.00506584093
0.00709693434
0.00649323408
0.000765923359
0.000890281703
0.00523982099
0.00720190539
0.00653790538
0.000786664685
0.000891345385
0.00550003311
0.00638855282
0.00243943081
0.000913277772
0.00492368651
0.00658458339
0.00408776277
0.000964456408
0.00234768555
0.00713782624
0.0069865633
0.00266212316
0.000921195784
0.00395362704
0.00736119092
0.00732119405
0.00636449838
0.0022204325
0.00107592171
0.000815247452
0.00618389731
0.00712328062
0.0065162445
0.00273354745
0.000987956391
0.00317271089
0.00692044361
0.00626411446
0.000936798916
0.000962985328
0.00477144091
0.00730695256
0.00725915885
0.00627849842
0.00128768497
0.00101987734
0.00319635226
0.0070101545
0.00689841522
0.00372389539
0.00101248215
0.00112757363
0.00702762153
0.00699312092
0.00319991581
0.00105056177
0.000979991915
0.0041607411
0.00725744985
0.00720293581
0.00659658698
0.00338284293
0.00103994291
0.000990981686
0.00705929329
0.00706388128
0.00366519912
0.00102831226
0.000770057827
0.0072037086
0.00723329094
0.00450802058
0.00102739731
0.000709991878
0.00652510934
0.00588764807
0.00099420951
0.000815121306
0.00728427636
0.00729420923
0.00450279139
0.00100631946
0.000790148303
0.00729399064
0.0073161494
0.00444797027
0.00101079977
0.000797758951
0.00727599107
0.00731384823
0.00444143016
0.00101465466
0.000806000173
0.00726069633
0.00731660005
0.00444907247
0.00101765032
0.000804985253
0.00723480799
0.00730347161
0.00416237999
0.00101946441
0.00109815653
0.00714123658
0.00718592111
0.00296554133
0.00101224613
0.00305030467
0.00729506558
0.0070311223
0.00105198507
0.00100173371
0.00558574091
0.00666710147
0.00193803915
0.00100833699
0.00536867897
0.00689481998
0.00493591441
0.00103151661
0.000820678771
0.00709103566
0.0072610289
0.00315746703
0.00101721318
0.00274709946
0.00723100864
0.0072315856
0.00719395435
0.00677940013
0.00083419077
0.0010487443
0.00495801605
0.00667647887
0.00444037271
0.00101105369
0.00236454105
0.0072617106
0.00715058643
0.000782877128
0.00101522979
0.00528668095
0.00677922882
0.00370548202
0.000987714966
0.00380391006
0.00723114346
0.00694962614
0.00090956938
0.00101054087
0.0057983588
0.0068945656
0.00324230831
0.000978790795
0.00422203663
0.00722415791
0.00676567525
0.000908914076
0.0010022024
0.00624138229
0.00700418539
0.00331365362
0.000980142242
0.00373875771
0.00732765217
0.00719841637
0.000755433123
0.00101465719
0.00446107319
0.00724438312
0.00706290277
0.000790562262
0.00103935566
0.00395116763
0.00700344253
0.00728828267
0.00691465131
0.000850700206
0.00102992978
0.00492304599
0.00706729687
0.00656823428
0.00087334505
0.0010219777
0.00545772078
0.00707187682
0.00604878811
0.000895414257
0.00100611628
0.00551159629
0.00718216995
0.00631165588
0.000848045401
0.000996524404
0.00533494421
0.00724503218
0.00673570657
0.00102327367
0.00099204868
0.00516681023
0.0066427447
0.00261876813
0.000966034455
0.00467158756
0.00712484107
0.00686751399
0.00134706668
0.00098845232
0.00450735972
0.00706432773
0.0068817323
0.00155089015
0.000994986918
0.00406139052
0.0068923645
0.00684899204
0.00171768941
0.000997124374
0.00370926013
0.00681623966
0.00695010659
0.00708210373
0.0070725933
0.00303222221
0.000965915063
0.00363731219
0.00641857072
0.00424515052
0.000908489919
0.00356710292
0.00628878189
0.00412148552
0.000917951397
0.00310317251
0.00683425873
0.00711028396
0.00358578596
0.000948354646
0.00308722569
0.00688801906
0.00725143956
0.00414263758
0.000930302873
0.0034208015
0.00658507774
0.00471664957
0.000892870702
0.00335631152
0.00648282339
0.00456533973
0.00091026912
0.00275289494
0.00675677694
0.00716000044
0.00417483743
0.000947351118
0.00246592575
0.00667991085
0.00711750583
0.00425920146
0.000945010912
0.00237322772
0.00670616919
0.00720179946
0.00446765579
0.000930258269
0.00242219266
0.00678103316
0.00733581166
0.00475452666
0.000925459139
0.00314677123
0.00655216139
0.00470968976
0.000912855833
0.002586051
0.00686748523
0.00740642024
0.00485321437
0.000928894669
0.00309192924
0.00658127497
0.00478739062
0.000922208927
0.00252205494
0.00691867687
0.00747257037
0.0049747369
0.000928595587
0.00290856237
0.00668068094
0.00515909263
0.000930973239
0.00296684001
0.00661412409
0.00500398372
0.000949673568
0.00208159308
0.00684036557
0.00738446325
0.00486810603
0.000954392262
0.00186285574
0.00683164368
0.00742606178
0.00488093137
0.000942523732
0.00297415775
0.00671715234
0.00504501148
0.000935327002
0.00320301387
0.0067563719
0.00505543079
0.000928202594
0.00242725073
0.00708680115
0.00753182882
0.00487867216
0.000908387366
0.00342398175
0.00673756187
0.00475455743
0.000933076882
0.00345259048
0.00664510983
0.00471481155
0.000944346951
0.00235345633
0.0070330467
0.00732124924
0.00439921285
0.00092817635
0.00344742878
0.00653084945
0.00466579701
0.000963637603
0.00187355857
0.0069131669
0.0071782216
0.00456203594
0.000957536895
0.0014306922
0.00685211355
0.00715264744
0.00466518072
0.000964027162
0.00103527049
0.00681235781
0.0071436719
0.00473953468
0.000972176778
0.000763491649
0.00676566931
0.00715399051
0.00479599119
0.000969858951
0.00075423743
0.00667615612
0.00717795984
0.00714621185
0.00542377631
0.000997085743
0.00107393461
0.00266283536
0.00672611649
0.0071325976
0.00483024235
0.000946104896
0.00132037818
0.00700928545
0.00731360294
0.00404999391
0.000908184949
0.00413845811
0.0066196379
0.00425160586
0.000960484311
0.00259428185
0.00714542241
0.00730803183
0.00359872666
0.000878124644
0.0049515509
0.00671591966
0.00292726082
0.000912658657
0.00529671882
0.00665702544
0.00225793705
0.00093163356
0.00549096956
0.00661313256
0.00254534353
0.000974621222
0.00408926444
0.00724817939
0.00719532777
0.00205174636
0.000902368974
0.00575024338
0.00662133537
0.00209343867
0.000996370911
0.0041238912
0.00712886803
0.00703781327
0.00203476263
0.00098052798
0.00421746865
0.00717604546
0.0070427003
0.0015820914
0.00097365954
0.00465451285
0.00731226284
0.00710464555
0.00107204596
0.000967853285
0.00500233301
0.00742754419
0.00714899228
0.000866709336
0.00094801863
0.00642747086
0.00669116777
0.000758400899
0.00101756718
0.0048312711
0.00718439248
0.00701757097
0.00237712463
0.00107586738
0.00103842696
0.00481672575
0.00680998701
0.00737036436
0.00715957735
0.00087142798
0.000986079043
0.00535268021
0.00751365441
0.0071423137
0.000897160016
0.000969577884
0.00650558483
0.00671105658
0.00086514047
0.00101708969
0.00533051384
0.00741293511
0.00705522872
0.00089604775
0.000976376496
0.00641035032
0.00669242621
0.000864316098
0.000975084053
0.0064920509
0.0067027609
0.000824899769
0.00102932085
0.00499457194
0.00730678168
0.00704436347
0.00085582843
0.00101678795
0.00487301382
0.00732172253
0.00707864749
0.00084672277
0.00101601567
0.00485475585
0.0073105554
0.00706813792
0.000843106469
0.00102018325
0.00480026658
0.00727286581
0.0070440847
0.000841697359
0.00102474065
0.00474754407
0.00724437008
0.00702594471
0.000839994885
0.00102803446
)
;

boundaryField
{
    closed
    {
        type            calculated;
        value           nonuniform List<scalar> 0();
    }
    open
    {
        type            calculated;
        value           nonuniform List<scalar> 0();
    }
    sides
    {
        type            empty;
    }
    procBoundary1to0
    {
        type            processor;
        value           uniform 0.000914377623;
    }
    procBoundary1to2
    {
        type            processor;
        value           uniform 0.00472262645;
    }
}


// ************************************************************************* //
