/*--------------------------------*- C++ -*----------------------------------*\
| =========                 |                                                 |
| \\      /  F ield         | OpenFOAM: The Open Source CFD Toolbox           |
|  \\    /   O peration     | Version:  2306                                  |
|   \\  /    A nd           | Website:  www.openfoam.com                      |
|    \\/     M anipulation  |                                                 |
\*---------------------------------------------------------------------------*/
FoamFile
{
    version     2.0;
    format      ascii;
    arch        "LSB;label=32;scalar=64";
    class       volScalarField;
    location    "0.00026";
    object      prefDZ_T;
}
// * * * * * * * * * * * * * * * * * * * * * * * * * * * * * * * * * * * * * //

dimensions      [1 -1 -1 -1 0 0 0];

internalField   nonuniform List<scalar> 
530
(
-8.53256412e-11
-8.30128505e-11
-8.31276933e-11
-8.80761642e-11
-8.54637867e-11
-8.32484393e-11
-8.33053531e-11
-8.78843907e-11
-8.56394245e-11
-8.34947975e-11
-8.35602343e-11
-8.77716151e-11
-8.57854737e-11
-8.37509963e-11
-8.38241873e-11
-8.77709033e-11
-8.5942013e-11
-8.40232083e-11
-8.40943956e-11
-8.76595103e-11
-8.61027623e-11
-8.43092351e-11
-8.43748802e-11
-8.74552151e-11
-8.62315716e-11
-8.45909043e-11
-8.46531728e-11
-8.72529006e-11
-8.64476482e-11
-8.48516276e-11
-8.49103951e-11
-8.71688283e-11
-8.67142735e-11
-8.51503194e-11
-8.51629663e-11
-8.6889913e-11
-8.69464597e-11
-8.59504303e-11
-8.54081693e-11
-8.59112768e-11
-8.69703839e-11
-8.71364681e-11
-8.56532834e-11
-8.56703307e-11
-8.69349418e-11
-8.76338206e-11
-8.58887778e-11
-8.5836671e-11
-8.68949336e-11
-8.81043826e-11
-8.63051123e-11
-8.60085552e-11
-8.66986511e-11
-8.84406726e-11
-8.68983824e-11
-8.61900201e-11
-8.64369773e-11
-8.85926236e-11
-8.73666419e-11
-8.6372325e-11
-8.65348963e-11
-8.87031993e-11
-8.76966511e-11
-8.65506153e-11
-8.66858912e-11
-8.87465962e-11
-8.79238681e-11
-8.67238499e-11
-8.68362104e-11
-8.87225998e-11
-8.80491582e-11
-8.68950246e-11
-8.69843893e-11
-8.86046499e-11
-8.80754014e-11
-8.70568463e-11
-8.71303214e-11
-8.84558516e-11
-8.80394836e-11
-8.72023886e-11
-8.72681393e-11
-8.83325301e-11
-8.80023186e-11
-8.7327733e-11
-8.74140888e-11
-8.83015406e-11
-8.78105351e-11
-8.74361315e-11
-8.78723345e-11
-8.83498265e-11
-8.7557543e-11
-8.75353238e-11
-8.81409679e-11
-8.83807315e-11
-8.762109e-11
-8.7627316e-11
-8.83047244e-11
-8.83989105e-11
-8.76943395e-11
-8.77106488e-11
-8.83605563e-11
-8.84055753e-11
-8.77667266e-11
-8.7782836e-11
-8.83766269e-11
-8.84090134e-11
-8.78334987e-11
-8.78474065e-11
-8.83889286e-11
-8.84129139e-11
-8.78930097e-11
-8.79045238e-11
-8.8405179e-11
-8.8417415e-11
-8.79455552e-11
-8.79547303e-11
-8.84187446e-11
-8.84225925e-11
-8.79920351e-11
-8.79988372e-11
-8.8424211e-11
-8.84298737e-11
-8.8033027e-11
-8.80371949e-11
-8.84259766e-11
-8.84364223e-11
-8.80690273e-11
-8.80709515e-11
-8.84218394e-11
-8.84401311e-11
-8.81006397e-11
-8.81004713e-11
-8.84145257e-11
-8.84423166e-11
-8.81279337e-11
-8.81260114e-11
-8.84080544e-11
-8.84399517e-11
-8.81512548e-11
-8.81486424e-11
-8.84013129e-11
-8.84299906e-11
-8.81713611e-11
-8.81686443e-11
-8.8393901e-11
-8.84160496e-11
-8.81885029e-11
-8.81859436e-11
-8.8385162e-11
-8.84029807e-11
-8.82031632e-11
-8.82005691e-11
-8.83745089e-11
-8.83924628e-11
-8.82157786e-11
-8.82126975e-11
-8.83633634e-11
-8.83843749e-11
-8.82265323e-11
-8.82228017e-11
-8.83510277e-11
-8.83769193e-11
-8.82356336e-11
-8.82312658e-11
-8.83387617e-11
-8.83691219e-11
-8.82431846e-11
-8.82384018e-11
-8.8328661e-11
-8.83607146e-11
-8.8249222e-11
-8.82444131e-11
-8.83215386e-11
-8.83517263e-11
-8.82539664e-11
-8.82494594e-11
-8.83166037e-11
-8.83425321e-11
-8.82576617e-11
-8.82537244e-11
-8.83124237e-11
-8.83330431e-11
-8.82605745e-11
-8.82573818e-11
-8.83081204e-11
-8.83229937e-11
-8.82629618e-11
-8.82604307e-11
-8.83032373e-11
-8.83140078e-11
-8.82648989e-11
-8.82628755e-11
-8.82986861e-11
-8.83071475e-11
-8.82664698e-11
-8.82647268e-11
-8.82949405e-11
-8.8302496e-11
-8.82677274e-11
-8.82661082e-11
-8.82918097e-11
-8.82993411e-11
-8.82687696e-11
-8.82671593e-11
-8.82884625e-11
-8.82967831e-11
-8.82697521e-11
-8.82679977e-11
-8.82828406e-11
-8.82943282e-11
-8.82748804e-11
-8.82687522e-11
-8.82720797e-11
-8.82913128e-11
-8.82853719e-11
-8.82694432e-11
-8.82699279e-11
-8.82882084e-11
-8.82877235e-11
-8.82700536e-11
-8.82699331e-11
-8.82851326e-11
-8.82862233e-11
-8.82706136e-11
-8.82702474e-11
-8.82823921e-11
-8.82840153e-11
-8.82710351e-11
-8.82705686e-11
-8.8280083e-11
-8.82824865e-11
-8.82712769e-11
-8.82708428e-11
-8.82783737e-11
-8.82806729e-11
-8.82714669e-11
-8.82710794e-11
-8.82770541e-11
-8.82790833e-11
-8.82716052e-11
-8.82712834e-11
-8.82760051e-11
-8.82776044e-11
-8.8271707e-11
-8.82714565e-11
-8.8275194e-11
-8.8276171e-11
-8.82717925e-11
-8.82716037e-11
-8.82744457e-11
-8.82750445e-11
-8.8271861e-11
-8.82717266e-11
-8.82737469e-11
-8.82740965e-11
-8.82719083e-11
-8.82718349e-11
-8.82731044e-11
-8.82732207e-11
-8.82719617e-11
-8.82719277e-11
-8.82724773e-11
-8.82724664e-11
-8.82720004e-11
-8.82719884e-11
-8.82720325e-11
-8.82720236e-11
-8.82720026e-11
-8.82719939e-11
-8.82719952e-11
-8.82719899e-11
-8.82719831e-11
-8.82719789e-11
-8.82719753e-11
-8.8271972e-11
-8.82719678e-11
-8.82719653e-11
-8.8271962e-11
-8.827196e-11
-8.82719572e-11
-8.82719555e-11
-8.82719532e-11
-8.82719519e-11
-8.827195e-11
-8.82719489e-11
-8.82719473e-11
-8.82719465e-11
-8.82719452e-11
-8.82719445e-11
-8.82719435e-11
-8.8271943e-11
-8.82719422e-11
-8.82719417e-11
-8.82719411e-11
-8.82719407e-11
-8.82719402e-11
-8.82719399e-11
-8.82719395e-11
-8.82719393e-11
-8.8271939e-11
-8.82719388e-11
-8.82719385e-11
-8.82719384e-11
-8.82719382e-11
-8.82719381e-11
-8.8271938e-11
-8.82719379e-11
-8.82719378e-11
-8.82719377e-11
-8.82719376e-11
-8.82719376e-11
-8.82719375e-11
-8.82719374e-11
-8.82719374e-11
-8.82719374e-11
-8.82719373e-11
-8.82719373e-11
-8.82719373e-11
-8.82719372e-11
-8.82719372e-11
-8.82719372e-11
-8.82719372e-11
-8.82719372e-11
-8.82719372e-11
-8.82719372e-11
-8.82719371e-11
-8.82719371e-11
-8.82719371e-11
-8.82719371e-11
-8.82719371e-11
-8.82719371e-11
-8.82719371e-11
-8.82719371e-11
-8.82719371e-11
-8.82719371e-11
-8.82719371e-11
-8.82719371e-11
-8.82719371e-11
-8.82719371e-11
-8.82719371e-11
-8.82719371e-11
-8.82719371e-11
-8.82719371e-11
-8.82719371e-11
-8.82719371e-11
-8.82719371e-11
-8.82719371e-11
-8.82719371e-11
-8.82719371e-11
-8.82719371e-11
-8.82719371e-11
-8.82719371e-11
-8.82719371e-11
-8.82719371e-11
-8.82719371e-11
-8.82719371e-11
-8.82719371e-11
-8.82719371e-11
-8.82719371e-11
-8.82719371e-11
-8.82719371e-11
-8.82719371e-11
-8.82719371e-11
-8.82719371e-11
-8.82719371e-11
-8.82719371e-11
-8.82719371e-11
-8.82719371e-11
-8.82719371e-11
-8.82719371e-11
-8.82719371e-11
-8.82719371e-11
-8.82719371e-11
-8.82719371e-11
-8.82719371e-11
-8.82719371e-11
-8.82719371e-11
-8.82719371e-11
-8.82719371e-11
-8.82719371e-11
-8.82719371e-11
-8.82719371e-11
-8.82719371e-11
-8.82719371e-11
-8.82719371e-11
-8.82719371e-11
-8.82719371e-11
-8.82719371e-11
-8.82719371e-11
-8.82719371e-11
-8.82719371e-11
-8.82719371e-11
-8.82719371e-11
-8.82719371e-11
-8.82719371e-11
-8.82719371e-11
-8.82719371e-11
-8.82719371e-11
-8.82719371e-11
-8.82719371e-11
-8.82719371e-11
-8.82719371e-11
-8.82719371e-11
-8.82719371e-11
-8.82719371e-11
-8.82719371e-11
-8.82719371e-11
-8.82719371e-11
-8.82719371e-11
-8.82719371e-11
-8.82719371e-11
-8.82719371e-11
-8.82719371e-11
-8.82719371e-11
-8.82719371e-11
-8.82719371e-11
-8.82719371e-11
-8.82719371e-11
-8.82719371e-11
-8.82719371e-11
-8.82719371e-11
-8.82719371e-11
-8.82719371e-11
-8.82719371e-11
-8.82719371e-11
-8.82719371e-11
-8.82719371e-11
-8.82719371e-11
-8.82719371e-11
-8.82719371e-11
-8.82719371e-11
-8.82719371e-11
-8.82719371e-11
-8.82719371e-11
-8.82719371e-11
-8.82719371e-11
-8.82719371e-11
-8.82719371e-11
-8.82719371e-11
-8.82719371e-11
-8.82719371e-11
-8.82719371e-11
-8.82719371e-11
-8.82719371e-11
-8.82719371e-11
-8.82719371e-11
-8.82719371e-11
-8.82719371e-11
-8.82719371e-11
-8.82719371e-11
-8.82719371e-11
-8.82719371e-11
-8.82719371e-11
-8.82719371e-11
-8.82719371e-11
-8.82719371e-11
-8.82719371e-11
-8.82719371e-11
-8.82719371e-11
-8.82719371e-11
-8.82719371e-11
-8.82719371e-11
-8.82719371e-11
-8.82719371e-11
-8.82719371e-11
-8.82719371e-11
-8.82719371e-11
-8.82719371e-11
-8.82719371e-11
-8.82719371e-11
-8.82719371e-11
-8.82719371e-11
-8.82719371e-11
-8.82719371e-11
-8.82719371e-11
-8.82719371e-11
-8.82719371e-11
-8.82719371e-11
-8.82719371e-11
-8.82719371e-11
-8.82719371e-11
-8.82719371e-11
-8.82719371e-11
-8.82719371e-11
-8.82719371e-11
-8.82719371e-11
-8.82719371e-11
-8.82719371e-11
-8.82719371e-11
-8.82719371e-11
-8.82719371e-11
-8.82719371e-11
-8.82719371e-11
-8.82719371e-11
-8.82719371e-11
-8.82719371e-11
-8.82719371e-11
-8.82719371e-11
-8.82719371e-11
-8.82719371e-11
-8.82719371e-11
-8.82719371e-11
-8.82719371e-11
-8.82719371e-11
-8.82719371e-11
-8.82719371e-11
-8.82719371e-11
-8.82719371e-11
-8.82719371e-11
-8.82719371e-11
-8.82719371e-11
-8.82719371e-11
-8.82719371e-11
-8.82719371e-11
-8.82719371e-11
-8.82719371e-11
-8.82719371e-11
-8.82719371e-11
-8.82719371e-11
-8.82719371e-11
-8.82719371e-11
-8.82719371e-11
-8.82719371e-11
-8.82719371e-11
-8.82719371e-11
-8.82719371e-11
-8.82719371e-11
-8.82719371e-11
-8.82719371e-11
-8.82719371e-11
)
;

boundaryField
{
    closed
    {
        type            calculated;
        value           nonuniform List<scalar> 0();
    }
    open
    {
        type            calculated;
        value           uniform -8.82719371e-11;
    }
    sides
    {
        type            empty;
    }
    procBoundary5to4
    {
        type            processor;
        value           uniform -8.83759065e-11;
    }
}


// ************************************************************************* //
