/*--------------------------------*- C++ -*----------------------------------*\
| =========                 |                                                 |
| \\      /  F ield         | OpenFOAM: The Open Source CFD Toolbox           |
|  \\    /   O peration     | Version:  2306                                  |
|   \\  /    A nd           | Website:  www.openfoam.com                      |
|    \\/     M anipulation  |                                                 |
\*---------------------------------------------------------------------------*/
FoamFile
{
    version     2.0;
    format      ascii;
    arch        "LSB;label=32;scalar=64";
    class       volScalarField;
    location    "0.00026";
    object      prefDZ_H;
}
// * * * * * * * * * * * * * * * * * * * * * * * * * * * * * * * * * * * * * //

dimensions      [1 -1 -1 0 0 0 0];

internalField   nonuniform List<scalar> 
530
(
0.000343121397
0.000344911441
0.00034508634
0.000343985031
0.000344720108
0.000346416934
0.000346756694
0.000345631233
0.000346367788
0.000347969594
0.000348358969
0.000347314979
0.000348057959
0.000349564749
0.000350000835
0.000349014981
0.000349764412
0.000351280937
0.000351671188
0.000350856627
0.000351505883
0.000353055788
0.000353406161
0.000352690255
0.000353285123
0.000354759687
0.000355111598
0.000354403108
0.000354965629
0.000356278509
0.00035663182
0.000355938291
0.000356445267
0.000357858116
0.000358112981
0.00035754462
0.000357908529
0.000358773496
0.000359580005
0.000359606783
0.000359406262
0.000359611591
0.00036101815
0.000361129393
0.000360829242
0.000360809086
0.000362367713
0.000362165107
0.000362173468
0.000361928002
0.000363418033
0.000363199141
0.000363654295
0.000363043106
0.000364084886
0.00036425493
0.000365244506
0.000364138433
0.000364917943
0.00036528608
0.000366053153
0.000365162385
0.000365811797
0.00036626161
0.000366898609
0.000366124317
0.000366667689
0.00036718091
0.000367705066
0.000367015608
0.000367471966
0.000368066701
0.000368474485
0.000367862795
0.000368232077
0.000368879244
0.000369212288
0.000368651263
0.000368971417
0.000369606378
0.000369911311
0.000369355594
0.000369727276
0.000370231551
0.000370657411
0.000369965403
0.000370577547
0.000370762358
0.000370806998
0.000370495285
0.000371336603
0.000371236923
0.000371061106
0.000370974958
0.000371630741
0.000371664982
0.000371363215
0.000371404954
0.000371965672
0.000372041893
0.000371724212
0.000371790241
0.000372284897
0.000372356298
0.000372072056
0.00037212843
0.000372569869
0.000372630106
0.000372373861
0.000372420266
0.000372816331
0.000372865137
0.000372626963
0.000372670076
0.000373026116
0.000373064918
0.000372843528
0.000372882216
0.00037320546
0.000373233706
0.000373034137
0.000373059692
0.000373358462
0.000373374756
0.000373197946
0.000373209234
0.000373487702
0.000373494842
0.000373340918
0.000373337172
0.000373597596
0.000373595812
0.000373463903
0.000373444907
0.000373689106
0.000373679685
0.000373565955
0.000373538885
0.000373764012
0.000373752293
0.000373650846
0.000373625332
0.000373826446
0.000373814476
0.000373721828
0.000373702685
0.000373877798
0.000373866585
0.000373781972
0.000373767329
0.000373920393
0.000373909023
0.000373834378
0.000373819119
0.000373956167
0.000373942793
0.000373879032
0.000373860103
0.000373985877
0.000373969636
0.000373918326
0.000373893614
0.000374010429
0.000373991304
0.000373952159
0.000373922077
0.000374030366
0.000374009186
0.000373979138
0.000373946846
0.000374045543
0.000374024012
0.000373999272
0.000373968735
0.000374056624
0.000374036392
0.000374014165
0.000373988038
0.0003740647
0.000374046854
0.00037402601
0.000374005489
0.000374070637
0.000374055879
0.000374036342
0.000374021842
0.000374075241
0.000374063458
0.000374045995
0.000374035685
0.000374078926
0.000374069432
0.000374054195
0.000374046123
0.000374081907
0.00037407375
0.000374060638
0.000374053321
0.000374084289
0.000374076745
0.000374065738
0.000374058268
0.000374086368
0.00037407889
0.000374070602
0.00037406212
0.000374088709
0.000374080584
0.000374077645
0.000374065556
0.000374087022
0.000374082319
0.000374090253
0.000374069364
0.000374075761
0.000374084175
0.000374085816
0.000374073095
0.000374073619
0.000374085846
0.000374084979
0.000374076661
0.000374075543
0.000374087537
0.000374085761
0.000374079787
0.000374078109
0.000374088823
0.000374086623
0.000374082411
0.000374079858
0.000374089448
0.000374087378
0.000374084344
0.000374081887
0.000374089931
0.000374088095
0.000374085821
0.000374083648
0.000374090262
0.000374088741
0.000374086987
0.000374085273
0.000374090492
0.000374089324
0.000374087883
0.000374086846
0.000374090692
0.000374089835
0.000374088704
0.000374088075
0.000374090867
0.000374090266
0.000374089471
0.000374089109
0.000374090973
0.000374090657
0.000374090178
0.000374090065
0.000374091149
0.000374091002
0.000374090872
0.000374090894
0.000374091266
0.000374091206
0.000374091355
0.000374091236
0.000374091108
0.00037409103
0.000374090969
0.000374090913
0.000374090849
0.000374090808
0.000374090757
0.000374090727
0.000374090685
0.000374090663
0.00037409063
0.000374090613
0.000374090588
0.000374090574
0.000374090555
0.000374090545
0.000374090531
0.000374090523
0.000374090512
0.000374090506
0.000374090498
0.000374090493
0.000374090487
0.000374090483
0.000374090479
0.000374090476
0.000374090473
0.000374090471
0.000374090468
0.000374090467
0.000374090465
0.000374090464
0.000374090462
0.000374090461
0.00037409046
0.00037409046
0.000374090459
0.000374090458
0.000374090458
0.000374090458
0.000374090457
0.000374090457
0.000374090457
0.000374090456
0.000374090456
0.000374090456
0.000374090456
0.000374090456
0.000374090456
0.000374090456
0.000374090456
0.000374090455
0.000374090455
0.000374090455
0.000374090455
0.000374090455
0.000374090455
0.000374090455
0.000374090455
0.000374090455
0.000374090455
0.000374090455
0.000374090455
0.000374090455
0.000374090455
0.000374090455
0.000374090455
0.000374090455
0.000374090455
0.000374090455
0.000374090455
0.000374090455
0.000374090455
0.000374090455
0.000374090455
0.000374090455
0.000374090455
0.000374090455
0.000374090455
0.000374090455
0.000374090455
0.000374090455
0.000374090455
0.000374090455
0.000374090455
0.000374090455
0.000374090455
0.000374090455
0.000374090455
0.000374090455
0.000374090455
0.000374090455
0.000374090455
0.000374090455
0.000374090455
0.000374090455
0.000374090455
0.000374090455
0.000374090455
0.000374090455
0.000374090455
0.000374090455
0.000374090455
0.000374090455
0.000374090455
0.000374090455
0.000374090455
0.000374090455
0.000374090455
0.000374090455
0.000374090455
0.000374090455
0.000374090455
0.000374090455
0.000374090455
0.000374090455
0.000374090455
0.000374090455
0.000374090455
0.000374090455
0.000374090455
0.000374090455
0.000374090455
0.000374090455
0.000374090455
0.000374090455
0.000374090455
0.000374090455
0.000374090455
0.000374090455
0.000374090455
0.000374090455
0.000374090455
0.000374090455
0.000374090455
0.000374090455
0.000374090455
0.000374090455
0.000374090455
0.000374090455
0.000374090455
0.000374090455
0.000374090455
0.000374090455
0.000374090455
0.000374090455
0.000374090455
0.000374090455
0.000374090455
0.000374090455
0.000374090455
0.000374090455
0.000374090455
0.000374090455
0.000374090455
0.000374090455
0.000374090455
0.000374090455
0.000374090455
0.000374090455
0.000374090455
0.000374090455
0.000374090455
0.000374090455
0.000374090455
0.000374090455
0.000374090455
0.000374090455
0.000374090455
0.000374090455
0.000374090455
0.000374090455
0.000374090455
0.000374090455
0.000374090455
0.000374090455
0.000374090455
0.000374090455
0.000374090455
0.000374090455
0.000374090455
0.000374090455
0.000374090455
0.000374090455
0.000374090455
0.000374090455
0.000374090455
0.000374090455
0.000374090455
0.000374090455
0.000374090455
0.000374090455
0.000374090455
0.000374090455
0.000374090455
0.000374090455
0.000374090455
0.000374090455
0.000374090455
0.000374090455
0.000374090455
0.000374090455
0.000374090455
0.000374090455
0.000374090455
0.000374090455
0.000374090455
0.000374090455
0.000374090455
0.000374090455
0.000374090455
0.000374090455
0.000374090455
0.000374090455
0.000374090455
0.000374090455
0.000374090455
0.000374090455
0.000374090455
0.000374090455
0.000374090455
0.000374090455
0.000374090455
0.000374090455
0.000374090455
0.000374090455
0.000374090455
0.000374090455
0.000374090455
0.000374090455
0.000374090455
0.000374090455
0.000374090455
0.000374090455
0.000374090455
0.000374090455
0.000374090455
0.000374090455
0.000374090455
0.000374090455
0.000374090455
0.000374090455
0.000374090455
0.000374090455
0.000374090455
0.000374090455
0.000374090455
0.000374090455
0.000374090455
0.000374090455
0.000374090455
0.000374090455
0.000374090455
0.000374090455
0.000374090455
0.000374090455
0.000374090455
0.000374090455
0.000374090455
0.000374090455
0.000374090455
0.000374090455
0.000374090455
)
;

boundaryField
{
    closed
    {
        type            calculated;
        value           nonuniform List<scalar> 0();
    }
    open
    {
        type            calculated;
        value           uniform 0.000374090455;
    }
    sides
    {
        type            empty;
    }
    procBoundary5to4
    {
        type            processor;
        value           uniform 0.000342374297;
    }
}


// ************************************************************************* //
