/*--------------------------------*- C++ -*----------------------------------*\
| =========                 |                                                 |
| \\      /  F ield         | OpenFOAM: The Open Source CFD Toolbox           |
|  \\    /   O peration     | Version:  2306                                  |
|   \\  /    A nd           | Website:  www.openfoam.com                      |
|    \\/     M anipulation  |                                                 |
\*---------------------------------------------------------------------------*/
FoamFile
{
    version     2.0;
    format      ascii;
    arch        "LSB;label=32;scalar=64";
    class       volScalarField;
    location    "0.00026";
    object      prefDh_H2O;
}
// * * * * * * * * * * * * * * * * * * * * * * * * * * * * * * * * * * * * * //

dimensions      [1 1 -3 0 0 0 0];

internalField   nonuniform List<scalar> 
530
(
-200.211682
-202.586712
-202.557888
-199.088439
-200.793503
-203.080957
-203.189886
-199.839802
-201.367604
-203.576603
-203.699989
-200.558973
-201.962746
-204.079938
-204.21345
-201.225573
-202.549662
-204.601727
-204.719262
-201.992981
-203.136278
-205.133619
-205.236777
-202.803857
-203.742878
-205.625658
-205.726017
-203.574577
-204.259538
-206.056635
-206.156085
-204.182762
-204.642821
-206.463432
-206.558415
-204.927652
-205.032742
-206.000254
-206.937564
-206.408691
-205.558166
-205.520274
-207.302144
-207.329461
-206.085446
-205.634742
-207.630157
-207.581957
-206.582355
-205.735568
-207.629881
-207.830996
-207.306517
-205.912322
-207.279939
-208.082066
-208.257372
-206.189041
-207.226088
-208.319336
-208.490755
-206.469901
-207.321048
-208.5382
-208.678888
-206.769982
-207.467977
-208.741812
-208.856236
-207.079846
-207.656172
-208.935569
-209.023527
-207.426712
-207.880645
-209.109508
-209.178355
-207.77232
-208.154118
-209.255818
-209.314405
-208.074303
-208.493344
-209.376405
-209.457792
-208.301145
-209.021966
-209.477701
-209.052948
-208.467941
-209.585974
-209.567349
-208.896451
-208.631831
-209.640927
-209.647406
-208.860498
-208.788797
-209.703099
-209.717231
-208.954892
-208.939755
-209.761812
-209.774908
-209.081544
-209.073576
-209.81377
-209.824738
-209.193344
-209.189565
-209.858347
-209.867175
-209.282568
-209.289044
-209.895604
-209.902349
-209.36055
-209.373565
-209.926454
-209.931341
-209.436549
-209.442687
-209.952598
-209.955392
-209.505787
-209.501569
-209.974526
-209.97574
-209.572607
-209.554636
-209.993059
-209.992734
-209.634498
-209.601104
-210.008393
-210.006753
-209.687075
-209.646309
-210.020856
-210.018834
-209.732746
-209.695722
-210.031183
-210.029124
-209.773146
-209.745117
-210.039626
-210.0377
-209.810106
-209.788239
-210.046591
-210.04464
-209.845425
-209.823242
-210.052416
-210.050124
-209.877714
-209.851136
-210.057231
-210.054449
-209.90863
-209.875045
-210.061193
-210.057916
-209.936972
-209.896868
-210.064397
-210.060766
-209.960118
-209.917429
-210.066816
-210.063122
-209.977302
-209.937056
-210.068558
-210.065087
-209.989955
-209.955522
-210.069811
-210.066747
-210.000384
-209.973282
-210.070718
-210.06818
-210.010155
-209.990914
-210.071412
-210.069385
-210.020016
-210.006302
-210.071966
-210.070332
-210.028755
-210.018039
-210.072414
-210.071011
-210.0358
-210.026149
-210.072772
-210.071474
-210.041534
-210.03176
-210.073088
-210.071802
-210.047257
-210.036242
-210.073457
-210.072061
-210.055981
-210.040384
-210.067894
-210.072332
-210.071976
-210.045134
-210.053347
-210.072631
-210.072904
-210.049872
-210.050554
-210.072901
-210.072748
-210.054454
-210.05303
-210.073178
-210.072872
-210.058503
-210.056361
-210.073389
-210.07301
-210.061925
-210.058661
-210.073489
-210.073133
-210.064465
-210.061327
-210.073566
-210.07325
-210.066423
-210.063647
-210.073619
-210.073357
-210.067978
-210.06579
-210.073654
-210.073454
-210.069179
-210.067857
-210.073686
-210.073539
-210.070277
-210.069477
-210.073714
-210.073611
-210.071298
-210.070839
-210.07373
-210.073676
-210.072232
-210.072092
-210.07376
-210.073734
-210.073145
-210.073175
-210.073779
-210.073768
-210.073793
-210.073772
-210.073749
-210.073735
-210.073724
-210.073714
-210.073702
-210.073695
-210.073685
-210.07368
-210.073673
-210.073668
-210.073663
-210.073659
-210.073655
-210.073653
-210.073649
-210.073647
-210.073645
-210.073643
-210.073641
-210.07364
-210.073639
-210.073638
-210.073637
-210.073636
-210.073636
-210.073635
-210.073635
-210.073634
-210.073634
-210.073634
-210.073633
-210.073633
-210.073633
-210.073633
-210.073632
-210.073632
-210.073632
-210.073632
-210.073632
-210.073632
-210.073632
-210.073632
-210.073632
-210.073632
-210.073632
-210.073632
-210.073632
-210.073632
-210.073632
-210.073632
-210.073632
-210.073632
-210.073632
-210.073632
-210.073632
-210.073632
-210.073632
-210.073632
-210.073632
-210.073632
-210.073632
-210.073632
-210.073632
-210.073632
-210.073632
-210.073632
-210.073632
-210.073632
-210.073632
-210.073632
-210.073632
-210.073632
-210.073632
-210.073632
-210.073632
-210.073632
-210.073632
-210.073632
-210.073632
-210.073632
-210.073632
-210.073632
-210.073632
-210.073632
-210.073632
-210.073632
-210.073632
-210.073632
-210.073632
-210.073632
-210.073632
-210.073632
-210.073632
-210.073632
-210.073632
-210.073632
-210.073632
-210.073632
-210.073632
-210.073632
-210.073632
-210.073632
-210.073632
-210.073632
-210.073632
-210.073632
-210.073632
-210.073632
-210.073632
-210.073632
-210.073632
-210.073632
-210.073632
-210.073632
-210.073632
-210.073632
-210.073632
-210.073632
-210.073632
-210.073632
-210.073632
-210.073632
-210.073632
-210.073632
-210.073632
-210.073632
-210.073632
-210.073632
-210.073632
-210.073632
-210.073632
-210.073632
-210.073632
-210.073632
-210.073632
-210.073632
-210.073632
-210.073632
-210.073632
-210.073632
-210.073632
-210.073632
-210.073632
-210.073632
-210.073632
-210.073632
-210.073632
-210.073632
-210.073632
-210.073632
-210.073632
-210.073632
-210.073632
-210.073632
-210.073632
-210.073632
-210.073632
-210.073632
-210.073632
-210.073632
-210.073632
-210.073632
-210.073632
-210.073632
-210.073632
-210.073632
-210.073632
-210.073632
-210.073632
-210.073632
-210.073632
-210.073632
-210.073632
-210.073632
-210.073632
-210.073632
-210.073632
-210.073632
-210.073632
-210.073632
-210.073632
-210.073632
-210.073632
-210.073632
-210.073632
-210.073632
-210.073632
-210.073632
-210.073632
-210.073632
-210.073632
-210.073632
-210.073632
-210.073632
-210.073632
-210.073632
-210.073632
-210.073632
-210.073632
-210.073632
-210.073632
-210.073632
-210.073632
-210.073632
-210.073632
-210.073632
-210.073632
-210.073632
-210.073632
-210.073632
-210.073632
-210.073632
-210.073632
-210.073632
-210.073632
-210.073632
-210.073632
-210.073632
-210.073632
-210.073632
-210.073632
-210.073632
-210.073632
-210.073632
-210.073632
-210.073632
-210.073632
-210.073632
-210.073632
-210.073632
-210.073632
-210.073632
-210.073632
-210.073632
-210.073632
-210.073632
-210.073632
-210.073632
-210.073632
-210.073632
-210.073632
-210.073632
-210.073632
-210.073632
-210.073632
-210.073632
-210.073632
-210.073632
-210.073632
-210.073632
-210.073632
-210.073632
-210.073632
-210.073632
-210.073632
-210.073632
-210.073632
-210.073632
-210.073632
-210.073632
-210.073632
-210.073632
-210.073632
)
;

boundaryField
{
    closed
    {
        type            calculated;
        value           nonuniform List<scalar> 0();
    }
    open
    {
        type            calculated;
        value           uniform -210.073632;
    }
    sides
    {
        type            empty;
    }
    procBoundary5to4
    {
        type            processor;
        value           uniform -198.29335;
    }
}


// ************************************************************************* //
