/*--------------------------------*- C++ -*----------------------------------*\
| =========                 |                                                 |
| \\      /  F ield         | OpenFOAM: The Open Source CFD Toolbox           |
|  \\    /   O peration     | Version:  2306                                  |
|   \\  /    A nd           | Website:  www.openfoam.com                      |
|    \\/     M anipulation  |                                                 |
\*---------------------------------------------------------------------------*/
FoamFile
{
    version     2.0;
    format      ascii;
    arch        "LSB;label=32;scalar=64";
    class       volScalarField;
    location    "0.00026";
    object      prefDh_T;
}
// * * * * * * * * * * * * * * * * * * * * * * * * * * * * * * * * * * * * * //

dimensions      [1 1 -3 -1 0 0 0];

internalField   nonuniform List<scalar> 
530
(
0.00779451843
0.00808373368
0.00807462285
0.00748771107
0.00781152421
0.00808713636
0.00808821668
0.0075448339
0.00782515511
0.00809073532
0.0080919547
0.00759498032
0.00784349219
0.008094566
0.0080958504
0.00763175511
0.00786143624
0.00809807028
0.00809970312
0.00768571091
0.00787974248
0.00810191592
0.00810349477
0.00775090147
0.00790286644
0.00810597062
0.00810716078
0.00781186135
0.00791395622
0.00811030578
0.0081111184
0.00785373276
0.00791516411
0.00811171842
0.00811481226
0.00791555583
0.00791925923
0.008039024
0.00811739741
0.0080610397
0.00794558511
0.00793105387
0.00812019971
0.00812023012
0.00797683735
0.00790570693
0.00812310398
0.00812116174
0.00800711874
0.00787977039
0.00809868678
0.0081225419
0.0080588565
0.00786787411
0.00804674685
0.0081244106
0.0081232843
0.00787668231
0.00801613033
0.00812656699
0.00813053068
0.00788746018
0.00800219559
0.00812903211
0.00813230314
0.0079042373
0.00799824263
0.00813176001
0.00813451075
0.00792618909
0.00800392964
0.00813471066
0.00813699983
0.00795666473
0.00801803297
0.00813777924
0.00813964877
0.00798948701
0.00803852182
0.00814033344
0.00814172432
0.00801849808
0.00805994741
0.00814234336
0.00814377869
0.00803661479
0.00809987524
0.00814419701
0.00809941639
0.00804509589
0.00814653911
0.00814603398
0.00807996825
0.00805444153
0.00814784698
0.00814789568
0.008071856
0.00806416533
0.00814940512
0.00814972662
0.00807653085
0.00807428073
0.00815110709
0.00815147938
0.00808507829
0.00808370686
0.00815280797
0.00815314841
0.00809289925
0.00809207095
0.00815442801
0.00815472437
0.0080991619
0.00809941418
0.00815596436
0.00815619817
0.00810484187
0.00810581749
0.00815740261
0.00815758317
0.00811070353
0.00811116672
0.00815874517
0.00815887061
0.0081162579
0.00811585868
0.00815999864
0.00816006214
0.00812184241
0.00812023855
0.0081611514
0.00816116308
0.00812717242
0.00812420197
0.00816219594
0.00816216665
0.00813180849
0.00812818253
0.00816313666
0.00816308083
0.0081359252
0.00813265238
0.00816397924
0.00816391799
0.00813963988
0.00813719898
0.00816472524
0.00816466667
0.0081430947
0.00814123094
0.00816538275
0.0081653235
0.00814643102
0.00814454976
0.00816596154
0.00816588927
0.00814951056
0.00814724041
0.00816646649
0.00816637975
0.00815247263
0.00814957915
0.00816690266
0.00816680277
0.00815520609
0.00815172522
0.00816727092
0.00816716513
0.0081574642
0.00815374696
0.00816757673
0.00816747391
0.00815917337
0.00815567142
0.00816782966
0.00816773409
0.00816045995
0.00815747458
0.00816803491
0.00816795399
0.0081615315
0.00815920165
0.00816820308
0.00816814177
0.00816253631
0.00816090308
0.00816834482
0.00816829746
0.0081635361
0.00816238819
0.00816846059
0.00816842386
0.00816441793
0.00816352657
0.00816855459
0.00816852262
0.00816512987
0.00816432308
0.0081686299
0.00816859971
0.00816570837
0.00816488217
0.00816869076
0.00816866036
0.00816627508
0.00816533019
0.00816874244
0.00816870898
0.00816710515
0.00816574144
0.00816822247
0.00816874961
0.0081685968
0.00816619958
0.00816692701
0.00816878283
0.00816880107
0.00816665011
0.00816671174
0.0081688117
0.00816881401
0.00816708055
0.00816696107
0.00816883585
0.00816883005
0.00816745999
0.00816727838
0.00816885381
0.00816884552
0.00816778225
0.00816749818
0.00816886581
0.00816885842
0.00816802286
0.00816774852
0.00816887534
0.00816886857
0.00816820867
0.00816796557
0.0081688826
0.00816887691
0.0081683564
0.00816816483
0.00816888814
0.00816888348
0.00816847075
0.00816835631
0.00816889269
0.00816888883
0.00816857464
0.00816850616
0.00816889612
0.00816889324
0.00816867048
0.00816863194
0.00816889871
0.00816889696
0.00816875789
0.00816874716
0.00816890079
0.00816889999
0.00816884286
0.00816884686
0.00816890245
0.00816890229
0.00816890395
0.00816890494
0.008168905
0.0081689054
0.00816890644
0.00816890679
0.00816890714
0.00816890739
0.00816890783
0.00816890799
0.00816890824
0.00816890836
0.00816890856
0.00816890864
0.00816890876
0.00816890881
0.00816890889
0.00816890893
0.00816890898
0.008168909
0.00816890903
0.00816890904
0.00816890905
0.00816890906
0.00816890906
0.00816890907
0.00816890906
0.00816890907
0.00816890906
0.00816890906
0.00816890905
0.00816890905
0.00816890904
0.00816890904
0.00816890903
0.00816890903
0.00816890902
0.00816890902
0.00816890901
0.00816890901
0.008168909
0.008168909
0.008168909
0.008168909
0.00816890899
0.00816890899
0.00816890899
0.00816890899
0.00816890898
0.00816890898
0.00816890898
0.00816890898
0.00816890898
0.00816890898
0.00816890898
0.00816890898
0.00816890897
0.00816890897
0.00816890897
0.00816890897
0.00816890897
0.00816890897
0.00816890897
0.00816890897
0.00816890897
0.00816890897
0.00816890897
0.00816890897
0.00816890897
0.00816890897
0.00816890897
0.00816890897
0.00816890897
0.00816890897
0.00816890897
0.00816890897
0.00816890897
0.00816890897
0.00816890897
0.00816890897
0.00816890897
0.00816890897
0.00816890897
0.00816890897
0.00816890897
0.00816890897
0.00816890897
0.00816890897
0.00816890897
0.00816890897
0.00816890897
0.00816890897
0.00816890897
0.00816890897
0.00816890897
0.00816890897
0.00816890897
0.00816890897
0.00816890897
0.00816890897
0.00816890897
0.00816890897
0.00816890897
0.00816890897
0.00816890897
0.00816890897
0.00816890897
0.00816890897
0.00816890897
0.00816890897
0.00816890897
0.00816890897
0.00816890897
0.00816890897
0.00816890897
0.00816890897
0.00816890897
0.00816890897
0.00816890897
0.00816890897
0.00816890897
0.00816890897
0.00816890897
0.00816890897
0.00816890897
0.00816890897
0.00816890897
0.00816890897
0.00816890897
0.00816890897
0.00816890897
0.00816890897
0.00816890897
0.00816890897
0.00816890897
0.00816890897
0.00816890897
0.00816890897
0.00816890897
0.00816890897
0.00816890897
0.00816890897
0.00816890897
0.00816890897
0.00816890897
0.00816890897
0.00816890897
0.00816890897
0.00816890897
0.00816890897
0.00816890897
0.00816890897
0.00816890897
0.00816890897
0.00816890897
0.00816890897
0.00816890897
0.00816890897
0.00816890897
0.00816890897
0.00816890897
0.00816890897
0.00816890897
0.00816890897
0.00816890897
0.00816890897
0.00816890897
0.00816890897
0.00816890897
0.00816890897
0.00816890897
0.00816890897
0.00816890897
0.00816890897
0.00816890897
0.00816890897
0.00816890897
0.00816890897
0.00816890897
0.00816890897
0.00816890897
0.00816890897
0.00816890897
0.00816890897
0.00816890897
0.00816890897
0.00816890897
0.00816890897
0.00816890897
0.00816890897
0.00816890897
0.00816890897
0.00816890897
0.00816890897
0.00816890897
0.00816890897
0.00816890897
0.00816890897
0.00816890897
0.00816890897
0.00816890897
0.00816890897
0.00816890897
0.00816890897
0.00816890897
0.00816890897
0.00816890897
0.00816890897
0.00816890897
0.00816890897
0.00816890897
0.00816890897
0.00816890897
0.00816890897
0.00816890897
0.00816890897
0.00816890897
0.00816890897
0.00816890897
0.00816890897
0.00816890897
0.00816890897
0.00816890897
0.00816890897
0.00816890897
0.00816890897
0.00816890897
0.00816890897
0.00816890897
0.00816890897
0.00816890897
0.00816890897
0.00816890897
0.00816890897
0.00816890897
0.00816890897
0.00816890897
0.00816890897
0.00816890897
0.00816890897
0.00816890897
0.00816890897
0.00816890897
0.00816890897
0.00816890897
0.00816890897
0.00816890897
0.00816890897
0.00816890897
0.00816890897
0.00816890897
0.00816890897
0.00816890897
0.00816890897
0.00816890897
0.00816890897
0.00816890897
0.00816890897
0.00816890897
0.00816890897
0.00816890897
0.00816890897
0.00816890897
0.00816890897
0.00816890897
)
;

boundaryField
{
    closed
    {
        type            calculated;
        value           nonuniform List<scalar> 0();
    }
    open
    {
        type            calculated;
        value           uniform 0.00816890897;
    }
    sides
    {
        type            empty;
    }
    procBoundary5to4
    {
        type            processor;
        value           uniform 0.00742116453;
    }
}


// ************************************************************************* //
