/*--------------------------------*- C++ -*----------------------------------*\
| =========                 |                                                 |
| \\      /  F ield         | OpenFOAM: The Open Source CFD Toolbox           |
|  \\    /   O peration     | Version:  2306                                  |
|   \\  /    A nd           | Website:  www.openfoam.com                      |
|    \\/     M anipulation  |                                                 |
\*---------------------------------------------------------------------------*/
FoamFile
{
    version     2.0;
    format      ascii;
    arch        "LSB;label=32;scalar=64";
    class       volScalarField;
    location    "0.00026";
    object      rho;
}
// * * * * * * * * * * * * * * * * * * * * * * * * * * * * * * * * * * * * * //

dimensions      [1 -3 0 0 0 0 0];

internalField   nonuniform List<scalar> 
530
(
0.227125639
0.225790189
0.225573999
0.225743934
0.225417711
0.224186908
0.223828012
0.224032069
0.22366165
0.222548539
0.222136288
0.222283088
0.221881574
0.220861508
0.220403516
0.220508042
0.220086993
0.219065063
0.218652045
0.218623444
0.218263126
0.217204532
0.216833917
0.216774957
0.216421242
0.215434825
0.215069001
0.215075653
0.214674936
0.213861361
0.213496282
0.21355781
0.213144438
0.212225291
0.211975072
0.212013717
0.211635788
0.211008432
0.210489423
0.210242909
0.210159038
0.209925062
0.209042583
0.208933148
0.208792206
0.208663416
0.207711397
0.207915386
0.207508494
0.207483762
0.206573588
0.20689569
0.20617765
0.206342764
0.205699114
0.205851563
0.204858423
0.205261198
0.204780271
0.204832992
0.204077086
0.204251665
0.203850385
0.20386732
0.203238934
0.203313238
0.202973778
0.202950459
0.202431176
0.202459017
0.20216528
0.202060265
0.201652799
0.201664248
0.201421086
0.20123747
0.200905508
0.200928181
0.200718017
0.200504212
0.200203838
0.200265681
0.200040058
0.19987359
0.199462225
0.199682474
0.199347918
0.199333866
0.199110184
0.199177378
0.19877724
0.198869361
0.19876853
0.198741397
0.198489134
0.198454903
0.198432321
0.198354995
0.198162161
0.198087582
0.198089248
0.198011277
0.197848225
0.197777905
0.197774505
0.197710589
0.197566716
0.197507289
0.197502581
0.197451156
0.197323071
0.197274926
0.197272813
0.197229615
0.197116346
0.197078638
0.197077865
0.197042578
0.196941599
0.196914506
0.196911163
0.196887024
0.196794239
0.196779098
0.196771763
0.196758594
0.19667212
0.196666464
0.196655682
0.196652892
0.196571368
0.196574929
0.196561073
0.196568106
0.196491018
0.1965025
0.196486873
0.19649979
0.196429193
0.196443584
0.196430098
0.196443671
0.196381968
0.196397278
0.196388171
0.196399699
0.196348145
0.196363397
0.196358739
0.196368841
0.196325366
0.196341348
0.196339121
0.196350241
0.196311501
0.196329884
0.196328409
0.196341878
0.196305521
0.196327047
0.1963246
0.196341393
0.196306305
0.196330911
0.196326962
0.196346831
0.19631306
0.196339872
0.196335521
0.196356839
0.196325577
0.196352908
0.196349619
0.196370402
0.196342895
0.196369151
0.196367944
0.196386851
0.196363735
0.196387819
0.196388961
0.196405331
0.196386976
0.196408158
0.19641145
0.19642505
0.196411576
0.196429935
0.196434666
0.196446336
0.196436974
0.196453125
0.196458753
0.196469398
0.196462847
0.196477664
0.196483675
0.19649395
0.196488965
0.196503095
0.196509026
0.196519305
0.196514898
0.196528814
0.196534065
0.196544717
0.196539976
0.196554323
0.196557481
0.19656973
0.196566096
0.196579142
0.19657757
0.196593896
0.196597298
0.196603015
0.196607727
0.1966173
0.196623187
0.196626049
0.196632792
0.196639539
0.196645833
0.196647719
0.196655003
0.196660681
0.196666916
0.1966685
0.196675862
0.196680787
0.196687118
0.196688605
0.196695513
0.196699915
0.196705874
0.196707521
0.196713877
0.19671793
0.196723419
0.196725238
0.19673096
0.196734741
0.196739675
0.196741692
0.196746743
0.196750316
0.196754584
0.1967568
0.196761214
0.196764538
0.196768263
0.196770537
0.196774362
0.196777386
0.196780637
0.196782945
0.196786157
0.196788873
0.196791661
0.196793908
0.196796615
0.196798983
0.196801366
0.196803551
0.196805835
0.196807833
0.196809994
0.196812082
0.196814039
0.196815892
0.196817659
0.196819349
0.196820933
0.196822441
0.196823848
0.19682518
0.196826411
0.196827566
0.196828625
0.196829607
0.196830495
0.196831305
0.196832024
0.196832665
0.196833218
0.196833691
0.196834079
0.196834388
0.196834614
0.196834761
0.196834825
0.196834812
0.196834719
0.196834549
0.1968343
0.196833974
0.196833572
0.196833094
0.196832541
0.196831914
0.196831213
0.196830438
0.196829591
0.196828673
0.196827683
0.196826623
0.196825493
0.196824294
0.196823027
0.196821692
0.19682029
0.196818823
0.19681729
0.196815692
0.196814031
0.196812307
0.19681052
0.196808672
0.196806763
0.196804794
0.196802767
0.19680068
0.196798537
0.196796336
0.19679408
0.196791769
0.196789404
0.196786985
0.196784514
0.196781991
0.196779417
0.196776793
0.19677412
0.196771399
0.196768631
0.196765816
0.196762956
0.196760051
0.196757102
0.19675411
0.196751076
0.196748001
0.196744886
0.196741731
0.196738538
0.196735308
0.196732041
0.196728738
0.1967254
0.196722029
0.196718625
0.196715189
0.196711722
0.196708224
0.196704698
0.196701143
0.196697561
0.196693953
0.196690319
0.19668666
0.196682978
0.196679273
0.196675547
0.1966718
0.196668032
0.196664246
0.196660442
0.196656621
0.196652784
0.196648931
0.196645064
0.196641183
0.19663729
0.196633386
0.196629471
0.196625546
0.196621612
0.19661767
0.196613721
0.196609766
0.196605805
0.19660184
0.196597871
0.1965939
0.196589927
0.196585953
0.196581979
0.196578005
0.196574033
0.196570063
0.196566097
0.196562134
0.196558177
0.196554225
0.196550279
0.196546341
0.19654241
0.196538489
0.196534576
0.196530674
0.196526784
0.196522904
0.196519038
0.196515184
0.196511345
0.19650752
0.19650371
0.196499916
0.196496139
0.196492379
0.196488636
0.196484913
0.196481208
0.196477523
0.196473859
0.196470215
0.196466593
0.196462993
0.196459416
0.196455861
0.19645233
0.196448823
0.196445341
0.196441883
0.196438451
0.196435045
0.196431665
0.196428312
0.196424986
0.196421687
0.196418416
0.196415173
0.196411958
0.196408771
0.196405613
0.196402485
0.196399385
0.196396314
0.196393274
0.196390262
0.19638728
0.196384328
0.196381405
0.196378512
0.196375649
0.196372815
0.19637001
0.196367234
0.196364486
0.196361766
0.196359074
0.196356412
0.196353781
0.196351097
0.196348273
0.196345307
0.196342193
0.196338923
0.196335493
0.196331897
0.196328135
0.196324207
0.196320116
0.196315867
0.196311467
0.196306929
0.196302266
0.196297496
0.196292641
0.196287728
0.196282787
0.196277854
0.196272967
0.19626817
0.19626351
0.196259037
0.196254799
0.196250845
0.196247218
0.196243952
0.196241071
0.19623858
0.196236463
0.196234678
0.196233153
0.196231787
0.196230447
0.196228984
0.196227237
0.196225057
0.196222333
0.196219025
0.196215196
0.196211049
0.196206944
0.196203395
0.196201024
0.196200474
0.196202256
0.196206565
0.196213084
0.196220866
0.196228418
0.19623416
0.196237384
0.196239765
0.196246865
0.196266896
0.196305813
0.196358935
0.196404037
0.196412806
0.196373141
0.196302394
0.196240407
0.196215762
0.196230409
0.196270058
0.196303724
0.196303521
0.196265087
0.196210248
0.196181107
0.196193998
0.196235856
0.196264855
0.196262559
0.196265807
0.196289501
0.1963005
)
;

boundaryField
{
    closed
    {
        type            calculated;
        value           nonuniform List<scalar> 0();
    }
    open
    {
        type            calculated;
        value           uniform 0.196305508;
    }
    sides
    {
        type            empty;
    }
    procBoundary5to4
    {
        type            processor;
        value           uniform 0.227425227;
    }
}


// ************************************************************************* //
