/*--------------------------------*- C++ -*----------------------------------*\
| =========                 |                                                 |
| \\      /  F ield         | OpenFOAM: The Open Source CFD Toolbox           |
|  \\    /   O peration     | Version:  2306                                  |
|   \\  /    A nd           | Website:  www.openfoam.com                      |
|    \\/     M anipulation  |                                                 |
\*---------------------------------------------------------------------------*/
FoamFile
{
    version     2.0;
    format      ascii;
    arch        "LSB;label=32;scalar=64";
    class       volScalarField;
    location    "0.00062";
    object      p;
}
// * * * * * * * * * * * * * * * * * * * * * * * * * * * * * * * * * * * * * //

dimensions      [1 -1 -2 0 0 0 0];

internalField   nonuniform List<scalar> 
531
(
101602.688
101600.761
101598.974
101597.282
101595.608
101593.965
101592.425
101590.966
101589.404
101587.867
101586.408
101585.022
101583.504
101582.03
101580.58
101579.254
101577.205
101575.312
101573.374
101571.553
101569.627
101567.737
101565.891
101564.077
101562.415
101560.611
101558.839
101557.137
101555.479
101553.985
101552.664
101551.416
101550.22
101549.099
101548.072
101546.973
101545.974
101545.033
101544.119
101543.23
101542.394
101542.394
101541.602
101540.847
101540.109
101539.422
101538.835
101538.285
101537.771
101537.34
101536.942
101536.636
101536.292
101536.048
101535.861
101535.754
101535.637
101535.615
101535.666
101535.789
101535.933
101536.175
101536.468
101536.805
101537.334
101537.993
101538.664
101539.34
101540.048
101540.785
101541.6
101542.411
101543.197
101544.704
101546.345
101547.966
101549.548
101551.093
101552.733
101554.452
101556.222
101557.966
101559.683
101561.47
101563.313
101565.208
101567.164
101569.149
101571.188
101573.195
101575.135
101577.072
101578.62
101580.336
101582.089
101583.791
101585.47
101587.148
101588.875
101590.537
101592.15
101593.745
101595.363
101596.889
101598.36
101599.843
101601.316
101602.545
101603.75
101604.95
101606.102
101607.128
101608.036
101609.511
101610.983
101612.375
101613.659
101614.846
101616.054
101617.276
101618.507
101619.767
101620.811
101621.609
101622.577
101623.451
101624.333
101624.98
101625.776
101626.486
101627.139
101627.867
101628.656
101629.392
101630.025
101630.811
101631.593
101632.177
101632.87
101633.723
101634.566
101635.441
101636.125
101637.006
101638.051
101638.999
101640.091
101641.304
101642.594
101644.705
101646.809
101648.725
101650.954
101653.145
101655.314
101657.679
101660.212
101662.875
101665.514
101668.026
101670.664
101673.461
101676.418
101679.342
101682.194
101685.257
101688.432
101691.639
101694.667
101697.567
101700.592
101703.682
101706.787
101709.719
101712.51
101715.455
101718.463
101721.462
101724.23
101726.825
101729.551
101732.286
101734.929
101737.274
101739.585
101741.79
101744.542
101747.267
101749.742
101751.947
101753.86
101759.806
101765.222
101770.34
101775.205
101779.866
101784.256
101789.007
101793.653
101798.111
101802.109
101805.89
101809.493
101813.29
101817.097
101820.737
101823.908
101826.861
101831.039
101835.47
101839.884
101843.694
101847.233
101854.21
101861.302
101868.189
101874.346
101880.146
101885.496
101890.846
101895.476
101899.515
101902.662
101908.494
101914.155
101918.618
101922.349
101924.831
101930.936
101936.819
101941.36
101945.136
101947.61
101951.398
101955.23
101957.922
101960.188
101962.405
101964.015
101965.307
101965.899
101966.129
101966.266
101965.849
101965.101
101964.347
101963.111
101962.418
101956.788
101955.71
101954.258
101951.897
101949.25
101945.911
101942.317
101942.141
101941.887
101941.31
101940.53
101939.328
101937.234
101934.963
101932.863
101929.84
101926.691
101927.126
101927.424
101927.281
101926.704
101925.823
101924.912
101924.009
101922.828
101921.329
101920.287
101919.37
101917.926
101916.401
101914.95
101913.557
101911.512
101909.84
101908.154
101906.528
101904.463
101902.534
101900.259
101897.938
101895.44
101892.959
101890.501
101887.714
101884.79
101882.135
101879.335
101876.524
101873.773
101870.768
101867.703
101864.729
101861.891
101858.846
101855.812
101852.844
101849.692
101846.401
101843.579
101841.446
101839.26
101836.879
101833.981
101831.34
101828.76
101826.032
101823.216
101820.572
101817.915
101815.091
101812.061
101808.905
101805.654
101802.322
101798.946
101795.591
101792.429
101789.2
101785.775
101782.191
101779.012
101775.759
101772.18
101768.489
101764.648
101760.78
101756.976
101753.006
101748.728
101744.253
101740.669
101737.058
101733.097
101728.941
101724.76
101721.177
101717.504
101714.51
101710.819
101707.023
101703.301
101699.563
101695.893
101692.327
101688.822
101685.435
101682.223
101678.781
101675.376
101672.148
101666.473
101663.732
101661.052
101658.57
101656.053
101653.57
101651.014
101648.502
101646.196
101643.97
101641.76
101639.591
101637.46
101635.468
101633.534
101631.611
101629.821
101627.976
101626.212
101624.376
101622.419
101620.465
101618.575
101616.613
101614.63
101612.678
101610.428
101608.087
101605.79
101603.472
101601.129
101598.965
101596.807
101594.771
101592.435
101590.208
101588.86
101587.531
101586.379
101585.85
101584.148
101582.714
101581.506
101580.453
101579.671
101579.207
101579.072
101579.307
101579.949
101581.051
101582.663
101584.835
101587.621
101591.073
101595.242
101600.173
101605.91
101612.473
101619.859
101628.034
101637.191
101647.264
101658.257
101670.045
101682.501
101695.445
101708.647
101722.027
101734.945
101747.217
101758.09
101766.906
101772.944
101775.55
101773.345
101762.698
101745.813
101729.156
101670.182
101472.735
101523.03
101647.823
101749.339
101769.233
101774.863
101782.043
101784.454
101803.597
101765.709
101723.47
101690.299
101663.303
101643.663
101627.302
101614.791
101605.345
101598.147
101592.624
101588.505
101585.482
101583.32
101581.544
101579.956
101578.49
101577.09
101575.715
101574.339
101572.943
101571.49
101569.925
101568.295
101566.734
101564.866
101561.011
101559.1
101563.004
101561.05
101553.415
101552.246
101555.197
101564.368
101580.909
101594.882
101607.633
101621.178
101626.367
101628.795
101638.813
101642.17
101631.571
101627.616
101639.791
101641.87
101624.156
101610.806
101631.353
101657.203
101665.994
101676.447
101686.166
101697.666
101719.383
101737.291
101754.455
101779.139
101785.66
101779.635
101792.437
101816.989
101822.986
101813.755
101811.574
101820.546
101822.528
101810.79
101800.146
101799.828
101798.21
101786.594
101774.478
101769.836
101763.598
101749.18
101733.67
101723.915
101714.847
101698.333
101677.78
101663.777
101656.9
101645.522
101631.063
101621.557
)
;

boundaryField
{
    closed
    {
        type            zeroGradient;
    }
    open
    {
        type            waveTransmissive;
        gamma           1.25;
        fieldInf        101325;
        lInf            1;
        value           nonuniform List<scalar> 0();
    }
    sides
    {
        type            empty;
    }
    procBoundary4to3
    {
        type            processor;
        value           uniform 101604.599;
    }
    procBoundary4to5
    {
        type            processor;
        value           uniform 101614.867;
    }
}


// ************************************************************************* //
