/*--------------------------------*- C++ -*----------------------------------*\
| =========                 |                                                 |
| \\      /  F ield         | OpenFOAM: The Open Source CFD Toolbox           |
|  \\    /   O peration     | Version:  2306                                  |
|   \\  /    A nd           | Website:  www.openfoam.com                      |
|    \\/     M anipulation  |                                                 |
\*---------------------------------------------------------------------------*/
FoamFile
{
    version     2.0;
    format      ascii;
    arch        "LSB;label=32;scalar=64";
    class       volScalarField;
    location    "0.00062";
    object      prefDZ_H;
}
// * * * * * * * * * * * * * * * * * * * * * * * * * * * * * * * * * * * * * //

dimensions      [1 -1 -1 0 0 0 0];

internalField   nonuniform List<scalar> 
531
(
0.000106471994
0.000107026921
0.000108215817
0.000107941668
0.000107532557
0.000107844589
0.000110369414
0.000108096839
0.000106955504
0.000107741726
0.000110295251
0.00010822673
0.000106956219
0.000107729209
0.000110202892
0.000109588422
0.000106759072
0.000107850216
0.00011021916
0.000108183189
0.000107246261
0.000107758227
0.000110273526
0.000110350385
0.000107727172
0.000106418998
0.000107791613
0.000110237866
0.000110315124
0.000107721558
0.000106215887
0.000107688153
0.00011001164
0.000110458433
0.000108670853
0.000107837524
0.000106794717
0.000106197519
0.000107837429
0.000110201292
0.000110236283
0.000107631449
0.000105973968
0.000107741722
0.000110003262
0.000110452386
0.000108475751
0.000107450807
0.000105866672
0.000107678914
0.00011009975
0.000108189277
0.00010668368
0.0001077121
0.000110152654
0.000108095535
0.000106901145
0.000107790379
0.000110199108
0.000108004044
0.000107098278
0.000107776326
0.000110206413
0.00011008977
0.000107485743
0.000105906536
0.000107815274
0.000110152458
0.000107917151
0.000107071493
0.000107761491
0.000110225701
0.000110263057
0.000107766329
0.00010625776
0.000107727728
0.00011017211
0.000110362277
0.000107720633
0.000106459198
0.00010769302
0.000109994079
0.000110468295
0.000108533546
0.00010777666
0.000107325811
0.000107217594
0.000106323531
0.000106418652
0.000108786086
0.000110333959
0.000110271976
0.000107731039
0.000107013911
0.000107880433
0.000110203455
0.000108001272
0.000106793951
0.000107727513
0.000110176487
0.000107935046
0.00010679293
0.000107880378
0.000110149859
0.000107720205
0.000107047905
0.000108848221
0.000110244511
0.000107741158
0.000107015193
0.000107883867
0.000110248586
0.000110256461
0.000107755288
0.000106355344
0.00010779032
0.000110099344
0.000110236853
0.000107807815
0.000105798459
0.00010605241
0.000109386451
0.000109480149
0.000107335634
0.00010792523
0.000110063937
0.00010893222
0.000107388329
0.000107883102
0.000110078985
0.000110260637
0.000107821677
0.000106230105
0.000106231746
0.000108694393
0.000110270411
0.000109032113
0.000107680678
0.000106483126
0.000107780106
0.000110053063
0.00010875873
0.000106950452
0.00010720634
0.000109981258
0.000110265797
0.000107820996
0.000106378189
0.00010779464
0.000109916598
0.000108957488
0.000107370102
0.000107874629
0.000109987149
0.000110227218
0.000107787712
0.000106025578
0.000106177839
0.000109362871
0.000110248914
0.000107959585
0.00010700936
0.000107849577
0.000109922388
0.000110183856
0.000107741385
0.00010664095
0.00010772079
0.000110033177
0.000110200838
0.000107700595
0.000106312362
0.000107766939
0.000109886165
0.000110159507
0.000107708297
0.000106378479
0.000107724816
0.000109870239
0.000110166605
0.000107682525
0.000106370686
0.000107592173
0.000109623583
0.000110393019
0.000109809195
0.000107748514
0.000107269672
0.000106621793
0.000105817178
0.000107598652
0.000109509815
0.000110276928
0.000110087913
0.000110254335
0.000108076179
0.000107942127
0.0001065125
0.000105706801
0.000107589072
0.000109417438
0.000110364266
0.000109969779
0.000107703276
0.000106634322
0.000107685598
0.000109847873
0.000109912945
0.00010774143
0.000106286744
0.000107655111
0.000109814516
0.000109829496
0.000107737561
0.00010628714
0.000107648856
0.00010985322
0.00010818952
0.000107518003
0.00010771585
0.000109907701
0.000109645045
0.000107751427
0.00010643715
0.000107643766
0.000109855614
0.000109590184
0.000107748403
0.000106456987
0.00010764601
0.00010987492
0.000109571965
0.000107729665
0.000106298027
0.000107570861
0.000109803119
0.000110301013
0.000107808691
0.000107740914
0.00010784739
0.000110035428
0.000110238588
0.000107873359
0.000107772999
0.000107565706
0.000107536817
0.000106849687
0.000106801742
0.000108823451
0.000110269873
0.000107938592
0.000107170177
0.000107636871
0.000109935626
0.000110012941
0.000107760203
0.000107645582
0.000108538962
0.000110235758
0.000108564484
0.000106971143
0.000105812389
0.000107554975
0.000109901212
0.000110112535
0.000107763163
0.000107419237
0.000108057978
0.000110145388
0.000110235009
0.000107742034
0.000107384268
0.000107228204
0.000106590245
0.000106205697
0.000107853842
0.000109993799
0.000110094856
0.000110255713
0.000109257569
0.000107774127
0.000106362138
0.000105882335
0.000107747698
0.000109998091
0.000107708969
0.000106788007
0.000107848699
0.000110045949
0.000110201054
0.000108439362
0.00010679446
0.000106099934
0.000107910301
0.000110052832
0.000110310587
0.000108204034
0.000107673136
0.000106079404
0.000105809085
0.000107845013
0.000110095668
0.00011020066
0.000108048335
0.000106264052
0.00010618857
0.000109276609
0.000110199732
0.000110076062
0.000108952797
0.000107914403
0.000107263004
0.000105944213
0.000105668057
0.000108544165
0.000110119834
0.000107705516
0.000106280136
0.000107871365
0.000110027505
0.000110073406
0.000110224333
0.000109701549
0.000107826305
0.00010691602
0.000105790914
0.000105742456
0.00010875326
0.000110251266
0.000108011127
0.000107382724
0.000107728339
0.000110062359
0.000110331335
0.000107887407
0.000106071467
0.000105982809
0.000109508929
0.000110187797
0.000108499261
0.000106574153
0.000106385566
0.000109278852
0.00011029181
0.00011010986
0.000108097206
0.000107516017
0.000107082582
0.000106002835
0.000105726408
0.000107852819
0.000110053286
0.000110221151
0.000110247278
0.000108657745
0.000107645648
0.000105685109
0.000105698314
0.000109123058
0.000110297984
0.000110098732
0.000107886125
0.000106243776
0.000106198332
0.000109771736
0.000110297152
0.000107799781
0.000106609433
0.000107810153
0.000110166678
0.000110262796
0.000107747504
0.000105345582
0.000105468468
0.000109861701
0.000110298941
0.000108481855
0.000106685868
0.000105900251
0.000107943085
0.000110225789
0.000110403991
0.000110409933
0.000108401369
0.000107187175
0.000106774596
0.000106398424
0.000105499461
0.000107046353
0.000110399306
0.000111004904
0.000108407261
0.00010542311
0.000106678266
0.000110904332
0.000111398627
0.000111285528
0.00010769426
0.000104711492
0.000106105424
0.000110493275
0.000110688034
0.000110468487
0.000110429012
0.000110331308
0.000110250195
0.000110221896
0.000110194519
0.000110247694
0.000110306561
0.000110426266
0.000110545606
0.000110744946
0.000110920735
0.000111299563
0.000111587475
0.00011268779
0.000113656872
0.000112619644
0.000112130403
0.000111408233
0.000110966916
0.000110586431
0.000110311625
0.000110024928
0.000109652633
0.000109907693
0.000109279871
0.000109160128
0.00010895732
0.000109065127
0.00010870597
0.000108297443
0.000107333238
0.000106959871
0.000107177714
0.000112485895
0.00011209705
0.00011097286
0.000111705256
0.0001102075
0.000107588393
0.000105264354
0.000111464043
0.000117246292
0.000118405421
0.000123634123
0.00012883313
0.000153664934
0.000156979146
0.00016504279
0.000168862885
0.000174645503
0.00017929874
0.00018355935
0.000188193887
0.000191374713
0.000196060187
0.000200430645
0.000208015297
0.000214476553
0.000221856529
0.000228180123
0.000234913325
0.000240669789
0.000246545754
0.000251898029
0.000256968885
0.000261909512
0.000266205961
0.00027111229
0.000274869501
0.000279344384
0.000282776291
0.000286565432
0.000289270194
0.000293514496
0.000294419156
0.000297494091
0.000301896992
0.00030388231
0.000304139387
0.000306077953
0.000309581424
0.000310727792
0.00031231462
0.00031451053
0.000316151729
0.000316382243
0.000319460119
0.000320584351
0.000320869143
0.000320293761
0.00032236463
0.000324279808
0.000324404611
0.000328036451
0.000326257991
0.000325947769
0.000328875902
0.000333419435
0.000329619201
0.000331007472
0.000334206563
0.000334292473
0.000332545672
0.000334061654
0.000338012488
0.000336652287
0.000335358201
0.000335696248
0.0003399202
0.000338735437
0.00033735022
0.000337518113
0.000341272066
0.000340346757
0.00033900248
0.00033917378
0.000342360588
0.000341461562
0.000340269468
0.00034050664
0.000343262074
0.000342796284
0.000341346767
0.000341650787
0.000343657375
0.000343922979
0.000342570647
0.000343155184
)
;

boundaryField
{
    closed
    {
        type            calculated;
        value           nonuniform List<scalar> 0();
    }
    open
    {
        type            calculated;
        value           nonuniform List<scalar> 0();
    }
    sides
    {
        type            empty;
    }
    procBoundary4to3
    {
        type            processor;
        value           uniform 0.000107739754;
    }
    procBoundary4to5
    {
        type            processor;
        value           uniform 0.000343678692;
    }
}


// ************************************************************************* //
