/*--------------------------------*- C++ -*----------------------------------*\
| =========                 |                                                 |
| \\      /  F ield         | OpenFOAM: The Open Source CFD Toolbox           |
|  \\    /   O peration     | Version:  2306                                  |
|   \\  /    A nd           | Website:  www.openfoam.com                      |
|    \\/     M anipulation  |                                                 |
\*---------------------------------------------------------------------------*/
FoamFile
{
    version     2.0;
    format      ascii;
    arch        "LSB;label=32;scalar=64";
    class       volScalarField;
    location    "0.00062";
    object      Z;
}
// * * * * * * * * * * * * * * * * * * * * * * * * * * * * * * * * * * * * * //

dimensions      [0 0 0 0 0 0 0];

internalField   nonuniform List<scalar> 
531
(
0.0148128497
0.0147617893
0.014360749
0.0144317257
0.0147216793
0.0144536617
0.0140803737
0.0143831871
0.0147695185
0.0145005143
0.0140871232
0.0143551716
0.0147730982
0.0145843724
0.014093737
0.0141706516
0.0147915016
0.0146809074
0.0141031267
0.0143654472
0.0147523519
0.0145348789
0.0140844241
0.0140887459
0.0146990716
0.0148228594
0.0145061151
0.0140875283
0.0140897851
0.0146849527
0.0148423046
0.0145602312
0.0141111807
0.0140605082
0.0142768914
0.0146799445
0.0147879003
0.0148364376
0.0146453477
0.0140973795
0.0140986894
0.014709141
0.0148627114
0.0146352324
0.0141148571
0.0140624042
0.0143111327
0.0147182592
0.0148675504
0.0146063384
0.014110666
0.0143627718
0.0148030238
0.0145339807
0.014102913
0.0143848318
0.0147842166
0.0144823064
0.014097719
0.0144110283
0.0147675191
0.0145463042
0.0140928328
0.0141125529
0.0147215008
0.0148670244
0.0144684563
0.0141030274
0.0144383152
0.0147700161
0.0145429409
0.0140911519
0.0140947037
0.0146869175
0.0148385792
0.0146029545
0.0140988525
0.0140822549
0.0146298132
0.0148222966
0.0146104868
0.0141166079
0.0140611048
0.0143001471
0.0146658573
0.0147517616
0.0147493785
0.0148297616
0.014816893
0.0142633959
0.0140763235
0.0140807405
0.0145669522
0.0147736411
0.0144404657
0.0140981093
0.0144077915
0.0147915396
0.0145030446
0.0141037572
0.0144243829
0.0147946406
0.0144401622
0.0141096245
0.0145569527
0.0147751004
0.0142562713
0.0140972395
0.014589855
0.0147745249
0.014456928
0.0140867184
0.0140912245
0.0146495858
0.0148331485
0.0146208604
0.0141058106
0.0140895375
0.0146014283
0.0148762964
0.01485199
0.0141889153
0.0141795333
0.0147519488
0.0146830908
0.0141162169
0.0142425757
0.0147474639
0.0146669179
0.014110209
0.0140852758
0.014525942
0.0148388072
0.0148331427
0.0142757963
0.0140848922
0.0142239384
0.0147052036
0.014821666
0.0144976446
0.0141108356
0.0142655369
0.0147825234
0.0147576163
0.0141284051
0.0140871056
0.0145029183
0.0148294975
0.0146988139
0.0141333112
0.0142401294
0.0147494545
0.0146720072
0.0141210976
0.0140896715
0.0145377873
0.0148571726
0.014838603
0.0141944426
0.0140914236
0.0144379418
0.014777383
0.014684147
0.0141287223
0.014101533
0.0146219461
0.0148084816
0.0145577506
0.0141122615
0.0140955802
0.0146042995
0.0148358447
0.0146737701
0.0141324023
0.0141025371
0.0145985249
0.0148310313
0.0146558093
0.014133061
0.014102314
0.014600773
0.0148317231
0.0145956341
0.0141561331
0.0140700104
0.0141330606
0.0146103248
0.0147595648
0.0147945636
0.0148718379
0.0147103092
0.0141732267
0.0140880845
0.0140987613
0.0140847429
0.0144034844
0.014694632
0.0148029199
0.0148787307
0.0146587973
0.0141804182
0.0140739254
0.0141134939
0.0146146116
0.0148107691
0.014597867
0.0141333205
0.0141256991
0.0146716434
0.0148372297
0.0146033194
0.0141367462
0.0141336145
0.0146574948
0.0148375989
0.0145617446
0.0141375667
0.0143641345
0.0147319097
0.0145253239
0.0141243689
0.014150537
0.0146784665
0.0148236217
0.0145520434
0.0141311418
0.0141571146
0.0146842445
0.014821273
0.0145322116
0.014129169
0.0141599307
0.0146921241
0.0148316028
0.0145730781
0.0141353521
0.0140872527
0.0145012321
0.0147106182
0.0144544005
0.0141076406
0.0140899851
0.0144628885
0.0147068519
0.0147229955
0.0147234373
0.0147876255
0.014790365
0.0142575987
0.0140922119
0.0144359408
0.0147539619
0.0145323055
0.0141215432
0.0141166627
0.0146227437
0.0147213986
0.0142996415
0.014090696
0.0142947457
0.0147608662
0.0148638916
0.0145555244
0.0141261353
0.0141079193
0.0146192125
0.0147413573
0.0143929488
0.0140946031
0.0140878265
0.0145413819
0.0147474222
0.0147519617
0.0148064804
0.014837851
0.0144377948
0.0141151972
0.0141003269
0.0140825458
0.0141915897
0.0146295934
0.0148255519
0.0148612359
0.0144774496
0.0141243045
0.0145200203
0.0147888787
0.0144353991
0.0141075569
0.0140852656
0.0143177661
0.0147865532
0.0148431946
0.01441579
0.0141048618
0.0140780171
0.0143710902
0.0147136121
0.0148444546
0.0148667864
0.0144337638
0.0141033851
0.0140874914
0.0144070513
0.0148367591
0.0148393668
0.0142042593
0.0140883535
0.014094753
0.0142353639
0.0146726885
0.0147531404
0.0148607664
0.0148815333
0.0142988833
0.0141079269
0.0146140576
0.0148336511
0.0144350339
0.0141097984
0.0141043197
0.0140840229
0.0141464127
0.0146473605
0.0147838959
0.0148703517
0.0148710548
0.014269524
0.014087548
0.0144266074
0.0147385261
0.0145835406
0.0141082908
0.0140773024
0.0144734656
0.0148512901
0.0148545451
0.0141807924
0.014088832
0.0143065263
0.0148094192
0.0148215248
0.0142076596
0.0140786311
0.0140905499
0.0143952939
0.0147334705
0.014764333
0.014850324
0.0148739822
0.0144436629
0.0141098556
0.0140889051
0.0140849598
0.0142777941
0.0147110153
0.0148830565
0.0148752298
0.0142232598
0.0140794002
0.0140931032
0.0144689527
0.0148401542
0.0148362735
0.0141485476
0.014088588
0.0146204797
0.0148051409
0.0144904429
0.0140936791
0.0140845329
0.0145876267
0.0149091521
0.0148917588
0.0141469875
0.0140822382
0.0143097715
0.0147845708
0.0148577388
0.0144051017
0.0140976805
0.0140793332
0.0140762153
0.0143228904
0.014734383
0.014777428
0.014790848
0.0148753858
0.0147222736
0.0141030144
0.0140381624
0.0143176352
0.0148541431
0.0147177299
0.014079136
0.014018043
0.0140329006
0.0143969545
0.0148722137
0.0146273662
0.0140849166
0.0140469258
0.0140673537
0.014057937
0.0140591029
0.0140546308
0.0140462519
0.014036518
0.0140200653
0.0140018279
0.0139787021
0.0139552877
0.0139228005
0.0138944073
0.0138448046
0.0138076885
0.0136974334
0.013604352
0.0135422483
0.0135095774
0.013454695
0.0134144013
0.0133691585
0.0133223019
0.0132849096
0.0131766672
0.0130477893
0.0128827601
0.0128239808
0.0126991254
0.012645349
0.0125798973
0.0125811792
0.0125475323
0.0125629005
0.0123999782
0.012157254
0.0121334799
0.0120320922
0.0120260228
0.0118860683
0.0118663542
0.0119276977
0.0117347298
0.0112908906
0.0112520033
0.0114713891
0.0117130976
0.0123471973
0.0125723469
0.0125934329
0.0127483647
0.0127706509
0.012876592
0.0129012366
0.0129613057
0.0129842042
0.0130215697
0.0130895677
0.0131905588
0.013314636
0.0134115783
0.0135298152
0.0136199704
0.0137237827
0.0138048291
0.013897779
0.0139678385
0.0140494083
0.014111402
0.0141947102
0.0142397715
0.0142967846
0.0143737389
0.0144720168
0.0143841643
0.0143933675
0.0146619326
0.0147426571
0.01440108
0.0143275693
0.0147801371
0.0146801313
0.0143660273
0.0143630102
0.0146987034
0.0146069119
0.0144576589
0.0144668892
0.0145584494
0.0144984149
0.0144430697
0.0142645188
0.0143514776
0.0146446802
0.0143229512
0.0137997101
0.0141963452
0.0147343535
0.0140639565
0.0134480291
0.0141746621
0.0145127882
0.0137694106
0.0134560061
0.0141458789
0.0142974718
0.0136376252
0.013515511
0.0140556534
0.0141520831
0.013631743
0.0135551482
0.0140022189
0.0140348624
0.0136358321
0.0135758592
0.0139607075
0.0139433033
0.0136290019
0.0135774431
0.0139353162
0.0138832566
0.0136259799
0.0135939156
0.013883854
0.0138256742
0.0136487873
0.0136385211
0.0138151812
0.013735062
)
;

boundaryField
{
    closed
    {
        type            zeroGradient;
    }
    open
    {
        type            zeroGradient;
    }
    sides
    {
        type            empty;
    }
    procBoundary4to3
    {
        type            processor;
        value           uniform 0.0145911635;
    }
    procBoundary4to5
    {
        type            processor;
        value           uniform 0.0137214634;
    }
}


// ************************************************************************* //
