/*--------------------------------*- C++ -*----------------------------------*\
| =========                 |                                                 |
| \\      /  F ield         | OpenFOAM: The Open Source CFD Toolbox           |
|  \\    /   O peration     | Version:  2306                                  |
|   \\  /    A nd           | Website:  www.openfoam.com                      |
|    \\/     M anipulation  |                                                 |
\*---------------------------------------------------------------------------*/
FoamFile
{
    version     2.0;
    format      ascii;
    arch        "LSB;label=32;scalar=64";
    class       volScalarField;
    location    "0.00114";
    object      h;
}
// * * * * * * * * * * * * * * * * * * * * * * * * * * * * * * * * * * * * * //

dimensions      [0 2 -2 0 0 0 0];

internalField   nonuniform List<scalar> 
530
(
-209798.987
-208050.531
-227198.601
-227562.482
-203799.273
-206893.578
-222749.66
-222520.191
-199010.531
-204479.857
-218005.751
-217801.314
-195124.142
-201311.109
-213199.451
-213206.539
-191490.763
-197700.959
-208444.385
-208516.758
-187745.735
-193871.803
-203708.303
-203816.139
-183852.094
-189837.409
-198945.984
-199085.226
-179885.672
-185629.143
-194175.702
-194353.45
-175976.82
-181296.26
-189574.587
-189724.608
-172310.938
-176875.551
-185131.259
-185186.11
-168658.672
-172316.25
-180819.053
-180774.462
-164955.921
-167930.86
-176622.35
-176630.371
-161269.83
-163675.922
-172502.789
-172551.465
-157462.238
-159596.595
-168482.019
-168480.976
-153624.606
-155624.031
-164497.479
-164412.94
-149773.532
-151706.699
-160563.714
-160423.926
-145934.726
-147734.857
-156714.007
-156459.545
-142073.319
-143948.076
-152660.336
-152441.39
-138288.431
-140224.68
-148506.315
-148394.601
-134492.561
-136410.317
-144462.124
-144351.224
-130717.093
-132618.188
-140449.212
-140325.417
-126934.516
-128835.954
-136480.418
-136338.811
-123171.526
-124965.141
-132633.863
-132374.481
-119407.795
-121194.978
-128701.375
-128421.759
-115674.955
-117427.787
-124756.909
-124477.808
-111962.437
-113744.074
-120702.682
-120524.755
-108256.289
-109980.685
-116755.518
-116548.757
-104503.463
-106186.58
-112956.071
-112603.365
-100690.806
-102471.799
-109086.164
-108702.724
-96954.8355
-98686.114
-105216.415
-104808.664
-93318.9274
-94968.3632
-101288.096
-100922.673
-89642.7111
-91264.0037
-97387.8594
-97017.0891
-85969.8214
-87567.8498
-93495.4623
-93121.6981
-82319.6131
-83914.8071
-89612.4574
-89258.2701
-78683.7514
-80285.086
-85764.6457
-85416.6878
-75068.0205
-76687.6844
-81990.0065
-81612.2199
-71500.8373
-73127.4671
-78237.0827
-77861.0044
-68021.4618
-69603.8538
-74651.6163
-74195.2349
-64671.0978
-66166.9894
-71261.3237
-70751.3725
-61364.3406
-62880.5733
-68004.3449
-67411.5368
-58108.7009
-59673.6669
-64861.3972
-64174.5256
-54926.6141
-56560.4884
-61798.7496
-61027.7205
-51864.9044
-53514.0845
-58806.9572
-57985.2752
-48901.7995
-50541.3838
-55864.4048
-55061.2994
-46071.8131
-47647.0231
-53014.5006
-52208.7407
-43305.5783
-44840.4113
-50177.4043
-49422.0737
-40641.2631
-42075.8789
-47368.4994
-46675.9168
-38083.5472
-39376.3865
-44602.1942
-44003.5789
-35627.5357
-36756.1368
-41937.3122
-41409.8133
-33238.9452
-34216.1307
-39424.2108
-38869.7805
-30892.0591
-31780.6085
-37080.2551
-36413.4683
-28546.9559
-29430.8582
-34960.7617
-34058.8996
-26159.8543
-27125.2355
-32984.2268
-31836.7437
-23854.279
-24784.2916
-30828.2828
-29799.7637
-21895.8227
-22335.0316
-28088.0523
-27723.6293
-20721.9262
-19873.9072
-25317.7652
-25827.4925
-19738.1083
-17881.3246
-22922.9977
-23964.1294
-18578.6098
-16157.043
-20895.6032
-22129.2694
-17244.2324
-14597.0248
-19169.9574
-20339.6105
-15788.4445
-13157.3399
-17542.3308
-18606.9554
-14303.8885
-11819.2586
-16015.9132
-16934.7244
-12862.3512
-10580.288
-14580.7046
-15322.1355
-11489.3416
-9444.02654
-13229.5435
-13775.956
-10195.0137
-8397.46516
-11951.3454
-12385.3763
-8988.0016
-7384.64611
-10739.1452
-11100.4682
-7863.96818
-6409.58582
-9593.25856
-9893.77491
-6818.69136
-5485.23869
-8513.99855
-8755.13572
-5848.47159
-4624.4493
-7501.8702
-7679.50341
-4951.60777
-3829.62436
-6555.9912
-6715.7497
-4129.40481
-3122.8325
-5676.33615
-5827.67371
-3376.1424
-2451.97632
-4855.65494
-4999.9203
-2684.56855
-1831.32255
-4092.75758
-4231.88103
-2050.70016
-1260.90629
-3385.68544
-3520.69288
-1470.42953
-738.622288
-2732.31599
-2862.75998
-940.067146
-262.43612
-2130.53413
-2256.72695
-456.27427
170.204361
-1577.32603
-1700.28924
-16.2058495
561.818434
-1070.98841
-1191.35972
382.2904
914.854889
-609.519136
-727.701204
741.744765
1231.63327
-190.72809
-306.87396
1064.45784
1514.40737
187.918015
73.6625737
1352.74026
1765.40461
528.884951
416.393056
1608.90133
1986.85863
834.621786
723.791324
1835.1623
2180.90877
1107.54536
998.293554
2033.67726
2349.59414
1350.01017
1242.29226
2206.53573
2494.88238
1564.29792
1458.10728
2355.76067
2618.67048
1752.60906
1647.97477
2483.30466
2722.78394
1917.05669
1814.03924
2591.04542
2808.9747
2059.66199
1958.34824
2680.78132
2878.9185
2182.351
2082.84866
2754.22742
2934.21204
2286.9525
2189.38456
2813.01224
2976.3704
2375.19666
2279.69587
2858.67514
3006.82465
2448.71429
2355.41792
2892.66446
3026.92003
2509.03661
2418.0817
2916.33631
3037.91471
2557.59551
2469.11458
2930.95417
3040.97924
2595.72437
2509.84188
2937.68912
3037.19672
2624.65938
2541.48884
2937.62093
3027.5638
2645.54155
2565.18335
2931.73977
3012.99235
2659.41919
2581.95908
2920.94866
2994.31178
2667.25103
2592.75914
2906.06653
2972.27198
2669.90961
2598.43999
2887.83168
2947.54667
2668.18511
2599.77572
2866.9058
2920.73723
2662.78941
2597.46242
2843.87817
2892.37677
2654.36026
2592.12279
2819.27015
2862.93434
2643.46566
2584.31071
2793.5395
2832.81913
2630.60833
2574.51612
2767.08433
2802.38452
2616.23034
2563.16988
2740.24614
2771.93183
2600.71799
2550.64878
2713.31175
2741.71456
2584.40649
2537.28052
2686.51846
2711.94496
2567.58969
2523.34748
2660.05629
2682.81211
2550.53633
2509.106
2634.18971
2654.50785
2533.92903
2494.87623
2608.73707
2627.48882
2519.40417
2482.46252
2585.77979
2599.51116
2526.57735
2482.22577
2546.52284
2576.25188
2531.70258
2521.31141
2518.34455
2524.00219
2508.46193
2505.92163
2494.0896
2491.53377
2478.35917
2474.53699
2461.11993
2455.984
2442.62034
2436.10159
2423.08329
2415.36105
2402.82944
2394.32049
2382.29817
2373.5733
2362.08134
2353.70312
2342.9113
2335.2727
2325.56667
2318.83589
2310.71169
2304.91384
2298.74464
2293.90254
2289.72266
2285.90551
2283.42687
2280.06101
2277.85764
2276.22233
2275.20891
2274.57574
2274.22419
2274.03885
2273.95138
2273.91385
2273.89982
2273.89545
2273.89445
2273.89438
2273.89448
2273.89455
2273.89459
2273.8946
2273.89461
2273.89461
2273.89461
2273.89461
2273.89461
2273.89461
2273.89461
2273.89461
2273.89461
2273.89461
2273.89461
2273.89461
2273.89461
2273.89461
2273.89461
2273.89461
2273.89461
2273.89461
2273.89461
2273.89461
2273.89461
2273.89461
2273.89461
2273.89461
2273.89461
2273.89461
)
;

boundaryField
{
    closed
    {
        type            lookUpEnthalpy;
        h0              nonuniform List<scalar> 0();
        value           nonuniform List<scalar> 0();
    }
    open
    {
        type            zeroGradient;
    }
    sides
    {
        type            empty;
    }
    procBoundary5to4
    {
        type            processor;
        value           uniform -232196.151;
    }
}


// ************************************************************************* //
