/*--------------------------------*- C++ -*----------------------------------*\
| =========                 |                                                 |
| \\      /  F ield         | OpenFOAM: The Open Source CFD Toolbox           |
|  \\    /   O peration     | Version:  2306                                  |
|   \\  /    A nd           | Website:  www.openfoam.com                      |
|    \\/     M anipulation  |                                                 |
\*---------------------------------------------------------------------------*/
FoamFile
{
    version     2.0;
    format      ascii;
    arch        "LSB;label=32;scalar=64";
    class       volScalarField;
    location    "0.00056";
    object      prefDZ_H2;
}
// * * * * * * * * * * * * * * * * * * * * * * * * * * * * * * * * * * * * * //

dimensions      [1 -1 -1 0 0 0 0];

internalField   nonuniform List<scalar> 
530
(
6.30932459e-05
6.24520958e-05
6.2331847e-05
6.23305759e-05
6.23304624e-05
6.23304599e-05
6.23304598e-05
6.23304597e-05
6.23304597e-05
6.23304597e-05
6.23304597e-05
6.23304597e-05
6.23304597e-05
6.23304597e-05
6.23304597e-05
6.23304597e-05
6.23304597e-05
6.23304597e-05
6.23304597e-05
6.23304597e-05
6.23304597e-05
6.23304597e-05
6.23304597e-05
6.23304597e-05
6.23304597e-05
6.23304597e-05
6.23304597e-05
6.23304597e-05
6.23304597e-05
6.23304597e-05
6.23304597e-05
6.23304597e-05
6.23304597e-05
6.23304597e-05
6.23304597e-05
6.23304597e-05
6.23304597e-05
6.23304597e-05
6.23304597e-05
6.23304597e-05
6.23304597e-05
6.23304597e-05
6.23304597e-05
6.23304597e-05
6.23304597e-05
6.23304597e-05
6.23304597e-05
6.23304597e-05
6.23304597e-05
6.23304597e-05
6.23304597e-05
6.23304597e-05
6.23304597e-05
6.23304597e-05
6.23304597e-05
6.23304597e-05
6.23304597e-05
6.23304597e-05
6.23304597e-05
6.23304597e-05
6.23304597e-05
6.23304597e-05
6.23304597e-05
6.23304597e-05
6.23304597e-05
6.23304597e-05
6.23304597e-05
6.23304597e-05
6.23304597e-05
6.23304597e-05
6.23304598e-05
6.23304598e-05
6.23304598e-05
6.23304598e-05
6.23304599e-05
6.23304602e-05
6.23304606e-05
6.23304621e-05
6.23304651e-05
6.23304728e-05
6.23304864e-05
6.23305213e-05
6.23305776e-05
6.23306253e-05
6.23307819e-05
6.23310619e-05
6.23314299e-05
6.23334086e-05
6.23333457e-05
6.23277437e-05
6.23272105e-05
6.23536096e-05
6.23856127e-05
6.23487206e-05
6.23116706e-05
6.23354765e-05
6.27883664e-05
6.31860355e-05
6.23607266e-05
6.22007726e-05
6.19243473e-05
6.23071536e-05
6.32517464e-05
6.36188061e-05
6.27833195e-05
6.22930421e-05
6.16042354e-05
6.13411724e-05
6.21892194e-05
6.33374502e-05
6.3581942e-05
6.35154231e-05
6.28807063e-05
6.1983575e-05
6.14981155e-05
6.23778199e-05
6.3435633e-05
6.26820804e-05
6.18762974e-05
6.14630465e-05
6.24079735e-05
6.34791265e-05
6.23617557e-05
6.21900105e-05
6.25184473e-05
6.34697186e-05
6.26601194e-05
6.19090433e-05
6.15006306e-05
6.24155444e-05
6.34847105e-05
6.23513526e-05
6.21484256e-05
6.25270381e-05
6.34739916e-05
6.26354336e-05
6.18520147e-05
6.14719537e-05
6.24312054e-05
6.34911682e-05
6.23416058e-05
6.2123109e-05
6.25427891e-05
6.34793451e-05
6.25973063e-05
6.17825078e-05
6.14392708e-05
6.24221513e-05
6.34971522e-05
6.23343789e-05
6.20253427e-05
6.25160279e-05
6.35266011e-05
6.23348929e-05
6.21269067e-05
6.25819203e-05
6.34909101e-05
6.25881785e-05
6.17963698e-05
6.1477729e-05
6.24844378e-05
6.35132214e-05
6.23471688e-05
6.21779672e-05
6.25813512e-05
6.35360439e-05
6.25850412e-05
6.23478156e-05
6.1661756e-05
6.15687877e-05
6.24471813e-05
6.34457373e-05
6.26201492e-05
6.18030769e-05
6.15007762e-05
6.24839698e-05
6.35010957e-05
6.23481677e-05
6.2098098e-05
6.2551475e-05
6.35283828e-05
6.23421926e-05
6.21619391e-05
6.25945514e-05
6.34874686e-05
6.25619062e-05
6.17675974e-05
6.14542474e-05
6.2483358e-05
6.34974461e-05
6.2330596e-05
6.20722575e-05
6.25288452e-05
6.34719656e-05
6.25587628e-05
6.17070864e-05
6.1399573e-05
6.24558663e-05
6.34893092e-05
6.23289077e-05
6.19305899e-05
6.2403672e-05
6.34898285e-05
6.23357348e-05
6.19056624e-05
6.23791654e-05
6.34835774e-05
6.23384395e-05
6.18786768e-05
6.23572131e-05
6.34689243e-05
6.23394948e-05
6.18317072e-05
6.236294e-05
6.34646335e-05
6.23227025e-05
6.16884925e-05
6.22959612e-05
6.34483044e-05
6.23378426e-05
6.1679437e-05
6.22786288e-05
6.34567043e-05
6.2355227e-05
6.17806899e-05
6.23101899e-05
6.3472451e-05
6.23654063e-05
6.19763067e-05
6.23601396e-05
6.3456849e-05
6.26988569e-05
6.17893874e-05
6.13872319e-05
6.23921049e-05
6.34896605e-05
6.23555351e-05
6.19283023e-05
6.23469778e-05
6.34982427e-05
6.23815317e-05
6.2031112e-05
6.23651554e-05
6.34746125e-05
6.27485781e-05
6.18182007e-05
6.14302061e-05
6.24165837e-05
6.35100821e-05
6.23563874e-05
6.20425335e-05
6.23601167e-05
6.34823522e-05
6.28053331e-05
6.18881295e-05
6.15095113e-05
6.2447476e-05
6.35329829e-05
6.23838827e-05
6.21675422e-05
6.23863086e-05
6.35416618e-05
6.2851764e-05
6.23170867e-05
6.16800239e-05
6.16411736e-05
6.23833389e-05
6.34816584e-05
6.28670038e-05
6.2009115e-05
6.1658706e-05
6.25130611e-05
6.35546436e-05
6.24274586e-05
6.23182748e-05
6.24303448e-05
6.35501561e-05
6.3308184e-05
6.22990385e-05
6.21461958e-05
6.17539926e-05
6.16491898e-05
6.23548414e-05
6.34834757e-05
6.31083362e-05
6.21973399e-05
6.18001809e-05
6.24660973e-05
6.34971599e-05
6.29714555e-05
6.21594905e-05
6.17062292e-05
6.24259977e-05
6.34882063e-05
6.28845654e-05
6.20578916e-05
6.16278512e-05
6.23927304e-05
6.3482079e-05
6.28231645e-05
6.1982676e-05
6.15314992e-05
6.2346431e-05
6.3507403e-05
6.24316655e-05
6.22015157e-05
6.24162971e-05
6.35067199e-05
6.27607812e-05
6.19423055e-05
6.14853652e-05
6.23309395e-05
6.35136276e-05
6.23800529e-05
6.21776431e-05
6.23703506e-05
6.34751762e-05
6.35727268e-05
6.27055103e-05
6.22794422e-05
6.1978672e-05
6.16203001e-05
6.14583707e-05
6.22932287e-05
6.34719278e-05
6.24127485e-05
6.21366313e-05
6.24358957e-05
6.35215466e-05
6.23883729e-05
6.21943317e-05
6.25014303e-05
6.34955224e-05
6.26287063e-05
6.17970923e-05
6.14334979e-05
6.23907556e-05
6.35058194e-05
6.23506066e-05
6.19868604e-05
6.24590415e-05
6.35336195e-05
6.23379214e-05
6.20532318e-05
6.25455651e-05
6.35013598e-05
6.25638472e-05
6.17239062e-05
6.15066425e-05
6.25620734e-05
6.34790309e-05
6.25727096e-05
6.17799535e-05
6.15666155e-05
6.26008305e-05
6.35306186e-05
6.23397377e-05
6.20962459e-05
6.26778953e-05
6.35089851e-05
6.25153871e-05
6.17065591e-05
6.1507254e-05
6.26509079e-05
6.3474867e-05
6.25466028e-05
6.17594383e-05
6.15811552e-05
6.26832086e-05
6.35244765e-05
6.23308317e-05
6.18840086e-05
6.25877498e-05
6.35240447e-05
6.2290866e-05
6.17255566e-05
6.25353359e-05
6.34786381e-05
6.26583521e-05
6.18517049e-05
6.16008783e-05
6.26186461e-05
6.35165688e-05
6.23273351e-05
6.19392996e-05
6.28422032e-05
6.34962423e-05
6.24249164e-05
6.15576705e-05
6.14994846e-05
6.28363374e-05
6.35341431e-05
6.23358342e-05
6.178132e-05
6.27161118e-05
6.354285e-05
6.23148253e-05
6.17331697e-05
6.27135701e-05
6.35358082e-05
6.23331309e-05
6.18327553e-05
6.29936916e-05
6.34952347e-05
6.2383226e-05
6.13807508e-05
6.1350114e-05
6.28727638e-05
6.35418505e-05
6.23613691e-05
6.17894022e-05
6.29431467e-05
6.35676609e-05
6.23713654e-05
6.18313438e-05
6.30250683e-05
6.35768495e-05
6.24025906e-05
6.19333593e-05
6.33449177e-05
6.35282586e-05
6.23751797e-05
6.14275181e-05
6.14523148e-05
6.32370347e-05
6.35853944e-05
6.24213503e-05
6.2096853e-05
6.33519303e-05
6.35929996e-05
6.24210509e-05
6.21838121e-05
6.15736345e-05
6.15848168e-05
6.33610637e-05
6.3522354e-05
6.23999069e-05
6.1662108e-05
6.16580938e-05
6.34167854e-05
6.35380599e-05
6.23992146e-05
6.16675113e-05
6.16647942e-05
6.34645191e-05
6.35385805e-05
6.23756425e-05
6.16208604e-05
6.16685673e-05
6.35119673e-05
6.35255561e-05
6.23101109e-05
6.13669695e-05
6.204417e-05
6.34496568e-05
6.3629951e-05
6.35462868e-05
6.23348007e-05
6.20125954e-05
6.15127762e-05
6.15160856e-05
6.34908403e-05
6.35226252e-05
6.23443108e-05
6.15489491e-05
6.16173414e-05
6.34609162e-05
6.35929908e-05
6.23568324e-05
6.22025011e-05
6.34670287e-05
6.35544516e-05
6.23112415e-05
6.14055947e-05
6.15120334e-05
6.34585234e-05
6.35812758e-05
6.22325197e-05
6.19321009e-05
6.34118236e-05
6.35449762e-05
6.21383393e-05
6.22616581e-05
6.3556859e-05
6.35710322e-05
6.22878001e-05
6.1289981e-05
6.15952161e-05
6.34444834e-05
6.35594225e-05
6.20840839e-05
6.19734653e-05
6.34269007e-05
6.34401104e-05
6.20344217e-05
6.23707761e-05
6.35424095e-05
6.35691592e-05
6.22758044e-05
6.12453237e-05
6.19588725e-05
6.34352838e-05
6.33603617e-05
6.19022919e-05
6.23231825e-05
6.34649078e-05
6.30730922e-05
6.20046193e-05
6.2343505e-05
6.3520246e-05
6.35661321e-05
6.22668194e-05
6.12476676e-05
6.21358647e-05
6.3413342e-05
6.30311345e-05
6.18771901e-05
6.23065681e-05
6.3454022e-05
6.2825166e-05
6.18455961e-05
6.22813102e-05
6.34525949e-05
6.28021381e-05
6.19448111e-05
6.22928442e-05
6.34954324e-05
6.35761251e-05
6.22538491e-05
6.13718888e-05
)
;

boundaryField
{
    closed
    {
        type            calculated;
        value           uniform 8.13256645e-05;
    }
    open
    {
        type            calculated;
        value           nonuniform List<scalar> 0();
    }
    sides
    {
        type            empty;
    }
    procBoundary0to1
    {
        type            processor;
        value           uniform 6.22661543e-05;
    }
}


// ************************************************************************* //
