/*--------------------------------*- C++ -*----------------------------------*\
| =========                 |                                                 |
| \\      /  F ield         | OpenFOAM: The Open Source CFD Toolbox           |
|  \\    /   O peration     | Version:  2306                                  |
|   \\  /    A nd           | Website:  www.openfoam.com                      |
|    \\/     M anipulation  |                                                 |
\*---------------------------------------------------------------------------*/
FoamFile
{
    version     2.0;
    format      ascii;
    arch        "LSB;label=32;scalar=64";
    class       volScalarField;
    location    "0.0007";
    object      p;
}
// * * * * * * * * * * * * * * * * * * * * * * * * * * * * * * * * * * * * * //

dimensions      [1 -1 -2 0 0 0 0];

internalField   nonuniform List<scalar> 
530
(
101915.408
101908.546
101901.199
101893.373
101885.755
101878.617
101871.767
101864.211
101856.613
101849.146
101841.857
101834.864
101828.141
101821.432
101814.56
101808.192
101802.104
101795.987
101789.955
101783.884
101777.556
101771.087
101765.026
101759.212
101753.49
101747.624
101741.661
101735.715
101729.862
101724.223
101718.522
101712.866
101707.108
101701.769
101696.693
101691.702
101686.734
101681.745
101677.184
101672.905
101668.749
101664.8
101660.535
101656.484
101652.64
101649.053
101645.799
101642.872
101639.785
101637.068
101634.708
101632.621
101630.811
101629.355
101628.126
101627.094
101626.15
101625.374
101624.762
101624.275
101623.898
101623.589
101623.446
101623.306
101623.224
101623.18
101623.153
101623.141
101623.069
101623.012
101622.872
101622.721
101622.461
101622.165
101621.808
101621.397
101620.861
101620.33
101619.74
101619.078
101618.39
101617.99
101616.785
101615.855
101615.014
101614.203
101613.492
101612.785
101612.102
101611.469
101610.892
101610.458
101609.989
101609.572
101609.231
101608.986
101608.875
101609.199
101608.68
101608.711
101608.726
101608.759
101608.807
101608.83
101608.93
101609.019
101609.059
101609.095
101609.072
101609.141
101609.166
101609.169
101609.076
101609.07
101609.036
101608.932
101608.792
101608.566
101608.373
101608.138
101607.81
101607.46
101607.008
101606.611
101606.205
101605.74
101605.3
101604.805
101604.402
101604.013
101603.724
101603.305
101603.079
101602.909
101602.758
101602.809
101602.747
101602.932
101603.051
101602.624
101603.653
101603.278
101603.407
101603.779
101604.238
101604.429
101604.747
101605.196
101606.236
101605.862
101606.585
101607.15
101607.919
101609.455
101609.105
101610.28
101611.209
101612.113
101613.088
101613.787
101614.623
101615.467
101615.385
101618.894
101619.129
101620.266
101621.759
101623.061
101623.495
101624.164
101625.307
101626.462
101627.726
101628.831
101630.206
101631.41
101632.272
101633.615
101634.115
101634.957
101636.125
101637.374
101638.451
101638.981
101639.384
101639.581
101639.537
101639.17
101638.548
101637.486
101636.073
101634.351
101632.115
101628.981
101625.162
101620.944
101616.023
101610.076
101603.839
101597.817
101591.479
101584.742
101577.793
101570.822
101563.769
101556.733
101548.991
101541.14
101533.712
101525.756
101516.489
101507.006
101498.365
101489.546
101480.286
101470.741
101460.328
101449.352
101433.86
101433.261
101428.106
101421.375
101413.822
101406.071
101398.153
101391.061
101383.013
101372.854
101362.48
101355.089
101345.624
101335.923
101326.958
101318.203
101310.024
101300.953
101290.494
101278.978
101267.697
101255.441
101242.93
101229.724
101215.443
101201.463
101186.021
101168.579
101149.731
101131.64
101113.03
101094.629
101075.74
101056.711
101039.206
101021.422
101004.017
100986.387
100968.311
100951.754
100934.907
100916.984
100898.725
100881.921
100864.812
100847.64
100828.583
100807.739
100788.389
100771.388
100754.765
100736.336
100716.675
100697.913
100680.229
100662.73
100644.353
100625.69
100607.663
100589.48
100571.211
100553.817
100538.771
100524.836
100514.191
100504.125
100493.932
100486.81
100484.481
100486.202
100490.26
100497.443
100507.983
100521.031
100537.1
100555.355
100575.809
100597.464
100618.882
100641.674
100665.392
100690.421
100715.772
100739.32
100762.375
100784.567
100806.663
100828.56
100849.184
100869.849
100890.235
100910.626
100930.288
100948.095
100965.462
100982.407
100999.622
101016.783
101033.039
101049.331
101065.531
101082.152
101098.794
101114.504
101130.619
101146.936
101163.69
101180.633
101197.602
101214.582
101231.512
101248.264
101264.759
101280.985
101296.925
101312.575
101327.831
101342.575
101356.666
101370.076
101382.852
101394.96
101406.361
101417.06
101427.156
101436.76
101445.811
101454.223
101461.96
101469.254
101476.023
101482.222
101487.846
101492.933
101497.464
101501.395
101504.726
101507.482
101509.599
101511.201
101511.193
101511.037
101510.568
101509.203
101507.256
101504.854
101502.054
101498.856
101495.33
101491.293
101487.076
101482.759
101478.45
101474.064
101469.611
101465.025
101460.515
101455.89
101451.138
101446.207
101441.409
101436.502
101431.527
101426.4
101421.531
101416.679
101411.889
101407.055
101402.623
101398.381
101394.322
101390.352
101386.856
101383.666
101380.723
101377.934
101375.602
101373.587
101371.726
101370.039
101368.556
101367.461
101366.687
101366.177
101365.806
101365.641
101365.777
101366.09
101366.504
101366.977
101367.676
101368.463
101369.268
101370.07
101370.939
101371.802
101372.618
101373.32
101373.861
101374.316
101374.548
101374.95
101374.646
101374.691
101373.962
101374.242
101373.157
101372.534
101370.925
101370.114
101368.898
101367.724
101366.384
101365.027
101363.666
101362.298
101360.902
101359.516
101358.218
101356.947
101355.742
101354.363
101353.032
101352.38
101350.315
101349.208
101347.803
101346.642
101345.593
101344.768
101344.007
101343.548
101343.661
101343.115
101343.262
101343.462
101343.828
101344.321
101345.002
101345.557
101346.225
101346.833
101347.328
101348.148
101348.055
101348.265
101348.375
101348.389
101348.501
101348.219
101348.108
101348.044
101348.073
101348.24
101348.524
101348.993
101349.564
101350.247
101351.063
101352.091
101353.347
101354.732
101356.143
101357.711
101359.466
101361.28
101363.146
101365.22
101367.662
101370.532
101373.51
101376.173
101379.022
101382.065
101385.524
101388.861
101392.578
101396.264
101399.756
101403.016
101407.158
101410.541
101414.967
101419.463
101422.006
101425.564
101429.177
101433.085
101437.145
101440.2
101443.457
101446.923
101450.432
101453.589
101456.352
101458.779
101461.194
101463.576
101465.617
101467.437
101469.132
101470.68
101472.554
101474.47
101476.385
101478.373
101480.844
101483.964
101487.557
101491.523
101496.036
101501.522
)
;

boundaryField
{
    closed
    {
        type            zeroGradient;
    }
    open
    {
        type            waveTransmissive;
        gamma           1.25;
        fieldInf        101325;
        lInf            1;
        value           nonuniform List<scalar> 0();
    }
    sides
    {
        type            empty;
    }
    procBoundary2to1
    {
        type            processor;
        value           uniform 101922.24;
    }
    procBoundary2to3
    {
        type            processor;
        value           uniform 101508.008;
    }
}


// ************************************************************************* //
