/*--------------------------------*- C++ -*----------------------------------*\
| =========                 |                                                 |
| \\      /  F ield         | OpenFOAM: The Open Source CFD Toolbox           |
|  \\    /   O peration     | Version:  2306                                  |
|   \\  /    A nd           | Website:  www.openfoam.com                      |
|    \\/     M anipulation  |                                                 |
\*---------------------------------------------------------------------------*/
FoamFile
{
    version     2.0;
    format      ascii;
    arch        "LSB;label=32;scalar=64";
    class       volScalarField;
    location    "0.0007";
    object      prefDh_T;
}
// * * * * * * * * * * * * * * * * * * * * * * * * * * * * * * * * * * * * * //

dimensions      [1 1 -3 -1 0 0 0];

internalField   nonuniform List<scalar> 
530
(
-0.000736271202
-0.000614455591
-0.000504311772
-0.000508927265
-0.000649679433
-0.000743123893
-0.000686673469
-0.000565798118
-0.000498843574
-0.000587349202
-0.000745656016
-0.000750393412
-0.000595722425
-0.00046188859
-0.00055228737
-0.000743299317
-0.000730545416
-0.000739723964
-0.000736673957
-0.000567056936
-0.000447945693
-0.000526643274
-0.000746516407
-0.000746157389
-0.000593036273
-0.000562326741
-0.000544187842
-0.000588723215
-0.000751557864
-0.000749995123
-0.000594240324
-0.000466435282
-0.000533870061
-0.000753556371
-0.000743205958
-0.000590454192
-0.000494410529
-0.000559273056
-0.000748099605
-0.000735063294
-0.000741665795
-0.000669109447
-0.000551111904
-0.000480727986
-0.000506779675
-0.000625226934
-0.000747866973
-0.000659286836
-0.000595428059
-0.000592100503
-0.000593197666
-0.000576236543
-0.000581119542
-0.000750712531
-0.000752672517
-0.000581844505
-0.000562619146
-0.000761177008
-0.000748688991
-0.000590367875
-0.000523966399
-0.000547932466
-0.000754508104
-0.000743933383
-0.000589579933
-0.000520797319
-0.000595320759
-0.000742500277
-0.000752989012
-0.000503850478
-0.000490459303
-0.000749133442
-0.000741716843
-0.000600430932
-0.000506418575
-0.000633595715
-0.000742204433
-0.000591707521
-0.000508142149
-0.000592701507
-0.000739570165
-0.000685991858
-0.000520461362
-0.000514027319
-0.000747171305
-0.000740569008
-0.000592884257
-0.000516328742
-0.000600370535
-0.000740986172
-0.000752914996
-0.000520970033
-0.00050130298
-0.000740050666
-0.00074225899
-0.000568160217
-0.000510048602
-0.000712989745
-0.000742690558
-0.000596642359
-0.000522778359
-0.000595568956
-0.000744989292
-0.000748443399
-0.000595457762
-0.000498533169
-0.000598175763
-0.000740254617
-0.000753238477
-0.000538257425
-0.000486533191
-0.000744085529
-0.000741881714
-0.000596550048
-0.000518231511
-0.00059448116
-0.000743677809
-0.000749607227
-0.000593180693
-0.000505749846
-0.00059339897
-0.000744742704
-0.000749977537
-0.00059389378
-0.000486459446
-0.000590326375
-0.000731688308
-0.000751267806
-0.000526210877
-0.000470931832
-0.000735721101
-0.000736458082
-0.000604920756
-0.000509887644
-0.000510524523
-0.000735485509
-0.000738881251
-0.000597393232
-0.000516096251
-0.000516409406
-0.000732066244
-0.000745706085
-0.000584789851
-0.000527259596
-0.000732672042
-0.000742484993
-0.000603769745
-0.00052012643
-0.000520228447
-0.000730541905
-0.000740613788
-0.000596237808
-0.000505713741
-0.000506213568
-0.000728088325
-0.000746794344
-0.000595150473
-0.000532294903
-0.000728140508
-0.000743050323
-0.000598115294
-0.000520923073
-0.000520803863
-0.000725461516
-0.000740587729
-0.000596837959
-0.000511023028
-0.000511386783
-0.000722058386
-0.000746114485
-0.0006086083
-0.000545473323
-0.000722070424
-0.000741534793
-0.000597942013
-0.00052003296
-0.000520045929
-0.000720973999
-0.000738830463
-0.000595823866
-0.000493494493
-0.000494213199
-0.000715643627
-0.000743618738
-0.000592831519
-0.000515472038
-0.000703080171
-0.000741892761
-0.000586465851
-0.000514135218
-0.000696768848
-0.00074117851
-0.00058978995
-0.000517725043
-0.000697127861
-0.000741625416
-0.000595091588
-0.000531381544
-0.000707355791
-0.000736588302
-0.000597729825
-0.000493806458
-0.000493516674
-0.00071524183
-0.00074484636
-0.000598996819
-0.00052267663
-0.000694719221
-0.00074388936
-0.000606194641
-0.000539295886
-0.000700671211
-0.000737634941
-0.00059763246
-0.00050294541
-0.000500916682
-0.000712005033
-0.000747663557
-0.000601911986
-0.000527328772
-0.000688198261
-0.0007455237
-0.000600238804
-0.000540128667
-0.000690647156
-0.000738036301
-0.000596362017
-0.000509681032
-0.000508423142
-0.000714260668
-0.000751128619
-0.000593564864
-0.000541119797
-0.000686824802
-0.00074021108
-0.000594070475
-0.00050982349
-0.000524597353
-0.000717325267
-0.000752528779
-0.000589783902
-0.000554512074
-0.00068509684
-0.000742395849
-0.000592298594
-0.000528140685
-0.000567127394
-0.000719522142
-0.000748875288
-0.000588884864
-0.000502582257
-0.00053457122
-0.00071415357
-0.000748562941
-0.000587212687
-0.000576147142
-0.000681039594
-0.000744607552
-0.000591549669
-0.000532074714
-0.000565935191
-0.0007134231
-0.000749182124
-0.000590950666
-0.000525441365
-0.000553055208
-0.000708596396
-0.000747989991
-0.00059259201
-0.000527392539
-0.000544205162
-0.000703108156
-0.000746829698
-0.000595587891
-0.000532458966
-0.000537696768
-0.000697731116
-0.000745010538
-0.000597606873
-0.000524324723
-0.000524082866
-0.000674819859
-0.000740579406
-0.000584083551
-0.000579337225
-0.00063854036
-0.000739501783
-0.000604836275
-0.000543219559
-0.000534516722
-0.000660330181
-0.000742403747
-0.000609291888
-0.000547678553
-0.000535163206
-0.000650407782
-0.000741190889
-0.00061267396
-0.000550511308
-0.000533803973
-0.000642888198
-0.000740540584
-0.000615423214
-0.000551032225
-0.000529633377
-0.000634114425
-0.000739849776
-0.00062528518
-0.000566007505
-0.000541927765
-0.000633892331
-0.000740580418
-0.000621998358
-0.000559533016
-0.000534355747
-0.000626385994
-0.000737130836
-0.000633011486
-0.000571967908
-0.000520177803
-0.000595464722
-0.000737119881
-0.000619927627
-0.000598482462
-0.000600292507
-0.000601620926
-0.000614727773
-0.000594393422
-0.000589200465
-0.00058930729
-0.000594744977
-0.000597608883
-0.000596484742
-0.000588650043
-0.00058770658
-0.000592299303
-0.000602857283
-0.000595205204
-0.000586898257
-0.000586923277
-0.000611304569
-0.000615112632
-0.000586400949
-0.000589748179
-0.000594989782
-0.000631226498
-0.000595652577
-0.000588343362
-0.000588043906
-0.00060368671
-0.000594776997
-0.000589836242
-0.000596623171
-0.000602711132
-0.000593510231
-0.000611312013
-0.000628909176
-0.000715428802
-0.000590175556
-0.000534255626
-0.000619398082
-0.000737458216
-0.000586092045
-0.000543036767
-0.00060433867
-0.000735868487
-0.000615335232
-0.000532754809
-0.000527981197
-0.000672025479
-0.000739355176
-0.000590787305
-0.00053330515
-0.000609411931
-0.000738321104
-0.000586225512
-0.000533005948
-0.000617588459
-0.000738841532
-0.000587329074
-0.000531743224
-0.000622477412
-0.000739537205
-0.000588330921
-0.000532028464
-0.000627362336
-0.00074014782
-0.000589927009
-0.000536658625
-0.0006335073
-0.00074102711
-0.000590753884
-0.000551365461
-0.000623673847
-0.000740546469
-0.000620195125
-0.000534840851
-0.000499300176
-0.000620483648
-0.000738344566
-0.000589860397
-0.000537020624
-0.000634296313
-0.000740439137
-0.000590857285
-0.000540730026
-0.000637724795
-0.000741603488
-0.000590710313
-0.000555665474
-0.000621557443
-0.000741977509
-0.000619238288
-0.000534039299
-0.000505320689
-0.000624778711
-0.000739204383
-0.00058945477
-0.000538515031
-0.000634758461
-0.000742721107
-0.000588700613
-0.000539584384
-0.000637182985
-0.000747494345
-0.000586866178
-0.000557135123
-0.000595449361
-0.000753452109
-0.000749933497
-0.000590442716
-0.000606002952
-0.000592874727
-0.000591871768
-0.000587279934
-0.000599926477
-0.000743984062
-0.000747399774
-0.000618625406
-0.000550718756
-0.00054279378
-0.00071240451
-0.000745066868
-0.000597699279
-0.000542971404
-0.000612270691
-0.00074150495
-0.000629956185
-0.000539775344
-0.000534625524
-0.000690883019
-0.000744403061
-0.000593476473
-0.00055308115
-0.000604161103
-0.000744433271
-0.000659278336
-0.000573738995
-0.000528322954
-0.000594289079
-0.000744493209
-0.000699822145
-0.000580070353
-0.000526035599
-0.000596425294
-0.000742095595
-0.000664328924
-0.000567248084
-0.00053254645
-0.000608233821
-0.000741593759
-0.000635223878
-0.000557781766
-0.000530288209
-0.000610522924
-0.000740504824
-0.000626525622
-0.000545454856
-0.000512897122
-0.000616894868
-0.000742347857
-0.000587922525
-0.000559747722
-0.00060197768
-0.000738857997
-0.000630848629
-0.000543848021
-0.000515653855
-0.000630497374
-0.000738752199
-0.000588071184
-0.00053843176
-0.000616641936
-0.000738533811
-0.000586124662
-0.000546906821
-0.000606940605
-0.000737854279
-0.00062218397
-0.000548546474
-0.000545588572
-0.00065854954
-0.000739489819
-0.000622832446
-0.000561442302
-0.000544719605
-0.000643935549
-0.000739311948
-0.000611944892
-0.000531030103
-0.000508260294
-0.000615824781
-0.000738672891
-0.000617850934
-0.000538372196
-0.000523958959
-0.000610297945
-0.000741485024
-0.000723012847
-0.000599559278
-0.000541695937
-0.000614735641
-0.000738084596
-0.000614768803
-0.000535690572
-0.000525189507
-0.000645661016
-0.000738528678
-0.000617337322
-0.000549148212
)
;

boundaryField
{
    closed
    {
        type            calculated;
        value           nonuniform List<scalar> 0();
    }
    open
    {
        type            calculated;
        value           nonuniform List<scalar> 0();
    }
    sides
    {
        type            empty;
    }
    procBoundary2to1
    {
        type            processor;
        value           uniform -0.000744862652;
    }
    procBoundary2to3
    {
        type            processor;
        value           uniform -0.000536545682;
    }
}


// ************************************************************************* //
