/*--------------------------------*- C++ -*----------------------------------*\
| =========                 |                                                 |
| \\      /  F ield         | OpenFOAM: The Open Source CFD Toolbox           |
|  \\    /   O peration     | Version:  2306                                  |
|   \\  /    A nd           | Website:  www.openfoam.com                      |
|    \\/     M anipulation  |                                                 |
\*---------------------------------------------------------------------------*/
FoamFile
{
    version     2.0;
    format      ascii;
    arch        "LSB;label=32;scalar=64";
    class       volScalarField;
    location    "0.00142";
    object      p;
}
// * * * * * * * * * * * * * * * * * * * * * * * * * * * * * * * * * * * * * //

dimensions      [1 -1 -2 0 0 0 0];

internalField   nonuniform List<scalar> 
530
(
101311.118
101311.422
101311.717
101312.019
101312.335
101312.662
101313.002
101313.347
101313.683
101313.982
101314.304
101314.68
101315.038
101315.347
101315.669
101316.046
101316.688
101317.091
101317.494
101317.913
101318.344
101318.783
101319.184
101319.56
101319.941
101320.319
101320.7
101321.092
101321.488
101321.881
101322.266
101322.616
101322.982
101323.363
101323.736
101324.077
101324.426
101324.781
101325.144
101325.509
101325.873
101326.217
101326.536
101326.854
101327.177
101327.521
101327.873
101328.185
101328.51
101328.844
101329.083
101329.351
101329.651
101329.915
101330.132
101330.323
101330.528
101330.75
101330.969
101331.173
101331.357
101331.548
101331.749
101331.941
101332.108
101332.255
101332.397
101332.539
101332.688
101332.833
101332.946
101333.032
101333.136
101333.229
101333.32
101333.386
101333.441
101333.494
101333.548
101333.593
101333.627
101333.65
101333.651
101333.654
101333.668
101333.662
101333.642
101333.6
101333.563
101333.527
101333.473
101333.402
101333.328
101333.244
101333.158
101333.078
101333.001
101332.948
101332.866
101332.778
101332.687
101332.592
101332.496
101332.378
101332.246
101332.114
101331.976
101331.821
101331.651
101331.478
101331.305
101331.109
101330.909
101330.705
101330.481
101330.249
101330.01
101329.753
101329.498
101329.234
101328.97
101328.689
101328.392
101328.09
101327.779
101327.461
101327.151
101326.815
101326.488
101326.168
101325.86
101325.537
101325.234
101324.942
101324.611
101324.299
101324.009
101323.725
101323.449
101323.219
101322.972
101322.726
101322.49
101322.316
101322.186
101322.077
101322.029
101322.018
101321.979
101321.937
101321.92
101321.928
101321.939
101321.952
101321.988
101322.049
101322.109
101322.167
101322.237
101322.309
101322.396
101322.496
101322.59
101322.675
101322.754
101322.838
101322.919
101323.003
101323.099
101323.181
101323.287
101323.402
101323.445
101323.499
101323.58
101323.637
101323.712
101323.772
101323.881
101323.989
101324.002
101324.052
101324.102
101324.152
101324.212
101324.278
101324.365
101324.468
101324.563
101324.423
101324.447
101324.493
101324.533
101324.581
101324.637
101324.708
101324.783
101324.858
101324.924
101324.874
101325.013
101325.151
101325.259
101325.36
101325.484
101325.597
101325.732
101325.842
101325.976
101326.104
101326.228
101326.353
101326.47
101326.617
101326.766
101326.908
101327.059
101327.201
101327.346
101327.514
101327.685
101327.841
101327.991
101328.134
101328.328
101328.517
101328.694
101328.856
101329.024
101329.196
101329.364
101329.544
101329.74
101329.894
101330.052
101330.232
101330.419
101330.595
101330.734
101330.887
101331.042
101331.181
101331.32
101331.461
101331.604
101331.755
101331.903
101332.038
101332.169
101332.299
101332.446
101332.59
101332.728
101332.867
101333.019
101333.2
101333.369
101333.524
101333.681
101333.854
101334.032
101334.213
101334.39
101334.607
101334.836
101335.053
101335.273
101335.482
101335.699
101335.972
101336.231
101336.472
101336.722
101336.993
101337.293
101337.586
101337.871
101338.149
101338.435
101338.72
101339.013
101339.316
101339.604
101339.887
101340.205
101340.516
101340.803
101341.087
101341.36
101341.679
101341.993
101342.273
101342.573
101342.896
101343.203
101343.483
101343.769
101344.08
101344.426
101344.757
101345.062
101345.35
101345.649
101345.948
101346.256
101346.58
101346.902
101347.225
101347.558
101347.896
101348.23
101348.549
101348.882
101349.235
101349.579
101349.903
101350.2
101350.509
101350.834
101351.15
101351.431
101351.719
101352.02
101352.319
101352.601
101352.854
101353.122
101353.382
101353.414
101353.743
101354.05
101354.361
101354.668
101354.969
101355.264
101355.538
101355.857
101356.215
101356.542
101356.82
101357.095
101357.362
101357.633
101357.921
101358.212
101358.48
101358.754
101358.992
101359.246
101359.528
101359.809
101360.07
101360.298
101360.541
101360.788
101361.04
101361.272
101361.492
101361.722
101361.934
101362.094
101362.25
101362.408
101362.575
101363.14
101363.358
101363.554
101363.792
101364.062
101364.343
101364.633
101364.927
101365.234
101365.18
101365.395
101365.634
101365.863
101366.095
101366.324
101366.529
101366.741
101366.966
101367.176
101367.382
101367.561
101367.758
101367.982
101368.2
101368.401
101368.618
101368.858
101369.087
101369.306
101369.527
101369.759
101370.004
101370.238
101370.445
101370.65
101370.864
101371.087
101371.298
101371.478
101371.666
101371.865
101372.064
101372.241
101372.42
101372.572
101372.729
101372.888
101373.02
101373.18
101373.334
101373.409
101373.499
101373.584
101373.651
101373.739
101373.838
101373.91
101373.97
101374.004
101374.044
101374.086
101374.115
101374.146
101374.177
101374.155
101374.124
101374.126
101374.1
101374.076
101374.07
101374.069
101373.962
101373.88
101373.808
101373.709
101373.657
101373.629
101373.399
101373.207
101373.059
101372.895
101372.717
101372.557
101372.373
101372.173
101371.962
101371.746
101371.536
101371.306
101371.087
101370.866
101370.646
101370.414
101370.174
101369.938
101369.703
101369.461
101369.223
101368.962
101368.716
101368.472
101368.212
101367.951
101367.705
101367.473
101367.268
101367.002
101366.753
101366.505
101366.258
101365.991
101365.729
101365.503
101365.181
101364.87
101364.586
101364.367
101363.849
101363.384
101363.027
101362.656
101362.29
101361.92
101361.548
101361.169
101360.796
101360.435
101360.078
101359.686
101359.318
101358.975
101358.617
101358.29
101357.974
101357.657
101357.354
101357.051
101356.745
101356.448
101356.169
101355.919
101355.674
101355.399
101355.156
101354.945
101354.744
101354.56
101354.409
101354.259
101354.134
101354.035
101353.957
101353.898
101353.84
101353.751
101353.726
101353.704
101353.743
101353.863
101353.941
101354.002
101354.065
101354.141
101354.247
101354.37
101354.498
)
;

boundaryField
{
    closed
    {
        type            zeroGradient;
    }
    open
    {
        type            waveTransmissive;
        gamma           1.25;
        fieldInf        101325;
        lInf            1;
        value           nonuniform List<scalar> 0();
    }
    sides
    {
        type            empty;
    }
    procBoundary2to1
    {
        type            processor;
        value           uniform 101310.81;
    }
    procBoundary2to3
    {
        type            processor;
        value           uniform 101354.658;
    }
}


// ************************************************************************* //
