/*--------------------------------*- C++ -*----------------------------------*\
| =========                 |                                                 |
| \\      /  F ield         | OpenFOAM: The Open Source CFD Toolbox           |
|  \\    /   O peration     | Version:  2306                                  |
|   \\  /    A nd           | Website:  www.openfoam.com                      |
|    \\/     M anipulation  |                                                 |
\*---------------------------------------------------------------------------*/
FoamFile
{
    version     2.0;
    format      ascii;
    arch        "LSB;label=32;scalar=64";
    class       volScalarField;
    location    "0.00142";
    object      prefDZ_H2;
}
// * * * * * * * * * * * * * * * * * * * * * * * * * * * * * * * * * * * * * //

dimensions      [1 -1 -1 0 0 0 0];

internalField   nonuniform List<scalar> 
530
(
6.23341424e-05
6.35712382e-05
6.35860361e-05
6.35792597e-05
6.23176304e-05
6.18559718e-05
6.14696481e-05
6.14437053e-05
6.34931789e-05
6.35712436e-05
6.14779067e-05
6.13468112e-05
6.34659221e-05
6.35645505e-05
6.14584089e-05
6.14763489e-05
6.34820651e-05
6.3560415e-05
6.35041464e-05
6.23343041e-05
6.09351853e-05
6.11431852e-05
6.35186135e-05
6.35769255e-05
6.355781e-05
6.35863725e-05
6.23076521e-05
6.1648501e-05
6.16764205e-05
6.16342045e-05
6.35629867e-05
6.35867938e-05
6.23148259e-05
6.20435454e-05
6.35948025e-05
6.35546447e-05
6.23963463e-05
6.21324877e-05
6.2003851e-05
6.14501956e-05
6.16501747e-05
6.3510874e-05
6.35373997e-05
6.35344916e-05
6.18914011e-05
6.15620504e-05
6.35019035e-05
6.34374052e-05
6.35024597e-05
6.28592545e-05
6.1762804e-05
6.14609205e-05
6.12296527e-05
6.1231693e-05
6.35539878e-05
6.35710453e-05
6.23064342e-05
6.18144255e-05
6.22987506e-05
6.35983585e-05
6.35808547e-05
6.22896336e-05
6.11775659e-05
6.16554123e-05
6.35172171e-05
6.36019309e-05
6.35054354e-05
6.22893681e-05
6.12533396e-05
6.14580467e-05
6.3485899e-05
6.3646195e-05
6.16577103e-05
6.20586375e-05
6.35512651e-05
6.35967158e-05
6.3551304e-05
6.22911379e-05
6.17081293e-05
6.16305159e-05
6.16270611e-05
6.35890924e-05
6.35338506e-05
6.20643291e-05
6.11275083e-05
6.1463415e-05
6.35550738e-05
6.3580047e-05
6.23358679e-05
6.19859192e-05
6.35922112e-05
6.35467007e-05
6.24058073e-05
6.18971897e-05
6.18249094e-05
6.10462792e-05
6.10481763e-05
6.35729906e-05
6.3560095e-05
6.35931321e-05
6.35763479e-05
6.22766168e-05
6.17605975e-05
6.3660556e-05
6.3590476e-05
6.22433231e-05
6.1646996e-05
6.22952811e-05
6.35836479e-05
6.22405905e-05
6.18166544e-05
6.36764344e-05
6.35656677e-05
6.23394489e-05
6.21182276e-05
6.20126689e-05
6.17075358e-05
6.17852612e-05
6.35955066e-05
6.36083681e-05
6.23574447e-05
6.19965817e-05
6.22886186e-05
6.36327362e-05
6.36189106e-05
6.22776156e-05
6.1352072e-05
6.20534081e-05
6.35866782e-05
6.22774796e-05
6.15081641e-05
6.36052685e-05
6.3552134e-05
6.26443601e-05
6.20510878e-05
6.12392507e-05
6.13379935e-05
6.35431303e-05
6.3642702e-05
6.15686337e-05
6.23187601e-05
6.35829777e-05
6.23433661e-05
6.15723218e-05
6.34398015e-05
6.3578491e-05
6.1979584e-05
6.17121824e-05
6.35759053e-05
6.35830771e-05
6.19600299e-05
6.18204507e-05
6.3588328e-05
6.35758859e-05
6.20129765e-05
6.20278978e-05
6.35780371e-05
6.35384113e-05
6.2470925e-05
6.22049696e-05
6.19861349e-05
6.13797702e-05
6.13891243e-05
6.35309149e-05
6.35407645e-05
6.35123126e-05
6.35704005e-05
6.25447405e-05
6.18711231e-05
6.13212883e-05
6.22913937e-05
6.2860228e-05
6.19449985e-05
6.13953961e-05
6.35657683e-05
6.35875535e-05
6.15680014e-05
6.17967225e-05
6.35302896e-05
6.27080742e-05
6.14619583e-05
6.23005379e-05
6.3548929e-05
6.36009942e-05
6.35440675e-05
6.22337278e-05
6.15373615e-05
6.10005352e-05
6.101209e-05
6.3526569e-05
6.35343533e-05
6.35040713e-05
6.35636537e-05
6.35017822e-05
6.23202356e-05
6.14329078e-05
6.16886723e-05
6.35478439e-05
6.35493746e-05
6.22748154e-05
6.10753318e-05
6.12171152e-05
6.34796842e-05
6.35745432e-05
6.12605428e-05
6.22193669e-05
6.3542678e-05
6.19254389e-05
6.11976283e-05
6.35507962e-05
6.3474635e-05
6.35077944e-05
6.16194975e-05
6.11843338e-05
6.35559408e-05
6.34817813e-05
6.35374728e-05
6.34956195e-05
6.24273601e-05
6.16376271e-05
6.16890216e-05
6.35395369e-05
6.35720191e-05
6.23134812e-05
6.16884114e-05
6.12934971e-05
6.14214869e-05
6.35197287e-05
6.35631084e-05
6.34882135e-05
6.23037925e-05
6.10140082e-05
6.18242714e-05
6.3498621e-05
6.22657158e-05
6.13898588e-05
6.36792513e-05
6.35059711e-05
6.22623849e-05
6.15430913e-05
6.2397931e-05
6.35382172e-05
6.36041893e-05
6.35592878e-05
6.23303787e-05
6.17308223e-05
6.15506481e-05
6.20648019e-05
6.3575845e-05
6.23150228e-05
6.15834552e-05
6.36133252e-05
6.35437313e-05
6.23856611e-05
6.21033371e-05
6.12053876e-05
6.12887045e-05
6.3518462e-05
6.35276458e-05
6.35143403e-05
6.35386332e-05
6.35164795e-05
6.23510867e-05
6.15595043e-05
6.12906022e-05
6.12681775e-05
6.35663643e-05
6.35484283e-05
6.22468622e-05
6.16990871e-05
6.36230277e-05
6.35618816e-05
6.22879047e-05
6.18301553e-05
6.11331449e-05
6.11402686e-05
6.35545797e-05
6.35681477e-05
6.35359069e-05
6.23398219e-05
6.15350274e-05
6.22877805e-05
6.35390045e-05
6.19867021e-05
6.13649457e-05
6.3594648e-05
6.35065052e-05
6.3567275e-05
6.22870532e-05
6.15174601e-05
6.3529414e-05
6.35517534e-05
6.13491257e-05
6.13654928e-05
6.35115531e-05
6.35319821e-05
6.25200839e-05
6.20060897e-05
6.07156904e-05
6.08449376e-05
6.35383942e-05
6.35421908e-05
6.35690513e-05
6.35627465e-05
6.232326e-05
6.19513984e-05
6.23167853e-05
6.23106312e-05
6.20750495e-05
6.23248304e-05
6.36392784e-05
6.35942528e-05
6.22765241e-05
6.12587526e-05
6.16036158e-05
6.35627669e-05
6.35864159e-05
6.23097346e-05
6.18904593e-05
6.36231329e-05
6.35579592e-05
6.23338077e-05
6.16233442e-05
6.18165567e-05
6.35633287e-05
6.35214194e-05
6.35821869e-05
6.35788594e-05
6.22175129e-05
6.15496036e-05
6.22834811e-05
6.23404943e-05
6.18093384e-05
6.23473804e-05
6.35333851e-05
6.35882234e-05
6.12758907e-05
6.1061764e-05
6.3479801e-05
6.3503443e-05
6.35076395e-05
6.35294319e-05
6.23669304e-05
6.18036334e-05
6.14666363e-05
6.17663719e-05
6.35662521e-05
6.35405122e-05
6.19625013e-05
6.08942148e-05
6.13055983e-05
6.35364514e-05
6.35508714e-05
6.24366609e-05
6.17673468e-05
6.22964166e-05
6.35553511e-05
6.22628695e-05
6.15806837e-05
6.36540808e-05
6.35405229e-05
6.2313598e-05
6.14011135e-05
6.14251924e-05
6.35418381e-05
6.3453524e-05
6.35736925e-05
6.35403518e-05
6.22912594e-05
6.20825559e-05
6.22732637e-05
6.1906325e-05
6.19114987e-05
6.35737194e-05
6.36279989e-05
6.24491074e-05
6.19938151e-05
6.231139e-05
6.36348794e-05
6.3616991e-05
6.22841109e-05
6.13785294e-05
6.18769633e-05
6.35394833e-05
6.36116872e-05
6.2366784e-05
6.18699884e-05
6.1893941e-05
6.22799165e-05
6.22922655e-05
6.16896433e-05
6.25427397e-05
6.35547866e-05
6.24861199e-05
6.13188461e-05
6.1493161e-05
6.35532242e-05
6.35496113e-05
6.35446282e-05
6.23134049e-05
6.19026545e-05
6.36145256e-05
6.35894852e-05
6.24217176e-05
6.20227142e-05
6.14550441e-05
6.18758636e-05
6.35904142e-05
6.3543827e-05
6.23045101e-05
6.12036441e-05
6.21377051e-05
6.35144967e-05
6.26269477e-05
6.15410983e-05
6.23126813e-05
6.35506389e-05
6.35933379e-05
6.20528381e-05
6.0949638e-05
6.15178533e-05
6.35581602e-05
6.35670142e-05
6.23411966e-05
6.17147347e-05
6.23090028e-05
6.35667173e-05
6.24943633e-05
6.15978175e-05
6.216201e-05
6.36004995e-05
6.36444971e-05
6.2312056e-05
6.17224476e-05
6.27122263e-05
6.35995744e-05
6.2294282e-05
6.16003118e-05
6.24721168e-05
6.35612045e-05
6.29341213e-05
6.20309958e-05
6.11184741e-05
6.14276071e-05
6.34926666e-05
6.35741625e-05
6.15753599e-05
6.15206462e-05
6.35601853e-05
6.35353086e-05
6.22945261e-05
6.17436683e-05
6.36991708e-05
6.35527925e-05
6.22730848e-05
6.14198085e-05
6.17755249e-05
6.35800947e-05
6.36113342e-05
6.35553002e-05
6.2276357e-05
6.18664213e-05
6.22870305e-05
6.2300587e-05
6.1678245e-05
6.17425538e-05
6.36513128e-05
6.35811776e-05
6.35806999e-05
6.24938635e-05
6.21574854e-05
6.22928155e-05
6.2354161e-05
6.18726695e-05
6.22743418e-05
6.35895178e-05
6.25799722e-05
6.15094103e-05
6.22682353e-05
6.35107344e-05
6.2917473e-05
6.15615596e-05
6.17719074e-05
6.35700075e-05
6.3593239e-05
6.35515961e-05
6.23407108e-05
6.21079681e-05
6.22595707e-05
6.23048249e-05
6.19263253e-05
6.26047502e-05
6.3622061e-05
6.22978158e-05
6.19082434e-05
6.36738272e-05
6.35614195e-05
6.23757852e-05
6.23710973e-05
6.20546792e-05
6.14819319e-05
6.2284462e-05
6.35477855e-05
6.23465591e-05
6.12240672e-05
6.2619041e-05
6.36076241e-05
6.22585202e-05
6.22952819e-05
6.36417092e-05
6.22863019e-05
6.19966508e-05
6.36716268e-05
6.35889057e-05
6.23341802e-05
6.23628952e-05
6.20006447e-05
6.14673201e-05
6.21177328e-05
6.35267999e-05
6.34535804e-05
6.1362352e-05
6.1361576e-05
6.35320341e-05
6.35239979e-05
6.35304412e-05
6.23275896e-05
6.20066497e-05
6.35999664e-05
6.36329481e-05
)
;

boundaryField
{
    closed
    {
        type            calculated;
        value           nonuniform List<scalar> 0();
    }
    open
    {
        type            calculated;
        value           nonuniform List<scalar> 0();
    }
    sides
    {
        type            empty;
    }
    procBoundary2to1
    {
        type            processor;
        value           uniform 6.17617951e-05;
    }
    procBoundary2to3
    {
        type            processor;
        value           uniform 6.25145368e-05;
    }
}


// ************************************************************************* //
