/*--------------------------------*- C++ -*----------------------------------*\
| =========                 |                                                 |
| \\      /  F ield         | OpenFOAM: The Open Source CFD Toolbox           |
|  \\    /   O peration     | Version:  2306                                  |
|   \\  /    A nd           | Website:  www.openfoam.com                      |
|    \\/     M anipulation  |                                                 |
\*---------------------------------------------------------------------------*/
FoamFile
{
    version     2.0;
    format      ascii;
    arch        "LSB;label=32;scalar=64";
    class       volScalarField;
    location    "0.0013";
    object      p;
}
// * * * * * * * * * * * * * * * * * * * * * * * * * * * * * * * * * * * * * //

dimensions      [1 -1 -2 0 0 0 0];

internalField   nonuniform List<scalar> 
530
(
101316.675
101315.526
101314.445
101313.801
101313.011
101312.464
101312.012
101311.645
101311.632
101311.385
101311.298
101311.196
101311.114
101311.386
101311.621
101312.288
101312.614
101311.172
101309.224
101306.407
101304.931
101304.223
101304.015
101303.173
101300.742
101299.127
101298.341
101297.383
101296.216
101294.87
101293.722
101292.753
101291.77
101291.143
101290.683
101289.778
101285.901
101292.172
101289.574
101289.436
101289.969
101290.598
101290.98
101290.653
101290.22
101290.109
101290.726
101291.425
101292.273
101292.964
101293.49
101294.24
101295.56
101297.758
101299.558
101299.805
101302.09
101305.236
101308.045
101311.565
101315.831
101314.796
101319.088
101322.488
101324.627
101326.312
101326.589
101329.874
101331.655
101332.833
101333.506
101333.375
101332.935
101332.174
101331.248
101330.43
101329.44
101328.565
101327.242
101324.986
101321.394
101315.035
101322.908
101316.165
101311.682
101310.87
101308.931
101307.282
101305.369
101303.887
101302.725
101301.69
101300.659
101299.929
101299.455
101298.981
101298.503
101297.946
101297.799
101297.93
101298.15
101298.337
101298.621
101299.069
101299.499
101299.828
101300.187
101300.728
101301.251
101301.768
101302.189
101302.876
101303.823
101304.902
101306.193
101307.572
101309.139
101310.893
101312.638
101314.402
101316.096
101317.916
101320.064
101322.429
101325.052
101327.533
101330.494
101333.818
101337.6
101341.674
101345.785
101350.209
101354.768
101359.5
101364.219
101368.722
101373.665
101379.134
101385.19
101391.302
101396.878
101402.688
101408.449
101412.563
101424.74
101428.494
101433.588
101438.44
101442.841
101446.661
101450.658
101454.882
101458.852
101459.506
101461.716
101464.216
101466.091
101467.469
101468.585
101469.785
101470.764
101471.573
101472.194
101472.615
101473.267
101473.515
101473.82
101473.898
101473.912
101474.087
101474.045
101474.059
101474.474
101475.607
101477.068
101478.651
101480.433
101482.61
101485.36
101488.488
101492.281
101496.844
101500.511
101504.762
101509.155
101513.507
101517.907
101520.724
101523.71
101526.49
101529.116
101531.622
101534.423
101537.937
101540.715
101544.243
101547.694
101551.291
101554.631
101558.085
101561.36
101564.871
101568.242
101571.684
101574.67
101577.236
101579.352
101579.91
101580.378
101579.716
101580.553
101577.729
101577.748
101575.58
101573.918
101570.763
101567.622
101563.662
101559.434
101554.628
101549.615
101544.155
101538.666
101533.125
101527.651
101522.007
101516.462
101510.751
101505.162
101499.25
101493.105
101487.607
101481.898
101476.449
101471.167
101466.103
101461.309
101456.805
101452.374
101448.004
101444.034
101440.203
101436.258
101432.251
101429
101425.732
101422.897
101420.148
101417.186
101413.392
101408.451
101408.623
101407.657
101405.631
101403.644
101401.706
101399.735
101397.876
101396.158
101394.493
101393.054
101391.644
101390.232
101388.812
101387.344
101386.19
101385.011
101384.067
101383.576
101383.314
101383.075
101382.869
101381.433
101385.47
101384.973
101385.615
101386.486
101387.608
101388.844
101389.869
101390.995
101392.145
101393.244
101394.197
101394.767
101395.315
101395.654
101395.784
101395.691
101395.322
101394.985
101394.363
101393.534
101392.658
101391.666
101390.46
101389.043
101387.414
101385.876
101384.208
101382.275
101380.104
101377.71
101375.481
101373.088
101370.358
101367.37
101364.165
101361.267
101358.229
101354.86
101351.288
101347.6
101344.388
101341.156
101337.719
101334.265
101330.885
101328.2
101325.681
101323.126
101320.725
101318.459
101316.844
101315.401
101313.97
101312.752
101311.869
101311.399
101310.903
101310.739
101310.706
101310.769
101310.783
101311.021
101311.251
101311.347
101311.364
101311.208
101311.059
101310.8
101310.363
101309.929
101309.904
101309.954
101310.855
101312.367
101314.322
101316.412
101318.364
101320.665
101323.165
101325.78
101328.545
101331.847
101335.666
101339.939
101344.325
101348.928
101354.107
101359.718
101365.753
101372.351
101379.005
101385.214
101392.032
101399.338
101407.26
101415.324
101424.22
101433.618
101443.447
101453.013
101462.234
101471.972
101481.863
101492.008
101501.714
101511.987
101522.338
101532.581
101541.847
101551.249
101560.416
101569.403
101577.368
101585.509
101594.333
101603.336
101611.439
101620.004
101629.508
101639.202
101647.303
101655.612
101664.565
101673.407
101681.031
101688.76
101696.198
101703.675
101710.569
101716.479
101721.067
101726.796
101731.525
101735.407
101738.844
101741.275
101742.266
101742.278
101741.735
101740.792
101739.523
101737.791
101735.458
101732.612
101729.145
101725.529
101722.209
101718.988
101715.92
101713.038
101710.114
101706.562
101702.025
101697.743
101693.253
101689.044
101685.12
101681.602
101678.228
101674.855
101671.575
101668.377
101665.26
101662.328
101659.495
101656.566
101653.801
101651.231
101648.773
101646.389
101644.089
101641.856
101639.648
101637.217
101634.787
101632.356
101629.85
101627.172
101624.442
101621.67
101618.876
101616.04
101612.816
101609.545
101606.199
101602.65
101598.776
101594.745
101590.604
101586.397
101582.345
101577.972
101573.419
101568.543
101563.568
101558.528
101553.058
101547.255
101541.236
101535.057
101528.868
101522.508
101515.594
101509.027
101502.51
101495.756
101488.752
101481.672
101474.625
101468.113
101462.533
101455.321
101447.881
101440.712
101433.98
101427.614
101420.828
101414.392
101407.139
101403.336
101394.016
101386.745
101383.348
101381.101
101378.343
101374.446
101370
101365.481
101360.731
101355.074
101349.997
101344.553
101339.731
101334.962
101330.501
101326.286
101322.486
101319.287
101316.732
101314.657
101313.16
101312.267
101312.032
101312.261
101312.604
101313.058
101313.637
101314.587
101315.899
101317.359
101319.066
101321.025
101323.558
101326.746
101330.439
101334.799
101339.795
)
;

boundaryField
{
    closed
    {
        type            zeroGradient;
    }
    open
    {
        type            waveTransmissive;
        gamma           1.25;
        fieldInf        101325;
        lInf            1;
        value           nonuniform List<scalar> 0();
    }
    sides
    {
        type            empty;
    }
    procBoundary2to1
    {
        type            processor;
        value           uniform 101317.922;
    }
    procBoundary2to3
    {
        type            processor;
        value           uniform 101345.831;
    }
}


// ************************************************************************* //
