/*--------------------------------*- C++ -*----------------------------------*\
| =========                 |                                                 |
| \\      /  F ield         | OpenFOAM: The Open Source CFD Toolbox           |
|  \\    /   O peration     | Version:  2306                                  |
|   \\  /    A nd           | Website:  www.openfoam.com                      |
|    \\/     M anipulation  |                                                 |
\*---------------------------------------------------------------------------*/
FoamFile
{
    version     2.0;
    format      ascii;
    arch        "LSB;label=32;scalar=64";
    class       volScalarField;
    location    "0.00076";
    object      prefDh_T;
}
// * * * * * * * * * * * * * * * * * * * * * * * * * * * * * * * * * * * * * //

dimensions      [1 1 -3 -1 0 0 0];

internalField   nonuniform List<scalar> 
531
(
-0.000742951828
-0.000655607017
-0.000565658494
-0.000518559503
-0.000602548962
-0.000741924051
-0.000645494618
-0.000556573271
-0.000510548075
-0.000608709964
-0.000744208911
-0.000591246328
-0.000530749806
-0.000601927223
-0.0007480248
-0.000586001798
-0.000531033799
-0.000604737676
-0.000744747413
-0.000620374559
-0.000534147477
-0.000514131926
-0.000620487602
-0.000741972178
-0.000615478698
-0.000499829961
-0.000469334985
-0.000595676372
-0.000739484771
-0.000752914483
-0.000726005882
-0.000747050978
-0.000702165739
-0.000600119393
-0.000538890152
-0.000560890048
-0.000527949885
-0.00052520784
-0.000608944166
-0.000741083603
-0.000675316758
-0.000539134805
-0.000516500935
-0.000631124118
-0.000742459024
-0.000736326156
-0.000596574368
-0.000499059853
-0.00051130275
-0.000695470304
-0.000743499794
-0.000592158702
-0.000516670298
-0.000599694463
-0.000748176063
-0.000660016692
-0.000573374452
-0.000505988042
-0.000512088267
-0.000595567706
-0.00074691958
-0.000747841077
-0.000746657854
-0.000738127863
-0.000594066906
-0.000535374363
-0.0005169764
-0.00049865544
-0.000593541312
-0.000747096716
-0.000745291013
-0.000588094726
-0.000517417533
-0.00061399519
-0.000737618721
-0.00059744393
-0.00053311205
-0.000593316774
-0.000748821133
-0.000745132017
-0.000599368984
-0.00051350006
-0.000497020471
-0.000596449397
-0.000742678234
-0.000723872414
-0.000527108509
-0.000494738025
-0.000599748808
-0.000739667042
-0.000735733632
-0.000539020106
-0.000505170646
-0.000600898477
-0.000740142409
-0.000738575309
-0.000536025466
-0.000501822037
-0.000599641463
-0.000740339313
-0.000736446858
-0.000533337458
-0.000504042067
-0.000601726057
-0.000740960421
-0.000739350577
-0.000541003264
-0.000511309998
-0.000599803441
-0.000741113468
-0.000731254145
-0.000519584256
-0.000497326637
-0.000602082049
-0.000740812488
-0.000741825331
-0.000605409497
-0.000586379071
-0.000577377371
-0.0005711246
-0.000601105385
-0.000743062137
-0.000738989812
-0.000538012803
-0.00050870028
-0.00062154462
-0.000735564739
-0.000587517227
-0.000542040922
-0.000601814184
-0.000741218926
-0.000671702755
-0.000509609637
-0.00051251274
-0.000667141826
-0.000737065595
-0.000591476064
-0.000533089776
-0.000595638921
-0.000745045202
-0.000744370669
-0.000513946398
-0.000483030192
-0.000627253204
-0.000736950951
-0.000587346257
-0.000538994868
-0.000597362756
-0.000747442674
-0.000745385704
-0.000541865577
-0.000489620272
-0.000590658324
-0.000744651995
-0.000746945347
-0.00054455853
-0.000493102073
-0.000591091823
-0.000744122298
-0.000748092034
-0.000555080082
-0.000506619302
-0.000593746986
-0.000743557838
-0.000746518109
-0.000579479661
-0.000511818269
-0.000543691526
-0.000608740058
-0.000743768646
-0.0007405588
-0.000535816905
-0.000498250813
-0.000621366109
-0.000732164768
-0.000632976175
-0.000501954234
-0.000545071017
-0.00075529017
-0.000738837827
-0.000591008443
-0.000513159053
-0.000596255311
-0.000755973995
-0.000745033814
-0.000585651527
-0.000504004517
-0.000586657292
-0.000748022759
-0.000748730723
-0.000534262967
-0.000506049387
-0.000621625206
-0.000734044038
-0.000615839623
-0.000494758516
-0.000541716678
-0.000754779501
-0.000742277172
-0.000591323628
-0.000561237264
-0.000603757053
-0.000665570939
-0.000696154318
-0.000591064992
-0.000601322123
-0.000591291319
-0.000609110239
-0.000598541176
-0.000588127186
-0.000587970094
-0.000593372002
-0.000594184354
-0.00059137976
-0.000590206534
-0.000590783812
-0.000591601722
-0.000591540074
-0.000591113133
-0.000591055278
-0.000591182647
-0.000591247196
-0.000591218838
-0.000591181445
-0.00059118244
-0.000591196747
-0.000591199037
-0.000591195326
-0.000591193283
-0.000591193966
-0.000591194924
-0.000591194733
-0.00059119388
-0.000591194094
-0.000591196407
-0.00059119643
-0.000591189368
-0.000591188564
-0.000591205528
-0.000591212072
-0.000591174531
-0.000591147905
-0.000591222213
-0.00059131493
-0.000591185844
-0.000590924276
-0.000591094563
-0.000591834547
-0.000591716615
-0.000590044146
-0.000590003247
-0.000593532986
-0.000594553655
-0.000588932382
-0.000587684728
-0.000594108105
-0.000606770312
-0.000592046539
-0.000593660023
-0.000588412638
-0.000646791466
-0.000628306858
-0.000578349375
-0.000570651839
-0.000720902141
-0.000750527927
-0.000599585318
-0.000510662167
-0.000641660666
-0.000736831368
-0.000596580505
-0.000526543044
-0.000581918549
-0.000732604529
-0.000751899899
-0.000594900799
-0.000499492333
-0.000606265871
-0.000735984827
-0.000624577535
-0.000530817185
-0.000526124485
-0.000725097735
-0.00074455686
-0.000589562808
-0.000515694076
-0.000591226536
-0.000735981
-0.00075328462
-0.000590838863
-0.000492748824
-0.000589091329
-0.000730168041
-0.000711144085
-0.000524421999
-0.000502403436
-0.000721021102
-0.000738342358
-0.000594803853
-0.000524522298
-0.000538638337
-0.000728895512
-0.00074587384
-0.000565696538
-0.000509383157
-0.000728628798
-0.000743027166
-0.000597187655
-0.000528188343
-0.000530300655
-0.000739606691
-0.000745651195
-0.000590209737
-0.000520469271
-0.000593696207
-0.000739472302
-0.000755546493
-0.000596552117
-0.000498534878
-0.000624449582
-0.00073960072
-0.000604008628
-0.000554495588
-0.000555939179
-0.000670056294
-0.000750828091
-0.000590337327
-0.00059809849
-0.000588354488
-0.000617593346
-0.000617426606
-0.000587947569
-0.00058701104
-0.000591493165
-0.000598204864
-0.000593576983
-0.000589108296
-0.000589544228
-0.000592126648
-0.000592254269
-0.000591018271
-0.000590796432
-0.000591546316
-0.00059167766
-0.000590305482
-0.000590104357
-0.000593101181
-0.000594291237
-0.000589348705
-0.000587704797
-0.000592915396
-0.000605034535
-0.000593458486
-0.00059078372
-0.000588430566
-0.000637693473
-0.000632937023
-0.000591381659
-0.00057912686
-0.000723539316
-0.000745916744
-0.000594547377
-0.000517095645
-0.000604009811
-0.000735671118
-0.000743386983
-0.000533635961
-0.000511718281
-0.000734730778
-0.0007393439
-0.000593525775
-0.00051210042
-0.000546331583
-0.00073768231
-0.000749619738
-0.000586976504
-0.000519722865
-0.000733697049
-0.000739973702
-0.000595788143
-0.000507675807
-0.000510887029
-0.000730296491
-0.000744872285
-0.000595504235
-0.000522911398
-0.000724770803
-0.000742542865
-0.000599930651
-0.000509142148
-0.000600957804
-0.000730208209
-0.000610425341
-0.000512993809
-0.000510329466
-0.000717215575
-0.000745314989
-0.000600262287
-0.000511860521
-0.000706385312
-0.000745165266
-0.000606365746
-0.000534417957
-0.000707600775
-0.000738854413
-0.000596410242
-0.000502041027
-0.000499566167
-0.000709050655
-0.000746216342
-0.000604685171
-0.000526777969
-0.000695875603
-0.000745927085
-0.00060470446
-0.000537528826
-0.000699303037
-0.00074010227
-0.000596695269
-0.000507571041
-0.000503958003
-0.000702972056
-0.00074562423
-0.000601859509
-0.000540926095
-0.000697744327
-0.000741580379
-0.000601331048
-0.000528787286
-0.000524233675
-0.000696040749
-0.000736554217
-0.000608115765
-0.000508364252
-0.000497579062
-0.000661716706
-0.000741044922
-0.000683362519
-0.000594392006
-0.000489298335
-0.000491182419
-0.000689501891
-0.000742010838
-0.000606174799
-0.000518082987
-0.00066642166
-0.000741615827
-0.00060381737
-0.000521552743
-0.000664904455
-0.000741105472
-0.000601200473
-0.000526385755
-0.00067081477
-0.000736560883
-0.000602023426
-0.000522510381
-0.000515236169
-0.000673072449
-0.000740860884
-0.000601426128
-0.000515821621
-0.000650076352
-0.000740720991
-0.000598398557
-0.000516589105
-0.000646444827
-0.000740258916
-0.000597682959
-0.000514947609
-0.000646809372
-0.000740841221
-0.000596614308
-0.00052375712
-0.000659619402
-0.000739100286
-0.000602006778
-0.000528144251
-0.00052590408
-0.000696442589
-0.000741130826
-0.0006032413
-0.000526773852
-0.000527473269
-0.000715804854
-0.00074133154
-0.000602122178
-0.000512997528
-0.000515665861
-0.000724130784
-0.000728490506
-0.000729134108
-0.000718845062
-0.000604324943
-0.000542019913
-0.000491660599
-0.000494546841
-0.000728749362
-0.000739409419
-0.000592005992
-0.000491642708
-0.00058304847
-0.000734783882
-0.000748587965
-0.000590701093
-0.00050936459
-0.0005880191
-0.000737436308
-0.000748065751
-0.000591727957
-0.000503045997
-0.000587615684
-0.000737326598
-0.000745023147
-0.000595340271
-0.000494358974
-0.000587899792
-0.000740011861
-0.000749104805
-0.000591539628
-0.000492505768
-0.000592427279
-0.000738374185
-0.000745022665
-0.000595903236
-0.000477998783
-0.000492128502
-0.000715196663
-0.000733273435
-0.000730218849
-0.000641465138
)
;

boundaryField
{
    closed
    {
        type            calculated;
        value           nonuniform List<scalar> 0();
    }
    open
    {
        type            calculated;
        value           nonuniform List<scalar> 0();
    }
    sides
    {
        type            empty;
    }
    procBoundary3to2
    {
        type            processor;
        value           uniform -0.000598270606;
    }
    procBoundary3to4
    {
        type            processor;
        value           uniform -0.000568379455;
    }
}


// ************************************************************************* //
