/*--------------------------------*- C++ -*----------------------------------*\
| =========                 |                                                 |
| \\      /  F ield         | OpenFOAM: The Open Source CFD Toolbox           |
|  \\    /   O peration     | Version:  2306                                  |
|   \\  /    A nd           | Website:  www.openfoam.com                      |
|    \\/     M anipulation  |                                                 |
\*---------------------------------------------------------------------------*/
FoamFile
{
    version     2.0;
    format      ascii;
    arch        "LSB;label=32;scalar=64";
    class       surfaceScalarField;
    location    "0.00032";
    object      phi;
}
// * * * * * * * * * * * * * * * * * * * * * * * * * * * * * * * * * * * * * //

dimensions      [1 0 -1 0 0 0 0];

oriented        oriented;

internalField   nonuniform List<scalar> 
530
(
1.05427598e-06
1.11752183e-06
1.13615717e-06
1.13642485e-06
1.1547262e-06
1.22602122e-06
1.24325369e-06
1.23994214e-06
1.25571823e-06
1.33561662e-06
1.36185814e-06
1.35385665e-06
1.36276805e-06
1.471735e-06
1.4082176e-06
1.41202727e-06
1.42632383e-06
1.44634133e-06
1.4309415e-06
1.44387859e-06
1.54053288e-06
1.55090546e-06
1.53037435e-06
1.54656965e-06
1.62487588e-06
1.63532942e-06
1.61097694e-06
1.61206457e-06
1.63164655e-06
1.59431495e-06
1.59911158e-06
1.65298874e-06
1.65823931e-06
1.55736982e-06
1.54808955e-06
1.54456041e-06
1.66544666e-06
1.67079946e-06
1.64898319e-06
1.65639084e-06
1.77360462e-06
1.78216072e-06
1.77291777e-06
1.76564053e-06
1.7686848e-06
1.90743702e-06
1.91504176e-06
1.86545422e-06
1.86269934e-06
1.99634635e-06
2.00403359e-06
1.98822276e-06
1.97204594e-06
1.96720505e-06
2.05421489e-06
1.96491899e-06
2.10683258e-06
2.18222007e-06
2.17206873e-06
2.14979221e-06
2.16988274e-06
2.18284814e-06
2.17785741e-06
2.16659819e-06
2.16432585e-06
2.33208974e-06
2.3301514e-06
2.2610037e-06
2.25547551e-06
2.27734422e-06
2.29189576e-06
2.22870069e-06
2.21211093e-06
2.21367363e-06
2.36315014e-06
2.35597494e-06
2.28958293e-06
2.27494907e-06
2.37068471e-06
2.22978677e-06
2.26480763e-06
2.35737052e-06
2.32379646e-06
2.25661985e-06
2.22800723e-06
2.29299289e-06
2.31132273e-06
2.29664136e-06
2.27039047e-06
2.25851359e-06
2.3977823e-06
2.37147415e-06
2.31053742e-06
2.30666424e-06
2.42904632e-06
2.39785894e-06
2.3289774e-06
2.3169217e-06
2.41678563e-06
2.39264465e-06
2.3564271e-06
2.35043252e-06
2.33463409e-06
2.32941661e-06
2.25218281e-06
2.22622293e-06
2.36053099e-06
2.38539673e-06
2.20388997e-06
2.16546324e-06
2.14604667e-06
2.218098e-06
2.19873296e-06
2.25508374e-06
2.24992048e-06
2.24602642e-06
2.2540544e-06
2.24777713e-06
2.22565002e-06
2.21095855e-06
2.36097596e-06
2.356244e-06
2.26581178e-06
2.25077311e-06
2.33331169e-06
2.35834108e-06
2.20219696e-06
2.18377123e-06
2.17160745e-06
2.30615034e-06
2.28760464e-06
2.22942276e-06
2.2262316e-06
2.23412643e-06
2.23663354e-06
2.09382175e-06
2.08019926e-06
2.07439489e-06
2.2119818e-06
2.20059463e-06
2.14305056e-06
2.14139772e-06
2.1592523e-06
2.17175018e-06
2.0523884e-06
2.0453815e-06
2.04728652e-06
2.18001765e-06
2.17886146e-06
2.13305107e-06
2.13345667e-06
2.1377552e-06
2.14648142e-06
2.01162414e-06
1.99698436e-06
1.98739672e-06
2.11528281e-06
2.10672676e-06
2.05312815e-06
2.04971087e-06
2.05648029e-06
2.0588172e-06
2.02417598e-06
2.01042114e-06
2.00391312e-06
2.13664905e-06
2.13349046e-06
2.07308951e-06
2.069524e-06
2.07858207e-06
2.09059883e-06
1.97125483e-06
1.95270889e-06
1.94090366e-06
2.09335886e-06
2.09548216e-06
2.04920084e-06
2.03296618e-06
2.04581249e-06
2.1728115e-06
2.13837757e-06
2.09588927e-06
2.08237107e-06
2.20696467e-06
2.20401578e-06
2.17632001e-06
2.14940415e-06
2.13594365e-06
2.24668934e-06
2.24103359e-06
2.22672785e-06
2.22239572e-06
2.21337647e-06
2.20926245e-06
2.06530515e-06
2.03322537e-06
2.01509153e-06
2.07465974e-06
2.06069057e-06
2.08175278e-06
2.07915475e-06
2.06904435e-06
2.07517743e-06
2.06941736e-06
2.04970301e-06
2.03557188e-06
2.15535338e-06
2.15052709e-06
2.11319235e-06
2.11075786e-06
2.22231098e-06
2.20646198e-06
2.15609686e-06
2.14832721e-06
2.15987127e-06
2.16269372e-06
2.03030779e-06
2.01255255e-06
2.00196583e-06
2.12931744e-06
2.12861058e-06
2.08277629e-06
2.06865871e-06
2.07934804e-06
2.08370667e-06
2.07211877e-06
2.06013831e-06
2.05154348e-06
2.18237093e-06
2.18423737e-06
2.13463103e-06
2.12972675e-06
2.14041244e-06
2.14447551e-06
2.10014612e-06
2.07854537e-06
2.44559931e-06
2.47685564e-06
2.49351074e-06
2.47590729e-06
2.66392545e-06
2.679396e-06
2.63171793e-06
2.60237304e-06
2.73088437e-06
2.76466954e-06
2.52181233e-06
2.499729e-06
2.51735077e-06
2.66479339e-06
2.62372428e-06
2.56831544e-06
2.55890665e-06
2.69414822e-06
2.69200329e-06
2.63900255e-06
2.6352317e-06
2.77818433e-06
2.77868236e-06
2.73015072e-06
2.72456058e-06
2.74812517e-06
2.75915078e-06
2.75808599e-06
2.73946408e-06
2.73653927e-06
2.91173895e-06
2.92839861e-06
2.8870709e-06
2.88702641e-06
2.91696074e-06
2.92873701e-06
2.9287166e-06
2.90947066e-06
2.90477232e-06
3.08175017e-06
3.0945979e-06
3.04664484e-06
3.03773144e-06
3.05911324e-06
3.06207998e-06
2.89262868e-06
2.86778043e-06
2.8536411e-06
3.0090236e-06
3.01756186e-06
2.9734849e-06
2.96616221e-06
3.10431229e-06
3.10643655e-06
3.05521265e-06
3.04642802e-06
3.06669244e-06
3.07194763e-06
2.90923657e-06
2.88537138e-06
2.86720621e-06
3.01655073e-06
3.02417848e-06
2.98290579e-06
2.97164329e-06
2.98758646e-06
2.9856247e-06
2.82157377e-06
2.80152768e-06
2.78427374e-06
2.92391632e-06
2.93534071e-06
2.8969212e-06
2.88686508e-06
2.90442432e-06
2.90593942e-06
2.76002943e-06
2.74418151e-06
2.72826869e-06
2.86100006e-06
2.87123662e-06
2.83602495e-06
2.82951719e-06
2.84600769e-06
2.85260839e-06
2.71177577e-06
2.69669582e-06
2.6817942e-06
2.80170798e-06
2.81381543e-06
2.78150463e-06
2.77373487e-06
2.79117737e-06
2.79707426e-06
2.77976117e-06
2.75835969e-06
2.99638456e-06
3.01981189e-06
2.9277254e-06
2.87455292e-06
2.85104966e-06
2.93176747e-06
2.92565311e-06
2.85123731e-06
2.83963006e-06
2.87105441e-06
2.88049593e-06
2.87706735e-06
2.85745932e-06
3.29562823e-06
3.32894151e-06
3.2215711e-06
3.12653673e-06
3.10026537e-06
3.21276231e-06
3.20914434e-06
3.17663063e-06
3.17025016e-06
3.25505538e-06
3.24928621e-06
3.21077605e-06
3.202816e-06
3.19559583e-06
3.1920673e-06
3.07801664e-06
3.06254774e-06
3.10972391e-06
3.11448341e-06
3.03242346e-06
3.01295985e-06
3.16237851e-06
3.17847202e-06
3.16690263e-06
3.14311648e-06
3.46207199e-06
3.49707575e-06
3.21281278e-06
3.18698983e-06
3.19180609e-06
3.33139417e-06
3.30315628e-06
3.26877215e-06
3.25681257e-06
3.3353453e-06
3.33633695e-06
3.29679487e-06
3.289385e-06
3.29896338e-06
3.30580394e-06
3.17158554e-06
3.14846762e-06
3.12682069e-06
3.15288332e-06
3.16809765e-06
3.14020943e-06
3.12288047e-06
3.32203717e-06
3.39285389e-06
3.31272518e-06
3.18963984e-06
3.15605588e-06
3.2837634e-06
3.27105072e-06
3.24311619e-06
3.23479477e-06
3.2206323e-06
3.19257154e-06
3.17524798e-06
3.19485696e-06
3.19675904e-06
3.07368259e-06
3.06159544e-06
3.04143763e-06
3.06591236e-06
3.06837304e-06
2.94740618e-06
2.93265987e-06
2.91088655e-06
2.92973154e-06
2.92797224e-06
2.80026393e-06
2.78788968e-06
2.76568329e-06
2.81680446e-06
2.82592255e-06
2.81692124e-06
2.8018602e-06
2.80006617e-06
2.76552398e-06
2.78308649e-06
2.72808666e-06
2.70932561e-06
2.7308638e-06
2.72396388e-06
2.71509803e-06
2.69729495e-06
2.69176278e-06
2.65764069e-06
2.55402487e-06
2.58768841e-06
2.57056448e-06
2.57640321e-06
2.56928816e-06
2.56900184e-06
2.54971518e-06
2.54043504e-06
2.50732651e-06
2.52626636e-06
2.48078992e-06
2.45955459e-06
2.46452828e-06
2.45713845e-06
2.40035643e-06
2.38072137e-06
2.73505947e-06
2.70148455e-06
2.61234249e-06
2.61756421e-06
2.60002863e-06
2.60604206e-06
2.60185228e-06
2.47135282e-06
2.47372235e-06
2.45492993e-06
2.47005803e-06
2.4267938e-06
2.38880884e-06
2.44081882e-06
2.51244076e-06
2.50669075e-06
2.5149545e-06
2.51233489e-06
2.51840128e-06
2.52451775e-06
2.80928375e-06
2.75940976e-06
2.59906933e-06
2.65840947e-06
2.69259333e-06
2.71204365e-06
2.62205125e-06
2.59063956e-06
2.65028292e-06
2.72049953e-06
2.74763298e-06
2.76009142e-06
2.85821053e-06
3.09785018e-06
3.13061072e-06
3.04707639e-06
3.09968716e-06
3.10048199e-06
3.07679969e-06
3.09756529e-06
3.14090784e-06
3.1517244e-06
3.17516621e-06
3.15441491e-06
3.06578559e-06
3.14182616e-06
3.14767812e-06
3.18493187e-06
3.17880219e-06
3.21839912e-06
3.18443029e-06
3.19504387e-06
3.2450702e-06
3.27124957e-06
3.17208533e-06
3.19207029e-06
3.19840224e-06
3.25333212e-06
3.26973863e-06
3.32391964e-06
3.27711381e-06
3.29763878e-06
3.32665474e-06
3.35144168e-06
3.38064618e-06
3.40339274e-06
3.43990339e-06
3.44851374e-06
3.55075973e-06
3.50249892e-06
3.52803334e-06
3.5790263e-06
3.61444653e-06
3.66258238e-06
3.63016994e-06
3.65990227e-06
3.67928223e-06
3.71600137e-06
3.64281509e-06
3.671936e-06
)
;

boundaryField
{
    closed
    {
        type            calculated;
        value           nonuniform List<scalar> 0();
    }
    open
    {
        type            calculated;
        value           nonuniform List<scalar> 0();
    }
    sides
    {
        type            empty;
        value           nonuniform List<scalar> 0();
    }
    procBoundary3to2
    {
        type            processor;
        value           uniform -1.03580211e-06;
    }
    procBoundary3to4
    {
        type            processor;
        value           uniform 3.69052503e-06;
    }
}


// ************************************************************************* //
