/*--------------------------------*- C++ -*----------------------------------*\
| =========                 |                                                 |
| \\      /  F ield         | OpenFOAM: The Open Source CFD Toolbox           |
|  \\    /   O peration     | Version:  2306                                  |
|   \\  /    A nd           | Website:  www.openfoam.com                      |
|    \\/     M anipulation  |                                                 |
\*---------------------------------------------------------------------------*/
FoamFile
{
    version     2.0;
    format      ascii;
    arch        "LSB;label=32;scalar=64";
    class       volScalarField;
    location    "0.00032";
    object      prefDPV_T;
}
// * * * * * * * * * * * * * * * * * * * * * * * * * * * * * * * * * * * * * //

dimensions      [1 -1 -1 -1 0 0 0];

internalField   nonuniform List<scalar> 
531
(
6.08510544e-10
5.89850101e-10
5.8935763e-10
6.09580682e-10
6.08630253e-10
5.8975396e-10
5.89316226e-10
6.09637067e-10
6.08598261e-10
5.89792196e-10
5.8945308e-10
6.09635665e-10
6.08297344e-10
5.89621044e-10
5.90923782e-10
6.09283742e-10
5.91703646e-10
5.89271167e-10
6.09435662e-10
6.08844712e-10
5.8983841e-10
5.89575301e-10
6.09288517e-10
6.08872774e-10
5.90933389e-10
5.89569892e-10
6.01001464e-10
6.09049704e-10
5.95118254e-10
5.91102903e-10
6.01565715e-10
6.00836216e-10
5.90537175e-10
5.90926779e-10
6.08727535e-10
6.08362049e-10
5.89633376e-10
5.89541954e-10
6.09182745e-10
6.08676284e-10
5.90583472e-10
5.8967924e-10
5.92014279e-10
6.09085464e-10
6.08110631e-10
5.89733295e-10
5.89533861e-10
6.09047315e-10
6.08533164e-10
5.90580807e-10
5.89681911e-10
5.92250661e-10
6.09049171e-10
6.07989269e-10
5.90349929e-10
5.90298052e-10
6.07959513e-10
6.02018788e-10
5.94675499e-10
5.97873844e-10
5.96871555e-10
5.90680348e-10
5.91353615e-10
6.08954761e-10
6.08258387e-10
5.89543628e-10
5.8960761e-10
6.09201843e-10
6.08622886e-10
5.92552747e-10
5.89691805e-10
5.90840133e-10
6.09354075e-10
6.08316564e-10
5.89906178e-10
5.89489637e-10
6.09940113e-10
6.08519519e-10
5.90239754e-10
5.90512678e-10
6.10990671e-10
6.00775957e-10
5.89920232e-10
5.96832993e-10
6.09307567e-10
5.9830951e-10
5.89699215e-10
5.91003273e-10
6.09394063e-10
6.08517919e-10
5.89914061e-10
5.89555946e-10
6.09996085e-10
6.08984819e-10
5.89839033e-10
5.89690895e-10
6.10134418e-10
6.08919486e-10
5.89932123e-10
5.89554085e-10
6.10723412e-10
6.09118462e-10
5.91921714e-10
5.89696229e-10
5.97268616e-10
6.09306218e-10
6.02444594e-10
5.8973874e-10
5.90657648e-10
6.09493203e-10
6.08476089e-10
5.89979239e-10
5.89476895e-10
6.11933122e-10
6.08903173e-10
5.93961499e-10
5.89725121e-10
5.91222952e-10
6.09176337e-10
6.08373392e-10
5.90489115e-10
5.89570482e-10
5.99704077e-10
6.09110991e-10
6.00385873e-10
5.89730649e-10
5.90481103e-10
6.09405341e-10
6.08648067e-10
5.89815318e-10
5.8959756e-10
6.09651529e-10
6.08907742e-10
5.92223573e-10
5.89787224e-10
5.90911559e-10
6.09360369e-10
6.08491856e-10
5.898176e-10
5.89663651e-10
6.0940574e-10
6.08763675e-10
5.92250021e-10
5.89778197e-10
5.90971646e-10
6.09413105e-10
6.08504591e-10
5.89787351e-10
5.89453069e-10
6.10006395e-10
6.08924946e-10
5.93157362e-10
5.89728438e-10
5.90955823e-10
6.0937978e-10
6.08483303e-10
5.89779028e-10
5.89505573e-10
6.09580911e-10
6.08870245e-10
5.92275413e-10
5.89805432e-10
5.90998819e-10
6.09400786e-10
6.08427399e-10
5.89680288e-10
5.89418343e-10
6.09687447e-10
6.08751121e-10
5.93790238e-10
5.89772721e-10
5.9081166e-10
6.09005916e-10
6.08336511e-10
5.90605271e-10
5.8965788e-10
5.93312746e-10
6.09049284e-10
6.09164083e-10
5.89805639e-10
5.89653115e-10
6.09580723e-10
6.08793465e-10
5.90849766e-10
5.8973532e-10
5.92477255e-10
6.09414416e-10
6.08323932e-10
5.8984486e-10
5.89347419e-10
6.10969315e-10
6.08983741e-10
5.93839005e-10
5.89825462e-10
5.91051103e-10
6.09628891e-10
6.08571905e-10
5.90306556e-10
5.89490118e-10
6.11290498e-10
6.0899241e-10
5.93085845e-10
5.89696402e-10
5.91206405e-10
6.09415596e-10
6.08339597e-10
5.89993213e-10
5.89397869e-10
6.10046135e-10
6.08817265e-10
5.8979823e-10
5.8964222e-10
6.09606717e-10
6.08828517e-10
5.92006979e-10
5.89695653e-10
5.90844086e-10
6.09352606e-10
6.08243989e-10
5.89868716e-10
5.89582255e-10
6.09474236e-10
6.08608799e-10
5.91290529e-10
5.89636705e-10
5.91212147e-10
6.09378152e-10
6.08249487e-10
5.89804556e-10
5.89427028e-10
6.0965099e-10
6.08837198e-10
5.91702426e-10
5.89635328e-10
5.94647791e-10
6.09389031e-10
6.08591175e-10
5.89818208e-10
5.91930237e-10
6.1004249e-10
6.03473199e-10
5.89793101e-10
5.94512181e-10
6.09532787e-10
6.01342784e-10
5.89725914e-10
5.91106966e-10
6.09550907e-10
6.09509527e-10
5.89871433e-10
5.89659604e-10
6.10331592e-10
6.0878765e-10
5.89960111e-10
5.89465116e-10
6.10331178e-10
6.08751785e-10
5.90019457e-10
5.89561598e-10
6.10016398e-10
6.08752948e-10
5.91240962e-10
5.89690226e-10
5.90973838e-10
6.09466053e-10
6.08100652e-10
5.90231156e-10
5.89564689e-10
6.10082781e-10
6.08627597e-10
5.90998291e-10
5.89639598e-10
5.90868463e-10
6.09487591e-10
6.08093293e-10
5.90300022e-10
5.89588412e-10
6.10228342e-10
6.08663744e-10
5.91287792e-10
5.89646977e-10
5.90772003e-10
6.09672225e-10
6.08148446e-10
5.90326958e-10
5.89479344e-10
6.10786736e-10
6.08693486e-10
5.90180602e-10
5.89394643e-10
6.10530001e-10
6.08875788e-10
5.92322512e-10
5.89706714e-10
5.90679922e-10
6.09696636e-10
6.08158117e-10
5.90432096e-10
5.89562446e-10
6.10447543e-10
6.08689606e-10
5.91774266e-10
5.89722859e-10
5.90751064e-10
6.09714496e-10
6.0822224e-10
5.90324992e-10
5.89376317e-10
6.10583599e-10
6.08814926e-10
5.93265436e-10
5.89748925e-10
5.9056789e-10
6.09833932e-10
6.08302984e-10
5.90284823e-10
5.89419061e-10
6.10691824e-10
6.08829178e-10
5.93615853e-10
5.89702857e-10
5.90532204e-10
6.09767258e-10
6.08338023e-10
5.90466975e-10
5.89388102e-10
6.10626589e-10
6.08855707e-10
5.92689105e-10
5.89675171e-10
5.92810396e-10
6.09692708e-10
6.11121612e-10
5.89915521e-10
5.89805642e-10
6.10736353e-10
6.08933667e-10
5.91145527e-10
5.89614765e-10
6.05222782e-10
6.09303779e-10
5.95917861e-10
5.89817854e-10
5.92989884e-10
6.09793354e-10
6.10464694e-10
5.89934074e-10
5.89887568e-10
6.10528921e-10
6.08807454e-10
5.906625e-10
5.89461541e-10
6.11485415e-10
6.08895767e-10
5.90672785e-10
5.89489981e-10
6.11406258e-10
6.09044087e-10
5.91777941e-10
5.89670684e-10
6.01425469e-10
6.0952248e-10
5.96362365e-10
5.89829988e-10
5.96400569e-10
6.09767687e-10
6.01117478e-10
5.89918683e-10
5.92904347e-10
6.09958824e-10
6.07475537e-10
5.89988019e-10
5.90544351e-10
6.1013266e-10
6.09543189e-10
5.90347463e-10
5.8952507e-10
6.1154625e-10
6.0887954e-10
5.90811986e-10
5.89501217e-10
6.11568714e-10
6.08859552e-10
5.95067276e-10
5.89802507e-10
5.90051844e-10
6.0968474e-10
6.08492351e-10
5.93634321e-10
5.89745179e-10
5.92570973e-10
6.09339231e-10
6.1050313e-10
5.90616388e-10
5.90027177e-10
5.98789775e-10
6.09114324e-10
6.01377221e-10
5.9247561e-10
5.95412363e-10
5.91854031e-10
5.9121958e-10
6.10670464e-10
6.08371394e-10
5.95272014e-10
5.8976561e-10
5.89830484e-10
6.09784493e-10
6.08499008e-10
5.9541131e-10
5.89866354e-10
5.8995287e-10
6.09689902e-10
6.08528897e-10
5.94905487e-10
5.89798588e-10
5.90005161e-10
6.09931781e-10
6.08527767e-10
5.91089653e-10
5.8943499e-10
6.11275527e-10
6.08905394e-10
5.95127673e-10
5.89913651e-10
5.89703133e-10
6.10950196e-10
6.08702219e-10
5.91114043e-10
5.89716649e-10
6.11391226e-10
6.08864084e-10
5.95658475e-10
5.8983838e-10
5.8968321e-10
6.10746542e-10
6.0873151e-10
5.91164075e-10
5.89653058e-10
6.11389057e-10
6.08812795e-10
5.95296111e-10
5.8981978e-10
5.89761184e-10
6.10523982e-10
6.08701703e-10
5.93632623e-10
5.89834581e-10
5.95026214e-10
6.09510148e-10
6.09083777e-10
5.89925347e-10
5.89740644e-10
6.11473699e-10
6.08750633e-10
5.95263616e-10
5.89870588e-10
5.90463563e-10
6.09596358e-10
6.08512341e-10
5.93057182e-10
5.90530747e-10
5.9571607e-10
6.03926189e-10
6.01479129e-10
5.97052049e-10
5.95880538e-10
5.91378889e-10
5.92867328e-10
6.09828588e-10
6.11710099e-10
5.90606445e-10
5.90439946e-10
6.0972697e-10
6.10010752e-10
5.94472388e-10
5.91190509e-10
5.96912239e-10
6.04567253e-10
5.99686842e-10
5.91776615e-10
5.92929133e-10
6.08077098e-10
6.09244141e-10
5.90593799e-10
5.90036995e-10
6.1255717e-10
6.08786981e-10
5.91779758e-10
5.89727682e-10
6.12363744e-10
6.08954952e-10
5.95320698e-10
5.89993683e-10
5.89872207e-10
6.11293856e-10
6.08798688e-10
5.96478537e-10
5.90014417e-10
5.89912817e-10
6.11099945e-10
6.08716614e-10
5.96552925e-10
5.89800736e-10
5.89871684e-10
6.10239867e-10
6.0870751e-10
5.965578e-10
5.89628974e-10
5.89535097e-10
6.11057835e-10
6.08701362e-10
5.92598953e-10
5.90260923e-10
6.11887157e-10
6.09185296e-10
5.95059877e-10
5.88749677e-10
5.88652242e-10
6.12569122e-10
6.0892011e-10
6.09246447e-10
5.91928432e-10
5.89512244e-10
6.09711767e-10
6.09202326e-10
5.91687642e-10
5.89621734e-10
6.07855535e-10
6.09188086e-10
5.91933669e-10
)
;

boundaryField
{
    closed
    {
        type            calculated;
        value           nonuniform List<scalar> 0();
    }
    open
    {
        type            calculated;
        value           nonuniform List<scalar> 0();
    }
    sides
    {
        type            empty;
    }
    procBoundary3to2
    {
        type            processor;
        value           uniform 6.09480916e-10;
    }
    procBoundary3to4
    {
        type            processor;
        value           uniform 5.89609148e-10;
    }
}


// ************************************************************************* //
