/*--------------------------------*- C++ -*----------------------------------*\
| =========                 |                                                 |
| \\      /  F ield         | OpenFOAM: The Open Source CFD Toolbox           |
|  \\    /   O peration     | Version:  2306                                  |
|   \\  /    A nd           | Website:  www.openfoam.com                      |
|    \\/     M anipulation  |                                                 |
\*---------------------------------------------------------------------------*/
FoamFile
{
    version     2.0;
    format      ascii;
    arch        "LSB;label=32;scalar=64";
    class       volScalarField;
    location    "0.00188";
    object      prefDPV_T;
}
// * * * * * * * * * * * * * * * * * * * * * * * * * * * * * * * * * * * * * //

dimensions      [1 -1 -1 -1 0 0 0];

internalField   nonuniform List<scalar> 
530
(
-4.34305329e-11
-3.87762587e-11
-3.9817698e-11
-4.34905093e-11
-4.34743378e-11
-3.92230852e-11
-4.02221544e-11
-4.35280385e-11
-4.35156777e-11
-3.95334826e-11
-4.05247755e-11
-4.35659325e-11
-4.35497843e-11
-3.9873335e-11
-4.05942612e-11
-4.35991738e-11
-4.3577566e-11
-4.02957692e-11
-4.05060574e-11
-4.36203615e-11
-4.36068901e-11
-4.07799257e-11
-4.0422646e-11
-4.3495711e-11
-4.36293705e-11
-4.11619849e-11
-4.04659678e-11
-4.34366041e-11
-4.36471213e-11
-4.14157087e-11
-4.05540961e-11
-4.34004395e-11
-4.36629681e-11
-4.16020373e-11
-4.06598831e-11
-4.33813241e-11
-4.36778786e-11
-4.17516528e-11
-4.07838557e-11
-4.33834493e-11
-4.36930907e-11
-4.18463922e-11
-4.09622157e-11
-4.34136965e-11
-4.34030139e-11
-4.19110885e-11
-4.13966108e-11
-4.34971456e-11
-4.27178625e-11
-4.19767831e-11
-4.24495155e-11
-4.35559441e-11
-4.18823251e-11
-4.20048914e-11
-4.32204057e-11
-4.36334654e-11
-4.14830905e-11
-4.19915285e-11
-4.35249359e-11
-4.36523187e-11
-4.13992406e-11
-4.19335301e-11
-4.36301927e-11
-4.36694174e-11
-4.14201244e-11
-4.18639729e-11
-4.37119451e-11
-4.37098232e-11
-4.14816745e-11
-4.18137174e-11
-4.37051804e-11
-4.37035055e-11
-4.15213515e-11
-4.18019472e-11
-4.36980198e-11
-4.36959903e-11
-4.15337068e-11
-4.18305077e-11
-4.368969e-11
-4.36879738e-11
-4.15165164e-11
-4.18593806e-11
-4.36801811e-11
-4.36797676e-11
-4.15159468e-11
-4.18842866e-11
-4.36694522e-11
-4.36699204e-11
-4.15084156e-11
-4.18958483e-11
-4.36578117e-11
-4.36592307e-11
-4.15224749e-11
-4.18927746e-11
-4.36462676e-11
-4.36473922e-11
-4.15146312e-11
-4.19005109e-11
-4.36352693e-11
-4.36360959e-11
-4.15388947e-11
-4.19021136e-11
-4.3624559e-11
-4.36249974e-11
-4.15616116e-11
-4.19233173e-11
-4.36138845e-11
-4.36142155e-11
-4.15862052e-11
-4.19449275e-11
-4.36030121e-11
-4.36033679e-11
-4.16078907e-11
-4.19614578e-11
-4.35917299e-11
-4.3592283e-11
-4.16318776e-11
-4.19735453e-11
-4.35802525e-11
-4.35808752e-11
-4.16561374e-11
-4.19846173e-11
-4.35681882e-11
-4.35690846e-11
-4.1677447e-11
-4.19996414e-11
-4.35559062e-11
-4.35572857e-11
-4.16916749e-11
-4.20165192e-11
-4.35434941e-11
-4.35453977e-11
-4.17098274e-11
-4.20276612e-11
-4.35309578e-11
-4.35335162e-11
-4.17281448e-11
-4.20404435e-11
-4.35185485e-11
-4.35213423e-11
-4.17396476e-11
-4.20479409e-11
-4.35065454e-11
-4.35093309e-11
-4.17607883e-11
-4.20487632e-11
-4.34949803e-11
-4.34971347e-11
-4.1778464e-11
-4.20513004e-11
-4.34840676e-11
-4.34855675e-11
-4.18091163e-11
-4.20547368e-11
-4.34736286e-11
-4.34737299e-11
-4.18220454e-11
-4.20714263e-11
-4.3463799e-11
-4.34619589e-11
-4.18485851e-11
-4.20473171e-11
-4.34510113e-11
-4.34502386e-11
-4.18501227e-11
-4.20485429e-11
-4.3439629e-11
-4.34394159e-11
-4.18522186e-11
-4.20559942e-11
-4.34295225e-11
-4.34292463e-11
-4.18470131e-11
-4.20627066e-11
-4.34207872e-11
-4.34204034e-11
-4.18714395e-11
-4.20920202e-11
-4.34149096e-11
-4.34129738e-11
-4.18952963e-11
-4.21208485e-11
-4.34083032e-11
-4.34060537e-11
-4.1902958e-11
-4.2147132e-11
-4.34020572e-11
-4.33998211e-11
-4.19239283e-11
-4.21642302e-11
-4.33958826e-11
-4.339354e-11
-4.19454484e-11
-4.21797899e-11
-4.33900915e-11
-4.33876737e-11
-4.19688489e-11
-4.21948654e-11
-4.33849018e-11
-4.33825114e-11
-4.19939365e-11
-4.22115756e-11
-4.33803456e-11
-4.33780212e-11
-4.20183508e-11
-4.22328568e-11
-4.33762297e-11
-4.33743541e-11
-4.20594798e-11
-4.22566094e-11
-4.337187e-11
-4.33705657e-11
-4.20774647e-11
-4.22753347e-11
-4.33672737e-11
-4.33662302e-11
-4.20869626e-11
-4.22736668e-11
-4.33615077e-11
-4.33619296e-11
-4.2088031e-11
-4.22865518e-11
-4.33571404e-11
-4.33582183e-11
-4.20991948e-11
-4.22999713e-11
-4.33530987e-11
-4.3354894e-11
-4.21072242e-11
-4.23233413e-11
-4.33505184e-11
-4.33526186e-11
-4.21251604e-11
-4.2348551e-11
-4.3349079e-11
-4.33510814e-11
-4.21496151e-11
-4.23748621e-11
-4.33482767e-11
-4.33502619e-11
-4.217416e-11
-4.24026217e-11
-4.33477942e-11
-4.3350141e-11
-4.21969902e-11
-4.24309426e-11
-4.33477961e-11
-4.33505704e-11
-4.22160437e-11
-4.24567319e-11
-4.33485818e-11
-4.33516147e-11
-4.22431388e-11
-4.24777486e-11
-4.33498555e-11
-4.3353543e-11
-4.22738933e-11
-4.25068582e-11
-4.33520732e-11
-4.33560745e-11
-4.23015643e-11
-4.25373109e-11
-4.33548136e-11
-4.33595331e-11
-4.23349423e-11
-4.25696417e-11
-4.33579863e-11
-4.33633612e-11
-4.23668318e-11
-4.2605547e-11
-4.33616534e-11
-4.33677647e-11
-4.24004913e-11
-4.26408765e-11
-4.33659741e-11
-4.33724091e-11
-4.24380005e-11
-4.26687763e-11
-4.33710615e-11
-4.33767981e-11
-4.2479089e-11
-4.26887782e-11
-4.33766683e-11
-4.33813732e-11
-4.2524121e-11
-4.27067353e-11
-4.33829705e-11
-4.33860948e-11
-4.2566137e-11
-4.27300822e-11
-4.33895341e-11
-4.33912839e-11
-4.25985888e-11
-4.27610708e-11
-4.33963315e-11
-4.33968424e-11
-4.26225089e-11
-4.27960635e-11
-4.3403892e-11
-4.34026472e-11
-4.26569538e-11
-4.28165904e-11
-4.34101286e-11
-4.34082895e-11
-4.26796611e-11
-4.28358851e-11
-4.34157958e-11
-4.34140181e-11
-4.26951556e-11
-4.28537735e-11
-4.34213855e-11
-4.34199366e-11
-4.27087923e-11
-4.28720104e-11
-4.3427022e-11
-4.34261078e-11
-4.27203952e-11
-4.28892123e-11
-4.34326341e-11
-4.34319228e-11
-4.27300962e-11
-4.29043675e-11
-4.34382931e-11
-4.34377682e-11
-4.27397427e-11
-4.29177155e-11
-4.34441069e-11
-4.34436666e-11
-4.27498498e-11
-4.29289455e-11
-4.3450148e-11
-4.34496324e-11
-4.27617794e-11
-4.29380801e-11
-4.34564772e-11
-4.34556744e-11
-4.27768772e-11
-4.29449922e-11
-4.346314e-11
-4.34618657e-11
-4.27955755e-11
-4.29521071e-11
-4.34700814e-11
-4.34682504e-11
-4.28170882e-11
-4.29628936e-11
-4.34772215e-11
-4.34748262e-11
-4.28402556e-11
-4.29778448e-11
-4.34845158e-11
-4.34816088e-11
-4.28651665e-11
-4.29957955e-11
-4.34918994e-11
-4.34885913e-11
-4.28882556e-11
-4.30181267e-11
-4.34991116e-11
-4.34956979e-11
-4.29085929e-11
-4.3043373e-11
-4.35059666e-11
-4.35029223e-11
-4.29290564e-11
-4.3069161e-11
-4.3512932e-11
-4.35102149e-11
-4.29559704e-11
-4.30934062e-11
-4.35199914e-11
-4.35176084e-11
-4.29903704e-11
-4.31185781e-11
-4.35271516e-11
-4.35250149e-11
-4.30251163e-11
-4.3146354e-11
-4.35343828e-11
-4.3532473e-11
-4.30600163e-11
-4.31748018e-11
-4.35416253e-11
-4.35399396e-11
-4.30949916e-11
-4.32029424e-11
-4.3548906e-11
-4.35473765e-11
-4.31302135e-11
-4.32303864e-11
-4.35561849e-11
-4.35547527e-11
-4.31647743e-11
-4.32569773e-11
-4.35633933e-11
-4.35620481e-11
-4.31979137e-11
-4.32826447e-11
-4.35705038e-11
-4.35692464e-11
-4.32295021e-11
-4.33073996e-11
-4.35775132e-11
-4.35763364e-11
-4.3259495e-11
-4.33312666e-11
-4.35844054e-11
-4.3583318e-11
-4.32880749e-11
-4.33542486e-11
-4.35911723e-11
-4.35901765e-11
-4.33152748e-11
-4.33762494e-11
-4.35978063e-11
-4.35968736e-11
-4.33414452e-11
-4.3396555e-11
-4.36043303e-11
-4.36034188e-11
-4.33679542e-11
-4.34148744e-11
-4.36106984e-11
-4.36098129e-11
-4.33931539e-11
-4.34337429e-11
-4.36168767e-11
-4.3616019e-11
-4.34155837e-11
-4.345255e-11
-4.3622852e-11
-4.36220801e-11
-4.34367767e-11
-4.34706263e-11
-4.36286735e-11
-4.3627987e-11
-4.34570255e-11
-4.34877868e-11
-4.36343405e-11
-4.36337477e-11
-4.34764267e-11
-4.35042476e-11
-4.36398769e-11
-4.36394016e-11
-4.34949434e-11
-4.35201769e-11
-4.36454775e-11
-4.36451918e-11
-4.35176981e-11
-4.35391454e-11
-4.36520049e-11
-4.36518339e-11
-4.35419202e-11
-4.3564166e-11
-4.3621531e-11
-4.36333087e-11
-4.35971016e-11
-4.36118277e-11
-4.36110563e-11
-4.36254868e-11
-4.36161161e-11
-4.36306616e-11
-4.36231307e-11
-4.36379618e-11
-4.36307338e-11
-4.36454409e-11
-4.36391067e-11
-4.36533253e-11
-4.36481642e-11
-4.36616225e-11
-4.36578352e-11
-4.36702566e-11
-4.36680394e-11
-4.36790722e-11
-4.36786531e-11
-4.36878881e-11
-4.36894699e-11
-4.36965392e-11
-4.3699484e-11
-4.37051974e-11
-4.37088376e-11
-4.37135498e-11
-4.37173996e-11
-4.37217299e-11
-4.37249893e-11
-4.37287006e-11
-4.37313707e-11
-4.37343413e-11
-4.3736409e-11
-4.37386121e-11
-4.37401016e-11
-4.37415934e-11
-4.37425816e-11
-4.37435051e-11
-4.37440993e-11
-4.37446483e-11
-4.37447896e-11
-4.37448727e-11
-4.37449193e-11
-4.37449433e-11
-4.37449545e-11
-4.37449591e-11
-4.37449608e-11
-4.37449613e-11
-4.37449614e-11
-4.37449614e-11
-4.37449614e-11
-4.37449614e-11
-4.37449614e-11
-4.37449614e-11
-4.37449614e-11
-4.37449614e-11
-4.37449614e-11
-4.37449614e-11
-4.37449614e-11
-4.37449614e-11
-4.37449614e-11
-4.37449614e-11
-4.37449614e-11
-4.37449614e-11
-4.37449614e-11
-4.37449614e-11
-4.37449614e-11
-4.37449614e-11
-4.37449614e-11
-4.37449614e-11
-4.37449614e-11
-4.37449614e-11
-4.37449614e-11
-4.37449614e-11
)
;

boundaryField
{
    closed
    {
        type            calculated;
        value           nonuniform List<scalar> 0();
    }
    open
    {
        type            calculated;
        value           uniform -4.37449614e-11;
    }
    sides
    {
        type            empty;
    }
    procBoundary5to4
    {
        type            processor;
        value           uniform -4.34465578e-11;
    }
}


// ************************************************************************* //
