/*--------------------------------*- C++ -*----------------------------------*\
| =========                 |                                                 |
| \\      /  F ield         | OpenFOAM: The Open Source CFD Toolbox           |
|  \\    /   O peration     | Version:  2306                                  |
|   \\  /    A nd           | Website:  www.openfoam.com                      |
|    \\/     M anipulation  |                                                 |
\*---------------------------------------------------------------------------*/
FoamFile
{
    version     2.0;
    format      ascii;
    arch        "LSB;label=32;scalar=64";
    class       volScalarField;
    location    "0.00188";
    object      prefDZ_H2O;
}
// * * * * * * * * * * * * * * * * * * * * * * * * * * * * * * * * * * * * * //

dimensions      [1 -1 -1 0 0 0 0];

internalField   nonuniform List<scalar> 
530
(
2.07881762e-06
2.02352762e-06
2.03547568e-06
2.08418946e-06
2.08331585e-06
2.03226144e-06
2.04426041e-06
2.08837175e-06
2.08795928e-06
2.03911321e-06
2.05157905e-06
2.09261687e-06
2.09202948e-06
2.04623322e-06
2.05565648e-06
2.09657091e-06
2.09560858e-06
2.05431853e-06
2.05754656e-06
2.10033937e-06
2.09950258e-06
2.06315556e-06
2.05938581e-06
2.10115325e-06
2.1028418e-06
2.0705899e-06
2.06284681e-06
2.10279915e-06
2.1059608e-06
2.07637093e-06
2.06671423e-06
2.10477652e-06
2.10898193e-06
2.0813042e-06
2.07067905e-06
2.10696863e-06
2.11198181e-06
2.08581656e-06
2.07478974e-06
2.10950203e-06
2.11524664e-06
2.08958599e-06
2.07958321e-06
2.11247211e-06
2.11309245e-06
2.09292177e-06
2.08780881e-06
2.11627156e-06
2.10611942e-06
2.09618843e-06
2.10364294e-06
2.1195845e-06
2.09735209e-06
2.09891169e-06
2.11603556e-06
2.12318126e-06
2.09468005e-06
2.101152e-06
2.1233767e-06
2.12583789e-06
2.09598902e-06
2.10280176e-06
2.12744932e-06
2.12835458e-06
2.09835967e-06
2.10414e-06
2.13115723e-06
2.13123543e-06
2.1012288e-06
2.10549705e-06
2.13310508e-06
2.13311853e-06
2.1037483e-06
2.1073483e-06
2.13502315e-06
2.13500277e-06
2.10586423e-06
2.10972974e-06
2.1368577e-06
2.13689594e-06
2.10753302e-06
2.11207687e-06
2.13863533e-06
2.13878131e-06
2.10942087e-06
2.11434989e-06
2.14035065e-06
2.14058068e-06
2.11116888e-06
2.11641945e-06
2.14201761e-06
2.14231762e-06
2.11321098e-06
2.11825251e-06
2.14377037e-06
2.14400058e-06
2.1149203e-06
2.12022524e-06
2.1455755e-06
2.14577504e-06
2.11720559e-06
2.12211396e-06
2.14741976e-06
2.14759478e-06
2.1194543e-06
2.12434834e-06
2.14928155e-06
2.14945594e-06
2.12172675e-06
2.12658812e-06
2.15114447e-06
2.15132732e-06
2.12394266e-06
2.12874738e-06
2.15298859e-06
2.15318833e-06
2.12618902e-06
2.13083685e-06
2.15483419e-06
2.15503249e-06
2.12844169e-06
2.13291302e-06
2.1566499e-06
2.15686377e-06
2.13065197e-06
2.13504929e-06
2.15845165e-06
2.15870512e-06
2.13276403e-06
2.1372178e-06
2.16024207e-06
2.16052935e-06
2.13493685e-06
2.13930071e-06
2.16201826e-06
2.16234537e-06
2.13709358e-06
2.1414119e-06
2.16379066e-06
2.16413054e-06
2.1391224e-06
2.14342184e-06
2.16558116e-06
2.16591025e-06
2.14129879e-06
2.1453189e-06
2.16739303e-06
2.16767405e-06
2.14342398e-06
2.14725753e-06
2.16922958e-06
2.16946022e-06
2.14575215e-06
2.14919988e-06
2.17109078e-06
2.17123209e-06
2.14781472e-06
2.15135967e-06
2.17297324e-06
2.17297632e-06
2.15009717e-06
2.15290667e-06
2.17465461e-06
2.17472204e-06
2.15201123e-06
2.15483616e-06
2.17639412e-06
2.17651043e-06
2.15393889e-06
2.15686396e-06
2.17823395e-06
2.17832197e-06
2.15578711e-06
2.15889152e-06
2.18017374e-06
2.18024398e-06
2.15816568e-06
2.16131243e-06
2.18229358e-06
2.18226766e-06
2.16054932e-06
2.16376249e-06
2.184349e-06
2.18432238e-06
2.16269821e-06
2.16618131e-06
2.18641064e-06
2.18639454e-06
2.16505548e-06
2.1684773e-06
2.18846559e-06
2.18844564e-06
2.16742534e-06
2.17076061e-06
2.19052394e-06
2.19050035e-06
2.16983133e-06
2.17303975e-06
2.19259957e-06
2.19257203e-06
2.17226162e-06
2.17534404e-06
2.19468532e-06
2.19465574e-06
2.17468277e-06
2.17771743e-06
2.19673397e-06
2.1967507e-06
2.17732464e-06
2.18010183e-06
2.19868505e-06
2.19873657e-06
2.1794613e-06
2.18231912e-06
2.20055498e-06
2.20062167e-06
2.18145772e-06
2.18415401e-06
2.20228624e-06
2.20245603e-06
2.18330675e-06
2.18620504e-06
2.20406033e-06
2.20426526e-06
2.18529371e-06
2.18823879e-06
2.2058014e-06
2.20605009e-06
2.1872029e-06
2.19040008e-06
2.20757325e-06
2.20783967e-06
2.18923642e-06
2.19255995e-06
2.20935971e-06
2.20961578e-06
2.19133852e-06
2.19470995e-06
2.2111254e-06
2.21137843e-06
2.1934138e-06
2.19685396e-06
2.21285229e-06
2.21312578e-06
2.19543435e-06
2.19897738e-06
2.21455543e-06
2.2148495e-06
2.19736832e-06
2.20103329e-06
2.21626977e-06
2.21656235e-06
2.19941287e-06
2.2029895e-06
2.21795815e-06
2.21828423e-06
2.20149398e-06
2.20505435e-06
2.21965074e-06
2.21998943e-06
2.20349547e-06
2.2071045e-06
2.22131733e-06
2.22169562e-06
2.20555449e-06
2.20915194e-06
2.22295744e-06
2.22336967e-06
2.20755782e-06
2.21122218e-06
2.22457359e-06
2.22502513e-06
2.20955751e-06
2.21325129e-06
2.22617804e-06
2.22664334e-06
2.21158481e-06
2.21515194e-06
2.22777745e-06
2.2281934e-06
2.21363603e-06
2.21693824e-06
2.22935688e-06
2.22970559e-06
2.21571715e-06
2.21865292e-06
2.23092968e-06
2.23117942e-06
2.21771739e-06
2.220435e-06
2.23245962e-06
2.23264182e-06
2.2195312e-06
2.22232892e-06
2.23394736e-06
2.23408152e-06
2.22117753e-06
2.22426381e-06
2.23544345e-06
2.23548177e-06
2.22295846e-06
2.22588586e-06
2.23681194e-06
2.23682372e-06
2.22455277e-06
2.22744691e-06
2.23809981e-06
2.23812266e-06
2.22599919e-06
2.22893965e-06
2.23933767e-06
2.23938468e-06
2.22737364e-06
2.23040075e-06
2.24053423e-06
2.2406163e-06
2.2286732e-06
2.23180931e-06
2.24168517e-06
2.24177816e-06
2.22990133e-06
2.23314478e-06
2.24279749e-06
2.24290204e-06
2.23109388e-06
2.2344074e-06
2.24387991e-06
2.2439876e-06
2.2322604e-06
2.23559652e-06
2.24493653e-06
2.24503784e-06
2.23342583e-06
2.23670963e-06
2.24597281e-06
2.24605314e-06
2.23461668e-06
2.23774718e-06
2.24699307e-06
2.24704018e-06
2.23583997e-06
2.23875673e-06
2.24799355e-06
2.24800449e-06
2.23708099e-06
2.23980117e-06
2.24896952e-06
2.24894819e-06
2.23831659e-06
2.24088786e-06
2.24991967e-06
2.24986758e-06
2.23955266e-06
2.24199621e-06
2.25084385e-06
2.25076608e-06
2.24072496e-06
2.24315699e-06
2.25172419e-06
2.25164251e-06
2.24181464e-06
2.24434219e-06
2.25254922e-06
2.2524947e-06
2.24288108e-06
2.2455074e-06
2.25335436e-06
2.25331918e-06
2.24403763e-06
2.2466124e-06
2.25413797e-06
2.25411741e-06
2.24530272e-06
2.24770488e-06
2.25489973e-06
2.25489033e-06
2.24654243e-06
2.24881759e-06
2.25563787e-06
2.2556394e-06
2.24775755e-06
2.24991477e-06
2.25635201e-06
2.25636309e-06
2.24894899e-06
2.25097933e-06
2.25704527e-06
2.25706021e-06
2.25012018e-06
2.25200471e-06
2.25771643e-06
2.25773004e-06
2.25125388e-06
2.25298854e-06
2.25836076e-06
2.25837236e-06
2.2523361e-06
2.25393006e-06
2.25897733e-06
2.25898731e-06
2.25336489e-06
2.25483013e-06
2.25956683e-06
2.25957526e-06
2.25434002e-06
2.25568991e-06
2.26012926e-06
2.26013723e-06
2.25526339e-06
2.25651023e-06
2.2606652e-06
2.26067337e-06
2.25613755e-06
2.25728719e-06
2.26117537e-06
2.26118239e-06
2.2569709e-06
2.25801065e-06
2.26166283e-06
2.26166509e-06
2.25779039e-06
2.25867532e-06
2.26212599e-06
2.26212349e-06
2.25856542e-06
2.2593314e-06
2.26256226e-06
2.26255697e-06
2.25926889e-06
2.25996715e-06
2.26297215e-06
2.26296815e-06
2.25993096e-06
2.26057107e-06
2.26336018e-06
2.26335747e-06
2.26055784e-06
2.26114051e-06
2.26372719e-06
2.26372611e-06
2.26115203e-06
2.26168071e-06
2.26407446e-06
2.26407622e-06
2.2617143e-06
2.26219668e-06
2.26441532e-06
2.26442265e-06
2.26234472e-06
2.2627607e-06
2.26480256e-06
2.26480541e-06
2.26300749e-06
2.26344448e-06
2.26460083e-06
2.26485392e-06
2.2642426e-06
2.26455737e-06
2.26461162e-06
2.26493002e-06
2.26482395e-06
2.26515191e-06
2.26508287e-06
2.26542096e-06
2.26536314e-06
2.26569999e-06
2.265663e-06
2.26599136e-06
2.26597839e-06
2.26629244e-06
2.26630504e-06
2.26659815e-06
2.26663771e-06
2.26690129e-06
2.26696959e-06
2.26719361e-06
2.26729236e-06
2.26746714e-06
2.2675746e-06
2.26771857e-06
2.26782779e-06
2.26794209e-06
2.26804569e-06
2.26814381e-06
2.26822109e-06
2.26829762e-06
2.26835235e-06
2.26840671e-06
2.26844236e-06
2.2684772e-06
2.26849812e-06
2.26851798e-06
2.26852903e-06
2.26853934e-06
2.26854477e-06
2.26855032e-06
2.26854847e-06
2.2685467e-06
2.26854553e-06
2.26854474e-06
2.26854427e-06
2.26854401e-06
2.26854388e-06
2.26854382e-06
2.26854379e-06
2.26854378e-06
2.26854378e-06
2.26854378e-06
2.26854378e-06
2.26854378e-06
2.26854378e-06
2.26854378e-06
2.26854378e-06
2.26854378e-06
2.26854378e-06
2.26854378e-06
2.26854378e-06
2.26854378e-06
2.26854378e-06
2.26854378e-06
2.26854378e-06
2.26854378e-06
2.26854378e-06
2.26854378e-06
2.26854378e-06
2.26854378e-06
2.26854378e-06
2.26854378e-06
2.26854378e-06
2.26854378e-06
)
;

boundaryField
{
    closed
    {
        type            calculated;
        value           nonuniform List<scalar> 0();
    }
    open
    {
        type            calculated;
        value           uniform 2.26854378e-06;
    }
    sides
    {
        type            empty;
    }
    procBoundary5to4
    {
        type            processor;
        value           uniform 2.07948638e-06;
    }
}


// ************************************************************************* //
