/*--------------------------------*- C++ -*----------------------------------*\
| =========                 |                                                 |
| \\      /  F ield         | OpenFOAM: The Open Source CFD Toolbox           |
|  \\    /   O peration     | Version:  2306                                  |
|   \\  /    A nd           | Website:  www.openfoam.com                      |
|    \\/     M anipulation  |                                                 |
\*---------------------------------------------------------------------------*/
FoamFile
{
    version     2.0;
    format      ascii;
    arch        "LSB;label=32;scalar=64";
    class       volScalarField;
    location    "0.00022";
    object      h;
}
// * * * * * * * * * * * * * * * * * * * * * * * * * * * * * * * * * * * * * //

dimensions      [0 2 -2 0 0 0 0];

internalField   nonuniform List<scalar> 
3810
(
-2748.35959
10359.8753
9773.77548
-4017.6543
-3062.41972
10350.0804
9763.32669
-4250.99194
-2959.5997
10239.4371
9872.23005
-5039.30636
-1894.76348
9818.55579
10474.6439
9462.23257
-5135.12276
-5254.46527
-4289.83951
-2665.32624
10430.2645
10439.4794
10011.6774
10206.5765
9592.12993
-6080.77794
-6078.45958
-4052.05804
-4838.60423
-1598.21181
10248.852
10051.4853
-4289.41768
-2731.1367
10242.5086
9969.61061
-4915.66126
-2646.16302
9971.22867
10180.5169
9790.52718
9662.30282
9617.95831
9128.69131
-8736.66729
-8740.34589
-6271.64079
-7051.3893
-3650.44248
9913.967
9709.65656
-5497.6343
-4748.04291
-4881.94976
-1807.65969
10137.4094
10597.0144
9783.12235
-4385.60809
-5510.68034
-2147.73192
10154.9929
10121.714
-4442.26793
-4443.37536
-2126.27142
10306.8694
10187.9771
-4098.34475
-2508.7905
10313.8425
10155.0196
-4479.37561
-4480.19578
-2185.58539
10286.0593
10180.5109
-4229.4911
-2685.42933
10273.932
10143.5428
-4713.83431
-2469.97553
10027.2839
10267.7041
9871.53045
9806.74187
9727.88768
9344.56346
-7939.60494
-7940.3162
-5471.14485
-6298.90551
-3029.97978
10032.991
10030.3696
-5331.34628
-3298.11751
10075.672
10011.5017
-5555.03395
-5559.5961
-2857.43275
10056.1644
10101.8996
-5426.02353
-5707.75594
-1820.04784
9800.94937
10530.4549
9595.51653
-4875.57124
-3766.00535
9844.54447
10237.7349
9487.64863
-5920.65086
-7598.01182
-3132.35414
9686.10006
10109.2327
9633.89684
9614.93542
-7994.27536
-8041.36254
-4552.42709
9756.80101
9712.51733
-6252.39105
-5146.5691
-5688.24466
-1339.69565
9839.37245
10575.2778
9678.3605
-4716.76935
-3566.24692
9924.57673
10255.0758
9682.53586
-5927.29205
-3680.78768
9760.69151
-4722.8848
-4880.00794
-3918.06279
-2540.02628
10345.2211
10447.2067
9917.5366
10143.3771
9502.37461
9884.22632
9164.51194
-7632.72
-7670.74287
-6845.71835
-3626.63726
9689.42166
10017.629
9593.31461
9563.98364
-8452.42365
-8607.57328
-4799.57109
9727.02494
9726.98373
-6313.04603
-5642.50749
-5233.18028
-2664.29651
9947.26014
10417.7367
9731.23154
10119.2009
9575.31498
-6795.19951
-4542.52445
9518.32639
10075.3014
9322.16449
-6865.94727
-6996.12589
-6132.21518
-3346.85245
9833.40919
10025.4503
9612.06937
9486.50504
9440.08605
9118.68656
-9622.44641
-9762.26138
-6789.79051
-5788.74228
-5222.2908
-2966.2318
10092.5333
10420.2725
9796.88713
10175.0116
9570.05681
-6160.61624
-6216.42812
-5007.14575
-2992.21384
10180.5675
10256.8622
-4823.69199
-4901.66224
-2033.90159
10213.7704
10284.8063
10065.5968
9756.93602
9934.29983
9440.4052
-6743.04481
-6808.45194
-5815.06346
-3199.31029
9937.39515
10121.4614
9851.16895
9748.31309
-6918.67665
-6949.19626
-4403.30362
-5187.19213
-1609.62763
10123.3431
10566.6312
9888.53557
10246.316
9752.1774
-6184.63244
-4117.27778
9629.03544
10146.264
9443.61358
-6512.55851
-6627.34247
-5428.18191
-3263.21679
10073.8266
10120.2923
-5474.91325
-5475.21687
-2799.99863
10179.1931
10180.9413
-5055.60284
-3076.30324
10102.6219
10074.8408
-5481.77834
-5481.38134
-2644.19058
10118.2322
10108.7192
-5080.62919
-3020.53982
10094.5671
9977.31641
-5524.91419
-5525.39004
-2670.24004
10106.7041
10093.8645
-5572.23324
-1935.445
9761.34828
10469.6892
9403.07999
-5370.76207
-3452.01837
9662.24596
10231.6616
9156.25012
-6023.82964
-6081.68141
-5533.83964
-1715.49795
9834.71619
10540.9812
9238.08478
-4779.31576
-4777.17294
10215.5232
9352.8514
-5062.37184
-4548.48218
10166.7718
9344.51329
-5237.39262
-5227.90005
-4468.06833
-1880.67907
10168.023
9863.75507
-5385.51146
-385.093462
9734.80605
10574.3247
8993.22369
-4840.77588
-4022.21605
9874.97439
10001.6978
9295.60524
9695.26736
8496.32463
-8959.16093
-8955.15013
-6305.22669
-6068.9368
-4083.58836
-4652.86717
-437.957058
10262.5966
9690.57024
-4418.54992
-4412.92742
-1994.70377
10501.855
9282.43534
-2124.50277
9753.78425
9318.15059
-5384.44842
-4604.26803
-4077.93187
-886.439213
10483.7751
10524.6585
9663.73219
10243.2523
8687.39386
-5818.85631
-4140.64249
9740.30212
9982.36818
8928.15305
-8058.50425
-8477.90851
-2891.88781
9614.45894
9123.12956
-6898.85678
-3955.52286
9792.12608
9038.84286
-6815.48074
-3696.71289
9662.18685
10048.3547
8738.41382
-7804.51121
-7806.19187
-4911.20398
-5486.27794
-550.678333
10050.1209
9974.00568
10055.8403
8995.9707
-5518.38327
-3133.57036
10002.0863
10240.984
9221.07801
10001.4723
8402.79912
-6826.591
-4830.3921
9492.56371
9942.79229
8766.48838
-7815.20432
-7825.6514
-4746.54981
-5521.50709
157.224891
10004.1331
9982.53214
9947.85347
9083.18329
-6517.40973
-6518.72174
-4016.79184
-4437.92123
621.528238
10314.2682
9846.42218
-4081.87639
-1682.33925
10294.0548
10452.9876
9573.16359
10124.8071
8945.25356
-6755.68282
-6755.11576
-4993.34804
-2531.01274
10159.7472
9685.18446
-4854.68915
-3051.70862
10120.0645
9751.36818
-5550.71156
-5555.87545
-2282.4337
10181.0466
10332.2177
9570.43989
9919.5614
9012.93052
-8352.41314
-8358.90873
-6075.45176
-5958.00902
-4239.75545
-4851.8273
-1238.22473
10239.1398
10335.7666
10001.1892
9766.84127
9822.19344
9237.78339
9719.02792
8762.73989
-7910.95234
-7926.6636
-6150.5208
-3071.79484
9864.19557
9854.12209
9828.8692
9094.25277
-6841.07944
-6935.90246
-5579.7163
-2966.69903
9997.00174
9926.64002
-6110.94058
-2327.79908
9620.74955
10285.5374
9298.317
-6900.30395
-6918.76986
-4838.03824
-4080.13354
-3730.3013
2034.82571
10375.6074
10282.0057
10256.7014
9570.98246
-5119.79402
-3796.09924
10008.0471
9891.59096
9879.54251
9211.18054
-7139.06171
-4601.52116
9564.74484
9970.46281
9132.97723
-7667.66923
-7663.85482
-4851.87533
-5649.76729
-1751.18793
10159.7084
9914.73349
-4649.06318
-2578.13012
10195.8229
9813.68208
-5118.78742
-2355.44462
9919.82647
10167.9294
9740.37377
9589.81728
9590.26341
8748.36112
-8723.54097
-8712.59646
-5756.15555
-6421.45315
-2951.1952
10190.3632
10218.7263
9680.26758
9843.40836
9236.28242
9523.8274
8483.21526
-10164.0681
-10153.4198
-6655.63675
-7645.82516
-3015.7575
9770.93163
9373.33681
-6458.73297
-6459.62239
-3059.80716
10001.5794
9339.75706
-5145.60137
-4600.13158
-4120.56575
1557.88985
10256.3918
10404.9595
10029.6209
9830.14014
9832.90541
9142.79227
-7863.13446
-7883.22097
-3053.50819
9797.94499
9387.3104
-5807.02832
-5801.90824
-2278.18963
10272.8599
10410.5824
9630.60376
10140
8853.24992
-6365.4499
-3579.62478
9493.33855
10175.8887
8718.8905
-6483.86564
-4152.27295
9469.19701
10009.1387
8778.04259
-7651.92697
-7666.05236
-4929.86618
-4254.82975
-3573.20601
264.768094
10459.397
9842.70058
-3690.67527
-2017.84362
10309.8898
9832.15566
-4762.73603
-4767.67097
62.5531182
10259.4814
9865.1486
-4414.11258
-4423.38896
682.714553
10381.0226
10564.0177
9703.37101
10273.9515
9006.46974
-5788.19716
-3769.88795
9563.45936
10070.9329
9039.79678
-7477.43307
-7492.94221
-4578.76502
-5306.05027
-65.7185083
10127.5619
9936.08383
-5177.45963
-5181.38678
-1190.38217
10164.5913
9830.40103
-4667.3923
-3135.08677
10204.6778
9604.50539
-4900.76043
-3797.54444
10133.0457
9510.99284
-5486.08885
-3890.99024
9919.42136
9612.21999
-6973.22284
-6994.67065
-2994.9739
9898.50792
9514.70858
-5315.48918
-5286.91506
-3939.29473
-1717.40795
10349.0278
10479.2196
9762.42385
-5358.82419
-5701.94995
-890.748561
10102.406
10044.12
-4888.47397
-2332.80756
10020.1612
10401.5861
9541.77041
-5759.81155
-6488.14077
-1561.0022
10008.7325
10010.805
-5072.20315
-2859.66296
10137.1711
9979.03167
-5105.32034
-5111.51618
246.196815
10208.053
10629.8626
9742.43267
10404.6784
9292.85459
-4948.83568
-4460.48005
9964.05072
9688.50395
9763.11971
9117.205
-8025.36036
-8028.3433
-5271.01967
-4369.3787
-4202.79856
-119.465386
10223.768
10157.8478
-5362.13702
-5367.34684
-1759.51704
10096.3641
10010.8829
-5083.0454
-3612.19663
10132.4906
9732.87335
-5267.20049
-4498.77358
10110.9413
9514.7949
-5485.40281
-5420.56321
-4785.59009
-716.506224
9965.2721
10418.7572
9475.99204
-6414.29839
-7588.65481
-3313.67724
9802.83603
9666.42391
-5845.78279
-5436.48943
-4384.38579
2009.88052
10200.7087
10308.8023
10033.7924
9784.28087
9906.99374
9349.35853
9850.91173
8973.24681
-6970.2677
-5936.12545
9704.76132
9504.87665
9565.47673
8997.81522
-8956.13716
-8952.02607
-6089.91518
-6060.88657
-4337.58455
-5574.80105
-3033.79588
9989.75081
10130.3839
9664.58779
9680.2337
9607.1866
9285.56669
-7796.00913
-8223.9075
-3263.83134
9775.17654
9662.76352
-5660.58251
-5067.19656
-4238.95758
-1062.75162
10241.8592
10121.6156
-5033.11115
-5040.15798
1547.76668
10124.1543
10114.9419
10067.6145
9372.16267
-5646.63059
-5385.43599
10099.5344
9390.95178
-5446.85856
-5443.70144
-4245.51596
530.284805
10153.6645
10259.7102
9955.10164
9604.24993
-7035.46712
-7416.52747
-2710.80951
9884.01207
9879.1709
-5776.7286
-3914.23286
10074.9076
9579.07341
-5222.94037
-5162.41313
-4087.22505
1043.44439
10187.0832
10215.4862
9929.02439
9541.15673
-7284.79335
-8002.05575
-2346.58949
9500.71764
10379.9208
9291.52629
-6048.144
-3986.24194
9445.9344
10078.0818
9028.38218
-7082.95539
-7183.62035
-5361.93317
-2259.49681
9986.19565
9972.1562
9945.15717
9246.92227
-6277.47408
-6007.67689
10010.7444
9349.25063
-5922.3646
-5356.42791
10036.9432
9352.62535
-5769.6176
-5752.4645
-4696.13146
979.616379
9899.77405
10677.431
9442.07211
-4077.29845
-3952.24146
10105.3068
9664.82018
9912.16901
8927.96163
-7111.173
-7134.46101
-5267.44906
-1986.47165
9945.47978
10376.6234
9401.78067
-6373.52149
-6939.98344
-2378.55788
9934.36078
9544.43862
-4959.75779
-4843.67895
-3367.13835
-69.3734888
10497.5472
9924.98373
-3570.20048
-866.87424
10272.061
10061.7506
10127.7217
9106.6419
-5919.77807
-5930.39404
-3768.1125
4423.18483
10036.976
10316.7434
9326.12081
-5793.4742
-5932.19174
193.507381
9972.02526
9348.7948
-6021.48516
-6031.04652
-1280.0313
9958.9256
9123.9158
-5632.13492
-2833.13912
9872.49171
8938.88387
-6964.17478
-6968.56578
-1667.76319
9821.75439
8831.22915
-5913.10797
-3352.98352
9938.97209
8542.05808
-5906.0712
-3845.10597
9873.19965
8406.39997
-6725.45921
-6702.14079
-4203.49544
-3843.84593
3361.50505
10385.0007
10397.2222
9372.60633
10218.9612
7869.72974
-5148.20407
-4216.82862
9979.47793
8448.87883
-6504.12239
-6501.50345
-722.339735
10275.2279
10292.0925
9169.37292
9924.922
7664.20653
-7417.42605
-7425.99081
-4261.63909
-395.471898
10251.4707
10258.4504
9190.13795
9807.43591
7855.7664
-8636.44378
-8633.23156
-1080.08508
9659.26585
8444.11571
-6008.02232
-2947.67154
9933.29914
8392.87878
-5468.06731
-2827.83542
9898.16573
8576.6576
-6643.97761
-6646.92073
-190.970801
9939.15673
8720.16578
-4903.7022
-2309.22773
10114.9446
8680.42223
-4612.80202
-1821.62566
10175.6765
10164.4281
9092.38279
9704.20443
7799.1888
-9289.04969
-9307.99648
-1536.35189
9539.30669
8409.34552
-6590.63748
-3646.15723
9817.92868
8307.52199
-6414.10191
-6404.26483
-3897.37129
115.667323
10360.2338
10357.5748
9088.85013
10050.096
7523.05006
-6143.26413
-5371.88775
9827.9985
8107.33733
-7192.73443
-7185.72516
-4575.24372
-1234.31336
10131.8788
8738.29241
-4877.15185
-2962.68239
10116.0475
8582.00894
-4976.6839
-3256.39603
10055.7266
8570.98263
-5748.93687
-5724.86081
-3701.37129
0.193413603
10280.9482
9007.32357
-4626.52774
-444.691208
9793.73256
10492.3246
8172.20876
-5160.39478
-3423.12445
9604.79475
10019.6882
7879.32167
-7849.31948
-7842.36246
-5275.53003
364.298157
9907.65727
10197.5869
9614.23879
9458.90271
9417.60846
8839.20324
9315.44405
5888.74077
-9248.02309
-9188.52108
-5637.59819
-2392.68795
9979.94564
8633.86972
-5577.25715
-5573.65751
-3652.86874
1192.64743
10215.4669
9723.57325
10099.8606
8176.0849
-5375.94205
-4302.05238
10017.7002
8528.02592
-6035.10262
-6024.20248
-4164.28502
756.665599
10052.0145
9728.182
9831.75629
8296.54032
-7700.49552
-7707.25186
-4643.20797
-4134.83007
-3916.84407
-26.3244106
10244.5799
9121.70447
-4807.72939
-2753.62946
10263.3059
10265.3887
9189.95345
10060.3086
7983.82275
-6054.40877
-5835.50082
10005.8483
8578.33537
-5914.14876
-4511.35438
9942.59019
8832.62372
-6470.24173
-3193.32048
9421.67493
10036.7122
8398.36151
-8435.47389
-8446.17512
-5055.0453
-5192.05484
-403.329826
10421.7854
10436.6546
9723.5865
10031.6735
8992.02406
9835.94188
8195.09531
-7478.23785
-4122.3532
9136.15669
10059.1905
8385.07668
-7214.24131
-7257.49603
-5050.46095
-638.440542
9942.62254
9951.94979
9767.25948
8996.65281
-7949.5414
-7945.90637
-2304.36033
9738.64717
9313.87213
-5934.56428
-3712.93883
10010.8329
9108.26357
-5588.94469
-5576.11713
-3844.15347
-1201.88332
10372.1056
9548.8348
-4003.07298
-2793.11508
10322.5713
9354.8231
-4328.49095
-3306.87878
10262.6774
9238.50026
-4676.21799
-3699.68417
10191.191
9130.824
-5098.13412
-4128.61039
10092.1707
8996.58883
-5725.51241
-4705.16767
9943.78058
8822.65298
-6650.97633
-6648.18338
-5465.19969
-1521.42817
9909.69083
10590.3749
8916.64034
-4251.32877
-3912.04157
10208.3116
9407.63518
-5450.51013
-5457.20657
675.822968
10264.5515
10429.7573
9557.38724
9999.80477
8710.48035
-8008.62533
-8024.51468
-5021.23252
-5973.80388
-1165.01782
9913.23679
9502.38802
-6207.51134
-2651.91599
9831.54265
10001.1992
9690.96322
9305.8031
9641.12878
8499.9758
-8052.81277
-4345.13856
9252.53286
10008.7003
8549.87556
-7700.32588
-7762.22566
-5599.47455
-3110.18819
10060.5386
9303.42698
-5405.57038
-4013.2293
10090.9827
9167.39084
-5524.75122
-5530.56596
-4578.89888
-1729.44585
10085.6842
9642.42235
-5980.90442
-1677.59983
9513.07
10308.1141
8708.58064
-7134.38493
-7178.07319
-5780.69067
-2021.83272
9915.93765
10221.1559
9773.06258
9611.36813
9671.12339
8897.63624
-8190.04241
-8188.56971
-2760.43569
9787.85774
9497.69171
-5631.24972
-5622.35883
-796.647532
10130.5906
9799.81805
-4664.37144
-755.525724
10118.7904
10667.5801
9243.83446
-3962.21281
-2899.53877
10043.1568
9961.35079
9733.66513
9255.03599
9477.05716
8404.08956
-9993.76601
-9985.89276
-6602.03997
-6427.58733
-4685.47775
-3791.54501
-3448.71449
136.896967
10576.2794
10574.9982
10112.6133
10233.2154
9575.98924
9971.23239
8881.65361
-7340.63666
-7339.14618
-4703.7194
-5310.87571
1998.36159
10047.0691
10073.7001
9802.45479
9203.94652
-8130.89599
-8751.18426
-2562.72805
9480.01507
10325.7414
8924.59854
-6189.73255
-6225.45952
-4823.88755
-1796.09504
10039.109
10005.8031
9911.12687
9106.33204
-7073.25488
-7065.70358
-5184.05471
-4327.75218
-4476.89411
-1017.47945
10193.9161
9872.04149
-5195.32031
-5194.35578
-1877.07458
10213.3305
10207.4797
10177.207
9525.48269
-5156.56816
-2741.9479
9941.66742
10150.595
9774.74986
9626.63011
9622.99555
9088.81604
-8747.54711
-9139.06536
-3900.73686
9636.35953
9729.38554
9690.4354
8997.74912
-7218.89977
-7268.66573
-5414.41822
-3475.59111
10149.2787
9752.19104
-4836.44663
-3538.68042
10181.2838
9762.88857
-5077.89262
-3517.28038
10051.3173
9858.8853
-6134.68464
-2563.28563
9605.37092
10316.9838
9309.02331
-6177.78156
-6267.45356
-5082.05592
-2879.63833
10126.5634
10054.6448
-5235.83592
-5234.87962
-1756.75846
10120.9709
10162.3405
-5131.38197
-5138.3729
-589.975994
10138.8282
10584.5985
9753.47491
-4659.3158
-5989.71042
-1941.58042
10220.2234
10223.1328
-4709.44911
-3206.6642
10238.2279
10062.7875
-4575.63541
-3767.45854
10269.5897
10002.6644
-4566.73761
-3988.23763
10258.363
10002.3363
-4765.84941
-4010.21224
10153.4803
10023.659
-5603.81744
-4063.60321
9854.76418
9918.39116
9678.44002
9474.85033
-8283.07229
-8320.26448
-6589.81622
-5856.92844
6266.36825
10142.3162
9862.94194
-5467.52323
-3158.85539
9875.11826
10399.246
9763.64264
-5061.7284
-5335.96668
-4074.3504
-2748.84117
10377.9284
10377.228
-4058.038
-3360.70137
10292.164
10225.199
-4827.56866
-3954.94915
10155.7836
10091.2541
-5201.18304
-5867.85722
-1566.29002
10058.9508
10546.3795
-5810.7292
-2917.20332
9846.56197
10388.785
9768.03272
-5118.28682
-5371.40244
-4039.50371
-2349.294
10441.5036
10637.7121
-4190.91344
-1242.30425
10107.1922
10444.7974
9908.01004
-5917.97606
-6160.11431
-6190.84138
-4863.7154
9949.94391
9949.06518
9914.14691
9652.74823
-6117.17361
-6016.60071
-4515.73073
-2879.70992
10385.2919
10474.8206
-4668.98207
-1656.62247
9977.54896
10396.5882
9736.09607
-6025.17553
-6544.39302
-4685.62971
-4359.67999
-3747.21811
1548.37393
10410.9842
10597.9032
10081.9022
10397.1176
9742.24294
-4784.21184
-6472.47539
-1749.42716
9948.53727
10213.5868
-5758.92785
-5761.86943
-2317.05426
10129.2232
10162.8414
-5356.86019
-3438.33062
10104.479
10047.835
-6160.93289
-2781.80071
9643.25697
10270.2779
9355.78176
-6407.28627
-6676.84347
-5110.98194
-3355.64729
10113.9382
9960.85268
-5445.29045
-3056.42655
10036.6759
10127.2483
10034.6241
9663.66285
10024.658
9197.46653
-6346.7437
-8676.8924
-6386.0708
-6700.11956
-5931.24566
-4764.65174
-5330.93837
-2544.9658
10275.1092
10436.4343
9912.00373
10181.6047
9608.60164
9994.83119
9346.72634
9875.06404
9114.99071
-7303.56967
-7415.64568
-3972.30628
5952.78913
10160.4724
9576.25966
9833.9995
9075.49352
9590.1793
8604.14062
-9376.55327
-9373.74815
-5946.22403
-5664.25104
-3727.11439
-4119.67261
1626.742
10224.3969
9882.23884
-5530.86386
-5530.30477
-615.567436
10164.9463
10399.2565
9526.57805
9934.83472
8897.01826
-8368.70333
-8910.16987
-1756.22529
9586.76364
9463.11554
-6924.83938
-3983.18932
9637.10487
9929.70057
8666.98831
-8836.46967
-8849.23022
-5220.69436
-5681.14659
1560.267
10093.6762
9992.44665
10141.0728
9096.42248
-4573.09581
-2506.49794
9961.75709
10390.0624
9100.52785
-5769.86359
-5766.78564
-3524.13232
-3858.36067
839.365611
10378.9118
9294.5886
-4052.35433
-4056.6727
10533.3222
8420.25352
-2249.24034
8996.55569
8994.50034
-9388.71056
-652.482685
8726.76606
-6334.53991
-7360.16997
856.818559
9846.28763
9063.90102
-5502.64969
-5499.03072
-2832.38026
2703.26787
10248.2513
10361.1486
9003.57916
-6381.08419
-6391.05477
1286.99582
10003.6554
9153.23921
-5240.85451
-5240.02314
-1395.05091
4056.19769
10743.0747
9220.14403
-2898.60969
-5.41667214
10176.552
10663.8582
8692.85854
-3658.62725
-3357.54189
10327.9072
8961.26405
-4316.3713
-1280.67951
9991.1448
10058.9116
9979.81551
9196.79772
-14.0261339
-10045.6799
-9139.43896
-6895.95096
-6713.16362
-4913.31957
-5125.39731
-2815.97095
8188.35443
10335.8435
9629.97596
10022.1337
9568.32707
9786.87082
9321.86371
9633.65366
5254.38425
-7337.28742
-7234.6708
-4359.4484
-4364.7748
2093.59936
10266.2588
10273.8913
9776.90083
9745.1534
4039.34747
-7157.53054
-2429.80464
10048.6792
9410.4381
-2247.84963
-8950.08782
-7535.12256
-5014.72389
-4789.82586
-3429.8103
455.441292
10253.7972
9285.2336
-4834.35741
-1392.46501
10108.1082
10274.3457
10113.6546
9695.78723
10246.1817
8974.25672
-4506.92643
-6672.65432
-5594.69625
-243.897796
9487.98267
10141.0304
8102.68027
-8980.82818
-8977.97848
-5157.54255
-5518.49739
1972.10661
10110.9013
10143.1385
9991.67582
9341.5225
10064.0914
8377.71952
-4624.82302
-2615.53724
9991.84848
10430.7066
9156.69696
-5461.44087
-6309.44366
-4139.35857
-4088.05039
-3536.2828
2286.62591
10277.422
9073.14838
-5310.2672
-2314.38873
9552.94098
10149.7083
8293.41716
-7945.01933
-7981.07188
-4523.90365
-3392.51662
6771.59729
10498.3644
8753.02199
-3787.75186
-2969.56968
10337.0325
9071.93086
-4224.82657
-2703.15605
10274.8757
9219.59818
-4313.14422
-545.287991
10034.1394
9842.45301
9767.36893
8452.40668
-8557.91103
-8558.6293
-6034.39364
-5670.06742
-4196.46661
-4300.46862
1118.03892
10029.8626
9246.23929
-7173.8352
-7183.57622
-2056.87687
9617.13647
9887.62108
9861.62752
8922.30609
-4094.00186
-864.836202
10320.5992
10310.2797
10437.2496
9580.77404
-890.723002
-5951.40324
-5159.31729
1214.5385
10126.6506
9375.95043
-4468.35446
118.505032
10197.7269
10020.6319
10096.9149
8986.45684
-6537.38395
-7722.74246
-5383.18289
-5093.19375
-4849.16001
-3059.37392
6979.6389
10039.8809
10073.7115
9025.77965
-3569.3638
-897.418452
10316.5195
10005.999
10175.8115
8990.3754
-6228.16392
-7343.27172
-4739.67729
-5083.60129
1047.76766
10186.7895
10151.4669
10299.8006
9376.65593
-683.35112
-7506.23743
-6903.82777
-1073.25284
9770.27517
8963.71467
-5739.99981
-5727.75727
-2434.50591
1544.35606
10677.2378
9505.45446
-2687.93516
1732.56422
10564.0985
10574.7844
9804.05878
10483.0412
8954.90777
-3953.13745
-8022.01336
-5562.17835
-5083.19222
-5039.45323
3502.11897
9611.95749
10228.0518
8450.16665
-7246.24257
-7266.30564
-4224.85993
-1174.60632
10125.7732
9180.64868
-5584.64215
-3084.71838
9540.96422
10030.7849
8376.79024
-8388.09731
-8386.37534
-4596.23784
-4377.27766
3868.91899
10099.5066
10188.4655
9090.77018
9879.7032
8093.71611
-7696.16169
-7708.89016
-3714.02744
695.578448
10219.1823
10282.5566
9893.3653
9662.49609
3399.31214
-8172.86922
-8156.95045
-1372.06671
9626.41015
8889.49723
-6196.2967
-6176.60814
-3273.90085
905.52311
10229.8392
10446.5899
9043.37386
-6107.7357
-6127.1338
1466.28306
10267.4365
10274.4373
9881.91732
9709.50725
3126.64541
-7458.40202
-6945.21073
-3872.83629
-1906.84218
10540.5267
8746.36053
-986.140703
9276.33655
9016.69345
-6016.29522
-2476.46487
10189.6894
10194.4992
9057.31508
9844.43071
7633.51678
-7887.55627
-7892.67439
-4250.21637
-178.740553
10108.4352
10162.6154
10004.1332
9335.06157
1120.53202
-9503.6217
-8836.39041
-6525.52878
-6246.24855
-4559.29792
-4708.54405
210.629997
10311.8771
10305.6432
9576.20191
9814.41284
8912.93822
9576.64442
6193.22859
-8181.65319
-3706.69653
9157.97709
9926.87715
7547.57933
-8315.17486
-8310.87016
-4695.6023
-1386.99757
10140.7307
8831.14003
-4728.45591
-1238.58696
9974.06093
9611.54673
9856.14055
7922.01022
-6788.98719
-6799.87385
-4222.21694
-639.447882
10238.3061
10227.5318
9172.33658
9712.57308
7392.67648
-9756.29644
-9773.23129
-5963.14914
-5490.97672
-4556.20757
-889.374984
10339.6737
10347.9627
9723.94513
9933.1379
8962.76323
9744.29558
7481.62873
-7607.17743
-3807.59838
9380.81985
10064.247
7944.13078
-6978.79806
-6955.14787
-4340.67295
31.9114675
10100.5801
9819.2209
9952.10708
8195.86198
-6745.77098
-6756.22295
-5514.99465
-2402.58745
9834.23335
8326.52505
-7161.8419
-7141.03367
-5973.83761
-930.656486
9894.35189
10198.409
9846.97152
9466.65119
9868.92819
8261.62236
-6383.35984
-6396.729
-4164.8586
-3835.83067
4780.54701
10321.5033
10318.6392
9181.47948
-5554.16215
-6108.76662
-701.738292
9863.50723
8655.33655
-6312.7887
-3908.93243
9889.8546
8451.28277
-6158.84629
-6162.49076
-4477.15357
-456.784161
10091.1048
9817.00846
9987.59693
8322.40835
-6104.46259
-3460.93335
9825.41683
10041.3198
8234.78719
-7986.17037
-7988.60968
-5194.84804
-5593.1039
-1218.83017
10441.6579
10433.1803
9689.55424
10104.8156
8757.58009
-7097.40381
-7277.41588
-1537.27749
10024.8413
10262.5707
8789.68617
-7572.98407
-8015.20121
-2057.58021
9798.25291
10279.1875
8374.50218
-6504.73044
-6517.82243
-4638.23823
355.433049
10088.6882
10251.3433
9903.36425
9509.3478
9768.87478
8474.00421
-7635.07355
-7648.97422
-604.452096
9748.03206
9774.36255
9838.39604
8429.48759
-6091.74354
-3362.43735
9774.49359
10082.0163
8795.33092
-7772.85358
-7957.23156
-2290.37412
9713.28166
10094.9177
8416.50001
-8551.27255
-8573.13909
-5602.34721
-5549.1972
-4348.35658
-3463.44962
6669.80532
10144.5114
10030.4608
9513.49701
10096.6175
8639.85028
-5687.30904
-2598.96179
9519.42535
10309.5953
8678.12166
-6246.60408
-6282.87912
-4182.4123
-1470.55687
10330.3927
10335.0444
9445.48646
9902.89617
8575.36911
-8441.13678
-8443.60192
-5312.10403
-4642.43196
-4077.43464
3100.02741
10081.9131
10599.4884
9180.26332
-4031.44289
-4024.49032
10289.5746
9365.01856
-4966.38743
-4959.30736
-3494.68398
-228.309813
10365.6318
9854.85082
-4585.11043
-1961.43124
9818.07371
10449.5017
9059.47331
-5405.11882
-5406.23038
9906.77297
9200.69768
-7556.70667
-7557.07385
-4767.04475
-5509.82756
1226.60651
10039.6293
10624.4518
9471.99008
-4413.36247
-4407.46917
10297.3613
9525.78481
-4659.68301
-4060.48843
10208.4742
9629.19456
-5087.46619
-5088.2466
-3185.89755
-2374.62615
10687.2745
9677.03687
-1623.96324
9856.7168
9858.34297
-6788.28043
-4177.98079
9709.74956
9970.70084
9251.82766
-8064.00307
-8062.43998
-5371.55178
-4591.61306
-4097.30394
1748.55008
10272.099
10222.9129
10143.5861
9672.56987
-5608.3346
-5611.39253
-3296.9218
-2503.78395
10711.8056
10060.355
-1405.61195
10160.2095
10268.1836
10024.3609
9803.02787
-6254.82548
-4730.9946
9847.8453
9849.68767
9660.96207
9604.97697
-8456.94709
-5264.92417
9392.1402
9844.88483
9477.9941
-8366.8076
-4670.95171
9593.84302
-4676.3096
-4824.65335
10029.1981
10264.6814
9735.48351
-4979.18785
-7630.64659
-5480.76461
-6278.07645
-4339.36086
-5147.3754
-926.383239
10161.6494
10548.603
10105.7638
4147.6627
-5913.11251
-4780.74457
-4617.02229
-2660.86815
10261.3329
10658.4286
-4545.34748
-2948.08178
10168.8514
10376.191
10131.3772
10274.9507
-5318.93353
-3991.16401
10046.3085
10685.2229
10025.3616
-106.87732
-5545.09846
-5096.11698
-3438.79308
9974.4323
10490.3588
-5952.69331
-4337.2098
9783.72008
10146.8819
9774.62775
-6061.55823
-8135.15371
-3855.23114
9557.71409
10502.425
-7057.98259
-4333.82055
9536.74408
10067.8154
9584.5493
-6771.19029
-7847.05945
-4988.71705
-4618.55884
-3566.04238
-225.555093
10441.0698
10798.4483
-3382.90225
-2583.381
10038.2525
10478.8501
9886.71329
10219.6549
9845.07768
-5513.41394
-8154.62609
-3268.22233
9288.63235
10399.1905
9409.98011
10085.1144
9602.65373
-6878.07354
-7015.68386
9348.82962
9757.27831
9486.46016
-7085.08388
-8512.22475
-4980.23825
-6179.72635
-1935.33167
9661.79253
10564.4984
9718.17762
10251.4256
9780.45008
-5562.54978
-6275.36208
-5692.53521
-3188.03662
9751.14953
10485.9997
9893.08183
-4381.8578
-5815.87257
9792.37303
10042.558
-5070.41477
-5163.94797
-5165.9124
-585.52471
9919.89934
10606.7212
10108.1885
-4413.67915
-4430.67957
9670.72154
10118.5551
9705.59132
-6144.06285
-7227.39155
-5226.92308
-4358.3437
-4169.85345
580.549043
10250.9484
10501.319
10301.1282
10296.8823
-4428.73363
-4398.63364
9942.4165
10030.3227
9893.53393
9833.98925
-6710.81513
-7128.1722
-5850.4777
-4573.18049
-5573.84009
-1642.68483
9873.27152
10685.5101
10009.6477
-3765.57244
-4502.86121
10244.2664
10308.4791
-4659.99786
-3495.94416
9976.7197
10096.0566
9789.83524
9755.66884
-7794.85051
-8281.02622
-5105.70192
9714.97423
9805.13027
-6696.1099
-5857.10996
-5886.2515
-2750.16249
9924.31953
10582.8547
9743.01012
-3869.64173
-3668.01441
10252.4352
10064.1823
10098.2663
9626.45959
-6317.3526
-6940.7551
-3869.97978
9819.26724
9430.63534
-6565.64433
-6602.23664
-5707.6226
-4805.87837
-5103.68213
-2413.89828
10209.1273
10362.4876
10089.8085
9999.93531
9977.24905
9542.83876
9901.82283
8735.14903
-6817.19491
-6808.14672
-6152.43761
-2886.85066
9918.40538
10173.2175
9897.8516
9700.64905
9870.04555
8731.75054
-6847.85463
-6842.73802
-4806.0627
-5763.98889
-1469.35885
10098.4403
10343.9464
9981.36091
9722.1424
9888.33221
8456.8083
-6965.46523
-6950.74267
-5567.81729
-5234.03725
-4581.8624
-3687.58067
-3947.17825
136.908546
10265.6765
9164.91989
-5214.25322
-5195.43181
-1671.84825
10317.42
10342.4412
9606.49705
10074.2775
8237.97583
-6882.29442
-6853.55077
-6092.8509
-2746.50404
10076.7402
10114.6662
9708.42199
9877.94549
9252.05717
9753.042
7764.15886
-8158.09201
-8152.99117
-6776.39243
-3641.2957
9831.76334
8380.54402
-6756.9478
-6763.25207
-4943.05678
-5623.97453
-1437.38979
10428.7367
10421.0648
10041.3697
10192.0047
9561.98145
10065.8187
8454.43949
-6666.47302
-6654.73276
-4845.15451
-5823.68195
-656.200491
9957.01923
9939.76866
9921.81313
8613.3503
-6938.24622
-6918.52661
-5361.26811
-6191.21157
-2236.06547
10311.7858
10303.6038
9590.44838
10078.3917
8679.66065
-6731.08168
-7329.22695
-2519.61245
10152.8026
10241.4751
8895.12115
-6845.69611
-7824.48145
-2102.50393
9929.31237
10104.3199
9810.62516
9493.24137
9797.53222
8723.41252
-7462.59454
-7989.49693
-3070.79847
9785.93451
8880.19182
-5842.37265
-3267.68317
9940.99207
9798.75955
9862.53179
8950.38623
-7676.04468
-7853.81684
-6065.42493
-7042.63476
-3342.93582
10216.7802
10234.5425
9627.97656
10107.9212
8784.69681
-5855.38311
-5851.18597
-4783.54158
-1879.9978
10184.7564
10176.946
10192.4339
9490.34019
-5489.02933
-5479.11513
-3920.39775
-4937.84423
-1956.94695
10101.8059
9517.07952
-5313.01394
-2468.29112
9724.15249
10394.3021
8825.42003
-5523.00067
-4072.91075
9641.3038
10053.4537
9050.41515
-7685.29187
-8178.94341
-6024.28091
-7195.79005
-3548.14165
10070.651
10231.4297
9502.26837
10084.7896
8825.72566
-6198.24972
-4496.67857
9598.7805
10051.2105
9095.95274
-7186.02949
-8369.6335
-3992.51722
9749.65772
9350.22727
-6256.41179
-4644.80365
9970.83805
9593.72607
-6406.85463
-6893.2358
-3212.81088
9868.38906
9860.34349
9879.28659
9062.66185
-6607.02866
-5943.36895
9879.3437
9121.57493
-7016.93332
-6134.2138
9767.5448
9162.20986
-7744.36215
-5442.33929
9570.68542
9970.61787
9333.88447
9913.84365
8965.36563
-6647.5219
-5508.28209
9849.36297
9831.80323
9770.86022
9532.79847
9704.77012
9143.79747
-8026.37672
-8024.08152
-6179.17476
-6402.2006
-4710.47581
-5724.06236
-3109.12031
9999.76081
9700.47202
-5990.62135
-5629.34992
-5994.58578
-3708.7797
9938.02237
9933.94532
9844.91703
9375.30828
-7137.35644
-5860.7233
9890.03349
9829.43384
9936.86365
9618.81647
-6139.59539
-3818.93979
9818.64125
10400.9163
9641.48601
-4332.72773
-4528.76812
10358.3716
9976.69089
-4251.71468
-3489.81867
10265.8239
10252.3637
-4995.02369
-2249.81433
9917.6876
-4076.65006
-4299.24389
10109.2505
9920.01251
-6583.01437
-6586.69795
-4897.0347
-5786.63386
-2902.83026
10077.4509
10350.8252
10134.3002
10027.9362
-5121.75696
-5914.65592
-3567.00837
9976.72539
9963.4934
-6246.37127
-6077.47994
-5716.36783
-4551.01895
-5185.22675
-2719.23408
10076.978
10556.8371
9950.74628
10394.4264
9846.2385
10238.6988
9769.56192