/*--------------------------------*- C++ -*----------------------------------*\
| =========                 |                                                 |
| \\      /  F ield         | OpenFOAM: The Open Source CFD Toolbox           |
|  \\    /   O peration     | Version:  2306                                  |
|   \\  /    A nd           | Website:  www.openfoam.com                      |
|    \\/     M anipulation  |                                                 |
\*---------------------------------------------------------------------------*/
FoamFile
{
    version     2.0;
    format      ascii;
    arch        "LSB;label=32;scalar=64";
    class       volScalarField;
    location    "0.00022";
    object      H;
}
// * * * * * * * * * * * * * * * * * * * * * * * * * * * * * * * * * * * * * //

dimensions      [0 0 0 0 0 0 0];

internalField   nonuniform List<scalar> 
3810
(
3.72056328e-08
1.27287419e-09
1.11669648e-09
4.1753886e-08
3.8375838e-08
1.27938335e-09
1.1089229e-09
4.25466739e-08
3.80219201e-08
1.25466892e-09
1.1390042e-09
4.53598045e-08
3.44600981e-08
1.14657577e-09
1.29732772e-09
1.04813528e-09
4.57439079e-08
4.60827535e-08
4.27658357e-08
3.67858204e-08
1.30109068e-09
1.31193502e-09
1.18002005e-09
1.24472385e-09
1.05587898e-09
4.89852144e-08
4.92654668e-08
4.17565598e-08
4.49185723e-08
3.36640656e-08
1.2181583e-09
1.20360893e-09
4.28802546e-08
3.71432828e-08
1.2301937e-09
1.16767113e-09
4.50142381e-08
3.68805722e-08
1.17876675e-09
1.2075709e-09
1.12662501e-09
1.05904606e-09
1.07681471e-09
9.00896347e-10
5.84349463e-08
5.86885792e-08
4.96928378e-08
5.27465434e-08
4.03560252e-08
1.13439619e-09
1.09680447e-09
4.71286072e-08
4.43714348e-08
4.49985474e-08
3.42455297e-08
1.20678995e-09
1.32585446e-09
1.10623222e-09
4.30512702e-08
4.72591751e-08
3.50904067e-08
1.21516471e-09
1.18737675e-09
4.32290057e-08
4.34937526e-08
3.50181365e-08
1.24415034e-09
1.21993619e-09
4.20973212e-08
3.64690681e-08
1.27534153e-09
1.18432026e-09
4.32417116e-08
4.36917379e-08
3.51128246e-08
1.22505932e-09
1.24304332e-09
4.26834514e-08
3.69098447e-08
1.23539141e-09
1.21862149e-09
4.43166843e-08
3.62101611e-08
1.19291585e-09
1.24132347e-09
1.14916744e-09
1.11174969e-09
1.10882719e-09
9.72702702e-10
5.56002599e-08
5.58229963e-08
4.68439969e-08
5.00616174e-08
3.81437109e-08
1.16783005e-09
1.18466054e-09
4.65078948e-08
3.91915646e-08
1.20159659e-09
1.16398347e-09
4.71693131e-08
4.73736532e-08
3.75861132e-08
1.19395881e-09
1.19057832e-09
4.67082117e-08
4.79117951e-08
3.42606405e-08
1.12596672e-09
1.30532613e-09
1.07120739e-09
4.48712793e-08
4.0843791e-08
1.13278864e-09
1.23186031e-09
1.02867138e-09
4.84937054e-08
5.4631596e-08
3.85907899e-08
1.09088064e-09
1.18990043e-09
1.07716343e-09
1.05059282e-09
5.58299494e-08
5.61674174e-08
4.36096669e-08
1.09628831e-09
1.09670734e-09
4.98183391e-08
4.57741488e-08
4.78918719e-08
3.30849661e-08
1.12347717e-09
1.30989213e-09
1.08300477e-09
4.43151418e-08
4.02420525e-08
1.16036375e-09
1.21844869e-09
1.09017128e-09
4.8627218e-08
4.06604638e-08
1.12320287e-09
4.44549416e-08
4.48717386e-08
4.16685788e-08
3.65573905e-08
1.24202349e-09
1.2744248e-09
1.1326048e-09
1.19590593e-09
1.02607018e-09
1.12068484e-09
9.35667811e-10
5.47395324e-08
5.48173857e-08
5.20514576e-08
4.04946251e-08
1.0705694e-09
1.14547505e-09
1.04382584e-09
1.02070243e-09
5.75645791e-08
5.82696752e-08
4.46126783e-08
1.07050992e-09
1.08923581e-09
5.01620903e-08
4.76434762e-08
4.64319106e-08
3.7074725e-08
1.12433214e-09
1.24622285e-09
1.07945858e-09
1.16323478e-09
1.04816822e-09
5.18506534e-08
4.37776956e-08
1.02961822e-09
1.14435971e-09
9.79653689e-10
5.21692876e-08
5.25093874e-08
4.96523683e-08
3.96130973e-08
1.09157296e-09
1.13789286e-09
1.02834743e-09
1.00993095e-09
9.75589617e-10
9.16200175e-10
6.19127884e-08
6.2206897e-08
5.19816785e-08
4.81971039e-08
4.64663014e-08
3.81893322e-08
1.15292156e-09
1.24703618e-09
1.09526584e-09
1.18358966e-09
1.05281675e-09
4.95655148e-08
4.97034963e-08
4.55422891e-08
3.82657625e-08
1.20082904e-09
1.21777368e-09
4.47115943e-08
4.51767705e-08
3.48587822e-08
1.20492432e-09
1.23096071e-09
1.16425838e-09
1.10800518e-09
1.12460935e-09
1.03410772e-09
5.16251017e-08
5.17583093e-08
4.84060977e-08
3.8997679e-08
1.14369069e-09
1.1885504e-09
1.11891466e-09
1.1007521e-09
5.21072534e-08
5.23634887e-08
4.31797364e-08
4.62179347e-08
3.37895724e-08
1.18145705e-09
1.30416281e-09
1.14096576e-09
1.21746846e-09
1.12217633e-09
4.95690304e-08
4.21553036e-08
1.08376595e-09
1.18549716e-09
1.03519971e-09
5.07686951e-08
5.10742758e-08
4.69791635e-08
3.91643156e-08
1.1855011e-09
1.18220126e-09
4.69264984e-08
4.71441588e-08
3.73956298e-08
1.21091662e-09
1.22637856e-09
4.55294387e-08
3.84187754e-08
1.2096557e-09
1.17868792e-09
4.6885009e-08
4.71402912e-08
3.67814287e-08
1.1968439e-09
1.20570398e-09
4.55860628e-08
3.82234897e-08
1.21649166e-09
1.14694022e-09
4.6977085e-08
4.73237883e-08
3.67976903e-08
1.18375384e-09
1.20992734e-09
4.73953703e-08
3.45228813e-08
1.11569266e-09
1.30108306e-09
1.00848261e-09
4.65667614e-08
3.97205249e-08
1.09350792e-09
1.22443384e-09
9.4385359e-10
4.89741027e-08
4.90664328e-08
4.73294088e-08
3.39900448e-08
1.12169084e-09
1.31281969e-09
9.39536236e-10
4.44806092e-08
4.45644583e-08
1.22629641e-09
9.6585375e-10
4.55169895e-08
4.37657468e-08
1.2089574e-09
9.62511857e-10
4.61858523e-08
4.61865248e-08
4.35634892e-08
3.44469403e-08
1.19998792e-09
1.10810235e-09
4.67655015e-08
3.06516026e-08
1.08711575e-09
1.30788607e-09
8.67482532e-10
4.47958946e-08
4.18309e-08
1.11828224e-09
1.1610844e-09
9.27434967e-10
1.07532028e-09
6.77469948e-10
5.93428513e-08
5.95825484e-08
4.99450217e-08
4.93157158e-08
4.20350365e-08
4.42852995e-08
3.07958582e-08
1.21698861e-09
1.05811707e-09
4.33229558e-08
4.33829186e-08
3.47836155e-08
1.31341209e-09
9.14592719e-10
3.49923212e-08
1.0496123e-09
9.61252225e-10
4.6863008e-08
4.39753783e-08
4.22169414e-08
3.1947702e-08
1.27892756e-09
1.30259114e-09
1.03591048e-09
1.21652986e-09
7.60449974e-10
4.83320352e-08
4.23738028e-08
1.06638449e-09
1.13573677e-09
8.20423809e-10
5.62345398e-08
5.80076551e-08
3.78422794e-08
1.02628871e-09
8.94132146e-10
5.22708927e-08
4.17425901e-08
1.08095687e-09
8.70080961e-10
5.19661957e-08
4.07571683e-08
1.04001546e-09
1.1598169e-09
7.80568508e-10
5.52926346e-08
5.55840572e-08
4.49978734e-08
4.73674324e-08
3.11053294e-08
1.14465861e-09
1.12958765e-09
1.14363141e-09
8.67831237e-10
4.73498519e-08
3.88169956e-08
1.13740741e-09
1.20906568e-09
9.05030586e-10
1.14066098e-09
6.8402729e-10
5.19724886e-08
4.49149778e-08
9.81698755e-10
1.10958846e-09
7.92326059e-10
5.54371271e-08
5.56570257e-08
4.45055894e-08
4.74750044e-08
2.9311448e-08
1.13783636e-09
1.12561612e-09
1.12740579e-09
8.86470222e-10
5.0758514e-08
5.10419262e-08
4.18163667e-08
4.36050392e-08
2.79018971e-08
1.22052479e-09
1.15097458e-09
4.21912431e-08
3.39627195e-08
1.23433746e-09
1.28494053e-09
1.03863612e-09
1.19252234e-09
8.81252871e-10
5.15877786e-08
5.16526579e-08
4.53878865e-08
3.6561725e-08
1.21552118e-09
1.0889793e-09
4.47513301e-08
3.84811222e-08
1.22155367e-09
1.08055399e-09
4.71147719e-08
4.76329548e-08
3.54861227e-08
1.16853572e-09
1.26493633e-09
1.00966029e-09
1.14373442e-09
8.65568019e-10
5.72081331e-08
5.74856686e-08
4.91556204e-08
4.89972989e-08
4.26136668e-08
4.50515459e-08
3.28667861e-08
1.21217284e-09
1.23233066e-09
1.14917018e-09
1.07082351e-09
1.09467567e-09
9.21452243e-10
1.05166328e-09
7.89390489e-10
5.58750964e-08
5.59008192e-08
4.9740752e-08
3.86168806e-08
1.09194301e-09
1.09305779e-09
1.07587906e-09
8.90434559e-10
5.20973923e-08
5.2293037e-08
4.77275113e-08
3.80946024e-08
1.12140633e-09
1.13419591e-09
4.95227822e-08
3.57814165e-08
1.0469115e-09
1.22354613e-09
9.51620401e-10
5.21492064e-08
5.22202508e-08
4.48817779e-08
4.21130498e-08
4.09610828e-08
2.39389194e-08
1.23496776e-09
1.22970123e-09
1.20128055e-09
1.03039127e-09
4.5909417e-08
4.10517793e-08
1.14712871e-09
1.11513245e-09
1.1021796e-09
9.15103709e-10
5.30940778e-08
4.38853793e-08
1.01655087e-09
1.14109619e-09
8.68379516e-10
5.4812173e-08
5.50390352e-08
4.47883863e-08
4.79486601e-08
3.4130851e-08
1.1671613e-09
1.10935619e-09
4.42929276e-08
3.67382727e-08
1.19208145e-09
1.07389716e-09
4.58743374e-08
3.59200908e-08
1.14303196e-09
1.19075854e-09
1.09151386e-09
1.00688569e-09
1.04677814e-09
7.30898169e-10
5.85137983e-08
5.87985988e-08
4.80192424e-08
5.06721134e-08
3.80051301e-08
1.20045666e-09
1.21244946e-09
1.04321552e-09
1.11295233e-09
8.90723742e-10
1.02386753e-09
6.37881903e-10
6.36210755e-08
6.3844929e-08
5.12318058e-08
5.4963317e-08
3.83158276e-08
1.08475554e-09
9.29391389e-10
5.05150923e-08
5.07726966e-08
3.84032751e-08
1.1539363e-09
9.41093901e-10
4.58336333e-08
4.40427267e-08
4.22212262e-08
2.53543974e-08
1.22455442e-09
1.25933598e-09
1.16718022e-09
1.09237508e-09
1.10811316e-09
8.87241724e-10
5.55333042e-08
5.57361489e-08
3.84559806e-08
1.10856978e-09
9.45733109e-10
4.8126884e-08
4.84501195e-08
3.55224535e-08
1.23309304e-09
1.27705323e-09
1.03878402e-09
1.19253082e-09
8.16150351e-10
5.02481948e-08
4.02866417e-08
1.01506203e-09
1.19651807e-09
7.91159712e-10
5.06712536e-08
4.22981298e-08
1.00724541e-09
1.15438487e-09
8.07564681e-10
5.47851578e-08
5.48430523e-08
4.51748872e-08
4.26501847e-08
4.03664209e-08
2.88910227e-08
1.27588791e-09
1.12822895e-09
4.06871749e-08
3.48123177e-08
1.26508923e-09
1.11503816e-09
4.43510917e-08
4.46235966e-08
2.93896166e-08
1.23170751e-09
1.14110252e-09
4.31725781e-08
4.33745832e-08
2.77138713e-08
1.24720237e-09
1.32398184e-09
1.06897147e-09
1.23486802e-09
8.9655948e-10
4.81834776e-08
4.09371848e-08
1.03577732e-09
1.17376395e-09
9.0146842e-10
5.41032456e-08
5.42944403e-08
4.37873157e-08
4.65493864e-08
2.97886522e-08
1.19397032e-09
1.1577545e-09
4.59078902e-08
4.61179245e-08
3.26870242e-08
1.1990854e-09
1.14369704e-09
4.41807317e-08
3.8677246e-08
1.22870497e-09
1.06726547e-09
4.49046056e-08
4.1110405e-08
1.21923203e-09
1.03267695e-09
4.69388717e-08
4.14743964e-08
1.17193071e-09
1.04583794e-09
5.21422723e-08
5.25912671e-08
3.80001459e-08
1.13285589e-09
1.06763668e-09
4.64594367e-08
4.62756065e-08
4.16336582e-08
3.40209112e-08
1.2626158e-09
1.30392975e-09
1.11118883e-09
4.64201639e-08
4.7921749e-08
3.18428471e-08
1.18494235e-09
1.22385278e-09
4.49953881e-08
3.56613794e-08
1.18205168e-09
1.28763041e-09
1.05621316e-09
4.78320358e-08
5.06720441e-08
3.35674447e-08
1.17890914e-09
1.20861859e-09
4.55236736e-08
3.75611422e-08
1.23452875e-09
1.17334184e-09
4.54626035e-08
4.58376353e-08
2.87871495e-08
1.19677455e-09
1.36298109e-09
1.07861258e-09
1.29343395e-09
9.6752011e-10
4.50159039e-08
4.35351214e-08
1.17630403e-09
1.05750004e-09
1.10835492e-09
9.07654308e-10
5.6024262e-08
5.6144348e-08
4.63399966e-08
4.31374847e-08
4.25662998e-08
2.99732672e-08
1.22887349e-09
1.20356446e-09
4.64825826e-08
4.67442139e-08
3.40857211e-08
1.18523701e-09
1.19610414e-09
4.56808923e-08
4.02421487e-08
1.19831586e-09
1.10823166e-09
4.6291599e-08
4.34873921e-08
1.19183517e-09
1.0363773e-09
4.70703708e-08
4.68278543e-08
4.46941765e-08
3.15232698e-08
1.14776048e-09
1.27286616e-09
1.01378045e-09
5.02511212e-08
5.46237573e-08
3.92234729e-08
1.11787667e-09
1.08057313e-09
4.8274761e-08
4.68508935e-08
4.31312268e-08
2.39636431e-08
1.21641849e-09
1.24010042e-09
1.17542774e-09
1.09811607e-09
1.13996795e-09
9.74608541e-10
1.11379569e-09
8.58932971e-10
5.23628124e-08
4.88327762e-08
1.07069784e-09
9.7880242e-10
1.02235866e-09
8.25449027e-10
5.94786272e-08
5.97432952e-08
4.93974418e-08
4.96252427e-08
4.31818353e-08
4.78973526e-08
3.85020834e-08
1.12430377e-09
1.15794937e-09
1.03198169e-09
1.03786696e-09
1.00295244e-09
9.24637167e-10
5.5468876e-08
5.70208138e-08
3.92526672e-08
1.08443693e-09
1.06072394e-09
4.7774412e-08
4.55398979e-08
4.27788151e-08
3.23682832e-08
1.22254841e-09
1.20258572e-09
4.53933061e-08
4.54893299e-08
2.52483012e-08
1.19325915e-09
1.207122e-09
1.17380296e-09
1.00278477e-09
4.76527792e-08
4.67127461e-08
1.18333544e-09
9.85424793e-10
4.6922323e-08
4.70042174e-08
4.2729524e-08
2.82675359e-08
1.19807066e-09
1.22230454e-09
1.14849183e-09
1.04211146e-09
5.24942953e-08
5.40884977e-08
3.71333991e-08
1.12240929e-09
1.13342972e-09
4.81952089e-08
4.14398372e-08
1.17473269e-09
1.05091161e-09
4.61479581e-08
4.59636905e-08
4.21760402e-08
2.68373977e-08
1.20487361e-09
1.21092875e-09
1.13674894e-09
1.02569211e-09
5.3422553e-08
5.61665532e-08
3.59136188e-08
1.02582375e-09
1.23954643e-09
9.81175896e-10
4.9155325e-08
4.1686689e-08
1.01963396e-09
1.17173079e-09
9.09735777e-10
5.27853045e-08
5.30603236e-08
4.6785929e-08
3.5553027e-08
1.15777859e-09
1.16038347e-09
1.14398143e-09
9.71468914e-10
4.98611841e-08
4.89458426e-08
1.15889652e-09
9.75844893e-10
4.86291073e-08
4.67297421e-08
1.164305e-09
9.67095621e-10
4.81131674e-08
4.81487255e-08
4.44133842e-08
2.708604e-08
1.11383128e-09
1.31850854e-09
1.00211616e-09
4.21212676e-08
4.17384182e-08
1.18960474e-09
1.05068155e-09
1.12659639e-09
8.55809932e-10
5.29175423e-08
5.29678514e-08
4.65121571e-08
3.47373312e-08
1.1322529e-09
1.25097657e-09
9.83643792e-10
5.01674364e-08
5.23979105e-08
3.5921007e-08
1.14519719e-09
1.03898666e-09
4.51761314e-08
4.47705469e-08
3.95689494e-08
2.97947693e-08
1.29386778e-09
1.14378067e-09
4.02437796e-08
3.19255876e-08
1.24444444e-09
1.16334878e-09
1.19263743e-09
8.86036239e-10
4.86463963e-08
4.88673382e-08
4.10579804e-08
1.64091255e-08
1.12860185e-09
1.2065513e-09
9.31701084e-10
4.82914299e-08
4.89273781e-08
2.92274489e-08
1.13230786e-09
9.27877886e-10
4.89900551e-08
4.92724153e-08
3.29753218e-08
1.13711201e-09
8.76948106e-10
4.76382533e-08
3.77808673e-08
1.13635357e-09
7.97830495e-10
5.22354432e-08
5.26693556e-08
3.39236219e-08
1.09735064e-09
7.8796735e-10
4.86428195e-08
3.96859258e-08
1.14859086e-09
6.80258459e-10
4.85253283e-08
4.15883863e-08
1.13856985e-09
6.26254722e-10
5.14038039e-08
5.18232729e-08
4.2487539e-08
4.15468577e-08
1.97210892e-08
1.18398957e-09
1.26855645e-09
8.8246615e-10
1.22255718e-09
4.3878017e-10
4.57922403e-08
4.31936458e-08
1.16872184e-09
6.1561761e-10
5.05830834e-08
5.13295062e-08
3.14606244e-08
1.15291137e-09
1.24831663e-09
8.28415607e-10
1.13007976e-09
3.98124145e-10
5.40607335e-08
5.43553418e-08
4.2983054e-08
3.07678256e-08
1.17058159e-09
1.2200562e-09
8.35089717e-10
1.09026866e-09
4.48937473e-10
5.83750891e-08
5.888505e-08
3.25467519e-08
1.01814796e-09
6.69417063e-10
4.91241617e-08
3.84987609e-08
1.13298941e-09
6.23361392e-10
4.70760971e-08
3.81844092e-08
1.13141261e-09
6.70231902e-10
5.12319365e-08
5.18207033e-08
3.02168146e-08
1.08722006e-09
7.72561484e-10
4.52428869e-08
3.60161044e-08
1.17756563e-09
7.55149488e-10
4.41310984e-08
3.43939314e-08
1.1707405e-09
1.18714528e-09
8.25783774e-10
1.06134293e-09
4.39358144e-10
6.06488905e-08
6.12139308e-08
3.36450032e-08
9.91981031e-10
6.78632884e-10
5.11784259e-08
4.07800333e-08
1.0965434e-09
6.30660898e-10
5.04865055e-08
5.06061257e-08
4.16425348e-08
2.93875914e-08
1.21093204e-09
1.26675015e-09
8.23803512e-10
1.18339965e-09
3.77416479e-10
4.93448681e-08
4.72490234e-08
1.10964433e-09
5.32525702e-10
5.31999175e-08
5.3552325e-08
4.39676411e-08
3.29889401e-08
1.19789386e-09
7.52935359e-10
4.49099608e-08
3.84416304e-08
1.19854001e-09
6.9070607e-10
4.52730019e-08
3.95584387e-08
1.17138056e-09
6.82322687e-10
4.80959574e-08
4.83469093e-08
4.08881099e-08
2.98534229e-08
1.21403094e-09
8.334563e-10
4.42125225e-08
3.09776099e-08
1.06472298e-09
1.25020982e-09
5.93628861e-10
4.61582682e-08
3.99267046e-08
1.01292633e-09
1.12569748e-09
5.02538189e-10
5.5662232e-08
5.56473133e-08
4.65849649e-08
2.87493914e-08
1.1065441e-09
1.17685193e-09
1.02694125e-09
9.60410866e-10
9.67543021e-10
7.97225998e-10
9.24432464e-10
7.75915782e-09
6.06190127e-08
6.04560542e-08
4.79295175e-08
3.63126901e-08
1.12855874e-09
7.04102606e-10
4.75221594e-08
4.78117703e-08
4.06906427e-08
2.67263233e-08
1.20587025e-09
1.00515569e-09
1.17247166e-09
5.55915605e-10
4.67425452e-08
4.33706014e-08
1.15064945e-09
6.62379615e-10
4.9133693e-08
4.94327459e-08
4.25618666e-08
2.78915147e-08
1.14595923e-09
1.01512617e-09
1.07438061e-09
6.05497914e-10
5.51809678e-08
5.53555455e-08
4.43656708e-08
4.25079078e-08
4.17740436e-08
2.98201416e-08
1.19479372e-09
9.01858687e-10
4.48743457e-08
3.74445918e-08
1.18955261e-09
1.21676694e-09
8.63232732e-10
1.15654317e-09
5.08629714e-10
4.91942532e-08
4.88899257e-08
1.12895909e-09
6.73136306e-10
4.87990096e-08
4.41199677e-08
1.09936963e-09
7.68492488e-10
5.09115919e-08
3.91858134e-08
9.46676317e-10
1.12182931e-09
6.60095736e-10
5.76784742e-08
5.79305664e-08
4.5600765e-08
4.63824885e-08
3.07207018e-08
1.22712979e-09
1.2786057e-09
1.02965904e-09
1.16761629e-09
8.21427701e-10
1.09043154e-09
6.04774963e-10
5.43887191e-08
4.24184971e-08
8.74615877e-10
1.12209094e-09
6.64168796e-10
5.34702203e-08
5.35953505e-08
4.58346258e-08
3.1426779e-08
1.11941068e-09
1.1142664e-09
1.07548401e-09
8.43875599e-10
5.58583602e-08
5.61186368e-08
3.57181832e-08
1.06841483e-09
9.60766085e-10
4.87840911e-08
4.08131442e-08
1.15705934e-09
8.93914562e-10
4.74561582e-08
4.75339051e-08
4.13083318e-08
3.2804575e-08
1.26474012e-09
1.02410751e-09
4.17530336e-08
3.75920143e-08
1.26562132e-09
9.56794236e-10
4.28554298e-08
3.95041053e-08
1.25150521e-09
9.11211165e-10
4.40925977e-08
4.09670915e-08
1.2277334e-09
8.70918657e-10
4.56224928e-08
4.25320976e-08
1.19275209e-09
8.28134943e-10
4.78997244e-08
4.45703065e-08
1.14103781e-09
7.83932916e-10
5.12628409e-08
5.13752568e-08
4.71876156e-08
3.35959292e-08
1.11943258e-09
1.30729877e-09
8.33690978e-10
4.26542046e-08
4.17251183e-08
1.22740901e-09
9.38567938e-10
4.68400561e-08
4.73917155e-08
2.7752195e-08
1.16776711e-09
1.27903287e-09
9.62249073e-10
1.15553966e-09
7.12554097e-10
5.60053189e-08
5.65757283e-08
4.54102804e-08
4.92979423e-08
3.2674033e-08
1.08312953e-09
1.00518154e-09
4.99395674e-08
3.7018172e-08
1.08287621e-09
1.12694823e-09
1.03583875e-09
9.17712113e-10
1.00449746e-09
6.80464766e-10
5.65486191e-08
4.31980495e-08
8.95821556e-10
1.10860567e-09
6.92128228e-10
5.52035284e-08
5.54120767e-08
4.7815241e-08
3.8770071e-08
1.13823181e-09
9.26621956e-10
4.69881096e-08
4.20274711e-08
1.1519015e-09
8.86675824e-10
4.7419431e-08
4.74296432e-08
4.41805347e-08
3.41349867e-08
1.14212394e-09
1.03060326e-09
4.91070133e-08
3.39913672e-08
1.00081317e-09
1.21642926e-09
7.70205771e-10
5.30548661e-08
5.31726564e-08
4.83425103e-08
3.48144393e-08
1.12300685e-09
1.19578502e-09
1.0826872e-09
1.01181183e-09
1.04877641e-09
7.97240737e-10
5.67463706e-08
5.69220888e-08
3.74653754e-08
1.09707129e-09
9.73384563e-10
4.75419008e-08
4.78994129e-08
3.17083633e-08
1.16324397e-09
1.09371539e-09
4.43029034e-08
3.16556054e-08
1.18195564e-09
1.32773914e-09
9.37321177e-10
4.16499149e-08
3.7945034e-08
1.1862978e-09
1.1209186e-09
1.09707147e-09
9.12982328e-10
1.01780478e-09
6.66973604e-10
6.30366307e-08
6.30869589e-08
5.10834283e-08
5.03933104e-08
4.43073619e-08
4.09641531e-08
3.99233386e-08
2.92101491e-08
1.30166958e-09
1.32675977e-09
1.1660221e-09
1.23537631e-09
1.00552521e-09
1.15919878e-09
8.10797907e-10
5.357304e-08
5.38345224e-08
4.42104023e-08
4.65497775e-08
2.39922936e-08
1.165812e-09
1.16631346e-09
1.10865846e-09
9.18898182e-10
5.63479202e-08
5.87818668e-08
3.65364656e-08
1.03460416e-09
1.24464055e-09
8.74181248e-10
4.96230751e-08
4.96942534e-08
4.48788397e-08
3.42434261e-08
1.16286228e-09
1.14691459e-09
1.12199813e-09
8.99094846e-10
5.2762524e-08
5.27531803e-08
4.60971227e-08
4.29736019e-08
4.36058971e-08
3.23149562e-08
1.21260357e-09
1.10896841e-09
4.59868429e-08
4.62622771e-08
3.44455597e-08
1.20130777e-09
1.19876275e-09
1.18222382e-09
1.01063815e-09
4.60380981e-08
3.74121451e-08
1.13846386e-09
1.16879567e-09
1.08785785e-09
1.02082854e-09
1.04106974e-09
8.64510024e-10
5.86831388e-08
6.02400844e-08
4.14838793e-08
1.04650348e-09
1.05988082e-09
1.05322018e-09
8.59889422e-10
5.33516311e-08
5.34736044e-08
4.70375981e-08
3.99021965e-08
1.17543864e-09
1.08947502e-09
4.49040621e-08
4.0141718e-08
1.19467153e-09
1.09536354e-09
4.57075819e-08
4.00194993e-08
1.16884296e-09
1.12981348e-09
4.94149506e-08
3.65453509e-08
1.07342544e-09
1.2510425e-09
9.93565739e-10
4.94838428e-08
4.97371702e-08
4.5655916e-08
3.76508062e-08
1.214364e-09
1.18887887e-09
4.60173338e-08
4.61638924e-08
3.40871382e-08
1.22521825e-09
1.22574601e-09
4.55650169e-08
4.57586694e-08
3.10461086e-08
1.22902535e-09
1.35647825e-09
1.12328447e-09
4.38109011e-08
4.88518984e-08
3.44909201e-08
1.23985941e-09
1.27119657e-09
4.42427656e-08
3.86829059e-08
1.24530673e-09
1.22368287e-09
4.37382899e-08
4.072858e-08
1.25487997e-09
1.20086697e-09
4.36959376e-08
4.1560636e-08
1.24981684e-09
1.19324213e-09
4.44214292e-08
4.16849915e-08
1.21920409e-09
1.18861337e-09
4.74060978e-08
4.19164829e-08
1.14515961e-09
1.14855314e-09
1.08574014e-09
1.02820558e-09
5.69790959e-08
5.70573743e-08
5.11868724e-08
4.83982018e-08
8.67059766e-09
1.16271679e-09
1.0829561e-09
4.7115291e-08
3.89340222e-08
1.14981464e-09
1.2422095e-09
1.13457118e-09
4.56249659e-08
4.63551538e-08
4.21740449e-08
3.71135581e-08
1.25873261e-09
1.3017478e-09
4.19880929e-08
3.92766529e-08
1.25890399e-09
1.25813143e-09
4.45434605e-08
4.14574426e-08
1.26198854e-09
1.20295567e-09
4.56239935e-08
4.84107197e-08
3.34843547e-08
1.1986369e-09
1.36554955e-09
4.80891896e-08
3.75882472e-08
1.18561041e-09
1.30062864e-09
1.17177884e-09
4.55951072e-08
4.62564673e-08
4.18993911e-08
3.55113633e-08
1.29607478e-09
1.37397856e-09
4.23818674e-08
3.27799497e-08
1.22925619e-09
1.29233472e-09
1.17558572e-09
4.853209e-08
4.92221037e-08
4.9536355e-08
4.45591229e-08
1.16673203e-09
1.20209902e-09
1.15321252e-09
1.1247003e-09
4.92698019e-08
4.85549687e-08
4.36820202e-08
3.74402704e-08
1.27752344e-09
1.32134687e-09
4.40850545e-08
3.37923952e-08
1.19899372e-09
1.302327e-09
1.13284067e-09
4.87903105e-08
5.05657084e-08
4.41276068e-08
4.28082296e-08
4.0840267e-08
2.50426052e-08
1.28342284e-09
1.36196109e-09
1.19569896e-09
1.30985894e-09
1.10107145e-09
4.42808647e-08
5.0559964e-08
3.40367191e-08
1.18052352e-09
1.23363638e-09
4.77924628e-08
4.79881479e-08
3.55553167e-08
1.2167601e-09
1.2166991e-09
4.65916791e-08
3.95906834e-08
1.18689213e-09
1.17580836e-09
4.94647354e-08
3.7331182e-08
1.09083609e-09
1.22909078e-09
1.0081652e-09
5.03845887e-08
5.11074954e-08
4.58609696e-08
3.92660526e-08
1.19370546e-09
1.16879669e-09
4.68315569e-08
3.82383826e-08
1.21511873e-09
1.21845729e-09
1.20841957e-09
1.09007484e-09
1.18874353e-09
9.58749254e-10
5.00221782e-08
5.83764532e-08
5.01773001e-08
5.13654809e-08
4.86347772e-08
4.44542409e-08
4.65848448e-08
3.650437e-08
1.23704491e-09
1.28749887e-09
1.1216519e-09
1.2205998e-09
1.01819891e-09
1.16497285e-09
9.28142416e-10
1.1218349e-09
8.50982378e-10
5.35011417e-08
5.44395402e-08
4.16672081e-08
1.09974461e-08
1.1866781e-09
9.59038933e-10
1.10258626e-09
8.3058842e-10
1.03085061e-09
7.12538714e-10
6.09217601e-08
6.11897058e-08
4.88004723e-08
4.80298365e-08
4.08901504e-08
4.24869194e-08
2.51913373e-08
1.1893757e-09
1.12382024e-09
4.73129262e-08
4.74924361e-08
3.13169628e-08
1.1565908e-09
1.25314005e-09
9.74668403e-10
1.12558439e-09
7.92917902e-10
5.73439322e-08
5.97241555e-08
3.42038561e-08
9.85779836e-10
9.92410911e-10
5.25843787e-08
4.18750383e-08
1.01045975e-09
1.10237809e-09
7.5383707e-10
5.90727654e-08
5.92432761e-08
4.62103585e-08
4.80095703e-08
2.53987848e-08
1.15655139e-09
1.14988182e-09
1.1687356e-09
9.13388147e-10
4.403851e-08
3.6545654e-08
1.12478603e-09
1.23718427e-09
9.00382835e-10
4.81717624e-08
4.82352921e-08
4.01382301e-08
4.13446766e-08
2.74090283e-08
1.27799668e-09
9.60251883e-10
4.17587008e-08
4.23298539e-08
1.36850385e-09
6.49223006e-10
3.51793046e-08
8.09139187e-10
9.31859279e-10
6.15218582e-08
3.11687086e-08
7.37424152e-10
4.99467767e-08
5.41941977e-08
2.73179809e-08
1.07027082e-09
8.8745621e-10
4.73695016e-08
4.7335399e-08
3.79027265e-08
2.20659594e-08
1.18300296e-09
1.23271191e-09
8.61906898e-10
5.03594555e-08
5.05864569e-08
2.6240131e-08
1.12505033e-09
9.05629647e-10
4.63300643e-08
4.65215378e-08
3.32981799e-08
1.77782815e-08
1.34294034e-09
9.3211442e-10
3.79289179e-08
2.97732097e-08
1.19473697e-09
1.32665246e-09
7.98860324e-10
4.05582244e-08
3.96092894e-08
1.26036673e-09
8.72889144e-10
4.28283243e-08
3.29755964e-08
1.23082025e-09
1.17172033e-09
1.31019868e-09
9.20801088e-10
2.87568764e-08
6.32823815e-08
5.95130874e-08
5.21392895e-08
5.15020679e-08
4.50447664e-08
4.64124804e-08
3.74339831e-08
2.001333e-09
1.23360885e-09
9.05858469e-10
1.1447695e-09
9.38249799e-10
1.0769745e-09
9.29585126e-10
1.02399996e-09
1.16077774e-08
5.37449558e-08
5.3598526e-08
4.31699438e-08
4.34503911e-08
2.38091871e-08
1.20640698e-09
1.23765506e-09
1.14843497e-09
1.10007851e-09
1.5461606e-08
5.27230376e-08
3.58527028e-08
1.31049099e-09
9.91364983e-10
3.50477661e-08
5.96428204e-08
5.37460209e-08
4.5825952e-08
4.43382656e-08
4.01675995e-08
2.83383796e-08
1.19616016e-09
9.81155159e-10
4.48605548e-08
3.32304826e-08
1.20928841e-09
1.22481153e-09
1.22172652e-09
1.05046348e-09
1.23915499e-09
8.50932525e-10
4.36721693e-08
5.14799088e-08
4.75547817e-08
3.03735794e-08
1.00348858e-09
1.17492199e-09
5.85365892e-10
5.95765053e-08
5.97602515e-08
4.60186722e-08
4.74289307e-08
2.42675396e-08
1.17114911e-09
1.17598201e-09
1.16025786e-09
9.49751788e-10
1.17471851e-09
6.78716894e-10
4.40896535e-08
3.69130443e-08
1.13655463e-09
1.252087e-09
9.14146596e-10
4.70782177e-08
5.00475381e-08
4.22475707e-08
4.20672858e-08
4.00738427e-08
2.30869378e-08
1.2277977e-09
8.97930209e-10
4.66088187e-08
3.57527235e-08
1.01387251e-09
1.17252324e-09
6.37400458e-10
5.608729e-08
5.61410536e-08
4.42286987e-08
3.96873517e-08
7.93450607e-09
1.25977222e-09
7.18414165e-10
4.111197e-08
3.84814702e-08
1.25904481e-09
8.59730567e-10
4.24770464e-08
3.72940459e-08
1.27089924e-09
9.24213925e-10
4.27117217e-08
3.11442156e-08
1.20142787e-09
1.08315389e-09
1.11285762e-09
6.57519135e-10
5.78560837e-08
5.81671237e-08
4.8889534e-08
4.79084946e-08
4.23444039e-08
4.30708845e-08
2.65339189e-08
1.13442182e-09
8.99600775e-10
5.32142321e-08
5.34808025e-08
3.49120638e-08
1.03494068e-09
1.08745257e-09
1.08174187e-09
8.12418632e-10
4.23190778e-08
3.19923705e-08
1.28165746e-09
1.23131864e-09
1.37008861e-09
1.03945927e-09
3.1563489e-08
4.86578511e-08
4.53482512e-08
2.62151128e-08
1.26684296e-09
9.96362435e-10
4.3177263e-08
2.93522826e-08
1.25260182e-09
1.14913462e-09
1.20495737e-09
8.56788407e-10
5.07491302e-08
5.52216183e-08
4.66435072e-08
4.58701797e-08
4.50075881e-08
3.85413603e-08
5.86010506e-09
1.12233721e-09
1.12761439e-09
8.69878197e-10
4.02119625e-08
3.2081649e-08
1.2891449e-09
1.1320805e-09
1.24974287e-09
8.56318209e-10
4.94418408e-08
5.38337372e-08
4.40186229e-08
4.56592926e-08
2.63422755e-08
1.26383607e-09
1.25398687e-09
1.35955412e-09
1.02297855e-09
3.09460293e-08
5.40956523e-08
5.16871633e-08
3.2419285e-08
1.14434391e-09
8.70546987e-10
4.79012571e-08
4.81244451e-08
3.62282903e-08
2.54724896e-08
1.34837245e-09
1.04546219e-09
3.69584309e-08
2.46398984e-08
1.33425837e-09
1.38485368e-09
1.11318478e-09
1.36956375e-09
8.68715792e-10
4.13086521e-08
5.62878082e-08
4.70611416e-08
4.58365901e-08
4.54470087e-08
1.96200436e-08
1.02182923e-09
1.17999826e-09
7.05306179e-10
5.35628031e-08
5.36015732e-08
4.2930488e-08
3.27547958e-08
1.15882773e-09
9.35537915e-10
4.76846706e-08
3.85618867e-08
1.00112997e-09
1.1420082e-09
6.85613495e-10
5.75192955e-08
5.7671697e-08
4.41058815e-08
4.35427215e-08
1.83002249e-08
1.09558732e-09
1.18579556e-09
8.31568194e-10
1.09523924e-09
5.80681347e-10
5.51279578e-08
5.52758982e-08
4.10380685e-08
2.79044e-08
1.20784038e-09
1.22660892e-09
1.19149404e-09
1.05858725e-09
1.8233569e-08
5.65546382e-08
5.6517064e-08
3.3207891e-08
1.05203638e-09
8.54195287e-10
4.97674676e-08
4.97071636e-08
3.95086624e-08
2.73238059e-08
1.18583895e-09
1.25976307e-09
8.89630195e-10
4.93284763e-08
4.95989202e-08
2.56039056e-08
1.22501306e-09
1.24393485e-09
1.19797506e-09
1.08493689e-09
1.90286586e-08
5.39902428e-08
5.21315715e-08
4.13316777e-08
3.46245645e-08
1.34121596e-09
7.53741903e-10
3.20759462e-08
8.8254999e-10
8.9836241e-10
4.95425382e-08
3.64784655e-08
1.12670246e-09
1.17882511e-09
7.94279805e-10
1.06984308e-09
4.24840022e-10
5.59155636e-08
5.60964706e-08
4.30478922e-08
3.02818744e-08
1.18096618e-09
1.17120771e-09
1.24775974e-09
9.30244612e-10
2.56620873e-08
6.1491029e-08
5.87709926e-08
5.09409954e-08
5.00276187e-08
4.3883111e-08
4.47017149e-08
2.91249598e-08
1.18597062e-09
1.23335849e-09
9.79523886e-10
1.0937156e-09
8.07305684e-10
9.99509226e-10
6.53137115e-09
5.69699278e-08
4.08494758e-08
8.68300093e-10
1.08564252e-09
3.74094439e-10
5.74381983e-08
5.74698135e-08
4.46440825e-08
3.33416262e-08
1.16490863e-09
7.66854496e-10
4.45582135e-08
3.3006757e-08
1.13635439e-09
9.7183243e-10
1.08966613e-09
4.62492599e-10
5.19167696e-08
5.21459549e-08
4.29152066e-08
3.14437238e-08
1.16935757e-09
1.18641325e-09
8.38259401e-10
1.03189493e-09
1.65561253e-09
6.2499669e-08
6.26657223e-08
4.914327e-08
4.72671958e-08
4.41656392e-08
3.19945658e-08
1.19863957e-09
1.23797631e-09
1.01276927e-09
1.11650138e-09
7.67798331e-10
1.04569795e-09
1.28575236e-09
5.48883636e-08
4.14061911e-08
9.3067483e-10
1.11982376e-09
4.83234775e-10
5.26703258e-08
5.2697512e-08
4.33430874e-08
2.97700907e-08
1.1438026e-09
1.02247727e-09
1.09945134e-09
5.34108528e-10
5.17752719e-08
5.19974677e-08
4.74316415e-08
3.62765147e-08
1.09821315e-09
6.17884858e-10
5.30933434e-08
5.31195986e-08
4.89418842e-08
3.20656014e-08
1.12481734e-09
1.17932177e-09
1.10250891e-09
9.25821923e-10
1.09802866e-09
5.5175577e-10
5.0385277e-08
5.08214688e-08
4.25037183e-08
4.14570524e-08
1.49661048e-08
1.18820143e-09
1.21708036e-09
8.69017318e-10
4.73700276e-08
4.96567761e-08
3.14775355e-08
1.10050606e-09
7.43221774e-10
5.00879027e-08
4.15514512e-08
1.12169524e-09
6.71651009e-10
4.95545462e-08
4.96729506e-08
4.37029614e-08
3.09413412e-08
1.1543803e-09
1.03829163e-09
1.11255153e-09
5.92080519e-10
4.95654045e-08
4.01909561e-08
1.05041624e-09
1.12363474e-09
5.58496401e-10
5.60870238e-08
5.64739769e-08
4.61066342e-08
4.78686825e-08
3.2816498e-08
1.23365976e-09
1.26537432e-09
1.00672462e-09
1.1649864e-09
7.26640332e-10
5.28957554e-08
5.39655609e-08
3.36158457e-08
1.11759133e-09
1.22322499e-09
7.67227289e-10
5.44467097e-08
5.63757505e-08
3.48439283e-08
1.08914974e-09
1.24998971e-09
6.75866151e-10