/*--------------------------------*- C++ -*----------------------------------*\
| =========                 |                                                 |
| \\      /  F ield         | OpenFOAM: The Open Source CFD Toolbox           |
|  \\    /   O peration     | Version:  2306                                  |
|   \\  /    A nd           | Website:  www.openfoam.com                      |
|    \\/     M anipulation  |                                                 |
\*---------------------------------------------------------------------------*/
FoamFile
{
    version     2.0;
    format      ascii;
    arch        "LSB;label=32;scalar=64";
    class       volScalarField;
    location    "0.00022";
    object      PV;
}
// * * * * * * * * * * * * * * * * * * * * * * * * * * * * * * * * * * * * * //

dimensions      [0 0 0 0 0 0 0];

internalField   nonuniform List<scalar> 
3810
(
-0.00723980079
-0.00703135182
-0.00703197389
-0.00725621899
-0.00724453702
-0.00703048891
-0.00703259627
-0.00725841369
-0.00724371885
-0.00703011909
-0.00703270367
-0.00726798592
-0.0072299183
-0.00703025523
-0.00703233805
-0.00703097286
-0.00727072454
-0.00727079311
-0.007260485
-0.00723758036
-0.00703033289
-0.00703007187
-0.00703176006
-0.00703088755
-0.00703312884
-0.00728032728
-0.00728492498
-0.00725472412
-0.0072700837
-0.00722255387
-0.00703362613
-0.00703026263
-0.00726166892
-0.00723955006
-0.00703223637
-0.0070317188
-0.00726794868
-0.00723939012
-0.00703089293
-0.00703295215
-0.00703164321
-0.00703426992
-0.00703230359
-0.00703568669
-0.00731382684
-0.00731872061
-0.00728269882
-0.00729768892
-0.00724963204
-0.00703358751
-0.00703196119
-0.00727572652
-0.00726567953
-0.00726878159
-0.00722789809
-0.00703157059
-0.00703163715
-0.00703258776
-0.00726035023
-0.0072774075
-0.00723248876
-0.00703166015
-0.00703312035
-0.00726038283
-0.0072647933
-0.00723118443
-0.00703257247
-0.00703152901
-0.00725772398
-0.00723846986
-0.00702981194
-0.00703428343
-0.00725914528
-0.00726642154
-0.00723010519
-0.0070339168
-0.00702949017
-0.00726120336
-0.00723805552
-0.00703244337
-0.00703103974
-0.00726570241
-0.00723668796
-0.00703089956
-0.00703203104
-0.00703149618
-0.0070330648
-0.00703198891
-0.00703452294
-0.00730363601
-0.00730805847
-0.00727263356
-0.0072880064
-0.00724192619
-0.00703346497
-0.0070311982
-0.00727354862
-0.00724718435
-0.00703102594
-0.0070331823
-0.00727384588
-0.00727808466
-0.00724041785
-0.00703209394
-0.0070320624
-0.00727301249
-0.00727934513
-0.00722749941
-0.0070318368
-0.00703202103
-0.00703195751
-0.00726757213
-0.00725306654
-0.00703172154
-0.0070325263
-0.00703285464
-0.00727942851
-0.0073036226
-0.00724461269
-0.007032634
-0.00703266395
-0.00703274258
-0.00703385662
-0.00730484963
-0.00730941073
-0.00726146675
-0.00703376805
-0.00703216184
-0.00728547679
-0.00727079037
-0.00727938678
-0.00722173487
-0.00703247832
-0.0070326842
-0.00703246564
-0.00726587657
-0.00725182655
-0.00703130932
-0.00703376022
-0.00703201422
-0.007280998
-0.00725361645
-0.00703090285
-0.0072675823
-0.00726762179
-0.00725839635
-0.00723862096
-0.00703294646
-0.00703286562
-0.00703335565
-0.00703333273
-0.00703347303
-0.00703431196
-0.00703354783
-0.00730331538
-0.00730347404
-0.00729484633
-0.0072528145
-0.00703379677
-0.00703448359
-0.00703415952
-0.00703520848
-0.00731196478
-0.00731810384
-0.00726588658
-0.00703517902
-0.00703277365
-0.00728795038
-0.00727820232
-0.00727569831
-0.00724116681
-0.00703434414
-0.00703447175
-0.00703372301
-0.00703531997
-0.00703302316
-0.00729369883
-0.00726498474
-0.00703308033
-0.00703625529
-0.00703300761
-0.00729578385
-0.00729574551
-0.00728769068
-0.00725048396
-0.00703500852
-0.00703496976
-0.00703580319
-0.00703433837
-0.00703668318
-0.00703403613
-0.00733014282
-0.00733039257
-0.00729530634
-0.00728068544
-0.00727618965
-0.00724552555
-0.00703454945
-0.00703456694
-0.00703351274
-0.00703491291
-0.00703238241
-0.00728541426
-0.00728542333
-0.00727192893
-0.00724518337
-0.00703307701
-0.00703339327
-0.00726672681
-0.0072713522
-0.00723218918
-0.00703390665
-0.00703251372
-0.00703427818
-0.00703204952
-0.00703491582
-0.00703148003
-0.00729262167
-0.00729239564
-0.00728203877
-0.00724768047
-0.00703306889
-0.00703304158
-0.00703354741
-0.00703252442
-0.00729270369
-0.00729595711
-0.00726133353
-0.00727494801
-0.00722581409
-0.00703361236
-0.00703248017
-0.00703227491
-0.0070333588
-0.00703101567
-0.00728434747
-0.00725833418
-0.00703114311
-0.00703447074
-0.00703121566
-0.00728936045
-0.00728937243
-0.00727652548
-0.00724766156
-0.00703228769
-0.00703352773
-0.00727348306
-0.00727774347
-0.00723991223
-0.00703293675
-0.00703080768
-0.00727014878
-0.00724460017
-0.00703098706
-0.00703317852
-0.00727269532
-0.00727763751
-0.0072372865
-0.00703301972
-0.00703105089
-0.00727017761
-0.00724395257
-0.00703050725
-0.00703376759
-0.00727262229
-0.0072785237
-0.0072369043
-0.007033691
-0.00703075906
-0.00727692595
-0.00722887609
-0.00703171938
-0.00703168051
-0.00703289514
-0.00727321088
-0.00724911141
-0.00703158858
-0.00703295997
-0.00703314234
-0.00728224039
-0.00728216267
-0.00727716498
-0.00722623462
-0.00703230547
-0.00703217206
-0.00703446795
-0.0072663813
-0.0072664497
-0.00703209922
-0.00703509415
-0.00726969783
-0.00726411916
-0.00703200617
-0.00703554674
-0.00727195746
-0.00727318202
-0.00726396216
-0.00722946899
-0.007032735
-0.0070343976
-0.0072744181
-0.00720829385
-0.00703285905
-0.00703286694
-0.00703521614
-0.00726791806
-0.0072567574
-0.00703329452
-0.00703320408
-0.00703664035
-0.0070340565
-0.00703960589
-0.00731863374
-0.0073228551
-0.00728515689
-0.00728544356
-0.00725713512
-0.0072676066
-0.00720812858
-0.00703341789
-0.00703459068
-0.00726244164
-0.0072640199
-0.00723250965
-0.00703050515
-0.00703803187
-0.00723064268
-0.00703678978
-0.0070349097
-0.00727593985
-0.00726550618
-0.00725960302
-0.00721537314
-0.00703227107
-0.00703215348
-0.00703561284
-0.00703358293
-0.00703741589
-0.00728082279
-0.00725993099
-0.0070346459
-0.00703483182
-0.00703761994
-0.007308235
-0.00731865551
-0.00724250157
-0.00703634885
-0.00703581779
-0.00729595116
-0.00725790326
-0.00703491811
-0.00703676516
-0.00729418843
-0.00725479067
-0.00703491972
-0.00703496005
-0.00703666107
-0.0073051825
-0.00730917026
-0.00726827209
-0.00727991732
-0.00721065755
-0.00703535311
-0.00703488714
-0.00703565217
-0.00703592791
-0.00727821248
-0.00724819147
-0.00703447669
-0.00703438534
-0.00703734012
-0.00703515102
-0.00703769177
-0.0072945677
-0.00727005702
-0.00703642541
-0.00703649234
-0.00703650865
-0.00730654447
-0.00730953231
-0.0072672128
-0.00728011542
-0.00720113526
-0.00703495291
-0.00703516571
-0.00703480551
-0.00703603717
-0.00728882751
-0.00729319385
-0.0072567818
-0.00726627204
-0.00719112973
-0.00703434763
-0.00703082687
-0.00725935361
-0.00722720109
-0.00703240272
-0.00703237691
-0.00703381703
-0.00703349119
-0.0070333706
-0.00729194969
-0.00729270547
-0.00727069527
-0.00723859522
-0.00703206017
-0.00703236085
-0.00726679797
-0.00724624563
-0.00703056285
-0.00703461039
-0.0072736538
-0.0072813066
-0.00723320205
-0.00703582542
-0.00703132442
-0.00703625733
-0.00703308029
-0.00703607197
-0.00731119536
-0.00731570197
-0.0072827679
-0.00728526192
-0.00725954798
-0.00727105363
-0.00722059042
-0.00703355731
-0.00703354772
-0.00703401698
-0.00703520964
-0.00703486808
-0.00703626766
-0.00703631241
-0.00703660961
-0.0073088525
-0.00730904488
-0.00728806595
-0.00724697995
-0.0070354822
-0.00703523397
-0.00703625043
-0.00703578453
-0.00729528113
-0.00729522292
-0.00728088258
-0.00724398382
-0.00703557585
-0.00703359272
-0.00728589432
-0.00723642855
-0.007033736
-0.00703431978
-0.00703470166
-0.00729455767
-0.00729471028
-0.00726930177
-0.0072586028
-0.00725575344
-0.00716959266
-0.00703432707
-0.00703265649
-0.00703488912
-0.0070343047
-0.00727293746
-0.00725436321
-0.00703390753
-0.00703442617
-0.00703514881
-0.00703633197
-0.00729815132
-0.00726464696
-0.00703477427
-0.00703470237
-0.00703769403
-0.00730318638
-0.00730674307
-0.0072671466
-0.00728197151
-0.00722725844
-0.00703567971
-0.00703473517
-0.00726773416
-0.00723941719
-0.00703413737
-0.00703584978
-0.00727222479
-0.00723674444
-0.00703263505
-0.00703394636
-0.00703340927
-0.0070367595
-0.00703415968
-0.00704110862
-0.00731569823
-0.00732111705
-0.00727859963
-0.00729156694
-0.00724310273
-0.00703337305
-0.00703312671
-0.00703562889
-0.00703383692
-0.00703849314
-0.00703471456
-0.00704262525
-0.0073342289
-0.00733905577
-0.00729004799
-0.00730661754
-0.00724461612
-0.00703464889
-0.00703842952
-0.00728739133
-0.00729190584
-0.00724438482
-0.00703391632
-0.00703685903
-0.007271063
-0.00726645256
-0.00725877539
-0.00717803171
-0.0070327932
-0.00703299848
-0.00703312129
-0.00703494698
-0.00703403266
-0.00703722629
-0.00730562356
-0.00730909276
-0.00724517706
-0.00703378176
-0.00703742748
-0.00727870111
-0.00728348622
-0.0072341753
-0.00703265734
-0.00703210089
-0.00703529939
-0.00703361784
-0.00703692386
-0.00728744811
-0.00725236019
-0.00703408852
-0.00703428393
-0.00703586716
-0.00728914275
-0.007259011
-0.00703414466
-0.00703442701
-0.00703558119
-0.00730359189
-0.00730399573
-0.00726996463
-0.00725985859
-0.00725334386
-0.0071971091
-0.0070328072
-0.00703243703
-0.00725322506
-0.00723251556
-0.00703073631
-0.00703364368
-0.00726430667
-0.00726884067
-0.00719896584
-0.00703281725
-0.00703171915
-0.00726116536
-0.00726364507
-0.00719007616
-0.00703321864
-0.00703104322
-0.00703416794
-0.00703258743
-0.00703371056
-0.00727971147
-0.00725412496
-0.00703352739
-0.00703387721
-0.00703349968
-0.00730023196
-0.00730256062
-0.00726341953
-0.00727509455
-0.00720214257
-0.00703270436
-0.00703188992
-0.00727032065
-0.00727405629
-0.00721784533
-0.00703343613
-0.00703044805
-0.00726576325
-0.00724543525
-0.00703164921
-0.00703219226
-0.00726712227
-0.00725479927
-0.00703082343
-0.0070332388
-0.00727357128
-0.00725671209
-0.00703019068
-0.00703458008
-0.00729065663
-0.00729783889
-0.00724109608
-0.00703368316
-0.00703051654
-0.00727335998
-0.00727220513
-0.00725699525
-0.00722658113
-0.00703129742
-0.00703124422
-0.00703196107
-0.00727132549
-0.00727988944
-0.0072120972
-0.00703322186
-0.00702899554
-0.00726856756
-0.00723446922
-0.00703140542
-0.00703131683
-0.00703200878
-0.00727628119
-0.00728943198
-0.00722214484
-0.00703231251
-0.00702944815
-0.00726968323
-0.00724106424
-0.00703016221
-0.00703196382
-0.00726746301
-0.00727296911
-0.00719461679
-0.00703422041
-0.00702946246
-0.00703434017
-0.00703084197
-0.00703388217
-0.0072672918
-0.00726409698
-0.00703106242
-0.00703495221
-0.00703266687
-0.00703497256
-0.00730651083
-0.00730910517
-0.00727301654
-0.00726245949
-0.00726010047
-0.00720414015
-0.00703158867
-0.00703269038
-0.00727141605
-0.00727617238
-0.00722500045
-0.00703342017
-0.00702981032
-0.00727135303
-0.00724981776
-0.0070325973
-0.0070316449
-0.00727276379
-0.00726232136
-0.00703223457
-0.00703338855
-0.00727499219
-0.00727533685
-0.00726772361
-0.00721326683
-0.00703256979
-0.00703258412
-0.00703357772
-0.00728559451
-0.00730390948
-0.00724658247
-0.0070328983
-0.0070326197
-0.0072791236
-0.0072750077
-0.0072616429
-0.00716976728
-0.00703239804
-0.00703277859
-0.00703262237
-0.00703369882
-0.00703311966
-0.00703453684
-0.00703425453
-0.00703554724
-0.00729484877
-0.00728333207
-0.00703392658
-0.00703741861
-0.00703529627
-0.00703878978
-0.00732050835
-0.00732560809
-0.00728522211
-0.00728997748
-0.00726332451
-0.0072836633
-0.00724642608
-0.00703542603
-0.00703527789
-0.00703643478
-0.00703589478
-0.00703761639
-0.00703679306
-0.00730699109
-0.00731423289
-0.00724821128
-0.00703493654
-0.00703378872
-0.00727887064
-0.00727013119
-0.00726190238
-0.00721699647
-0.00703269079
-0.00703218165
-0.00726872239
-0.00727088178
-0.00717559573
-0.00703324387
-0.00703118209
-0.00703379276
-0.00703248219
-0.00727813619
-0.00727416877
-0.00703290215
-0.00703475369
-0.00727467188
-0.00727670576
-0.00726082703
-0.00719498484
-0.00703273327
-0.00703314002
-0.00703302254
-0.00703443059
-0.00729352925
-0.00730319645
-0.0072394603
-0.00703444454
-0.00703216094
-0.00728083463
-0.00725537203
-0.00703334049
-0.00703342172
-0.00727232144
-0.00727261749
-0.00725914327
-0.00718659748
-0.00703299872
-0.00703305761
-0.00703366668
-0.0070342347
-0.00729761931
-0.00731035267
-0.00723642702
-0.00703406177
-0.0070340739
-0.00703320771
-0.00728364449
-0.0072569359
-0.00703262294
-0.00703451752
-0.00703279082
-0.00729675228
-0.00729676262
-0.00727654073
-0.00723490006
-0.00703332867
-0.00703238661
-0.00703386553
-0.00703256669
-0.00728577726
-0.00728232632
-0.00703324832
-0.00703458415
-0.00728113441
-0.00727579948
-0.00703289273
-0.0070357923
-0.00727899974
-0.00728167287
-0.00726706829
-0.00718934174
-0.00703387346
-0.0070339292
-0.00703369444
-0.00725914396
-0.007257521
-0.00703267714
-0.00703480952
-0.00703402987
-0.00703514319
-0.00729679299
-0.00729752489
-0.00727532548
-0.00723223533
-0.00703354456
-0.00703343102
-0.00703453665
-0.00728589117
-0.00729666766
-0.00723535453
-0.00703331155
-0.0070333492
-0.00726877223
-0.00726756037
-0.00724981626
-0.00720236633
-0.00703204325
-0.00703275196
-0.00725149573
-0.00721561723
-0.00703154362
-0.00703400733
-0.00703297184
-0.0070366848
-0.00728124665
-0.00728463343
-0.00725503767
-0.0071297448
-0.00703549688
-0.00703547796
-0.00703695532
-0.00728094248
-0.00728497037
-0.00720054018
-0.00703448561
-0.0070379633
-0.00728203302
-0.00728645892
-0.00722079098
-0.00703426136
-0.00703714164
-0.00727801835
-0.00724419344
-0.0070322079
-0.00704027877
-0.00729245705
-0.00729968876
-0.0072256448
-0.00703509214
-0.00703802997
-0.00728203835
-0.00725110752
-0.00703292377
-0.00704099861
-0.0072804516
-0.00725947869
-0.00703219269
-0.00704285115
-0.00729006957
-0.00729738003
-0.00725923489
-0.00725945976
-0.00714585711
-0.00703820229
-0.00703218101
-0.00704230657
-0.00703264074
-0.00704587609
-0.00727061238
-0.00726757204
-0.00703187967
-0.0070446882
-0.00728676615
-0.00729780058
-0.00721088523
-0.00703881195
-0.00703179824
-0.00704264409
-0.00703413088
-0.0070446046
-0.00730174495
-0.00730608166
-0.00726355512
-0.00721012146
-0.00703653611
-0.0070335677
-0.0070422966
-0.00703507404
-0.00704463776
-0.00731715103
-0.00732543188
-0.00722007699
-0.00703801235
-0.00703963114
-0.00728506372
-0.00724945883
-0.0070339445
-0.00704274698
-0.00727624389
-0.0072497017
-0.00703315718
-0.0070433501
-0.00729046026
-0.00729970664
-0.00720570629
-0.0070380789
-0.00703733131
-0.00727176829
-0.00723894933
-0.00703401498
-0.0070383863
-0.00726673826
-0.00723206049
-0.00703518261
-0.00703444526
-0.00704101105
-0.00703542863
-0.00704405224
-0.0073250239
-0.00733341438
-0.00722551998
-0.00703776387
-0.00703817997
-0.00729222059
-0.00725581904
-0.00703440254
-0.0070404824
-0.00728860004
-0.00729159753
-0.00725818799
-0.00720189005
-0.00703518567
-0.00703211478
-0.00704085931
-0.00703290187
-0.007044376
-0.00728358635
-0.00728124403
-0.00703359062
-0.00704348534
-0.00729786379
-0.00730335866
-0.00726589298
-0.00722422475
-0.0070326384
-0.00703940753
-0.00726801439
-0.00724825553
-0.0070321838
-0.00704125773
-0.00726927734
-0.00725297277
-0.00703295282
-0.00704190776
-0.00727978121
-0.00728469242
-0.00725516746
-0.00720643371
-0.00703385894
-0.00703907396
-0.00726702415
-0.00721302665
-0.00703591583
-0.00703575487
-0.00703991483
-0.00727488522
-0.00725246037
-0.00703638933
-0.00703654067
-0.00704065496
-0.00730844408
-0.00730880803
-0.00727655517
-0.00719816955
-0.00703537976
-0.00703550552
-0.00703599686
-0.00703799834
-0.0070368346
-0.00703810856
-0.00703829195
-0.00707730357
-0.0073263111
-0.00732662868
-0.00728176728
-0.0072400269
-0.00703502464
-0.0070413594
-0.00727827491
-0.00728269507
-0.00725444606
-0.00718907634
-0.00703344902
-0.00703958034
-0.00703410929
-0.00704308202
-0.00727516712
-0.0072670482
-0.00703381916
-0.00704243547
-0.00728365562
-0.00728871576
-0.00726126293
-0.00719552952
-0.00703477672
-0.0070388618
-0.00703635217
-0.00704166809
-0.00730669395
-0.00730961285
-0.00726848384
-0.00726189233
-0.0072594465
-0.00720443092
-0.00703467415
-0.00703582104
-0.00726948285
-0.00724317726
-0.00703492043
-0.00703414753
-0.00703962337
-0.00703500887
-0.0070421225
-0.00728453208
-0.00728705296
-0.00703526531
-0.00704229159
-0.00728350936
-0.00726984914
-0.0070360136
-0.00704047204
-0.0072919004
-0.00725107916
-0.00703738941
-0.00703748153
-0.00703885774
-0.00731524567
-0.00731840061
-0.00727124447
-0.00727680045
-0.00720854284
-0.00703555183
-0.00703230646
-0.00703770269
-0.00703335141
-0.00703938417
-0.00703559496
-0.00703956526
-0.0073040108
-0.00726157949
-0.00703766689
-0.00703773346
-0.00703851966
-0.00730121747
-0.00730136147
-0.00727435631
-0.00721409622
-0.00703500704
-0.00703556142
-0.0070351445
-0.00703765886
-0.00730684927
-0.00731203969
-0.00723484211
-0.00703574672
-0.00703449545
-0.00728316213
-0.00725387271
-0.0070335242
-0.00703605986
-0.00727707395
-0.00727886604
-0.00725618759
-0.00722097324
-0.00703206747
-0.00703458812
-0.00725664364
-0.00724312978
-0.00703108656
-0.00703602209
-0.00725998119
-0.00725054736
-0.00703100501
-0.00703725335
-0.00726427495
-0.0072562714
-0.00703140349
-0.00703825291
-0.00726985096
-0.00726219352
-0.00703208398
-0.00703897918
-0.00727816745
-0.00726952761
-0.00703292856
-0.00703928338
-0.00729035296
-0.00729364312
-0.00727717327
-0.00722633191
-0.00703361291
-0.00703349161
-0.00703620675
-0.0072604445
-0.00725859702
-0.00703189573
-0.00703843524
-0.00727366947
-0.00728115125
-0.0071902995
-0.00703717885
-0.0070318707
-0.00703953524
-0.00703351276
-0.00704183849
-0.00730697283
-0.00731518762
-0.00726938594
-0.00728876648
-0.00721905136
-0.00703752693
-0.00703489514
-0.00728868314
-0.00724086448
-0.00703548852
-0.00703570688
-0.00703652596
-0.00703819229
-0.0070381045
-0.00704001933
-0.00731267827
-0.00726431342
-0.0070379188
-0.00703794291
-0.00703933065
-0.00730768791
-0.00730780368
-0.00728194538
-0.00724726803
-0.00703596808
-0.00703701878
-0.00727726748
-0.00725948977
-0.00703499189
-0.00703786536
-0.00727839522
-0.00727916909
-0.00726821569
-0.00722926435
-0.00703562886
-0.00703613858
-0.00728488568
-0.00722878602
-0.00703522328
-0.00703526241
-0.00703691925
-0.0072985544
-0.00729848076
-0.00728260883
-0.00723216332
-0.00703439723
-0.0070344881
-0.00703484008
-0.00703693622
-0.00703556346
-0.00703921798
-0.00731062777
-0.00731439555
-0.00724225865
-0.0070344227
-0.00703752793
-0.00727692293
-0.00728244507
-0.00721343588
-0.00703547769
-0.00703429534
-0.00726720193
-0.00721481824
-0.00703315608
-0.00703315087
-0.00703508608
-0.00725699086
-0.00724413782
-0.00703198181
-0.00703522196
-0.00703308058
-0.00703737128
-0.00703437678
-0.0070388003
-0.00733240106
-0.00733455224
-0.00729002844
-0.00728780595
-0.00726641164
-0.0072538559
-0.00725129012
-0.00719887965
-0.00703238943
-0.00703114269
-0.00703429911
-0.00703185909
-0.00703637323
-0.00703283316
-0.00703749806
-0.00729764577
-0.0073019226
-0.0072645154
-0.00727511077
-0.00716900735
-0.00703355806
-0.00703321357
-0.00703356547
-0.00703532655
-0.0073073467
-0.00731910011
-0.00723734282
-0.00703274262
-0.00703278485
-0.00703382054
-0.00728503667
-0.00728521594
-0.00726937071
-0.00722843538
-0.00703344135
-0.0070340874
-0.00703436627
-0.00703548939
-0.00729612509
-0.00729704953
-0.00727296077
-0.00726162396
-0.00726454134
-0.00721779666
-0.00703248187
-0.00703455318
-0.00727086195
-0.00727564728
-0.00722910263
-0.00703422196
-0.00703352994
-0.00703504078
-0.00703491104
-0.00727340875
-0.00724268621
-0.00703348605
-0.00703518608
-0.0070343116
-0.00703644234
-0.00703508823
-0.00703772924
-0.00731695178
-0.00732601738
-0.00725561902
-0.00703534423
-0.00703500069
-0.00703592794
-0.00703587937
-0.00729935974
-0.00729922334
-0.00727792833
-0.00725000684
-0.00703468505
-0.00703343682
-0.00726931495
-0.00725121684
-0.00703358289
-0.00703338812
-0.00727140086
-0.00725064525
-0.00703289495
-0.00703291477
-0.0072836286
-0.0072385718
-0.00703149924
-0.0070329394
-0.00703187332
-0.00728417029
-0.00728413149
-0.00727125454
-0.00724127265
-0.00703138974
-0.00703204635
-0.00727000147
-0.0072731858
-0.00722560628
-0.00703099099
-0.00703084032
-0.00726812277
-0.00727078218
-0.00720769077
-0.00703058499
-0.00702908348
-0.007031422
-0.00726085391
-0.00728272404
-0.0072263396
-0.00703181606
-0.00702830842
-0.00726550273
-0.00724354366
-0.00703131267
-0.00702928595
-0.00726323941
-0.00725127089
-0.00703095752
-0.00703001598
-0.00726287648
-0.00725466482
-0.00703102221
-0.00703061146
-0.00726549126
-0.007255579
-0.00703134122
-0.00703136842
-0.00727591481
-0.00725698994
-0.00703129304
-0.00703273057
-0.00703281878
-0.007033092
-0.00731038157
-0.0073115924
-0.00729187368
-0.00728121911
-0.00708727193
-0.00703591312
-0.00703567427
-0.00727675193
-0.00724860428
-0.00703104857
-0.00703473548
-0.00703007139
-0.0072714111
-0.00727141704
-0.00725996432
-0.00723858301
-0.00703279194
-0.00702905951
-0.00725793111
-0.0072461625
-0.00703105425
-0.00702978151
-0.00726500225
-0.00725466797
-0.00702815955
-0.00703193661
-0.00726593625
-0.00728128365
-0.00721936565
-0.00703189729
-0.00702729079
-0.00727792036
-0.00723996458
-0.00702810995
-0.00703048487
-0.00702766426
-0.00726922445
-0.00726922893
-0.00725757806
-0.00723189087
-0.00703095568
-0.00702872291
-0.00725808713
-0.0072190401
-0.00702929729
-0.00703197309
-0.00702954989
-0.00728041563
-0.00728095575
-0.00728445846
-0.00726375212
-0.00703162427
-0.00702903795
-0.00703223834
-0.00702905617
-0.00728285578
-0.00727745236
-0.00726432058
-0.00723885791
-0.00703113725
-0.00702967568
-0.00726396626
-0.00722404088
-0.00702921958
-0.00703042463
-0.00702970608
-0.00728004313
-0.0072858178
-0.00726450428
-0.00725860407
-0.00725347689
-0.00717339986
-0.00703105597
-0.00702899967
-0.00703172394
-0.00702931891
-0.00703252801
-0.00726280548
-0.00728837384
-0.00722457644
-0.00703086442
-0.00703119063
-0.00727541213
-0.00727905477
-0.00723260297
-0.00703176247
-0.00703113078
-0.00727395526
-0.00724760473
-0.00703278551
-0.00703273602
-0.00728356432
-0.00724128983
-0.00703097622
-0.00703375087
-0.00703168335
-0.00728824685
-0.00728821739
-0.00727307682
-0.00724613533
-0.00703289365
-0.00703164066
-0.00727396275
-0.00724354173
-0.00702961089
-0.00703164882
-0.00703023305
-0.00703247894
-0.00703162564
-0.00703316952
-0.00728496376
-0.00731638823
-0.00728589324
-0.00729102516
-0.00728125206
-0.00726612939
-0.0072748777
-0.00723783857
-0.00703233703
-0.00703173355
-0.00703438876
-0.00703217535
-0.00703647138
-0.00703296151
-0.00703817488
-0.00703406328
-0.00703928767
-0.00729826823
-0.00730762789
-0.00725648522
-0.00710235346
-0.00703393648
-0.00704032542
-0.00703442347
-0.00704017585
-0.0070354508
-0.00703935081
-0.00732549829
-0.00733033062
-0.00728243358
-0.00728248355
-0.00725433068
-0.00726227707
-0.00717683978
-0.00703490118
-0.00703313856
-0.00727692552
-0.00727986641
-0.00721222219
-0.0070360618
-0.00703312546
-0.00703778201
-0.00703444781
-0.00703908383
-0.00731224134
-0.0073267202
-0.0072289335
-0.00703873635
-0.00703501833
-0.00729882854
-0.00725904259
-0.00703662944
-0.00703669817
-0.00703709331
-0.00731971559
-0.00732202231
-0.00727330035
-0.00728158743
-0.00717827433
-0.00703500799
-0.00703338675
-0.00703501342
-0.0070341826
-0.00726665681
-0.0072395008
-0.00703445894
-0.00703453524
-0.00703504254
-0.00728022338
-0.00728152394
-0.00725144247
-0.00725628313
-0.00718934858
-0.00703113178
-0.00703443231
-0.00725496488
-0.00726187686
-0.00702682074
-0.0070415867
-0.0072283472
-0.0070408703
-0.00703086855
-0.00733344206
-0.00720865285
-0.00704014474
-0.0072849513
-0.00730613139
-0.00718875881
-0.00703722994
-0.00703583177
-0.00727888209
-0.00727921463
-0.00724574383
-0.00716087748
-0.00703541093
-0.00703458998
-0.00703623926
-0.00728841973
-0.00729158158
-0.0071837027
-0.0070360747
-0.00703599475
-0.00727431639
-0.00727704736
-0.00722436896
-0.0071374292
-0.00703255036
-0.00703565167
-0.00724392847
-0.00720484469
-0.0070331134
-0.00703295235
-0.00703471423
-0.00725292612
-0.00725002856
-0.00703145508
-0.00703483544
-0.00725974366
-0.00722177652
-0.00702759271
-0.0070335347
-0.00702223753
-0.00703618947
-0.00718596885
-0.00733444016
-0.00731514629
-0.00729424332
-0.00729240779
-0.00726862517
-0.00727927803
-0.00724075064
-0.00705980893
-0.00703356601
-0.00704584007
-0.0070345627
-0.00704179863
-0.00703534977
-0.00703747658
-0.00703650593
-0.00709883646
-0.00730030231
-0.00730225997
-0.00726275737
-0.00726630743
-0.00716921734
-0.00703409764
-0.00703214125
-0.0070297227
-0.00703281799
-0.00711534292
-0.00729286726
-0.00723370514
-0.00702319974
-0.00703518729
-0.00722477955
-0.00732394757
-0.00729362248
-0.00727535932
-0.00726384406
-0.00725515353
-0.00719356966
-0.00703493295
-0.00703300541
-0.00726866925
-0.00722277639
-0.00703116877
-0.00703343915
-0.00703046781
-0.00703575982
-0.00703153027
-0.00703688132
-0.00726407426
-0.00729342737
-0.0072780957
-0.00720758196
-0.00703483415
-0.00703484334
-0.00703885003
-0.00732143131
-0.00732479395
-0.00727301435
-0.00727967164
-0.00717259461
-0.00703437285
-0.0070343793
-0.00703309036
-0.00703642817
-0.00703339359
-0.00703776408
-0.00726586293
-0.00724070704
-0.00703432474
-0.00703427827
-0.00703524422
-0.00727658968
-0.00728679676
-0.00725852671
-0.00725766637
-0.00725081774
-0.00716399464
-0.00703300888
-0.00703491927
-0.00727519281
-0.00723606979
-0.00703510777
-0.00703531845
-0.00703872325
-0.00731065455
-0.00731058375
-0.00727062132
-0.00725068327
-0.00708701311
-0.00703473656
-0.00704211924
-0.0072554908
-0.00724820574
-0.00703167144
-0.00703783492
-0.00725839769
-0.00724236512
-0.0070296957
-0.00703610441
-0.00725840573
-0.00721202718
-0.00703047144
-0.00703601823
-0.00703241367
-0.00704098281
-0.00731263629
-0.0073179145
-0.00728073265
-0.00728071435
-0.00725773433
-0.00726383393
-0.00718365192
-0.00703561379
-0.00703829681
-0.00729872784
-0.00730294926
-0.0072327333
-0.00703572198
-0.00703631045
-0.00703675108
-0.00703859855
-0.00726080047
-0.00721739094
-0.00702987481
-0.00703355992
-0.00702586712
-0.00703447701
-0.0072066846
-0.007280937
-0.00726508414
-0.00718151988
-0.00702813703
-0.00703359755
-0.00725968295
-0.00720104628
-0.00702992545
-0.00703452606
-0.00703176234
-0.00703671508
-0.00728814001
-0.00730730409
-0.00727379172
-0.00727344366
-0.00727056589
-0.00724665127
-0.00707527965
-0.00703639968
-0.00703713154
-0.00703619932
-0.00725133028
-0.00721792226
-0.00702928393
-0.00703537202
-0.00702984746
-0.00703670986
-0.00728143151
-0.0073017638
-0.00726141931
-0.00727107579
-0.0071791551
-0.00702876902
-0.00702917287
-0.00702421926
-0.0070319389
-0.0072021545
-0.00729931251
-0.00728854704
-0.00721737183
-0.00703069598
-0.00703488557
-0.00727810166
-0.00728148049
-0.00723811142
-0.00717932372
-0.00703121034
-0.00703252517
-0.00723892338
-0.00717236741
-0.00703001596
-0.00702704143
-0.00703288633
-0.00702658566
-0.0070350794
-0.00725252548
-0.00731078985
-0.00727308108
-0.00727316632
-0.00726957006
-0.00714718305
-0.00703577242
-0.00703571367
-0.00703679225
-0.00730087472
-0.00730110017
-0.00726401267
-0.00722108158
-0.00703520702
-0.00703440067
-0.00727982597
-0.00724659205
-0.00703566514
-0.0070356667
-0.00703657551
-0.00731461991
-0.00731700254
-0.00726710871
-0.00726717008
-0.00713955005
-0.00703963576
-0.00703458246
-0.00704050381
-0.00703592458
-0.00703918841
-0.00730634115
-0.00730850797
-0.0072567036
-0.0071940483
-0.0070331396
-0.00703344034
-0.00702878236
-0.00703465406
-0.00713138927
-0.00730905963
-0.007309591
-0.00722263744
-0.00703475855
-0.00703482728
-0.00728691435
-0.00728735365
-0.00725173468
-0.00719091717
-0.00703489759
-0.00703423023
-0.00703491842
-0.00728439242
-0.00728743025
-0.00717930009
-0.00703310032
-0.00703205366
-0.00702841628
-0.00703366135
-0.00713502163
-0.00729976136
-0.00729297799
-0.0072556605
-0.00723395386
-0.00702935244
-0.00704043483
-0.00721344178
-0.00704099132
-0.0070340783
-0.0072900526
-0.00724005033
-0.00703886336
-0.00703565771
-0.00704286677
-0.00703743013
-0.00704575468
-0.00731043324
-0.00731321343
-0.00726472279
-0.0072084437
-0.00703315632
-0.00703541477
-0.0070267058
-0.00703815569
-0.00717112738
-0.00732927065
-0.00731589608
-0.00729105494
-0.00728885148
-0.00726533761
-0.00727106915
-0.00719951939
-0.00703656571
-0.00703306842
-0.00703860705
-0.00703461529
-0.00703875921
-0.00703731749
-0.0070720118
-0.0073140754
-0.00725528093
-0.00703846191
-0.00703807668
-0.00704317796
-0.00731631393
-0.0073167434
-0.00727092928
-0.00722575177
-0.00703545811
-0.00704038509
-0.00726848574
-0.0072249373
-0.00703434085
-0.00704026624
-0.00703581773
-0.00704538881
-0.00729481148
-0.00729829524
-0.00726381671
-0.00721491876
-0.00703622412
-0.00703559458
-0.0070414387
-0.00703786511
-0.00705093339
-0.00733403099
-0.00733642676
-0.00728642436
-0.00727841571
-0.00726893849
-0.00721628715
-0.00703597213
-0.00703369561
-0.00703879922
-0.00703523689
-0.00704288595
-0.00703712689
-0.00704962421
-0.00730615043
-0.00725883658
-0.00703809163
-0.00703785584
-0.00704342972
-0.00729863284
-0.0072997607
-0.00726579063
-0.00720564087
-0.00703607268
-0.00703997287
-0.00703687334
-0.0070452551
-0.00729450856
-0.00729730755
-0.00727944871
-0.00723901023
-0.00703464896
-0.00704147545
-0.00729752668
-0.00729938546
-0.00728345475
-0.00721611869
-0.00703357043
-0.00703538448
-0.00703446527
-0.00704086726
-0.00703530097
-0.00704552852
-0.00728836819
-0.00729434257
-0.00726055086
-0.00725844952
-0.00712084662
-0.00703666214
-0.00703425289
-0.00703948375
-0.007276648
-0.00728888854
-0.00721171109
-0.00703530289
-0.00703802265
-0.00728714174
-0.00725688661
-0.00703362066
-0.00704008026
-0.00728488355
-0.00728727459
-0.00726544178
-0.00721120126
-0.00703478684
-0.0070389546
-0.0070362232
-0.00704364566
-0.00728688678
-0.00725490512
-0.00703721599
-0.00703727826
-0.0070436026
-0.00730941809
-0.00731469578
-0.00727301559
-0.00728252183
-0.007220586
-0.00703524329
-0.00703316025
-0.00703856362
-0.0070348641
-0.00704160925
-0.00729732012
-0.00730572714
-0.00722516138
-0.00703647393
-0.00703342658
-0.00703918129
-0.00730159803
-0.00731263328
-0.00723076734
-0.007034702
-0.00703192024
-0.00703804137