/*--------------------------------*- C++ -*----------------------------------*\
| =========                 |                                                 |
| \\      /  F ield         | OpenFOAM: The Open Source CFD Toolbox           |
|  \\    /   O peration     | Version:  2306                                  |
|   \\  /    A nd           | Website:  www.openfoam.com                      |
|    \\/     M anipulation  |                                                 |
\*---------------------------------------------------------------------------*/
FoamFile
{
    version     2.0;
    format      ascii;
    arch        "LSB;label=32;scalar=64";
    class       surfaceScalarField;
    location    "0.00048";
    object      phi;
}
// * * * * * * * * * * * * * * * * * * * * * * * * * * * * * * * * * * * * * //

dimensions      [1 0 -1 0 0 0 0];

oriented        oriented;

internalField   nonuniform List<scalar> 
530
(
3.32148559e-06
3.47785191e-06
3.61259182e-06
3.7138685e-06
3.76774595e-06
3.86323231e-06
4.1881167e-06
4.28279883e-06
4.17738793e-06
4.28742709e-06
4.37113342e-06
4.66577558e-06
4.86160559e-06
4.92797057e-06
5.02411689e-06
4.75424576e-06
4.75142424e-06
5.28342748e-06
5.45445541e-06
5.52875994e-06
5.53061205e-06
5.65052016e-06
6.07660927e-06
6.11976939e-06
5.9706984e-06
6.02251643e-06
6.30075402e-06
6.36745692e-06
6.49637874e-06
6.56930866e-06
6.33822405e-06
6.35138702e-06
6.42655084e-06
6.91051055e-06
6.9410658e-06
6.7348706e-06
6.75755526e-06
6.94312941e-06
7.10377216e-06
7.16340678e-06
6.84613122e-06
6.82169097e-06
6.80008334e-06
6.92580163e-06
7.02303826e-06
7.037358e-06
7.03359037e-06
7.01363896e-06
7.02854101e-06
6.81896733e-06
6.81564314e-06
6.84179898e-06
6.90035427e-06
6.93964857e-06
6.91529353e-06
6.84879532e-06
6.95186569e-06
6.91656872e-06
6.87912822e-06
6.77580468e-06
6.75001703e-06
6.71854666e-06
6.64289157e-06
6.54859406e-06
6.45913915e-06
6.36629208e-06
6.260634e-06
6.14706256e-06
6.02765908e-06
5.90343996e-06
5.7735509e-06
5.63820257e-06
5.49819086e-06
5.35406618e-06
5.2062498e-06
5.05518102e-06
4.9013144e-06
4.74517222e-06
4.58733261e-06
4.42843467e-06
4.26916234e-06
4.11023026e-06
3.95236567e-06
3.79629446e-06
3.64273347e-06
3.49238812e-06
3.34594992e-06
3.20409481e-06
3.06748074e-06
2.93674347e-06
2.81248989e-06
2.69528954e-06
2.58566443e-06
2.48407837e-06
2.3909266e-06
2.30652733e-06
2.2311158e-06
2.16484194e-06
2.10777179e-06
2.05989261e-06
2.0211212e-06
1.99131448e-06
1.97028137e-06
1.95779485e-06
1.9536035e-06
1.95744168e-06
1.96903824e-06
1.98812345e-06
2.01443432e-06
2.04771845e-06
2.08773664e-06
2.13426451e-06
2.18709345e-06
2.24603103e-06
2.31090098e-06
2.38154247e-06
2.45780835e-06
2.53956202e-06
2.62667256e-06
2.7190083e-06
2.81642932e-06
2.91877903e-06
3.02587535e-06
3.13750187e-06
3.25339948e-06
3.37325909e-06
3.49671566e-06
3.62334383e-06
3.75265532e-06
3.88409863e-06
4.01706073e-06
4.15087097e-06
4.28480638e-06
4.41809785e-06
4.54993656e-06
4.6794802e-06
4.80585864e-06
4.92817902e-06
5.04553042e-06
5.15698853e-06
5.26162034e-06
5.35848924e-06
5.44666073e-06
5.52520867e-06
5.59322207e-06
5.64981236e-06
5.69412172e-06
5.72533245e-06
5.74267748e-06
5.7454515e-06
5.73302203e-06
5.7048399e-06
5.6604486e-06
5.59949262e-06
5.52172468e-06
5.42701209e-06
5.31534227e-06
5.18682725e-06
5.0417074e-06
4.88035402e-06
4.70327077e-06
4.51109393e-06
4.30459125e-06
4.08465922e-06
3.85231891e-06
3.60871008e-06
3.35508347e-06
3.09279126e-06
2.82327564e-06
2.54805565e-06
2.26871257e-06
1.98687427e-06
1.70419854e-06
1.42235572e-06
1.14301037e-06
8.67802538e-07
5.98329067e-07
3.36124055e-07
8.26353576e-08
-1.60819825e-07
-3.93269014e-07
-6.13077301e-07
-8.19460517e-07
-1.01145669e-06
-1.18830836e-06
-1.3493855e-06
-1.4942138e-06
-1.62247136e-06
-1.73396931e-06
-1.82865032e-06
-1.90658874e-06
-1.9679855e-06
-2.01316064e-06
-2.04254456e-06
-2.05666797e-06
-2.05615193e-06
-2.04169849e-06
-2.01408003e-06
-1.97412815e-06
-1.92272391e-06
-1.86078884e-06
-1.78927522e-06
-1.70915546e-06
-1.62141157e-06
-1.52702559e-06
-1.42697113e-06
-1.32220561e-06
-1.21366255e-06
-1.10224505e-06
-9.88819602e-07
-8.74210233e-07
-7.5919353e-07
-6.44494757e-07
-5.30785833e-07
-4.18685336e-07
-3.08758332e-07
-2.01510572e-07
-9.73688736e-08
3.34771028e-09
1.00464323e-07
1.93265822e-07
2.81315109e-07
3.64795166e-07
4.43801984e-07
5.18210258e-07
5.87919352e-07
6.52947868e-07
7.13398253e-07
7.69407279e-07
8.21128471e-07
8.68733551e-07
9.12415466e-07
9.52386465e-07
9.88874882e-07
1.02212297e-06
1.05238374e-06
1.07991513e-06
1.10497256e-06
1.12780242e-06
1.1486385e-06
1.16770075e-06
1.18519523e-06
1.20131332e-06
1.21622988e-06
1.23010081e-06
1.24306085e-06
1.2552224e-06
1.26667558e-06
1.27748933e-06
1.28771293e-06
1.29737752e-06
1.3064975e-06
1.31507169e-06
1.3230845e-06
1.33050734e-06
1.33730019e-06
1.34341342e-06
1.34878968e-06
1.35336567e-06
1.35707371e-06
1.35984272e-06
1.36159882e-06
1.36226562e-06
1.3617644e-06
1.36001418e-06
1.35693193e-06
1.35243282e-06
1.34643051e-06
1.33883753e-06
1.32956556e-06
1.31852588e-06
1.30562974e-06
1.29078896e-06
1.27391655e-06
1.2549276e-06
1.2337403e-06
1.21027728e-06
1.18446713e-06
1.15624616e-06
1.12556039e-06
1.09236756e-06
1.05663925e-06
1.0183629e-06
9.77543788e-07
9.34206716e-07
8.88397607e-07
8.40184769e-07
7.89659893e-07
7.36938695e-07
6.82161191e-07
6.25491561e-07
5.67117585e-07
5.07249654e-07
4.46119373e-07
3.83977767e-07
3.21093161e-07
2.57748758e-07
1.94240026e-07
1.30872036e-07
6.79571596e-08
5.81421085e-09
-5.52269505e-08
-1.14942316e-07
-1.72954261e-07
-2.28986708e-07
-2.82764348e-07
-3.34022558e-07
-3.82507838e-07
-4.27980869e-07
-4.70223835e-07
-5.09044832e-07
-5.44270959e-07
-5.75745178e-07
-6.03335276e-07
-6.26928285e-07
-6.46436349e-07
-6.61800863e-07
-6.72988263e-07
-6.79987186e-07
-6.8280856e-07
-6.8148704e-07
-6.76082353e-07
-6.6668021e-07
-6.53391219e-07
-6.36350566e-07
-6.15717213e-07
-5.91672321e-07
-5.644174e-07
-5.3417182e-07
-5.01169934e-07
-4.65658952e-07
-4.27897168e-07
-3.88150504e-07
-3.466883e-07
-3.03779149e-07
-2.59687559e-07
-2.14670134e-07
-1.68972739e-07
-1.22827521e-07
-7.64488619e-08
-3.00360379e-08
1.62495193e-08
6.22535715e-08
1.0786119e-07
1.52988347e-07
1.97580477e-07
2.41611743e-07
2.85084598e-07
3.2802928e-07
3.70502953e-07
4.12588379e-07
4.54392121e-07
4.96042354e-07
5.37686442e-07
5.79488334e-07
6.216259e-07
6.64288256e-07
7.07673129e-07
7.51984307e-07
7.97429242e-07
8.44216762e-07
8.92554927e-07
9.42649039e-07
9.94699785e-07
1.04890153e-06
1.10544073e-06
1.16449447e-06
1.22622918e-06
1.29079938e-06
1.35834665e-06
1.42899878e-06
1.50286897e-06
1.58005534e-06
1.66064059e-06
1.74469191e-06
1.83226107e-06
1.92338476e-06
2.01808497e-06
2.11636967e-06
2.21823334e-06
2.3236576e-06
2.43261156e-06
2.54505207e-06
2.66092362e-06
2.78015788e-06
2.90267303e-06
3.02837282e-06
3.15714541e-06
3.28886238e-06
3.42337774e-06
3.56052749e-06
3.70012949e-06
3.84198383e-06
3.9858739e-06
4.1315684e-06
4.2788234e-06
4.42738519e-06
4.57699319e-06
4.72738398e-06
4.87829619e-06
5.0294751e-06
5.18067656e-06
5.33167301e-06
5.48226243e-06
5.63227539e-06
5.78157883e-06
5.9300871e-06
6.07776901e-06
6.22466021e-06
6.37087069e-06
6.51659027e-06
6.66209919e-06
6.80778159e-06
6.9541328e-06
7.10176209e-06
7.25140134e-06
7.40390545e-06
7.56025233e-06
7.7215316e-06
7.88892537e-06
8.06368394e-06
8.24709464e-06
8.44044367e-06
8.64498026e-06
8.86188613e-06
9.09226064e-06
9.33712207e-06
9.59743123e-06
9.87412418e-06
1.01681481e-05
1.04804649e-05
1.08120048e-05
1.11635705e-05
1.15356951e-05
1.19284002e-05
1.23409303e-05
1.27718348e-05
1.32193745e-05
1.36814863e-05
1.41567301e-05
1.46436513e-05
1.51426282e-05
1.56587636e-05
1.61974041e-05
1.67551053e-05
1.73346448e-05
1.79260634e-05
1.85486419e-05
1.92004163e-05
1.98189624e-05
2.0358192e-05
2.09413697e-05
2.16804763e-05
2.2280929e-05
2.28249432e-05
2.31731533e-05
2.37827869e-05
2.4289848e-05
2.48594838e-05
2.40361121e-05
2.42434277e-05
2.48669796e-05
2.54691708e-05
2.4481551e-05
2.4430822e-05
2.53678704e-05
2.59813622e-05
2.59410008e-05
2.40790582e-05
2.36748811e-05
2.41872607e-05
2.37583666e-05
2.31631518e-05
2.24704046e-05
2.18023006e-05
2.09613143e-05
1.88397652e-05
1.78822317e-05
1.76278538e-05
1.70396654e-05
1.60482462e-05
1.41931271e-05
1.32021574e-05
1.26240922e-05
1.18796242e-05
1.09100017e-05
9.4410954e-06
8.61580974e-06
8.05726364e-06
7.5194787e-06
6.8038903e-06
5.78154276e-06
5.1901468e-06
4.85624173e-06
4.38680705e-06
3.90352091e-06
3.35615719e-06
2.95305919e-06
2.62601023e-06
2.20730499e-06
1.87055863e-06
1.70588617e-06
1.42609299e-06
1.13916226e-06
8.81249525e-07
7.00340777e-07
5.1318659e-07
3.63985431e-07
2.15878708e-07
7.62678259e-08
-6.26458033e-08
-1.99089813e-07
-2.71811367e-07
-1.04117904e-07
-1.39413499e-07
-1.66471781e-07
-2.55052961e-07
-2.95898792e-09
2.64625445e-09
-3.54108696e-08
-8.65232049e-08
-6.0292546e-08
6.43135993e-08
1.54650677e-07
2.35226692e-07
2.66063414e-07
4.89985779e-07
5.99727876e-07
6.552676e-07
6.66547214e-07
)
;

boundaryField
{
    closed
    {
        type            calculated;
        value           nonuniform List<scalar> 0();
    }
    open
    {
        type            calculated;
        value           nonuniform List<scalar> 0();
    }
    sides
    {
        type            empty;
        value           nonuniform List<scalar> 0();
    }
    procBoundary3to2
    {
        type            processor;
        value           uniform -3.21524395e-06;
    }
    procBoundary3to4
    {
        type            processor;
        value           uniform 6.41947793e-07;
    }
}


// ************************************************************************* //
