/*--------------------------------*- C++ -*----------------------------------*\
| =========                 |                                                 |
| \\      /  F ield         | OpenFOAM: The Open Source CFD Toolbox           |
|  \\    /   O peration     | Version:  2306                                  |
|   \\  /    A nd           | Website:  www.openfoam.com                      |
|    \\/     M anipulation  |                                                 |
\*---------------------------------------------------------------------------*/
FoamFile
{
    version     2.0;
    format      ascii;
    arch        "LSB;label=32;scalar=64";
    class       volScalarField;
    location    "0.00048";
    object      prefDh_H2;
}
// * * * * * * * * * * * * * * * * * * * * * * * * * * * * * * * * * * * * * //

dimensions      [1 1 -3 0 0 0 0];

internalField   nonuniform List<scalar> 
531
(
38.2658877
29.0324714
25.3277924
28.870014
37.9874609
38.8848115
25.6422559
21.4574793
35.5383143
37.1594739
37.5178323
37.3991197
29.0835413
24.8306829
22.992718
26.2506158
37.9133912
34.0360849
26.1540267
29.0871368
37.9085181
38.7607513
27.1593697
26.2111316
36.94682
38.4391903
32.1377672
29.028938
22.7316779
22.6805594
29.3881323
37.8815347
38.5534873
25.8512493
23.2185115
37.1211508
37.9076708
29.9972292
23.5831678
23.5358511
37.7197149
38.5856269
38.5722072
28.8917857
28.369697
29.3796477
29.2068046
26.3089946
26.2514304
36.728083
38.7433005
38.5413804
28.4100695
25.1636876
28.8213255
32.1731707
32.1886249
28.8839745
28.8636375
29.3343862
29.838934
29.0136325
28.7418851
28.8711848
29.0581115
29.0108842
28.9106282
28.906259
28.9312804
28.9328872
28.9252908
28.9204752
28.9199062
28.9195602
28.9190293
28.9183738
28.9177694
28.9174755
28.9172731
28.917098
28.9169501
28.9168467
28.9167755
28.9167262
28.916683
28.9166538
28.9166344
28.9166205
28.9166102
28.9166029
28.9165979
28.9165944
28.9165919
28.9165902
28.9165891
28.9165883
28.9165877
28.9165874
28.9165871
28.916587
28.9165868
28.9165868
28.9165867
28.9165867
28.9165867
28.9165867
28.9165866
28.9165866
28.9165866
28.9165866
28.9165866
28.9165866
28.9165866
28.9165866
28.9165867
28.9165866
28.9165865
28.9165865
28.9165868
28.9165868
28.9165864
28.9165863
28.9165867
28.9165871
28.9165867
28.9165861
28.9165863
28.9165871
28.9165871
28.9165864
28.9165861
28.9165865
28.916587
28.9165868
28.9165864
28.9165864
28.9165867
28.9165867
28.9165867
28.9165866
28.9165866
28.9165866
28.9165866
28.9165866
28.9165866
28.9165866
28.9165866
28.9165866
28.9165866
28.9165866
28.9165866
28.9165866
28.9165866
28.9165866
28.9165866
28.9165866
28.9165866
28.9165866
28.9165866
28.9165866
28.9165866
28.9165866
28.9165867
28.9165866
28.9165866
28.9165866
28.9165866
28.9165866
28.9165866
28.9165866
28.9165866
28.9165866
28.9165866
28.9165866
28.9165866
28.9165866
28.9165866
28.9165866
28.9165866
28.9165866
28.9165866
28.9165866
28.9165866
28.9165866
28.9165866
28.9165866
28.9165866
28.9165866
28.9165866
28.9165866
28.9165866
28.9165866
28.9165866
28.9165866
28.9165866
28.9165866
28.9165866
28.9165866
28.9165866
28.9165866
28.9165866
28.9165866
28.9165866
28.9165866
28.9165866
28.9165866
28.9165866
28.9165866
28.9165866
28.9165866
28.9165866
28.9165866
28.9165866
28.9165866
28.9165866
28.9165866
28.9165866
28.9165866
28.9165866
28.9165866
28.9165866
28.9165866
28.9165866
28.9165866
28.9165866
28.9165866
28.9165866
28.9165866
28.9165866
28.9165866
28.9165866
28.9165866
28.9165866
28.9165866
28.9165866
28.9165866
28.9165866
28.9165866
28.9165866
28.9165866
28.9165866
28.9165866
28.9165866
28.9165866
28.9165866
28.9165866
28.9165866
28.9165866
28.9165866
28.9165866
28.9165866
28.9165866
28.9165866
28.9165866
28.9165866
28.9165866
28.9165866
28.9165866
28.9165866
28.9165866
28.9165866
28.9165866
28.9165866
28.9165866
28.9165866
28.9165866
28.9165866
28.9165866
28.9165866
28.9165866
28.9165866
28.9165866
28.9165866
28.9165866
28.9165866
28.9165866
28.9165866
28.9165866
28.9165866
28.9165866
28.9165866
28.9165866
28.9165866
28.9165866
28.9165866
28.9165866
28.9165866
28.9165866
28.9165866
28.9165866
28.9165866
28.9165866
28.9165866
28.9165866
28.9165866
28.9165866
28.9165866
28.9165866
28.9165866
28.9165866
28.9165866
28.9165866
28.9165866
28.9165866
28.9165866
28.9165866
28.9165866
28.9165866
28.9165866
28.9165866
28.9165866
28.9165866
28.9165866
28.9165866
28.9165866
28.9165866
28.9165866
28.9165866
28.9165866
28.9165866
28.9165866
28.9165866
28.9165866
28.9165866
28.9165866
28.9165866
28.9165866
28.9165866
28.9165866
28.9165866
28.9165866
28.9165866
28.9165866
28.9165866
28.9165866
28.9165866
28.9165866
28.9165866
28.9165866
28.9165866
28.9165866
28.9165866
28.9165866
28.9165866
28.9165866
28.9165866
28.9165866
28.9165866
28.9165866
28.9165866
28.9165866
28.9165866
28.9165866
28.9165866
28.9165866
28.9165866
28.9165866
28.9165866
28.9165866
28.9165866
28.9165866
28.9165866
28.9165866
28.9165866
28.9165866
28.9165866
28.9165866
28.9165866
28.9165866
28.9165866
28.9165866
28.9165866
28.9165866
28.9165866
28.9165866
28.9165866
28.9165866
28.9165866
28.9165866
28.9165866
28.9165866
28.9165866
28.9165866
28.9165867
28.9165866
28.9165866
28.9165867
28.9165868
28.9165866
28.9165862
28.9165866
28.9165876
28.9165872
28.9165847
28.9165847
28.9165899
28.9165905
28.9165829
28.9165795
28.9165893
28.9165975
28.916588
28.9165719
28.9165782
28.9166037
28.9166039
28.9165705
28.9165646
28.9165932
28.9166102
28.9165917
28.9165658
28.916573
28.9166013
28.9166023
28.9165801
28.9165744
28.9165857
28.9165947
28.916591
28.9165825
28.9165823
28.9165876
28.9165898
28.9165897
28.9165859
28.9165812
28.9165814
28.916604
28.9166103
28.9165608
28.9165212
28.9166318
28.9168338
28.9166557
28.9159573
28.9160453
28.9184149
28.9187756
28.9136237
28.9109624
28.9201139
28.9348246
28.924006
28.8782719
28.8791832
29.0114395
29.050704
28.8271804
28.7234894
28.9702621
29.7017944
29.2766326
28.8202167
28.7880778
31.2236314
31.9188791
28.9854068
26.8386867
31.4378749
38.0539106
28.6859547
24.3930524
29.4610736
37.5383908
30.7154881
26.8488992
26.0374805
33.1719724
38.5353157
32.3487374
28.4698438
29.1761934
28.9426073
27.706581
27.4210709
33.5954988
38.5064083
31.2773484
27.9942835
27.5952177
34.3850302
38.6125811
30.1197904
25.9425693
25.791917
34.0070259
38.3238082
29.9829399
23.9837186
21.5480609
29.9621767
37.7241687
31.0602107
26.5309451
25.3012061
32.8276836
38.4406383
29.6686488
27.2058384
28.8144032
36.8922111
38.4133731
29.4789953
21.9709002
21.1095156
32.1264854
38.1409455
38.1635375
29.3399187
26.2598695
23.5946322
23.9519228
34.1472964
38.4969555
28.9469775
27.3584184
34.3736689
38.23599
29.171044
25.991328
28.7696742
38.0567404
38.5444451
28.9416982
22.7889301
32.6218672
37.7936793
28.9260478
24.5425303
28.6205815
)
;

boundaryField
{
    closed
    {
        type            calculated;
        value           nonuniform List<scalar> 0();
    }
    open
    {
        type            calculated;
        value           nonuniform List<scalar> 0();
    }
    sides
    {
        type            empty;
    }
    procBoundary3to2
    {
        type            processor;
        value           uniform 33.823824;
    }
    procBoundary3to4
    {
        type            processor;
        value           uniform 38.2412771;
    }
}


// ************************************************************************* //
