/*--------------------------------*- C++ -*----------------------------------*\
| =========                 |                                                 |
| \\      /  F ield         | OpenFOAM: The Open Source CFD Toolbox           |
|  \\    /   O peration     | Version:  2306                                  |
|   \\  /    A nd           | Website:  www.openfoam.com                      |
|    \\/     M anipulation  |                                                 |
\*---------------------------------------------------------------------------*/
FoamFile
{
    version     2.0;
    format      ascii;
    arch        "LSB;label=32;scalar=64";
    class       volScalarField;
    location    "0.00048";
    object      PV;
}
// * * * * * * * * * * * * * * * * * * * * * * * * * * * * * * * * * * * * * //

dimensions      [0 0 0 0 0 0 0];

internalField   nonuniform List<scalar> 
531
(
-0.00700998761
-0.00714397966
-0.00724017318
-0.0071994357
-0.00701309868
-0.00700433319
-0.00723663143
-0.00726269392
-0.00703478944
-0.00702094919
-0.00701726479
-0.00701867185
-0.00721560248
-0.00724631161
-0.00725437157
-0.00723534668
-0.00701309049
-0.0070497856
-0.00723291989
-0.00719453461
-0.00701341891
-0.00700568996
-0.00722746788
-0.00723243173
-0.00702283111
-0.00700805689
-0.00707433587
-0.00720828895
-0.00725574403
-0.00725258377
-0.00711660029
-0.00701335609
-0.00700696495
-0.00723365755
-0.00725276071
-0.0070209604
-0.0070131141
-0.00711149356
-0.00725030043
-0.00724841024
-0.00701530791
-0.00700668843
-0.00700666953
-0.00714658888
-0.00721628409
-0.00720575087
-0.00719896219
-0.00723550086
-0.00722942601
-0.00702434588
-0.00700485914
-0.0070069195
-0.00716554575
-0.00724276359
-0.00719412043
-0.00707134051
-0.00707008117
-0.0071799095
-0.00718301747
-0.00712298485
-0.0071086891
-0.00713226052
-0.00714535807
-0.00713667871
-0.00712843543
-0.00712976637
-0.00713331262
-0.00713326057
-0.00713198842
-0.00713177216
-0.0071319573
-0.00713204562
-0.00713200669
-0.00713195738
-0.00713194199
-0.00713193713
-0.00713193456
-0.00713193072
-0.00713192376
-0.00713192031
-0.00713191923
-0.00713191814
-0.00713191648
-0.00713191549
-0.00713191497
-0.00713191457
-0.00713191421
-0.00713191396
-0.0071319138
-0.00713191369
-0.0071319136
-0.00713191354
-0.0071319135
-0.00713191346
-0.00713191344
-0.00713191343
-0.00713191342
-0.0071319134
-0.0071319134
-0.00713191339
-0.00713191339
-0.00713191338
-0.00713191338
-0.00713191338
-0.00713191337
-0.00713191337
-0.00713191337
-0.00713191336
-0.00713191336
-0.00713191336
-0.00713191336
-0.00713191336
-0.00713191335
-0.00713191335
-0.00713191334
-0.00713191334
-0.00713191334
-0.00713191334
-0.00713191333
-0.00713191332
-0.00713191333
-0.00713191334
-0.00713191332
-0.0071319133
-0.00713191331
-0.00713191333
-0.00713191332
-0.00713191328
-0.00713191327
-0.0071319133
-0.0071319133
-0.00713191328
-0.00713191326
-0.00713191326
-0.00713191327
-0.00713191326
-0.00713191325
-0.00713191324
-0.00713191324
-0.00713191323
-0.00713191323
-0.00713191321
-0.00713191321
-0.0071319132
-0.00713191319
-0.00713191319
-0.00713191318
-0.00713191317
-0.00713191316
-0.00713191316
-0.00713191315
-0.00713191314
-0.00713191313
-0.00713191312
-0.00713191312
-0.00713191311
-0.0071319131
-0.00713191309
-0.00713191309
-0.00713191308
-0.00713191308
-0.00713191307
-0.00713191306
-0.00713191306
-0.00713191305
-0.00713191305
-0.00713191304
-0.00713191303
-0.00713191303
-0.00713191302
-0.00713191302
-0.00713191302
-0.00713191302
-0.00713191301
-0.00713191301
-0.00713191301
-0.00713191301
-0.00713191301
-0.007131913
-0.00713191301
-0.007131913
-0.007131913
-0.00713191301
-0.00713191301
-0.00713191301
-0.00713191301
-0.00713191301
-0.00713191301
-0.00713191302
-0.00713191302
-0.00713191302
-0.00713191302
-0.00713191303
-0.00713191303
-0.00713191303
-0.00713191304
-0.00713191304
-0.00713191304
-0.00713191304
-0.00713191304
-0.00713191305
-0.00713191305
-0.00713191305
-0.00713191306
-0.00713191306
-0.00713191306
-0.00713191306
-0.00713191307
-0.00713191307
-0.00713191307
-0.00713191307
-0.00713191307
-0.00713191307
-0.00713191307
-0.00713191307
-0.00713191308
-0.00713191307
-0.00713191308
-0.00713191307
-0.00713191308
-0.00713191308
-0.00713191308
-0.00713191307
-0.00713191308
-0.00713191307
-0.00713191307
-0.00713191307
-0.00713191307
-0.00713191307
-0.00713191307
-0.00713191307
-0.00713191307
-0.00713191307
-0.00713191307
-0.00713191306
-0.00713191306
-0.00713191306
-0.00713191306
-0.00713191306
-0.00713191306
-0.00713191305
-0.00713191305
-0.00713191305
-0.00713191305
-0.00713191305
-0.00713191305
-0.00713191304
-0.00713191305
-0.00713191304
-0.00713191304
-0.00713191304
-0.00713191304
-0.00713191303
-0.00713191304
-0.00713191303
-0.00713191303
-0.00713191303
-0.00713191303
-0.00713191302
-0.00713191303
-0.00713191302
-0.00713191302
-0.00713191302
-0.00713191302
-0.00713191302
-0.00713191301
-0.00713191301
-0.00713191301
-0.00713191301
-0.00713191301
-0.007131913
-0.007131913
-0.007131913
-0.007131913
-0.007131913
-0.00713191299
-0.007131913
-0.00713191299
-0.00713191299
-0.00713191299
-0.00713191299
-0.00713191299
-0.00713191298
-0.00713191299
-0.00713191298
-0.00713191298
-0.00713191298
-0.00713191298
-0.00713191298
-0.00713191298
-0.00713191298
-0.00713191298
-0.00713191298
-0.00713191297
-0.00713191298
-0.00713191297
-0.00713191297
-0.00713191297
-0.00713191297
-0.00713191297
-0.00713191297
-0.00713191297
-0.00713191297
-0.00713191297
-0.00713191297
-0.00713191297
-0.00713191297
-0.00713191297
-0.00713191297
-0.00713191297
-0.00713191297
-0.00713191297
-0.00713191297
-0.00713191298
-0.00713191298
-0.00713191298
-0.00713191298
-0.00713191298
-0.00713191298
-0.00713191298
-0.00713191298
-0.00713191298
-0.00713191299
-0.00713191298
-0.00713191299
-0.00713191299
-0.00713191299
-0.00713191299
-0.00713191299
-0.00713191299
-0.00713191299
-0.00713191299
-0.00713191299
-0.00713191299
-0.00713191299
-0.007131913
-0.00713191299
-0.00713191299
-0.00713191299
-0.00713191299
-0.00713191299
-0.00713191299
-0.00713191299
-0.00713191299
-0.00713191299
-0.00713191299
-0.00713191299
-0.00713191299
-0.00713191299
-0.00713191299
-0.00713191299
-0.00713191299
-0.00713191299
-0.00713191299
-0.00713191299
-0.00713191299
-0.00713191299
-0.00713191299
-0.00713191298
-0.00713191298
-0.00713191298
-0.00713191298
-0.00713191298
-0.00713191298
-0.00713191298
-0.00713191297
-0.00713191297
-0.00713191297
-0.00713191297
-0.00713191297
-0.00713191296
-0.00713191296
-0.00713191296
-0.00713191296
-0.00713191295
-0.00713191296
-0.00713191295
-0.00713191295
-0.00713191294
-0.00713191294
-0.00713191294
-0.00713191294
-0.00713191293
-0.00713191293
-0.00713191293
-0.00713191292
-0.00713191292
-0.0071319129
-0.00713191291
-0.00713191292
-0.0071319129
-0.00713191286
-0.00713191287
-0.00713191296
-0.00713191296
-0.00713191274
-0.00713191271
-0.00713191301
-0.00713191314
-0.00713191274
-0.00713191241
-0.00713191278
-0.00713191341
-0.00713191315
-0.00713191213
-0.00713191212
-0.00713191343
-0.00713191366
-0.00713191252
-0.00713191184
-0.00713191256
-0.00713191358
-0.00713191329
-0.00713191215
-0.00713191211
-0.00713191297
-0.00713191319
-0.00713191274
-0.00713191237
-0.00713191251
-0.00713191283
-0.00713191283
-0.00713191261
-0.00713191252
-0.00713191252
-0.00713191266
-0.00713191285
-0.00713191285
-0.00713191198
-0.00713191177
-0.00713191375
-0.00713191551
-0.00713191115
-0.00713190367
-0.0071319108
-0.00713193963
-0.00713193686
-0.00713184479
-0.00713183482
-0.00713203939
-0.00713216164
-0.00713179633
-0.00713126425
-0.00713169054
-0.00713364
-0.00713369158
-0.00712861278
-0.00712764846
-0.00713619379
-0.00714415233
-0.00713064702
-0.00711164775
-0.00712213049
-0.00717596078
-0.00717428707
-0.00708503623
-0.00707451718
-0.00719571551
-0.00722784967
-0.00707884988
-0.00701146467
-0.0071647017
-0.00724186456
-0.00710195138
-0.00701646864
-0.00709613771
-0.00722783571
-0.00723292045
-0.00705887832
-0.00700680954
-0.00707133485
-0.00718016393
-0.00720274321
-0.00720257259
-0.00722157998
-0.00722215118
-0.00705443801
-0.0070072128
-0.00708660539
-0.00721603659
-0.00721999264
-0.0070465312
-0.00700644009
-0.00710760752
-0.00723166568
-0.00723452557
-0.00705017222
-0.00700900925
-0.00711308475
-0.00724361846
-0.00726016812
-0.00709903893
-0.00701462491
-0.00708959441
-0.00722951514
-0.00723715302
-0.00706271929
-0.00700806869
-0.00712070157
-0.0072242891
-0.00719628373
-0.00702304573
-0.00700840293
-0.00712652916
-0.0072611273
-0.00726459912
-0.00706855559
-0.00701083561
-0.00701056427
-0.00712934891
-0.00723253692
-0.00724977731
-0.0072473079
-0.00704846245
-0.00700769083
-0.00718320396
-0.00722279643
-0.00704643552
-0.00701039915
-0.00713848829
-0.00723608269
-0.00719411728
-0.00701255124
-0.00700769247
-0.00720795987
-0.00725399755
-0.00706273608
-0.00701459903
-0.00714550269
-0.00724768802
-0.00721410207
)
;

boundaryField
{
    closed
    {
        type            zeroGradient;
    }
    open
    {
        type            zeroGradient;
    }
    sides
    {
        type            empty;
    }
    procBoundary3to2
    {
        type            processor;
        value           uniform -0.0070507112;
    }
    procBoundary3to4
    {
        type            processor;
        value           uniform -0.00701067816;
    }
}


// ************************************************************************* //
