/*--------------------------------*- C++ -*----------------------------------*\
| =========                 |                                                 |
| \\      /  F ield         | OpenFOAM: The Open Source CFD Toolbox           |
|  \\    /   O peration     | Version:  2306                                  |
|   \\  /    A nd           | Website:  www.openfoam.com                      |
|    \\/     M anipulation  |                                                 |
\*---------------------------------------------------------------------------*/
FoamFile
{
    version     2.0;
    format      ascii;
    arch        "LSB;label=32;scalar=64";
    class       volScalarField;
    location    "2e-05";
    object      prefDPV_H2;
}
// * * * * * * * * * * * * * * * * * * * * * * * * * * * * * * * * * * * * * //

dimensions      [1 -1 -1 0 0 0 0];

internalField   nonuniform List<scalar> 
531
(
-3.0918807e-05
-3.0918807e-05
-3.0918807e-05
-3.0918807e-05
-3.0918807e-05
-3.0918807e-05
-3.0918807e-05
-3.0918807e-05
-3.0918807e-05
-3.0918807e-05
-3.0918807e-05
-3.0918807e-05
-3.0918807e-05
-3.0918807e-05
-3.0918807e-05
-3.0918807e-05
-3.0918807e-05
-3.0918807e-05
-3.0918807e-05
-3.0918807e-05
-3.0918807e-05
-3.0918807e-05
-3.0918807e-05
-3.0918807e-05
-3.0918807e-05
-3.0918807e-05
-3.0918807e-05
-3.0918807e-05
-3.0918807e-05
-3.0918807e-05
-3.0918807e-05
-3.0918807e-05
-3.0918807e-05
-3.0918807e-05
-3.0918807e-05
-3.0918807e-05
-3.0918807e-05
-3.0918807e-05
-3.0918807e-05
-3.0918807e-05
-3.0918807e-05
-3.0918807e-05
-3.0918807e-05
-3.0918807e-05
-3.0918807e-05
-3.0918807e-05
-3.0918807e-05
-3.0918807e-05
-3.0918807e-05
-3.0918807e-05
-3.0918807e-05
-3.0918807e-05
-3.0918807e-05
-3.0918807e-05
-3.0918807e-05
-3.0918807e-05
-3.0918807e-05
-3.0918807e-05
-3.0918807e-05
-3.0918807e-05
-3.0918807e-05
-3.0918807e-05
-3.0918807e-05
-3.0918807e-05
-3.0918807e-05
-3.0918807e-05
-3.0918807e-05
-3.0918807e-05
-3.0918807e-05
-3.0918807e-05
-3.0918807e-05
-3.0918807e-05
-3.0918807e-05
-3.0918807e-05
-3.0918807e-05
-3.0918807e-05
-3.0918807e-05
-3.0918807e-05
-3.0918807e-05
-3.0918807e-05
-3.0918807e-05
-3.0918807e-05
-3.0918807e-05
-3.0918807e-05
-3.0918807e-05
-3.0918807e-05
-3.0918807e-05
-3.0918807e-05
-3.0918807e-05
-3.0918807e-05
-3.0918807e-05
-3.0918807e-05
-3.0918807e-05
-3.0918807e-05
-3.0918807e-05
-3.0918807e-05
-3.0918807e-05
-3.0918807e-05
-3.0918807e-05
-3.0918807e-05
-3.0918807e-05
-3.0918807e-05
-3.0918807e-05
-3.0918807e-05
-3.0918807e-05
-3.0918807e-05
-3.0918807e-05
-3.0918807e-05
-3.0918807e-05
-3.0918807e-05
-3.0918807e-05
-3.0918807e-05
-3.0918807e-05
-3.0918807e-05
-3.0918807e-05
-3.0918807e-05
-3.0918807e-05
-3.0918807e-05
-3.0918807e-05
-3.0918807e-05
-3.0918807e-05
-3.0918807e-05
-3.0918807e-05
-3.0918807e-05
-3.0918807e-05
-3.0918807e-05
-3.0918807e-05
-3.0918807e-05
-3.0918807e-05
-3.0918807e-05
-3.0918807e-05
-3.0918807e-05
-3.0918807e-05
-3.0918807e-05
-3.0918807e-05
-3.0918807e-05
-3.0918807e-05
-3.0918807e-05
-3.0918807e-05
-3.0918807e-05
-3.0918807e-05
-3.0918807e-05
-3.0918807e-05
-3.0918807e-05
-3.0918807e-05
-3.0918807e-05
-3.0918807e-05
-3.0918807e-05
-3.0918807e-05
-3.0918807e-05
-3.0918807e-05
-3.0918807e-05
-3.0918807e-05
-3.0918807e-05
-3.0918807e-05
-3.0918807e-05
-3.0918807e-05
-3.0918807e-05
-3.0918807e-05
-3.0918807e-05
-3.0918807e-05
-3.0918807e-05
-3.0918807e-05
-3.0918807e-05
-3.0918807e-05
-3.0918807e-05
-3.0918807e-05
-3.0918807e-05
-3.0918807e-05
-3.0918807e-05
-3.0918807e-05
-3.0918807e-05
-3.0918807e-05
-3.0918807e-05
-3.0918807e-05
-3.0918807e-05
-3.0918807e-05
-3.0918807e-05
-3.0918807e-05
-3.0918807e-05
-3.0918807e-05
-3.0918807e-05
-3.0918807e-05
-3.0918807e-05
-3.0918807e-05
-3.0918807e-05
-3.0918807e-05
-3.0918807e-05
-3.0918807e-05
-3.0918807e-05
-3.0918807e-05
-3.0918807e-05
-3.0918807e-05
-3.0918807e-05
-3.0918807e-05
-3.0918807e-05
-3.0918807e-05
-3.0918807e-05
-3.0918807e-05
-3.0918807e-05
-3.0918807e-05
-3.0918807e-05
-3.0918807e-05
-3.0918807e-05
-3.0918807e-05
-3.0918807e-05
-3.0918807e-05
-3.0918807e-05
-3.0918807e-05
-3.0918807e-05
-3.0918807e-05
-3.0918807e-05
-3.0918807e-05
-3.0918807e-05
-3.0918807e-05
-3.0918807e-05
-3.0918807e-05
-3.0918807e-05
-3.0918807e-05
-3.0918807e-05
-3.0918807e-05
-3.0918807e-05
-3.0918807e-05
-3.0918807e-05
-3.0918807e-05
-3.0918807e-05
-3.0918807e-05
-3.0918807e-05
-3.0918807e-05
-3.0918807e-05
-3.0918807e-05
-3.0918807e-05
-3.0918807e-05
-3.0918807e-05
-3.0918807e-05
-3.0918807e-05
-3.0918807e-05
-3.0918807e-05
-3.0918807e-05
-3.0918807e-05
-3.0918807e-05
-3.0918807e-05
-3.0918807e-05
-3.0918807e-05
-3.0918807e-05
-3.0918807e-05
-3.0918807e-05
-3.0918807e-05
-3.0918807e-05
-3.0918807e-05
-3.0918807e-05
-3.0918807e-05
-3.0918807e-05
-3.0918807e-05
-3.0918807e-05
-3.0918807e-05
-3.0918807e-05
-3.0918807e-05
-3.0918807e-05
-3.0918807e-05
-3.0918807e-05
-3.0918807e-05
-3.0918807e-05
-3.0918807e-05
-3.0918807e-05
-3.0918807e-05
-3.0918807e-05
-3.0918807e-05
-3.0918807e-05
-3.0918807e-05
-3.0918807e-05
-3.0918807e-05
-3.0918807e-05
-3.0918807e-05
-3.0918807e-05
-3.0918807e-05
-3.0918807e-05
-3.0918807e-05
-3.0918807e-05
-3.0918807e-05
-3.0918807e-05
-3.0918807e-05
-3.0918807e-05
-3.0918807e-05
-3.0918807e-05
-3.0918807e-05
-3.0918807e-05
-3.0918807e-05
-3.0918807e-05
-3.0918807e-05
-3.0918807e-05
-3.0918807e-05
-3.0918807e-05
-3.0918807e-05
-3.0918807e-05
-3.0918807e-05
-3.0918807e-05
-3.0918807e-05
-3.0918807e-05
-3.0918807e-05
-3.0918807e-05
-3.0918807e-05
-3.0918807e-05
-3.0918807e-05
-3.0918807e-05
-3.0918807e-05
-3.0918807e-05
-3.0918807e-05
-3.0918807e-05
-3.0918807e-05
-3.0918807e-05
-3.0918807e-05
-3.0918807e-05
-3.0918807e-05
-3.0918807e-05
-3.0918807e-05
-3.0918807e-05
-3.0918807e-05
-3.0918807e-05
-3.0918807e-05
-3.0918807e-05
-3.0918807e-05
-3.0918807e-05
-3.0918807e-05
-3.0918807e-05
-3.0918807e-05
-3.0918807e-05
-3.0918807e-05
-3.0918807e-05
-3.0918807e-05
-3.0918807e-05
-3.0918807e-05
-3.0918807e-05
-3.0918807e-05
-3.0918807e-05
-3.0918807e-05
-3.0918807e-05
-3.0918807e-05
-3.0918807e-05
-3.0918807e-05
-3.0918807e-05
-3.0918807e-05
-3.0918807e-05
-3.0918807e-05
-3.0918807e-05
-3.0918807e-05
-3.0918807e-05
-3.0918807e-05
-3.0918807e-05
-3.0918807e-05
-3.0918807e-05
-3.0918807e-05
-3.0918807e-05
-3.0918807e-05
-3.0918807e-05
-3.0918807e-05
-3.0918807e-05
-3.0918807e-05
-3.0918807e-05
-3.0918807e-05
-3.0918807e-05
-3.0918807e-05
-3.0918807e-05
-3.0918807e-05
-3.0918807e-05
-3.0918807e-05
-3.0918807e-05
-3.0918807e-05
-3.0918807e-05
-3.0918807e-05
-3.0918807e-05
-3.0918807e-05
-3.0918807e-05
-3.0918807e-05
-3.0918807e-05
-3.0918807e-05
-3.0918807e-05
-3.0918807e-05
-3.0918807e-05
-3.0918807e-05
-3.0918807e-05
-3.0918807e-05
-3.0918807e-05
-3.0918807e-05
-3.0918807e-05
-3.0918807e-05
-3.0918807e-05
-3.0918807e-05
-3.0918807e-05
-3.0918807e-05
-3.0918807e-05
-3.0918807e-05
-3.0918807e-05
-3.0918807e-05
-3.0918807e-05
-3.0918807e-05
-3.0918807e-05
-3.0918807e-05
-3.0918807e-05
-3.0918807e-05
-3.0918807e-05
-3.0918807e-05
-3.0918807e-05
-3.0918807e-05
-3.0918807e-05
-3.0918807e-05
-3.0918807e-05
-3.0918807e-05
-3.0918807e-05
-3.0918807e-05
-3.0918807e-05
-3.0918807e-05
-3.0918807e-05
-3.0918807e-05
-3.0918807e-05
-3.0918807e-05
-3.0918807e-05
-3.0918807e-05
-3.0918807e-05
-3.09188069e-05
-3.09188068e-05
-3.09188066e-05
-3.09188062e-05
-3.09188051e-05
-3.09188029e-05
-3.09187981e-05
-3.0918788e-05
-3.09187668e-05
-3.09187241e-05
-3.0918638e-05
-3.09184693e-05
-3.09181561e-05
-3.09175825e-05
-3.09163103e-05
-3.09145681e-05
-3.09134956e-05
-3.09124033e-05
-3.08795464e-05
-3.08382685e-05
-3.09557787e-05
-3.18374498e-05
-3.18254941e-05
-3.05467474e-05
-3.05689427e-05
-2.99611242e-05
-3.09813952e-05
-2.9594297e-05
-3.08742155e-05
-3.14203466e-05
-3.24240006e-05
-3.27830767e-05
-3.40077214e-05
-3.445098e-05
-3.5362741e-05
-3.59590009e-05
-3.65774794e-05
-3.41651575e-05
-3.69105876e-05
-3.53070994e-05
-3.3780199e-05
-3.52088434e-05
-3.80742218e-05
-3.90823888e-05
-3.90087037e-05
-4.02246016e-05
-4.29648313e-05
-4.32180178e-05
-4.42365469e-05
-4.50521679e-05
-4.60201236e-05
-4.67695495e-05
-4.76228965e-05
-4.85616079e-05
-4.95376384e-05
-5.04543556e-05
-5.14291679e-05
-5.24679771e-05
-5.36198085e-05
-5.45989748e-05
-5.5617016e-05
-5.65447735e-05
-5.75161215e-05
-5.84155059e-05
-5.93879122e-05
-6.04704196e-05
-6.16332776e-05
-6.22974604e-05
-6.28925733e-05
-6.42956392e-05
-6.52963579e-05
-6.59381471e-05
-6.58447883e-05
-6.82714199e-05
-6.8796732e-05
-6.88794643e-05
-6.68752958e-05
-7.10962736e-05
-7.30067478e-05
-6.95999436e-05
-6.84199576e-05
-7.4656678e-05
-7.62266467e-05
-7.02405911e-05
-6.97763561e-05
-7.70446629e-05
-7.80965459e-05
-7.205905e-05
-7.45031892e-05
-8.10084095e-05
-7.90486121e-05
-7.54818448e-05
-7.80870809e-05
-8.1207798e-05
-8.11621349e-05
-7.99031069e-05
-8.12004651e-05
-8.25936475e-05
-8.36859726e-05
-8.20753213e-05
-8.34430179e-05
-8.37910263e-05
-8.48747088e-05
-8.42899891e-05
-8.52747731e-05
-8.59946791e-05
-8.63859951e-05
-8.64874628e-05
-8.70697435e-05
-8.79782697e-05
-8.80032876e-05
-8.83426138e-05
)
;

boundaryField
{
    closed
    {
        type            calculated;
        value           nonuniform List<scalar> 0();
    }
    open
    {
        type            calculated;
        value           nonuniform List<scalar> 0();
    }
    sides
    {
        type            empty;
    }
    procBoundary4to3
    {
        type            processor;
        value           uniform -3.09188069e-05;
    }
    procBoundary4to5
    {
        type            processor;
        value           uniform -8.85787037e-05;
    }
}


// ************************************************************************* //
