/*--------------------------------*- C++ -*----------------------------------*\
| =========                 |                                                 |
| \\      /  F ield         | OpenFOAM: The Open Source CFD Toolbox           |
|  \\    /   O peration     | Version:  2306                                  |
|   \\  /    A nd           | Website:  www.openfoam.com                      |
|    \\/     M anipulation  |                                                 |
\*---------------------------------------------------------------------------*/
FoamFile
{
    version     2.0;
    format      ascii;
    arch        "LSB;label=32;scalar=64";
    class       volScalarField;
    location    "2e-05";
    object      prefDh_T;
}
// * * * * * * * * * * * * * * * * * * * * * * * * * * * * * * * * * * * * * //

dimensions      [1 1 -3 -1 0 0 0];

internalField   nonuniform List<scalar> 
531
(
-0.000591194508
-0.000591194517
-0.000591194502
-0.000591194503
-0.000591194502
-0.000591194503
-0.000591194501
-0.000591194501
-0.000591194501
-0.000591194501
-0.000591194501
-0.000591194501
-0.000591194501
-0.000591194501
-0.000591194501
-0.000591194501
-0.000591194501
-0.000591194501
-0.000591194501
-0.000591194501
-0.000591194501
-0.000591194501
-0.000591194501
-0.000591194501
-0.000591194501
-0.000591194501
-0.000591194501
-0.000591194501
-0.000591194501
-0.000591194501
-0.000591194501
-0.000591194501
-0.000591194501
-0.000591194501
-0.000591194501
-0.000591194501
-0.000591194501
-0.000591194501
-0.000591194501
-0.000591194501
-0.000591194501
-0.000591194501
-0.000591194501
-0.000591194501
-0.000591194501
-0.000591194501
-0.000591194501
-0.000591194501
-0.000591194501
-0.000591194501
-0.000591194501
-0.000591194501
-0.000591194501
-0.000591194501
-0.000591194501
-0.000591194501
-0.000591194501
-0.000591194501
-0.000591194501
-0.000591194501
-0.000591194501
-0.000591194501
-0.000591194501
-0.000591194501
-0.000591194501
-0.000591194501
-0.000591194501
-0.000591194501
-0.000591194501
-0.000591194501
-0.000591194501
-0.000591194501
-0.000591194501
-0.000591194501
-0.000591194501
-0.000591194501
-0.000591194501
-0.000591194501
-0.000591194501
-0.000591194501
-0.000591194501
-0.000591194501
-0.000591194501
-0.000591194501
-0.000591194501
-0.000591194501
-0.000591194501
-0.000591194501
-0.000591194501
-0.000591194501
-0.000591194501
-0.000591194501
-0.000591194501
-0.000591194501
-0.000591194501
-0.000591194501
-0.000591194501
-0.000591194501
-0.000591194501
-0.000591194501
-0.000591194501
-0.000591194501
-0.000591194501
-0.000591194501
-0.000591194501
-0.000591194501
-0.000591194501
-0.000591194501
-0.000591194501
-0.000591194501
-0.000591194501
-0.000591194501
-0.000591194501
-0.000591194501
-0.000591194501
-0.000591194501
-0.000591194501
-0.000591194501
-0.000591194501
-0.000591194501
-0.000591194501
-0.000591194501
-0.000591194501
-0.000591194501
-0.000591194501
-0.000591194501
-0.000591194501
-0.000591194501
-0.000591194501
-0.000591194501
-0.000591194501
-0.000591194501
-0.000591194501
-0.000591194501
-0.000591194501
-0.000591194501
-0.000591194501
-0.000591194501
-0.000591194501
-0.000591194501
-0.000591194501
-0.000591194501
-0.000591194501
-0.000591194501
-0.000591194501
-0.000591194501
-0.000591194501
-0.000591194501
-0.000591194501
-0.000591194501
-0.000591194501
-0.000591194501
-0.000591194501
-0.000591194501
-0.000591194501
-0.000591194501
-0.000591194501
-0.000591194501
-0.000591194501
-0.000591194501
-0.000591194501
-0.000591194501
-0.000591194501
-0.000591194501
-0.000591194501
-0.000591194501
-0.000591194501
-0.000591194501
-0.000591194501
-0.000591194501
-0.000591194501
-0.000591194501
-0.000591194501
-0.000591194501
-0.000591194501
-0.000591194501
-0.000591194501
-0.000591194501
-0.000591194501
-0.000591194501
-0.000591194501
-0.000591194501
-0.000591194501
-0.000591194501
-0.000591194501
-0.000591194501
-0.000591194501
-0.000591194501
-0.000591194501
-0.000591194501
-0.000591194501
-0.000591194501
-0.000591194501
-0.000591194501
-0.000591194501
-0.000591194501
-0.000591194501
-0.000591194501
-0.000591194501
-0.000591194501
-0.000591194501
-0.000591194501
-0.000591194501
-0.000591194501
-0.000591194501
-0.000591194501
-0.000591194501
-0.000591194501
-0.000591194501
-0.000591194501
-0.000591194501
-0.000591194501
-0.000591194501
-0.000591194501
-0.000591194501
-0.000591194501
-0.000591194501
-0.000591194501
-0.000591194501
-0.000591194501
-0.000591194501
-0.000591194501
-0.000591194501
-0.000591194501
-0.000591194501
-0.000591194501
-0.000591194501
-0.000591194501
-0.000591194501
-0.000591194501
-0.000591194501
-0.000591194501
-0.000591194501
-0.000591194501
-0.000591194501
-0.000591194501
-0.000591194501
-0.000591194501
-0.000591194501
-0.000591194501
-0.000591194501
-0.000591194501
-0.000591194501
-0.000591194501
-0.000591194501
-0.000591194501
-0.000591194501
-0.000591194501
-0.000591194501
-0.000591194501
-0.000591194501
-0.000591194501
-0.000591194501
-0.000591194501
-0.000591194501
-0.000591194501
-0.000591194501
-0.000591194501
-0.000591194501
-0.000591194501
-0.000591194501
-0.000591194501
-0.000591194501
-0.000591194501
-0.000591194501
-0.000591194501
-0.000591194501
-0.000591194501
-0.000591194501
-0.000591194501
-0.000591194501
-0.000591194501
-0.000591194501
-0.000591194501
-0.000591194501
-0.000591194501
-0.000591194501
-0.000591194501
-0.000591194501
-0.000591194501
-0.000591194501
-0.000591194501
-0.000591194501
-0.000591194501
-0.000591194501
-0.000591194501
-0.000591194501
-0.000591194501
-0.000591194501
-0.000591194501
-0.000591194501
-0.000591194501
-0.000591194501
-0.000591194501
-0.000591194501
-0.000591194501
-0.000591194501
-0.000591194501
-0.000591194501
-0.000591194501
-0.000591194501
-0.000591194501
-0.000591194501
-0.000591194501
-0.000591194501
-0.000591194501
-0.000591194501
-0.000591194501
-0.000591194501
-0.000591194501
-0.000591194501
-0.000591194501
-0.000591194501
-0.000591194501
-0.000591194501
-0.000591194501
-0.000591194501
-0.000591194501
-0.000591194501
-0.000591194501
-0.000591194501
-0.000591194501
-0.000591194501
-0.000591194501
-0.000591194501
-0.000591194501
-0.000591194501
-0.000591194501
-0.000591194501
-0.000591194501
-0.000591194501
-0.000591194501
-0.000591194501
-0.000591194501
-0.000591194501
-0.000591194501
-0.000591194501
-0.000591194501
-0.000591194501
-0.000591194501
-0.000591194501
-0.000591194501
-0.000591194501
-0.000591194501
-0.000591194501
-0.000591194501
-0.000591194501
-0.000591194501
-0.000591194501
-0.000591194501
-0.000591194501
-0.000591194501
-0.000591194501
-0.000591194501
-0.000591194501
-0.000591194501
-0.000591194501
-0.000591194501
-0.000591194501
-0.000591194501
-0.000591194501
-0.000591194501
-0.000591194501
-0.000591194501
-0.000591194501
-0.000591194501
-0.000591194501
-0.000591194501
-0.000591194501
-0.000591194501
-0.000591194501
-0.000591194501
-0.000591194501
-0.000591194501
-0.000591194501
-0.000591194501
-0.000591194501
-0.000591194501
-0.000591194501
-0.000591194501
-0.000591194501
-0.000591194501
-0.000591194501
-0.000591194501
-0.000591194501
-0.000591194501
-0.000591194501
-0.000591194501
-0.000591194501
-0.000591194501
-0.000591194501
-0.000591194501
-0.000591194501
-0.000591194501
-0.000591194501
-0.000591194501
-0.000591194501
-0.000591194501
-0.000591194501
-0.000591194501
-0.000591194501
-0.000591194501
-0.000591194501
-0.000591194501
-0.000591194501
-0.000591194501
-0.000591194501
-0.000591194501
-0.000591194501
-0.000591194501
-0.000591194501
-0.000591194501
-0.000591194501
-0.000591194501
-0.000591194501
-0.0005911945
-0.000591194499
-0.000591194497
-0.000591194492
-0.00059119448
-0.000591194452
-0.000591194387
-0.000591194243
-0.000591193919
-0.000591193221
-0.000591191695
-0.000591188516
-0.000591181833
-0.000591168374
-0.00059114129
-0.000591088278
-0.000590988985
-0.00059080687
-0.00059041952
-0.00058988454
-0.000589333791
-0.000588755503
-0.000580532259
-0.000570226877
-0.000597735095
-0.000817464608
-0.000815664761
-0.000485862825
-0.00049566465
-0.000299123369
-0.000576904486
-0.000222044362
-0.000517192541
-0.000628845377
-0.000858383682
-0.000927771183
-0.00122253083
-0.00130356206
-0.00143266387
-0.00154664051
-0.00166679478
-0.00125968838
-0.00162758725
-0.00129747821
-0.00109426456
-0.00137200539
-0.00171011396
-0.00191098853
-0.00184898661
-0.00202470133
-0.00238063963
-0.00241075088
-0.00251027011
-0.00259010414
-0.00266255574
-0.0027223188
-0.0027738755
-0.00284254878
-0.00289766918
-0.00295243506
-0.00299198306
-0.0030441565
-0.00309760466
-0.00314397564
-0.00316814581
-0.00320660055
-0.00320505931
-0.00328275807
-0.00330777195
-0.00336587425
-0.00320764422
-0.00351708206
-0.00356770933
-0.00348448869
-0.00262165595
-0.00414065895
-0.00454309214
-0.00311941878
-0.000590521922
-0.00616562348
-0.0073160652
-0.00063297361
0.00328333487
-0.0100907538
-0.00861380271
0.00395369845
0.00570459384
-0.0106662314
-0.00655598467
0.00563730744
0.00619442719
-0.0079848438
0.00132812079
0.00764577637
0.00651422458
-0.0034479323
0.00522836324
0.00775117346
0.00715299726
0.000842406901
0.00567551276
0.00792207284
0.00792763889
0.00295667396
0.00571785813
0.00802688272
0.00802768906
0.00472255676
0.00601711297
0.00810091701
0.00808352831
0.00609139505
0.00658746747
0.00812270448
0.00811553852
0.0072136734
)
;

boundaryField
{
    closed
    {
        type            calculated;
        value           nonuniform List<scalar> 0();
    }
    open
    {
        type            calculated;
        value           nonuniform List<scalar> 0();
    }
    sides
    {
        type            empty;
    }
    procBoundary4to3
    {
        type            processor;
        value           uniform -0.000591194486;
    }
    procBoundary4to5
    {
        type            processor;
        value           uniform 0.00711352939;
    }
}


// ************************************************************************* //
