/*--------------------------------*- C++ -*----------------------------------*\
| =========                 |                                                 |
| \\      /  F ield         | OpenFOAM: The Open Source CFD Toolbox           |
|  \\    /   O peration     | Version:  2306                                  |
|   \\  /    A nd           | Website:  www.openfoam.com                      |
|    \\/     M anipulation  |                                                 |
\*---------------------------------------------------------------------------*/
FoamFile
{
    version     2.0;
    format      ascii;
    arch        "LSB;label=32;scalar=64";
    class       volScalarField;
    location    "0.00066";
    object      mu;
}
// * * * * * * * * * * * * * * * * * * * * * * * * * * * * * * * * * * * * * //

dimensions      [1 -1 -1 0 0 0 0];

internalField   nonuniform List<scalar> 
530
(
6.01374408e-05
6.01768554e-05
6.02039488e-05
6.02418117e-05
6.02670644e-05
6.03036491e-05
6.03270033e-05
6.0360009e-05
6.03813727e-05
6.0411295e-05
6.04322914e-05
6.04594081e-05
6.0480194e-05
6.05048626e-05
6.05252574e-05
6.05477541e-05
6.05676416e-05
6.05881822e-05
6.06074899e-05
6.06262496e-05
6.06449359e-05
6.0662062e-05
6.06801085e-05
6.06947692e-05
6.07103561e-05
6.07228902e-05
6.0737744e-05
6.07489558e-05
6.07630664e-05
6.07730318e-05
6.0786386e-05
6.07951804e-05
6.08077624e-05
6.08154558e-05
6.08272645e-05
6.08339019e-05
6.08450008e-05
6.08505439e-05
6.08606039e-05
6.08652874e-05
6.08749831e-05
6.08787035e-05
6.08878085e-05
6.08904601e-05
6.08977691e-05
6.08987842e-05
6.09055404e-05
6.09057411e-05
6.09118323e-05
6.09111879e-05
6.09166172e-05
6.09151673e-05
6.091994e-05
6.09177217e-05
6.09218447e-05
6.09188932e-05
6.09223749e-05
6.09187243e-05
6.09215745e-05
6.09172581e-05
6.09194879e-05
6.09145381e-05
6.091616e-05
6.0910609e-05
6.09116368e-05
6.09055164e-05
6.09059651e-05
6.08993069e-05
6.08991934e-05
6.08920284e-05
6.08913711e-05
6.08837299e-05
6.08825495e-05
6.08743295e-05
6.08719255e-05
6.0862642e-05
6.08597055e-05
6.0849968e-05
6.0846511e-05
6.08363392e-05
6.08323732e-05
6.08217868e-05
6.0817324e-05
6.08063417e-05
6.08013955e-05
6.0790035e-05
6.07846201e-05
6.07728978e-05
6.07670308e-05
6.0754962e-05
6.07486609e-05
6.073626e-05
6.07295445e-05
6.07168249e-05
6.07097164e-05
6.06966909e-05
6.0689212e-05
6.06758917e-05
6.06680676e-05
6.06544603e-05
6.06463192e-05
6.0632427e-05
6.06240006e-05
6.06098217e-05
6.06011436e-05
6.05866639e-05
6.05780648e-05
6.05634126e-05
6.05540179e-05
6.05395002e-05
6.05295249e-05
6.05151351e-05
6.05046319e-05
6.0490357e-05
6.0479385e-05
6.04651937e-05
6.04538162e-05
6.04396834e-05
6.04279586e-05
6.04138678e-05
6.04018475e-05
6.03877902e-05
6.0375327e-05
6.03608835e-05
6.03480528e-05
6.03336056e-05
6.0320552e-05
6.03060964e-05
6.02928486e-05
6.02783823e-05
6.02649665e-05
6.0250489e-05
6.0236929e-05
6.02224413e-05
6.02087588e-05
6.01942634e-05
6.01804783e-05
6.01659788e-05
6.01521093e-05
6.01376103e-05
6.01236735e-05
6.01091746e-05
6.00951481e-05
6.00806027e-05
6.00664956e-05
6.00519238e-05
6.00377521e-05
6.0023163e-05
6.00089421e-05
5.99943451e-05
5.99800895e-05
5.99654941e-05
5.99512178e-05
5.99366334e-05
5.99223499e-05
5.99077861e-05
5.9893508e-05
5.98789744e-05
5.98647139e-05
5.98502199e-05
5.98359887e-05
5.98215437e-05
5.98073529e-05
5.9792952e-05
5.97787772e-05
5.97644412e-05
5.97503631e-05
5.97361391e-05
5.97221648e-05
5.97080585e-05
5.96941949e-05
5.96802121e-05
5.96664657e-05
5.9652612e-05
5.96389891e-05
5.96252698e-05
5.96117766e-05
5.95981972e-05
5.95848394e-05
5.95714051e-05
5.95581883e-05
5.95449043e-05
5.95318338e-05
5.95187051e-05
5.95057862e-05
5.94928177e-05
5.94800553e-05
5.94672518e-05
5.9454651e-05
5.94420171e-05
5.94295824e-05
5.94171227e-05
5.94048589e-05
5.93925777e-05
5.93804894e-05
5.93683909e-05
5.93564825e-05
5.93445708e-05
5.93328469e-05
5.93211261e-05
5.93095909e-05
5.92980649e-05
5.92867229e-05
5.92753954e-05
5.92642509e-05
5.92531258e-05
5.9242183e-05
5.92312641e-05
5.92205271e-05
5.92098182e-05
5.91992914e-05
5.91887906e-05
5.91784511e-05
5.9168141e-05
5.91580027e-05
5.91479025e-05
5.91379667e-05
5.91280755e-05
5.91183428e-05
5.91086594e-05
5.909913e-05
5.90896535e-05
5.90803276e-05
5.90710568e-05
5.9061934e-05
5.9052874e-05
5.90440283e-05
5.90352362e-05
5.90265791e-05
5.9017979e-05
5.9009511e-05
5.90011029e-05
5.89928239e-05
5.89846077e-05
5.89765177e-05
5.8968493e-05
5.89605917e-05
5.89527579e-05
5.89450447e-05
5.89374014e-05
5.89298755e-05
5.89224217e-05
5.89150825e-05
5.89078166e-05
5.89005139e-05
5.88932718e-05
5.88861451e-05
5.88790985e-05
5.88721644e-05
5.88653111e-05
5.88585678e-05
5.88519058e-05
5.88453509e-05
5.88388781e-05
5.88325094e-05
5.88262235e-05
5.88200384e-05
5.88139372e-05
5.88079333e-05
5.88020142e-05
5.8796189e-05
5.87904495e-05
5.87848004e-05
5.87792378e-05
5.87737621e-05
5.87683737e-05
5.87630687e-05
5.87578517e-05
5.87527146e-05
5.87476662e-05
5.87426942e-05
5.87378114e-05
5.87330015e-05
5.87282814e-05
5.87236308e-05
5.87190704e-05
5.8714576e-05
5.87101722e-05
5.8705831e-05
5.87015807e-05
5.86973897e-05
5.86932897e-05
5.86892459e-05
5.86852931e-05
5.86813932e-05
5.86775844e-05
5.86738255e-05
5.86701574e-05
5.86665363e-05
5.86630057e-05
5.86595193e-05
5.86561228e-05
5.8652768e-05
5.86495024e-05
5.8646276e-05
5.86431379e-05
5.86400369e-05
5.86370231e-05
5.86340442e-05
5.86311515e-05
5.86282916e-05
5.86255165e-05
5.86227726e-05
5.8620112e-05
5.86174809e-05
5.86149314e-05
5.86124101e-05
5.86099684e-05
5.86075538e-05
5.86052168e-05
5.86029058e-05
5.86006702e-05
5.85984599e-05
5.85963225e-05
5.85942098e-05
5.85921676e-05
5.85901495e-05
5.85881993e-05
5.85862729e-05
5.85844117e-05
5.8582574e-05
5.85807987e-05
5.8579047e-05
5.85773547e-05
5.85756859e-05
5.85740736e-05
5.85724851e-05
5.857095e-05
5.85694389e-05
5.85679781e-05
5.85665417e-05
5.85651525e-05
5.85637882e-05
5.85624678e-05
5.85611728e-05
5.85599186e-05
5.85586904e-05
5.85574998e-05
5.85563359e-05
5.85552064e-05
5.85541041e-05
5.85530332e-05
5.85519901e-05
5.85509755e-05
5.85499892e-05
5.85490284e-05
5.85480967e-05
5.85471875e-05
5.85463079e-05
5.85454481e-05
5.85446185e-05
5.85438058e-05
5.8543024e-05
5.85422565e-05
5.85415203e-05
5.85407959e-05
5.85401032e-05
5.853942e-05
5.85387688e-05
5.85381248e-05
5.85375132e-05
5.85369067e-05
5.85363328e-05
5.85357619e-05
5.85352238e-05
5.85346869e-05
5.85341829e-05
5.85336783e-05
5.85332065e-05
5.85327327e-05
5.85322916e-05
5.85318469e-05
5.85314349e-05
5.8531018e-05
5.85306334e-05
5.85302428e-05
5.85298842e-05
5.85295187e-05
5.85291845e-05
5.85288427e-05
5.85285317e-05
5.85282124e-05
5.85279232e-05
5.85276252e-05
5.85273564e-05
5.85270786e-05
5.85268292e-05
5.85265704e-05
5.8526339e-05
5.85260984e-05
5.85258839e-05
5.85256604e-05
5.85254618e-05
5.85252544e-05
5.85250706e-05
5.85248785e-05
5.85247086e-05
5.85245309e-05
5.85243739e-05
5.85242098e-05
5.85240648e-05
5.85239136e-05
5.85237798e-05
5.85236406e-05
5.85235172e-05
5.85233894e-05
5.85232757e-05
5.85231586e-05
5.85230539e-05
5.85229467e-05
5.85228503e-05
5.85227526e-05
5.8522664e-05
5.8522575e-05
5.85224935e-05
5.85224128e-05
5.85223379e-05
5.85222648e-05
5.85221962e-05
5.85221301e-05
5.85220672e-05
5.85220078e-05
5.85219502e-05
5.85218968e-05
5.85218442e-05
5.85217965e-05
5.85217485e-05
5.85217059e-05
5.85216622e-05
5.85216243e-05
5.85215846e-05
5.85215511e-05
5.85215151e-05
5.85214856e-05
5.8521453e-05
5.85214271e-05
5.85213978e-05
5.85213752e-05
5.85213488e-05
5.85213292e-05
5.85213056e-05
5.85212887e-05
5.85212677e-05
5.85212532e-05
5.85212345e-05
5.85212223e-05
5.85212058e-05
5.85211955e-05
5.85211811e-05
5.85211726e-05
5.85211601e-05
5.85211531e-05
5.85211424e-05
5.85211366e-05
5.85211264e-05
5.85211215e-05
5.85211119e-05
5.85211083e-05
5.85210995e-05
5.85210972e-05
5.8521093e-05
5.85210906e-05
5.85210893e-05
5.85210862e-05
5.85210899e-05
5.8521089e-05
5.85210958e-05
5.85210988e-05
5.8521108e-05
5.85211154e-05
5.8521127e-05
5.85211385e-05
5.85211526e-05
5.85211674e-05
5.85211836e-05
5.8521201e-05
5.85212186e-05
5.85212375e-05
5.85212564e-05
5.85212741e-05
5.85212884e-05
5.85212347e-05
5.8521193e-05
5.8521165e-05
5.85211465e-05
5.85211349e-05
5.8521128e-05
5.85211241e-05
5.85211221e-05
5.85211211e-05
5.85211207e-05
5.85211204e-05
5.85211203e-05
5.85211203e-05
5.85211203e-05
5.85211203e-05
5.85211203e-05
5.85211203e-05
5.85211203e-05
5.85211203e-05
5.85211203e-05
5.85211203e-05
5.85211203e-05
5.85211203e-05
5.85211203e-05
5.85211203e-05
5.85211203e-05
5.85211203e-05
5.85211203e-05
5.85211203e-05
5.85211203e-05
5.85211203e-05
5.85211203e-05
5.85211203e-05
5.85211203e-05
5.85211203e-05
5.85211203e-05
5.85211203e-05
5.85211203e-05
5.85211203e-05
5.85211203e-05
5.85211203e-05
5.85211203e-05
5.85211203e-05
5.85211203e-05
5.85211203e-05
5.85211203e-05
5.85211203e-05
5.85211203e-05
5.85211203e-05
)
;

boundaryField
{
    closed
    {
        type            calculated;
        value           nonuniform List<scalar> 0();
    }
    open
    {
        type            calculated;
        value           uniform 5.85211203e-05;
    }
    sides
    {
        type            empty;
    }
    procBoundary5to4
    {
        type            processor;
        value           uniform 6.01085263e-05;
    }
}


// ************************************************************************* //
