/*--------------------------------*- C++ -*----------------------------------*\
| =========                 |                                                 |
| \\      /  F ield         | OpenFOAM: The Open Source CFD Toolbox           |
|  \\    /   O peration     | Version:  2306                                  |
|   \\  /    A nd           | Website:  www.openfoam.com                      |
|    \\/     M anipulation  |                                                 |
\*---------------------------------------------------------------------------*/
FoamFile
{
    version     2.0;
    format      ascii;
    arch        "LSB;label=32;scalar=64";
    class       volScalarField;
    location    "0.00066";
    object      prefDPV_T;
}
// * * * * * * * * * * * * * * * * * * * * * * * * * * * * * * * * * * * * * //

dimensions      [1 -1 -1 -1 0 0 0];

internalField   nonuniform List<scalar> 
530
(
-3.74867204e-11
-3.76333337e-11
-3.77496167e-11
-3.78917676e-11
-3.80008155e-11
-3.8138998e-11
-3.8240913e-11
-3.8371474e-11
-3.84706904e-11
-3.85994861e-11
-3.86974645e-11
-3.88182086e-11
-3.89142275e-11
-3.90275096e-11
-3.91214606e-11
-3.92278022e-11
-3.93196336e-11
-3.94194896e-11
-3.9509194e-11
-3.96029635e-11
-3.96905656e-11
-3.97786038e-11
-3.98641496e-11
-3.99473025e-11
-4.00318738e-11
-4.01103424e-11
-4.01930571e-11
-4.02666943e-11
-4.03475789e-11
-4.04166139e-11
-4.04957045e-11
-4.05603426e-11
-4.06377043e-11
-4.06981029e-11
-4.07738578e-11
-4.08300932e-11
-4.09044392e-11
-4.09563554e-11
-4.1027892e-11
-4.10776463e-11
-4.11467514e-11
-4.11946313e-11
-4.12607693e-11
-4.13069358e-11
-4.13711133e-11
-4.14161964e-11
-4.14777697e-11
-4.15212565e-11
-4.15801596e-11
-4.16219907e-11
-4.16783147e-11
-4.17185421e-11
-4.17723668e-11
-4.18110503e-11
-4.18624488e-11
-4.18996501e-11
-4.19486917e-11
-4.19844712e-11
-4.20312244e-11
-4.20656394e-11
-4.21101724e-11
-4.2143277e-11
-4.21856583e-11
-4.22175033e-11
-4.22578021e-11
-4.22884354e-11
-4.23267209e-11
-4.2356188e-11
-4.23925296e-11
-4.24208742e-11
-4.24553407e-11
-4.24826055e-11
-4.25152652e-11
-4.25416123e-11
-4.25731902e-11
-4.25991076e-11
-4.26290213e-11
-4.26539926e-11
-4.26822932e-11
-4.27063408e-11
-4.27330788e-11
-4.27562246e-11
-4.278145e-11
-4.28037151e-11
-4.28274774e-11
-4.28488824e-11
-4.28712306e-11
-4.28917959e-11
-4.29127786e-11
-4.29325241e-11
-4.29521894e-11
-4.2971135e-11
-4.29895303e-11
-4.30076962e-11
-4.30248681e-11
-4.30422748e-11
-4.30582692e-11
-4.30749365e-11
-4.30897997e-11
-4.31057442e-11
-4.31195257e-11
-4.31347573e-11
-4.31475128e-11
-4.31620318e-11
-4.31738088e-11
-4.31876542e-11
-4.31985169e-11
-4.32116618e-11
-4.32216703e-11
-4.32340361e-11
-4.32431136e-11
-4.32547326e-11
-4.32630158e-11
-4.32740207e-11
-4.32815785e-11
-4.32919617e-11
-4.32988587e-11
-4.33086236e-11
-4.33149148e-11
-4.33240737e-11
-4.33298069e-11
-4.3338378e-11
-4.33438335e-11
-4.3352352e-11
-4.33575143e-11
-4.33655168e-11
-4.33702727e-11
-4.33777738e-11
-4.33821457e-11
-4.33891617e-11
-4.33931698e-11
-4.33997179e-11
-4.34033813e-11
-4.3409479e-11
-4.34128158e-11
-4.34184805e-11
-4.34215083e-11
-4.34267573e-11
-4.34294931e-11
-4.34343433e-11
-4.3436804e-11
-4.34412922e-11
-4.3443549e-11
-4.34476559e-11
-4.34495291e-11
-4.34531664e-11
-4.34546781e-11
-4.34578678e-11
-4.34590391e-11
-4.3461803e-11
-4.34626541e-11
-4.34650137e-11
-4.34655639e-11
-4.34675401e-11
-4.34678086e-11
-4.34694217e-11
-4.3469427e-11
-4.34706964e-11
-4.34704568e-11
-4.34714011e-11
-4.34709345e-11
-4.34715716e-11
-4.34708954e-11
-4.34711561e-11
-4.34700333e-11
-4.34699332e-11
-4.34687276e-11
-4.34685023e-11
-4.34672249e-11
-4.34668833e-11
-4.34655444e-11
-4.34650959e-11
-4.34637048e-11
-4.34631589e-11
-4.34617244e-11
-4.34610911e-11
-4.34596211e-11
-4.34589105e-11
-4.34574128e-11
-4.3456635e-11
-4.34551168e-11
-4.34542819e-11
-4.34527504e-11
-4.34518683e-11
-4.34503305e-11
-4.34494111e-11
-4.34478738e-11
-4.34469267e-11
-4.34453966e-11
-4.34444313e-11
-4.34429151e-11
-4.3441941e-11
-4.34404452e-11
-4.34394715e-11
-4.34380023e-11
-4.34370381e-11
-4.3435602e-11
-4.34346561e-11
-4.34332594e-11
-4.34323405e-11
-4.34309895e-11
-4.34301061e-11
-4.34288069e-11
-4.34279676e-11
-4.34267265e-11
-4.34259393e-11
-4.34247626e-11
-4.34240358e-11
-4.34229295e-11
-4.34222714e-11
-4.34212415e-11
-4.34206338e-11
-4.34195861e-11
-4.3419003e-11
-4.34181199e-11
-4.34176622e-11
-4.34169396e-11
-4.34166057e-11
-4.34160403e-11
-4.34158275e-11
-4.34154163e-11
-4.34153213e-11
-4.34150619e-11
-4.34150805e-11
-4.34149702e-11
-4.3415125e-11
-4.34154918e-11
-4.34160674e-11
-4.34165202e-11
-4.34171847e-11
-4.34177264e-11
-4.34184783e-11
-4.34191109e-11
-4.3419949e-11
-4.34206731e-11
-4.34215966e-11
-4.3422412e-11
-4.34234203e-11
-4.3424326e-11
-4.34254185e-11
-4.34264133e-11
-4.34275879e-11
-4.34286715e-11
-4.34299226e-11
-4.34306391e-11
-4.34314649e-11
-4.34322359e-11
-4.34331617e-11
-4.34340432e-11
-4.34350648e-11
-4.34360534e-11
-4.34371678e-11
-4.34382589e-11
-4.34394631e-11
-4.34406521e-11
-4.34419428e-11
-4.34432253e-11
-4.34445992e-11
-4.34459707e-11
-4.34474241e-11
-4.34488803e-11
-4.34504096e-11
-4.34519464e-11
-4.34535476e-11
-4.34551609e-11
-4.34568303e-11
-4.34585157e-11
-4.34602495e-11
-4.3462003e-11
-4.34637973e-11
-4.34656147e-11
-4.34674657e-11
-4.34693429e-11
-4.34712469e-11
-4.34731797e-11
-4.3475133e-11
-4.34771173e-11
-4.34791162e-11
-4.3481148e-11
-4.3483189e-11
-4.34852642e-11
-4.34873437e-11
-4.34894584e-11
-4.34915728e-11
-4.34937233e-11
-4.34958692e-11
-4.34980515e-11
-4.35002256e-11
-4.3502436e-11
-4.3504635e-11
-4.35068698e-11
-4.35090905e-11
-4.35113463e-11
-4.35135855e-11
-4.35158587e-11
-4.35181134e-11
-4.35204006e-11
-4.3522668e-11
-4.35249658e-11
-4.35272429e-11
-4.35295482e-11
-4.35318323e-11
-4.3534142e-11
-4.35364304e-11
-4.35387415e-11
-4.35410316e-11
-4.35433412e-11
-4.35456305e-11
-4.35479358e-11
-4.3550222e-11
-4.35525204e-11
-4.3554801e-11
-4.35570899e-11
-4.35593629e-11
-4.35616398e-11
-4.35639031e-11
-4.35661656e-11
-4.35684171e-11
-4.35706631e-11
-4.3572901e-11
-4.35751282e-11
-4.35773506e-11
-4.35795572e-11
-4.35817624e-11
-4.35839463e-11
-4.35861327e-11
-4.35882923e-11
-4.35904583e-11
-4.35925918e-11
-4.3594736e-11
-4.35968419e-11
-4.35989628e-11
-4.36010397e-11
-4.36031362e-11
-4.36051827e-11
-4.36072534e-11
-4.36092683e-11
-4.36113121e-11
-4.36132943e-11
-4.36153103e-11
-4.36172587e-11
-4.36192457e-11
-4.36211595e-11
-4.36231168e-11
-4.36249951e-11
-4.36269217e-11
-4.36287639e-11
-4.36306591e-11
-4.36324644e-11
-4.36343276e-11
-4.36360956e-11
-4.3637926e-11
-4.36396563e-11
-4.36414533e-11
-4.36431456e-11
-4.36449087e-11
-4.36465627e-11
-4.36482914e-11
-4.3649907e-11
-4.36516009e-11
-4.3653178e-11
-4.36548367e-11
-4.36563754e-11
-4.36579985e-11
-4.36594988e-11
-4.36610861e-11
-4.36625482e-11
-4.36640994e-11
-4.36655235e-11
-4.36670384e-11
-4.36684249e-11
-4.36699033e-11
-4.36712525e-11
-4.36726944e-11
-4.36740067e-11
-4.36754118e-11
-4.36766877e-11
-4.36780562e-11
-4.36792962e-11
-4.36806279e-11
-4.36818326e-11
-4.36831276e-11
-4.36842976e-11
-4.36855559e-11
-4.36866919e-11
-4.36879136e-11
-4.36890163e-11
-4.36902015e-11
-4.36912715e-11
-4.36924205e-11
-4.36934586e-11
-4.36945714e-11
-4.36955783e-11
-4.36966553e-11
-4.36976318e-11
-4.36986733e-11
-4.36996201e-11
-4.37006263e-11
-4.37015442e-11
-4.37025154e-11
-4.37034053e-11
-4.37043419e-11
-4.37052044e-11
-4.3706107e-11
-4.37069429e-11
-4.37078118e-11
-4.37086218e-11
-4.37094575e-11
-4.37102425e-11
-4.37110455e-11
-4.37118061e-11
-4.3712577e-11
-4.3713314e-11
-4.37140533e-11
-4.37147673e-11
-4.37154756e-11
-4.37161675e-11
-4.37168454e-11
-4.37175157e-11
-4.3718164e-11
-4.37188133e-11
-4.37194326e-11
-4.37200616e-11
-4.37206525e-11
-4.37212618e-11
-4.37218252e-11
-4.37224153e-11
-4.37229518e-11
-4.37235234e-11
-4.37240338e-11
-4.37245873e-11
-4.37250724e-11
-4.37256083e-11
-4.37260689e-11
-4.37265877e-11
-4.37270246e-11
-4.37275268e-11
-4.37279407e-11
-4.37284268e-11
-4.37288186e-11
-4.37292889e-11
-4.37296594e-11
-4.37301143e-11
-4.37304644e-11
-4.37309044e-11
-4.37312346e-11
-4.37316602e-11
-4.37319714e-11
-4.37323829e-11
-4.37326758e-11
-4.37330737e-11
-4.37333491e-11
-4.37337342e-11
-4.37340026e-11
-4.37344155e-11
-4.37347028e-11
-4.37351571e-11
-4.3735462e-11
-4.37359556e-11
-4.3736278e-11
-4.3736793e-11
-4.3737136e-11
-4.37376756e-11
-4.37380639e-11
-4.37385951e-11
-4.37390203e-11
-4.37395372e-11
-4.3739987e-11
-4.37404859e-11
-4.37409439e-11
-4.37414199e-11
-4.37418687e-11
-4.37423144e-11
-4.37427379e-11
-4.37431438e-11
-4.37435289e-11
-4.3743885e-11
-4.37442206e-11
-4.37445253e-11
-4.37447912e-11
-4.37450512e-11
-4.37450265e-11
-4.37450066e-11
-4.37449918e-11
-4.3744981e-11
-4.37449735e-11
-4.37449685e-11
-4.37449654e-11
-4.37449635e-11
-4.37449624e-11
-4.37449619e-11
-4.37449616e-11
-4.37449615e-11
-4.37449614e-11
-4.37449614e-11
-4.37449614e-11
-4.37449614e-11
-4.37449614e-11
-4.37449614e-11
-4.37449614e-11
-4.37449614e-11
-4.37449614e-11
-4.37449614e-11
-4.37449614e-11
-4.37449614e-11
-4.37449614e-11
-4.37449614e-11
-4.37449614e-11
-4.37449614e-11
-4.37449614e-11
-4.37449614e-11
-4.37449614e-11
-4.37449614e-11
-4.37449614e-11
-4.37449614e-11
-4.37449614e-11
-4.37449614e-11
-4.37449614e-11
-4.37449614e-11
-4.37449614e-11
-4.37449614e-11
-4.37449614e-11
-4.37449614e-11
-4.37449614e-11
-4.37449614e-11
-4.37449614e-11
-4.37449614e-11
-4.37449614e-11
-4.37449614e-11
-4.37449614e-11
)
;

boundaryField
{
    closed
    {
        type            calculated;
        value           nonuniform List<scalar> 0();
    }
    open
    {
        type            calculated;
        value           uniform -4.37449614e-11;
    }
    sides
    {
        type            empty;
    }
    procBoundary5to4
    {
        type            processor;
        value           uniform -3.73630588e-11;
    }
}


// ************************************************************************* //
