/*--------------------------------*- C++ -*----------------------------------*\
| =========                 |                                                 |
| \\      /  F ield         | OpenFOAM: The Open Source CFD Toolbox           |
|  \\    /   O peration     | Version:  2306                                  |
|   \\  /    A nd           | Website:  www.openfoam.com                      |
|    \\/     M anipulation  |                                                 |
\*---------------------------------------------------------------------------*/
FoamFile
{
    version     2.0;
    format      ascii;
    arch        "LSB;label=32;scalar=64";
    class       volScalarField;
    location    "0.00066";
    object      prefDZ_T;
}
// * * * * * * * * * * * * * * * * * * * * * * * * * * * * * * * * * * * * * //

dimensions      [1 -1 -1 -1 0 0 0];

internalField   nonuniform List<scalar> 
530
(
-1.11775584e-10
-1.11459139e-10
-1.11206975e-10
-1.10898441e-10
-1.106601e-10
-1.10358366e-10
-1.10133659e-10
-1.09846888e-10
-1.09634959e-10
-1.09365996e-10
-1.09157287e-10
-1.08903553e-10
-1.08696568e-10
-1.08456789e-10
-1.08251821e-10
-1.08024882e-10
-1.078221e-10
-1.0760703e-10
-1.07406509e-10
-1.07202457e-10
-1.07004208e-10
-1.06810415e-10
-1.06614403e-10
-1.06434753e-10
-1.06249133e-10
-1.0608129e-10
-1.05897472e-10
-1.05737465e-10
-1.05555458e-10
-1.05402813e-10
-1.05222621e-10
-1.05076907e-10
-1.04898487e-10
-1.04759373e-10
-1.04582535e-10
-1.04449913e-10
-1.04274151e-10
-1.04148625e-10
-1.03978232e-10
-1.03853852e-10
-1.03687746e-10
-1.03563099e-10
-1.03403373e-10
-1.03279626e-10
-1.03132882e-10
-1.03012812e-10
-1.02869629e-10
-1.02748595e-10
-1.02610295e-10
-1.02489573e-10
-1.02355839e-10
-1.02235516e-10
-1.02106075e-10
-1.01986207e-10
-1.01860821e-10
-1.01741449e-10
-1.01619896e-10
-1.01501057e-10
-1.01383129e-10
-1.01264857e-10
-1.01150357e-10
-1.01032683e-10
-1.00921426e-10
-1.0080438e-10
-1.00696187e-10
-1.00579797e-10
-1.00474502e-10
-1.00358791e-10
-1.00256234e-10
-1.00141224e-10
-1.00041256e-10
-9.99269631e-11
-9.98294449e-11
-9.97167874e-11
-9.96264552e-11
-9.95184295e-11
-9.94300357e-11
-9.93226095e-11
-9.92360712e-11
-9.91292762e-11
-9.90445175e-11
-9.89383821e-11
-9.88553336e-11
-9.87498827e-11
-9.86684822e-11
-9.85637367e-11
-9.84839293e-11
-9.83799059e-11
-9.83016439e-11
-9.81983553e-11
-9.81215979e-11
-9.80190526e-11
-9.79437662e-11
-9.78419676e-11
-9.77681261e-11
-9.76670718e-11
-9.75946569e-11
-9.74943364e-11
-9.74233387e-11
-9.73237324e-11
-9.72541489e-11
-9.71552326e-11
-9.70870517e-11
-9.69888234e-11
-9.69220513e-11
-9.68243716e-11
-9.67601108e-11
-9.66635424e-11
-9.65982767e-11
-9.65034374e-11
-9.64358536e-11
-9.63408981e-11
-9.62730578e-11
-9.61802379e-11
-9.61121819e-11
-9.60213988e-11
-9.59532102e-11
-9.58643456e-11
-9.57961168e-11
-9.57090569e-11
-9.56408751e-11
-9.55555174e-11
-9.54897768e-11
-9.54106924e-11
-9.53463529e-11
-9.52686031e-11
-9.52043818e-11
-9.51279166e-11
-9.50638804e-11
-9.49886564e-11
-9.49248656e-11
-9.4850845e-11
-9.47873542e-11
-9.47145042e-11
-9.46513623e-11
-9.45796547e-11
-9.45169059e-11
-9.44463161e-11
-9.4384e-11
-9.43145071e-11
-9.42526595e-11
-9.41841402e-11
-9.41223606e-11
-9.40546243e-11
-9.39935733e-11
-9.39270523e-11
-9.38667465e-11
-9.3801419e-11
-9.37418733e-11
-9.36777191e-11
-9.3618947e-11
-9.35559471e-11
-9.34979604e-11
-9.34360974e-11
-9.33789064e-11
-9.33181644e-11
-9.32617775e-11
-9.32021422e-11
-9.31465664e-11
-9.30880247e-11
-9.30332655e-11
-9.29758057e-11
-9.29218675e-11
-9.28649551e-11
-9.28100827e-11
-9.27528644e-11
-9.26987484e-11
-9.26424584e-11
-9.25891056e-11
-9.25337421e-11
-9.24811589e-11
-9.24267193e-11
-9.23749118e-11
-9.23213927e-11
-9.22703664e-11
-9.22177636e-11
-9.21675236e-11
-9.21158324e-11
-9.2066383e-11
-9.20155979e-11
-9.19669429e-11
-9.19170579e-11
-9.18692e-11
-9.18202087e-11
-9.17731498e-11
-9.17250453e-11
-9.16787864e-11
-9.16315615e-11
-9.15861027e-11
-9.15397497e-11
-9.14950902e-11
-9.1449601e-11
-9.14057393e-11
-9.13611052e-11
-9.1318039e-11
-9.1274251e-11
-9.1231977e-11
-9.11890256e-11
-9.11475398e-11
-9.11054152e-11
-9.10647128e-11
-9.10234045e-11
-9.09834801e-11
-9.09429773e-11
-9.09038244e-11
-9.0864116e-11
-9.08257275e-11
-9.07868017e-11
-9.07491699e-11
-9.07110142e-11
-9.0674131e-11
-9.06378025e-11
-9.06064054e-11
-9.05746975e-11
-9.05438829e-11
-9.05128127e-11
-9.04825816e-11
-9.0452145e-11
-9.04224966e-11
-9.03926902e-11
-9.03636222e-11
-9.03344431e-11
-9.03059526e-11
-9.02773979e-11
-9.02494813e-11
-9.02214906e-11
-9.01934258e-11
-9.01653818e-11
-9.01379543e-11
-9.01105491e-11
-9.00837482e-11
-9.00569753e-11
-9.00307909e-11
-9.0004643e-11
-8.99790659e-11
-8.9953535e-11
-8.99285565e-11
-8.9903634e-11
-8.98792457e-11
-8.98549228e-11
-8.98311163e-11
-8.98073851e-11
-8.97841506e-11
-8.9761006e-11
-8.97379238e-11
-8.97149002e-11
-8.96923337e-11
-8.96698864e-11
-8.96478728e-11
-8.96259938e-11
-8.96045241e-11
-8.95832038e-11
-8.956227e-11
-8.95414987e-11
-8.95210928e-11
-8.9500861e-11
-8.94809748e-11
-8.94612729e-11
-8.94418979e-11
-8.94227166e-11
-8.94038442e-11
-8.93851742e-11
-8.93667957e-11
-8.93486276e-11
-8.93307344e-11
-8.93130589e-11
-8.92956422e-11
-8.927845e-11
-8.92615011e-11
-8.9244783e-11
-8.92282931e-11
-8.92120398e-11
-8.91960004e-11
-8.91802025e-11
-8.91646049e-11
-8.91492533e-11
-8.9134089e-11
-8.91191743e-11
-8.91044349e-11
-8.9089948e-11
-8.9075625e-11
-8.90615568e-11
-8.90476417e-11
-8.90339832e-11
-8.90204677e-11
-8.90072098e-11
-8.89940858e-11
-8.89812195e-11
-8.89684788e-11
-8.89559952e-11
-8.89436298e-11
-8.89315201e-11
-8.89195219e-11
-8.89077774e-11
-8.88961385e-11
-8.88847506e-11
-8.88734633e-11
-8.88624233e-11
-8.88514798e-11
-8.88407794e-11
-8.88301721e-11
-8.88198029e-11
-8.88095242e-11
-8.87994779e-11
-8.87895204e-11
-8.87797889e-11
-8.87701453e-11
-8.87607206e-11
-8.87513835e-11
-8.87422577e-11
-8.87332201e-11
-8.87243853e-11
-8.87156401e-11
-8.87070887e-11
-8.86986289e-11
-8.86903534e-11
-8.86821721e-11
-8.86741651e-11
-8.86662554e-11
-8.86585096e-11
-8.86508651e-11
-8.86433733e-11
-8.86359871e-11
-8.86287424e-11
-8.86216082e-11
-8.86146036e-11
-8.86077149e-11
-8.86009437e-11
-8.85942942e-11
-8.85877498e-11
-8.85813333e-11
-8.85750093e-11
-8.85688196e-11
-8.85627096e-11
-8.85567406e-11
-8.85508385e-11
-8.85450843e-11
-8.8539384e-11
-8.85338387e-11
-8.85283343e-11
-8.85229921e-11
-8.8517678e-11
-8.8512533e-11
-8.85074036e-11
-8.85024503e-11
-8.84975e-11
-8.84927329e-11
-8.84879565e-11
-8.84833701e-11
-8.84787623e-11
-8.84743511e-11
-8.8469907e-11
-8.84656658e-11
-8.84613804e-11
-8.8457304e-11
-8.84531726e-11
-8.84492557e-11
-8.84452737e-11
-8.84415113e-11
-8.84376743e-11
-8.84340613e-11
-8.84303649e-11
-8.84268965e-11
-8.84233364e-11
-8.84200078e-11
-8.841658e-11
-8.84133863e-11
-8.84100869e-11
-8.84070234e-11
-8.84038486e-11
-8.84009108e-11
-8.83978568e-11
-8.83950401e-11
-8.83921034e-11
-8.83894034e-11
-8.83865805e-11
-8.83839928e-11
-8.83812804e-11
-8.83788008e-11
-8.83761955e-11
-8.83738198e-11
-8.83713186e-11
-8.83690426e-11
-8.83666424e-11
-8.83644622e-11
-8.83621601e-11
-8.83600718e-11
-8.83578649e-11
-8.83558646e-11
-8.83537501e-11
-8.83518341e-11
-8.83498093e-11
-8.83479741e-11
-8.83460363e-11
-8.83442784e-11
-8.83424251e-11
-8.8340741e-11
-8.83389696e-11
-8.83373562e-11
-8.83356642e-11
-8.83341183e-11
-8.83325033e-11
-8.83310218e-11
-8.83294814e-11
-8.83280615e-11
-8.83265934e-11
-8.83252323e-11
-8.83238341e-11
-8.8322529e-11
-8.83211985e-11
-8.8319947e-11
-8.83186818e-11
-8.83174815e-11
-8.83162795e-11
-8.8315128e-11
-8.83139869e-11
-8.8312882e-11
-8.83117998e-11
-8.83107394e-11
-8.83097138e-11
-8.8308696e-11
-8.8307725e-11
-8.83067479e-11
-8.83058293e-11
-8.83048911e-11
-8.83040229e-11
-8.83031219e-11
-8.83023021e-11
-8.83014368e-11
-8.83006634e-11
-8.82998323e-11
-8.82991033e-11
-8.8298305e-11
-8.82976185e-11
-8.82968516e-11
-8.82962057e-11
-8.8295469e-11
-8.82948619e-11
-8.82941542e-11
-8.82935841e-11
-8.82929043e-11
-8.82923693e-11
-8.82917164e-11
-8.82912149e-11
-8.82905878e-11
-8.82901182e-11
-8.82895158e-11
-8.82890766e-11
-8.8288498e-11
-8.82880877e-11
-8.82875318e-11
-8.8287149e-11
-8.82866143e-11
-8.8286244e-11
-8.82856744e-11
-8.82852815e-11
-8.82846588e-11
-8.8284246e-11
-8.82835741e-11
-8.8283142e-11
-8.82824517e-11
-8.82819944e-11
-8.82812789e-11
-8.82807628e-11
-8.82800703e-11
-8.82795113e-11
-8.82788468e-11
-8.82782649e-11
-8.82776321e-11
-8.82770503e-11
-8.82764551e-11
-8.82758961e-11
-8.82753478e-11
-8.8274831e-11
-8.8274341e-11
-8.82738817e-11
-8.82734605e-11
-8.82730703e-11
-8.82727195e-11
-8.82724159e-11
-8.82721253e-11
-8.82720733e-11
-8.82720314e-11
-8.82720003e-11
-8.82719778e-11
-8.82719622e-11
-8.82719519e-11
-8.82719454e-11
-8.82719414e-11
-8.82719393e-11
-8.82719383e-11
-8.82719376e-11
-8.82719373e-11
-8.82719372e-11
-8.82719371e-11
-8.82719371e-11
-8.82719371e-11
-8.82719371e-11
-8.82719371e-11
-8.82719371e-11
-8.82719371e-11
-8.82719371e-11
-8.82719371e-11
-8.82719371e-11
-8.82719371e-11
-8.82719371e-11
-8.82719371e-11
-8.82719371e-11
-8.82719371e-11
-8.82719371e-11
-8.82719371e-11
-8.82719371e-11
-8.82719371e-11
-8.82719371e-11
-8.82719371e-11
-8.82719371e-11
-8.82719371e-11
-8.82719371e-11
-8.82719371e-11
-8.82719371e-11
-8.82719371e-11
-8.82719371e-11
-8.82719371e-11
-8.82719371e-11
-8.82719371e-11
-8.82719371e-11
-8.82719371e-11
-8.82719371e-11
-8.82719371e-11
-8.82719371e-11
)
;

boundaryField
{
    closed
    {
        type            calculated;
        value           nonuniform List<scalar> 0();
    }
    open
    {
        type            calculated;
        value           uniform -8.82719371e-11;
    }
    sides
    {
        type            empty;
    }
    procBoundary5to4
    {
        type            processor;
        value           uniform -1.12041844e-10;
    }
}


// ************************************************************************* //
