/*--------------------------------*- C++ -*----------------------------------*\
| =========                 |                                                 |
| \\      /  F ield         | OpenFOAM: The Open Source CFD Toolbox           |
|  \\    /   O peration     | Version:  2306                                  |
|   \\  /    A nd           | Website:  www.openfoam.com                      |
|    \\/     M anipulation  |                                                 |
\*---------------------------------------------------------------------------*/
FoamFile
{
    version     2.0;
    format      ascii;
    arch        "LSB;label=32;scalar=64";
    class       volVectorField;
    location    "0.00066";
    object      U;
}
// * * * * * * * * * * * * * * * * * * * * * * * * * * * * * * * * * * * * * //

dimensions      [0 1 -1 0 0 0 0];

internalField   nonuniform List<vector> 
530
(
(2.60011315 0 0)
(2.60856564 0 0)
(2.61692713 0 0)
(2.62515124 0 0)
(2.6332223 0 0)
(2.64108493 0 0)
(2.64868558 0 0)
(2.65597132 0 0)
(2.6629393 0 0)
(2.66957928 0 0)
(2.67588214 0 0)
(2.68182425 0 0)
(2.68739865 0 0)
(2.69258187 0 0)
(2.69736761 0 0)
(2.70174136 0 0)
(2.70569985 0 0)
(2.70923609 0 0)
(2.71235058 0 0)
(2.71504288 0 0)
(2.71731889 0 0)
(2.71918057 0 0)
(2.72061798 0 0)
(2.72161507 0 0)
(2.72218632 0 0)
(2.72236265 0 0)
(2.7221714 0 0)
(2.72162347 0 0)
(2.72073268 0 0)
(2.71950874 0 0)
(2.71796854 0 0)
(2.71612162 0 0)
(2.71398771 0 0)
(2.71157516 0 0)
(2.70890948 0 0)
(2.70599895 0 0)
(2.70287202 0 0)
(2.69945158 0 0)
(2.69586268 0 0)
(2.69218018 0 0)
(2.68828288 0 0)
(2.68419886 0 0)
(2.67997225 0 0)
(2.67559233 0 0)
(2.67107207 0 0)
(2.66643055 0 0)
(2.66170514 0 0)
(2.6568991 0 0)
(2.65203658 0 0)
(2.64711929 0 0)
(2.64217116 0 0)
(2.63719332 0 0)
(2.63220934 0 0)
(2.62721947 0 0)
(2.62224663 0 0)
(2.61729018 0 0)
(2.61237206 0 0)
(2.60749072 0 0)
(2.6026669 0 0)
(2.59789811 0 0)
(2.59320365 0 0)
(2.5885801 0 0)
(2.58404518 0 0)
(2.57959453 0 0)
(2.57524412 0 0)
(2.57098865 0 0)
(2.56684226 0 0)
(2.56279866 0 0)
(2.55887005 0 0)
(2.55504925 0 0)
(2.55134701 0 0)
(2.54775544 0 0)
(2.54427976 0 0)
(2.54089989 0 0)
(2.5376148 0 0)
(2.53442381 0 0)
(2.53134178 0 0)
(2.52835935 0 0)
(2.52547901 0 0)
(2.52268909 0 0)
(2.51999162 0 0)
(2.51737481 0 0)
(2.51483976 0 0)
(2.51237428 0 0)
(2.50997866 0 0)
(2.50764052 0 0)
(2.50535959 0 0)
(2.50312342 0 0)
(2.50093139 0 0)
(2.49877117 0 0)
(2.49664209 0 0)
(2.49453206 0 0)
(2.49244058 0 0)
(2.49035592 0 0)
(2.48827788 0 0)
(2.48619513 0 0)
(2.4841081 0 0)
(2.48200614 0 0)
(2.47989117 0 0)
(2.47775429 0 0)
(2.47560001 0 0)
(2.47342234 0 0)
(2.47122687 0 0)
(2.46899649 0 0)
(2.4667809 0 0)
(2.46442511 0 0)
(2.4620653 0 0)
(2.45973501 0 0)
(2.45729693 0 0)
(2.45486028 0 0)
(2.45238765 0 0)
(2.44986716 0 0)
(2.44731049 0 0)
(2.44471527 0 0)
(2.44208841 0 0)
(2.43942829 0 0)
(2.43673982 0 0)
(2.43402178 0 0)
(2.43127848 0 0)
(2.42850942 0 0)
(2.42571832 0 0)
(2.42290084 0 0)
(2.42005452 0 0)
(2.4171797 0 0)
(2.41428601 0 0)
(2.4113759 0 0)
(2.40845271 0 0)
(2.40551592 0 0)
(2.40256839 0 0)
(2.39960995 0 0)
(2.39664314 0 0)
(2.39366775 0 0)
(2.39068596 0 0)
(2.38769749 0 0)
(2.38470416 0 0)
(2.38170562 0 0)
(2.37870336 0 0)
(2.37569694 0 0)
(2.37268751 0 0)
(2.36967446 0 0)
(2.36665872 0 0)
(2.36364066 0 0)
(2.36062037 0 0)
(2.35759605 0 0)
(2.35456884 0 0)
(2.35153817 0 0)
(2.34850439 0 0)
(2.34546669 0 0)
(2.34242533 0 0)
(2.33937953 0 0)
(2.33632953 0 0)
(2.33327463 0 0)
(2.33021507 0 0)
(2.32715027 0 0)
(2.32408054 0 0)
(2.32100546 0 0)
(2.31792542 0 0)
(2.31484018 0 0)
(2.31175033 0 0)
(2.30865585 0 0)
(2.30555728 0 0)
(2.30245413 0 0)
(2.29934729 0 0)
(2.29624504 0 0)
(2.29314563 0 0)
(2.29004127 0 0)
(2.28693606 0 0)
(2.28383209 0 0)
(2.2807309 0 0)
(2.27763337 0 0)
(2.27454105 0 0)
(2.27145511 0 0)
(2.26837726 0 0)
(2.26530879 0 0)
(2.26225148 0 0)
(2.2592067 0 0)
(2.25617627 0 0)
(2.25316161 0 0)
(2.25016451 0 0)
(2.24718639 0 0)
(2.24422899 0 0)
(2.24129365 0 0)
(2.23838203 0 0)
(2.23549538 0 0)
(2.23263518 0 0)
(2.22980256 0 0)
(2.22699883 0 0)
(2.22422493 0 0)
(2.22148197 0 0)
(2.21877067 0 0)
(2.21609193 0 0)
(2.21344623 0 0)
(2.21083423 0 0)
(2.20825618 0 0)
(2.20571247 0 0)
(2.20320313 0 0)
(2.20072828 0 0)
(2.1982877 0 0)
(2.19588128 0 0)
(2.19350858 0 0)
(2.19116924 0 0)
(2.18886259 0 0)
(2.18658805 0 0)
(2.18434477 0 0)
(2.18213196 0 0)
(2.17994859 0 0)
(2.17779367 0 0)
(2.17566603 0 0)
(2.17356458 0 0)
(2.17148795 0 0)
(2.16943454 0 0)
(2.167402 0 0)
(2.16538814 0 0)
(2.16339192 0 0)
(2.16141292 0 0)
(2.15944963 0 0)
(2.15750032 0 0)
(2.15556315 0 0)
(2.15363637 0 0)
(2.15171813 0 0)
(2.14980661 0 0)
(2.14789989 0 0)
(2.14599612 0 0)
(2.14409335 0 0)
(2.14218966 0 0)
(2.14028306 0 0)
(2.13837171 0 0)
(2.13645369 0 0)
(2.13452703 0 0)
(2.13258976 0 0)
(2.13063997 0 0)
(2.12867568 0 0)
(2.126695 0 0)
(2.12469602 0 0)
(2.12267686 0 0)
(2.12063568 0 0)
(2.11857071 0 0)
(2.11648018 0 0)
(2.11436246 0 0)
(2.11221591 0 0)
(2.11003916 0 0)
(2.10783074 0 0)
(2.10558841 0 0)
(2.10330839 0 0)
(2.10099731 0 0)
(2.09865812 0 0)
(2.09628299 0 0)
(2.09387025 0 0)
(2.09141996 0 0)
(2.0889323 0 0)
(2.08640744 0 0)
(2.08384578 0 0)
(2.08124802 0 0)
(2.07861511 0 0)
(2.07594829 0 0)
(2.07324907 0 0)
(2.07051928 0 0)
(2.06776102 0 0)
(2.06497674 0 0)
(2.06216916 0 0)
(2.05934132 0 0)
(2.05649654 0 0)
(2.05363845 0 0)
(2.05077097 0 0)
(2.04789827 0 0)
(2.0450248 0 0)
(2.04215525 0 0)
(2.03929454 0 0)
(2.03644781 0 0)
(2.03362041 0 0)
(2.03081784 0 0)
(2.02804578 0 0)
(2.02531002 0 0)
(2.02261648 0 0)
(2.01997112 0 0)
(2.01737997 0 0)
(2.01484906 0 0)
(2.01238443 0 0)
(2.00999203 0 0)
(2.00767775 0 0)
(2.00544737 0 0)
(2.00330652 0 0)
(2.00126065 0 0)
(1.99931501 0 0)
(1.99747463 0 0)
(1.99574427 0 0)
(1.9941284 0 0)
(1.9926312 0 0)
(1.9912565 0 0)
(1.99000783 0 0)
(1.98888832 0 0)
(1.98790074 0 0)
(1.98704747 0 0)
(1.9863305 0 0)
(1.98575143 0 0)
(1.98531143 0 0)
(1.98501131 0 0)
(1.98485142 0 0)
(1.98483177 0 0)
(1.98495192 0 0)
(1.9852111 0 0)
(1.98560812 0 0)
(1.98614146 0 0)
(1.98680922 0 0)
(1.9876092 0 0)
(1.98853885 0 0)
(1.98959534 0 0)
(1.99077556 0 0)
(1.99207612 0 0)
(1.99349341 0 0)
(1.99502358 0 0)
(1.99666257 0 0)
(1.99840618 0 0)
(2.00025 0 0)
(2.00218951 0 0)
(2.00422005 0 0)
(2.00633687 0 0)
(2.00853511 0 0)
(2.01080989 0 0)
(2.01315623 0 0)
(2.01556915 0 0)
(2.01804363 0 0)
(2.02057466 0 0)
(2.02315722 0 0)
(2.02578634 0 0)
(2.02845704 0 0)
(2.03116442 0 0)
(2.03390361 0 0)
(2.03666982 0 0)
(2.03945829 0 0)
(2.04226437 0 0)
(2.04508348 0 0)
(2.04791112 0 0)
(2.0507429 0 0)
(2.0535745 0 0)
(2.05640173 0 0)
(2.05922047 0 0)
(2.06202673 0 0)
(2.06481663 0 0)
(2.06758639 0 0)
(2.07033235 0 0)
(2.07305097 0 0)
(2.07573883 0 0)
(2.07839262 0 0)
(2.08100917 0 0)
(2.08358541 0 0)
(2.08611842 0 0)
(2.0886054 0 0)
(2.09104367 0 0)
(2.0934307 0 0)
(2.09576408 0 0)
(2.09804155 0 0)
(2.10026095 0 0)
(2.1024203 0 0)
(2.10451775 0 0)
(2.10655157 0 0)
(2.1085202 0 0)
(2.11042221 0 0)
(2.11225632 0 0)
(2.11402141 0 0)
(2.11571647 0 0)
(2.1173407 0 0)
(2.11889339 0 0)
(2.12037402 0 0)
(2.12178221 0 0)
(2.12311774 0 0)
(2.12438051 0 0)
(2.12557062 0 0)
(2.12668829 0 0)
(2.12773389 0 0)
(2.12870795 0 0)
(2.12961114 0 0)
(2.13044427 0 0)
(2.13120832 0 0)
(2.13190437 0 0)
(2.13253367 0 0)
(2.13309758 0 0)
(2.13359761 0 0)
(2.13403537 0 0)
(2.13441261 0 0)
(2.1347312 0 0)
(2.1349931 0 0)
(2.13520037 0 0)
(2.1353552 0 0)
(2.13545984 0 0)
(2.13551663 0 0)
(2.13552798 0 0)
(2.13549639 0 0)
(2.1354244 0 0)
(2.13531459 0 0)
(2.1351696 0 0)
(2.13499211 0 0)
(2.13478481 0 0)
(2.13455039 0 0)
(2.13429158 0 0)
(2.13401108 0 0)
(2.13371158 0 0)
(2.13339574 0 0)
(2.1330662 0 0)
(2.13272555 0 0)
(2.13237632 0 0)
(2.13202098 0 0)
(2.13166195 0 0)
(2.13130153 0 0)
(2.13094196 0 0)
(2.13058537 0 0)
(2.13023378 0 0)
(2.12988912 0 0)
(2.12955318 0 0)
(2.12922762 0 0)
(2.12891397 0 0)
(2.12861363 0 0)
(2.12832785 0 0)
(2.12805773 0 0)
(2.12780422 0 0)
(2.12756811 0 0)
(2.12735004 0 0)
(2.12715047 0 0)
(2.12696972 0 0)
(2.12680794 0 0)
(2.12666512 0 0)
(2.12654107 0 0)
(2.12643546 0 0)
(2.12634778 0 0)
(2.12627739 0 0)
(2.12622348 0 0)
(2.12618508 0 0)
(2.1261611 0 0)
(2.12615027 0 0)
(2.12615121 0 0)
(2.12616242 0 0)
(2.12618225 0 0)
(2.12620893 0 0)
(2.12624061 0 0)
(2.12627531 0 0)
(2.12631095 0 0)
(2.12634538 0 0)
(2.12637637 0 0)
(2.1264016 0 0)
(2.1264187 0 0)
(2.12642524 0 0)
(2.12641875 0 0)
(2.12639673 0 0)
(2.12635664 0 0)
(2.12629592 0 0)
(2.12621201 0 0)
(2.12610236 0 0)
(2.1259644 0 0)
(2.1257956 0 0)
(2.12559342 0 0)
(2.12535543 0 0)
(2.12507947 0 0)
(2.12476334 0 0)
(2.12439132 0 0)
(2.12393753 0 0)
(2.12338502 0 0)
(2.12271334 0 0)
(2.1218975 0 0)
(2.12090778 0 0)
(2.11970862 0 0)
(2.11825751 0 0)
(2.11650544 0 0)
(2.11439488 0 0)
(2.11185853 0 0)
(2.10881955 0 0)
(2.10519055 0 0)
(2.10087385 0 0)
(2.09576173 0 0)
(2.08973838 0 0)
(2.08268277 0 0)
(2.07447357 0 0)
(2.06499642 0 0)
(2.05415399 0 0)
(2.04187964 0 0)
(2.02815489 0 0)
(2.0130316 0 0)
(1.99665888 0 0)
(1.97931436 0 0)
(1.96143837 0 0)
(1.94366668 0 0)
(1.9268556 0 0)
(1.91207487 0 0)
(1.9005655 0 0)
(1.89365195 0 0)
(1.89256622 0 0)
(1.89821403 0 0)
(1.91091784 0 0)
(1.93023313 0 0)
(1.95503781 0 0)
(1.98421634 0 0)
(2.01828408 0 0)
(2.0617893 0 0)
(2.12428758 0 0)
(2.21615857 0 0)
(2.33899286 0 0)
(2.47737871 0 0)
(2.6030154 0 0)
(2.69351563 0 0)
(2.74577822 0 0)
(2.77482033 0 0)
(2.77939033 0 0)
(2.70841826 0 0)
(2.5432556 0 0)
(2.331398 0 0)
(2.14155263 0 0)
(2.07548209 0 0)
(2.08003689 0 0)
(1.94794629 0 0)
(1.72337211 0 0)
(1.74802861 0 0)
(2.223673 0 0)
(2.93252533 0 0)
(3.45740323 0 0)
(3.63503457 0 0)
(3.55773607 0 0)
(3.47648344 0 0)
(3.63319662 0 0)
(3.79573268 0 0)
(3.53538588 0 0)
(2.95468401 0 0)
(2.52684421 0 0)
(2.43035871 0 0)
(2.57994624 0 0)
(2.73124831 0 0)
(2.2786466 0 0)
(1.40404475 0 0)
(0.999797607 0 0)
(1.81961295 0 0)
(3.48401342 0 0)
(3.8273502 0 0)
)
;

boundaryField
{
    closed
    {
        type            noSlip;
    }
    open
    {
        type            inletOutlet;
        inletValue      uniform (0 0 0);
        value           uniform (3.8273502 0 0);
    }
    sides
    {
        type            empty;
    }
    procBoundary5to4
    {
        type            processor;
        value           uniform (2.59163229 0 0);
    }
}


// ************************************************************************* //
