/*--------------------------------*- C++ -*----------------------------------*\
| =========                 |                                                 |
| \\      /  F ield         | OpenFOAM: The Open Source CFD Toolbox           |
|  \\    /   O peration     | Version:  2306                                  |
|   \\  /    A nd           | Website:  www.openfoam.com                      |
|    \\/     M anipulation  |                                                 |
\*---------------------------------------------------------------------------*/
FoamFile
{
    version     2.0;
    format      ascii;
    arch        "LSB;label=32;scalar=64";
    class       surfaceScalarField;
    location    "0.0019";
    object      phi;
}
// * * * * * * * * * * * * * * * * * * * * * * * * * * * * * * * * * * * * * //

dimensions      [1 0 -1 0 0 0 0];

oriented        oriented;

internalField   nonuniform List<scalar> 
529
(
4.29428505e-08
7.13968268e-08
7.45345102e-08
7.64525848e-08
7.84086801e-08
7.7303608e-08
8.67810135e-08
1.10686059e-07
1.12234985e-07
1.14499178e-07
1.09656349e-07
1.144042e-07
1.14700018e-07
1.16802857e-07
1.20578255e-07
1.17185001e-07
1.17732018e-07
1.21668832e-07
1.23355991e-07
1.02890973e-07
9.41212667e-08
1.27371823e-07
1.41392291e-07
1.41280113e-07
1.45876583e-07
1.46179382e-07
1.50448122e-07
1.46654854e-07
1.5892297e-07
1.85419687e-07
1.87392026e-07
1.91138348e-07
1.94371934e-07
1.89231614e-07
1.8965285e-07
1.94214745e-07
1.96097685e-07
1.79614628e-07
1.74465587e-07
1.96889046e-07
2.0507545e-07
2.09322273e-07
2.1472879e-07
2.14487154e-07
2.22609712e-07
2.31075473e-07
2.29757313e-07
2.34848288e-07
2.34528714e-07
2.40533848e-07
2.34850178e-07
2.26080277e-07
2.50303838e-07
2.62419297e-07
2.62787302e-07
2.66363057e-07
2.44430413e-07
2.66393826e-07
2.71406669e-07
2.71645062e-07
2.75994847e-07
2.57625709e-07
2.73227575e-07
2.89745631e-07
2.93616436e-07
2.95036825e-07
3.00296036e-07
2.76306468e-07
2.86921208e-07
2.97442338e-07
2.99243449e-07
3.02906468e-07
3.18277088e-07
3.2252987e-07
3.16561106e-07
3.22037113e-07
3.19628527e-07
3.25072468e-07
2.96972189e-07
3.17367828e-07
3.26025469e-07
3.26312862e-07
3.29846787e-07
3.22948251e-07
3.40278628e-07
3.49706832e-07
3.51576904e-07
3.54155707e-07
3.73434123e-07
3.79358515e-07
3.72452413e-07
3.77321692e-07
3.74737871e-07
3.81293182e-07
3.5495229e-07
3.54014098e-07
3.71778818e-07
3.90927457e-07
3.8588929e-07
3.90800001e-07
3.90770084e-07
4.07673167e-07
4.11878573e-07
4.05825645e-07
4.11402991e-07
4.09207555e-07
4.1709666e-07
4.19974207e-07
4.15370557e-07
4.1913799e-07
4.40876087e-07
4.34683554e-07
4.38675716e-07
4.37110117e-07
4.37155943e-07
4.44480733e-07
4.64852309e-07
4.87706861e-07
4.80010474e-07
4.85491894e-07
4.85684198e-07
5.05011029e-07
5.10459726e-07
5.04166476e-07
5.12771797e-07
5.18028337e-07
5.35216603e-07
5.3785512e-07
5.36950384e-07
5.53566648e-07
5.66132261e-07
5.60046731e-07
5.65062391e-07
5.63177364e-07
5.63654029e-07
5.79673383e-07
5.88810547e-07
5.89769277e-07
5.9302957e-07
6.148849e-07
6.02843067e-07
6.03145465e-07
6.0899968e-07
6.314585e-07
6.25160384e-07
6.27551463e-07
6.62208586e-07
6.67796926e-07
6.62180651e-07
6.66937221e-07
6.94925878e-07
6.97303454e-07
6.9186248e-07
6.96713758e-07
7.37068298e-07
7.56741421e-07
7.4000327e-07
7.43869694e-07
7.43826903e-07
7.48065459e-07
7.58992916e-07
7.62508787e-07
7.68331206e-07
7.72814689e-07
7.9470861e-07
7.90644949e-07
7.88048861e-07
7.94425656e-07
7.95019574e-07
8.27648482e-07
8.38466937e-07
8.22907405e-07
8.30080979e-07
8.5049702e-07
8.40815695e-07
8.44045588e-07
8.86821836e-07
8.92392527e-07
8.80804309e-07
8.85587115e-07
9.20986197e-07
9.2974123e-07
9.21476856e-07
9.25998351e-07
9.3888131e-07
9.46141557e-07
9.34457258e-07
1.00943855e-06
1.00585334e-06
1.00834218e-06
1.0225812e-06
1.00514788e-06
1.00796075e-06
1.0007104e-06
1.00081914e-06
1.04177281e-06
1.05567316e-06
1.04395913e-06
1.03297075e-06
1.06899814e-06
1.09333507e-06
1.07868053e-06
1.07580827e-06
1.08022905e-06
1.12753469e-06
1.13993347e-06
1.12433091e-06
1.16392158e-06
1.17583925e-06
1.16013661e-06
1.16908121e-06
1.19731047e-06
1.21155386e-06
1.2332121e-06
1.21614983e-06
1.21079717e-06
1.21570232e-06
1.21661941e-06
1.2222304e-06
1.23495086e-06
1.24385443e-06
1.23262587e-06
1.24027345e-06
1.26162824e-06
1.27788339e-06
1.28144855e-06
1.29841491e-06
1.2682946e-06
1.26678137e-06
1.27496762e-06
1.27162282e-06
1.31949041e-06
1.33107853e-06
1.31961312e-06
1.33429637e-06
1.35884653e-06
1.34418486e-06
1.33247178e-06
1.40482736e-06
1.41449938e-06
1.37736318e-06
1.37943303e-06
1.3829138e-06
1.39573738e-06
1.40349294e-06
1.40240705e-06
1.4952232e-06
1.52466921e-06
1.50925567e-06
1.51438205e-06
1.51047919e-06
1.49168431e-06
1.48358037e-06
1.49891722e-06
1.51638679e-06
1.51527806e-06
1.53546064e-06
1.4999185e-06
1.49335555e-06
1.49583807e-06
1.4987104e-06
1.50298871e-06
1.51480917e-06
1.52289183e-06
1.54669746e-06
1.59184938e-06
1.54333412e-06
1.5462521e-06
1.60470822e-06
1.6144588e-06
1.60125309e-06
1.60681683e-06
1.62458583e-06
1.64213473e-06
1.64682543e-06
1.65388432e-06
1.61232627e-06
1.63177273e-06
1.640617e-06
1.67465285e-06
1.67231443e-06
1.68191869e-06
1.67265732e-06
1.72796063e-06
1.73872569e-06
1.73218398e-06
1.73818209e-06
1.71634351e-06
1.7314567e-06
1.75568625e-06
1.74140768e-06
1.74808706e-06
1.80726164e-06
1.81805811e-06
1.80229828e-06
1.80709757e-06
1.82169649e-06
1.83637945e-06
1.83324806e-06
1.8322472e-06
1.86479288e-06
1.82447651e-06
1.82856723e-06
1.81540286e-06
1.82134037e-06
1.82038428e-06
1.80773406e-06
1.8172732e-06
1.83322818e-06
1.88357321e-06
1.84595169e-06
1.84460329e-06
1.91014596e-06
1.91096523e-06
1.9647113e-06
1.91728561e-06
1.92046459e-06
1.97011604e-06
1.98147947e-06
1.97447969e-06
1.98096852e-06
2.04393365e-06
2.06189583e-06
2.05581505e-06
1.98370028e-06
2.0176989e-06
2.02300301e-06
2.01368567e-06
2.01824082e-06
2.00098279e-06
2.02216763e-06
2.04574286e-06
2.03983175e-06
2.05845986e-06
2.03381797e-06
2.03703839e-06
2.0936015e-06
2.1013845e-06
2.08602725e-06
2.0891748e-06
2.07875832e-06
2.08196498e-06
2.09924362e-06
2.11953763e-06
2.10972947e-06
2.11450768e-06
2.10695786e-06
2.10963341e-06
2.1747405e-06
2.18122498e-06
2.13755308e-06
2.13247997e-06
2.13624345e-06
2.18711738e-06
2.16800033e-06
2.17976228e-06
2.17408029e-06
2.18989563e-06
2.19637913e-06
2.19114561e-06
2.19147237e-06
2.26140931e-06
2.26642957e-06
2.21771285e-06
2.21110522e-06
2.21224885e-06
2.21092387e-06
2.21506017e-06
2.19002337e-06
2.20172958e-06
2.22055497e-06
2.2106975e-06
2.25026903e-06
2.20088224e-06
2.20028283e-06
2.2253616e-06
2.23686211e-06
2.25238065e-06
2.24715199e-06
2.24818434e-06
2.26179416e-06
2.27039135e-06
2.23024441e-06
2.2303933e-06
2.23103764e-06
2.23077309e-06
2.24208801e-06
2.26627809e-06
2.26835513e-06
2.25822855e-06
2.17125542e-06
2.21890382e-06
2.22146697e-06
2.24111103e-06
2.23613099e-06
2.24886003e-06
2.25241562e-06
2.25465139e-06
2.2061183e-06
2.28111541e-06
2.29352203e-06
2.28551613e-06
2.28524331e-06
2.27389262e-06
2.27445537e-06
2.26536233e-06
2.30336131e-06
2.264481e-06
2.25877617e-06
2.2617502e-06
2.24952609e-06
2.29918906e-06
2.25200063e-06
2.2506698e-06
2.27234059e-06
2.28052719e-06
2.27830023e-06
2.27722952e-06
2.28521816e-06
2.28529079e-06
2.24488565e-06
2.24018702e-06
2.23836417e-06
2.27212169e-06
2.25301445e-06
2.26207652e-06
2.26241445e-06
2.26376979e-06
2.28134937e-06
2.28496083e-06
2.28153152e-06
2.28101658e-06
2.29549947e-06
2.2986956e-06
2.2962524e-06
2.29235346e-06
2.29931215e-06
2.28805137e-06
2.32602833e-06
2.2902322e-06
2.28211442e-06
2.28338099e-06
2.26641924e-06
2.31185499e-06
2.26695712e-06
2.26341365e-06
2.26988492e-06
2.27015356e-06
2.26872825e-06
2.26623275e-06
2.27104712e-06
2.27290822e-06
2.27324201e-06
2.26623897e-06
2.26718687e-06
2.24303844e-06
2.32194747e-06
2.25807506e-06
2.25534125e-06
2.25890565e-06
2.25986507e-06
2.22193264e-06
2.23158112e-06
2.25695757e-06
2.24057398e-06
2.16041583e-06
2.21163165e-06
2.2112293e-06
2.20447687e-06
2.20026787e-06
2.20245788e-06
2.20197809e-06
2.22029297e-06
2.19993646e-06
2.2153036e-06
2.19242276e-06
2.19152331e-06
2.18774769e-06
2.1851596e-06
2.18943677e-06
2.18912185e-06
2.17394967e-06
2.16950034e-06
2.17466811e-06
2.17367036e-06
2.17159934e-06
2.16935276e-06
2.17371386e-06
2.18320559e-06
2.16151815e-06
2.1745989e-06
2.15408269e-06
2.15201438e-06
2.13032644e-06
2.12312147e-06
2.1311001e-06
2.12881269e-06
2.13010815e-06
2.12858377e-06
2.13971798e-06
2.12929819e-06
2.08688562e-06
2.11817906e-06
2.11518383e-06
2.09433007e-06
2.09874762e-06
2.10551779e-06
2.10442862e-06
2.0957862e-06
2.10468614e-06
2.10203946e-06
2.07625081e-06
2.08182856e-06
2.0775435e-06
2.08120899e-06
2.08175286e-06
2.08728699e-06
2.07156394e-06
2.0948112e-06
2.07654699e-06
2.07310763e-06
2.0489362e-06
2.04502745e-06
2.05628884e-06
2.05221426e-06
2.06028612e-06
2.01692482e-06
2.02026426e-06
2.02785681e-06
)
;

boundaryField
{
    closed
    {
        type            calculated;
        value           nonuniform List<scalar> 0();
    }
    open
    {
        type            calculated;
        value           nonuniform List<scalar> 0();
    }
    sides
    {
        type            empty;
        value           nonuniform List<scalar> 0();
    }
    procBoundary2to1
    {
        type            processor;
        value           uniform -3.87552482e-08;
    }
    procBoundary2to3
    {
        type            processor;
        value           uniform 2.02650795e-06;
    }
}


// ************************************************************************* //
