/*--------------------------------*- C++ -*----------------------------------*\
| =========                 |                                                 |
| \\      /  F ield         | OpenFOAM: The Open Source CFD Toolbox           |
|  \\    /   O peration     | Version:  2306                                  |
|   \\  /    A nd           | Website:  www.openfoam.com                      |
|    \\/     M anipulation  |                                                 |
\*---------------------------------------------------------------------------*/
FoamFile
{
    version     2.0;
    format      ascii;
    arch        "LSB;label=32;scalar=64";
    class       volScalarField;
    location    "0.00104";
    object      prefDh_H2O;
}
// * * * * * * * * * * * * * * * * * * * * * * * * * * * * * * * * * * * * * //

dimensions      [1 1 -3 0 0 0 0];

internalField   nonuniform List<scalar> 
531
(
93.0020675
92.4074738
89.5004662
87.8135686
87.7988686
93.0119505
92.4639033
89.8030292
87.868133
87.8183671
93.0401341
92.3792532
88.5337019
88.0385225
92.9903914
92.3455326
88.97274
88.0697825
87.5750211
87.4930761
90.1544671
92.5572422
92.4422187
92.3606701
92.397783
89.5344871
87.6672905
87.6363897
93.106807
92.505244
89.2427743
87.6928185
87.6413333
93.0570675
92.394743
88.4006737
87.9926376
93.0546989
92.3130598
88.3024299
88.0383031
93.1355138
92.2531035
92.4945032
89.5120789
87.6803716
87.6341144
93.0359363
92.4765309
89.3491278
87.7431885
87.6907216
93.0094468
92.3703415
88.4723679
88.0251271
92.9914564
92.3084616
88.4342387
88.0290945
92.9574288
92.2971838
89.1893228
88.1554688
87.8041687
87.7792046
92.980151
92.4483842
89.4836442
87.8199749
87.7634657
92.9882744
92.3467713
88.4824331
88.0575297
92.9891417
92.2785658
88.3575572
88.0967474
93.0671135
92.2343509
92.4616477
89.5433759
87.7250805
87.6756155
93.0058209
92.3819907
89.4100672
88.0175494
88.0558602
87.7736939
87.7526906
92.988637
92.3174396
92.3335958
88.7126914
88.0663525
92.888724
92.3926636
89.3383703
87.7519374
87.7157812
93.0049232
92.3899382
88.4190526
87.9831353
92.9267087
92.4209129
89.2123547
87.7341541
87.6863057
93.0067672
92.3692186
88.3835756
87.9989246
92.9947706
92.2986283
88.2974131
88.0507649
93.0684208
92.2403759
92.4740635
89.3902181
87.7142723
87.6687928
92.9839366
92.4505308
89.2039841
87.7214592
87.7047633
92.9191961
92.4610151
89.2604406
87.7494193
87.6961724
92.9399296
92.3581272
88.400325
88.0023553
92.939015
92.3001975
88.3727864
88.0204461
92.9258699
92.308461
88.3749366
88.0154534
92.8837824
92.3795027
89.2483809
87.7899095
87.7570186
92.8883447
92.3301417
89.2321576
88.1398603
87.8624277
87.8242226
92.8886609
92.2912347
88.5397795
88.3373409
92.8450204
89.6587713
87.9239826
92.896924
92.3402536
88.4124072
88.0413868
92.8482928
92.3598143
89.278142
87.8200602
87.7984752
92.8433482
92.4042913
89.4886278
87.8555694
87.817888
92.8434035
92.333007
88.503197
88.0506138
92.8160071
92.3551209
89.2836546
87.8304978
87.7917259
92.8468145
92.3291272
88.4823044
88.0371962
92.8128643
92.3429538
89.247038
87.8279915
87.8146514
92.8107422
92.392886
89.4936696
87.8876753
87.8413832
92.816299
92.2975511
88.5384599
88.0785246
92.7915753
92.242208
89.138436
88.1520451
87.9282675
87.8826665
92.8092729
92.3041511
88.5560687
88.0988673
92.772383
92.3338288
89.2438938
87.8558948
87.8373817
92.7998753
92.3850816
89.3070714
87.8465629
87.8318627
92.7765412
92.3958627
89.2871031
87.8640988
87.8252602
92.787794
92.3307228
88.4455457
88.0367837
92.7653174
92.3554776
89.0268701
87.7898308
87.7781768
92.7776438
92.4220853
89.0513377
87.7826825
87.7376608
92.8205188
92.3363605
88.3216356
87.9629136
92.8450344
92.2939876
88.2629111
87.9365873
92.8691588
92.297134
88.2473684
87.9281019
92.876401
92.304032
88.243021
87.940999
92.8629413
92.3202194
88.2455743
87.9309511
92.8070206
92.3847331
88.8264619
87.7275184
87.7187924
92.7905105
92.4323427
89.0292333
87.800244
87.754359
92.7752336
92.339856
88.3434043
88.0195574
92.7958219
92.3084684
88.2828448
87.9773404
92.7661201
92.3742977
88.9158341
87.7396882
87.7218999
92.8154321
92.286951
92.350198
88.9643526
87.7408974
87.7183515
92.7901105
92.2842134
92.295424
88.9146872
88.0280961
87.8067205
87.7858284
92.8139657
92.3370129
88.2998023
88.0112795
92.7269451
92.3454862
88.9368441
87.8107063
87.8006817
92.717948
92.3817849
89.1570953
87.8780244
87.8463952
92.7137302
92.307825
88.438184
88.0591482
92.6808968
92.3152179
89.0537074
87.8816391
87.867587
92.6804928
92.3455969
89.2969369
87.9168208
87.90115
92.6695381
92.3327679
89.3348829
87.9346968
87.9148282
92.6455796
92.3242494
89.3625651
87.9399108
87.9214723
92.6372821
92.3220177
89.3514856
87.9392745
87.9186141
92.6254977
92.3214572
89.3290718
87.9336308
87.9195889
92.6454783
92.3247858
89.2789241
87.9192244
87.9042071
92.6370331
92.3308438
89.2030614
87.9007466
87.8793984
92.6174533
92.3354012
89.1270928
87.8901121
87.8743416
92.6137141
92.3440024
89.1392393
87.9142746
87.8840575
92.6201671
92.3011255
88.420344
88.0420867
92.6127742
92.3286578
88.9067346
87.7984108
87.7828865
92.5751617
92.2461458
92.2642449
88.7042128
87.9198359
88.0178002
87.760345
87.8716761
92.577855
92.2487448
92.3359497
88.4857383
87.982442
92.6322037
92.3059464
88.1825194
87.9134421
92.6304736
92.3725687
88.6151818
87.7391261
87.7167686
92.6489923
92.3520233
88.2493953
87.9465621
92.6103061
92.3622943
88.6893357
87.7870678
87.7582857
92.6344976
92.3207243
88.2905505
88.0159426
92.6383755
92.2878244
88.2222339
87.9718105
92.6084087
92.3471205
88.6495241
87.7590019
87.7421393
92.5946237
92.3215391
88.699538
88.0820207
87.8960451
87.8908122
92.6379562
92.2563569
92.3406962
88.5991453
87.9889494
92.5523821
92.3424176
88.8585324
87.7643111
87.8270807
92.5260367
92.246012
92.2684968
88.7706096
88.0539384
87.872128
87.8673801
92.6027064
92.3442575
88.8941319
87.8731956
87.8654811
92.5407097
92.3457902
89.0249929
87.8846435
87.8590134
92.533008
92.2987601
88.3177064
88.0116621
92.5248674
92.3258916
88.7416088
87.8147906
87.798124
92.5400837
92.3118957
88.2562749
87.9829499
92.5195582
92.3268479
88.745758
87.8381534
87.8133217
92.4941039
92.2694684
88.3825304
88.078962
92.5467012
92.2239788
88.262293
88.0535173
92.5249877
92.2302404
88.7570643
88.0602867
88.1184876
88.0954346
88.0335075
88.0618166
92.3890921
92.2219542
88.6894829
88.1032346
92.4654046
92.2866545
88.9842278
87.8282139
88.0127089
92.4643775
92.1794649
92.2651935
88.7461857
87.7935028
87.782187
92.5072534
92.3466236
88.8355703
87.843557
87.8239499
92.463942
92.2952543
88.2470906
88.0018613
92.4710135
92.2891805
88.6367006
87.9630508
88.0659726
87.909789
88.005463
92.4142823
92.192002
88.4297642
88.1644546
92.5520808
92.1483738
92.3351
88.9378948
87.8300034
87.8545132
92.3851816
)
;

boundaryField
{
    closed
    {
        type            calculated;
        value           nonuniform List<scalar> 0();
    }
    open
    {
        type            calculated;
        value           nonuniform List<scalar> 0();
    }
    sides
    {
        type            empty;
    }
    procBoundary1to0
    {
        type            processor;
        value           uniform 88.0042055;
    }
    procBoundary1to2
    {
        type            processor;
        value           uniform 92.2862485;
    }
}


// ************************************************************************* //
