/*--------------------------------*- C++ -*----------------------------------*\
| =========                 |                                                 |
| \\      /  F ield         | OpenFOAM: The Open Source CFD Toolbox           |
|  \\    /   O peration     | Version:  2306                                  |
|   \\  /    A nd           | Website:  www.openfoam.com                      |
|    \\/     M anipulation  |                                                 |
\*---------------------------------------------------------------------------*/
FoamFile
{
    version     2.0;
    format      ascii;
    arch        "LSB;label=32;scalar=64";
    class       volScalarField;
    location    "0.00104";
    object      T;
}
// * * * * * * * * * * * * * * * * * * * * * * * * * * * * * * * * * * * * * //

dimensions      [0 0 0 1 0 0 0];

internalField   nonuniform List<scalar> 
531
(
338.715412
339.496353
329.89123
322.246672
322.2873
338.725397
339.15608
330.082516
322.698545
322.809733
338.354725
339.731324
330.32597
325.899079
338.621294
339.762978
329.688851
326.215257
319.772155
318.447258
329.933183
339.439005
340.131871
339.776841
339.455063
329.685145
320.161916
320.347169
338.552078
339.305033
329.627313
320.309229
320.500333
338.384578
339.856386
330.08788
325.469061
338.450826
340.057915
328.811997
326.210138
338.521858
340.052535
339.011447
329.554721
320.356549
320.420232
338.844762
339.446516
329.600286
321.167895
321.272697
338.562943
339.938158
330.235501
325.946778
338.636921
340.077083
330.082818
326.040418
338.895916
340.007191
329.662172
327.556227
322.282119
322.249504
338.99092
339.365283
329.680162
322.203679
322.283025
338.574956
339.984228
330.263995
326.437803
338.599916
340.150747
329.626096
327.036531
338.648252
340.11104
339.081059
329.526047
321.072676
321.235427
338.935061
339.894366
329.604579
325.614079
326.215593
321.928144
322.012843
338.822507
339.666832
339.566734
329.561352
326.264622
339.195861
339.604764
329.521422
321.493758
321.673029
338.693394
339.828317
329.960896
325.098492
339.038403
339.485878
329.476152
321.098604
321.308723
338.571667
339.981077
329.968626
325.628117
338.635372
340.107452
328.811242
326.406439
338.68224
340.08924
339.063546
329.416829
320.843124
321.019029
338.864411
339.614415
329.600444
321.177256
321.244794
339.084048
339.420458
329.482578
321.316887
321.446333
338.749589
340.020765
330.199454
325.704245
338.783018
340.126671
329.951474
325.968307
338.910393
340.063268
329.936687
325.720508
339.173482
339.688384
329.477725
322.155833
322.273446
339.068429
339.969333
329.634773
327.477482
323.141828
323.202739
339.02669
339.979878
329.918969
329.45286
338.945166
329.756538
324.209834
339.141418
339.856402
329.77065
326.049489
339.251852
339.750899
329.515
322.677731
322.659819
339.272221
339.586316
329.625731
323.043463
323.08589
339.119882
339.971277
329.699195
326.209376
339.363547
339.74631
329.407439
322.77701
322.841392
339.122968
340.049272
329.725618
326.102372
339.316858
339.852676
329.466795
322.908569
322.926041
339.362415
339.602962
329.562489
323.48218
323.530297
339.06956
340.143531
329.778348
326.845744
339.256528
340.222676
329.562019
327.788998
324.075452
324.072903
339.13285
340.005249
329.736128
326.87649
339.310862
339.786037
329.473361
323.223082
323.27738
339.236934
339.683353
329.536617
323.082271
323.117612
339.315823
339.575746
329.447277
323.152047
323.215361
339.102182
339.952495
329.750903
326.009694
339.32929
339.783765
329.39769
322.362323
322.402094
339.352931
339.549038
329.279085
321.96811
322.147035
338.942913
340.100626
329.383224
325.270669
338.999543
340.222661
328.569828
325.001195
338.95876
340.248547
328.336663
324.870192
338.946953
340.190582
328.313494
324.956565
339.043907
340.069568
328.512121
324.644826
339.276828
339.793296
329.380707
321.478798
321.567235
339.254199
339.514071
329.31778
322.205782
322.257729
339.039364
339.968989
329.759108
325.857361
339.17073
339.99563
329.102474
325.229776
339.377858
339.785309
329.304528
321.644176
321.801693
339.15117
339.915509
339.640577
329.223725
321.746833
321.836082
339.403546
339.959336
339.975686
329.280283
325.993446
322.680403
322.763105
339.194355
339.986237
329.39213
325.698299
339.440527
339.852854
329.30025
322.75756
322.809236
339.424381
339.688724
329.294234
323.517999
323.608972
339.240146
340.028919
329.500531
326.405007
339.578899
339.92431
329.262173
323.775485
323.803078
339.441417
339.806549
329.405818
324.223797
324.267113
339.450078
339.840365
329.413439
324.487071
324.462546
339.511225
339.866673
329.435434
324.585881
324.560073
339.538994
339.879546
329.41633
324.586824
324.531923
339.567026
339.892233
329.397744
324.521394
324.574874
339.480659
339.89504
329.359312
324.331617
324.369109
339.519826
339.894185
329.305629
324.070617
324.022806
339.59709
339.899554
329.283338
323.92504
323.91406
339.608022
339.823017
329.259423
324.125876
324.124982
339.435975
340.01347
329.44538
326.152441
339.694318
339.941547
329.158767
322.771277
322.766622
339.791557
340.153453
340.050869
328.935708
324.549041
326.072739
322.303777
323.868511
339.806138
339.919355
339.97521
329.250173
325.430764
339.758064
340.083753
328.09862
324.457819
339.765422
339.894563
329.11389
321.74627
321.862621
339.411899
339.956404
328.894529
324.816237
339.777856
339.855758
329.085336
322.374925
322.482473
339.36819
340.058759
329.291462
325.886895
339.598032
340.08598
328.523489
325.263171
339.78315
339.952538
329.104392
322.162788
322.243432
339.667515
339.993355
329.187054
326.620513
324.08346
324.051538
339.616249
339.89624
339.873762
329.201389
325.421787
339.915463
339.979907
329.089921
322.363125
323.335015
339.955728
340.031888
340.05076
329.128778
326.355852
323.854067
323.848346
339.766206
339.903574
329.197834
323.726589
323.787034
339.737045
339.842181
329.162
323.841305
323.847776
339.733191
340.086801
329.264983
325.81313
340.022944
340.032912
329.005347
323.01274
323.075923
339.752785
340.102245
329.17876
325.445037
340.107731
340.041307
328.942958
323.310122
323.342569
339.738828
340.235472
329.413076
326.935413
339.823011
340.367077
329.0987
326.642966
339.990867
340.353607
329.105564
326.678761
327.247399
327.096854
325.979744
326.551102
339.944802
340.158765
329.160023
327.177603
340.205386
340.164457
328.979617
323.357189
326.05594
340.12099
340.318821
340.113884
328.896099
322.894337
322.938305
340.045547
340.034712
329.002079
323.419583
323.433386
339.953387
340.151667
329.102278
325.772209
340.351273
340.165999
328.794905
325.115072
326.878333
324.294277
325.991277
339.929115
340.395186
329.362981
328.2153
339.993428
340.454361
339.924027
328.907784
323.36715
323.897508
340.353029
)
;

boundaryField
{
    closed
    {
        type            fixedValue;
        value           nonuniform List<scalar> 0();
    }
    open
    {
        type            zeroGradient;
    }
    sides
    {
        type            empty;
    }
    procBoundary1to0
    {
        type            processor;
        value           uniform 325.419919;
    }
    procBoundary1to2
    {
        type            processor;
        value           uniform 340.152796;
    }
}


// ************************************************************************* //
