/*--------------------------------*- C++ -*----------------------------------*\
| =========                 |                                                 |
| \\      /  F ield         | OpenFOAM: The Open Source CFD Toolbox           |
|  \\    /   O peration     | Version:  2306                                  |
|   \\  /    A nd           | Website:  www.openfoam.com                      |
|    \\/     M anipulation  |                                                 |
\*---------------------------------------------------------------------------*/
FoamFile
{
    version     2.0;
    format      ascii;
    arch        "LSB;label=32;scalar=64";
    class       volScalarField;
    location    "0.0016";
    object      p;
}
// * * * * * * * * * * * * * * * * * * * * * * * * * * * * * * * * * * * * * //

dimensions      [1 -1 -2 0 0 0 0];

internalField   nonuniform List<scalar> 
531
(
101214.5
101217.329
101220.064
101222.971
101226.129
101229.537
101233.046
101236.292
101239.423
101243.175
101247.155
101251.344
101255.473
101259.49
101263.724
101268.144
101272.755
101277.253
101281.563
101286.012
101290.952
101296.005
101300.67
101305.477
101310.76
101316.121
101321.117
101326.23
101331.462
101336.809
101341.96
101346.937
101352.025
101357.257
101362.624
101368.038
101373.57
101378.837
101383.972
101389.165
101394.387
101399.638
101404.891
101410.141
101415.545
101421.111
101426.68
101432.57
101437.836
101441.771
101447.811
101453.457
101458.317
101463.135
101467.728
101472.254
101476.825
101480.549
101484.115
101487.637
101490.743
101493.148
101495.355
101497.264
101498.735
101499.817
101500.468
101500.705
101500.522
101499.768
101498.744
101497.314
101495.551
101493.48
101490.982
101488.224
101485.359
101482.326
101478.856
101475.104
101471.182
101467.307
101463.217
101458.638
101453.789
101448.788
101444.017
101439.037
101433.575
101427.885
101422.167
101416.792
101411.255
101405.561
101399.439
101393.062
101387.25
101381.427
101375.144
101368.754
101362.336
101355.772
101350.15
101345.334
101338.706
101332.606
101327.584
101322.871
101318.008
101313.271
101308.571
101304.294
101300.303
101296.339
101292.701
101289.259
101286.26
101283.505
101280.785
101278.279
101275.845
101273.844
101272.085
101270.571
101269.313
101268.235
101267.382
101266.59
101265.975
101265.451
101265.042
101264.643
101264.344
101264.302
101264.499
101264.936
101265.421
101265.935
101266.647
101267.068
101267.734
101268.406
101269.087
101269.828
101270.67
101271.596
101272.553
101273.43
101274.321
101275.23
101276.203
101277.207
101278.213
101279.115
101280.003
101280.797
101281.7
101282.471
101283.205
101283.935
101284.615
101285.227
101285.704
101286.185
101286.63
101287.047
101287.404
101287.666
101287.905
101288.121
101288.301
101288.422
101288.523
101288.593
101288.591
101288.525
101288.34
101288.092
101287.784
101287.429
101287.071
101286.759
101286.487
101286.388
101286.437
101286.485
101286.595
101286.724
101286.671
101286.987
101287.091
101287.248
101287.436
101287.605
101287.893
101288.372
101288.866
101289.489
101290.226
101290.983
101291.65
101292.292
101292.769
101293.298
101294.17
101294.598
101295.174
101295.818
101296.525
101297.313
101298.037
101298.765
101299.565
101300.434
101301.394
101302.271
101303.114
101304.072
101305.108
101306.033
101307.044
101308.073
101309.145
101310.279
101311.42
101312.49
101313.648
101314.856
101316.124
101317.414
101318.582
101319.85
101321.178
101322.596
101323.973
101325.25
101326.605
101327.99
101329.331
101330.324
101332.142
101333.55
101334.962
101336.334
101337.384
101339.521
101340.469
101341.74
101343.166
101344.618
101345.892
101347.184
101348.522
101349.868
101351.247
101352.532
101353.677
101354.875
101356.117
101357.1
101358.147
101359.259
101360.356
101361.263
101362.122
101362.992
101363.82
101364.62
101365.4
101366.007
101366.575
101367.127
101367.592
101368.011
101368.551
101369.567
101368.813
101369.359
101369.657
101369.79
101369.87
101369.842
101369.008
101370.463
101369.722
101369.501
101369.314
101368.915
101367.361
101369.227
101367.968
101367.478
101367.082
101366.627
101366.05
101365.476
101364.767
101363.67
101364.382
101363.48
101362.773
101362.042
101361.331
101360.575
101359.812
101359.008
101358.859
101357.255
101356.884
101356.157
101355.258
101354.418
101353.558
101352.666
101351.843
101350.885
101349.97
101349.025
101348.072
101347.142
101346.109
101344.997
101343.982
101342.802
101341.662
101340.336
101338.954
101337.498
101336.033
101334.348
101332.613
101330.83
101328.962
101326.867
101324.74
101323.268
101320.106
101318.383
101316.166
101313.454
101310.744
101308.055
101305.372
101302.322
101299.242
101296.203
101293.135
101290.052
101286.986
101283.899
101280.773
101277.736
101274.862
101272.271
101270.12
101268.207
101265.985
101261.761
101259.083
101257.483
101256.07
101254.958
101254.088
101253.718
101253.698
101254.212
101255.085
101255.908
101258.987
101261.041
101264.429
101268.121
101272.556
101277.917
101283.821
101289.94
101296.843
101304.485
101313.039
101321.396
101330.252
101339.588
101350.006
101360.627
101370.068
101380.009
101390.307
101400.524
101410.009
101419.246
101428.585
101438.129
101445.944
101453.422
101460.636
101467.258
101473.282
101478.238
101482.577
101486.318
101489.521
101491.618
101492.746
101492.617
101491.756
101490.482
101487.987
101484.344
101480.244
101475.977
101471.16
101465.464
101459.089
101452.202
101445.388
101438.39
101430.785
101422.864
101415.693
101408.487
101400.737
101393.229
101386.506
101380.13
101374.521
101368.603
101362.594
101358.072
101354.358
101351.331
101348.996
101347.301
101346.475
101346.123
101346.308
101347.032
101348.256
101349.811
101351.852
101354.338
101357.267
101360.559
101364.088
101367.742
101371.686
101375.799
101380.053
101384.334
101388.427
101392.316
101396.217
101400.004
101403.324
101406.535
101409.736
101412.685
101415.11
101417.313
101419.222
101420.829
101422.076
101422.929
101423.527
101423.821
101423.846
101423.632
101423.254
101423.098
101420.793
101419.968
101418.709
101417.2
101415.51
101413.829
101412.017
101410.201
101408.355
101406.492
101404.679
101402.695
101400.754
101398.881
101397.049
101395.237
101393.432
101391.596
101389.993
101388.376
101386.872
101385.395
101383.923
101382.635
101381.352
101380.171
101378.981
101377.791
101376.602
101375.375
101374.29
101373.234
101372.276
101371.37
101370.549
101369.827
101369.072
101368.376
101367.634
101366.972
101366.352
101365.802
101365.126
101364.331
101364.248
101363.846
101363.884
101363.401
101362.92
101362.529
101362.284
101361.906
101361.572
101361.196
101360.769
101360.418
101359.931
101359.518
101359.085
101358.628
101358.259
101357.801
101357.377
)
;

boundaryField
{
    closed
    {
        type            zeroGradient;
    }
    open
    {
        type            waveTransmissive;
        gamma           1.25;
        fieldInf        101325;
        lInf            1;
        value           nonuniform List<scalar> 0();
    }
    sides
    {
        type            empty;
    }
    procBoundary3to2
    {
        type            processor;
        value           uniform 101211.894;
    }
    procBoundary3to4
    {
        type            processor;
        value           uniform 101357.026;
    }
}


// ************************************************************************* //
