/*--------------------------------*- C++ -*----------------------------------*\
| =========                 |                                                 |
| \\      /  F ield         | OpenFOAM: The Open Source CFD Toolbox           |
|  \\    /   O peration     | Version:  2306                                  |
|   \\  /    A nd           | Website:  www.openfoam.com                      |
|    \\/     M anipulation  |                                                 |
\*---------------------------------------------------------------------------*/
FoamFile
{
    version     2.0;
    format      ascii;
    arch        "LSB;label=32;scalar=64";
    class       volScalarField;
    location    "0.0016";
    object      prefDPV_T;
}
// * * * * * * * * * * * * * * * * * * * * * * * * * * * * * * * * * * * * * //

dimensions      [1 -1 -1 -1 0 0 0];

internalField   nonuniform List<scalar> 
531
(
5.89588846e-10
5.89848638e-10
6.08714229e-10
6.08603365e-10
5.93787848e-10
5.89564489e-10
5.89742798e-10
6.08757427e-10
6.08637915e-10
5.93338808e-10
5.89411551e-10
5.89589776e-10
6.08809782e-10
6.08775523e-10
5.92522453e-10
5.89228134e-10
5.89155649e-10
6.09113301e-10
6.08425732e-10
5.90900132e-10
5.90102909e-10
6.09261855e-10
6.08182811e-10
5.90751684e-10
5.90485092e-10
6.09075312e-10
6.08402635e-10
5.92898327e-10
5.89745121e-10
5.89898329e-10
6.08769294e-10
6.08533389e-10
5.94971167e-10
5.90084771e-10
5.90177284e-10
5.89015526e-10
5.89069586e-10
6.09769085e-10
6.08868904e-10
6.09222418e-10
6.08798494e-10
6.08611439e-10
6.08670681e-10
5.96094943e-10
5.89963429e-10
5.89404531e-10
5.89451747e-10
6.09162926e-10
6.09161844e-10
5.90717883e-10
5.88007021e-10
5.88923708e-10
6.09705471e-10
6.08616512e-10
6.09237154e-10
5.90443607e-10
5.89732006e-10
6.08739e-10
6.08636633e-10
5.90264347e-10
5.90404028e-10
6.08409646e-10
6.08521364e-10
5.9253085e-10
5.90368459e-10
5.90322927e-10
5.89947925e-10
5.88609586e-10
5.89070945e-10
6.09559801e-10
6.08744243e-10
6.09452616e-10
6.08357345e-10
6.09282213e-10
5.90863929e-10
5.90617788e-10
6.0805015e-10
6.09129916e-10
5.91073397e-10
5.89367598e-10
5.89845168e-10
6.08561365e-10
6.09244936e-10
5.92134704e-10
5.89343297e-10
5.89972619e-10
6.08545795e-10
6.09468244e-10
5.91888269e-10
5.88668327e-10
5.89728328e-10
6.09351833e-10
6.08434655e-10
6.09547095e-10
5.90605418e-10
5.90340407e-10
6.08272842e-10
6.09125133e-10
5.9093843e-10
5.89915066e-10
5.89425566e-10
5.89893281e-10
6.08809306e-10
6.09495212e-10
5.90556129e-10
5.90878118e-10
6.08326395e-10
6.09080969e-10
5.92289611e-10
5.89777984e-10
5.90342582e-10
6.08581266e-10
6.09154816e-10
5.92953939e-10
5.89553213e-10
5.90141904e-10
6.08680202e-10
6.09387473e-10
5.91859951e-10
5.88706731e-10
5.89379412e-10
6.09429353e-10
6.09198826e-10
6.08856441e-10
6.09606185e-10
5.91397231e-10
5.88444952e-10
5.88935489e-10
6.09184554e-10
6.09132882e-10
5.90369376e-10
5.90248989e-10
6.08702328e-10
6.09042172e-10
5.91496744e-10
5.89446401e-10
5.89876312e-10
6.08811037e-10
6.09018304e-10
5.93241369e-10
5.89498307e-10
5.89950057e-10
6.08744993e-10
6.09016389e-10
5.93399793e-10
5.89214762e-10
5.89497086e-10
6.09085507e-10
6.08232945e-10
6.090789e-10
5.91982599e-10
5.89330932e-10
5.89413079e-10
6.08816098e-10
6.08561539e-10
5.90852561e-10
5.90401556e-10
6.08409359e-10
6.08604842e-10
5.92678335e-10
5.8951205e-10
5.89746697e-10
6.08570107e-10
6.08807773e-10
5.93851297e-10
5.8945685e-10
5.89511736e-10
6.08640414e-10
6.08392784e-10
5.91110976e-10
5.90598528e-10
6.0836552e-10
6.08206342e-10
5.93389256e-10
5.90629723e-10
5.89879165e-10
5.89973367e-10
6.08829162e-10
6.09036885e-10
5.92778578e-10
5.89027932e-10
5.8931822e-10
6.09983137e-10
6.08903404e-10
6.09628789e-10
5.89523102e-10
5.89614308e-10
6.09714702e-10
5.91347405e-10
5.89540482e-10
6.09542179e-10
6.08437293e-10
6.09258267e-10
5.96915247e-10
5.8890235e-10
5.89735946e-10
6.09340657e-10
5.91371164e-10
5.89743212e-10
6.09433061e-10
6.08224786e-10
6.0900976e-10
5.93714205e-10
5.89178331e-10
5.8923296e-10
6.08923656e-10
6.08882283e-10
5.93605073e-10
5.89428462e-10
5.89445942e-10
6.09031263e-10
6.08818832e-10
5.97381707e-10
5.89447875e-10
5.89948699e-10
6.09285923e-10
5.92053819e-10
5.90032036e-10
6.09704732e-10
6.08175808e-10
6.08885515e-10
5.93626889e-10
5.89380068e-10
5.89368959e-10
6.09126231e-10
6.08982136e-10
5.93258272e-10
5.89286933e-10
5.89252903e-10
6.09409956e-10
6.09356383e-10
5.91766983e-10
5.88058199e-10
5.88162084e-10
6.10503199e-10
6.09341397e-10
6.0963117e-10
6.09158001e-10
6.08748813e-10
6.08796366e-10
5.93488586e-10
5.89465548e-10
5.89580519e-10
5.88275867e-10
5.88069511e-10
6.1058238e-10
6.09022515e-10
5.9013086e-10
5.89818478e-10
6.10812559e-10
6.08268513e-10
6.09398113e-10
5.94021976e-10
5.88776797e-10
5.89739499e-10
6.10032625e-10
5.92278776e-10
5.89340907e-10
6.09919682e-10
6.08741613e-10
5.90421574e-10
5.903023e-10
6.10302141e-10
6.08154435e-10
6.08977796e-10
5.9455895e-10
5.89147055e-10
5.89234513e-10
6.09734818e-10
6.08330899e-10
6.08527017e-10
5.92678414e-10
5.90026977e-10
5.90054888e-10
5.88887324e-10
5.88765469e-10
6.10457551e-10
6.09042667e-10
6.09001787e-10
6.08901445e-10
5.96253324e-10
5.89657893e-10
5.89585796e-10
6.09347425e-10
6.08485558e-10
5.96220914e-10
5.90341699e-10
5.89579946e-10
5.89455469e-10
6.09866865e-10
6.08581178e-10
5.90657969e-10
5.90005955e-10
6.09420078e-10
6.08687081e-10
5.92833099e-10
5.89640412e-10
5.8950472e-10
6.09377492e-10
6.08605715e-10
5.91286872e-10
5.90239598e-10
6.09238879e-10
6.08856115e-10
5.92972247e-10
5.89028768e-10
5.88856873e-10
6.09810632e-10
6.08875881e-10
5.89858256e-10
5.89501819e-10
6.10637186e-10
6.08807773e-10
6.09702703e-10
5.90321894e-10
5.89329026e-10
6.10893981e-10
6.08618997e-10
6.09836355e-10
5.90650184e-10
5.87998192e-10
5.87977373e-10
6.09931858e-10
6.08995215e-10
5.9103796e-10
5.89903967e-10
6.09744286e-10
6.08509015e-10
5.91016862e-10
5.9040005e-10
6.09423505e-10
6.08409006e-10
5.92702681e-10
5.90457704e-10
5.89655952e-10
5.89482113e-10
6.10022425e-10
6.08718398e-10
5.90502861e-10
5.89705436e-10
6.10104268e-10
6.08662679e-10
5.90102982e-10
5.89663408e-10
6.10465276e-10
6.0874971e-10
6.09205086e-10
6.08721369e-10
5.93916398e-10
5.90151872e-10
5.89428014e-10
5.89399988e-10
6.1009705e-10
6.09350784e-10
5.91147681e-10
5.88534749e-10
5.88298696e-10
6.10208185e-10
6.09117651e-10
5.90574754e-10
5.89425334e-10
6.10633116e-10
6.08868614e-10
5.89905042e-10
5.89668619e-10
6.10979854e-10
6.08707939e-10
6.09372995e-10
5.9055827e-10
5.8926251e-10
6.10481617e-10
6.09010339e-10
5.90520691e-10
5.89694607e-10
6.10107848e-10
6.09078035e-10
5.93291578e-10
5.89377308e-10
5.89172293e-10
6.10047734e-10
6.0881925e-10
5.9126708e-10
5.9003129e-10
6.09859471e-10
6.08900106e-10
5.93327804e-10
5.8933334e-10
5.89166323e-10
6.09992821e-10
6.08838046e-10
5.91160884e-10
5.89924384e-10
6.09770605e-10
6.09055798e-10
5.92721657e-10
5.89090999e-10
5.88901503e-10
6.10083113e-10
6.0893377e-10
5.90902901e-10
5.89722286e-10
6.10009726e-10
6.08818437e-10
5.90723429e-10
5.8995662e-10
6.09912963e-10
6.08888499e-10
5.9095183e-10
5.90201418e-10
6.097404e-10
6.09184345e-10
5.93467514e-10
5.89313589e-10
5.89215554e-10
6.09913808e-10
6.09098809e-10
5.90726479e-10
5.89684499e-10
6.10036684e-10
6.09191409e-10
5.90098028e-10
5.89703451e-10
6.10194075e-10
6.08501995e-10
6.09429552e-10
5.90489591e-10
5.89723431e-10
6.0958708e-10
6.09183203e-10
5.92282215e-10
5.8942885e-10
5.89342527e-10
6.09565074e-10
6.08641881e-10
5.91782039e-10
5.90619469e-10
6.09254838e-10
6.08254383e-10
5.9480939e-10
5.90772259e-10
5.89986786e-10
5.89902503e-10
6.09365581e-10
6.08495319e-10
5.93874739e-10
5.90574999e-10
5.8977096e-10
5.89882813e-10
6.09941927e-10
5.93575875e-10
5.89423993e-10
6.09637878e-10
6.08832369e-10
5.90983815e-10
5.90128767e-10
6.09567798e-10
6.08952513e-10
5.93527243e-10
5.89180199e-10
5.89157494e-10
6.10216255e-10
6.08772405e-10
6.09218976e-10
6.0862541e-10
5.96524693e-10
5.90290528e-10
5.89574206e-10
5.89497196e-10
6.09435669e-10
6.08928338e-10
5.94141397e-10
5.89363384e-10
5.8983692e-10
6.0971222e-10
5.93592858e-10
5.89519587e-10
6.09701182e-10
6.08690467e-10
5.90535226e-10
5.90272065e-10
6.10302965e-10
6.08346744e-10
6.09366057e-10
5.99056864e-10
5.89420966e-10
5.89425052e-10
6.09435653e-10
6.08924379e-10
5.94534147e-10
5.895832e-10
5.8965732e-10
6.09645953e-10
6.08580571e-10
6.00617112e-10
5.90356594e-10
5.90243007e-10
5.88896024e-10
5.89006675e-10
6.10035632e-10
6.08457824e-10
6.09115329e-10
5.92460257e-10
5.90026112e-10
6.09532044e-10
6.0837126e-10
5.90991926e-10
5.90476881e-10
6.0952826e-10
6.08132611e-10
5.96690812e-10
5.90779545e-10
5.89874903e-10
5.89815459e-10
6.09505516e-10
6.08723637e-10
5.94136681e-10
5.89570873e-10
5.89528205e-10
6.09302568e-10
6.08802465e-10
5.94596397e-10
5.89524495e-10
5.89499002e-10
6.09333391e-10
6.08919433e-10
5.94398081e-10
5.89264826e-10
5.89296526e-10
6.09952296e-10
6.08323961e-10
6.08755778e-10
)
;

boundaryField
{
    closed
    {
        type            calculated;
        value           nonuniform List<scalar> 0();
    }
    open
    {
        type            calculated;
        value           nonuniform List<scalar> 0();
    }
    sides
    {
        type            empty;
    }
    procBoundary3to2
    {
        type            processor;
        value           uniform 5.9385363e-10;
    }
    procBoundary3to4
    {
        type            processor;
        value           uniform 5.93399846e-10;
    }
}


// ************************************************************************* //
