/*--------------------------------*- C++ -*----------------------------------*\
| =========                 |                                                 |
| \\      /  F ield         | OpenFOAM: The Open Source CFD Toolbox           |
|  \\    /   O peration     | Version:  2306                                  |
|   \\  /    A nd           | Website:  www.openfoam.com                      |
|    \\/     M anipulation  |                                                 |
\*---------------------------------------------------------------------------*/
FoamFile
{
    version     2.0;
    format      ascii;
    arch        "LSB;label=32;scalar=64";
    class       volScalarField;
    location    "0.0016";
    object      sourcePV;
}
// * * * * * * * * * * * * * * * * * * * * * * * * * * * * * * * * * * * * * //

dimensions      [1 -3 -1 0 0 0 0];

internalField   nonuniform List<scalar> 
531
(
0.157508972
0.152128585
0.00586751227
0.00597644876
0.107301834
0.157894293
0.153977619
0.00582692124
0.00594300008
0.110609982
0.16032259
0.15721353
0.00577642348
0.00581358167
0.116316206
0.1652924
0.162158491
0.00549195134
0.00614010239
0.131252319
0.144560263
0.00534638334
0.00637040652
0.132642047
0.139133525
0.00552386502
0.00616498548
0.113789188
0.154320528
0.151637325
0.00581655738
0.00604465827
0.0988325266
0.150322647
0.145728741
0.169946817
0.167277377
0.00486276068
0.00572589328
0.00538850556
0.00579185304
0.00597213791
0.00591362274
0.0914358815
0.151376142
0.160155702
0.160975792
0.00543859324
0.0054475496
0.13384437
0.18819401
0.168552585
0.00491824882
0.00596598941
0.00537149856
0.140655396
0.155259255
0.00584121949
0.00594530219
0.142919697
0.142284564
0.00615493958
0.00605693872
0.117216816
0.145313325
0.146962211
0.152811074
0.177989488
0.166798556
0.00505886158
0.00584545299
0.00516946922
0.006210233
0.00534491963
0.131835001
0.140870753
0.00649630489
0.00549012721
0.127703311
0.164171467
0.150811081
0.0060127752
0.0053773637
0.120330042
0.164232002
0.150256269
0.00602675701
0.00516817881
0.121890781
0.17728748
0.152010933
0.00525942537
0.00613811425
0.00508288144
0.13866129
0.144127031
0.00628447917
0.00549112303
0.131896897
0.153770161
0.161243069
0.151373767
0.0057760615
0.00514499929
0.139962578
0.135651062
0.00623387539
0.00553858705
0.11875782
0.157671441
0.142913185
0.00599405495
0.00546522267
0.113949321
0.161615238
0.147420913
0.00589984006
0.00524261401
0.122387164
0.177500656
0.160291432
0.00518344276
0.00541800186
0.00573568925
0.00503354671
0.125842798
0.181919284
0.167016047
0.00542198368
0.00547288802
0.144580422
0.14690797
0.00587721452
0.00556775216
0.125132256
0.164114223
0.152498522
0.00577715253
0.00558972005
0.111891182
0.162202209
0.151668984
0.00583781587
0.00559088938
0.110273223
0.16716445
0.157290606
0.0055175091
0.00632533633
0.00553284139
0.120795117
0.165608317
0.157682717
0.00577154814
0.00601334918
0.133486429
0.142533057
0.00615496234
0.00597651207
0.115674307
0.159599792
0.154749035
0.00600262866
0.00578666092
0.106721706
0.161597152
0.156437416
0.00593753019
0.00617343481
0.127998629
0.137910917
0.00619668906
0.00635148547
0.110425309
0.139551099
0.152574405
0.152811216
0.00575751643
0.00557950481
0.115318366
0.174273665
0.164085676
0.00466059449
0.00570193686
0.00500607936
0.160286981
0.16136083
0.0049064497
0.128290393
0.161178013
0.00507648799
0.00614003385
0.00535955821
0.0860191302
0.172071604
0.154728061
0.00526924608
0.126026911
0.155326681
0.00517476277
0.00633493414
0.00559025154
0.108161937
0.166285234
0.164439291
0.00566987392
0.00571500883
0.10896653
0.162474341
0.161169847
0.00556889872
0.00577690448
0.0829151704
0.161422551
0.151763816
0.0053224862
0.120973732
0.149948234
0.00491900668
0.00638166277
0.00571147157
0.108998443
0.163970701
0.163375907
0.00548139054
0.00562353115
0.111884871
0.166567221
0.166389256
0.00521392425
0.00527034159
0.12347076
0.190303161
0.185381731
0.00416747111
0.00528339565
0.00500629703
0.00545623237
0.00584513101
0.00580013975
0.110100835
0.164934207
0.158296141
0.186441155
0.185284557
0.00410814358
0.00557971817
0.153116653
0.154342102
0.00387459125
0.00629650891
0.0052356828
0.106192276
0.178202523
0.156503597
0.0046219217
0.119350758
0.165560266
0.00472812778
0.00585111173
0.143807326
0.146034322
0.00435794571
0.00640269275
0.00562617621
0.102097599
0.169376139
0.164203282
0.00490681426
0.00623527461
0.00605325955
0.115919726
0.153942769
0.149421662
0.174429453
0.173792142
0.00421483396
0.00556647303
0.0056039779
0.00570064544
0.0904300606
0.158490849
0.158185798
0.00527467241
0.00608913175
0.0906036701
0.142793241
0.15917194
0.158639211
0.00477237368
0.00599638431
0.136416718
0.150388527
0.00519670799
0.00589997049
0.114398074
0.159057088
0.158459635
0.00524574362
0.00597568506
0.126919354
0.147948091
0.00537151138
0.00574383712
0.113472299
0.171428753
0.170563378
0.00483266676
0.00571970885
0.154851261
0.160980167
0.0040263538
0.00579359488
0.00493479979
0.147506646
0.16525639
0.00377623537
0.00596828636
0.00480737012
0.137547593
0.193528581
0.186810417
0.00474168283
0.00560661139
0.136802105
0.15310516
0.00490080982
0.00606798711
0.134487712
0.143840138
0.00520258456
0.00616309393
0.116716497
0.143457979
0.161154013
0.160355584
0.00463372092
0.00586919907
0.145377146
0.155938909
0.0045527774
0.0059220639
0.152721452
0.156956502
0.00419705351
0.00584174676
0.00541551465
0.00586899298
0.107487396
0.150662848
0.164389647
0.164604918
0.00455481572
0.00528065603
0.129670949
0.183793127
0.182459649
0.00447024426
0.00549339202
0.146576707
0.163013143
0.00405617851
0.00573250644
0.157788059
0.158889762
0.00370269068
0.00588773521
0.00525673711
0.142336625
0.167426776
0.00418515403
0.00560036206
0.142925858
0.159792799
0.00454590291
0.00553906049
0.11164141
0.16745876
0.166416936
0.00461335249
0.00577574789
0.129558153
0.152301752
0.00477998069
0.00570404019
0.111220291
0.167203918
0.165563532
0.00465620976
0.0057566281
0.131373058
0.153582512
0.0048596162
0.00555710966
0.115600698
0.172297909
0.168742648
0.00456975201
0.00566325225
0.139359733
0.154203545
0.00463041829
0.00577511835
0.142295502
0.150225575
0.00472161841
0.00571292259
0.137327508
0.147745696
0.0048879803
0.00544337634
0.110235933
0.169390533
0.163368233
0.00472888951
0.00551027562
0.144280277
0.155113319
0.00460112407
0.00542599146
0.153737876
0.154333631
0.00443896884
0.00607414687
0.00521014028
0.142432808
0.157199947
0.0050253244
0.00543892096
0.118928336
0.166767231
0.16057105
0.0050624286
0.00594057287
0.124623489
0.138260505
0.00535301007
0.00630691679
0.100731889
0.135377301
0.153561365
0.151300822
0.00524336744
0.00607994284
0.10727338
0.14009974
0.15706967
0.152414175
0.00469193299
0.109254693
0.162605148
0.00498256765
0.00576262112
0.13307364
0.149647567
0.00504996585
0.005654198
0.109500496
0.170221618
0.165001975
0.00443338767
0.00581744384
0.00540423783
0.00595700113
0.0887824558
0.144820236
0.160483885
0.160131604
0.00517529149
0.00567286287
0.105218238
0.165042767
0.154310153
0.00491701943
0.109406047
0.16064805
0.00492582125
0.00589638566
0.143654831
0.145748344
0.00434799899
0.00622197423
0.00526907586
0.0724032899
0.164752718
0.162059021
0.00517813728
0.0056788405
0.102380037
0.161861524
0.157534167
0.00498168503
0.00600267605
0.0630692565
0.144719199
0.147917967
0.172175308
0.169407977
0.00459722143
0.00611644307
0.00549096325
0.117671823
0.149442242
0.00508618705
0.0061941441
0.131128355
0.139802596
0.00508991229
0.0064194964
0.0874129256
0.133969047
0.153402756
0.153171204
0.00511298715
0.00586481567
0.104916179
0.159902711
0.159208933
0.00530714281
0.00579073824
0.101783831
0.160869103
0.160568013
0.00527802065
0.0056813553
0.103165434
0.167027643
0.163169698
0.0046933443
0.00624191547
0.00584176836
)
;

boundaryField
{
    closed
    {
        type            calculated;
        value           nonuniform List<scalar> 0();
    }
    open
    {
        type            calculated;
        value           nonuniform List<scalar> 0();
    }
    sides
    {
        type            empty;
    }
    procBoundary3to2
    {
        type            processor;
        value           uniform 0;
    }
    procBoundary3to4
    {
        type            processor;
        value           uniform 0;
    }
}


// ************************************************************************* //
