/*--------------------------------*- C++ -*----------------------------------*\
| =========                 |                                                 |
| \\      /  F ield         | OpenFOAM: The Open Source CFD Toolbox           |
|  \\    /   O peration     | Version:  2306                                  |
|   \\  /    A nd           | Website:  www.openfoam.com                      |
|    \\/     M anipulation  |                                                 |
\*---------------------------------------------------------------------------*/
FoamFile
{
    version     2.0;
    format      ascii;
    arch        "LSB;label=32;scalar=64";
    class       volScalarField;
    location    "0.00098";
    object      h;
}
// * * * * * * * * * * * * * * * * * * * * * * * * * * * * * * * * * * * * * //

dimensions      [0 2 -2 0 0 0 0];

internalField   nonuniform List<scalar> 
531
(
10131.9614
9777.93462
-3023.13034
-5206.5541
-876.778145
10090.9848
9704.74107
-3544.44071
-5489.7659
-1350.54908
10051.9562
9237.43183
-3402.04365
-2504.26164
10215.264
9173.30642
-3637.58493
-2126.83442
10142.3081
9535.24923
-4780.4168
-5983.42868
-1005.48139
10064.0743
9631.64944
-3969.28487
-5483.27832
-1069.75763
10266.7336
10478.1723
9734.70207
10499.713
9356.51211
-2487.89099
-4804.7805
-3883.67029
-4026.51385
-4588.28238
-1217.49333
10263.8084
9985.67617
-2505.5218
-4999.86968
-1132.50687
9865.90248
10550.051
9548.64596
-4044.61302
-5897.70466
-1937.96039
10004.3727
9761.44879
-2976.07701
-2725.08554
10015.2685
9929.09599
-3902.48298
-5267.05893
-5068.91652
-2129.74389
9440.23056
10387.617
9460.7504
10207.3034
9582.65951
-3780.98598
-5254.73547
-4806.91707
-2439.18924
9749.34376
10038.3381
-1506.79442
-5105.17335
-1958.2395
9692.48654
10028.3964
-782.346347
-4880.75849
-2021.72062
9613.02414
10015.2751
-802.045298
-4934.92122
-2138.91147
9505.26035
10000.5707
-728.254388
-4948.71157
-2218.94502
9413.10011
10019.7287
-365.308776
-4866.74604
-2387.75808
9319.93404
10053.7442
183.566045
-4810.69688
-2621.41382
9209.54916
10069.0771
620.097907
-4785.03589
-2943.52649
9104.5543
10041.6783
654.426786
-4891.69616
-3199.49016
9010.09771
10077.2737
619.277634
-5063.63634
-3808.37207
8432.83445
10487.6542
9997.15127
-1231.20796
-4808.64931
-4855.32701
-2897.47541
8957.64672
10027.935
-939.801097
-4969.50421
-3229.97324
8949.80675
9863.6106
-697.639982
-2292.21735
8131.74599
10011.5163
-1317.58447
-5049.09351
-2257.82385
9009.98326
9974.7529
-1407.95249
-5215.83297
-3009.89898
9079.33446
10007.5707
-632.637642
-2043.30501
8526.6865
10136.2123
-1651.50147
-4976.59714
-1811.20191
9306.21701
10158.2681
-1321.62069
-4835.03397
-1542.56652
9453.94149
10215.1101
-1264.27605
-4774.4006
-1386.82255
9585.07985
10258.8955
-1269.36326
-4719.3571
-1272.24781
9715.30664
10289.2907
-1637.34601
-4454.1322
-4371.09559
-2677.69029
9848.11927
10421.3688
-1385.81493
-2175.9567
9720.75816
10241.5623
-2187.89839
-5101.47373
-1539.42455
9984.24139
10030.7776
-2022.21174
-5182.28776
-1332.74822
9917.30752
9804.66162
-2339.62045
-5277.83994
-1388.61709
9835.33355
9067.20828
-2271.25034
-1526.1607
9651.23406
9423.25151
-2696.52999
-5256.81711
-793.213157
9784.05374
9178.06362
-2510.51877
-5272.85791
-439.846379
9735.97462
8929.24729
-2873.76532
-5219.32761
1080.79879
9430.05732
5867.05641
-2672.58038
721.972155
9836.3233
8451.95242
-3888.75552
-4992.15233
927.405282
9634.88083
8359.46589
-3812.35171
-4874.65388
1543.0902
9560.98551
7184.72463
-3269.84153
-2461.2333
9012.46314
10374.3254
8724.15399
-180.948287
-2935.25776
-2012.92894
-1017.27186
-1010.70106
-1360.76249
-2702.03469
-2595.46696
3308.92234
10127.1403
9954.63033
3419.92054
-2642.5679
718.941457
9737.83704
8299.48222
-4940.88128
-5590.3983
929.275662
9385.97419
6258.63326
-3813.13202
-1151.55688
9497.67172
6607.59972
-3564.58307
-7.18900124
9503.78105
5128.13243
-3443.81121
547.831014
9734.6473
7812.51303
-5275.87722
-5929.60597
886.591901
9575.27441
5856.78665
-3205.74819
455.320873
9940.3664
8165.6433
-4755.24442
-5636.41599
1088.47692
9746.42063
6409.40111
-2952.43739
271.403102
10019.2534
8551.90416
-4356.57744
-5403.1973
910.657389
9818.69661
8830.59529
-4437.9725
-5487.602
862.867357
9857.60069
7272.91111
-2707.52456
-117.377256
10006.5167
8822.23664
-4218.61944
-5366.60115
870.271885
9755.62307
8998.9908
-4362.4175
-5553.19903
488.598678
9814.28036
8073.32265
-2594.27342
-752.313657
9844.1493
9152.31046
-4136.88938
-5386.50382
668.46242
9634.78779
8990.60491
-4001.98299
-5576.46513
71.4446895
9725.76271
8913.08159
-2181.17385
-1360.78179
9759.27583
9327.71017
-3672.42061
-5246.46756
837.416228
9703.06309
9249.85561
-3582.71924
-5298.09498
839.32079
9722.04491
9318.40405
-3817.1321
-5347.87403
244.632897
9966.13599
9469.89572
-1398.45681
88.5984347
10303.2471
10112.4859
-3010.29421
-3867.06824
-3025.0785
-2967.62335
-2882.26215
2417.91186
10287.693
9511.35309
-4279.00025
-5211.35099
649.369462
10107.6199
9033.5252
-3136.37528
-1541.51116
10152.0015
7566.20275
-3278.26844
55.8159342
9920.45812
5784.9828
-5293.47475
-5361.28514
2745.13656
9881.13032
4198.40223
-3032.75412
3281.53929
9789.42155
3099.08029
-5295.64381
-4738.67739
4797.28813
9831.84565
2093.71925
-2774.83444
5372.00913
9726.91241
1551.08144
-5536.47313
-4488.14879
5836.12711
9838.86401
1023.98254
-3023.91547
5918.45519
9648.7057
866.858268
-5876.6591
-4820.93341
6061.11833
9663.93261
610.5737
-3515.54528
4946.85105
9589.76236
874.61158
-3596.33213
4924.22158
9534.50081
953.931017
-3444.68735
5217.22168
9317.14556
1246.2279
-5889.32765
-5235.80098
6177.40036
9517.95309
1141.46185
-3102.17832
4580.29855
9455.52934
1698.26461
-2787.10685
5125.05902
9310.52147
2221.19565
-5293.82849
-5141.33915
6630.72297
9626.43698
1946.68025
-1886.16914
5386.55498
9450.51355
3337.28414
-4309.97474
-4396.79196
7016.17435
9676.44051
3857.38665
-3408.12753
-4582.55639
-4396.56496
5505.72558
9291.98182
3664.93172
-4446.5248
-4993.59476
4383.52449
9128.8442
3122.44036
-2522.28535
2657.23873
8794.46472
3421.13169
-2588.3929
2504.5934
8741.2494
3587.39721
-2520.1087
2539.4889
8534.72448
3841.99072
-4845.60381
-5721.93349
1961.37901
8532.24962
4099.84933
-2672.694
1271.20252
8401.17953
4343.06266
-2655.1346
1054.85769
8385.32276
4722.05124
-2410.06096
953.509137
8441.81647
5195.743
-1963.06722
1340.50666
8442.24068
5521.08109
-3478.36924
-4683.99354
1979.05011
8677.8794
6041.34956
-3105.52053
-4466.90938
1925.9773
8716.89876
6310.86187
-3281.1683
-4582.57996
2055.45106
8894.36738
9882.05762
9824.21525
6312.24776
-2897.27049
-4404.87542
-4356.7951
1234.35688
8874.90234
7197.21725
-3128.52824
-4578.52977
1086.51069
9052.15547
7772.62042
-2970.616
-4426.81693
1168.71664
9299.5974
8457.72103
-2960.74913
-4415.56365
1069.16483
9498.07234
8933.30199
-3214.40033
-4733.10883
677.103204
9625.50458
9195.55908
-3866.40768
-5325.07395
326.540689
9725.34388
9458.71804
-5315.63436
-6200.78384
794.37725
9746.12631
9702.03254
9754.49237
)
;

boundaryField
{
    closed
    {
        type            lookUpEnthalpy;
        h0              nonuniform List<scalar> 0();
        value           nonuniform List<scalar> 0();
    }
    open
    {
        type            zeroGradient;
    }
    sides
    {
        type            empty;
    }
    procBoundary3to2
    {
        type            processor;
        value           uniform -711.674636;
    }
    procBoundary3to4
    {
        type            processor;
        value           uniform 8275.02012;
    }
}


// ************************************************************************* //
