/*--------------------------------*- C++ -*----------------------------------*\
| =========                 |                                                 |
| \\      /  F ield         | OpenFOAM: The Open Source CFD Toolbox           |
|  \\    /   O peration     | Version:  2306                                  |
|   \\  /    A nd           | Website:  www.openfoam.com                      |
|    \\/     M anipulation  |                                                 |
\*---------------------------------------------------------------------------*/
FoamFile
{
    version     2.0;
    format      ascii;
    arch        "LSB;label=32;scalar=64";
    class       volScalarField;
    location    "0.00056";
    object      H2O;
}
// * * * * * * * * * * * * * * * * * * * * * * * * * * * * * * * * * * * * * //

dimensions      [0 0 0 0 0 0 0];

internalField   nonuniform List<scalar> 
531
(
0.00568713157
0.00704834269
0.00222507971
0.00102482043
0.00574064648
0.00703175902
0.00221477825
0.00102334678
0.00573717987
0.00708589974
0.00239218276
0.00101486664
0.00572548719
0.00713472751
0.00252868139
0.00101267147
0.00571983811
0.00709824255
0.00235090194
0.00102694569
0.00565231555
0.00697367181
0.00210154987
0.00103741408
0.00334882653
0.00712645896
0.00728963797
0.00367120523
0.00104305071
0.00106257338
0.00405557082
0.00680463096
0.00726143934
0.00737678556
0.00392558616
0.00100891254
0.00215199043
0.00699659554
0.00732408591
0.00424570959
0.00103126405
0.001060769
0.0039491684
0.00720162991
0.00757476048
0.00472183236
0.000960001251
0.00490387513
0.00718485026
0.0035873356
0.00100456711
0.00520395116
0.00707490477
0.00306460291
0.00102615985
0.00537895763
0.00696181615
0.00227807723
0.00103912911
0.00393265391
0.00710893028
0.00722143106
0.0034219453
0.00102279853
0.00536212855
0.00692722453
0.00210169372
0.00105114296
0.00376515893
0.00702447435
0.00708451481
0.00315377853
0.00105196189
0.00251575528
0.00681161753
0.00698984249
0.00371795914
0.00108212114
0.000797639883
0.00587197895
0.00683203527
0.006769503
0.00505666435
0.00634239697
0.00679354096
0.00298723504
0.00107189688
0.00107239263
0.00521202001
0.00725598203
0.00375657212
0.000981808369
0.00521604478
0.00734321309
0.00395981122
0.000985646994
0.00515253056
0.00723164679
0.00358472029
0.00100569177
0.00528458216
0.00710676314
0.00299317032
0.00103194064
0.00551152179
0.00692194099
0.00201983271
0.00105988067
0.00364293709
0.00695730817
0.0069941845
0.00307184875
0.00108082217
0.00257061557
0.00631676768
0.00719231859
0.00719021482
0.00347121393
0.00101256604
0.00550943688
0.0071321968
0.00267053386
0.00102950572
0.0057802695
0.00699968728
0.00155246354
0.00104868741
0.00422929816
0.00720856357
0.00721484222
0.00198259645
0.00105241273
0.00296087067
0.00705224526
0.00713578937
0.00230437742
0.00104722587
0.0032221333
0.00715472034
0.00716555421
0.00190976884
0.00104261257
0.00363126041
0.0072168262
0.00722621756
0.00223107281
0.00103647688
0.00614198915
0.00697194411
0.000743578364
0.00105643323
0.00456686753
0.00725339403
0.00725276732
0.00259526504
0.0010407762
0.00185121329
0.00708412925
0.00733396822
0.00233079984
0.001029435
0.00596903824
0.00697855185
0.00272801521
0.00108631106
0.00101283112
0.0060514673
0.00754681797
0.00749646749
0.000826667966
0.00105540778
0.00418589654
0.00718579059
0.00717577748
0.00078645936
0.00106219942
0.0041132865
0.00730251985
0.00728547084
0.000774504569
0.001092408
0.00103252094
0.0058219433
0.00714610631
0.00743183154
0.00762068709
0.00438696798
0.000982926349
0.00101510197
0.00106374861
0.0010665813
0.0052695926
0.00711334213
0.00694897382
0.00742655458
0.00741603637
0.000847145486
0.00109171155
0.00108655795
0.00395836755
0.00723048378
0.00721976775
0.000757559396
0.00105148456
0.00478938153
0.0072971592
0.00728924329
0.000789070269
0.00105188219
0.00454910008
0.00735102563
0.00733941811
0.000775317862
0.00105161136
0.00634660561
0.00697581636
0.000759474322
0.00105790155
0.00486036697
0.00731315758
0.00730460662
0.000785692769
0.00105637897
0.00453715561
0.00722059303
0.00721065568
0.000788083075
0.00105023223
0.00454225938
0.00747782753
0.00745802416
0.000730800542
0.00108173046
0.00102642459
0.00647591514
0.00713458735
0.000737084292
0.00108228204
0.00484298123
0.00653611275
0.00699407239
0.00680553099
0.00268383848
0.00603284126
0.0069558589
0.000755492941
0.0010614882
0.00653999782
0.00716553452
0.0022542811
0.00105484062
0.00101281252
0.00662078542
0.00736811051
0.000716873351
0.00102194657
0.00519957935
0.00770687061
0.00769070137
0.00155560343
0.00104617581
0.000990846192
0.00668612452
0.00731564441
0.000713884997
0.00106710071
0.00484931332
0.00667379312
0.00647606018
0.00503326434
0.00660934583
0.00679033575
0.000700697175
0.00104062812
0.000981798771
0.00102929269
0.00534301239
0.00721138678
0.00765220878
0.00763713361
0.000995237344
0.00103056112
0.00661470546
0.00704438993
0.000910770568
0.00110133209
0.00103649575
0.00498684563
0.00770479245
0.00762255517
0.000811390109
0.00109628411
0.00106643948
0.00539365489
0.00709842008
0.00771864174
0.00770266206
0.000719779464
0.00107286041
0.00104757079
0.00571017578
0.00749898745
0.00653802402
0.000926601864
0.00113831125
0.00113485625
0.00501817373
0.00686588864
0.00687363153
0.00738776751
0.00737175764
0.00081654206
0.0010550968
0.00659011779
0.00711049257
0.000727131689
0.00104456721
0.000983845038
0.00104782287
0.00510621454
0.00713284607
0.00694258387
0.00760999906
0.00759857599
0.000832037494
0.00108156729
0.00104312748
0.00655830555
0.0071676997
0.000837221494
0.00105657101
0.00541174536
0.0072640177
0.0072614559
0.000923514052
0.00105970422
0.00403631964
0.00744443321
0.00742897477
0.000879597448
0.0011027617
0.00107556024
0.00558267574
0.00714482684
0.00685587657
0.00735250104
0.00725774435
0.000929757997
0.00106943984
0.00106587895
0.0010692221
0.00538765553
0.00709867038
0.00758270755
0.0075791975
0.000839415925
0.00109011697
0.00104062769
0.00493794123
0.00749391229
0.00748651334
0.000909787376
0.00105448768
0.00674669021
0.00701029704
0.000875542267
0.00111265873
0.00295172689
0.00663539777
0.00759838489
0.00758780323
0.000907695925
0.00103429014
0.00322828532
0.007605875
0.00761599133
0.000850297049
0.000968710198
0.00100973352
0.00103129291
0.00678014186
0.00787584257
0.0070075586
0.00198629452
0.00692011012
0.00747797372
0.000792682236
0.00100480081
0.000857104693
0.0079170625
0.00859429442
0.000691024511
0.000877662919
0.000805795065
0.00088987455
0.00833523542
0.00857027832
0.00105863426
0.00135275574
0.0013666395
0.00162138292
0.00165844088
0.00794352251
0.00830870896
0.00221075383
0.00239561893
0.0025852715
0.00277042682
0.00294545225
0.00313220467
0.00329927114
0.00346346949
0.00361078424
0.00369962939
0.00369223855
0.00352252313
0.00339967859
0.00359858469
0.00397030702
0.0042164605
0.00468267871
0.00497050835
0.00554947619
0.00584394691
0.00609806448
0.00554478988
0.00577678759
0.0060018057
0.00660045596
0.00716553936
0.00800494926
0.00889809755
0.00972418587
0.0106699687
0.011218662
0.0108357887
0.014208822
0.0104802137
0.0113931951
0.00834234453
0.0160890028
0.0132934314
0.00985700628
0.0191667854
0.00492777054
0.0189525261
0.0229194226
0.0235758244
0.0248678177
0.026380995
0.0302333233
0.0323041816
0.0342716628
0.0371016012
0.0382234228
0.0417992784
0.042944141
0.0469816336
0.0480746262
0.0513839323
0.0527314103
0.0565918028
0.0582448123
0.0622311709
0.0644479096
0.0681084334
0.0703614423
0.0739937162
0.0757755852
0.0801400939
0.0813026507
0.0849197704
0.0868638006
0.0916572965
0.089999819
0.0954391731
0.095554422
0.0966419524
0.099329133
0.104987678
0.0994235115
0.100507258
0.104104692
0.112915577
0.107446255
0.106349965
0.106330263
0.116333105
0.112030185
0.112904955
0.110380258
0.118136657
0.116260855
0.114418807
0.112656259
0.119391951
0.1189366
0.11705584
0.11558102
0.120145548
0.119560711
0.117960471
0.117490248
0.120749909
0.120214625
0.118693423
0.118579787
0.121063754
0.120579725
0.119190852
0.11923808
0.121191409
0.120792937
0.11949409
0.119604528
0.121213947
0.12090912
0.119652891
0.119789625
0.121170978
0.120953588
0.119730171
0.11986572
0.121095925
0.120952355
0.11976248
0.119887562
0.121020261
0.120912906
0.119768874
0.119867501
)
;

boundaryField
{
    closed
    {
        type            calculated;
        value           nonuniform List<scalar> 0();
    }
    open
    {
        type            calculated;
        value           nonuniform List<scalar> 0();
    }
    sides
    {
        type            empty;
    }
    procBoundary4to3
    {
        type            processor;
        value           uniform 0.00101074332;
    }
    procBoundary4to5
    {
        type            processor;
        value           uniform 0.120906317;
    }
}


// ************************************************************************* //
