/*--------------------------------*- C++ -*----------------------------------*\
| =========                 |                                                 |
| \\      /  F ield         | OpenFOAM: The Open Source CFD Toolbox           |
|  \\    /   O peration     | Version:  2306                                  |
|   \\  /    A nd           | Website:  www.openfoam.com                      |
|    \\/     M anipulation  |                                                 |
\*---------------------------------------------------------------------------*/
FoamFile
{
    version     2.0;
    format      ascii;
    arch        "LSB;label=32;scalar=64";
    class       volScalarField;
    location    "0.00056";
    object      prefDh_H;
}
// * * * * * * * * * * * * * * * * * * * * * * * * * * * * * * * * * * * * * //

dimensions      [1 1 -3 0 0 0 0];

internalField   nonuniform List<scalar> 
531
(
23393.8627
23159.8249
23611.8202
23953.0066
23395.3268
23166.9031
23613.2165
23955.4499
23390.9233
23144.3207
23590.0705
23956.6071
23383.7714
23123.9111
23572.6306
23955.3516
23382.6088
23138.9884
23595.428
23946.7441
23391.6417
23190.6321
23628.1585
23930.9003
23492.3299
23126.8396
23056.2338
23449.0865
23920.6542
23942.566
23439.9645
23261.3882
23069.3763
23018.1436
23432.2246
23905.6876
23617.9275
23181.2517
23040.1892
23408.3233
23914.1255
23950.6615
23445.6243
23095.9546
22936.1606
23378.546
23926.5241
23382.2688
23101.8194
23457.0467
23938.6489
23378.8242
23148.3996
23510.2832
23941.3294
23385.6453
23195.6947
23604.778
23935.0968
23444.2688
23134.0035
23086.6882
23474.665
23941.9436
23387.7967
23210.3518
23628.1411
23939.7005
23457.1786
23169.4085
23143.8527
23502.0734
23929.2725
23574.8917
23258.6771
23183.4927
23452.1773
23941.6
23838.6545
23379.14
23249.4968
23276.2718
23384.0291
23391.4799
23266.246
23517.4013
23970.8642
23970.5411
23372.365
23072.8815
23438.0453
23943.8358
23362.1458
23034.9859
23421.545
23937.2582
23368.9575
23082.2217
23456.4885
23941.9789
23374.4772
23135.0751
23518.1929
23944.4361
23386.5229
23212.4147
23639.138
23931.015
23466.3969
23197.1995
23182.0909
23512.4184
23946.0829
23568.774
23387.8008
23097.0282
23100.5169
23470.7278
23948.9647
23379.2299
23124.6098
23555.5646
23948.2949
23393.3215
23179.7741
23705.6992
23927.0025
23430.5626
23089.6894
23088.1672
23643.4029
23921.311
23527.9855
23156.929
23121.2928
23601.1819
23919.5048
23502.6407
23113.1448
23109.0745
23654.36
23923.4644
23467.7099
23087.0152
23084.5064
23610.6112
23946.71
23421.9049
23191.4699
23898.1685
23936.8562
23419.8263
23071.5304
23072.1559
23564.8781
23921.5113
23656.9795
23143.9406
23037.4107
23597.8829
23948.0392
23397.5357
23189.1618
23549.354
23959.4874
23774.3885
23377.1271
22938.2012
22968.6583
23906.9445
23925.4418
23434.7234
23099.0155
23104.3158
23902.5919
23918.345
23439.6571
23047.9232
23057.7934
23826.8221
23941.0773
23918.8869
23383.7833
23116.5228
22999.3198
22914.378
23393.4219
23922.0585
23974.7687
23956.5095
23950.7576
23375.7069
23131.0858
23201.5251
22995.6598
23003.1964
23891.3006
23939.6686
23898.263
23440.6422
23079.0219
23087.3252
23894.4285
23937.2611
23411.4402
23051.757
23056.4305
23906.8347
23923.1826
23414.848
23027.6646
23036.6603
23894.1818
23957.7402
23437.8415
23190.1719
23902.5392
23942.4451
23405.7515
23044.6948
23050.4443
23897.611
23928.7283
23420.5871
23083.9697
23089.5232
23893.9554
23916.0572
23420.3273
22972.4525
22984.2863
23891.5179
23938.1403
23934.3246
23398.5808
23123.0316
23903.9593
23952.2828
23407.0501
23373.2385
23181.8599
23260.9891
23554.6413
23413.5299
23198.3162
23884.9457
23952.1282
23372.2194
23110.2971
23608.2114
23942.2598
23937.0367
23338.2904
23021.4126
23884.1695
23898.2973
23407.8396
22871.2073
22884.3824
23704.9206
23928.5832
23924.4084
23311.0448
23045.5582
23892.9357
23943.9273
23407.1984
23316.0041
23398.62
23385.0084
23343.2509
23267.61
23854.6829
23958.898
23890.8212
23956.6004
23400.6728
23090.9935
22897.4878
22909.9049
23787.8009
23947.3534
23340.8793
23161.4944
23802.3898
23956.2969
23883.9654
23393.4978
22873.585
22914.3939
23901.0471
23938.4597
23930.2068
23394.3244
23137.755
22870.8182
22880.9377
23879.8615
23956.7385
23914.064
23363.5148
22965.8187
23365.9004
23916.0369
23991.6184
23939.5021
23379.4185
23235.6947
23232.993
23011.8426
23023.498
23862.9842
23948.4854
23351.3399
23133.4851
23869.7827
23945.5249
23907.1452
23939.7357
23392.9641
23122.5767
23203.867
22916.9715
22924.8063
23901.4415
23941.9158
23940.6219
23363.9299
23108.7326
23913.5152
23938.1902
23390.964
23067.449
23068.9268
23907.6951
23931.527
23436.4551
22991.3535
22998.7715
23933.0133
23962.1279
23952.6947
23372.2855
23117.9367
23240.3968
23028.2939
23071.5452
23904.797
23955.5379
23928.8109
23962.0988
23393.6148
23138.8545
22931.3746
22935.6584
23890.8408
23952.8019
23921.0067
23388.8819
22967.588
22976.3358
23888.0577
23964.5226
23285.5541
23175.9205
23888.267
23950.253
23528.0258
23331.9795
22922.3078
22930.2291
23892.7227
23928.6484
23500.6324
22922.4348
22916.2026
23901.3059
23885.8832
23937.3276
23777.0162
23271.8038
22799.2965
23177.0272
23643.7697
23213.8345
22979.5376
23958.7372
23992.8681
23999.754
22805.4507
22521.8769
24035.5202
24098.3214
24113.4089
24174.9776
22654.3455
22571.9154
24035.7725
24138.7659
24069.1791
24137.4899
24096.5271
22765.4386
22641.4472
24005.6783
24068.6812
24022.6697
24062.0509
24049.7188
24082.9579
24097.6801
24136.695
24184.6775
24246.4676
24379.9988
24539.1498
24583.768
24462.4809
24280.5667
24187.2551
24055.3977
24001.2654
23932.6851
23875.7771
23790.705
23843.7435
23711.7948
23678.2709
23640.3036
23646.4937
23601.9556
23445.7832
23302.417
23137.382
23045.3171
23247.1889
24798.2158
25154.0586
25188.8954
24884.7995
24568.1572
25324.5194
25651.2906
28351.5413
24409.798
29785.3668
33468.0247
34776.5068
35895.6251
37530.1872
40466.0519
41933.6344
43010.0482
44796.6241
45286.4278
47386.888
47875.1836
50092.7297
50538.3793
52250.8043
52787.6033
54683.4219
55331.8336
57184.3928
58034.7926
59643.7312
60454.7053
61957.019
62550.843
64264.5414
64596.7691
65968.5555
66617.2231
68330.892
67624.1919
69756.4725
69678.4108
69927.4402
71024.1422
72785.0918
70845.8991
71090.2559
72678.9565
76455.0173
73699.2302
73181.376
73473.7324
77768.9695
75934.7927
76199.5873
75455.9343
78604.0183
77983.1841
77343.5969
76782.7315
79315.4591
79241.2514
79058.1231
78385.7405
80034.0234
79827.9109
79830.9151
79558.534
80763.851
80565.2376
80474.5204
80330.411
81319.9726
81117.2007
80965.3283
80879.8127
81727.628
81540.641
81327.7407
81286.216
82032.9469
81873.8837
81604.1444
81595.5234
82262.4697
82144.5576
81831.6596
81841.8001
82450.6404
82373.3335
82031.7729
82053.9399
82626.6695
82567.1785
82215.2
82237.7908
)
;

boundaryField
{
    closed
    {
        type            calculated;
        value           nonuniform List<scalar> 0();
    }
    open
    {
        type            calculated;
        value           nonuniform List<scalar> 0();
    }
    sides
    {
        type            empty;
    }
    procBoundary4to3
    {
        type            processor;
        value           uniform 23945.3261;
    }
    procBoundary4to5
    {
        type            processor;
        value           uniform 82760.2262;
    }
}


// ************************************************************************* //
