/*--------------------------------*- C++ -*----------------------------------*\
| =========                 |                                                 |
| \\      /  F ield         | OpenFOAM: The Open Source CFD Toolbox           |
|  \\    /   O peration     | Version:  2306                                  |
|   \\  /    A nd           | Website:  www.openfoam.com                      |
|    \\/     M anipulation  |                                                 |
\*---------------------------------------------------------------------------*/
FoamFile
{
    version     2.0;
    format      ascii;
    arch        "LSB;label=32;scalar=64";
    class       volScalarField;
    location    "0.00032";
    object      prefDh_H;
}
// * * * * * * * * * * * * * * * * * * * * * * * * * * * * * * * * * * * * * //

dimensions      [1 1 -3 0 0 0 0];

internalField   nonuniform List<scalar> 
530
(
81886.4561
82398.1987
82505.9206
82131.07
82317.8006
82773.6496
82854.4169
82524.3228
82722.032
83185.9818
83244.4511
82946.4976
83133.1201
83609.211
83645.5289
83371.0851
83562.1841
84041.1508
84057.3781
83804.5083
83998.1245
84461.759
84478.896
84270.6013
84434.1859
84867.1952
84930.8609
84750.3162
84894.2697
85274.4263
85375.0649
85212.8411
85343.0371
85707.6282
85798.9846
85611.9339
85769.1983
86148.3862
86176.388
85988.4386
86152.4019
86538.4156
86548.8593
86369.305
86534.9052
86900.4507
86918.3694
86746.055
86911.3511
87251.3814
87275.4635
87107.3599
87269.6712
87590.7663
87614.0715
87464.5023
87603.4024
87919.4843
87938.1427
87792.969
87932.4735
88225.58
88249.906
88101.9554
88245.8473
88525.8031
88540.2107
88405.6125
88519.4421
88828.9887
88827.5695
88719.2435
88764.919
89081.8615
89081.332
89010.8721
89007.8988
89262.3875
89312.3444
89308.2251
89233.5809
89452.0761
89522.883
89553.9132
89439.0497
89665.0994
89719.9873
89737.3519
89632.8006
89893.7907
89913.199
89884.7392
89824.3761
90107.2515
90111.2866
90031.0481
90036.6451
90253.6558
90303.6096
90170.0117
90303.2667
90378.9355
90346.0145
90318.8254
90486.4246
90513.2694
90412.8685
90511.6446
90569.8869
90555.3094
90493.8456
90679.225
90656.3178
90632.2083
90579.3256
90769.7303
90740.7996
90721.0766
90665.1689
90849.5352
90817.7349
90803.9226
90746.221
90919.656
90886.5345
90877.326
90820.6193
90980.2207
90947.6399
90941.0345
90887.1592
91032.1873
91001.0755
90995.4505
90945.5618
91076.4868
91047.3944
91041.4459
90996.4034
91114.0063
91087.3096
91080.283
91040.612
91145.6531
91121.5651
91113.3022
91078.9885
91172.325
91150.8295
91141.6366
91112.0989
91194.818
91175.6807
91166.0703
91140.4448
91213.7619
91196.6507
91187.1065
91164.5522
91229.6485
91214.2405
91205.111
91184.9504
91242.8906
91228.9112
91220.412
91202.134
91253.8569
91241.0783
91233.3489
91216.5397
91262.9222
91251.0875
91244.5769
91228.2994
91270.6908
91259.0221
91253.6641
91238.4448
91276.6942
91265.8106
91261.0705
91247.0809
91281.4363
91271.42
91267.279
91254.3151
91285.2486
91276.0022
91272.4432
91260.4314
91288.3344
91279.7124
91276.9081
91265.46
91290.7816
91282.7558
91280.3878
91269.9398
91292.6032
91285.3231
91283.2415
91273.7874
91294.0015
91287.4457
91285.608
91277.0866
91295.0795
91289.1987
91287.5785
91279.9221
91295.9103
91290.6497
91289.2321
91282.3644
91296.5523
91291.8542
91290.6327
91284.4726
91297.0515
91292.8573
91291.8314
91286.295
91297.4439
91293.6952
91292.8692
91287.8709
91297.7575
91294.3967
91293.7785
91289.2323
91298.0141
91294.9848
91294.5836
91290.4058
91298.2292
91295.4785
91295.3024
91291.4156
91298.4134
91295.8942
91295.9463
91292.2864
91298.5728
91296.2472
91296.5232
91293.0447
91298.711
91296.5522
91297.0413
91293.7188
91298.8328
91296.8232
91297.5313
91294.3354
91298.7361
91297.0742
91298.0277
91294.9158
91298.4409
91297.3157
91298.4604
91295.4724
91298.3799
91297.5566
91298.5196
91296.0259
91298.6006
91297.829
91298.3801
91296.6156
91298.7312
91298.2207
91298.2464
91297.4675
91298.5811
91298.6329
91298.1773
91298.6977
91298.4757
91298.0663
91298.1591
91298.4748
91298.4395
91297.9057
91298.1817
91298.4586
91298.4676
91298.0657
91298.2739
91298.5209
91298.5281
91298.2857
91298.4103
91298.5851
91298.6
91298.4824
91298.5789
91298.6466
91298.657
91298.6545
91298.6856
91298.6602
91298.6192
91298.6239
91298.5857
91298.5786
91298.5553
91298.5483
91298.5303
91298.523
91298.5096
91298.5033
91298.493
91298.4875
91298.4797
91298.475
91298.469
91298.465
91298.4604
91298.4571
91298.4535
91298.4508
91298.448
91298.4458
91298.4436
91298.4419
91298.4402
91298.4388
91298.4375
91298.4364
91298.4353
91298.4345
91298.4337
91298.433
91298.4323
91298.4318
91298.4313
91298.4309
91298.4305
91298.4302
91298.4299
91298.4296
91298.4294
91298.4292
91298.429
91298.4289
91298.4288
91298.4286
91298.4285
91298.4284
91298.4284
91298.4283
91298.4282
91298.4282
91298.4281
91298.4281
91298.428
91298.428
91298.428
91298.428
91298.4279
91298.4279
91298.4279
91298.4279
91298.4279
91298.4279
91298.4279
91298.4279
91298.4278
91298.4278
91298.4278
91298.4278
91298.4278
91298.4278
91298.4278
91298.4278
91298.4278
91298.4278
91298.4278
91298.4278
91298.4278
91298.4278
91298.4278
91298.4278
91298.4278
91298.4278
91298.4278
91298.4278
91298.4278
91298.4278
91298.4278
91298.4278
91298.4278
91298.4278
91298.4278
91298.4278
91298.4278
91298.4278
91298.4278
91298.4278
91298.4278
91298.4278
91298.4278
91298.4278
91298.4278
91298.4278
91298.4278
91298.4278
91298.4278
91298.4278
91298.4278
91298.4278
91298.4278
91298.4278
91298.4278
91298.4278
91298.4278
91298.4278
91298.4278
91298.4278
91298.4278
91298.4278
91298.4278
91298.4278
91298.4278
91298.4278
91298.4278
91298.4278
91298.4278
91298.4278
91298.4278
91298.4278
91298.4278
91298.4278
91298.4278
91298.4278
91298.4278
91298.4278
91298.4278
91298.4278
91298.4278
91298.4278
91298.4278
91298.4278
91298.4278
91298.4278
91298.4278
91298.4278
91298.4278
91298.4278
91298.4278
91298.4278
91298.4278
91298.4278
91298.4278
91298.4278
91298.4278
91298.4278
91298.4278
91298.4278
91298.4278
91298.4278
91298.4278
91298.4278
91298.4278
91298.4278
91298.4278
91298.4278
91298.4278
91298.4278
91298.4278
91298.4278
91298.4278
91298.4278
91298.4278
91298.4278
91298.4278
91298.4278
91298.4278
91298.4278
91298.4278
91298.4278
91298.4278
91298.4278
91298.4278
91298.4278
91298.4278
91298.4278
91298.4278
91298.4278
91298.4278
91298.4278
91298.4278
91298.4278
91298.4278
91298.4278
91298.4278
91298.4278
91298.4278
91298.4278
91298.4278
91298.4278
91298.4278
91298.4278
91298.4278
91298.4278
91298.4278
91298.4278
91298.4278
91298.4278
91298.4278
91298.4278
91298.4278
91298.4278
91298.4278
91298.4278
91298.4278
91298.4278
91298.4278
91298.4278
91298.4278
91298.4278
91298.4278
91298.4278
91298.4278
91298.4278
91298.4278
91298.4278
91298.4278
)
;

boundaryField
{
    closed
    {
        type            calculated;
        value           nonuniform List<scalar> 0();
    }
    open
    {
        type            calculated;
        value           uniform 91298.4278;
    }
    sides
    {
        type            empty;
    }
    procBoundary5to4
    {
        type            processor;
        value           uniform 81735.93;
    }
}


// ************************************************************************* //
