/*--------------------------------*- C++ -*----------------------------------*\
| =========                 |                                                 |
| \\      /  F ield         | OpenFOAM: The Open Source CFD Toolbox           |
|  \\    /   O peration     | Version:  2306                                  |
|   \\  /    A nd           | Website:  www.openfoam.com                      |
|    \\/     M anipulation  |                                                 |
\*---------------------------------------------------------------------------*/
FoamFile
{
    version     2.0;
    format      ascii;
    arch        "LSB;label=32;scalar=64";
    class       volScalarField;
    location    "0.00032";
    object      prefDh_T;
}
// * * * * * * * * * * * * * * * * * * * * * * * * * * * * * * * * * * * * * //

dimensions      [1 1 -3 -1 0 0 0];

internalField   nonuniform List<scalar> 
530
(
0.00759669152
0.00805707013
0.00810187335
0.00738189487
0.00769206332
0.00805912127
0.00810099727
0.00742716217
0.00772627861
0.00807116645
0.00810160472
0.00749042121
0.00775516224
0.00808223549
0.00810260325
0.00753699752
0.00779020407
0.0080925828
0.00810410865
0.00758609924
0.00781912524
0.00809334842
0.00810581843
0.00764586433
0.00784145432
0.00808349204
0.00810774846
0.00771721308
0.00787359705
0.00807632231
0.00811006263
0.00776970018
0.00790748066
0.00808743988
0.00811260466
0.00778996078
0.00793392736
0.00810920643
0.00811533731
0.00779433961
0.0079426221
0.00811817611
0.0081175242
0.00780566741
0.00795363432
0.00811943969
0.00811899859
0.00782323895
0.00796608509
0.00812095196
0.00812056876
0.00784506857
0.00797669219
0.00812264457
0.00812224415
0.00788161636
0.00798309752
0.00812450269
0.00812401517
0.00790446568
0.00799789943
0.00812642799
0.00812582657
0.00792093012
0.00801030219
0.0081285702
0.00812777064
0.00794862795
0.00800475006
0.00813074506
0.00812988
0.00800594649
0.00798591617
0.00812431887
0.00813183758
0.00804574168
0.00798372556
0.00810247937
0.00813380764
0.00807723393
0.00798844617
0.00809281355
0.00813584521
0.00809385277
0.00799406923
0.00809940665
0.00813803921
0.00809128766
0.00800485843
0.00811882957
0.00814020649
0.00808025219
0.00802796261
0.00813839559
0.008142193
0.00807529939
0.00805810588
0.00814370646
0.00814058729
0.00807535582
0.00811259538
0.00814523183
0.00810398337
0.00808637269
0.00814650174
0.00814322178
0.00808344073
0.0081200204
0.00814774669
0.00811652061
0.0080752975
0.00814824002
0.00814913216
0.00810947598
0.008073963
0.00815089565
0.0081505998
0.00811224632
0.00807770752
0.00815240245
0.00815209603
0.00811703939
0.00808394041
0.00815387811
0.00815357138
0.00812205543
0.00809104375
0.00815528388
0.0081549983
0.00812661533
0.00809809299
0.0081566102
0.00815634843
0.008130497
0.00810468321
0.00815785743
0.00815762335
0.00813371113
0.00811075448
0.00815902026
0.00815882282
0.0081364433
0.00811639949
0.0081601018
0.0081599445
0.00813893163
0.0081216725
0.00816110582
0.00816098513
0.00814134427
0.00812655331
0.00816203316
0.00816194284
0.00814374172
0.00813100905
0.00816288419
0.00816281671
0.0081461055
0.00813503222
0.00816366004
0.00816360742
0.00814838578
0.00813863866
0.00816436183
0.00816431733
0.0081505357
0.00814185525
0.00816499134
0.00816495023
0.00815253395
0.00814470809
0.0081655521
0.00816551054
0.00815451258
0.00814711601
0.00816605451
0.0081659986
0.00815616941
0.00814939151
0.00816649194
0.00816642916
0.00815759791
0.00815147328
0.00816687101
0.00816680619
0.00815891073
0.00815332063
0.0081671997
0.00816713268
0.00816009447
0.00815498205
0.00816748272
0.00816741413
0.00816121975
0.00815642108
0.00816772538
0.00816765519
0.00816213569
0.00815779623
0.00816793054
0.00816786169
0.0081629397
0.00815904242
0.0081681033
0.00816803739
0.00816365405
0.00816016391
0.00816824823
0.00816818601
0.00816428941
0.00816117081
0.00816836932
0.00816831107
0.00816485691
0.00816207253
0.00816847006
0.00816841578
0.00816536606
0.00816287813
0.00816855352
0.00816850306
0.00816582499
0.0081635958
0.00816862237
0.00816857548
0.00816624061
0.00816423277
0.00816867893
0.00816863531
0.0081666187
0.00816479536
0.0081687252
0.00816868451
0.0081669638
0.00816528958
0.00816876286
0.00816872482
0.00816727908
0.0081657218
0.0081687933
0.00816875781
0.00816756637
0.00816609964
0.00816881773
0.0081687849
0.00816782686
0.00816643235
0.00816883724
0.00816880732
0.00816806284
0.0081667303
0.00816885293
0.00816882604
0.00816828637
0.00816700363
0.00816880463
0.00816884165
0.00816851175
0.00816726026
0.00816870145
0.0081688547
0.0081687107
0.00816750459
0.00816869288
0.0081688659
0.00816875287
0.00816774475
0.00816879863
0.0081688764
0.00816871146
0.00816799586
0.00816888929
0.00816888636
0.00816867183
0.00816835273
0.00816889036
0.0081688379
0.00816865597
0.00816887001
0.00816889165
0.00816861686
0.00816865816
0.00816889653
0.00816889317
0.00816855885
0.00816867475
0.00816889747
0.00816889557
0.00816863055
0.00816871808
0.00816889922
0.00816889814
0.00816872563
0.00816877822
0.00816890093
0.00816890039
0.00816881011
0.00816885057
0.00816890251
0.00816890235
0.00816888382
0.00816890478
0.00816890419
0.00816890506
0.00816890621
0.00816890656
0.00816890677
0.00816890708
0.0081689076
0.00816890774
0.00816890803
0.00816890814
0.00816890841
0.00816890847
0.00816890865
0.00816890869
0.00816890883
0.00816890886
0.00816890895
0.00816890897
0.00816890903
0.00816890904
0.00816890908
0.00816890909
0.00816890911
0.00816890911
0.00816890913
0.00816890912
0.00816890913
0.00816890912
0.00816890912
0.00816890911
0.00816890911
0.0081689091
0.0081689091
0.00816890909
0.00816890909
0.00816890908
0.00816890907
0.00816890907
0.00816890906
0.00816890905
0.00816890905
0.00816890904
0.00816890904
0.00816890903
0.00816890903
0.00816890902
0.00816890902
0.00816890901
0.00816890901
0.00816890901
0.008168909
0.008168909
0.008168909
0.00816890899
0.00816890899
0.00816890899
0.00816890899
0.00816890899
0.00816890898
0.00816890898
0.00816890898
0.00816890898
0.00816890898
0.00816890898
0.00816890898
0.00816890898
0.00816890898
0.00816890898
0.00816890897
0.00816890897
0.00816890897
0.00816890897
0.00816890897
0.00816890897
0.00816890897
0.00816890897
0.00816890897
0.00816890897
0.00816890897
0.00816890897
0.00816890897
0.00816890897
0.00816890897
0.00816890897
0.00816890897
0.00816890897
0.00816890897
0.00816890897
0.00816890897
0.00816890897
0.00816890897
0.00816890897
0.00816890897
0.00816890897
0.00816890897
0.00816890897
0.00816890897
0.00816890897
0.00816890897
0.00816890897
0.00816890897
0.00816890897
0.00816890897
0.00816890897
0.00816890897
0.00816890897
0.00816890897
0.00816890897
0.00816890897
0.00816890897
0.00816890897
0.00816890897
0.00816890897
0.00816890897
0.00816890897
0.00816890897
0.00816890897
0.00816890897
0.00816890897
0.00816890897
0.00816890897
0.00816890897
0.00816890897
0.00816890897
0.00816890897
0.00816890897
0.00816890897
0.00816890897
0.00816890897
0.00816890897
0.00816890897
0.00816890897
0.00816890897
0.00816890897
0.00816890897
0.00816890897
0.00816890897
0.00816890897
0.00816890897
0.00816890897
0.00816890897
0.00816890897
0.00816890897
0.00816890897
0.00816890897
0.00816890897
0.00816890897
0.00816890897
0.00816890897
0.00816890897
0.00816890897
0.00816890897
0.00816890897
0.00816890897
0.00816890897
0.00816890897
0.00816890897
0.00816890897
0.00816890897
0.00816890897
0.00816890897
0.00816890897
0.00816890897
0.00816890897
0.00816890897
0.00816890897
0.00816890897
0.00816890897
0.00816890897
0.00816890897
0.00816890897
0.00816890897
0.00816890897
0.00816890897
0.00816890897
0.00816890897
0.00816890897
0.00816890897
0.00816890897
0.00816890897
0.00816890897
0.00816890897
0.00816890897
0.00816890897
0.00816890897
0.00816890897
0.00816890897
0.00816890897
0.00816890897
0.00816890897
0.00816890897
0.00816890897
0.00816890897
0.00816890897
0.00816890897
0.00816890897
0.00816890897
0.00816890897
0.00816890897
0.00816890897
0.00816890897
0.00816890897
0.00816890897
0.00816890897
0.00816890897
0.00816890897
0.00816890897
0.00816890897
0.00816890897
0.00816890897
0.00816890897
0.00816890897
0.00816890897
0.00816890897
0.00816890897
0.00816890897
0.00816890897
0.00816890897
0.00816890897
0.00816890897
0.00816890897
0.00816890897
0.00816890897
0.00816890897
0.00816890897
0.00816890897
0.00816890897
0.00816890897
)
;

boundaryField
{
    closed
    {
        type            calculated;
        value           nonuniform List<scalar> 0();
    }
    open
    {
        type            calculated;
        value           uniform 0.00816890897;
    }
    sides
    {
        type            empty;
    }
    procBoundary5to4
    {
        type            processor;
        value           uniform 0.00730281823;
    }
}


// ************************************************************************* //
