/*--------------------------------*- C++ -*----------------------------------*\
| =========                 |                                                 |
| \\      /  F ield         | OpenFOAM: The Open Source CFD Toolbox           |
|  \\    /   O peration     | Version:  2306                                  |
|   \\  /    A nd           | Website:  www.openfoam.com                      |
|    \\/     M anipulation  |                                                 |
\*---------------------------------------------------------------------------*/
FoamFile
{
    version     2.0;
    format      ascii;
    arch        "LSB;label=32;scalar=64";
    class       volScalarField;
    location    "0.00122";
    object      H2;
}
// * * * * * * * * * * * * * * * * * * * * * * * * * * * * * * * * * * * * * //

dimensions      [0 0 0 0 0 0 0];

internalField   nonuniform List<scalar> 
531
(
0.0106674569
0.0107907836
0.0110121926
0.0110257632
0.0106807108
0.0106644102
0.0107787849
0.0110145063
0.0110259955
0.0106789027
0.0106613182
0.010766628
0.0110191758
0.0110348982
0.0106673323
0.010650751
0.0107138381
0.0110197755
0.0110004295
0.0108772929
0.010683261
0.0107265147
0.0110128881
0.0110204429
0.010664561
0.0106574286
0.0107620519
0.0110379268
0.0109993471
0.0110568809
0.010682635
0.0106680952
0.0106641593
0.010681964
0.0110272792
0.011007504
0.0109544301
0.0106741867
0.0106621106
0.0107599712
0.0110165285
0.0110341536
0.0106679479
0.0106547671
0.0107670288
0.0110161725
0.0110824879
0.0106824386
0.0107327411
0.0110110567
0.0110201813
0.0106793401
0.0107352143
0.0110110767
0.0110600254
0.0106633792
0.0106650163
0.0108393305
0.0110188342
0.0110738954
0.0106668495
0.0106637455
0.0106718813
0.0107775361
0.01100753
0.0110411274
0.0107115455
0.0106728491
0.010678736
0.0109117192
0.0110149445
0.0109582382
0.0106947528
0.0107720119
0.0110037561
0.0110546519
0.010681301
0.01067439
0.0106757861
0.0106832618
0.0109339575
0.0110125508
0.0110267923
0.0106714181
0.0106765017
0.0109154183
0.0110179969
0.0110093803
0.0106727234
0.0106786565
0.0109715072
0.0110089011
0.0110720134
0.0106793882
0.0106764573
0.0106836724
0.0106890484
0.0109170527
0.0110045778
0.011070491
0.0106796367
0.0106792244
0.0108442333
0.0110144378
0.0110471241
0.0106633906
0.0106662225
0.0108293288
0.0110205694
0.0109903193
0.0106833243
0.0107479341
0.0110167732
0.0109979493
0.0106622084
0.0106698796
0.0108542067
0.0110223016
0.0109915661
0.0106659703
0.0106707081
0.0108597059
0.0110234069
0.010972748
0.0106654589
0.0106711946
0.0108689746
0.0110243022
0.0109534974
0.0106655297
0.0106720281
0.0108784674
0.0110250865
0.0109378548
0.0106658296
0.0106734296
0.0108909935
0.0110256761
0.0109241243
0.0106667268
0.0106747833
0.0108993664
0.0110258565
0.010888342
0.0106891916
0.0107908776
0.0110223809
0.0109047078
0.0106665643
0.0106782412
0.0109398645
0.0110296689
0.0108427459
0.0106883136
0.0108062004
0.0110258237
0.0108915485
0.0106647583
0.0106750108
0.0109290212
0.0110330916
0.0108631731
0.0106644891
0.0106630994
0.0106840867
0.0109090505
0.0110294867
0.0109047882
0.010672329
0.0106772132
0.0110573799
0.0110303858
0.0108112847
0.0106923443
0.0107763259
0.0110447647
0.0110077751
0.0106747948
0.0106709039
0.0108562864
0.0110487559
0.0109003991
0.0106920269
0.0107149074
0.0110598931
0.0110574806
0.0107255331
0.0106778333
0.0107631917
0.0110689763
0.0109717165
0.0106965257
0.010693756
0.0109456345
0.0110639568
0.0107923515
0.0106737409
0.0106826071
0.0109579594
0.0110635797
0.0108272541
0.0106833856
0.0106906263
0.0109688896
0.011063734
0.01082839
0.0106852608
0.0106908055
0.0109564859
0.0110579099
0.0108368562
0.0106720491
0.0106614303
0.0107317889
0.0110650366
0.0110375267
0.0108032128
0.010683453
0.0106849035
0.0109408247
0.0110518489
0.0108787225
0.0106931447
0.0106945856
0.0109878958
0.0110458291
0.010834992
0.0106874687
0.0106940746
0.0110090673
0.0110466805
0.010810717
0.0106766637
0.0106834046
0.0109955792
0.0110556533
0.0107454303
0.0106989936
0.0108667284
0.0110632846
0.0108310975
0.0106809818
0.0106830564
0.0109529402
0.0110581535
0.0108076476
0.0106863212
0.0107073352
0.0110722376
0.0110549432
0.0107499529
0.0106830084
0.0107348305
0.0110570219
0.0110675714
0.0107115361
0.0106778208
0.0106746979
0.0106808498
0.0109071677
0.0110311926
0.0110004784
0.0107022606
0.0107038489
0.010986848
0.011043815
0.0108111469
0.0106813537
0.0106994718
0.011059218
0.0110276886
0.0107129803
0.0107154502
0.0110623076
0.0110547876
0.0107323547
0.0106742036
0.0106890448
0.0110725365
0.0110542756
0.0107343062
0.0106713097
0.0107149817
0.0110726286
0.0109886661
0.0107024376
0.0107380223
0.0110450408
0.0110257702
0.0106966379
0.0106995385
0.0110776837
0.0110518765
0.0107245375
0.0106740135
0.0107479633
0.0110349969
0.0110582311
0.0106849085
0.0106707109
0.0107624746
0.0110322173
0.0110624688
0.0106827689
0.0106698328
0.0107619279
0.0110321094
0.0110626248
0.0106800466
0.0106680716
0.0107725479
0.0110417624
0.0109302518
0.0106978221
0.0107554581
0.011026831
0.0110727297
0.0106751359
0.0106644012
0.010770032
0.0110440529
0.0109160749
0.0106955727
0.0107540158
0.0110270668
0.0110728822
0.0106728678
0.0106623512
0.0107657061
0.011044081
0.0109255365
0.0106919937
0.0107571354
0.0110393639
0.0109077711
0.0106881869
0.010734914
0.0110288941
0.0110590581
0.0106742389
0.0106639256
0.0107788021
0.0110392312
0.0109039088
0.0106944714
0.0107583055
0.0110183989
0.0110487721
0.0106774519
0.0106660528
0.0107549571
0.0110271439
0.0110422762
0.010674226
0.0106613791
0.0107748163
0.0110400706
0.0108926661
0.0106878892
0.0107885978
0.0110322764
0.0108515754
0.0106819867
0.0107448464
0.0110193281
0.0110491506
0.010670018
0.0106585651
0.0107762079
0.0110310443
0.0109154751
0.0106929485
0.010757857
0.0110111403
0.0110410379
0.0106769222
0.0106614543
0.0107526083
0.0110179854
0.0110293991
0.0106824365
0.0106641331
0.0107562153
0.0110150995
0.0110257138
0.0106841558
0.010664153
0.0107536643
0.0110136281
0.0110223163
0.0106857552
0.0106629246
0.010750904
0.0110145902
0.0110172705
0.0106884579
0.01066072
0.0106644892
0.0107291561
0.0110413892
0.0109930863
0.0110605487
0.0106849009
0.0106600181
0.0107293461
0.0110186261
0.0110180238
0.0106841446
0.0106582949
0.0107245303
0.0110221002
0.0110222573
0.0106861293
0.0106845091
0.0110286748
0.0110270412
0.0106934451
0.0106576331
0.0107085843
0.0110274904
0.0110233178
0.0106845113
0.0106851818
0.0110371285
0.0110607232
0.0106852897
0.0107163432
0.011024729
0.0109858431
0.010678822
0.0106990689
0.0110214401
0.0110193009
0.0106867607
0.0106542099
0.0106959509
0.0110344854
0.0110228488
0.0106943768
0.0106895203
0.0110426822
0.0110158621
0.0107157981
0.0106658929
0.0107043854
0.0110320593
0.0110131326
0.0107159273
0.0106621113
0.0106972776
0.0110356905
0.011015069
0.0107119863
0.0106565484
0.0106903806
0.0110402756
0.0110175613
0.0107060587
0.0106515562
0.010691015
0.0110446036
0.0110397327
0.0106941265
0.0106967174
0.0110484318
0.0110196943
0.0107104138
0.0106532489
0.0106839988
0.0110708857
0.0109979827
0.011011554
0.0107145491
0.0106708205
0.0106645015
0.0106915218
0.0110446422
0.0110125558
0.0107334896
0.0106613885
0.0106911234
0.0110464414
0.0110252239
0.0107135971
0.0106977444
0.0110654855
0.0110154799
0.0107238369
0.0106527046
0.0106815969
0.0110528916
0.0110328182
0.0107023185
0.0106995449
0.0110593366
0.0110378954
0.0107016305
0.0106957291
0.0110685628
0.0110149512
0.0107348993
0.0106568527
0.0106772514
0.0110547209
0.0110122696
0.0107454705
0.0106615739
0.0106824233
0.011050666
0.0110100448
0.0107505866
0.0106635698
0.0106844366
0.0110478891
0.0110086978
0.0107516142
0.0106638333
0.0106845898
0.011045725
0.0110082104
0.0107504033
0.0106628402
0.0106842613
0.0110436282
0.0110077119
0.0107490796
0.0106622405
0.0106841578
0.0110410717
0.0110070884
0.010748632
)
;

boundaryField
{
    closed
    {
        type            calculated;
        value           nonuniform List<scalar> 0();
    }
    open
    {
        type            calculated;
        value           nonuniform List<scalar> 0();
    }
    sides
    {
        type            empty;
    }
    procBoundary1to0
    {
        type            processor;
        value           uniform 0.0106806706;
    }
    procBoundary1to2
    {
        type            processor;
        value           uniform 0.0106619803;
    }
}


// ************************************************************************* //
