/*--------------------------------*- C++ -*----------------------------------*\
| =========                 |                                                 |
| \\      /  F ield         | OpenFOAM: The Open Source CFD Toolbox           |
|  \\    /   O peration     | Version:  2306                                  |
|   \\  /    A nd           | Website:  www.openfoam.com                      |
|    \\/     M anipulation  |                                                 |
\*---------------------------------------------------------------------------*/
FoamFile
{
    version     2.0;
    format      ascii;
    arch        "LSB;label=32;scalar=64";
    class       volScalarField;
    location    "0.00122";
    object      prefDh_T;
}
// * * * * * * * * * * * * * * * * * * * * * * * * * * * * * * * * * * * * * //

dimensions      [1 1 -3 -1 0 0 0];

internalField   nonuniform List<scalar> 
531
(
-0.000516713375
-0.000593391206
-0.000741999226
-0.000746433951
-0.000563078151
-0.000513814162
-0.000593251508
-0.000741893619
-0.000746512064
-0.000559120195
-0.000504643841
-0.000593979402
-0.000741788389
-0.000746704246
-0.000535609577
-0.000472180381
-0.000590688081
-0.000741222226
-0.000750583892
-0.000614451123
-0.000582616288
-0.000596411109
-0.000749876855
-0.000750460649
-0.000533246773
-0.000485432874
-0.000587664763
-0.000724762258
-0.000746739673
-0.000730931896
-0.00056846829
-0.000510105703
-0.000512455747
-0.0005667711
-0.000743366784
-0.000744130191
-0.000647660328
-0.000552402709
-0.000504527496
-0.00058967318
-0.00074279385
-0.000744178815
-0.000529283414
-0.000490929761
-0.000594940605
-0.000742545727
-0.000719829367
-0.000572515474
-0.000605110157
-0.000746861932
-0.000682889615
-0.000568531843
-0.000599101822
-0.000748169075
-0.000726225052
-0.00051550961
-0.000517935991
-0.000604393686
-0.000739473965
-0.000724661183
-0.000515846938
-0.000512417012
-0.000544859201
-0.000592968194
-0.000749645679
-0.000727355477
-0.000591320867
-0.000543494448
-0.000575255541
-0.000628700527
-0.0007458443
-0.000649860705
-0.000594720265
-0.000594250526
-0.000751499188
-0.000721704655
-0.000567151583
-0.000547632793
-0.000556133981
-0.000584037705
-0.000638114515
-0.000744755988
-0.000686215947
-0.000538357143
-0.000552897377
-0.000630192862
-0.000741133463
-0.000677020232
-0.000539293621
-0.000563031228
-0.000655596373
-0.000743479542
-0.000716751646
-0.000552764585
-0.000546704106
-0.000574250405
-0.000596897769
-0.000630922771
-0.000746875847
-0.000716298945
-0.00055884227
-0.000558712962
-0.000605412074
-0.000744902976
-0.000697926161
-0.000516035084
-0.00051845292
-0.000601895702
-0.000743068206
-0.000666869205
-0.000574460842
-0.000595531363
-0.000745962706
-0.000670201414
-0.000514487275
-0.000526624076
-0.000608782696
-0.000739270165
-0.000666973963
-0.000518660394
-0.000528848242
-0.00061063814
-0.000738439168
-0.000657094527
-0.000516499993
-0.000531081683
-0.000613486162
-0.00073793902
-0.000647353858
-0.000516184854
-0.000534213248
-0.000616594711
-0.00073747864
-0.000639735131
-0.000516168295
-0.00053885623
-0.000620988685
-0.00073702221
-0.00063329963
-0.000517538213
-0.000542303865
-0.00062397176
-0.000738513317
-0.000617450857
-0.000583829044
-0.00059420259
-0.000741318523
-0.000624807055
-0.000519504061
-0.000551897482
-0.000640770207
-0.000737019613
-0.000600915927
-0.000579319722
-0.000595613447
-0.000739432014
-0.000619214628
-0.000515009962
-0.000543369927
-0.000635942398
-0.000734717966
-0.00060798227
-0.000512992316
-0.000510724589
-0.000568291965
-0.000627570633
-0.000736013738
-0.000624997505
-0.000528334552
-0.000545844354
-0.000702710555
-0.000737802227
-0.00059628657
-0.000591220013
-0.000590993497
-0.000726134086
-0.000674936823
-0.000554689817
-0.000528212665
-0.000606076852
-0.000727500921
-0.000623557435
-0.000597067052
-0.000599194509
-0.000702114029
-0.000727070346
-0.000580535884
-0.00054487325
-0.000583507508
-0.00070863104
-0.000656069452
-0.000596986887
-0.000596741895
-0.000643439294
-0.000724951045
-0.000585268831
-0.000542775348
-0.000559720538
-0.000649223576
-0.000722919808
-0.000596311321
-0.000568292212
-0.000588206125
-0.000654519632
-0.000720674675
-0.000597622846
-0.000571076924
-0.000585742434
-0.000648529218
-0.000723449763
-0.0006003899
-0.000543406614
-0.000495404954
-0.00058513498
-0.000705844214
-0.000734144102
-0.000592678561
-0.000565960122
-0.000567442989
-0.000641203171
-0.000728126874
-0.000614992912
-0.00059058196
-0.000602507873
-0.000664172287
-0.000731478782
-0.000600747423
-0.000571997854
-0.000601125068
-0.000675651846
-0.000732209944
-0.000593722878
-0.000544525203
-0.000571563231
-0.000668858468
-0.000701960542
-0.000588566331
-0.000601348302
-0.000610193248
-0.000725995477
-0.000598064456
-0.000555728109
-0.000565898662
-0.000646933985
-0.000726007451
-0.000593482533
-0.000559032624
-0.000594322095
-0.000719520233
-0.000726962163
-0.00058994653
-0.00054931074
-0.000588566387
-0.000731502024
-0.000723466662
-0.000599450294
-0.000545828594
-0.00054613383
-0.00055834756
-0.000626828473
-0.000739546448
-0.000671126547
-0.000609140141
-0.000610413399
-0.000663785713
-0.000733020193
-0.000594481515
-0.000548652946
-0.000597014563
-0.000704197399
-0.000686189095
-0.000612142484
-0.000606163165
-0.000729548207
-0.000728654725
-0.000593630039
-0.000522508054
-0.000589473693
-0.000722265706
-0.00073036308
-0.000591337576
-0.000512169538
-0.000588497088
-0.000721703979
-0.000665312866
-0.000605120625
-0.000594606552
-0.000738237459
-0.000685256889
-0.00058702263
-0.000600107944
-0.000718297471
-0.000730349851
-0.000594110317
-0.000522768421
-0.000590335352
-0.000742026131
-0.000730572402
-0.00057012585
-0.000510799968
-0.000593267716
-0.000741314098
-0.000727659901
-0.000564497939
-0.000507583088
-0.000593245161
-0.000741291566
-0.000727970459
-0.000557109182
-0.000500140007
-0.000589843958
-0.000736896778
-0.000636205669
-0.000595934087
-0.000595985752
-0.000745883307
-0.000720425215
-0.000545008625
-0.000489146031
-0.000589110842
-0.000736221216
-0.000629758051
-0.000588596156
-0.000595416561
-0.000745983038
-0.000721290671
-0.000538858124
-0.000483798029
-0.000589050564
-0.000736275937
-0.000633955973
-0.000574585492
-0.000589208249
-0.000740343859
-0.000626160258
-0.000568227308
-0.000596348313
-0.000746362944
-0.00073166098
-0.000542384941
-0.000489558408
-0.000590464259
-0.000738620698
-0.000624584206
-0.000588807243
-0.000595233887
-0.000748218977
-0.00073771302
-0.000552021386
-0.000499914546
-0.00059463191
-0.000742344311
-0.000740895737
-0.000543312952
-0.000485845558
-0.000589721825
-0.000737392305
-0.000619582957
-0.000567174381
-0.000589738567
-0.000743033147
-0.000604628389
-0.000558470406
-0.000593438702
-0.000748588161
-0.000739728669
-0.000536792853
-0.000479485425
-0.000590960932
-0.000740537534
-0.000629648358
-0.000589779071
-0.000596109049
-0.000749418221
-0.000741741753
-0.00055546827
-0.000493676285
-0.000593198788
-0.000744473564
-0.000746164194
-0.000566898314
-0.000506341583
-0.000593353116
-0.000745672331
-0.000747094912
-0.000573167027
-0.000508163496
-0.000592674853
-0.000746143113
-0.00074864526
-0.00057842209
-0.000505688345
-0.000592265285
-0.00074407497
-0.000752203921
-0.000576279261
-0.000512079611
-0.000504016055
-0.000589899096
-0.000728543276
-0.000753571151
-0.0007249152
-0.000590281137
-0.000483057565
-0.000590435618
-0.000744439712
-0.000751382136
-0.000577998091
-0.000492650578
-0.000594965721
-0.000740278217
-0.000750979285
-0.000570703428
-0.000564028672
-0.000748693717
-0.000741846195
-0.000600445119
-0.000485245563
-0.000596843854
-0.000738885105
-0.000752433771
-0.000564366799
-0.000560204572
-0.000742301656
-0.000731093105
-0.00056756343
-0.000606421448
-0.000744594172
-0.000663544852
-0.00055690307
-0.000606225001
-0.000748033855
-0.000750132418
-0.000593345307
-0.000477506082
-0.000603124385
-0.000735874736
-0.000751248435
-0.000596435072
-0.000579403462
-0.000737225712
-0.000745616466
-0.000595631903
-0.000511990094
-0.000600151951
-0.00073778522
-0.000749960819
-0.00059369505
-0.000503443288
-0.00060222686
-0.000736827281
-0.000749794279
-0.000593234905
-0.00048768468
-0.000589847752
-0.000736062158
-0.000749231805
-0.000592082519
-0.000472360367
-0.000586812243
-0.000731589048
-0.000742656499
-0.000601336167
-0.000594236012
-0.000730587505
-0.00074472117
-0.000585927149
-0.000465903921
-0.000580419377
-0.000717455427
-0.000749143026
-0.000746650976
-0.000591431717
-0.000526672793
-0.0005163251
-0.000581140663
-0.000732389624
-0.000746696064
-0.000590114088
-0.00050311432
-0.000588004254
-0.00072827242
-0.00074931866
-0.000597032362
-0.000603975981
-0.000720111512
-0.000746641366
-0.000588590505
-0.00047847062
-0.000561471689
-0.000726991982
-0.00074776398
-0.000597369489
-0.000603055525
-0.000720919304
-0.000741071021
-0.000599189496
-0.000596440582
-0.000718463353
-0.000747682228
-0.000588283376
-0.0004913985
-0.000553772664
-0.000726599653
-0.000748999485
-0.000590242715
-0.000506257625
-0.000567888879
-0.000728000186
-0.000749066928
-0.000590507556
-0.000512886054
-0.00057477863
-0.00072935557
-0.000749639896
-0.000590428626
-0.000514878333
-0.000576025934
-0.000730842466
-0.000750034378
-0.00059015055
-0.000513068437
-0.000576057577
-0.000732198307
-0.000750414922
-0.000589999937
-0.000512296145
-0.000576666903
-0.000733701893
-0.000750696021
-0.000589896955
)
;

boundaryField
{
    closed
    {
        type            calculated;
        value           nonuniform List<scalar> 0();
    }
    open
    {
        type            calculated;
        value           nonuniform List<scalar> 0();
    }
    sides
    {
        type            empty;
    }
    procBoundary1to0
    {
        type            processor;
        value           uniform -0.000565560833;
    }
    procBoundary1to2
    {
        type            processor;
        value           uniform -0.00051236883;
    }
}


// ************************************************************************* //
