/*--------------------------------*- C++ -*----------------------------------*\
| =========                 |                                                 |
| \\      /  F ield         | OpenFOAM: The Open Source CFD Toolbox           |
|  \\    /   O peration     | Version:  2306                                  |
|   \\  /    A nd           | Website:  www.openfoam.com                      |
|    \\/     M anipulation  |                                                 |
\*---------------------------------------------------------------------------*/
FoamFile
{
    version     2.0;
    format      ascii;
    arch        "LSB;label=32;scalar=64";
    class       volScalarField;
    location    "0.00122";
    object      prefDZ_H2;
}
// * * * * * * * * * * * * * * * * * * * * * * * * * * * * * * * * * * * * * //

dimensions      [1 -1 -1 0 0 0 0];

internalField   nonuniform List<scalar> 
531
(
6.16507218e-05
6.23362199e-05
6.35520639e-05
6.35772282e-05
6.20216263e-05
6.16309405e-05
6.23279226e-05
6.35495392e-05
6.3577677e-05
6.19910265e-05
6.15585381e-05
6.2325099e-05
6.35453012e-05
6.35727463e-05
6.18105897e-05
6.13022705e-05
6.22726268e-05
6.35403888e-05
6.36284831e-05
6.25240773e-05
6.21846418e-05
6.2316499e-05
6.36137956e-05
6.36129092e-05
6.17951514e-05
6.14035653e-05
6.22824337e-05
6.33969536e-05
6.35989211e-05
6.3432099e-05
6.20642552e-05
6.15944471e-05
6.16199004e-05
6.20509465e-05
6.3551884e-05
6.35723313e-05
6.27837899e-05
6.19419494e-05
6.15564075e-05
6.229385e-05
6.35551784e-05
6.35533201e-05
6.17559078e-05
6.1453103e-05
6.2331415e-05
6.3553477e-05
6.33248499e-05
6.20992689e-05
6.23754448e-05
6.35913159e-05
6.30501328e-05
6.20707856e-05
6.23387411e-05
6.36016272e-05
6.33925567e-05
6.16467807e-05
6.16647074e-05
6.24359609e-05
6.35272543e-05
6.33702041e-05
6.16443559e-05
6.1620196e-05
6.18816106e-05
6.23253706e-05
6.36158798e-05
6.34151637e-05
6.22752885e-05
6.18683624e-05
6.21298238e-05
6.2635786e-05
6.35804393e-05
6.28011186e-05
6.22869937e-05
6.23300826e-05
6.36332749e-05
6.33606179e-05
6.20553868e-05
6.1900946e-05
6.19710086e-05
6.21969203e-05
6.2709762e-05
6.35735867e-05
6.30752449e-05
6.18271295e-05
6.1942149e-05
6.26476287e-05
6.35409837e-05
6.30060643e-05
6.18329233e-05
6.20248797e-05
6.28444379e-05
6.35661683e-05
6.33088518e-05
6.19361145e-05
6.18895869e-05
6.21118821e-05
6.229677e-05
6.26532345e-05
6.35961628e-05
6.33063559e-05
6.19873779e-05
6.19869924e-05
6.24455314e-05
6.35733709e-05
6.31626741e-05
6.16511918e-05
6.16672111e-05
6.24138894e-05
6.35544021e-05
6.29296958e-05
6.21143276e-05
6.23236656e-05
6.35800419e-05
6.29550168e-05
6.16399661e-05
6.17303941e-05
6.2473044e-05
6.35231158e-05
6.29306104e-05
6.16693437e-05
6.17478523e-05
6.24882057e-05
6.35157401e-05
6.28558756e-05
6.16519412e-05
6.1765931e-05
6.25120922e-05
6.35111332e-05
6.2781765e-05
6.16491829e-05
6.17910557e-05
6.25377866e-05
6.35069216e-05
6.27234483e-05
6.16485897e-05
6.18280663e-05
6.25735597e-05
6.35028828e-05
6.26738417e-05
6.16587501e-05
6.18550512e-05
6.259785e-05
6.35145436e-05
6.25506784e-05
6.21838488e-05
6.2341377e-05
6.35392525e-05
6.26074585e-05
6.16755366e-05
6.19306812e-05
6.27302965e-05
6.34999586e-05
6.24168401e-05
6.21468294e-05
6.23598427e-05
6.35218321e-05
6.25636741e-05
6.16404701e-05
6.18637107e-05
6.26928203e-05
6.34792653e-05
6.24745402e-05
6.16239143e-05
6.1606942e-05
6.20601674e-05
6.26269684e-05
6.34921348e-05
6.26085981e-05
6.1741007e-05
6.18810535e-05
6.31990777e-05
6.35056278e-05
6.23672901e-05
6.22413992e-05
6.23121828e-05
6.34028563e-05
6.29909608e-05
6.19604177e-05
6.17421882e-05
6.24579635e-05
6.34107921e-05
6.25964053e-05
6.22923475e-05
6.23273301e-05
6.31960222e-05
6.34010853e-05
6.22151891e-05
6.18718237e-05
6.22569055e-05
6.32437552e-05
6.28480324e-05
6.23024641e-05
6.22861999e-05
6.27512514e-05
6.33796346e-05
6.2286273e-05
6.18607679e-05
6.19897473e-05
6.27956238e-05
6.33638107e-05
6.23778785e-05
6.20614117e-05
6.22187405e-05
6.28361946e-05
6.33459066e-05
6.2386762e-05
6.20818588e-05
6.21972696e-05
6.27903009e-05
6.33720938e-05
6.24095646e-05
6.18689632e-05
6.14811421e-05
6.22481005e-05
6.32233271e-05
6.34715073e-05
6.23395807e-05
6.20413928e-05
6.20514947e-05
6.27338194e-05
6.34135146e-05
6.25284131e-05
6.22344261e-05
6.23343081e-05
6.29096923e-05
6.34444025e-05
6.2410517e-05
6.20858163e-05
6.23273729e-05
6.29963392e-05
6.34495749e-05
6.23509205e-05
6.18707839e-05
6.2089347e-05
6.29449144e-05
6.31933222e-05
6.22780473e-05
6.23158396e-05
6.24905362e-05
6.33883928e-05
6.23913091e-05
6.1958591e-05
6.20415644e-05
6.27782056e-05
6.33921811e-05
6.23474438e-05
6.19777093e-05
6.22918781e-05
6.33306427e-05
6.34020576e-05
6.22895114e-05
6.1900972e-05
6.22716756e-05
6.34365119e-05
6.33652744e-05
6.23269711e-05
6.18799259e-05
6.18876834e-05
6.19810744e-05
6.26210529e-05
6.35188367e-05
6.29621742e-05
6.23832144e-05
6.23922531e-05
6.29067062e-05
6.34580598e-05
6.23559316e-05
6.18980734e-05
6.2304373e-05
6.3209886e-05
6.3075343e-05
6.24085984e-05
6.23719801e-05
6.34172375e-05
6.34155747e-05
6.23023119e-05
6.16892995e-05
6.2232641e-05
6.33521923e-05
6.34294718e-05
6.22889327e-05
6.16071055e-05
6.22593877e-05
6.33476736e-05
6.29180999e-05
6.23417278e-05
6.23118838e-05
6.34984593e-05
6.3068276e-05
6.21976681e-05
6.2304185e-05
6.33170422e-05
6.34310972e-05
6.23007141e-05
6.16917574e-05
6.2290773e-05
6.35356884e-05
6.34282804e-05
6.20743649e-05
6.15965305e-05
6.2318085e-05
6.35320719e-05
6.34021649e-05
6.20301248e-05
6.15709553e-05
6.23176116e-05
6.35319719e-05
6.34045127e-05
6.19719154e-05
6.15114694e-05
6.23026142e-05
6.34902208e-05
6.26960285e-05
6.22716207e-05
6.23310514e-05
6.35721013e-05
6.33374641e-05
6.18773995e-05
6.14251637e-05
6.22964464e-05
6.34832197e-05
6.26461074e-05
6.22129885e-05
6.23265821e-05
6.35727184e-05
6.33442155e-05
6.18289976e-05
6.13835516e-05
6.22934151e-05
6.34836324e-05
6.26788964e-05
6.2099984e-05
6.2289189e-05
6.35192241e-05
6.26179607e-05
6.20525017e-05
6.23210846e-05
6.35743959e-05
6.34363054e-05
6.18566333e-05
6.14291996e-05
6.23103768e-05
6.35056899e-05
6.26054483e-05
6.22167866e-05
6.23280037e-05
6.35966854e-05
6.34916178e-05
6.19330696e-05
6.15123379e-05
6.232218e-05
6.3543899e-05
6.35214845e-05
6.18645243e-05
6.14017596e-05
6.23032407e-05
6.34953649e-05
6.25667696e-05
6.20440694e-05
6.23119126e-05
6.35456216e-05
6.24457736e-05
6.19801803e-05
6.2308557e-05
6.35989263e-05
6.35072933e-05
6.18161691e-05
6.13527196e-05
6.2311905e-05
6.35267818e-05
6.26448534e-05
6.2227906e-05
6.23332724e-05
6.36114476e-05
6.35290704e-05
6.19633331e-05
6.1466708e-05
6.23116958e-05
6.35673912e-05
6.35724589e-05
6.20511925e-05
6.15686672e-05
6.23148444e-05
6.35789675e-05
6.35824877e-05
6.21017157e-05
6.15838954e-05
6.23090153e-05
6.35837604e-05
6.35972055e-05
6.21438262e-05
6.15649489e-05
6.2304761e-05
6.35667168e-05
6.36289852e-05
6.21205831e-05
6.16219585e-05
6.15487118e-05
6.22767325e-05
6.3424378e-05
6.36574492e-05
6.33818029e-05
6.22477248e-05
6.13804284e-05
6.22802498e-05
6.3566657e-05
6.36219466e-05
6.21431789e-05
6.14625203e-05
6.23061424e-05
6.35312325e-05
6.36156887e-05
6.20771358e-05
6.20231164e-05
6.35929755e-05
6.35400354e-05
6.23226735e-05
6.14017332e-05
6.23086532e-05
6.35162955e-05
6.36264091e-05
6.20259881e-05
6.19895164e-05
6.35363245e-05
6.34306112e-05
6.20518474e-05
6.23741474e-05
6.35634382e-05
6.29047981e-05
6.19722671e-05
6.23627796e-05
6.35930112e-05
6.36111461e-05
6.22705647e-05
6.13419651e-05
6.23412056e-05
6.34874054e-05
6.36173856e-05
6.22823733e-05
6.21453639e-05
6.34921583e-05
6.35779701e-05
6.23052055e-05
6.1613416e-05
6.23272294e-05
6.35042783e-05
6.36142805e-05
6.2292972e-05
6.15473268e-05
6.23362671e-05
6.3494067e-05
6.36115543e-05
6.22877149e-05
6.14235111e-05
6.22333139e-05
6.34846928e-05
6.36052966e-05
6.22768826e-05
6.13027152e-05
6.22060536e-05
6.34461616e-05
6.35372478e-05
6.23250919e-05
6.22591207e-05
6.34354658e-05
6.35681035e-05
6.22403473e-05
6.12471331e-05
6.21642831e-05
6.33152425e-05
6.36189004e-05
6.35892863e-05
6.22777734e-05
6.17293456e-05
6.16519289e-05
6.21566117e-05
6.34524706e-05
6.35889114e-05
6.22806856e-05
6.15456174e-05
6.22160776e-05
6.34185749e-05
6.36004157e-05
6.23128087e-05
6.23408091e-05
6.33401822e-05
6.35863467e-05
6.22652548e-05
6.13519782e-05
6.2006379e-05
6.34037741e-05
6.35826276e-05
6.23083067e-05
6.23294528e-05
6.33510136e-05
6.35260375e-05
6.23194848e-05
6.22798606e-05
6.33249035e-05
6.35949555e-05
6.22699229e-05
6.14540804e-05
6.19483135e-05
6.33993467e-05
6.36073163e-05
6.22886859e-05
6.15716995e-05
6.20596804e-05
6.34133655e-05
6.36094724e-05
6.22934442e-05
6.16244045e-05
6.21150097e-05
6.34261043e-05
6.36149812e-05
6.22935648e-05
6.16407684e-05
6.21254219e-05
6.34394406e-05
6.36184526e-05
6.22910743e-05
6.16270449e-05
6.21262989e-05
6.34516897e-05
6.3621822e-05
6.22893226e-05
6.16214558e-05
6.21317201e-05
6.346544e-05
6.36244972e-05
6.22884009e-05
)
;

boundaryField
{
    closed
    {
        type            calculated;
        value           nonuniform List<scalar> 0();
    }
    open
    {
        type            calculated;
        value           nonuniform List<scalar> 0();
    }
    sides
    {
        type            empty;
    }
    procBoundary1to0
    {
        type            processor;
        value           uniform 6.20429105e-05;
    }
    procBoundary1to2
    {
        type            processor;
        value           uniform 6.16224643e-05;
    }
}


// ************************************************************************* //
