/*--------------------------------*- C++ -*----------------------------------*\
| =========                 |                                                 |
| \\      /  F ield         | OpenFOAM: The Open Source CFD Toolbox           |
|  \\    /   O peration     | Version:  2306                                  |
|   \\  /    A nd           | Website:  www.openfoam.com                      |
|    \\/     M anipulation  |                                                 |
\*---------------------------------------------------------------------------*/
FoamFile
{
    version     2.0;
    format      ascii;
    arch        "LSB;label=32;scalar=64";
    class       volScalarField;
    location    "0.00178";
    object      prefDZ_H;
}
// * * * * * * * * * * * * * * * * * * * * * * * * * * * * * * * * * * * * * //

dimensions      [1 -1 -1 0 0 0 0];

internalField   nonuniform List<scalar> 
530
(
0.00010527912
0.000105523714
0.000110075421
0.000110272626
0.00011004879
0.000107822465
0.000105439692
0.00010554783
0.000110133231
0.000110290573
0.000107105947
0.000106345488
0.000110156008
0.000110303544
0.000106686908
0.000106706404
0.000110194043
0.000110275297
0.00011013379
0.000107880921
0.000106721982
0.000104861687
0.000104887021
0.000110140937
0.000110083752
0.00011015519
0.000110079945
0.000107915078
0.000105320815
0.000105434408
0.000110160678
0.000110238028
0.000107001484
0.00010677933
0.000110182851
0.000110255902
0.000110136011
0.000107878696
0.000106758725
0.000104895524
0.000104971033
0.000110153787
0.000110122164
0.000110114213
0.000107173986
0.00010566351
0.000110161445
0.000110183235
0.00011011691
0.000110219016
0.000108131764
0.000107517896
0.00010594264
0.000105952044
0.000110232398
0.000110174004
0.000107879545
0.000105449792
0.000105466542
0.00011027703
0.000110134785
0.000107839449
0.000105078203
0.000105437062
0.000110112312
0.000110244187
0.000110071368
0.000107843793
0.000105594945
0.000105759342
0.000110144396
0.00011023404
0.000107133158
0.000106931847
0.000110168172
0.000110162968
0.00011011214
0.000108268715
0.000107397735
0.000105807705
0.000105828569
0.000110235651
0.000110107551
0.0001078728
0.000104755618
0.000104938164
0.000110112392
0.000110210236
0.000106271307
0.000105605856
0.000110128851
0.000110204154
0.00011010832
0.000110208543
0.000107909861
0.000106594334
0.000104917904
0.000104929756
0.000110188695
0.000110172982
0.00011015521
0.000106881971
0.000106124024
0.0001102433
0.000110176299
0.000110201884
0.000107627299
0.000107189528
0.000110249319
0.00010785474
0.000105731171
0.000110290817
0.000110200446
0.000110188334
0.000107875215
0.000106801401
0.000105434042
0.000105458835
0.000110231619
0.000110206042
0.000110185473
0.000107789891
0.000106170127
0.000110342246
0.000110153251
0.000107826657
0.000105528427
0.000106028919
0.000110229524
0.000107692461
0.000105790811
0.000110251151
0.000110213026
0.000110150634
0.000107860929
0.000105218482
0.000105522262
0.000110171363
0.000110219985
0.000106954268
0.000107003572
0.000110264099
0.000107843214
0.000105115273
0.000110290021
0.000110174166
0.000106825871
0.000106089321
0.000110205349
0.000110198248
0.000106693617
0.000106230647
0.000110140057
0.000110208878
0.000106208948
0.000106080631
0.000109965839
0.000110196813
0.000109919942
0.000110229053
0.000108541502
0.000106908568
0.000106473905
0.000106149802
0.000105373032
0.000107715464
0.000110269813
0.000110406907
0.00011032631
0.000107420482
0.000107471427
0.000110292662
0.000107809545
0.000104775384
0.000110327083
0.000110147672
0.000106479603
0.000105594748
0.000110316584
0.000110170863
0.000106764956
0.00010558753
0.000108324375
0.000110138168
0.000110272858
0.000110132749
0.000108244388
0.000106467196
0.000106413562
0.000104671049
0.000104691709
0.000110223442
0.000110151323
0.000110228845
0.000110179053
0.000107890129
0.000106358917
0.000110349091
0.000110175348
0.000107807584
0.000105172872
0.000105407852
0.000110225403
0.000110250329
0.000106689659
0.000106761199
0.000110303332
0.000107870156
0.000105372925
0.000110272239
0.00011018751
0.000110179642
0.000107923096
0.000104329361
0.000104849163
0.000110141556
0.000110181909
0.000110179482
0.000110212875
0.00010790931
0.000106993654
0.00011030083
0.000110212527
0.000107827209
0.000107151032
0.000106309973
0.000105797744
0.000107973236
0.000110264571
0.000110341975
0.000110331607
0.000107192081
0.000107192071
0.000110189732
0.000107790512
0.00010429998
0.000110320259
0.000110076695
0.000107923995
0.000104081241
0.000104519687
0.000110044052
0.000110058598
0.000110089414
0.000110045591
0.000108104317
0.000105564014
0.000106124026
0.000110118007
0.000107856922
0.000105399056
0.000110363038
0.000110098868
0.000107738282
0.000106249883
0.000106629245
0.000105153391
0.000107678661
0.000110113778
0.000110522499
0.000110129469
0.00011046274
0.00011014833
0.000107846217
0.000105580117
0.000105617081
0.000110237618
0.000110268712
0.00010713541
0.000106245712
0.000110311359
0.000110232776
0.000107810937
0.000106491401
0.000106139696
0.000105298588
0.0001077442
0.000110293301
0.000110445494
0.000110370017
0.000107313495
0.000107264148
0.00011027978
0.000107862662
0.000105345257
0.000110257409
0.000110216919
0.000110217597
0.000107884996
0.000105847386
0.000110281444
0.000110183476
0.000107305738
0.000106430424
0.000110356609
0.000110182834
0.00010774122
0.000106469111
0.000106726453
0.000105241644
0.000107616494
0.000110165313
0.000110441943
0.000110180288
0.000110343217
0.000110193534
0.000108308008
0.000107201506
0.00010556655
0.000105570923
0.000110216532
0.000110147186
0.000107920185
0.000104868479
0.000104924063
0.00011014365
0.00011017263
0.000107203171
0.000105730202
0.000110209533
0.000110245248
0.000107914665
0.000105913882
0.000105467711
0.000107748266
0.000110178688
0.000110428059
0.000110209489
0.000110352694
0.000110243136
0.000107982034
0.000107106674
0.000105244571
0.000105282581
0.000110077217
0.000110200484
0.000105786947
0.000105556141
0.0001101059
0.000110215255
0.000110137179
0.000110225418
0.000107920353
0.00010711129
0.000105985223
0.00010597076
0.000110153095
0.000110169559
0.000107948546
0.000104729264
0.000104977849
0.000110125696
0.000110141844
0.000110163723
0.000107700098
0.000107084016
0.000110124078
0.000107896625
0.00010485644
0.000110255293
0.000110109672
0.000107862715
0.000103988785
0.000104395346
0.000110051229
0.000110227297
0.000110101971
0.000110262764
0.000110150671
0.000107844791
0.000107195653
0.000105674178
0.000105720616
0.000110184978
0.000110202408
0.000110182703
0.000107915452
0.000106212537
0.000110248701
0.000110139256
0.000107841453
0.000105520749
0.000105654259
0.000110128284
0.000110217073
0.0001101354
0.000107916655
0.00010649152
0.000106646995
0.000104711724
0.000104742629
0.00011010507
0.000110144794
0.000110135756
0.000106295982
0.000105915564
0.000110142567
0.000110180327
0.000110150909
0.000107292823
0.000106262291
0.000110187514
0.000110202971
0.000110179759
0.000107876834
0.000105399373
0.000105415546
0.00011020139
0.000110172184
0.000107871664
0.000105179053
0.000105218049
0.000110173698
0.000110204721
0.000107366928
0.00010582592
0.000110213351
0.00011016579
0.000107881269
0.000104717563
0.000105042643
0.000110144352
0.000110212299
0.00011019702
0.000107796023
0.000106211701
0.000110220902
0.00011021572
0.000107313735
0.000106583168
0.000110223473
0.000110228009
0.000107504217
0.000106608653
0.000110235277
0.000110196169
0.00010785452
0.0001059717
0.000105976202
0.000110222322
0.000110173869
0.000107847504
0.000105620999
0.000105661576
0.000110157227
0.000110223699
0.000107398058
0.000106371318
0.000110184016
0.000110181257
0.00010744109
0.000106096363
0.000110207214
0.000110127941
0.000107888287
0.000104346798
0.000104619246
0.000110084859
0.000110205132
0.000110134321
0.000110227735
0.000110185395
0.000107792535
0.000106561281
0.000104402079
0.00010441774
0.000110147422
0.000110184776
0.00011015392
0.000110225589
0.000110188273
0.000107903444
0.000106853699
0.000105632666
0.000105641515
0.000110098399
0.000110211032
0.0001063837
0.000105917031
0.000110084913
0.000110229981
0.00010607866
0.000106000058
0.00011011335
0.000110241163
0.000110152562
0.000110249009
0.000107907465
0.00010714332
0.000106019021
0.00010603324
0.000110088855
0.000110149494
0.000106505685
0.000106103425
0.000110064773
0.000110106121
0.00011011366
0.000110138511
0.00010733176
0.000104950021
0.000105187057
0.000110074711
0.000110193711
0.000107225372
0.000107223088
0.000110205553
0.000107862958
0.000106519917
0.000110234138
0.000107804809
0.000105724388
0.000110183367
0.000110203526
0.000110183186
0.00010795742
0.000106621289
0.000105615853
0.000105621297
0.000110150563
0.000110216005
0.000106151587
0.000106165368
0.000110175243
0.000110223883
0.000110186017
0.00010732204
0.000106471199
0.000110175206
0.000110194376
)
;

boundaryField
{
    closed
    {
        type            calculated;
        value           nonuniform List<scalar> 0();
    }
    open
    {
        type            calculated;
        value           nonuniform List<scalar> 0();
    }
    sides
    {
        type            empty;
    }
    procBoundary2to1
    {
        type            processor;
        value           uniform 0.000107833209;
    }
    procBoundary2to3
    {
        type            processor;
        value           uniform 0.000110148359;
    }
}


// ************************************************************************* //
