/*--------------------------------*- C++ -*----------------------------------*\
| =========                 |                                                 |
| \\      /  F ield         | OpenFOAM: The Open Source CFD Toolbox           |
|  \\    /   O peration     | Version:  2306                                  |
|   \\  /    A nd           | Website:  www.openfoam.com                      |
|    \\/     M anipulation  |                                                 |
\*---------------------------------------------------------------------------*/
FoamFile
{
    version     2.0;
    format      ascii;
    arch        "LSB;label=32;scalar=64";
    class       volScalarField;
    location    "0.00178";
    object      prefDh_H2;
}
// * * * * * * * * * * * * * * * * * * * * * * * * * * * * * * * * * * * * * //

dimensions      [1 1 -3 0 0 0 0];

internalField   nonuniform List<scalar> 
530
(
19.664462
20.5153454
37.6070742
38.2295385
37.4492921
28.9767361
20.2698537
20.59942
37.7996105
38.3233499
26.5300557
23.6065003
37.9013479
38.3551314
24.9450093
24.9701239
38.0512072
38.224189
37.7526647
29.311396
25.1049967
18.0435781
18.158293
37.8921454
37.5912742
37.8624263
37.5710358
29.2980166
19.8051259
20.1934941
37.8965522
38.1262852
26.1292007
25.2600736
38.0012228
38.1517779
37.7563533
29.3063341
25.2425033
18.1627686
18.4727976
37.9321947
37.7026677
37.7329046
26.7758631
21.0847578
37.9471988
37.9245261
37.722453
38.0382357
30.0814114
28.0529683
22.1443371
22.1581088
38.1470833
37.9037861
29.2914972
20.2683199
20.3290046
38.300338
37.7691159
29.097098
18.8867019
20.1935825
37.7346892
38.1256263
37.5331183
29.0886927
20.8530754
21.4106809
37.8229486
38.1047064
26.6318149
25.8538955
37.9349308
37.8258547
37.6682
30.5938966
27.640324
21.6268447
21.7166088
38.1571955
37.6699404
29.2913864
17.6698989
18.3120183
37.723817
38.0441119
23.3951603
20.8401669
37.8415697
38.0116191
37.6854299
38.0195848
29.3948592
24.5935699
18.2488114
18.2984394
38.0424033
37.8928745
37.8636015
25.6519353
22.8196896
38.2217962
37.8786998
38.0191573
28.4660237
26.821634
38.2199826
29.2077684
21.3281419
38.376066
37.962893
37.9604272
29.2076972
25.3811642
20.1933881
20.3008934
38.1789327
37.9936315
37.963546
29.0498693
23.0006061
38.5241046
37.8209346
28.9901007
20.5684112
22.426802
38.1472379
28.6914675
21.5510339
38.241607
38.0067141
37.8378777
29.1617526
19.4144007
20.5181889
37.9197862
38.0545211
25.9364478
26.1220439
38.2635236
29.1038309
18.9977516
38.3511137
37.9056828
25.4408081
22.6816057
38.0536391
37.9774974
24.9695783
23.205007
37.8178593
38.0153506
23.1831183
22.6354111
37.2562291
37.9713686
37.0216963
38.080781
31.664946
25.7185827
24.1716399
22.8315562
19.9778438
28.5454523
38.2594008
38.7000757
38.4176853
27.652426
27.8476796
38.3791668
28.9845761
17.7164251
38.4893799
37.8177342
24.1080679
20.8208036
38.46368
37.8933323
25.1717719
20.7909877
30.7786847
37.7730873
38.2542477
37.739368
30.4925987
24.1228958
23.913051
17.328112
17.4031447
38.1455579
37.8319104
38.1132942
37.9206437
29.3880279
23.7108614
38.5310752
37.9011516
28.9682005
19.2229543
20.0705881
38.1164318
38.1706383
24.918446
25.1975543
38.4064235
29.348824
19.9665158
38.3128601
37.9203447
37.9546875
29.5017406
16.0488356
17.9852274
37.8361711
37.936875
37.920703
38.0324143
29.4415143
26.0873425
38.3526506
38.005006
29.0660162
26.6824541
23.4560282
21.5607469
29.422974
38.2333421
38.486262
38.4509643
26.8179822
26.7898684
38.0120328
28.8793322
15.9396472
38.4404801
37.568347
29.5503741
15.1318928
16.7535339
37.4852841
37.4969155
37.6005554
37.4386995
29.9838276
20.7299791
22.8134144
37.7356584
29.2102406
20.1026855
38.5946034
37.6238963
28.725102
23.3302385
24.6026475
19.1775596
28.4970693
37.7206938
39.1267186
37.7470644
38.9091962
37.7912272
28.9848639
20.7576252
20.8546056
38.1618607
38.2438353
26.5903162
23.2516485
38.4204391
38.1014969
29.0639486
24.1954954
22.7777678
19.6731846
28.5652644
38.3470953
38.85341
38.5807044
27.2378608
27.0581781
38.3374439
29.2997507
19.8628891
38.2738445
38.0329778
38.0995849
29.3740333
21.7728268
38.31277
37.9260714
27.2106831
23.9723901
38.5831707
37.9161729
28.7326947
24.1331052
24.975288
19.4950589
28.3178896
37.9124276
38.8387166
37.9301346
38.4904958
37.9435557
30.7327685
26.8655908
20.7030522
20.723491
38.0870928
37.8182965
29.5277776
18.0889399
18.2699513
37.8210152
37.9065029
26.8709881
21.3250174
38.0538063
38.1653113
29.4858555
21.9727414
20.3294557
28.7410975
37.9521621
38.7837279
38.0293089
38.509854
38.115322
29.5117308
26.4992444
19.5046295
19.6187885
37.621792
38.0031589
21.5585581
20.6491049
37.7521427
38.047124
37.784715
38.0704056
29.3597545
26.5281485
22.3008668
22.2253331
37.8706665
37.8961939
29.6416086
17.5566786
18.4835672
37.7915139
37.76436
37.881055
28.7575734
26.4315611
37.7748599
29.2121446
18.04033
38.2242192
37.6927221
29.2630759
14.7677795
16.2511612
37.5350881
38.0995498
37.6683874
38.194917
37.7870861
29.0778001
26.8722195
21.0981366
21.2920089
38.0117067
37.9744691
37.9469478
29.5121192
23.1606812
38.1890155
37.7697255
29.0759362
20.5526037
21.0185909
37.7758884
38.0242551
37.7468995
29.3003662
24.2219829
24.7818801
17.4914536
17.5919687
37.734039
37.7969114
37.7814032
23.4555707
22.0287459
37.8803382
37.9004858
37.8522144
27.1973685
23.336896
38.0218285
37.9621504
37.9370572
29.2358677
20.0805894
20.1277746
38.0222611
37.9066382
29.273131
19.2530185
19.372171
37.9323025
38.0196088
27.4758273
21.688414
38.0708604
37.8833668
29.3315017
17.5075953
18.7093105
37.8602641
38.0199909
38.003268
29.0836356
23.141615
38.103842
38.0365911
27.2713797
24.5321626
38.114343
38.0771002
27.986226
24.6350658
38.1404763
37.968301
29.1445477
22.2383751
22.2428429
38.0936844
37.8994601
29.1274975
20.9270538
21.0435007
37.8652618
38.0761435
27.6075395
23.7416717
37.9694692
37.9150609
27.7579498
22.7216934
38.0425253
37.7448304
29.3669417
16.1156947
17.1061338
37.649745
38.0163445
37.7821491
38.0701578
37.9158003
29.0766777
24.4826451
16.2913268
16.361691
37.9115402
37.9449282
37.8757339
38.0605352
37.937045
29.4086631
25.5699884
20.9645184
20.9804018
37.6904657
38.0340252
23.8083287
22.0116747
37.64287
38.0972676
22.6548162
22.3180466
37.7604888
38.132061
37.8269003
38.1503161
29.3294526
26.6422907
22.4339728
22.4617005
37.6445201
37.7996
24.2733514
22.757992
37.5738752
37.6631655
37.6950082
37.7893645
27.355558
18.4108522
19.2681764
37.5647309
37.9582017
26.9706946
26.9475985
38.050387
29.2263217
24.2964938
38.1655957
29.1176832
21.2976144
37.9916989
37.9785196
37.9431226
29.4302543
24.6816039
20.8915203
20.8994315
37.8771836
38.0480128
22.9051065
22.9511345
37.9808882
38.0564522
37.9693203
27.3007774
24.1200625
37.9655933
37.9265092
)
;

boundaryField
{
    closed
    {
        type            calculated;
        value           nonuniform List<scalar> 0();
    }
    open
    {
        type            calculated;
        value           nonuniform List<scalar> 0();
    }
    sides
    {
        type            empty;
    }
    procBoundary2to1
    {
        type            processor;
        value           uniform 29.0490649;
    }
    procBoundary2to3
    {
        type            processor;
        value           uniform 37.8189069;
    }
}


// ************************************************************************* //
