/*--------------------------------*- C++ -*----------------------------------*\
| =========                 |                                                 |
| \\      /  F ield         | OpenFOAM: The Open Source CFD Toolbox           |
|  \\    /   O peration     | Version:  2306                                  |
|   \\  /    A nd           | Website:  www.openfoam.com                      |
|    \\/     M anipulation  |                                                 |
\*---------------------------------------------------------------------------*/
FoamFile
{
    version     2.0;
    format      ascii;
    arch        "LSB;label=32;scalar=64";
    class       volScalarField;
    location    "0.00178";
    object      PV;
}
// * * * * * * * * * * * * * * * * * * * * * * * * * * * * * * * * * * * * * //

dimensions      [0 0 0 0 0 0 0];

internalField   nonuniform List<scalar> 
530
(
-0.00716408812
-0.00715045285
-0.00690166048
-0.00689414802
-0.0069030593
-0.00705106436
-0.00716049732
-0.00714964107
-0.00689973339
-0.00689374445
-0.00711960316
-0.00713207663
-0.0068987183
-0.00689398015
-0.00712868263
-0.00712478409
-0.00689737725
-0.00689579868
-0.00689977124
-0.00707750318
-0.00712997804
-0.00716995173
-0.00717025935
-0.00689909245
-0.00690239774
-0.00689943956
-0.00690277119
-0.00703432554
-0.00716268264
-0.00715541207
-0.00689949789
-0.00689675942
-0.00712208444
-0.00712473363
-0.00689844485
-0.00689677995
-0.00690019956
-0.00707891934
-0.00712940611
-0.00716857351
-0.00716834782
-0.00689868448
-0.00690130656
-0.00690060221
-0.00711836489
-0.0071528172
-0.00689935993
-0.00689917176
-0.00690132191
-0.00689756853
-0.00700198852
-0.007107572
-0.00714650183
-0.0071436117
-0.00689539885
-0.00689775548
-0.00707160917
-0.00715555996
-0.00715412781
-0.00689294043
-0.00689872803
-0.00706353408
-0.00716602609
-0.0071521594
-0.00689931675
-0.00689441508
-0.00690123629
-0.00705648013
-0.00715570351
-0.00714519719
-0.00689842887
-0.00689505105
-0.0071178997
-0.00712097456
-0.00689742175
-0.00689822204
-0.00689946907
-0.00698508778
-0.00711216896
-0.00714756414
-0.00714742312
-0.00689402956
-0.00689942435
-0.00707835018
-0.00717321572
-0.00716334141
-0.00689889702
-0.00689525318
-0.00713853544
-0.0071501856
-0.00689840163
-0.00689690251
-0.00690008848
-0.00689667222
-0.00706584019
-0.00712984943
-0.00716727703
-0.00716686809
-0.00689686497
-0.00689886148
-0.00689876813
-0.0071226323
-0.00714197871
-0.00689643604
-0.00689960145
-0.00689833116
-0.00710623069
-0.00711683782
-0.00689632744
-0.00708024675
-0.00715040005
-0.00689513572
-0.00689875369
-0.00689856661
-0.00705577998
-0.00712674716
-0.00715619413
-0.00715605422
-0.00689628681
-0.00689819092
-0.00689807289
-0.00709982604
-0.00714090481
-0.00689257323
-0.00689920046
-0.00705071456
-0.0071547626
-0.0071402873
-0.00689525212
-0.00710196782
-0.00714709741
-0.00689518693
-0.00689649337
-0.00689899315
-0.00705764086
-0.00716321985
-0.00715153586
-0.00689762478
-0.00689622435
-0.00712031715
-0.00711996061
-0.00689395463
-0.00706376519
-0.00716212073
-0.00689437524
-0.00689774288
-0.00712344891
-0.00714134802
-0.00689731494
-0.00689755415
-0.00712886007
-0.00713795435
-0.00689977365
-0.00689782912
-0.00714356173
-0.00714193069
-0.00690560608
-0.00689917133
-0.00690789188
-0.00689786058
-0.00696828986
-0.00711946936
-0.00713623784
-0.00713444277
-0.00715826765
-0.00705781363
-0.00689579514
-0.00689144846
-0.00689425086
-0.00710766907
-0.00710750168
-0.00689408369
-0.00707096065
-0.00717075396
-0.00689380453
-0.00689909738
-0.00712969066
-0.00715346999
-0.00689365201
-0.00689884396
-0.00712177815
-0.00715423895
-0.00697533221
-0.00690061317
-0.0068956918
-0.00690073784
-0.00698662366
-0.00713495602
-0.00713484049
-0.00717487117
-0.0071732114
-0.00689690041
-0.00690007759
-0.00689763767
-0.00689922906
-0.00708887921
-0.00713736877
-0.00689291041
-0.00689949668
-0.00706707364
-0.00716385079
-0.00715377409
-0.00689683667
-0.0068961019
-0.00712577363
-0.00712566881
-0.00689364365
-0.00709841799
-0.00715707974
-0.00689603691
-0.00689865871
-0.00689981883
-0.00708107215
-0.00718501561
-0.0071693745
-0.00690101023
-0.00689984991
-0.00690054139
-0.00689884146
-0.0070824389
-0.00712198766
-0.00689591183
-0.00689841843
-0.00707277521
-0.00711788476
-0.00713301066
-0.0071472742
-0.00700478674
-0.00689607115
-0.00689374805
-0.00689380309
-0.00711495127
-0.00711298365
-0.00689723424
-0.00706309091
-0.00718287163
-0.00689264565
-0.00690154116
-0.00709215653
-0.00719028882
-0.00717605042
-0.00690179933
-0.00690201817
-0.006900815
-0.006902459
-0.00700503078
-0.007155682
-0.00714020433
-0.00689850686
-0.00707647298
-0.00715784374
-0.00689079957
-0.00689966548
-0.00707914281
-0.00714028486
-0.0071188639
-0.00716465006
-0.0070859999
-0.00690048002
-0.00688695995
-0.00690087118
-0.00688909098
-0.00690044758
-0.00702777937
-0.00715435021
-0.00714810472
-0.00689646284
-0.00689456046
-0.00711479946
-0.00713569075
-0.00689310568
-0.00689562192
-0.0070891817
-0.00713118416
-0.00713219504
-0.00715688749
-0.00703010594
-0.00689404828
-0.00688950323
-0.00689198482
-0.00710895119
-0.00711098482
-0.00689464738
-0.0070963419
-0.00715816965
-0.00689569022
-0.00689833086
-0.00689724377
-0.00709141281
-0.00714773261
-0.00689562067
-0.00689839304
-0.00710990547
-0.00713431277
-0.00689238089
-0.00689823796
-0.00707904776
-0.00713437633
-0.00711813448
-0.00716204592
-0.00709702966
-0.00689903716
-0.00689035505
-0.00689908935
-0.00689375283
-0.00689834727
-0.00698048605
-0.00711518238
-0.0071531971
-0.00715262407
-0.00689564365
-0.00689889722
-0.00708981573
-0.00717066128
-0.00716531009
-0.00689829924
-0.00689725037
-0.00711434532
-0.00714904461
-0.00689588929
-0.00689593286
-0.00708521674
-0.00714221003
-0.00715505627
-0.00707386278
-0.00689861056
-0.00689130189
-0.00689828685
-0.00689405438
-0.00689688363
-0.00701793092
-0.00711689119
-0.00716302606
-0.00715812927
-0.00690167592
-0.00689721851
-0.00715022601
-0.00715250923
-0.00690026157
-0.00689772236
-0.00689993942
-0.00689700292
-0.00704466724
-0.00711740193
-0.00714477552
-0.00714301952
-0.00689783796
-0.00689838692
-0.00708866706
-0.00717365102
-0.0071655848
-0.00689925667
-0.0068992994
-0.00689850448
-0.00710460523
-0.00711883101
-0.0068993344
-0.00703259333
-0.00717047129
-0.00689537513
-0.00690103672
-0.00708444744
-0.00719214999
-0.00717732949
-0.00690274223
-0.00689784061
-0.00690198028
-0.00689702875
-0.00690037307
-0.0070556809
-0.00711855743
-0.00715102743
-0.00715080555
-0.00689838708
-0.00689868809
-0.00689872654
-0.00709382409
-0.00714049603
-0.00689588017
-0.00690026946
-0.00705711326
-0.00715677938
-0.00714898309
-0.00689962665
-0.00689631518
-0.00689930203
-0.00703171873
-0.00713348671
-0.00712682763
-0.00717298233
-0.00717007899
-0.00689877015
-0.00689864483
-0.00689846025
-0.00713581282
-0.00714559497
-0.00689825537
-0.006898702
-0.00689848802
-0.00711268032
-0.00713748598
-0.00689767964
-0.00689717849
-0.00689807161
-0.00705975061
-0.00715733581
-0.00715483484
-0.00689571287
-0.00689748621
-0.00707490422
-0.00716229329
-0.00715738076
-0.00689672369
-0.00689538141
-0.00710888713
-0.00714601826
-0.00689487625
-0.00689743318
-0.00708002668
-0.00717249495
-0.00716200514
-0.00689763038
-0.00689661908
-0.00689639808
-0.00709964455
-0.00713769251
-0.00689630817
-0.00689630478
-0.00711108874
-0.00712880917
-0.00689617077
-0.00689620538
-0.0071062846
-0.00712892694
-0.0068954049
-0.00689741936
-0.0070603071
-0.00714420356
-0.00714216871
-0.00689555119
-0.00689791672
-0.00706332446
-0.00715342282
-0.00714792012
-0.00689840831
-0.00689569055
-0.00711055291
-0.00713413925
-0.00689744987
-0.00689773185
-0.0071085288
-0.0071423601
-0.00689631397
-0.00690017993
-0.00708284962
-0.00718314874
-0.00717234441
-0.00690107837
-0.00689783973
-0.00690013839
-0.00689736395
-0.00689827313
-0.0071006569
-0.00713224051
-0.00717879764
-0.00717862517
-0.00689842721
-0.00689870024
-0.00689908107
-0.0068975392
-0.00689781126
-0.00707822238
-0.00712388179
-0.00715301044
-0.00714988398
-0.0069006023
-0.00689638347
-0.00713621036
-0.00714370465
-0.00690109614
-0.00689649385
-0.00714319426
-0.00714218678
-0.00690048268
-0.00689726206
-0.00690000319
-0.00689666219
-0.00705185464
-0.00711657777
-0.00714540073
-0.00714204048
-0.00690126921
-0.00689929244
-0.00713394626
-0.00714371666
-0.00690173337
-0.00690159079
-0.00690038331
-0.00690023038
-0.00711132905
-0.00717082362
-0.00716044634
-0.0069012762
-0.00689705734
-0.00711532798
-0.00711445254
-0.0068962407
-0.00707406503
-0.00713033858
-0.00689538253
-0.00709942998
-0.00714886183
-0.00689718552
-0.0068975655
-0.00689740109
-0.00702234431
-0.00712805426
-0.00715253679
-0.00715010919
-0.00689879558
-0.00689677437
-0.00713928011
-0.00713932583
-0.00689808948
-0.00689838164
-0.00689828583
-0.00711273961
-0.00713333261
-0.00689962372
-0.0068984886
)
;

boundaryField
{
    closed
    {
        type            zeroGradient;
    }
    open
    {
        type            zeroGradient;
    }
    sides
    {
        type            empty;
    }
    procBoundary2to1
    {
        type            processor;
        value           uniform -0.00705814775;
    }
    procBoundary2to3
    {
        type            processor;
        value           uniform -0.00690082268;
    }
}


// ************************************************************************* //
