/*--------------------------------*- C++ -*----------------------------------*\
| =========                 |                                                 |
| \\      /  F ield         | OpenFOAM: The Open Source CFD Toolbox           |
|  \\    /   O peration     | Version:  2306                                  |
|   \\  /    A nd           | Website:  www.openfoam.com                      |
|    \\/     M anipulation  |                                                 |
\*---------------------------------------------------------------------------*/
FoamFile
{
    version     2.0;
    format      ascii;
    arch        "LSB;label=32;scalar=64";
    class       volScalarField;
    location    "0.0001";
    object      rho;
}
// * * * * * * * * * * * * * * * * * * * * * * * * * * * * * * * * * * * * * //

dimensions      [1 -3 0 0 0 0 0];

internalField   nonuniform List<scalar> 
3801
(
0.95960259
0.905056811
0.898799762
0.93199868
0.948491516
0.9061399
0.897468634
0.931243762
0.946531416
0.90879989
0.897482084
0.931525781
0.94453073
0.909963698
0.898163662
0.932015418
0.938432837
0.909352683
0.930547035
0.949837005
0.914120138
0.899946945
0.933244528
0.944979959
0.915438208
0.900031969
0.934277686
0.94610597
0.917845485
0.900859624
0.935296432
0.946960112
0.919765499
0.90176817
0.936179663
0.947564166
0.921432721
0.902642703
0.937164731
0.948697094
0.919004046
0.903345089
0.935861048
0.948201459
0.958781769
0.958860958
0.923922333
0.904752666
0.937829604
0.946388286
0.919945202
0.904590472
0.938783512
0.947149514
0.912363112
0.905243297
0.937010213
0.949412616
0.949705125
0.962073699
0.961866537
0.906511964
0.906959968
0.936165914
0.959418817
0.95916845
0.906218875
0.906992336
0.936490152
0.95945405
0.959235174
0.906782944
0.905902522
0.939332738
0.945191997
0.907122093
0.930952787
0.95609546
0.90737223
0.905495962
0.94278189
0.953550719
0.907809083
0.904951947
0.942256164
0.95388911
0.908171123
0.905091695
0.942117271
0.953783058
0.908646822
0.90550821
0.942040754
0.953555173
0.909262607
0.906160366
0.944133807
0.954411816
0.909794042
0.906829862
0.908745543
0.906967408
0.938463419
0.955487067
0.953383108
0.958346854
0.957808476
0.966046744
0.965918959
0.909414452
0.907814649
0.938559886
0.950790701
0.943179889
0.908299576
0.905498172
0.942674629
0.951866616
0.90880251
0.907071794
0.943612751
0.95405539
0.907950316
0.906766007
0.943708663
0.965443639
0.950752024
0.908527955
0.905408087
0.945164402
0.951869655
0.908282232
0.906102022
0.950721465
0.950875651
0.90697612
0.906999814
0.907000843
0.947765598
0.967980008
0.958803988
0.958291765
0.959932397
0.95496236
0.908335731
0.908901328
0.954625662
0.956101117
0.90906863
0.910554856
0.957270217
0.955633336
0.910352472
0.912711279
0.957083603
0.952779768
0.911819497
0.914786316
0.955637802
0.950427831
0.913468788
0.916031058
0.962494177
0.96322878
0.956841516
0.95826937
0.948985506
0.915538422
0.918455095
0.955752798
0.950298758
0.915489001
0.940292432
0.956678642
0.942974901
0.915165078
0.949641407
0.954873702
0.924757443
0.91391205
0.947795196
0.951220828
0.912152762
0.913487532
0.949982977
0.949778166
0.910577471
0.911268868
0.945306892
0.964354527
0.959730501
0.964511641
0.948700005
0.908073761
0.908851821
0.950496991
0.944734166
0.905756199
0.906998718
0.948217823
0.943049642
0.903865458
0.904743448
0.946934496
0.943147164
0.902633173
0.902987098
0.945381545
0.942575309
0.901746261
0.902801497
0.942906159
0.958728263
0.950398672
0.958178371
0.946557262
0.902816542
0.901352015
0.946617382
0.947897679
0.903540809
0.902411775
0.944911293
0.946683327
0.903754234
0.903852262
0.943304854
0.966740125
0.946940142
0.90527875
0.902737738
0.945490191
0.948267506
0.905468366
0.903896761
0.944630338
0.946746155
0.90429081
0.90480187
0.940573403
0.96539438
0.946143575
0.905017888
0.901667968
0.937198586
0.94268107
0.91462025
0.901992502
0.93389095
0.949814776
0.935977655
0.905118855
0.898684488
0.932023665
0.938688784
0.921612924
0.896387498
0.927880059
0.936651382
0.915035795
0.899281113
0.925582286
0.920113005
0.889361937
0.919318587
0.938277452
0.92488497
0.900742211
0.882483411
0.882140152
0.881501335
0.906627453
0.929741282
0.927046639
0.921365215
0.921028995
0.917791244
0.916637049
0.906817476
0.875193745
0.888488008
0.914449357
0.909579997
0.876397506
0.887048726
0.920400612
0.914278715
0.880162085
0.887310228
0.926163413
0.919665763
0.884684048
0.891018405
0.930725266
0.924777529
0.891053495
0.927211859
0.932817695
0.893084277
0.896335197
0.938731147
0.93796599
0.896120396
0.898334057
0.943382178
0.950101296
0.954930756
0.933767206
0.901071182
0.937040754
0.951169724
0.901768742
0.903465914
0.958735925
0.961772686
0.903660436
0.905048678
0.952015277
0.952728519
0.905279831
0.90662551
0.948621001
0.951504562
0.905782403
0.908378855
0.942881751
0.958957155
0.955130494
0.972819652
0.967597356
0.909178533
0.909538054
0.910926318
0.938783573
0.972425162
0.969299165
0.910444931
0.910205589
0.956408163
0.960223687
0.910106189
0.910915046
0.959444311
0.959466452
0.910051477
0.911581959
0.952786242
0.94885985
0.911560862
0.949091629
0.953994849
0.910728215
0.913159088
0.949416219
0.959147308
0.955916164
0.962886841
0.958037566
0.912898026
0.913961978
0.955296328
0.95346804
0.912584368
0.914488005
0.957482404
0.95363017
0.912396949
0.914696001
0.958666262
0.955429107
0.912285141
0.913776349
0.955265977
0.968585277
0.9516069
0.912342129
0.913155398
0.949926009
0.962750141
0.950464597
0.912563869
0.913384982
0.955830124
0.951675765
0.911824815
0.913659609
0.957434921
0.953993032
0.911875899
0.913379801
0.959775158
0.97002388
0.950035227
0.913383905
0.912503834
0.962058926
0.962729817
0.962608541
0.949331985
0.912668263
0.912492036
0.962435218
0.962483516
0.962795471
0.94862812
0.911751817
0.911901924
0.958250911
0.953084266
0.911099654
0.911970388
0.959056785
0.953056829
0.911033437
0.912224667
0.963355149
0.971509789
0.948666956
0.911966975
0.911374334
0.95773269
0.951602107
0.911430112
0.912045495
0.956602297
0.949690258
0.911596391
0.912669524
0.964803438
0.964890812
0.956280918
0.959713133
0.94856698
0.912291097
0.911718753
0.956275201
0.948117158
0.911404835
0.9490272
0.951161906
0.910862321
0.912680639
0.958628939
0.950601407
0.911219142
0.912876502
0.957065798
0.949658486
0.910999769
0.912677772
0.953349464
0.947965404
0.910852604
0.912418519
0.955354761
0.961872218
0.953564933
0.957711904
0.946454928
0.910138067
0.910174182
0.953405454
0.945616233
0.908462094
0.909369543
0.952676587
0.945881189
0.907298415
0.908065461
0.953084499
0.946843015
0.906814664
0.906184654
0.955660464
0.942982233
0.909310512
0.942657757
0.947788709
0.904890732
0.90562514
0.950872819
0.944737636
0.905667824
0.905918262
0.953131291
0.956698649
0.948615308
0.949014017
0.946349968
0.94907091
0.942393649
0.906499026
0.905359845
0.950320023
0.949838875
0.906410702
0.906704802
0.955379282
0.953042324
0.90666248
0.907775172
0.961894951
0.97419869
0.944742483
0.90821378
0.906875375
0.957036926
0.954642252
0.90752037
0.908377437
0.955749637
0.953456699
0.907371617
0.908356936
0.953348124
0.953447019
0.907630314
0.907708992
0.949150953
0.952624955
0.910330901
0.906731126
0.94250437
0.951195126
0.915543449
0.906044574
0.940186695
0.949672342
0.918162022
0.904873994
0.938866153
0.946886804
0.918769608
0.902698495
0.936153828
0.942971731
0.917931047
0.899280686
0.931916092
0.938024053
0.916068918
0.894652712
0.926208112
0.932484663
0.913661379
0.889215459
0.919244154
0.927035876
0.911223091
0.883620326
0.911240181
0.922356988
0.909100491
0.878736246
0.902420519
0.918712873
0.907652927
0.875711095
0.893970171
0.917138548
0.908017809
0.87629321
0.890728936
0.929119416
0.930702904
0.925499703
0.932427883
0.912474626
0.890280309
0.929778493
0.927578166
0.890811033
0.895483869
0.940051727
0.935768639
0.894946098
0.898819377
0.946998556
0.943292119
0.897925636
0.900354025
0.952748377
0.9601479
0.945448386
0.901281767
0.90191199
0.951123145
0.949629822
0.902459454
0.90284532
0.950801382
0.951257745
0.903183944
0.903581967
0.951819525
0.952389415
0.903873047
0.904133098
0.951962908
0.952728203
0.904714116
0.904695584
0.951813988
0.951243223
0.905398015
0.9057601
0.955433695
0.947371343
0.905355076
0.942000905
0.957015618
0.905938851
0.907332968
0.950020491
0.952734441
0.906028903
0.908087977
0.948776252
0.963356173
0.952885156
0.907932278
0.908105185
0.952909193
0.955531512
0.907493392
0.909154445
0.952727185
0.970833136
0.959984604
0.909105172
0.909222119
0.960736791
0.962358648
0.909167218
0.909572419
0.957165039
0.957683765
0.909600925
0.910189954
0.952616183
0.952671462
0.909365166
0.910519934
0.95021585
0.958016863
0.952902093
0.956279904
0.951763154
0.955956222
0.950723211
0.908955846
0.909735045
0.947000292
0.961681626
0.950455785
0.909376445
0.908514046
0.953012895
0.954186092
0.909347818
0.908591875
0.953949156
0.955713282
0.909505614
0.908706254
0.954431663
0.956201185
0.909603606
0.90855697
0.953734172
0.955689546
0.909574133
0.90838887
0.951644611
0.953420367
0.90943836
0.908411786
0.947783407
0.949217867
0.909305462
0.908909052
0.946978684
0.955707964
0.948881837
0.954903197
0.946925049
0.909696003
0.907235554
0.948754252
0.949438329
0.908856493
0.90822279
0.907634052
0.946996924
0.964052493
0.958808728
0.949076014
0.907374751
0.907405982
0.948394678
0.948654476
0.907235093
0.906692064
0.94772491
0.948658065
0.906462895
0.906364656
0.948789557
0.958275094
0.94952923
0.956774555
0.946193123
0.905499687
0.904264554
0.949207024
0.949533308
0.904361229
0.903899423
0.950035398
0.950346698
0.903868494
0.903559079
0.950987184
0.951354357
0.903499711
0.903235481
0.951580668
0.952223634
0.903147806
0.903030552
0.951595024
0.952369809
0.902730501
0.903131259
0.950696995
0.952907895
0.901836802
0.903911284
0.944854713
0.967238139
0.948351391
0.90228595
0.903484404
0.942252446
0.965999771
0.947339
0.903760071
0.902411786
0.939047385
0.948812115
0.907182701
0.903267546
0.937190028
0.948766126
0.906447503
0.904205082
0.939552899
0.956793176
0.950032611
0.955322862
0.948572973
0.915339016
0.905271834
0.940384642
0.94916736
0.92466054
0.906428013
0.941205667
0.949773932
0.924636633
0.907734284
0.942696875
0.960557676
0.949230048
0.923034736
0.907464129
0.943072865
0.952360242
0.927692832
0.907410932
0.942807623
0.952390618
0.926625639
0.906059744
0.941129622
0.950399876
0.924596856
0.90372235
0.938017889
0.946405347
0.921737921
0.900226599
0.933469472
0.940916421
0.918256099
0.895448284
0.927428007
0.93440673
0.91441868
0.889491641
0.919826744
0.927334363
0.910442342
0.882843706
0.91073034
0.920489944
0.906737101
0.876537007
0.900562881
0.914856041
0.904043828
0.872112349
0.89046578
0.911445409
0.903413399
0.871682248
0.882759618
0.918051055
0.919230072
0.91950102
0.912349743
0.879350259
0.885457496
0.926748478
0.920603021
0.885577731
0.888692289
0.935009631
0.939122076
0.941162124
0.937421721
0.892357337
0.8949546
0.942175334
0.935445733
0.894997728
0.931747257
0.949293414
0.896696246
0.897657765
0.941578413
0.946271151
0.898269464
0.899115811
0.944574296
0.948347302
0.899573705
0.900196518
0.944950316
0.951092049
0.900373761
0.901322299
0.938090817
0.951848323
0.957232833
0.957370187
0.902352569
0.903242645
0.943564704
0.951981315
0.902774834
0.90485683
0.939711075
0.958764423
0.957427419
0.905208811
0.904547615
0.943819721
0.952049738
0.905437084
0.905119071
0.948382433
0.954358758
0.905864864
0.905712753
0.95087111
0.956735581
0.906137564
0.906458617
0.951301778
0.960019801
0.905990887
0.907649689
0.943651087
0.969968944
0.968914878
0.90812306
0.907449552
0.949467687
0.958111382
0.90860257
0.907861815
0.951275451
0.957233583
0.909188177
0.908296506
0.951639811
0.957285732
0.909564313
0.908716685
0.952009347
0.957555924
0.909602356
0.908975734
0.951761031
0.958597029
0.909392576
0.909075787
0.946120897
0.958901689
0.964204985
0.964104322
0.90955798
0.908716516
0.952581389
0.956910062
0.909230612
0.908306197
0.952338784
0.955876683
0.90891647
0.907909607
0.953309089
0.956713584
0.908888408
0.907820551
0.955064592
0.957438279
0.909026265
0.908049808
0.95970816
0.957965231
0.908968397
0.944596717
0.973923044
0.908128021
0.909920195
0.952635136
0.975280125
0.967534911
0.910380608
0.909281482
0.965199046
0.957603839
0.909483877
0.951072946
0.972812776
0.907999988
0.910406593
0.965506789
0.963586161
0.907223722
0.909582111
0.965773212
0.963007064
0.905869242
0.907894962
0.964685431
0.965890026
0.904627489
0.905493177
0.961670045
0.979891362
0.966079199
0.903493433
0.903835634
0.966583763
0.967003294
0.902135908
0.904117109
0.967428789
0.969699366
0.90284117
0.904807504
0.967252161
0.986322769
0.969811766
0.90571157
0.906513139
0.977381699
0.971880204
0.905207728
0.905200611
0.905528098
0.905014627
0.906507677
0.904414676
0.907467734
0.959972836
0.988503188
0.95767716
0.904246116
0.904010517
0.904812261
0.904613138
0.904683042
0.904175402
0.903659721
0.902935973
0.902067834
0.901226824
0.90014152
0.899310832
0.898204143
0.897410199
0.896407971
0.89570729
0.894919542
0.894426729
0.894007734
0.893876853
0.893933188
0.894074873
0.894154099
0.893531862
0.892124682
0.889937853
1.01877767
1.00173005
1.01143053
0.982348325
1.00196441
0.990682686
0.992518872
0.998774202
0.987001476
1.01791798
0.966881211
1.0086727
0.995447603
1.00538499
1.00412655
0.995426418
1.00762381
0.998165123
1.00292563
1.00681875
1.00772557
1.01082599
1.01365847
1.01426736
1.01480728
1.01244702
1.01213496
1.00774742
1.00741667
0.997386176
0.95265355
0.952699202
0.936623897
0.933481238
0.936458618
0.887967249
0.88999558
0.889664524
0.889071334
0.887186271
0.889594899
0.85747725
0.854231502
0.852381139
0.850483437
0.84934332
0.848610632
0.846759605
0.833249182
0.83479071
0.836023763
0.830940479
0.843030119
0.83711073
0.832297066
0.827856937
0.818537848
0.820527449
0.810818743
0.808574922
0.790886882
0.808308786
0.792801695
0.787151883
0.776898781
0.779624515
0.772026223
0.790057564
0.787687714
0.781083863
0.787104552
0.768381412
0.792126616
0.775729965
0.776562861
0.786008246
0.782681836
0.758351243
0.769721202
0.736662465
0.752370495
0.743439034
0.734609922
0.734661981
0.750147532
0.717314132
0.714465601
0.693387326
0.727709806
0.726798836
0.735536415
0.699274177
0.709917043
0.670179795
0.72199814
0.693085356
0.694419179
0.668511024
0.665901058
0.644952251
0.638627027
0.620826211
0.648426559
0.636421788
0.631202819
0.61548397
0.604264719
0.600033213
0.596728251
0.592554898
0.587615586
0.578839147
0.571883398
0.565483762
0.559924218
0.554569112
0.549696553
0.544911411
0.540670587
0.536936913
0.532803862
0.528647565
0.523797506
0.518246952
0.510011583
0.502513436
0.495752464
0.489813716
0.484391245
0.479398617
0.475155491
0.471081036
0.46748643
0.463418133
0.459771381
0.455342815
0.451108015
0.445818043
0.441297621
0.435883155
0.431628641
0.426607628
0.422688064
0.418140276
0.414496159
0.410307674
0.406889574
0.403002807
0.39975367
0.396003784
0.392674462
0.388898212
0.385685506
0.382096668
0.379017238
0.375595252
0.372641205
0.369371835
0.366546945
0.363420938
0.36070183
0.35766193
0.355001358
0.352096112
0.349523933
0.346750735
0.344251352
0.341602085
0.339151956
0.336626902
0.334238042
0.331819625
0.329473285
0.32715979
0.324890857
0.322642105
0.320412523
0.318255833
0.316072004
0.313998618
0.311902603
0.309726282
0.307511286
0.305441963
0.303213547
0.301208008
0.29905749
0.297170088
0.295109726
0.293330471
0.291370136
0.289683355
0.287826161
0.286228001
0.284479445
0.282967081
0.28132505
0.279896143
0.278357856
0.277013514
0.275573332
0.274310728
0.272959468
0.271777491
0.270503923
0.269401742
0.268189194
0.267168017
0.266046152
0.264986132
0.263878269
0.262892559
0.261829666
0.260916432
0.259938914
0.259057198
0.258168692
0.25728736
0.25650694
0.255676707
0.25497242
0.253994802
0.253504624
0.252519035
0.252068529
0.250811545
0.250808812
0.249129047
0.249385583
0.247347667
0.248383965
0.245744821
0.246468707
0.244681471
0.245801462
0.240449313
0.243897283
0.241026932
0.242418767
0.240390282
0.240829051
0.238896338
0.237777729
0.238003584
0.237079675
0.236135505
0.238010308
0.234344734
0.236049708
0.234320445
0.234292415
0.233211579
0.233949556
0.232348315
0.232783087
0.231330047
0.232727585
0.230698974
0.231117619
0.229659154
0.231592253
0.229321148
0.22956567
0.228496323
0.230306022
0.228259174
0.227922851
0.22769575
0.229104863
0.227133295
0.227199538
0.227050724
0.22839873
0.226172432
0.226453956
0.225857088
0.228164375
0.225328085
0.2242462
0.225350595
0.226094507
0.224310009
0.226179407
0.224343031
0.224098481
0.224424837
0.225400175
0.223854757
0.224698416
0.224178546
0.224075966
0.2233879
0.223821678
0.224320512
0.223951039
0.223110197
0.224556917
0.2242119
0.224061764
0.222764996
0.223694083
0.224197745
0.223428836
0.222502978
0.223289766
0.223794295
0.222988895
0.222240611
0.222864044
0.223526406
0.222606808
0.221988454
0.22245152
0.223431393
0.222200607
0.221718938
0.222009861
0.223305613
0.221677633
0.221385692
0.221485638
0.222903734
0.221154333
0.221106624
0.220969832
0.222425082
0.22070783
0.220728751
0.220517989
0.2216467
0.219831055
0.22032273
0.219351048
0.221091334
0.21856611
0.21991715
0.218350524
0.220785081
0.21787945
0.219752967
0.217761605
0.220672523
0.217384366
0.219201121
0.217368271
0.219597071
0.217109142
0.218467018
0.21712285
0.218219874
0.216932232
0.217404409
0.216856383
0.216946762
0.21663971
0.216427776
0.216537786
0.216083237
0.216407953
0.216135259
0.216275837
0.216050707
0.2161584
0.215975293
0.216033321
0.215866107
0.215902411
0.215744285
0.21576662
0.215598704
0.215621103
0.215457072
0.215484921
0.215297942
0.215332843
0.215251857
0.215214505
0.215285411
0.215184329
0.215207736
0.215115222
0.215416157
0.215215263
0.215260581
0.215087083
0.215629813
0.215302037
0.215317285
0.215092669
0.215760625
0.215382916
0.215211761
0.215088853
0.215557807
0.215519884
0.215022158
0.21500278
0.215372589
0.215356771
0.214842675
0.214814854
0.215163742
0.215124537
0.214609622
0.214590351
0.214920837
0.21487782
0.214320869
0.214358763
0.214648644
0.214608365
0.214141485
0.214088066
0.214369243
0.214322059
0.213991874
0.213892762
0.214101742
0.214053476
0.21390176
0.213725729
0.213949001
0.213832239
0.213840371
0.213605532
0.213837432
0.213671723
0.213747442
0.213510304
0.213705828
0.213533954
0.213616509
0.213414343
0.213548452
0.213402214
0.213458295
0.213304101
0.213367197
0.213261583
0.213267219
0.213180046
0.213170728
0.213109929
0.213066881
0.213029499
0.212965936
0.212921746
0.212863008
0.212818555
0.212757421
0.212714862
0.212655872
0.212612454
0.212552932
0.212508036
0.212448113
0.212402318
0.212341358
0.212293976
0.212231392
0.212185199
0.212120222
0.212073309
0.212009202
0.211966948
0.211904498
0.21186128
0.21179879
0.211754702
0.211692142
0.211647166
0.211584563
0.211538729
0.211476066
0.211429426
0.211366662
0.211319271
0.211256352
0.211212365
0.211152752
0.211109974
0.211050182
0.211006491
0.210946463
0.210901922
0.21084161
0.210796271
0.210735636
0.210689546
0.210628554
0.210581755
0.210520377
0.210472913
0.210411122
0.210365828
0.210307029
0.210264591
0.21020543
0.210161988
0.210102446
0.210058048
0.20999812
0.209952803
0.209892503
0.209846299
0.209785659
0.209738585
0.20967766
0.209629721
0.209568595
0.209519775
0.209458561
0.209408838
0.209347849
0.209303328
0.209244635
0.209198991
0.209140066
0.209093245
0.209034213
0.208986175
0.208927149
0.208877858
0.208818938
0.208768349
0.20870963
0.208657683
0.208599254
0.208545857
0.208487813
0.20843283
0.208375265
0.208318535
0.208261524
0.208204462
0.20814653
0.208089066
0.208030076
0.207972225
0.207911863
0.207853644
0.207791482
0.207732903
0.207668412
0.207609503
0.207542
0.207482845
0.207428852
0.20737763
0.207326706
0.20727459
0.207221716
0.207168857
0.207113865
0.207060433
0.207001396
0.206948579
0.206885674
0.206834137
0.206760629
0.206714995
0.206633595
0.20659507
0.20648245
0.206467944
0.206337074
0.206346731
0.206149013
0.206213525
0.206025534
0.206116235
0.205799079
0.205975327
0.205937807
0.205916498
0.205732898
0.205776785
0.206327459
0.20575384
0.205995469
0.205641341
0.206658176
0.205642774
0.206042764
0.205541795
0.206717614
0.205538773
0.205967032
0.205411877
0.206644359
0.205401417
0.205826434
0.205265231
0.206494711
0.205250063
0.205652745
0.205107083
0.20630415
0.205086355
0.205446168
0.204943232
0.206035763
0.204914793
0.205217222
0.20476448
0.205767346
0.204735698
0.20499022
0.204578699
0.205504784
0.204551762
0.204762224
0.204380069
0.205249955
0.204365928
0.204538633
0.204164689
0.205001571
0.204187662
0.204322704
0.203944684
0.204753139
0.204043248
0.204112973
0.203749736
0.204518972
0.204020281
0.203906308
0.203639358
0.204301801
0.204073522
0.203709172
0.203611166
0.20411069
0.204116726
0.203524561
0.203496299
0.20391886
0.204089057
0.203321777
0.203355367
0.203700552
0.203977208
0.203097696
0.203155741
0.203471095
0.20369604
0.202871643
0.202924974
0.203220903
0.203412382
0.20263654
0.202688147
0.202968314
0.203139302
0.202404638
0.2024536
0.202730975
0.202876269
0.202182706
0.202220021
0.202504027
0.202618018
0.201962877
0.201981445
0.202280597
0.202358506
0.201748233
0.201740113
0.202062867
0.202105774
0.201538377
0.20150874
0.201846719
0.201868427
0.20132597
0.201289058
0.201626025
0.20164907
0.201111847
0.201077379
0.201407993
0.201439106
0.200901188
0.200870682
0.201194888
0.201232362
0.200698004
0.200669528
0.200987649
0.201031769
0.200499271
0.200472906
0.200786796
0.200837357
0.200302422
0.20028333
0.200586202
0.200646403
0.200105651
0.200097866
0.200386586
0.200458596
0.199909461
0.199911816
0.200195817
0.200274438
0.199719874
0.199732482
0.200007998
0.20008993
0.199536635
0.199550157
0.199824489
0.199907152
0.199356613
0.199370208
0.199643148
0.199729055
0.199181667
0.199193905
0.199474173
0.199556655
0.199014947
0.199023982
0.199314109
0.19938936
0.198853908
0.198859456
0.199159453
0.199228018
0.198698855
0.198701509
0.19901172
0.199074694
0.198550316
0.198550306
0.198869255
0.198926581
0.198405546
0.198402354
0.198728627
0.198781788
0.198263946
0.198259889
0.198592379
0.198641783
0.198127896
0.198122275
0.198460423
0.198506355
0.197996196
0.197989232
0.1983329
0.198375702
0.197868913
0.197860923
0.198209811
0.198249724
0.197746071
0.197737092
0.198090908
0.198130236
0.197627705
0.197618833
0.197976666
0.198016733
0.19751384
0.197505364
0.197867032
0.197907843
0.197404274
0.197396529
0.197761505
0.197802363
0.197298712
0.197291438
0.197659708
0.197700492
0.197196717
0.197189867
0.197561368
0.197602161
0.197098222
0.197091722
0.197466522
0.197507243
0.197003138
0.196996884
0.197374883
0.197415524
0.196911148
0.196905101
0.197286229
0.197326761
0.196822039
0.196816213
0.197200335
0.197240794
0.196735648
0.196730083
0.197117054
0.197157502
0.196651858
0.196646611
0.197036286
0.197076786
0.196570579
0.196565697
0.196957937
0.196998527
0.196491707
0.196487206
0.196881887
0.19692257
0.196415116
0.196410986
0.196807997
0.196848737
0.196340613
0.196336797
0.196736016
0.196776738
0.196267912
0.196264373
0.196665657
0.196706308
0.196196757
0.196193521
0.19659668
0.196637485
0.196126942
0.196124029
0.196528987
0.1965699
0.196058371
0.19605573
0.196462342
0.196503228
0.195990614
0.195988089
0.196396131
0.196437059
0.19592425
0.195921574
0.19633249
0.196371005
0.195865474
0.195854859
0.196270121
0.196305926
0.195807527
0.195789583
0.196209182
0.196242349
0.195751142
0.195725994
0.196149918
0.19618048
0.19569658
0.195664253
0.196092487
0.196120493
0.195643986
0.195604538
0.196037056
0.196062584
0.195593496
0.195547052
0.195983816
0.196006969
0.195545265
0.19549202
0.195932977
0.195953887
0.195499469
0.195439693
0.195884781
0.195903606
0.19545631
0.195390346
0.195839491
0.19585641
0.195416008
0.195344271
0.195797392
0.195812601
0.195378796
0.19530177
0.195758773
0.195772487
0.19534491
0.195263159
0.195723916
0.195736378
0.195314569
0.195228729
0.195693078
0.195704557
0.195287955
0.19519883
0.195666465
0.195677266
0.195265222
0.195173589
0.195644219
0.195654613
0.195246447
0.195153037
0.195626379
0.195636601
0.195231479
0.195137225
0.195612662
0.195622625
0.195220143
0.195125574
0.195602789
0.195612588
0.195212097
0.195117681
0.195596328
0.195605935
0.195206887
0.195112926
0.195592618
0.195601894
0.195203866
0.195110425
0.195590822
0.195599536
0.195202276
0.195109158
0.19559001
0.195597826
0.195201269
0.195108023
0.195589151
0.195595647
0.195199925
0.195105888
0.195587148
0.19559184
0.195197262
0.195101571
0.195582856
0.195585204
0.195192273
0.195093858
0.195575123
0.195574523
0.195183955
0.195081532
0.19556282
0.19555861
0.195171343
0.195063438
0.195544903
0.195536386
0.195153581
0.195038562
0.195520481
0.195506942
0.195129969
0.195006073
0.19548885
0.195469559
0.195099959
0.194965293
0.195449461
0.19542367
0.195063116
0.194915703
0.195401952
0.195368956
0.195019188
0.194857078
0.19534633
0.195305522
0.194968326
0.194789635
0.195283304
0.195234182
0.194911155
0.194714432
0.195214405
0.195157196
0.194849439
0.194634308
0.195144492
0.195079745
0.194788385
0.194552433
0.195080101
0.195002731
0.194724624
0.194466859
0.194997286
0.194908838
0.194647302
0.194364761
0.194897369
0.194802866
0.194553867
0.194238439
0.194751216
0.19464233
0.194402499
0.194069747
0.194580238
0.194474077
0.194245827
0.193921407
0.194436951
0.194331288
0.194133492
0.193808168
0.194325493
0.194221606
0.194038827
0.19371431
0.194234289
0.194132485
0.193961232
0.193637525
0.194160315
0.194060656
0.193899264
0.193576109
0.194101687
0.194004175
0.193851522
0.19352865
0.194056922
0.193961558
0.193816737
0.193493917
0.194024751
0.193931543
0.193793739
0.193470786
0.194004026
0.193912988
0.193781429
0.193458205
0.193993678
0.19390483
0.193778756
0.19345518
0.193992693
0.193906069
0.193784719
0.193460767
0.194000115
0.193915765
0.19379837
0.193474088
0.194015063
0.193933055
0.193818839
0.193494334
0.194036733
0.193957155
0.193845334
0.193520779
0.194064416
0.193987373
0.193877149
0.19355279
0.194097484
0.19402313
0.193913688
0.193589867
0.194135492
0.194063951
0.193954579
0.193631547
0.19417791
0.1941094
0.193999252
0.193677423
0.194224353
0.194159167
0.194047265
0.193727222
0.1942746
0.194212994
0.194098257
0.193780671
0.194328361
0.194270603
0.194151809
0.193837402
0.194385231
0.194331564
0.194207324
0.19389682
0.194444552
0.194395161
0.194263858
0.19395794
0.194505239
0.194460226
0.194319972
0.194019221
0.194565638
0.194524996
0.194373568
0.194078393
0.194623369
0.194586981
0.194421749
0.194132494
0.19467527
0.194643368
0.194460685
0.194178731
0.194719633
0.194691904
0.194495449
0.194221206
0.194760879
0.194736656
0.194530746
0.194263041
0.194800967
0.19477986
0.194564935
0.194302713
0.194839068
0.194812704
0.194603294
0.194328374
0.194863589
0.194839729
0.194625405
0.194355022
0.194888886
0.194868242
0.194647047
0.194383484
0.194915753
0.194897958
0.194669443
0.194412612
0.194943184
0.19492796
0.194692031
0.194441761
0.194970663
0.194957908
0.194714615
0.194470825
0.194998184
0.194987775
0.194737281
0.194499634
0.195025581
0.195017227
0.194760075
0.194527498
0.195052971
0.195045158
0.194787555
0.194555976
0.195081102
0.195074912
0.194815131
0.194588298
0.195112699
0.19510803
0.194845217
0.194623207
0.195147292
0.19514538
0.194877691
0.194666414
0.195189641
0.195191527
0.194917678
0.194715152
0.195239933
0.19524383
0.194963553
0.19476715
0.195299092
0.195297407
0.195011196
0.19482147
0.195354653
0.195351921
0.195058739
0.194874979
0.195405147
0.195402295
0.19510243
0.194924244
0.195451654
0.195448709
0.195142523
0.194969414
0.195494364
0.195491439
0.195179339
0.195011058
0.19553384
0.195531068
0.195213534
0.195049865
0.19557078
0.195568313
0.195245866
0.195086672
0.19560608
0.195604126
0.195277276
0.195122403
0.195640767
0.195639002
0.195307923
0.195157193
0.195672149
0.195670565
0.195335752
0.195188685
0.195698819
0.195697855
0.195360419
0.195216344
0.195723195
0.195722715
0.195383207
0.195241733
0.195746181
0.195746128
0.195404901
0.19526582
0.195768398
0.19576876
0.195426024
0.195289249
0.195790287
0.195791081
0.195446935
0.195312465
0.195812163
0.19581343
0.19546788
0.19533578
0.195834241
0.19583604
0.195489015
0.195359391
0.195856656
0.195859057
0.195510436
0.19538342
0.195879487
0.195882563
0.195532195
0.195407921
0.195902767
0.195906578
0.195554301
0.195432885
0.19592648
0.195931063
0.195576725
0.195458249
0.19595057
0.195955929
0.195599402
0.195483901
0.195974939
0.195981044
0.195622238
0.195509692
0.195999457
0.19600624
0.195645109
0.195535435
0.196024031
0.196031334
0.195667922
0.195560951
0.196048503
0.19605613
0.195690485
0.19558606
0.196072625
0.196080458
0.195712651
0.195610594
0.196096221
0.196104159
0.19573427
0.195634401
0.196119112
0.196127085
0.195755192
0.195657342
0.196141127
0.196149096
0.195775275
0.195679272
0.196162097
0.196170037
0.19579438
0.195700028
0.196181869
0.196189737
0.195812383
0.195719428
0.196200298
0.196208003
0.195829166
0.195737276
0.196217252
0.196224642
0.195844618
0.195753382
0.196232607
0.196239478
0.195858634
0.195767586
0.196246243
0.196252373
0.195871108
0.19577977
0.196258052
0.196263235
0.195881949
0.195789863
0.196267941
0.196272014
0.195891082
0.195797828
0.196275846
0.196278694
0.195898464
0.195803655
0.196281739
0.196283275
0.195904086
0.195807344
0.196285634
0.196285769
0.195907975
0.195808901
0.196287573
0.19628619
0.195910179
0.195808336
0.19628763
0.196284565
0.195910769
0.195805672
0.196285896
0.196280946
0.195909823
0.195800967
0.196282484
0.19627543
0.195907438
0.195794336
0.19627754
0.196268193
0.195903741
0.19578598
0.196271259
0.196259512
0.195898905
0.195776207
0.196263926
0.196249782
0.1958932
0.19576545
0.196255953
0.196239528
0.19588702
0.195754257
0.196247897
0.196229294
0.195880975
0.195743147
0.196240254
0.196219726
0.195875496
0.195732779
0.196233803
0.196211496
0.195871211
0.195723823
0.196229302
0.196205186
0.195868821
0.195716367
0.196227715
0.196200486
0.195867431
0.195710087
0.196222428
0.196192713
0.195864068
0.19570106
0.196214674
0.196182238
0.19585874
0.195689441
0.196204587
0.196169445
0.19585159
0.195675692
0.196192396
0.196154437
0.195842882
0.195659929
0.196178492
0.196137882
0.195832952
0.195642906
0.196163534
0.19612053
0.1958224
0.195625376
0.196148279
0.196103071
0.195811944
0.195607933
0.196133317