/*--------------------------------*- C++ -*----------------------------------*\
| =========                 |                                                 |
| \\      /  F ield         | OpenFOAM: The Open Source CFD Toolbox           |
|  \\    /   O peration     | Version:  2306                                  |
|   \\  /    A nd           | Website:  www.openfoam.com                      |
|    \\/     M anipulation  |                                                 |
\*---------------------------------------------------------------------------*/
FoamFile
{
    version     2.0;
    format      ascii;
    arch        "LSB;label=32;scalar=64";
    class       volScalarField;
    location    "0.0007";
    object      prefDh_H2O;
}
// * * * * * * * * * * * * * * * * * * * * * * * * * * * * * * * * * * * * * //

dimensions      [1 1 -3 0 0 0 0];

internalField   nonuniform List<scalar> 
531
(
87.9967898
91.7242506
92.4996724
90.7376775
88.0372761
87.9614357
91.7630954
92.5748414
89.2353928
88.0036433
90.5116643
92.8385747
89.0117996
88.0991272
91.1473104
92.5616567
90.5201608
87.96226
87.9337681
92.4541418
92.513306
90.1533044
87.86469
87.7967395
90.6446376
92.5550553
92.517077
92.3897185
92.3720788
90.2816241
88.2020139
88.1270958
88.0854808
87.9230699
88.0579786
92.9656202
92.3974066
90.7452162
88.0777155
88.0463523
91.831235
92.3396936
92.3822922
89.1838451
87.8718685
87.9751782
92.9637853
92.5666677
89.4017783
87.8894283
88.1039451
93.048062
92.5978365
89.2142151
87.8365716
87.8648019
92.0266294
92.5180703
92.5509728
92.4138477
91.5163359
88.2502887
88.0357197
87.8166957
87.8192977
91.594271
92.4076675
92.4133301
88.8708715
87.9077086
88.6166342
92.8719755
91.9198578
88.2563076
88.2945831
92.9656845
92.4321778
90.20305
88.0269018
87.8519366
88.5699509
92.8970169
92.6588344
88.6624203
87.9186064
88.9018222
92.8283168
93.0020209
88.275035
88.0473741
90.4041017
92.5498451
92.5705429
88.1735651
87.8528217
89.1119518
92.789633
92.2651469
88.1965837
88.0582626
91.3108904
92.3879198
91.7410451
88.3848156
88.0337978
89.1745225
93.0665677
90.8764999
88.3291413
88.5326323
90.507355
90.8794987
89.6958747
89.3547645
89.7346046
89.8086179
89.5836122
89.8068641
90.4761491
90.1927335
88.7516476
88.7499634
91.6144711
91.9228121
88.419804
88.0717549
91.570903
92.4831725
89.5464775
87.9626581
88.806907
92.8148581
92.9308102
88.0834925
87.868658
91.6639778
92.4598953
89.9001963
88.0241439
88.3270698
92.8892878
92.576356
88.323248
87.832078
91.0184901
92.5362054
90.9752823
88.0383821
87.9637127
92.3494283
92.4018239
89.8116281
87.9899648
88.1414061
92.9787361
92.5957551
89.0094772
88.2921868
89.3264296
90.7114131
90.4124325
89.4814186
89.4634142
89.6007057
89.7870745
90.1468046
90.201853
89.7447992
89.2818612
89.5283665
90.5473733
90.5306698
89.2745205
89.110221
90.0240186
90.7976355
90.0065512
89.1036998
89.2971018
90.4945526
90.5820849
89.5304079
89.2504425
89.7563538
90.3240587
90.075182
89.5200399
89.5266099
89.9657032
90.0488419
89.8276232
89.6764676
89.7528753
89.8949643
89.8904719
89.7907881
89.7765648
89.8160657
89.8423051
89.8304198
89.8101064
89.8106554
89.8221976
89.8240054
89.8202393
89.8177185
89.8185925
89.8201775
89.820184
89.8194668
89.8193317
89.8195215
89.8196536
89.8196212
89.8195558
89.8195545
89.8195754
89.8195811
89.8195767
89.8195734
89.8195738
89.819575
89.8195751
89.8195748
89.8195747
89.8195747
89.8195748
89.8195748
89.8195748
89.8195748
89.8195748
89.8195748
89.8195746
89.8195747
89.8195753
89.8195752
89.8195732
89.8195731
89.8195787
89.8195808
89.8195668
89.8195554
89.8195868
89.819629
89.8195719
89.819436
89.8195141
89.819901
89.8198651
89.8188716
89.8188042
89.8207669
89.8213701
89.8179633
89.8157542
89.8209306
89.8270275
89.8205389
89.8062589
89.8117686
89.841206
89.8414326
89.7894412
89.7812486
89.8469768
89.8816704
89.8098353
89.7318894
89.7897841
89.9337083
89.9110127
89.6978235
89.6789951
89.9071503
90.0045855
89.8115041
89.6275556
89.7309571
90.0088026
89.9966565
89.684225
89.6371756
89.8518086
89.996569
89.8758594
89.6883872
89.7109921
89.9027421
89.9294487
89.8049743
89.7307611
89.7852544
89.8852165
89.8807741
89.7775964
89.7595804
89.8286646
89.880082
89.8376122
89.7596916
89.7732985
89.8798036
89.8875943
89.7784369
89.7379161
89.8257996
89.9093274
89.8554651
89.7386896
89.7471145
89.8820246
89.900036
89.8016621
89.7487898
89.8000662
89.8726477
89.8594283
89.7887084
89.7827256
89.8261897
89.8463302
89.8272615
89.8041166
89.80795
89.826278
89.8279938
89.8191939
89.8149146
89.8177815
89.8215989
89.8213041
89.8189791
89.8186748
89.8194698
89.8199367
89.819747
89.8194666
89.8195018
89.8196206
89.819564
89.8194433
89.8195963
89.8199459
89.8197077
89.8187382
89.8188783
89.8212348
89.8214119
89.8170023
89.815603
89.8224871
89.8273145
89.8182628
89.805901
89.8149497
89.8414704
89.8374527
89.7885462
89.7842884
89.8511507
89.8770205
89.8040437
89.7383987
89.7986601
89.9233836
89.8970037
89.7111526
89.6952822
89.8956802
89.9807212
89.821429
89.6505226
89.721286
89.9865582
90.002406
89.7139872
89.6078653
89.8091658
90.0799255
89.959573
89.5198012
89.5236831
90.2292493
90.3030957
89.3386118
89.0768172
90.3415329
91.0949743
89.3319245
88.3131801
89.8786672
92.856915
90.1666629
88.0696035
88.4288289
92.8636873
92.9109525
88.1528158
88.1215465
93.0628932
92.6784573
88.9145745
87.9513565
88.9374082
92.8329518
91.4685894
88.1358166
88.6967707
92.8637949
91.5999176
88.1593532
88.4605308
92.8334082
92.6846111
88.5891973
87.8911156
89.0901849
92.8234875
91.0382744
88.1628414
88.7714923
92.758735
92.66165
88.6492359
87.9615414
88.7746022
92.7889022
92.5770724
89.1147611
87.9074791
88.037459
92.5970833
92.4736934
90.8191612
88.1189391
87.8869195
89.4813201
92.8508434
90.4273799
88.1300266
89.1973673
92.8248301
91.3234277
88.0931186
88.5174049
92.9610182
92.1630071
88.1164092
88.1397997
92.9887428
92.7172475
88.8696052
88.009971
89.5139261
92.8366588
90.5832013
88.0526378
88.8886209
92.902583
91.3571103
88.0585802
88.6226136
92.9671822
91.3782541
88.0615796
88.7107264
92.9455964
90.9139232
88.0572401
89.066596
92.8398151
92.1181976
88.1733219
87.9969486
90.8601914
92.5469951
91.3763167
88.0805998
87.9354508
91.0902583
92.5301451
91.3503396
88.0540812
87.9616917
91.6850368
92.4440079
92.4157898
91.7867576
88.4571333
88.1676069
87.8707361
87.8335963
90.8463937
92.5746179
90.8867192
88.0388669
87.9222955
91.5143448
92.463919
91.0095868
88.1034816
88.011663
91.8322835
92.4285909
90.8269379
88.0441574
87.9516795
91.8619936
92.4425883
90.5291049
87.9785601
87.900523
91.9861307
92.4342328
90.4564689
87.9588965
87.898126
92.0374605
92.4363032
90.7177524
87.9909153
87.9662268
92.7191099
92.2895165
92.3070466
90.2988146
88.1841087
87.8289895
87.9162365
93.0276115
92.8398357
)
;

boundaryField
{
    closed
    {
        type            calculated;
        value           nonuniform List<scalar> 0();
    }
    open
    {
        type            calculated;
        value           nonuniform List<scalar> 0();
    }
    sides
    {
        type            empty;
    }
    procBoundary3to2
    {
        type            processor;
        value           uniform 88.0571889;
    }
    procBoundary3to4
    {
        type            processor;
        value           uniform 88.1193173;
    }
}


// ************************************************************************* //
