/*--------------------------------*- C++ -*----------------------------------*\
| =========                 |                                                 |
| \\      /  F ield         | OpenFOAM: The Open Source CFD Toolbox           |
|  \\    /   O peration     | Version:  2306                                  |
|   \\  /    A nd           | Website:  www.openfoam.com                      |
|    \\/     M anipulation  |                                                 |
\*---------------------------------------------------------------------------*/
FoamFile
{
    version     2.0;
    format      ascii;
    arch        "LSB;label=32;scalar=64";
    class       volScalarField;
    location    "0.002";
    object      prefDh_H2;
}
// * * * * * * * * * * * * * * * * * * * * * * * * * * * * * * * * * * * * * //

dimensions      [1 1 -3 0 0 0 0];

internalField   nonuniform List<scalar> 
530
(
18.940225
21.1092045
37.5482171
38.1790067
37.7552577
29.2389982
20.2571874
20.7543811
37.6659135
38.2520835
26.2281444
23.7174001
37.8338647
38.1994328
25.0947258
25.042658
37.8931243
38.1353128
38.0738989
29.4328223
24.2746136
19.1176948
19.3166111
37.9021565
37.8336676
38.1797288
37.9042359
28.9942657
20.1629478
20.7912712
37.8654996
38.2361064
25.8905915
25.1970386
37.9556612
38.1400651
38.0777353
29.4959586
24.4436013
19.0531582
19.3420541
37.7705225
37.6504246
37.8594725
25.7205256
20.6378745
37.1196494
37.8506988
37.1721545
37.9658805
37.5670013
28.590469
19.0820571
20.2292941
37.5195786
37.8800319
29.5735613
20.8127302
20.8438505
37.8446553
37.7932335
29.3229763
18.6927322
20.5274571
37.5655699
38.0313516
37.6938447
29.507196
19.5277601
19.8521658
37.5219399
37.9258032
24.2931941
21.3563188
37.725063
37.8386881
37.9210312
37.9377374
29.3121575
20.7459286
20.7496875
37.8461095
37.7630272
29.4720653
17.4355105
17.856343
37.5718071
38.0070348
23.3275367
20.5982874
37.7736063
37.9833585
37.9541377
38.0188701
29.3642587
24.429917
19.9488412
19.962437
37.7837364
37.9634517
37.9715488
26.3470616
22.8744247
38.0036012
37.9963167
38.0809654
28.6404395
26.4170275
38.1072924
29.3178516
21.7735139
38.078621
38.0461744
38.0242856
29.162189
24.692157
20.9721496
21.0338238
37.9404895
38.0411505
37.9920308
29.3006503
22.8120434
38.2375987
37.8319948
29.0263563
20.8493243
22.6307966
37.9642889
28.4433697
22.1388209
38.0292
37.9718347
37.9360175
29.3139708
20.0432534
20.7121241
37.7967396
38.0353844
26.0203197
26.077738
37.9712033
29.2733373
18.9075867
37.9857583
37.863297
25.3125965
22.0573061
37.7339775
37.9668072
23.9329918
22.3179143
37.6090343
37.988809
21.5375316
21.5576446
37.6880776
37.9328539
37.5318409
37.9136517
37.4032061
30.6043257
25.3170127
24.8705873
18.6292948
18.6282691
37.8972072
37.7741543
37.9401014
26.4566041
26.1509146
37.9812221
29.090064
17.8308549
38.3562346
37.8074583
26.4134632
21.5359106
38.3838251
37.7487894
29.1119778
20.0904704
20.8905615
37.9084069
38.0389015
37.9756961
38.0783879
29.2529353
24.5999449
17.7158191
17.7604272
38.0396027
38.0879951
38.0667047
38.1199311
28.6057129
22.1580143
38.3790892
37.7871164
29.1195282
19.7040732
20.3934109
37.8143821
38.0991192
25.7727444
25.7725377
38.1806266
29.534902
20.030187
38.0670029
37.7885527
37.7139077
29.7537835
15.9095693
17.1545208
37.5597695
37.8951694
37.5758152
38.0143503
28.5412047
25.734261
37.9376037
37.9185039
37.7617685
29.6329306
24.9020351
19.1754479
19.3176575
37.8855444
37.5629332
37.7194432
28.5969818
26.4082247
37.6938552
29.2424644
17.6296086
38.1959664
37.4363669
29.6156107
12.9535357
14.7174098
37.3943464
37.8058483
37.5102661
37.8165968
37.8004524
27.8232008
27.2490519
37.9030107
29.0475995
18.6336762
38.4485877
37.5733876
29.0480676
22.042477
23.6437241
16.5447801
16.7530801
33.0723968
37.8554558
37.5675232
37.8656499
37.3796509
30.6697249
22.6509424
22.7192178
37.9266156
38.1543963
28.3005407
25.6046383
38.192153
38.0294662
29.4245944
25.8623809
25.7513351
19.4248374
19.4898672
38.2148511
37.9653752
37.9971806
27.2887247
26.4680862
38.2184719
29.2796322
20.6043901
38.3786374
38.0035853
38.037172
29.322923
23.5267608
38.3601635
38.2916917
28.6187256
25.8385981
38.4253767
38.3112133
29.1379535
27.758808
26.1777689
25.5482715
18.7373864
18.982638
37.7791042
37.9175055
37.4376141
37.8624772
37.4128995
31.0510826
22.9881358
22.9914128
38.3188366
37.9940521
29.1851744
19.5306567
19.8412231
38.091731
38.2656334
27.4841975
23.2643451
38.1512721
38.1205842
29.7361971
24.5108197
18.2519017
18.3580647
37.765923
37.8979963
37.521045
37.9975307
37.7015012
29.3608567
27.556725
22.0245903
22.1151354
37.7383772
38.1095576
24.5911131
22.9743594
37.6369826
38.1597757
37.5496975
38.2011067
29.4571498
26.9091345
22.3633828
22.4277678
37.9916705
37.9520427
29.5596569
17.578245
18.1709987
37.9206373
37.8130205
37.8334741
28.4073418
26.7311459
37.7283065
29.1264622
17.9542943
38.2073497
37.5214761
29.3427032
15.1885011
16.1169086
37.3191224
38.0529312
37.3520608
38.1622501
37.6851327
29.1301137
26.9188724
21.5090389
21.5953215
37.9792271
37.9161993
37.8916523
29.6103832
23.7972452
38.0300888
37.7311306
29.1898563
21.1037311
21.3715725
37.6324595
38.013082
37.5352051
29.3697349
24.8814596
24.8160747
17.8048775
17.9980576
37.6831833
37.8408949
37.8023612
24.0840831
22.342073
37.8029744
37.9811016
37.8939116
27.4649384
23.7994639
37.7631404
38.1201757
37.6400837
29.1663785
20.6360474
20.7583983
37.8863403
37.8407805
29.3075646
19.3981489
19.6393807
37.5750904
38.0675317
28.206885
21.8099481
37.7437122
37.8547462
29.4673163
17.7835606
18.0772337
37.6731852
37.9127678
37.8540199
29.5406329
23.5052209
37.6702167
38.0567266
28.3538077
24.5616254
37.5976215
38.0442347
29.0808726
24.8039237
37.7259728
37.7830504
29.3086367
22.1973042
22.2888981
37.6746219
37.7226018
29.3018618
20.667791
20.862415
37.3843694
38.0493586
28.2616511
23.3456113
37.4202843
37.9762363
28.183092
22.270651
37.6149804
37.6905597
29.5075569
16.1464408
16.524104
37.1501477
37.9853636
37.3150283
38.1091938
37.7526367
29.3590082
25.3825104
18.4846646
18.5534075
37.324239
37.9270831
37.4814705
38.0613817
37.9513259
29.2869095
26.0961442
21.1835905
21.23602
37.2906179
38.0406416
25.0318063
22.0155461
37.1101177
38.0753231
23.931312
21.9272095
37.0346882
38.0407953
37.3534722
38.0644806
29.470354
25.8924065
21.3582837
21.447902
37.2001032
37.9526889
24.3275326
21.5327986
37.1473633
37.8363742
37.5504967
37.7590803
29.1797779
21.316406
21.4732688
37.3282618
38.1615482
28.0699988
27.5520941
37.4017708
29.241066
23.6825096
37.573948
29.7448826
21.5151948
37.447812
37.8045503
37.7609281
29.3550583
24.790608
21.0318749
21.1177442
37.181718
37.9239318
23.8171634
22.7426969
37.2978336
37.9363559
37.8364296
26.7560358
23.6248752
37.4471148
38.0083958
)
;

boundaryField
{
    closed
    {
        type            calculated;
        value           nonuniform List<scalar> 0();
    }
    open
    {
        type            calculated;
        value           nonuniform List<scalar> 0();
    }
    sides
    {
        type            empty;
    }
    procBoundary2to1
    {
        type            processor;
        value           uniform 29.396902;
    }
    procBoundary2to3
    {
        type            processor;
        value           uniform 37.6723111;
    }
}


// ************************************************************************* //
