/*--------------------------------*- C++ -*----------------------------------*\
| =========                 |                                                 |
| \\      /  F ield         | OpenFOAM: The Open Source CFD Toolbox           |
|  \\    /   O peration     | Version:  2306                                  |
|   \\  /    A nd           | Website:  www.openfoam.com                      |
|    \\/     M anipulation  |                                                 |
\*---------------------------------------------------------------------------*/
FoamFile
{
    version     2.0;
    format      ascii;
    arch        "LSB;label=32;scalar=64";
    class       volScalarField;
    location    "0.00124";
    object      H2O;
}
// * * * * * * * * * * * * * * * * * * * * * * * * * * * * * * * * * * * * * //

dimensions      [0 0 0 0 0 0 0];

internalField   nonuniform List<scalar> 
530
(
0.00732535614
0.0072627945
0.00087157926
0.00105836675
0.00421692313
0.00730984503
0.00725562445
0.000877030202
0.00105942544
0.00417862424
0.00730217733
0.00725292767
0.000878826638
0.00106063333
0.00408613378
0.00727259359
0.00722978131
0.000897139872
0.00108618758
0.00479835986
0.00671366944
0.00754110268
0.00751226704
0.000777110333
0.00103537898
0.000917577886
0.00104522061
0.002258901
0.00732669001
0.00735184559
0.000840504247
0.0010723858
0.00505188083
0.00680689159
0.00743767015
0.00743453142
0.000854560879
0.00103861603
0.00469495097
0.00741007347
0.0074001098
0.000898493929
0.00103710624
0.00453699666
0.00762175171
0.0075436709
0.000782041841
0.00103901071
0.000961284634
0.00106503591
0.00355133142
0.00678286605
0.00756752896
0.00755915435
0.000865640751
0.00105950617
0.00502635888
0.00682544086
0.0074160196
0.00741324048
0.000836949839
0.00105443564
0.00364743087
0.00720216359
0.00719709664
0.000867035991
0.00105965104
0.00386378245
0.00729769546
0.0072956267
0.000889694983
0.00109303494
0.00597351572
0.00637995445
0.000887771218
0.00113581542
0.00347088954
0.00659606061
0.00677764895
0.00749896428
0.0074813504
0.000846667065
0.00109014398
0.00102624238
0.00448736007
0.00751439534
0.00746869713
0.000893379813
0.00105731254
0.00644046505
0.00691460737
0.000908754232
0.00105650321
0.00506278881
0.00758045482
0.00754105798
0.000908342839
0.00104992407
0.00651455027
0.00689740442
0.000920371932
0.00108283727
0.00652991393
0.00685712308
0.000932103172
0.00105946125
0.00514452012
0.00752225868
0.00741365374
0.000919317402
0.00102589618
0.00491202296
0.00752462926
0.00737633761
0.000926859388
0.00102779428
0.00478131447
0.00748926751
0.00731390035
0.000941079699
0.00104669353
0.00645163513
0.00675211532
0.000960752719
0.00106238615
0.00499567652
0.00743283606
0.00722025006
0.000933326531
0.00103135728
0.00484503489
0.00745872365
0.00721115218
0.0009402017
0.00103150156
0.00484959397
0.00744943183
0.00718163825
0.000941795996
0.00103020501
0.00485125439
0.00745323324
0.0071785639
0.000956028882
0.00103960773
0.00655546794
0.00670437576
0.000982195884
0.00105034971
0.00527370689
0.00748670777
0.00719914366
0.000957117309
0.00103425796
0.00660010768
0.00670313682
0.000991182289
0.00105292946
0.00525470007
0.00743633078
0.00713002706
0.000958144659
0.00102513167
0.00511018548
0.00748418365
0.00717469928
0.000975093027
0.00104072627
0.00658855806
0.00668309622
0.00100866535
0.00106035677
0.00520563572
0.00739252955
0.0070955087
0.000975692787
0.00104410359
0.00467755724
0.00735390259
0.00705670482
0.000981081297
0.00105430937
0.00446567138
0.00730352306
0.00701450097
0.00099471175
0.00107889542
0.0046960476
0.00684535216
0.00686026683
0.00746778332
0.00725584582
0.00100070788
0.00104167645
0.00669053764
0.00672990827
0.00103290975
0.00107828909
0.00671001199
0.00673122982
0.00104422228
0.00105208704
0.00560997107
0.00752309472
0.00722058279
0.00100097497
0.00102829515
0.00693429037
0.00701664988
0.00101018219
0.00101441819
0.00710177487
0.00713074846
0.000988672011
0.000986196067
0.00722986816
0.00722754951
0.000975680017
0.000971407312
0.00717425152
0.00708734359
0.000996918062
0.000985635509
0.00701506109
0.00688733597
0.00104459397
0.00100916909
0.00605129062
0.00763084435
0.00712347879
0.0010142627
0.000950652255
0.00695047638
0.00682633574
0.00102885977
0.000950733968
0.0069431499
0.00670565245
0.00105855093
0.00099721604
0.00597134882
0.00754829006
0.00685631067
0.00101982687
0.00090634029
0.00687565523
0.00657582126
0.0010704367
0.00098354341
0.00600253653
0.00750843391
0.00670156306
0.00103552783
0.000975657019
0.00562875808
0.00743963177
0.00661831306
0.00103090612
0.00085503231
0.0068087949
0.00632386862
0.00107692777
0.000984110693
0.00575641252
0.00739095504
0.00633123513
0.00102727121
0.00104146285
0.00447603766
0.00690360729
0.0073291668
0.00646151142
0.00105841079
0.000954251524
0.00587129525
0.00729348421
0.00631296856
0.00106489393
0.000937742699
0.00627480895
0.00737907634
0.00638128101
0.00104599249
0.000801242687
0.00671379091
0.00604651886
0.00109368577
0.000947942283
0.00641322367
0.00727711008
0.00616444465
0.00106477223
0.000949943623
0.00603164368
0.0072746382
0.00611693527
0.00106476725
0.00094736818
0.00612388114
0.00729790271
0.00611683618
0.00106320163
0.000947097199
0.00612428591
0.00733606206
0.00611408567
0.00105761789
0.000964238204
0.00582869322
0.00729445635
0.00609070011
0.00106196396
0.000959387241
0.00603899141
0.00731887616
0.00610789918
0.0010608476
0.000957405043
0.00611149245
0.00739245872
0.00613099519
0.00105769441
0.00100954435
0.00536180967
0.00699716703
0.00696285091
0.00546348948
0.00109692624
0.000993966742
0.00594154675
0.00732403294
0.006200098
0.00106154019
0.000960763403
0.0065037411
0.00728938858
0.00618149164
0.00107564739
0.000965088083
0.00657051347
0.00742120384
0.00646949932
0.00104506555
0.000890932675
0.00679236964
0.00639361458
0.00108875491
0.00100729797
0.00629703637
0.00727329076
0.00642272893
0.00104991196
0.00092888171
0.00672582087
0.00637315534
0.00108468843
0.00106052588
0.00570132651
0.00699238758
0.00692884033
0.00739709163
0.00676010853
0.00101804958
0.000935643418
0.00686895317
0.00662638926
0.00106888132
0.00101658083
0.00653092219
0.00751660454
0.00676052423
0.00101522456
0.00093346357
0.00689648477
0.00682502379
0.00102558288
0.000952109372
0.0069593104
0.00684867847
0.00102139153
0.000952799018
0.00700934798
0.00689967199
0.00101945176
0.000952400899
0.00704486348
0.00693336445
0.00102133711
0.000957827448
0.00705790568
0.00691968136
0.00103097832
0.000971839901
0.00703050554
0.00686882449
0.00105518817
0.00100306875
0.00692729811
0.00770195278
0.00699402677
0.0010167955
0.000938599331
0.00705390386
0.00697065909
0.00104043977
0.000960876947
0.00703117258
0.00685737084
0.00105373385
0.000968363023
0.00699806254
0.00679147119
0.00107222338
0.000998166104
0.0069067251
0.00760487265
0.00686725454
0.0010343969
0.000935313226
0.0070453334
0.00688544846
0.00106632922
0.000946707168
0.00694759009
0.00672520065
0.00108138212
0.000960379825
0.00682069257
0.00651597157
0.00110838178
0.00101938354
0.00667019708
0.00747953888
0.00665628058
0.000838848523
0.00113586823
0.000904257306
0.00658845881
0.00712115442
0.00683131681
0.00691411188
0.00690916943
0.00489089502
0.00110834276
0.000972689597
0.00658259353
0.00617690448
0.0011293453
0.00102508982
0.00653373731
0.00717337462
0.00608385757
0.00107043461
0.00094065976
0.00679225239
0.00632889955
0.00110179542
0.00100485176
0.00685188283
0.00721201029
0.00574835654
0.00107455111
0.000995797641
0.00688473322
0.00722238947
0.00574007152
0.00106571364
0.00098219698
0.00700432729
0.00735994767
0.00609074146
0.00104311509
0.00088529072
0.00689693231
0.00638602277
0.00107184992
0.000966414114
0.00710356699
0.00739167162
0.00582445643
0.00104343569
0.000961719298
0.00714567094
0.00745126133
0.00609466193
0.00103368764
0.0008732259
0.00690000646
0.00637238305
0.00106807437
0.000963661111
0.00712199513
0.00745762237
0.00612560072
0.00103111317
0.000870541388
0.00695123118
0.00660742876
0.0010659378
0.000892344137
0.0067776737
0.00628074614
0.00108073446
0.000990171239
0.00702570916
0.00730460475
0.00559122241
0.00105443583
0.000990159425
0.00702779909
0.00731268262
0.00555382443
0.00105766716
0.00100204178
0.00697834404
0.00727035661
0.00549241586
0.00106151123
0.00100929712
0.0069593147
0.007265898
0.00548213594
0.00106214716
0.00101684929
0.00694592647
0.00726775054
0.00548811331
0.00106009313
0.0010226243
0.00695461705
)
;

boundaryField
{
    closed
    {
        type            calculated;
        value           nonuniform List<scalar> 0();
    }
    open
    {
        type            calculated;
        value           nonuniform List<scalar> 0();
    }
    sides
    {
        type            empty;
    }
    procBoundary2to1
    {
        type            processor;
        value           uniform 0.00428082561;
    }
    procBoundary2to3
    {
        type            processor;
        value           uniform 0.00729349689;
    }
}


// ************************************************************************* //
