/*--------------------------------*- C++ -*----------------------------------*\
| =========                 |                                                 |
| \\      /  F ield         | OpenFOAM: The Open Source CFD Toolbox           |
|  \\    /   O peration     | Version:  2306                                  |
|   \\  /    A nd           | Website:  www.openfoam.com                      |
|    \\/     M anipulation  |                                                 |
\*---------------------------------------------------------------------------*/
FoamFile
{
    version     2.0;
    format      ascii;
    arch        "LSB;label=32;scalar=64";
    class       surfaceScalarField;
    location    "0.00124";
    object      phi;
}
// * * * * * * * * * * * * * * * * * * * * * * * * * * * * * * * * * * * * * //

dimensions      [1 0 -1 0 0 0 0];

oriented        oriented;

internalField   nonuniform List<scalar> 
529
(
1.83487785e-06
1.80511474e-06
1.85267838e-06
1.88692216e-06
1.93382017e-06
1.96788427e-06
1.93937762e-06
1.98886669e-06
2.03206403e-06
2.09366036e-06
2.14176048e-06
2.11330706e-06
2.16352259e-06
2.21572587e-06
2.29560122e-06
2.36128482e-06
2.33521103e-06
2.38475204e-06
2.436977e-06
2.49954004e-06
2.58051192e-06
2.62774681e-06
2.58371424e-06
2.6188573e-06
2.66645996e-06
2.7261643e-06
2.77650099e-06
2.97755902e-06
3.06222098e-06
3.08460447e-06
3.03722944e-06
3.06940683e-06
3.1209321e-06
3.19659122e-06
3.24012685e-06
3.29372802e-06
3.21030252e-06
3.23846131e-06
3.29036053e-06
3.34060805e-06
3.22873842e-06
3.20727602e-06
3.2196441e-06
3.26843712e-06
3.2879606e-06
3.16539113e-06
3.13673673e-06
3.12443067e-06
3.12361678e-06
3.10769446e-06
3.14953368e-06
3.1813239e-06
3.14199825e-06
3.14848348e-06
2.98772328e-06
2.94863291e-06
2.91473926e-06
2.88507104e-06
2.81843583e-06
2.78739405e-06
2.64462098e-06
2.5800276e-06
2.55154898e-06
2.47976975e-06
2.40940062e-06
2.27377735e-06
2.19051334e-06
2.12845997e-06
2.04857959e-06
1.94128462e-06
1.84023321e-06
1.73093904e-06
1.62499932e-06
1.52338976e-06
1.44413184e-06
1.33109478e-06
1.23050209e-06
1.09947862e-06
9.49931141e-07
7.99136431e-07
6.77724911e-07
5.97322374e-07
4.69023552e-07
3.32442011e-07
1.9064769e-07
1.06490729e-08
-7.26146934e-08
-1.22537163e-07
-2.28471871e-07
-4.13189529e-07
-4.90205271e-07
-4.98972953e-07
-6.15254148e-07
-7.70898738e-07
-9.11946341e-07
-9.20071e-07
-9.40314871e-07
-1.06449547e-06
-1.36779996e-06
-1.4219011e-06
-1.39464029e-06
-1.51242237e-06
-1.81136336e-06
-1.76515669e-06
-1.77488212e-06
-1.87301577e-06
-2.00629556e-06
-2.0985501e-06
-1.92750417e-06
-1.93519091e-06
-2.00859095e-06
-2.13303922e-06
-2.21088524e-06
-2.0082157e-06
-1.99173515e-06
-2.02435959e-06
-2.11484087e-06
-2.15404478e-06
-1.94325479e-06
-1.93583555e-06
-1.98018313e-06
-2.2276305e-06
-2.11764777e-06
-2.09199007e-06
-2.12131223e-06
-2.19433255e-06
-2.21597401e-06
-1.99952678e-06
-1.96689109e-06
-1.98181665e-06
-2.06621212e-06
-2.10626978e-06
-1.91059938e-06
-1.88863523e-06
-1.90445217e-06
-1.98846469e-06
-2.02953195e-06
-1.84422387e-06
-1.822592e-06
-1.83414178e-06
-1.91590102e-06
-1.94950834e-06
-1.76759443e-06
-1.75722856e-06
-1.76539121e-06
-1.96104249e-06
-1.86335495e-06
-1.83671314e-06
-1.84532275e-06
-1.90530798e-06
-1.92085315e-06
-1.73401863e-06
-1.72188366e-06
-1.72375094e-06
-1.90579927e-06
-1.81004855e-06
-1.78641562e-06
-1.7907814e-06
-1.84463641e-06
-1.85841217e-06
-1.68178591e-06
-1.65473279e-06
-1.64836354e-06
-1.70383182e-06
-1.71505931e-06
-1.53785401e-06
-1.51980731e-06
-1.50627344e-06
-1.65240026e-06
-1.55624074e-06
-1.52190021e-06
-1.50476528e-06
-1.53348218e-06
-1.52385181e-06
-1.35655011e-06
-1.31980996e-06
-1.29431342e-06
-1.33465637e-06
-1.33671558e-06
-1.19316746e-06
-1.1615569e-06
-1.13689252e-06
-1.17724051e-06
-1.17669829e-06
-1.04599095e-06
-1.01876528e-06
-9.98961254e-07
-1.02504888e-06
-1.04355511e-06
-1.03998665e-06
-1.00926392e-06
-8.99244536e-07
-8.8798361e-07
-8.98329295e-07
-9.68786308e-07
-9.31249772e-07
-9.34966334e-07
-9.48558407e-07
-1.06097851e-06
-1.0302725e-06
-1.05121069e-06
-1.08263618e-06
-1.154725e-06
-1.20026343e-06
-1.12433899e-06
-1.18748806e-06
-1.30118803e-06
-1.44246781e-06
-1.44242503e-06
-1.53751361e-06
-1.70348517e-06
-1.87795652e-06
-1.88673583e-06
-2.01974015e-06
-2.25308411e-06
-2.46786304e-06
-2.46609183e-06
-2.63681527e-06
-2.93943159e-06
-3.19280769e-06
-3.17832619e-06
-3.38722324e-06
-3.76021105e-06
-4.03547497e-06
-3.98847665e-06
-4.23021458e-06
-4.54650227e-06
-4.84867162e-06
-5.09195736e-06
-4.89286284e-06
-5.15806947e-06
-5.64194013e-06
-5.95234699e-06
-5.81692703e-06
-6.07678897e-06
-6.58142412e-06
-6.85003533e-06
-6.61841586e-06
-6.8526407e-06
-7.17842979e-06
-7.46155e-06
-7.61901789e-06
-7.19520488e-06
-7.38256811e-06
-7.80384839e-06
-7.9629944e-06
-7.57813779e-06
-7.69270393e-06
-7.8782219e-06
-8.01091648e-06
-7.99416626e-06
-7.39551763e-06
-7.42438168e-06
-7.5003186e-06
-7.59988706e-06
-7.53510552e-06
-6.97887527e-06
-6.95391042e-06
-7.03504565e-06
-6.95436885e-06
-6.79020645e-06
-6.67950657e-06
-6.59598755e-06
-6.53005404e-06
-6.32831814e-06
-6.12948027e-06
-6.00064077e-06
-5.89377612e-06
-5.919263e-06
-6.02206734e-06
-5.85083956e-06
-5.73054393e-06
-5.67430958e-06
-5.62681913e-06
-5.60974793e-06
-5.48789465e-06
-5.34045108e-06
-5.25377757e-06
-5.16080953e-06
-5.10647284e-06
-5.02073902e-06
-4.90447558e-06
-4.87373206e-06
-4.82554763e-06
-4.80043001e-06
-4.70814322e-06
-4.68417064e-06
-4.64562083e-06
-4.61655041e-06
-4.53726663e-06
-4.42681901e-06
-4.36582141e-06
-4.26792647e-06
-4.21519293e-06
-4.10783482e-06
-3.9763939e-06
-3.89754471e-06
-3.77832546e-06
-3.7134933e-06
-3.61260719e-06
-3.49257464e-06
-3.4245697e-06
-3.31033437e-06
-3.25822109e-06
-3.17365477e-06
-3.06870737e-06
-3.00565244e-06
-2.89508942e-06
-2.85507556e-06
-2.77511684e-06
-2.67531747e-06
-2.61010779e-06
-2.48490315e-06
-2.42198938e-06
-2.32838936e-06
-2.21034787e-06
-2.11864758e-06
-1.95883747e-06
-1.86450587e-06
-1.74448107e-06
-1.60112497e-06
-1.48649747e-06
-1.31848129e-06
-1.21996447e-06
-1.08914084e-06
-9.19298286e-07
-7.83840989e-07
-6.46786874e-07
-4.52316813e-07
-3.2404998e-07
-1.99109428e-07
-5.86360017e-08
5.95212725e-08
2.71269375e-07
3.81433611e-07
4.84260223e-07
5.99935599e-07
6.81999992e-07
8.81459969e-07
1.00283856e-06
1.09383255e-06
1.19361169e-06
1.24909265e-06
1.49461474e-06
1.60307512e-06
1.67751987e-06
1.70337892e-06
1.85467575e-06
1.91350299e-06
1.97462064e-06
2.01788282e-06
2.02233582e-06
2.13974881e-06
2.30047666e-06
2.30415724e-06
2.27280081e-06
2.35825697e-06
2.37578598e-06
2.38647982e-06
2.41136349e-06
2.44018502e-06
2.23051094e-06
2.1688702e-06
2.18422088e-06
2.31112575e-06
2.07570879e-06
2.0030609e-06
2.02349819e-06
2.04347303e-06
2.01748988e-06
1.80647803e-06
1.73154219e-06
1.72465285e-06
1.75495875e-06
1.57781505e-06
1.46402094e-06
1.41999697e-06
1.41794928e-06
1.23012718e-06
1.11794691e-06
1.05422466e-06
1.00605309e-06
8.03787708e-07
6.94824662e-07
6.1005448e-07
5.07340302e-07
2.95748854e-07
2.00737685e-07
1.00482683e-07
-5.46387038e-08
-2.5521557e-07
-3.40297406e-07
-4.66625178e-07
-6.13938878e-07
-7.40538777e-07
-8.30217612e-07
-9.64626173e-07
-1.15162106e-06
-1.24424934e-06
-1.26717465e-06
-1.3397475e-06
-1.47950473e-06
-1.60203753e-06
-1.62681315e-06
-1.67930742e-06
-1.82342593e-06
-1.91012982e-06
-1.88850073e-06
-1.92827286e-06
-2.05720402e-06
-2.11482616e-06
-2.05600933e-06
-2.08800856e-06
-2.16639709e-06
-2.33865175e-06
-2.35108691e-06
-2.22723653e-06
-2.24741073e-06
-2.34675823e-06
-2.39218468e-06
-2.31068914e-06
-2.32899693e-06
-2.41878895e-06
-2.44419656e-06
-2.35943883e-06
-2.36817737e-06
-2.44179087e-06
-2.45038433e-06
-2.35653187e-06
-2.36564938e-06
-2.40581043e-06
-2.55506275e-06
-2.60054161e-06
-2.49403488e-06
-2.37448156e-06
-2.37496545e-06
-2.37745643e-06
-2.50557788e-06
-2.53570422e-06
-2.5303275e-06
-2.51542143e-06
-2.46527511e-06
-2.42934073e-06
-2.42394628e-06
-2.45751362e-06
-2.45911335e-06
-2.43920971e-06
-2.43817325e-06
-2.44724927e-06
-2.4467261e-06
-2.42360473e-06
-2.39608208e-06
-2.38969998e-06
-2.39786478e-06
-2.39361838e-06
-2.36235186e-06
-2.35274571e-06
-2.34078155e-06
-2.42247514e-06
-2.37752716e-06
-2.3273655e-06
-2.30378979e-06
-2.27393547e-06
-2.34837858e-06
-2.30259805e-06
-2.25067999e-06
-2.2255357e-06
-2.19006033e-06
-2.2619509e-06
-2.22443148e-06
-2.17595601e-06
-2.14700123e-06
-2.08871522e-06
-2.07770409e-06
-2.02587174e-06
-2.00150627e-06
-1.9557576e-06
-2.0025265e-06
-1.96755103e-06
-1.92028971e-06
-1.89193549e-06
-1.83605929e-06
-1.87946183e-06
-1.83953648e-06
-1.78249379e-06
-1.73842343e-06
-1.63789863e-06
-1.61253662e-06
-1.54033658e-06
-1.48967581e-06
-1.40101593e-06
-1.38988268e-06
-1.33252239e-06
-1.25616689e-06
-1.18733628e-06
-1.03855014e-06
-9.93702884e-07
-9.98807665e-07
-9.24426213e-07
-7.73930685e-07
-7.24316426e-07
-6.41742501e-07
-5.71778462e-07
-4.55290218e-07
-3.8148505e-07
-3.2401875e-07
-2.58118772e-07
-1.89998137e-07
-6.85603463e-08
1.50866045e-08
6.81819788e-08
1.28625086e-07
1.88355728e-07
3.00752623e-07
4.09274112e-07
4.58937891e-07
5.0275698e-07
5.49650911e-07
6.43703198e-07
7.72161328e-07
8.15507991e-07
8.44770865e-07
8.7948299e-07
9.6091993e-07
1.11377069e-06
1.15766789e-06
1.17932244e-06
1.20733828e-06
1.27858119e-06
)
;

boundaryField
{
    closed
    {
        type            calculated;
        value           nonuniform List<scalar> 0();
    }
    open
    {
        type            calculated;
        value           nonuniform List<scalar> 0();
    }
    sides
    {
        type            empty;
        value           nonuniform List<scalar> 0();
    }
    procBoundary2to1
    {
        type            processor;
        value           uniform -1.81379978e-06;
    }
    procBoundary2to3
    {
        type            processor;
        value           uniform 1.45856735e-06;
    }
}


// ************************************************************************* //
