/*--------------------------------*- C++ -*----------------------------------*\
| =========                 |                                                 |
| \\      /  F ield         | OpenFOAM: The Open Source CFD Toolbox           |
|  \\    /   O peration     | Version:  2306                                  |
|   \\  /    A nd           | Website:  www.openfoam.com                      |
|    \\/     M anipulation  |                                                 |
\*---------------------------------------------------------------------------*/
FoamFile
{
    version     2.0;
    format      ascii;
    arch        "LSB;label=32;scalar=64";
    class       volScalarField;
    location    "0.00124";
    object      prefDh_H2;
}
// * * * * * * * * * * * * * * * * * * * * * * * * * * * * * * * * * * * * * //

dimensions      [1 1 -3 0 0 0 0];

internalField   nonuniform List<scalar> 
530
(
23.3735436
23.8188082
38.2883801
38.0170162
29.5795223
23.4844783
23.8698359
38.2972899
38.0229136
29.611623
23.5392845
23.8892808
38.3280452
38.0048275
29.6617076
23.7501617
24.0505881
38.2948133
38.3645844
29.340305
27.6569683
21.8102525
22.0427722
37.4768618
38.045202
37.1282044
37.9176611
32.5886277
23.3647647
23.1849327
37.9239161
38.2426086
29.2215688
27.0176282
22.5702555
22.5972446
37.8998947
37.9870892
29.2656444
22.7681767
22.8391796
38.2083662
37.829525
29.3195118
21.2292315
21.8180662
37.5454932
38.2763964
37.5299876
38.3812139
30.3826035
27.1567982
21.6358313
21.7144253
37.988922
38.3610131
29.1418988
26.8860384
22.7259845
22.7486707
37.7034824
37.977164
30.1887475
24.2498978
24.2870502
37.9875375
38.0146743
29.8647595
23.5709191
23.5830289
38.2149822
38.6673983
29.2565573
29.011335
37.9687991
38.6038446
30.4072059
28.4587673
27.2354694
22.1331514
22.2635323
37.8854291
38.2853552
37.5820142
29.2212079
22.009476
22.3591214
38.2371597
38.5276377
29.5659145
26.2577922
38.4463891
38.1972386
28.93063
21.5504529
21.8472177
38.4172181
38.5740604
29.0738812
26.3561492
38.4588497
38.5680936
28.9606235
26.6495973
38.6463858
38.1490071
29.0326499
21.9689881
22.7472221
38.5376897
37.8949854
29.1260525
21.9479575
23.0119905
38.5553362
37.7955583
29.1017736
22.1992803
23.4532952
38.499681
38.1345306
29.5069987
27.3891371
38.7238742
37.9454851
29.0654843
22.6074313
24.1162212
38.6428246
37.7975922
29.1136934
22.4197859
24.1810636
38.6017842
37.7650121
29.1262323
22.4868024
24.3892374
38.6671973
37.7526552
29.0269642
22.458901
24.4011818
38.6012426
38.1150396
28.7812439
27.7132659
38.9319181
37.9339823
28.8371798
22.222823
24.2515276
38.6735751
38.2021874
28.4698393
27.7151006
38.9193125
37.9906472
28.9260285
22.5846055
24.7457219
38.8394236
37.8519958
28.8632345
22.2395726
24.423596
38.6682344
38.2097648
28.5407737
27.8572794
38.9868374
38.012841
28.8991121
22.8966863
24.9884585
38.7852533
37.8840107
29.1209568
23.1709608
25.2656211
38.73063
37.8721191
29.2509305
23.5295017
25.5592962
38.8445395
37.9739741
29.0696384
26.7702205
26.6386545
22.3583444
23.8595821
38.6022552
38.2599318
27.835046
27.5257623
38.8236466
38.337061
27.6788
27.5352059
39.0763908
37.9802458
28.7695377
21.9597935
24.1038334
38.4503281
38.3047961
26.1422875
25.5376981
38.567827
38.1495154
24.9588449
24.7382283
38.5543896
38.0676068
24.0532718
24.0601037
38.5712719
37.944343
24.4467209
25.0462377
38.6534066
37.7706078
25.5571338
26.4567732
38.9651269
37.7405041
28.8954157
21.184125
24.7782911
38.4437318
37.6129581
26.0130747
26.8596052
38.7755094
37.3497105
26.0447605
27.7017623
39.0688095
37.6287282
28.717698
21.7840855
26.6100012
38.6126931
37.0166617
26.5156329
28.5857392
39.011678
37.5193705
28.7735506
22.0740094
27.6688609
38.9630519
37.5058351
28.5297676
22.561487
28.2205405
38.6404851
36.5164775
26.9674309
29.2016955
39.0801012
37.3219038
28.4572534
22.907863
28.4292501
38.7092177
37.8976966
29.1036615
26.3416361
23.3460044
28.7151766
38.7973974
37.5192762
28.6615768
23.5981228
28.7009644
38.9443735
37.3686624
28.6524727
22.9928081
28.6082416
38.6910947
36.545491
27.5998881
29.1251373
39.1159536
37.4095578
28.7763256
23.7142068
28.5859201
38.925047
37.5701411
28.60162
23.7322343
28.6237394
38.9034046
37.553547
28.6584926
23.5682555
28.642746
38.8912781
37.5736681
28.6589882
23.2981728
28.631515
38.8977409
37.6943138
28.5231007
23.5926575
28.681915
38.9018515
37.6792698
28.6377855
23.4200979
28.7287262
38.9095842
37.7179491
28.5618674
22.897317
28.4739432
38.8247396
38.2517071
28.6694817
25.6765459
25.9024038
28.8500151
38.7936279
38.0268514
28.611004
23.3822997
28.7264324
38.9402483
38.1450722
28.9993483
23.6294037
28.9362102
38.7032732
38.0592172
28.5907957
22.6891797
29.088838
38.4617684
38.127449
27.0769337
29.7391112
38.9397428
38.0838836
28.755035
23.7451075
29.1119765
38.3642217
38.3972102
27.5359957
29.6872038
38.8055871
38.2303234
28.6672066
25.7368763
26.1439186
22.8643859
27.3424895
38.3069627
38.3903983
26.5512668
28.3318796
38.6262843
38.1960458
28.8531759
21.9989224
27.3197415
38.0452785
38.4859989
26.3757935
26.9284571
38.1965735
38.3700496
25.9311202
26.7631002
38.2696424
38.4144616
25.5818991
26.4008511
38.2978414
38.4318396
25.3340069
26.1616681
38.3679989
38.4495295
25.2404153
26.2580519
38.5214785
38.4555375
25.426012
26.6102155
38.5647151
38.3240078
26.1507216
20.6719132
25.6970195
38.1701854
38.5127225
25.2776444
25.8886361
38.4884741
38.2935061
25.4267172
26.6868084
38.6801029
38.2454548
25.6484746
27.1373644
38.7203548
38.2291687
26.2901222
21.3780213
26.5609247
38.348365
38.3294014
25.3317713
26.4690273
38.7187251
38.1067483
25.9955516
27.582347
38.8751224
38.1280759
26.8557853
29.0308531
39.0144949
37.8522663
27.8801626
22.2458619
27.9282035
37.3707939
38.78245
37.0079946
28.4772986
24.8298137
26.8013197
26.2597705
26.2569014
28.9171842
38.8136108
38.1880097
28.4864232
29.0279567
39.036106
38.1964534
28.7417509
24.4438036
28.5428528
38.6700753
38.2190578
27.0704109
29.0019754
38.8035306
38.1816519
26.6658084
24.1725304
28.6728518
38.5337068
38.2682608
26.4566465
24.098573
28.7841695
38.5217051
38.1001086
25.6244895
23.1287505
28.8449757
38.5563219
37.8443581
26.3615595
29.2053848
38.6676403
37.9257794
24.927414
22.9028111
28.7834031
38.3568758
38.0483101
24.6414254
22.4788354
28.939529
38.4874479
37.8428028
26.349328
29.3409469
38.562667
37.819576
24.8045055
22.4288683
28.9850772
38.3755857
37.9089098
25.9962589
28.3965392
38.692425
37.9066255
27.1835227
29.439966
38.7069231
37.9959811
25.4680139
23.5218262
28.7456381
38.3828683
38.4307629
25.4646432
23.4632585
28.8122451
38.4660812
38.4811865
25.80654
23.7622373
28.7963869
38.4642329
38.5611556
25.9366993
23.793297
28.7841593
38.4567067
38.6396614
26.0269508
23.7798142
28.7692756
38.4342098
38.7110463
25.9635111
)
;

boundaryField
{
    closed
    {
        type            calculated;
        value           nonuniform List<scalar> 0();
    }
    open
    {
        type            calculated;
        value           nonuniform List<scalar> 0();
    }
    sides
    {
        type            empty;
    }
    procBoundary2to1
    {
        type            processor;
        value           uniform 29.5322615;
    }
    procBoundary2to3
    {
        type            processor;
        value           uniform 23.5978716;
    }
}


// ************************************************************************* //
