/*--------------------------------*- C++ -*----------------------------------*\
| =========                 |                                                 |
| \\      /  F ield         | OpenFOAM: The Open Source CFD Toolbox           |
|  \\    /   O peration     | Version:  2306                                  |
|   \\  /    A nd           | Website:  www.openfoam.com                      |
|    \\/     M anipulation  |                                                 |
\*---------------------------------------------------------------------------*/
FoamFile
{
    version     2.0;
    format      ascii;
    arch        "LSB;label=32;scalar=64";
    class       volScalarField;
    location    "0.00124";
    object      Z;
}
// * * * * * * * * * * * * * * * * * * * * * * * * * * * * * * * * * * * * * //

dimensions      [0 0 0 0 0 0 0];

internalField   nonuniform List<scalar> 
530
(
0.0148325195
0.0148199539
0.0141007036
0.014084284
0.0144364226
0.0148298438
0.0148191163
0.0140999215
0.0140840417
0.0144325304
0.0148281325
0.0148191776
0.0140991313
0.0140842497
0.0144229354
0.014823896
0.0148129141
0.0140977026
0.0140741984
0.0144993215
0.0147346285
0.014869033
0.0148556102
0.0141269661
0.0140864841
0.0141184732
0.0140878047
0.0142598965
0.0148303477
0.0148352066
0.0141112129
0.0140782164
0.0145271221
0.0147500569
0.0148483903
0.0148445182
0.014110123
0.0140872327
0.0144866244
0.0148441941
0.0148430086
0.0140992096
0.0140905072
0.0144693545
0.0148796304
0.0148602819
0.0141250661
0.0140815751
0.0141053495
0.0140764421
0.0143719681
0.0147415033
0.0148678575
0.014859276
0.0141071511
0.014077495
0.014523167
0.0147523657
0.0148447707
0.0148417819
0.0141159347
0.0140855351
0.0143807061
0.0148120782
0.0148124539
0.0141070222
0.0140841754
0.0144009245
0.0148248904
0.0148202244
0.0141000762
0.0140676151
0.0146359784
0.0146807801
0.0141050616
0.0140635471
0.0143642218
0.0147153546
0.0147483702
0.0148561008
0.0148511219
0.0141112825
0.0140752378
0.0140967134
0.0144627328
0.0148633494
0.014844423
0.0140992339
0.0140745838
0.0146964748
0.014764257
0.0140934933
0.0140810066
0.014524733
0.014867204
0.014854145
0.0140940949
0.0140745922
0.0147102298
0.0147572332
0.0140919333
0.0140707312
0.0147115986
0.0147539542
0.0140870468
0.0140815846
0.0145354689
0.0148582125
0.0148399336
0.0140905593
0.0140905504
0.0145097927
0.0148603148
0.0148355649
0.0140893638
0.0140922844
0.0144945481
0.0148563015
0.0148219538
0.0140887855
0.0140833969
0.014700447
0.0147401817
0.0140822887
0.0140852006
0.0145186751
0.0148458875
0.0148102845
0.0140869734
0.0140918213
0.0145019632
0.0148511929
0.0148093887
0.0140869562
0.0140924485
0.0145026349
0.0148495905
0.0148050611
0.0140855419
0.0140928472
0.0145016384
0.0148505339
0.0147999959
0.0140851404
0.0140846217
0.0147151115
0.0147319488
0.0140759179
0.0140868709
0.014547946
0.0148533415
0.0148006822
0.0140836532
0.0140835721
0.014721543
0.0147307153
0.0140750987
0.014085452
0.0145468887
0.014844606
0.0147946033
0.0140804341
0.0140914867
0.0145293533
0.0148536873
0.014797591
0.0140816652
0.0140826544
0.0147184713
0.0147282799
0.0140717916
0.0140841264
0.0145408471
0.0148381219
0.0147898063
0.0140794037
0.0140885995
0.014482994
0.0148341004
0.0147857897
0.0140797959
0.0140876123
0.0144606305
0.0148256672
0.0147789461
0.0140760727
0.0140826492
0.0144845
0.0147602878
0.0147566039
0.0148504827
0.0148115597
0.0140799073
0.0140815737
0.0147340351
0.0147340434
0.0140719413
0.0140756851
0.0147335146
0.0147372562
0.0140659131
0.0140857564
0.0145862895
0.014859749
0.014804799
0.0140827548
0.0140823057
0.0147727063
0.0147774596
0.0140794405
0.0140869442
0.0147963687
0.0147938024
0.0140822248
0.0140918496
0.0148161337
0.0148084406
0.0140834238
0.0140959766
0.0148072144
0.0147887954
0.0140793894
0.0140977371
0.0147795287
0.0147621268
0.0140679189
0.0140955746
0.0146400687
0.0148757405
0.0147891413
0.0140813129
0.0141049182
0.0147709857
0.0147486728
0.0140733221
0.0141101902
0.0147653297
0.0147317211
0.0140643314
0.0140991992
0.0146281
0.0148613571
0.0147457304
0.0140774519
0.0141220281
0.0147556861
0.0147106626
0.0140639481
0.0141029813
0.0146325723
0.0148527724
0.0147222204
0.0140690413
0.0141041695
0.0145852423
0.0148447077
0.0147076201
0.0140756116
0.0141381479
0.014743666
0.0146768728
0.0140619024
0.0141068945
0.0145991954
0.014837943
0.0146665554
0.0140747523
0.0140886456
0.0144602317
0.0147642207
0.0148248594
0.014686165
0.0140693757
0.0141063748
0.0146155145
0.014819878
0.0146683104
0.0140658616
0.0141112964
0.0146630837
0.0148352
0.0146750769
0.0140728578
0.0141434098
0.0147261133
0.0146427743
0.0140592046
0.0141093035
0.0146813144
0.0148180079
0.0146490569
0.0140662343
0.0141058535
0.0146335834
0.0148182346
0.0146439757
0.0140666362
0.014106481
0.0146452919
0.0148223148
0.0146442343
0.0140670502
0.0141061103
0.0146453469
0.0148285506
0.0146437493
0.0140676032
0.0141017337
0.0146085819
0.0148218306
0.0146416997
0.0140670033
0.0141025929
0.014634962
0.0148262845
0.0146444006
0.0140669944
0.0141020547
0.0146424529
0.0148378971
0.0146435086
0.0140689519
0.0140855468
0.0145559943
0.0147753125
0.0147670566
0.0145702254
0.014064773
0.0140917336
0.0146230861
0.0148241682
0.0146552891
0.0140663426
0.0140933053
0.0146953544
0.0148225306
0.0146560931
0.0140690556
0.0140944693
0.0147058657
0.0148452985
0.0146925853
0.0140773048
0.0141016249
0.0147405606
0.0146930808
0.0140630528
0.0140890574
0.0146672004
0.0148236052
0.0146873474
0.014078586
0.0140921334
0.0147306632
0.0146898675
0.0140660423
0.0140798841
0.0145956099
0.014782475
0.014763133
0.0148385137
0.0147429259
0.0140834795
0.0140914883
0.0147526184
0.0147327672
0.0140713233
0.0140857888
0.0146989299
0.0148617719
0.0147395598
0.0140888733
0.0140899198
0.0147597787
0.0147608606
0.0140847119
0.0140899811
0.014767451
0.0147647272
0.0140838007
0.0140890542
0.0147746425
0.0147716667
0.0140834886
0.0140887692
0.0147797896
0.0147763125
0.0140819206
0.0140878052
0.0147809844
0.0147741988
0.0140778521
0.0140860647
0.0147756172
0.0147649476
0.0140741369
0.0140849211
0.0147620765
0.0148859077
0.0147744715
0.0140862632
0.0140888235
0.014783033
0.0147787845
0.0140773501
0.0140904324
0.0147770604
0.0147622982
0.0140721355
0.0140904874
0.0147701529
0.0147501264
0.0140691498
0.0140873203
0.0147583404
0.0148698066
0.014751977
0.0140807441
0.0140926915
0.0147801425
0.0147616386
0.014069893
0.01409567
0.0147621013
0.0147372407
0.0140651491
0.0140936786
0.014740572
0.0147059948
0.0140592697
0.0140921619
0.014717102
0.0148635058
0.0147091548
0.0141223557
0.0140601831
0.0141224409
0.0147097447
0.0148037496
0.0147452237
0.0147638522
0.0147555636
0.0145048507
0.0140630009
0.0140910917
0.0147049936
0.0146568673
0.0140562849
0.0140847728
0.0146951473
0.0148019966
0.0146389183
0.0140703107
0.0140941959
0.0147393526
0.014674566
0.0140639922
0.014087451
0.0147494269
0.0148079647
0.0146012089
0.0140723879
0.0140868459
0.0147578521
0.014808957
0.014601767
0.0140736841
0.0140916854
0.0147758358
0.0148313224
0.0146440245
0.0140757435
0.0141077754
0.0147575848
0.0146843372
0.0140701853
0.0140969193
0.0147894394
0.0148379658
0.0146116911
0.0140795021
0.0140950716
0.0147992067
0.014846211
0.0146458376
0.0140781753
0.0141091592
0.014759892
0.0146846935
0.0140726228
0.0140993243
0.0147943523
0.0148503402
0.0146501594
0.0140806142
0.0141081645
0.0147682935
0.0147193368
0.014070434
0.0141057609
0.0147392084
0.0146752019
0.0140683699
0.0140927802
0.0147770891
0.0148258638
0.0145837689
0.0140776864
0.0140843972
0.0147804598
0.0148237565
0.0145802883
0.0140757106
0.0140820425
0.0147721663
0.0148173618
0.0145728903
0.014075283
0.0140796712
0.0147687399
0.0148163172
0.0145715257
0.0140753496
0.0140772965
0.0147660758
0.0148162217
0.0145720253
0.0140760257
0.0140752701
0.0147666982
)
;

boundaryField
{
    closed
    {
        type            zeroGradient;
    }
    open
    {
        type            zeroGradient;
    }
    sides
    {
        type            empty;
    }
    procBoundary2to1
    {
        type            processor;
        value           uniform 0.0144429993;
    }
    procBoundary2to3
    {
        type            processor;
        value           uniform 0.0148197016;
    }
}


// ************************************************************************* //
