/*--------------------------------*- C++ -*----------------------------------*\
| =========                 |                                                 |
| \\      /  F ield         | OpenFOAM: The Open Source CFD Toolbox           |
|  \\    /   O peration     | Version:  2306                                  |
|   \\  /    A nd           | Website:  www.openfoam.com                      |
|    \\/     M anipulation  |                                                 |
\*---------------------------------------------------------------------------*/
FoamFile
{
    version     2.0;
    format      ascii;
    arch        "LSB;label=32;scalar=64";
    class       volScalarField;
    location    "0.00172";
    object      prefDPV_H2O;
}
// * * * * * * * * * * * * * * * * * * * * * * * * * * * * * * * * * * * * * //

dimensions      [1 -1 -1 0 0 0 0];

internalField   nonuniform List<scalar> 
531
(
-3.84257602e-07
-3.67537838e-07
-3.63951577e-07
-3.64435951e-07
-3.84750972e-07
-3.83723384e-07
-3.84069225e-07
-3.71609202e-07
-3.6509246e-07
-3.65337781e-07
-3.63836426e-07
-3.63734902e-07
-3.85100864e-07
-3.84170731e-07
-3.65012662e-07
-3.64848572e-07
-3.85357728e-07
-3.83736752e-07
-3.84507513e-07
-3.67667647e-07
-3.63341506e-07
-3.64100081e-07
-3.85038343e-07
-3.83910892e-07
-3.84322117e-07
-3.66536031e-07
-3.6419419e-07
-3.6323153e-07
-3.6321868e-07
-3.85586799e-07
-3.84467733e-07
-3.63757227e-07
-3.63250969e-07
-3.85727147e-07
-3.84372911e-07
-3.84635587e-07
-3.8423117e-07
-3.6638209e-07
-3.64769979e-07
-3.84651824e-07
-3.84072782e-07
-3.66715625e-07
-3.65143895e-07
-3.64111837e-07
-3.6417256e-07
-3.85176467e-07
-3.8384035e-07
-3.84567367e-07
-3.67435312e-07
-3.64703208e-07
-3.84715804e-07
-3.83900544e-07
-3.65905545e-07
-3.65891346e-07
-3.84971253e-07
-3.67161752e-07
-3.64551139e-07
-3.84988763e-07
-3.83707511e-07
-3.84189213e-07
-3.69301795e-07
-3.649868e-07
-3.64490391e-07
-3.6448475e-07
-3.85072732e-07
-3.83747495e-07
-3.84172489e-07
-3.67564545e-07
-3.64411634e-07
-3.64376227e-07
-3.84547004e-07
-3.84235907e-07
-3.692105e-07
-3.640017e-07
-3.65131519e-07
-3.84963798e-07
-3.6829136e-07
-3.63567769e-07
-3.84656752e-07
-3.84505643e-07
-3.66359883e-07
-3.63230292e-07
-3.63128856e-07
-3.84946538e-07
-3.84305587e-07
-3.84084955e-07
-3.84226106e-07
-3.69279545e-07
-3.64086963e-07
-3.64544299e-07
-3.84683266e-07
-3.83735648e-07
-3.838933e-07
-3.67090864e-07
-3.64736794e-07
-3.64676033e-07
-3.84604134e-07
-3.84194331e-07
-3.68712416e-07
-3.6404242e-07
-3.65193221e-07
-3.84959592e-07
-3.6840056e-07
-3.63717114e-07
-3.84649635e-07
-3.84484578e-07
-3.66650514e-07
-3.6364366e-07
-3.63829406e-07
-3.84977861e-07
-3.84057082e-07
-3.84131896e-07
-3.65993529e-07
-3.64336808e-07
-3.6283575e-07
-3.62808734e-07
-3.85903153e-07
-3.84580694e-07
-3.85018549e-07
-3.8443617e-07
-3.64618772e-07
-3.63900662e-07
-3.8586989e-07
-3.84181354e-07
-3.84959789e-07
-3.83966006e-07
-3.84196288e-07
-3.66055103e-07
-3.63407332e-07
-3.63299163e-07
-3.85320474e-07
-3.84735175e-07
-3.65956836e-07
-3.61732776e-07
-3.62324102e-07
-3.85574766e-07
-3.84442319e-07
-3.84761339e-07
-3.65138941e-07
-3.63220316e-07
-3.85581926e-07
-3.84542066e-07
-3.84503086e-07
-3.84427685e-07
-3.66595142e-07
-3.64485478e-07
-3.63472628e-07
-3.63528808e-07
-3.85678779e-07
-3.8424819e-07
-3.84799356e-07
-3.65931409e-07
-3.61545132e-07
-3.62101632e-07
-3.85683247e-07
-3.84566523e-07
-3.8494558e-07
-3.84227398e-07
-3.84317377e-07
-3.65843754e-07
-3.64058956e-07
-3.62642795e-07
-3.62676321e-07
-3.85867166e-07
-3.84440804e-07
-3.85063109e-07
-3.84045501e-07
-3.84476464e-07
-3.66577963e-07
-3.64270667e-07
-3.63480944e-07
-3.63493902e-07
-3.85605639e-07
-3.84457642e-07
-3.84485091e-07
-3.84354541e-07
-3.66647639e-07
-3.64509881e-07
-3.63838191e-07
-3.63819829e-07
-3.85453444e-07
-3.84320886e-07
-3.84346701e-07
-3.84202663e-07
-3.67354709e-07
-3.65014241e-07
-3.64560638e-07
-3.64480348e-07
-3.85274966e-07
-3.84218391e-07
-3.65302989e-07
-3.64366293e-07
-3.85103345e-07
-3.84294817e-07
-3.65648986e-07
-3.64135227e-07
-3.84951472e-07
-3.84508277e-07
-3.66192136e-07
-3.63084131e-07
-3.63430034e-07
-3.85210568e-07
-3.84164178e-07
-3.84540413e-07
-3.83854974e-07
-3.83982385e-07
-3.66968307e-07
-3.65384574e-07
-3.64496171e-07
-3.64475524e-07
-3.85236594e-07
-3.84219472e-07
-3.64652815e-07
-3.64599095e-07
-3.85524644e-07
-3.83951748e-07
-3.84674059e-07
-3.66443287e-07
-3.63616093e-07
-3.62874469e-07
-3.62841541e-07
-3.858472e-07
-3.84716189e-07
-3.84690699e-07
-3.84678352e-07
-3.65542036e-07
-3.62031128e-07
-3.62371187e-07
-3.85337206e-07
-3.84495479e-07
-3.84576648e-07
-3.84236574e-07
-3.65570264e-07
-3.65241104e-07
-3.85173155e-07
-3.66052248e-07
-3.64054043e-07
-3.85277089e-07
-3.83970077e-07
-3.8465981e-07
-3.67156724e-07
-3.63966029e-07
-3.63737024e-07
-3.63607449e-07
-3.85445604e-07
-3.84447352e-07
-3.8438219e-07
-3.84351489e-07
-3.66304098e-07
-3.64417392e-07
-3.63640838e-07
-3.63716499e-07
-3.85342172e-07
-3.84162801e-07
-3.84745168e-07
-3.6583088e-07
-3.63866042e-07
-3.84837629e-07
-3.84316689e-07
-3.83913409e-07
-3.84006861e-07
-3.69232264e-07
-3.64796757e-07
-3.65288729e-07
-3.63626655e-07
-3.63508097e-07
-3.85096222e-07
-3.84324838e-07
-3.64610631e-07
-3.6389856e-07
-3.85184262e-07
-3.84267848e-07
-3.64127896e-07
-3.64098474e-07
-3.85226032e-07
-3.84125464e-07
-3.84588221e-07
-3.65301697e-07
-3.63948463e-07
-3.84800932e-07
-3.84280974e-07
-3.83896587e-07
-3.84032694e-07
-3.70624454e-07
-3.64809144e-07
-3.65261091e-07
-3.63729201e-07
-3.63648618e-07
-3.84756236e-07
-3.84140504e-07
-3.64740551e-07
-3.64751578e-07
-3.84627114e-07
-3.83680573e-07
-3.84244096e-07
-3.68791386e-07
-3.64118877e-07
-3.65045272e-07
-3.62926581e-07
-3.62966624e-07
-3.8490381e-07
-3.84577259e-07
-3.84344823e-07
-3.84394068e-07
-3.65379703e-07
-3.63217458e-07
-3.84515976e-07
-3.84501887e-07
-3.65426511e-07
-3.84996732e-07
-3.8390533e-07
-3.65169639e-07
-3.64523722e-07
-3.6351384e-07
-3.63636262e-07
-3.84674342e-07
-3.84126706e-07
-3.84259643e-07
-3.65512935e-07
-3.65118691e-07
-3.84566347e-07
-3.65733295e-07
-3.64085806e-07
-3.84601149e-07
-3.83880505e-07
-3.84294839e-07
-3.66254176e-07
-3.64257356e-07
-3.839936e-07
-3.8406104e-07
-3.66141684e-07
-3.64128265e-07
-3.64347506e-07
-3.84199442e-07
-3.84048428e-07
-3.65819874e-07
-3.64713995e-07
-3.83992771e-07
-3.84055635e-07
-3.66168099e-07
-3.64202527e-07
-3.64418623e-07
-3.8428295e-07
-3.83947899e-07
-3.65411289e-07
-3.64914258e-07
-3.84333698e-07
-3.83868892e-07
-3.64832986e-07
-3.65304816e-07
-3.8437261e-07
-3.83609179e-07
-3.84329275e-07
-3.66681727e-07
-3.63975591e-07
-3.64372975e-07
-3.84086737e-07
-3.84138125e-07
-3.65827586e-07
-3.63581859e-07
-3.63944226e-07
-3.84344993e-07
-3.84093115e-07
-3.65072913e-07
-3.64424942e-07
-3.84267946e-07
-3.84002391e-07
-3.64946665e-07
-3.64887707e-07
-3.84241202e-07
-3.838245e-07
-3.64882302e-07
-3.6571709e-07
-3.84313542e-07
-3.68038121e-07
-3.63682364e-07
-3.83557019e-07
-3.84350358e-07
-3.66367317e-07
-3.63803224e-07
-3.64670527e-07
-3.84394208e-07
-3.83817721e-07
-3.841265e-07
-3.66233812e-07
-3.65622051e-07
-3.83971603e-07
-3.83755507e-07
-3.76438454e-07
-3.65986167e-07
-3.64674899e-07
-3.64803697e-07
-3.83838809e-07
-3.84071253e-07
-3.6615743e-07
-3.64219368e-07
-3.64420289e-07
-3.83958625e-07
-3.8417508e-07
-3.65936021e-07
-3.6367585e-07
-3.63971001e-07
-3.84022174e-07
-3.84361501e-07
-3.65492998e-07
-3.62912288e-07
-3.63508681e-07
-3.84370759e-07
-3.84147389e-07
-3.83983546e-07
-3.83986858e-07
-3.66454322e-07
-3.65264985e-07
-3.83566307e-07
-3.83673117e-07
-3.66216236e-07
-3.65959664e-07
-3.83448494e-07
-3.83580875e-07
-3.69674192e-07
-3.66037605e-07
-3.65345699e-07
-3.65321736e-07
-3.83787042e-07
-3.8374791e-07
-3.65836753e-07
-3.65471791e-07
-3.83573493e-07
-3.83768182e-07
-3.66485563e-07
-3.65401145e-07
-3.64630652e-07
-3.64662208e-07
-3.84100146e-07
-3.83915604e-07
-3.64594269e-07
-3.65177762e-07
-3.84312262e-07
-3.83550055e-07
-3.84408317e-07
-3.68714926e-07
-3.63634248e-07
-3.64961461e-07
-3.84315427e-07
-3.65640188e-07
-3.64397012e-07
-3.84154903e-07
-3.83740198e-07
-3.84358564e-07
-3.67954445e-07
-3.63601123e-07
-3.64947759e-07
-3.84383047e-07
-3.65704731e-07
-3.64345412e-07
-3.84242697e-07
-3.83815511e-07
-3.84445312e-07
-3.67080313e-07
-3.63434069e-07
-3.64664599e-07
-3.84532691e-07
-3.65390851e-07
-3.63969303e-07
-3.84472224e-07
-3.84006573e-07
-3.84546178e-07
-3.66231993e-07
-3.6410307e-07
-3.84068669e-07
-3.84131971e-07
-3.64747485e-07
-3.65170371e-07
-3.84414063e-07
-3.83682362e-07
-3.8441698e-07
-3.67837249e-07
-3.6432634e-07
-3.63981217e-07
-3.6394952e-07
-3.84592632e-07
-3.84203786e-07
-3.63794846e-07
-3.64255269e-07
-3.84663746e-07
-3.83865265e-07
-3.84569747e-07
-3.66315294e-07
-3.64189863e-07
-3.83904825e-07
-3.84111624e-07
-3.6593883e-07
-3.6506323e-07
-3.83838604e-07
-3.83961713e-07
-3.66706594e-07
-3.65340579e-07
-3.64587382e-07
-3.64567697e-07
-3.84341975e-07
-3.84014884e-07
-3.65261328e-07
-3.64838149e-07
-3.84252376e-07
-3.83914727e-07
-3.65501403e-07
-3.65074259e-07
-3.84134065e-07
-3.83846866e-07
-3.65953992e-07
-3.65415429e-07
-3.83902057e-07
-3.83812214e-07
-3.67336571e-07
-3.65641257e-07
-3.6490046e-07
-3.64892324e-07
-3.84268964e-07
-3.84042315e-07
-3.65767181e-07
-3.64879061e-07
-3.83999484e-07
-3.84293348e-07
-3.6654037e-07
-3.64050695e-07
-3.64104213e-07
-3.84655284e-07
-3.84127583e-07
-3.6514154e-07
-3.64556148e-07
-3.85579773e-07
)
;

boundaryField
{
    closed
    {
        type            calculated;
        value           nonuniform List<scalar> 0();
    }
    open
    {
        type            calculated;
        value           nonuniform List<scalar> 0();
    }
    sides
    {
        type            empty;
    }
    procBoundary3to2
    {
        type            processor;
        value           uniform -3.83726641e-07;
    }
    procBoundary3to4
    {
        type            processor;
        value           uniform -3.84085226e-07;
    }
}


// ************************************************************************* //
