/*--------------------------------*- C++ -*----------------------------------*\
| =========                 |                                                 |
| \\      /  F ield         | OpenFOAM: The Open Source CFD Toolbox           |
|  \\    /   O peration     | Version:  2306                                  |
|   \\  /    A nd           | Website:  www.openfoam.com                      |
|    \\/     M anipulation  |                                                 |
\*---------------------------------------------------------------------------*/
FoamFile
{
    version     2.0;
    format      ascii;
    arch        "LSB;label=32;scalar=64";
    class       volScalarField;
    location    "0.00172";
    object      sourcePV;
}
// * * * * * * * * * * * * * * * * * * * * * * * * * * * * * * * * * * * * * //

dimensions      [1 -3 -1 0 0 0 0];

internalField   nonuniform List<scalar> 
531
(
0.0056009539
0.121262509
0.170891693
0.161731817
0.00502940555
0.0062160852
0.00582159452
0.0915169396
0.154436932
0.148604904
0.173142159
0.172218674
0.00462378284
0.00570135276
0.155886329
0.156446983
0.00431806077
0.00620156355
0.0053149606
0.120506196
0.180304138
0.167391532
0.00469343128
0.00600201627
0.00552767914
0.131313911
0.167419313
0.180797625
0.18057522
0.00404683648
0.0053581262
0.173616707
0.179341988
0.00388034111
0.00546676856
0.00516655902
0.00563045309
0.134012146
0.157839365
0.00514248749
0.00581531831
0.127987882
0.15333979
0.167344734
0.166837482
0.00452464749
0.00608273003
0.00524087991
0.122251165
0.158672335
0.00506758385
0.00601263964
0.140913838
0.140710387
0.00476591008
0.124323624
0.160967854
0.0047462606
0.00623426877
0.00567992523
0.107919856
0.154332084
0.161570395
0.16134009
0.00464557264
0.00618845149
0.00569831886
0.121045048
0.163517316
0.162901503
0.0052655075
0.0056269749
0.108554979
0.170113646
0.150904493
0.00477784917
0.115317705
0.176025437
0.00513509299
0.00531515894
0.132140201
0.181295895
0.180302464
0.00480074811
0.00554387909
0.00580121293
0.00563661887
0.108080695
0.167902009
0.16016248
0.00510376748
0.00620193775
0.00602060618
0.124705602
0.158980107
0.158438481
0.00519978102
0.00567501071
0.11237162
0.169708385
0.150506296
0.00478437161
0.114674798
0.174292529
0.00514636099
0.00534244066
0.128853377
0.176400393
0.171365949
0.00476831484
0.00583454379
0.00574881018
0.140064811
0.165621029
0.18716871
0.186884924
0.00368277583
0.00522918745
0.0047276045
0.00539511314
0.161924698
0.170512439
0.00372041663
0.00569077881
0.00479193304
0.0059382268
0.00567483989
0.13801931
0.180004912
0.178937989
0.00437697788
0.00504771301
0.141715799
0.202866895
0.193824941
0.00406979935
0.00539182657
0.00502131569
0.153427924
0.181856615
0.00406330816
0.00527884838
0.00532479816
0.0054107758
0.131132309
0.164743613
0.17816957
0.177899995
0.00394546416
0.00561975434
0.00497669261
0.141826053
0.206038418
0.196999833
0.00395058632
0.00524841806
0.00481233783
0.0056398656
0.0055372981
0.14235826
0.170438611
0.18967244
0.189435974
0.00372614939
0.00539464544
0.00467248215
0.00584867584
0.00535150433
0.130718904
0.167268588
0.177518631
0.177580762
0.00403130891
0.00537347838
0.00534298249
0.00549148723
0.129580451
0.163222659
0.172272272
0.172432771
0.00421058888
0.00553049102
0.00550291442
0.00566617501
0.123123917
0.155476844
0.162143758
0.16252425
0.00442381921
0.00564836514
0.150968636
0.164407561
0.00462294425
0.00556054753
0.145311699
0.168249116
0.0048006709
0.00531551576
0.13630163
0.184375521
0.177328265
0.004501083
0.00571134684
0.00527931893
0.00606699649
0.00592072766
0.126265271
0.150805145
0.163278254
0.163404681
0.00446890857
0.00564932917
0.160681747
0.161351916
0.00413123421
0.00595711685
0.00512111224
0.132748382
0.176664956
0.185773566
0.186931645
0.00374955951
0.00507357747
0.00510307285
0.00511708416
0.146056091
0.198851369
0.192432379
0.00435552217
0.0053267114
0.00523871298
0.00562635101
0.147191087
0.151468488
0.00454267347
0.138793622
0.169804003
0.00441968743
0.00593681498
0.00513673512
0.124733278
0.171202136
0.173544465
0.175785359
0.00422229268
0.00538551573
0.00545998923
0.00549563283
0.134657844
0.164911363
0.174799496
0.174451361
0.00434106193
0.00571426832
0.0050378769
0.141568359
0.172525633
0.00493043153
0.00553805788
0.00599804263
0.00589325717
0.108475023
0.159634697
0.149531859
0.176383623
0.175614368
0.00463899956
0.00552305679
0.160906371
0.170396037
0.00452944182
0.00559060767
0.167114963
0.167890404
0.0044771399
0.00575525142
0.00521851585
0.148690098
0.170777062
0.00496969316
0.00557779671
0.00601652593
0.00586292305
0.0982929018
0.158657985
0.149371604
0.174041103
0.173234386
0.00502734714
0.00573582345
0.158006295
0.15805
0.00517147242
0.00626578142
0.00561657715
0.111961565
0.169028301
0.15395117
0.185706189
0.184546977
0.00485277792
0.00523355861
0.00550038611
0.00544499431
0.147812929
0.181688799
0.00530360633
0.00531884289
0.145930166
0.00474683855
0.00600664037
0.15244843
0.161226975
0.176247896
0.174361729
0.00511595042
0.00575350814
0.00559706093
0.145788338
0.152284658
0.00524029915
0.142070382
0.166832388
0.00519957028
0.00603548745
0.00555470713
0.133278422
0.165000016
0.00590480316
0.00582697263
0.134282158
0.167525292
0.161737893
0.00566801198
0.00584101807
0.139973536
0.158277751
0.00590559657
0.00583364797
0.13389895
0.166806677
0.160447117
0.00557304626
0.00595697439
0.14755103
0.154079361
0.00551227884
0.00604833071
0.155252088
0.148790469
0.00546412572
0.00634661818
0.00551479662
0.127819706
0.169011239
0.162408889
0.00579725255
0.00573726835
0.139995927
0.175313488
0.167687937
0.00550015225
0.00578893406
0.152497417
0.161297876
0.00558801959
0.00589432822
0.153756838
0.154755382
0.00561830421
0.00609946835
0.154737813
0.142158383
0.00553295526
0.116968708
0.173477384
0.00640694745
0.00549326069
0.13097665
0.172933534
0.157566747
0.00544220908
0.00610812967
0.0057518977
0.135176655
0.145794164
0.00592988143
0.0061809164
0.0605720291
0.139536858
0.158225616
0.156692584
0.00608287619
0.00581506309
0.135105887
0.165415948
0.161139664
0.0059448303
0.00569404796
0.138931374
0.172574713
0.168191792
0.00587104682
0.0054780489
0.144624064
0.184351128
0.173653929
0.00546656091
0.00572583586
0.00591603658
0.0059118801
0.130941501
0.148727269
0.00639692587
0.00627345649
0.13301703
0.138679991
0.00653341626
0.00637894234
0.104874651
0.137299287
0.147155358
0.147361983
0.00614300557
0.00618754359
0.138992203
0.145775176
0.00638962065
0.00616417992
0.129618491
0.147655356
0.158037603
0.157897342
0.00578053387
0.00599449293
0.158544743
0.150214682
0.00553349923
0.00641413525
0.00542319689
0.11212825
0.17413734
0.15292791
0.00553046911
0.142905086
0.162535457
0.005716903
0.00619704658
0.00548073017
0.118135426
0.174799215
0.153849185
0.00545214175
0.142577477
0.163858703
0.00561465614
0.00611158443
0.00538074638
0.1251556
0.177935739
0.158703857
0.00527904342
0.147841271
0.17003307
0.00534652731
0.00589393915
0.00526181183
0.136130856
0.168087423
0.00581726775
0.00574780621
0.15715069
0.152272437
0.00541470165
0.00626410805
0.00541413834
0.119335844
0.164833823
0.168999725
0.169559044
0.00520686331
0.00566311768
0.171119717
0.164821335
0.00512165241
0.00605385505
0.00523489578
0.133735484
0.166522816
0.00600685767
0.00576971665
0.138846714
0.153581574
0.00608344148
0.00594257294
0.127812045
0.149678715
0.160181046
0.160085897
0.00549990587
0.00588035418
0.150079293
0.155647478
0.00560380772
0.00599556124
0.146392421
0.151996884
0.00574122227
0.00607374384
0.139255687
0.147369142
0.00601008339
0.00611392558
0.122874737
0.144868999
0.15553947
0.155521992
0.00558454744
0.00584972629
0.141760146
0.156930148
0.00589744141
0.00556316915
0.129264556
0.170893695
0.166096867
0.00514534707
0.00575043246
0.156499222
0.16056934
0.00406924968
)
;

boundaryField
{
    closed
    {
        type            calculated;
        value           nonuniform List<scalar> 0();
    }
    open
    {
        type            calculated;
        value           nonuniform List<scalar> 0();
    }
    sides
    {
        type            empty;
    }
    procBoundary3to2
    {
        type            processor;
        value           uniform 0;
    }
    procBoundary3to4
    {
        type            processor;
        value           uniform 0;
    }
}


// ************************************************************************* //
