/*--------------------------------*- C++ -*----------------------------------*\
| =========                 |                                                 |
| \\      /  F ield         | OpenFOAM: The Open Source CFD Toolbox           |
|  \\    /   O peration     | Version:  2306                                  |
|   \\  /    A nd           | Website:  www.openfoam.com                      |
|    \\/     M anipulation  |                                                 |
\*---------------------------------------------------------------------------*/
FoamFile
{
    version     2.0;
    format      ascii;
    arch        "LSB;label=32;scalar=64";
    class       volScalarField;
    location    "0.00178";
    object      prefDZ_H2O;
}
// * * * * * * * * * * * * * * * * * * * * * * * * * * * * * * * * * * * * * //

dimensions      [1 -1 -1 0 0 0 0];

internalField   nonuniform List<scalar> 
530
(
-7.85599892e-07
-7.54892988e-07
-7.52009756e-07
-7.52071525e-07
-7.52079815e-07
-7.52080018e-07
-7.52080021e-07
-7.52080022e-07
-7.52080022e-07
-7.52080022e-07
-7.52080022e-07
-7.52080022e-07
-7.52080022e-07
-7.52080022e-07
-7.52080022e-07
-7.52080022e-07
-7.52080022e-07
-7.52080022e-07
-7.52080022e-07
-7.52080022e-07
-7.52080022e-07
-7.52080022e-07
-7.52080022e-07
-7.52080022e-07
-7.52080022e-07
-7.52080022e-07
-7.52080022e-07
-7.52080022e-07
-7.52080022e-07
-7.52080022e-07
-7.52080022e-07
-7.52080022e-07
-7.52080022e-07
-7.52080022e-07
-7.52080022e-07
-7.52080022e-07
-7.52080022e-07
-7.52080022e-07
-7.52080022e-07
-7.52080022e-07
-7.52080022e-07
-7.52080022e-07
-7.52080022e-07
-7.52080022e-07
-7.52080022e-07
-7.52080022e-07
-7.52080022e-07
-7.52080022e-07
-7.52080022e-07
-7.52080022e-07
-7.52080022e-07
-7.52080022e-07
-7.52080022e-07
-7.52080022e-07
-7.52080022e-07
-7.52080022e-07
-7.52080022e-07
-7.52080022e-07
-7.52080022e-07
-7.52080021e-07
-7.52080021e-07
-7.52080021e-07
-7.52080021e-07
-7.52080019e-07
-7.52080021e-07
-7.52080021e-07
-7.52079967e-07
-7.52079919e-07
-7.52080453e-07
-7.52080091e-07
-7.52076422e-07
-7.52074969e-07
-7.520955e-07
-7.52153604e-07
-7.52061476e-07
-7.51494873e-07
-7.51807988e-07
-7.54376752e-07
-7.53798589e-07
-7.44358753e-07
-7.41061376e-07
-7.65281069e-07
-7.7457874e-07
-7.54564549e-07
-7.38240896e-07
-7.45550769e-07
-7.5700998e-07
-7.47343863e-07
-7.37438349e-07
-7.36044461e-07
-7.39825255e-07
-7.73062254e-07
-7.7250927e-07
-7.75910573e-07
-7.41963525e-07
-7.33040734e-07
-7.40421214e-07
-7.744297e-07
-7.73569231e-07
-7.76566594e-07
-7.33412537e-07
-7.33252609e-07
-7.34307456e-07
-7.38708792e-07
-7.73795481e-07
-7.73446122e-07
-7.75064837e-07
-7.74018682e-07
-7.76263645e-07
-7.34038822e-07
-7.32507336e-07
-7.40740675e-07
-7.75165838e-07
-7.75526047e-07
-7.32829504e-07
-7.32895488e-07
-7.38822926e-07
-7.74539206e-07
-7.74079908e-07
-7.75834033e-07
-7.74922311e-07
-7.77106116e-07
-7.30361804e-07
-7.29984215e-07
-7.33476991e-07
-7.31982594e-07
-7.3730423e-07
-7.75500045e-07
-7.73948462e-07
-7.77027672e-07
-7.33862211e-07
-7.36412511e-07
-7.74459374e-07
-7.75462115e-07
-7.74577858e-07
-7.76576582e-07
-7.33598997e-07
-7.32392689e-07
-7.39700929e-07
-7.7493425e-07
-7.75319481e-07
-7.35490407e-07
-7.37666851e-07
-7.74407113e-07
-7.76132911e-07
-7.34413043e-07
-7.34515368e-07
-7.35464954e-07
-7.41369892e-07
-7.74110882e-07
-7.74352184e-07
-7.7415866e-07
-7.75652327e-07
-7.34986701e-07
-7.33893027e-07
-7.4257415e-07
-7.73990024e-07
-7.7500427e-07
-7.37066282e-07
-7.3226319e-07
-7.47066555e-07
-7.76338287e-07
-7.35548391e-07
-7.35749345e-07
-7.74052752e-07
-7.7670054e-07
-7.34981499e-07
-7.36227269e-07
-7.74422807e-07
-7.76396059e-07
-7.34282082e-07
-7.38052925e-07
-7.75454087e-07
-7.74030473e-07
-7.77112764e-07
-7.35395577e-07
-7.37134347e-07
-7.74598898e-07
-7.75819664e-07
-7.74904454e-07
-7.7742214e-07
-7.31858353e-07
-7.29189146e-07
-7.4341367e-07
-7.7718739e-07
-7.35823257e-07
-7.36019375e-07
-7.74520236e-07
-7.76366127e-07
-7.33074153e-07
-7.3180781e-07
-7.38393368e-07
-7.75389503e-07
-7.74281168e-07
-7.76964943e-07
-7.32845851e-07
-7.38006972e-07
-7.76946381e-07
-7.35184265e-07
-7.35104071e-07
-7.74730978e-07
-7.74456768e-07
-7.76736403e-07
-7.3479898e-07
-7.37105198e-07
-7.74293305e-07
-7.75256466e-07
-7.74346293e-07
-7.76446305e-07
-7.34897767e-07
-7.33242403e-07
-7.35889192e-07
-7.33858045e-07
-7.38173911e-07
-7.74985721e-07
-7.76113799e-07
-7.34375709e-07
-7.3624764e-07
-7.74799724e-07
-7.75939596e-07
-7.33167823e-07
-7.32491647e-07
-7.39195696e-07
-7.74671647e-07
-7.7461954e-07
-7.74705056e-07
-7.76082496e-07
-7.34447636e-07
-7.32657706e-07
-7.39302211e-07
-7.7473506e-07
-7.73646751e-07
-7.76062366e-07
-7.35630892e-07
-7.40072248e-07
-7.75310853e-07
-7.3723865e-07
-7.36727573e-07
-7.74244218e-07
-7.75880387e-07
-7.33878276e-07
-7.31975418e-07
-7.37643768e-07
-7.75543732e-07
-7.7408278e-07
-7.77401885e-07
-7.33867744e-07
-7.34292369e-07
-7.74090962e-07
-7.78012044e-07
-7.36814195e-07
-7.76625228e-07
-7.76232252e-07
-7.31063826e-07
-7.30914051e-07
-7.37451898e-07
-7.75655057e-07
-7.7444096e-07
-7.77496703e-07
-7.34182075e-07
-7.34653825e-07
-7.74950116e-07
-7.76857797e-07
-7.33123287e-07
-7.3718371e-07
-7.76170854e-07
-7.74759726e-07
-7.77194842e-07
-7.33481177e-07
-7.37112186e-07
-7.7704283e-07
-7.34485499e-07
-7.34982545e-07
-7.74750463e-07
-7.758508e-07
-7.74938521e-07
-7.7692678e-07
-7.32823416e-07
-7.31293054e-07
-7.37039664e-07
-7.75693238e-07
-7.75841256e-07
-7.32303039e-07
-7.30890323e-07
-7.37153022e-07
-7.75341367e-07
-7.74800027e-07
-7.76759167e-07
-7.32013639e-07
-7.29333819e-07
-7.3561916e-07
-7.75316627e-07
-7.74737526e-07
-7.76579401e-07
-7.74978358e-07
-7.77931828e-07
-7.32440371e-07
-7.33313655e-07
-7.74704275e-07
-7.76892512e-07
-7.34193645e-07
-7.35473029e-07
-7.7428261e-07
-7.76246993e-07
-7.35383016e-07
-7.36657988e-07
-7.74133826e-07
-7.75419821e-07
-7.34830984e-07
-7.34171815e-07
-7.38062515e-07
-7.74473597e-07
-7.75068915e-07
-7.36182518e-07
-7.37252643e-07
-7.73932633e-07
-7.74808437e-07
-7.36086804e-07
-7.35401124e-07
-7.38605617e-07
-7.74200785e-07
-7.74577781e-07
-7.35862004e-07
-7.34134063e-07
-7.3849497e-07
-7.74377506e-07
-7.73903112e-07
-7.75643797e-07
-7.33798151e-07
-7.33703651e-07
-7.33382787e-07
-7.37306005e-07
-7.7498402e-07
-7.73755038e-07
-7.75827473e-07
-7.35624254e-07
-7.35700375e-07
-7.73796383e-07
-7.75389169e-07
-7.36525688e-07
-7.37050764e-07
-7.7344998e-07
-7.75113446e-07
-7.36969511e-07
-7.37673413e-07
-7.73043325e-07
-7.7466565e-07
-7.37794658e-07
-7.35627459e-07
-7.38669829e-07
-7.74074288e-07
-7.74231744e-07
-7.37051294e-07
-7.37837894e-07
-7.73861968e-07
-7.74302643e-07
-7.36284961e-07
-7.36149851e-07
-7.35878629e-07
-7.37183844e-07
-7.74591119e-07
-7.75343429e-07
-7.33072e-07
-7.36188028e-07
-7.75422518e-07
-7.74677335e-07
-7.759728e-07
-7.75131636e-07
-7.76509589e-07
-7.31740329e-07
-7.30264801e-07
-7.31361117e-07
-7.33116031e-07
-7.75625351e-07
-7.76429641e-07
-7.30035661e-07
-7.33171017e-07
-7.7570915e-07
-7.75042197e-07
-7.7584447e-07
-7.74964513e-07
-7.7600322e-07
-7.74888136e-07
-7.7616076e-07
-7.33872734e-07
-7.32580929e-07
-7.33762816e-07
-7.33744634e-07
-7.32368028e-07
-7.36110014e-07
-7.74959765e-07
-7.74221636e-07
-7.75008354e-07
-7.36514591e-07
-7.35980231e-07
-7.73799804e-07
-7.74596555e-07
-7.37658269e-07
-7.3777848e-07
-7.73513149e-07
-7.74210944e-07
-7.37065949e-07
-7.36642101e-07
-7.36453127e-07
-7.37040001e-07
-7.73829401e-07
-7.74787684e-07
-7.35073492e-07
-7.35526178e-07
-7.74088473e-07
-7.74769797e-07
-7.34366592e-07
-7.33985681e-07
-7.74292588e-07
-7.75504965e-07
-7.3333277e-07
-7.29736744e-07
-7.336185e-07
-7.74934441e-07
-7.74265722e-07
-7.74958355e-07
-7.74129186e-07
-7.74978992e-07
-7.73978617e-07
-7.74947153e-07
-7.35995921e-07
-7.34872175e-07
-7.35641201e-07
-7.35842092e-07
-7.73801394e-07
-7.74572159e-07
-7.35661161e-07
-7.35918096e-07
-7.73596096e-07
-7.74341009e-07
-7.36549381e-07
-7.35812856e-07
-7.36496861e-07
-7.35940091e-07
-7.73566166e-07
-7.74551537e-07
-7.36039498e-07
-7.33760081e-07
-7.36485136e-07
-7.74292205e-07
-7.73440116e-07
-7.74217089e-07
-7.37214491e-07
-7.36051171e-07
-7.72824858e-07
-7.74073351e-07
-7.41373306e-07
-7.36180307e-07
-7.37255895e-07
-7.73642875e-07
-7.73477763e-07
-7.37478422e-07
-7.36025529e-07
-7.3665951e-07
-7.73510821e-07
-7.73848188e-07
-7.37539731e-07
-7.35565248e-07
-7.36626348e-07
-7.74010064e-07
-7.73944275e-07
-7.35673665e-07
-7.35020336e-07
-7.34006836e-07
-7.34627472e-07
-7.74454163e-07
-7.74545557e-07
-7.74547341e-07
-7.34269555e-07
-7.32971608e-07
-7.74633029e-07
-7.74703666e-07
-7.74715608e-07
-7.74582598e-07
-7.74829013e-07
-7.34395668e-07
-7.32397609e-07
-7.33315715e-07
-7.32305001e-07
-7.74432233e-07
-7.74799921e-07
-7.35294698e-07
-7.74760122e-07
-7.73922761e-07
-7.35635286e-07
-7.35546409e-07
-7.35272078e-07
-7.73957399e-07
-7.74080055e-07
-7.37145585e-07
-7.3505684e-07
-7.35735699e-07
-7.74112538e-07
-7.73829086e-07
-7.36833113e-07
-7.35562144e-07
-7.73777273e-07
-7.7388345e-07
-7.37471702e-07
-7.35687376e-07
-7.73236945e-07
-7.74052695e-07
-7.44373767e-07
-7.34364428e-07
-7.37313121e-07
-7.74596016e-07
-7.37434986e-07
-7.34215284e-07
-7.74091716e-07
-7.74048299e-07
-7.3538759e-07
-7.35774521e-07
-7.74546557e-07
-7.73474601e-07
-7.74392552e-07
-7.38490547e-07
-7.3367818e-07
-7.35817845e-07
-7.74524074e-07
-7.73589217e-07
-7.35697324e-07
-7.36650784e-07
-7.74363591e-07
-7.38519443e-07
-7.34527401e-07
)
;

boundaryField
{
    closed
    {
        type            calculated;
        value           uniform -1.03530074e-06;
    }
    open
    {
        type            calculated;
        value           nonuniform List<scalar> 0();
    }
    sides
    {
        type            empty;
    }
    procBoundary0to1
    {
        type            processor;
        value           uniform -7.74265327e-07;
    }
}


// ************************************************************************* //
