/*--------------------------------*- C++ -*----------------------------------*\
| =========                 |                                                 |
| \\      /  F ield         | OpenFOAM: The Open Source CFD Toolbox           |
|  \\    /   O peration     | Version:  2306                                  |
|   \\  /    A nd           | Website:  www.openfoam.com                      |
|    \\/     M anipulation  |                                                 |
\*---------------------------------------------------------------------------*/
FoamFile
{
    version     2.0;
    format      ascii;
    arch        "LSB;label=32;scalar=64";
    class       volScalarField;
    location    "0.0006";
    object      T;
}
// * * * * * * * * * * * * * * * * * * * * * * * * * * * * * * * * * * * * * //

dimensions      [0 0 0 1 0 0 0];

internalField   nonuniform List<scalar> 
530
(
336.494109
330.658053
329.586882
329.574455
329.573379
329.573354
329.573353
329.573353
329.573353
329.573353
329.573353
329.573353
329.573353
329.573353
329.573353
329.573353
329.573353
329.573353
329.573353
329.573353
329.573353
329.573353
329.573353
329.573353
329.573353
329.573353
329.573353
329.573353
329.573353
329.573353
329.573353
329.573353
329.573353
329.573353
329.573353
329.573353
329.573353
329.573353
329.573353
329.573353
329.573353
329.573353
329.573353
329.573353
329.573353
329.573353
329.573353
329.573353
329.573353
329.573353
329.573353
329.573353
329.573353
329.573353
329.573353
329.573353
329.573353
329.573353
329.573353
329.573353
329.573353
329.573353
329.573353
329.573353
329.573353
329.573353
329.573353
329.573353
329.573353
329.573353
329.573353
329.573353
329.573353
329.573353
329.573353
329.573357
329.573361
329.573366
329.573404
329.573463
329.57353
329.573678
329.574211
329.574871
329.576375
329.577497
329.577393
329.579677
329.587852
329.64655
329.656269
329.496883
329.43177
329.656506
330.437498
330.488102
328.921033
327.95055
328.733211
338.058825
340.542831
334.047207
328.986114
326.943116
323.684852
325.873023
335.848112
340.163955
338.331479
328.979993
325.872344
322.296706
325.761785
337.128125
339.908263
339.392317
335.274223
327.613602
323.81524
330.994494
339.320412
332.270288
325.183835
321.910199
330.863329
339.570337
329.455301
327.258829
331.098133
339.248004
332.687124
326.022128
323.052552
330.808148
339.536173
329.445609
327.181967
331.124179
339.255377
332.503235
325.703197
322.696082
330.999175
339.570796
329.363589
326.922089
331.169368
339.279694
332.270463
325.158304
322.196771
331.194003
339.577583
329.284873
326.083991
331.131045
339.662152
329.364367
327.40222
331.642668
339.382437
332.460596
325.427792
322.748973
332.163563
339.739278
329.358484
327.047021
330.865953
339.588541
334.07241
329.296776
323.162799
322.636476
331.010835
339.20484
331.841701
324.339012
322.173345
332.508472
339.608208
329.205245
326.385069
332.138891
339.645953
329.308332
327.33457
331.949221
339.363249
332.65753
325.031546
322.771164
333.230391
339.637201
329.08964
325.61665
330.346308
339.243128
333.352658
325.21841
322.28998
331.355719
339.493608
329.135371
324.687973
330.15614
339.393713
329.594153
325.573652
329.85009
339.408115
329.841441
325.36263
329.591004
339.389513
329.968088
325.147055
329.326961
339.327356
330.295969
324.4771
328.791058
339.196301
330.864764
324.204761
328.706434
339.231856
331.15465
325.127299
328.819201
339.271417
331.307157
325.639508
328.990664
339.129782
339.04696
326.521748
321.604057
330.419226
339.407146
329.26592
324.763464
329.605892
339.384436
330.593392
326.04071
329.020776
339.079645
339.064891
326.147036
322.149245
332.346227
339.571974
329.34907
324.70218
328.958462
338.994626
338.918401
326.049988
323.305613
334.165477
339.811783
329.512337
325.964022
329.08373
339.358521
339.875879
329.16052
323.266442
322.876817
329.360085
339.249548
335.029486
325.314276
324.313501
337.01532
340.0957
329.566832
327.485786
329.11959
339.3011
340.233827
329.747112
328.180666
324.701165
322.690132
329.020367
339.188581
338.726902
328.106143
324.156435
330.158676
339.367472
336.849226
327.9999
323.986188
330.141855
339.31522
335.529086
326.994622
323.396443
330.360704
339.263639
334.036893
325.529706
322.826923
332.476381
339.722641
329.305366
326.371673
330.057478
339.271443
335.398874
325.8605
322.638684
332.215993
339.810375
329.085337
326.468782
330.141482
338.903983
339.872015
335.099293
329.484132
327.017251
322.281938
320.994314
331.258294
339.488597
329.139373
326.151679
333.290543
339.743878
329.327754
327.455646
333.82002
339.482448
331.51472
323.825436
322.836561
336.430581
339.787449
329.504056
325.696995
335.086421
339.768165
329.434244
326.74532
335.016114
339.555776
330.66312
323.363852
323.184341
338.025158
339.7235
329.937712
322.882436
324.117237
338.386325
339.562025
329.385668
326.504905
336.878632
339.578822
330.251783
323.415663
323.389437
338.56911
339.703429
329.841384
322.995949
324.750024
338.283094
339.382425
328.880643
325.966575
336.448379
339.549295
329.118882
324.995556
329.985892
339.068068
333.555994
325.046834
324.733114
338.030558
338.771816
328.157664
326.74754
337.815006
339.686897
329.533621
322.766833
326.553521
338.138596
338.460897
327.250663
326.500757
337.536157
337.916736
327.921847
328.770194
338.353968
334.107336
327.595455
328.849441
338.793034
339.320509
328.746209
321.560547
327.787966
337.843917
333.294006
326.292735
328.558081
338.567769
332.046485
326.962144
328.766848
338.92504
331.09801
327.946477
329.120267
338.883174
337.748113
328.926271
322.650992
328.619524
338.786567
330.793497
327.766826
329.035928
338.858869
339.124678
329.391733
324.224281
322.413622
328.754547
338.544096
336.367528
328.440246
323.480802
329.060707
338.64214
336.675325
328.849734
323.946822
329.204592
338.692837
336.041256
328.500313
323.79804
329.281085
338.811653
335.63712
328.76346
323.52607
328.365168
336.851871
339.938916
339.052013
329.347028
323.733337
321.8696
329.077369
338.513869
334.269972
327.24258
322.637022
329.376701
338.925617
329.984203
327.748282
330.213385
338.82515
334.097447
327.290396
322.662705
329.53965
338.973022
329.725959
326.286543
330.049821
339.178846
329.72652
327.741733
330.788586
338.953665
333.101697
326.075803
322.071608
329.802903
339.075564
329.423195
325.714213
330.244668
339.207917
329.501892
327.406527
331.07661
338.979597
332.537578
325.494804
321.918296
330.367385
339.165469
329.288312
325.608595
330.541782
339.223182
329.361305
327.333144
331.305882
339.003735
332.323979
325.244603
321.844646
330.757755
339.184017
329.161792
325.295949
330.572552
339.117025
329.201521
325.821741
330.96552
339.267783
329.158973
327.118377
331.42897
)
;

boundaryField
{
    closed
    {
        type            fixedValue;
        value           uniform 400;
    }
    open
    {
        type            zeroGradient;
    }
    sides
    {
        type            empty;
    }
    procBoundary0to1
    {
        type            processor;
        value           uniform 339.125132;
    }
}


// ************************************************************************* //
