/*--------------------------------*- C++ -*----------------------------------*\
| =========                 |                                                 |
| \\      /  F ield         | OpenFOAM: The Open Source CFD Toolbox           |
|  \\    /   O peration     | Version:  2306                                  |
|   \\  /    A nd           | Website:  www.openfoam.com                      |
|    \\/     M anipulation  |                                                 |
\*---------------------------------------------------------------------------*/
FoamFile
{
    version     2.0;
    format      ascii;
    arch        "LSB;label=32;scalar=64";
    class       volScalarField;
    location    "0.00104";
    object      alpha;
}
// * * * * * * * * * * * * * * * * * * * * * * * * * * * * * * * * * * * * * //

dimensions      [1 -1 -1 0 0 0 0];

internalField   nonuniform List<scalar> 
531
(
3.68187692e-05
3.67087256e-05
3.52437129e-05
3.52442081e-05
3.58432161e-05
3.68192109e-05
3.67202759e-05
3.51872857e-05
3.51858775e-05
3.58185761e-05
3.68282775e-05
3.65932024e-05
3.55321699e-05
3.5759684e-05
3.68556701e-05
3.65771168e-05
3.5511938e-05
3.5763661e-05
3.68540995e-05
3.66859265e-05
3.5149872e-05
3.51548114e-05
3.58056385e-05
3.68289833e-05
3.67310213e-05
3.51781302e-05
3.5183113e-05
3.57421752e-05
3.68354517e-05
3.68545674e-05
3.68076828e-05
3.6836117e-05
3.67374234e-05
3.53117491e-05
3.52815835e-05
3.54453277e-05
3.54549919e-05
3.54465414e-05
3.57848081e-05
3.68475252e-05
3.6752975e-05
3.52452284e-05
3.5218358e-05
3.57236333e-05
3.68390943e-05
3.6838918e-05
3.67598463e-05
3.51788863e-05
3.514302e-05
3.57380081e-05
3.68261705e-05
3.67436646e-05
3.55735473e-05
3.57092475e-05
3.68398694e-05
3.67418427e-05
3.52148971e-05
3.51915936e-05
3.52488818e-05
3.56996953e-05
3.6847441e-05
3.68453133e-05
3.68136229e-05
3.68360804e-05
3.67763963e-05
3.52396976e-05
3.51839735e-05
3.53103615e-05
3.57419446e-05
3.68512483e-05
3.68115516e-05
3.54256213e-05
3.52270318e-05
3.57361167e-05
3.68326108e-05
3.68349365e-05
3.55160786e-05
3.52436794e-05
3.57397281e-05
3.68323711e-05
3.68401963e-05
3.55415364e-05
3.52260136e-05
3.57312228e-05
3.68310524e-05
3.68478529e-05
3.55728364e-05
3.52217708e-05
3.57268559e-05
3.68309966e-05
3.68545088e-05
3.56189368e-05
3.5233492e-05
3.57249439e-05
3.683104e-05
3.68599251e-05
3.56649552e-05
3.52456108e-05
3.57230518e-05
3.68294216e-05
3.68629661e-05
3.56950487e-05
3.52426679e-05
3.57199036e-05
3.68234749e-05
3.68648958e-05
3.56977179e-05
3.52158966e-05
3.57208384e-05
3.68247215e-05
3.68564392e-05
3.56429935e-05
3.5128219e-05
3.57068803e-05
3.67803588e-05
3.68387519e-05
3.68367459e-05
3.55340002e-05
3.5226317e-05
3.52674966e-05
3.57458743e-05
3.68256513e-05
3.68524452e-05
3.56114097e-05
3.51427772e-05
3.57116859e-05
3.68032867e-05
3.68839626e-05
3.57200715e-05
3.57335924e-05
3.68128708e-05
3.6851809e-05
3.56305015e-05
3.51596015e-05
3.5709149e-05
3.67988029e-05
3.68673424e-05
3.56676539e-05
3.51675628e-05
3.57103992e-05
3.68029774e-05
3.68878334e-05
3.57129728e-05
3.57296767e-05
3.68023998e-05
3.68560242e-05
3.56670998e-05
3.5219039e-05
3.57079162e-05
3.67967221e-05
3.68697268e-05
3.5681442e-05
3.52569225e-05
3.57157067e-05
3.68000246e-05
3.68690378e-05
3.56807399e-05
3.52825628e-05
3.57206856e-05
3.68012878e-05
3.68656223e-05
3.56819795e-05
3.53044935e-05
3.57254521e-05
3.67947053e-05
3.68659676e-05
3.56346457e-05
3.53049815e-05
3.5394086e-05
3.57373201e-05
3.68208378e-05
3.6882185e-05
3.56938988e-05
3.57412916e-05
3.6808787e-05
3.68537373e-05
3.55790038e-05
3.52373174e-05
3.57256127e-05
3.67939663e-05
3.68644007e-05
3.55768087e-05
3.52233171e-05
3.5735681e-05
3.67953906e-05
3.68607259e-05
3.5530713e-05
3.51995001e-05
3.57289883e-05
3.68073625e-05
3.68782414e-05
3.56852162e-05
3.57538928e-05
3.68176458e-05
3.68505793e-05
3.54611194e-05
3.51910347e-05
3.57389382e-05
3.678923e-05
3.68571231e-05
3.54638092e-05
3.51929032e-05
3.57536651e-05
3.67911057e-05
3.68500027e-05
3.54418225e-05
3.51971639e-05
3.57506113e-05
3.68068761e-05
3.68453188e-05
3.56310414e-05
3.57723966e-05
3.68158935e-05
3.68379258e-05
3.53723237e-05
3.52139413e-05
3.57761914e-05
3.67945579e-05
3.68217973e-05
3.53874598e-05
3.52520431e-05
3.58128703e-05
3.67842449e-05
3.66165195e-05
3.54319409e-05
3.55273397e-05
3.67098558e-05
3.67807798e-05
3.6744187e-05
3.63986639e-05
3.53695425e-05
3.53237857e-05
3.55314838e-05
3.55468954e-05
3.55852393e-05
3.55138583e-05
3.56976519e-05
3.66255174e-05
3.68449041e-05
3.67481231e-05
3.57341421e-05
3.56287852e-05
3.58945893e-05
3.6814717e-05
3.63716599e-05
3.51760893e-05
3.51922138e-05
3.58401348e-05
3.68185069e-05
3.62963153e-05
3.54074098e-05
3.57308445e-05
3.68317468e-05
3.62429676e-05
3.54748747e-05
3.57594441e-05
3.68313627e-05
3.61867567e-05
3.54774452e-05
3.57875324e-05
3.68172458e-05
3.61144818e-05
3.51035928e-05
3.52298267e-05
3.58913446e-05
3.68105108e-05
3.61837407e-05
3.55568867e-05
3.58044541e-05
3.6809625e-05
3.60967434e-05
3.5173257e-05
3.53212506e-05
3.59296092e-05
3.68067675e-05
3.61842362e-05
3.56196262e-05
3.58220006e-05
3.68096106e-05
3.61128587e-05
3.52185678e-05
3.53825191e-05
3.60024723e-05
3.67923079e-05
3.61403859e-05
3.52154894e-05
3.53468864e-05
3.59289695e-05
3.68131631e-05
3.62553784e-05
3.56279686e-05
3.58101608e-05
3.68174271e-05
3.62192679e-05
3.52349948e-05
3.53550054e-05
3.59548649e-05
3.6803541e-05
3.63000246e-05
3.52042691e-05
3.52868203e-05
3.58738312e-05
3.68227571e-05
3.64286393e-05
3.56020849e-05
3.57790883e-05
3.68299256e-05
3.64340647e-05
3.52115485e-05
3.52682655e-05
3.58686353e-05
3.68151825e-05
3.65411206e-05
3.5190093e-05
3.52211905e-05
3.58168179e-05
3.68328722e-05
3.66540833e-05
3.56005982e-05
3.575745e-05
3.68383172e-05
3.66748287e-05
3.5224791e-05
3.52465093e-05
3.58211341e-05
3.6824354e-05
3.67359253e-05
3.52244153e-05
3.52330156e-05
3.58144494e-05
3.68284667e-05
3.67550654e-05
3.52634581e-05
3.52592272e-05
3.57787563e-05
3.68475102e-05
3.67855125e-05
3.5696726e-05
3.57509477e-05
3.68374591e-05
3.68034956e-05
3.54507519e-05
3.54179337e-05
3.55394932e-05
3.55500006e-05
3.55268058e-05
3.57889113e-05
3.68336482e-05
3.68263103e-05
3.54278903e-05
3.52510304e-05
3.57224196e-05
3.68334005e-05
3.6853138e-05
3.55969219e-05
3.56295222e-05
3.68417656e-05
3.68485302e-05
3.55519582e-05
3.56009251e-05
3.68424577e-05
3.68354343e-05
3.53628793e-05
3.50638561e-05
3.56930287e-05
3.68142314e-05
3.68824111e-05
3.5611969e-05
3.55565447e-05
3.67954274e-05
3.6836076e-05
3.5476816e-05
3.50770143e-05
3.56447098e-05
3.67841308e-05
3.68736784e-05
3.57139615e-05
3.55821792e-05
3.67411525e-05
3.68308155e-05
3.55851315e-05
3.50771793e-05
3.55397436e-05
3.67522621e-05
3.68655734e-05
3.57153567e-05
3.55560381e-05
3.66732768e-05
3.68259279e-05
3.56691106e-05
3.5019977e-05
3.53773506e-05
3.67172228e-05
3.68567111e-05
3.57100511e-05
3.54721435e-05
3.6518184e-05
3.68417727e-05
3.57096056e-05
3.54821508e-05
3.64682199e-05
3.68401959e-05
3.57081306e-05
3.55280865e-05
3.64371004e-05
3.68145305e-05
3.56750691e-05
3.5034288e-05
3.52213856e-05
3.66480279e-05
3.68504888e-05
3.57302466e-05
3.55420844e-05
3.63619542e-05
3.68415985e-05
3.57286846e-05
3.56162181e-05
3.6384233e-05
3.68171455e-05
3.57048217e-05
3.51643975e-05
3.53502084e-05
3.66636587e-05
3.68554655e-05
3.57677981e-05
3.57197717e-05
3.64197132e-05
3.68207535e-05
3.57348105e-05
3.5295767e-05
3.56083974e-05
3.66924155e-05
3.68403203e-05
3.57426541e-05
3.53576585e-05
3.52673731e-05
3.55399837e-05
3.6706944e-05
3.68227469e-05
3.57323474e-05
3.51299153e-05
3.52922668e-05
3.66699889e-05
3.68448577e-05
3.57474543e-05
3.55698232e-05
3.63286733e-05
3.68345592e-05
3.57286896e-05
3.55490491e-05
3.63779828e-05
3.68341559e-05
3.57215706e-05
3.55363067e-05
3.64473244e-05
3.68151533e-05
3.56951799e-05
3.49186548e-05
3.51523419e-05
3.67195406e-05
3.68482115e-05
3.57310636e-05
3.54440638e-05
3.6511185e-05
3.68392208e-05
3.57343153e-05
3.54743239e-05
3.65829592e-05
3.68403406e-05
3.57485839e-05
3.55151247e-05
3.66395522e-05
3.68403305e-05
3.57641403e-05
3.55788844e-05
3.6701429e-05
3.68219425e-05
3.57378316e-05
3.50781112e-05
3.53847513e-05
3.67618983e-05
3.68309294e-05
3.57466732e-05
3.51064391e-05
3.54345529e-05
3.67764798e-05
3.68292312e-05
3.57341757e-05
3.50883132e-05
3.56075703e-05
3.67399387e-05
3.68211241e-05
3.67841442e-05
3.68281431e-05
3.57447512e-05
3.52655278e-05
3.51752025e-05
3.55315299e-05
3.68028242e-05
3.68202074e-05
3.57414839e-05
3.51414024e-05
3.54895386e-05
3.67971406e-05
3.68296456e-05
3.57530994e-05
3.51887275e-05
3.55526846e-05
3.68092866e-05
3.68283984e-05
3.57555757e-05
3.52219062e-05
3.5575985e-05
3.68190148e-05
3.68214384e-05
3.57546756e-05
3.52123583e-05
3.55378419e-05
3.68268106e-05
3.68113902e-05
3.57480139e-05
3.51416252e-05
3.54622922e-05
3.68310643e-05
3.68018194e-05
3.57300655e-05
3.50048255e-05
3.54626152e-05
3.68033609e-05
3.68124859e-05
3.67958948e-05
)
;

boundaryField
{
    closed
    {
        type            calculated;
        value           nonuniform List<scalar> 0();
    }
    open
    {
        type            calculated;
        value           nonuniform List<scalar> 0();
    }
    sides
    {
        type            empty;
    }
    procBoundary3to2
    {
        type            processor;
        value           uniform 3.58720846e-05;
    }
    procBoundary3to4
    {
        type            processor;
        value           uniform 3.67991e-05;
    }
}


// ************************************************************************* //
