/*--------------------------------*- C++ -*----------------------------------*\
| =========                 |                                                 |
| \\      /  F ield         | OpenFOAM: The Open Source CFD Toolbox           |
|  \\    /   O peration     | Version:  2306                                  |
|   \\  /    A nd           | Website:  www.openfoam.com                      |
|    \\/     M anipulation  |                                                 |
\*---------------------------------------------------------------------------*/
FoamFile
{
    version     2.0;
    format      ascii;
    arch        "LSB;label=32;scalar=64";
    class       volScalarField;
    location    "0.00154";
    object      PV;
}
// * * * * * * * * * * * * * * * * * * * * * * * * * * * * * * * * * * * * * //

dimensions      [0 0 0 0 0 0 0];

internalField   nonuniform List<scalar> 
531
(
-0.00710297577
-0.00715946758
-0.00714255966
-0.00716900608
-0.0071654055
-0.00692499088
-0.00692004849
-0.00692318142
-0.00691979953
-0.00702787179
-0.00716549669
-0.00716474352
-0.0069223691
-0.00692150578
-0.00709599154
-0.00717987387
-0.00716998664
-0.00692554051
-0.00691977583
-0.00692294949
-0.00691813223
-0.00691818523
-0.007117242
-0.00716337455
-0.0071805518
-0.00717746425
-0.0069262113
-0.00691921654
-0.0071429123
-0.00715271062
-0.00692582791
-0.00691867772
-0.00714622391
-0.00714594899
-0.00692335909
-0.00691984127
-0.0069198474
-0.0071278515
-0.00714421502
-0.00692140288
-0.00691711523
-0.00692049197
-0.00707409027
-0.00714851369
-0.00713554994
-0.00715299327
-0.00714586218
-0.00717080979
-0.00716597366
-0.00692361062
-0.00691817564
-0.00692302737
-0.00691630129
-0.00692107349
-0.00705997772
-0.00717167279
-0.00716450606
-0.00692121642
-0.0069143118
-0.00713590866
-0.00714474435
-0.0069187955
-0.00691525287
-0.00703556122
-0.00712416259
-0.00714730068
-0.00714330922
-0.0069180795
-0.00691630732
-0.00705375403
-0.00714057882
-0.00714206514
-0.00715117018
-0.0071649358
-0.00706450877
-0.00691781195
-0.00691044914
-0.00691711992
-0.0069128014
-0.00710283279
-0.00713598602
-0.00691529626
-0.00691539742
-0.00705782766
-0.00712980662
-0.00714834838
-0.00714711552
-0.0069143976
-0.00691665772
-0.0070923504
-0.00715828904
-0.00715217423
-0.00691711277
-0.00691292818
-0.00711124287
-0.00712539841
-0.00691650212
-0.00691360665
-0.00701228645
-0.00712614541
-0.00713169465
-0.00715061774
-0.00714475773
-0.00691461872
-0.00707128611
-0.00715294068
-0.00691122809
-0.00691660781
-0.00707507806
-0.00715569784
-0.00712129381
-0.00691686979
-0.00691175872
-0.00691860044
-0.00706936089
-0.00715710731
-0.00715217175
-0.00691567265
-0.00691724559
-0.00708674193
-0.00716392286
-0.00715880118
-0.00691992386
-0.00691738337
-0.00714376333
-0.00715530283
-0.00692018946
-0.00691879557
-0.0069208684
-0.00691826083
-0.00709818868
-0.00715832501
-0.00714501605
-0.00717117167
-0.00716825337
-0.00691554121
-0.00691879093
-0.0070762936
-0.00716229558
-0.00714116666
-0.00691945494
-0.00705354855
-0.00715629434
-0.00691513187
-0.00692243248
-0.0070598872
-0.0071687207
-0.0071539816
-0.00692219209
-0.00691769925
-0.00692135607
-0.00691605839
-0.00691931638
-0.00712084992
-0.00718228631
-0.00717532764
-0.00691723538
-0.00691738281
-0.00706582772
-0.00714254391
-0.00713221948
-0.007153478
-0.0071493083
-0.00691668606
-0.00691683205
-0.00711009115
-0.00714321386
-0.0069154623
-0.00691997372
-0.00706779954
-0.00716726684
-0.00715534341
-0.006918843
-0.00691749818
-0.00691943141
-0.00691657859
-0.00691889468
-0.00712213237
-0.00715157374
-0.00716275478
-0.00716199678
-0.00691710917
-0.006921382
-0.00713215889
-0.0071874974
-0.00718141201
-0.00692407279
-0.00692592541
-0.00692528822
-0.00692301289
-0.00715443096
-0.00716380478
-0.00691994171
-0.00692325185
-0.00703520227
-0.00713860554
-0.00717828506
-0.00717238701
-0.00691769803
-0.00691772691
-0.00691907157
-0.00691735144
-0.00712149311
-0.00715611672
-0.00715273996
-0.00715056089
-0.0069155398
-0.00691772203
-0.00705539782
-0.00713712573
-0.00716298403
-0.00715829667
-0.00691716721
-0.00691608507
-0.00714889835
-0.00715003715
-0.0069169955
-0.0069179537
-0.00715085241
-0.00714723957
-0.00691659237
-0.00691816252
-0.00691834816
-0.00713865115
-0.00716695353
-0.00691247713
-0.00691883654
-0.00710396768
-0.00717289721
-0.00716010285
-0.0069161333
-0.00691395124
-0.00713567386
-0.00714446253
-0.00691211338
-0.0069156029
-0.00706507148
-0.00712736251
-0.00714235142
-0.00712994629
-0.00691290664
-0.00709543935
-0.0071513151
-0.00691432954
-0.00691575365
-0.00714238977
-0.00714792039
-0.00691679658
-0.00692016432
-0.00715761707
-0.00715487375
-0.00691732084
-0.00692198922
-0.00691867897
-0.00716322755
-0.00718342276
-0.00691900356
-0.0069226861
-0.00716214838
-0.00715622097
-0.00691919408
-0.00692270001
-0.00692054973
-0.00712762463
-0.00716604626
-0.00717321338
-0.00716800879
-0.0069187803
-0.00692286787
-0.00691939824
-0.00714821968
-0.00716834291
-0.00691725277
-0.00692292123
-0.00691791755
-0.00692224186
-0.00713469193
-0.0071627975
-0.007153012
-0.00716380429
-0.00718147726
-0.00717255854
-0.00692098268
-0.00692468936
-0.00692139949
-0.00692516705
-0.00692144784
-0.00692273203
-0.00716891792
-0.00718036205
-0.00691663367
-0.00692049621
-0.00713238864
-0.00718433908
-0.0071429185
-0.00691833551
-0.0069152314
-0.00691650469
-0.00710866834
-0.00714950806
-0.00714349009
-0.00715139833
-0.00717452188
-0.0071584404
-0.00692096105
-0.00691860851
-0.00692250649
-0.00691931128
-0.00692303427
-0.00713719427
-0.00719494735
-0.00715213958
-0.00692380021
-0.00691649526
-0.00715809687
-0.00714528445
-0.00691896659
-0.00691730341
-0.0069172957
-0.00712420313
-0.00714775211
-0.00691400609
-0.00692243336
-0.00708789474
-0.00718990581
-0.0071448374
-0.00692354838
-0.00691569333
-0.00691787226
-0.00713735882
-0.00718510867
-0.00714400993
-0.0069185591
-0.00691531256
-0.00709776973
-0.00715691224
-0.00713157292
-0.00691268811
-0.00691161015
-0.00714233977
-0.00715312254
-0.00690607373
-0.00691061249
-0.00709236169
-0.00717927911
-0.00714754248
-0.00690621864
-0.00690365184
-0.0071500975
-0.00715731072
-0.00690011321
-0.00690187581
-0.00712251116
-0.00718250942
-0.00714510618
-0.00689538778
-0.00689111503
-0.00688921231
-0.00688704812
-0.00688365327
-0.00688122093
-0.0071601924
-0.00716152428
-0.00687692147
-0.00687475117
-0.0068714263
-0.00714799538
-0.0071470908
-0.00686482831
-0.00685906564
-0.00685709253
-0.00684986046
-0.0068474005
-0.00683849085
-0.00683483387
-0.00682445648
-0.00681909918
-0.00680728434
-0.00679957749
-0.00678642243
-0.00677562605
-0.00676086048
-0.00674575989
-0.00672863242
-0.0067067691
-0.00668380498
-0.00664602482
-0.00660677372
-0.0065823695
-0.00656171147
-0.0065344009
-0.00651178133
-0.00648130892
-0.00645602431
-0.0064227107
-0.00639451356
-0.00635482834
-0.00631433931
-0.0062335118
-0.00617763831
-0.00610867519
-0.00605844191
-0.00598624374
-0.00593399981
-0.00585907303
-0.00580960007
-0.00574950119
-0.00569798307
-0.00563046979
-0.0055593661
-0.00538570733
-0.00516522011
-0.00508867585
-0.00500014234
-0.00490744743
-0.00480192783
-0.00468922541
-0.00456341802
-0.00442288003
-0.00427305099
-0.00409902263
-0.00387086303
-0.00356189142
-0.00333369377
-0.00304343717
-0.00272441826
-0.00230945681
-0.00191912997
-0.00167525195
-0.00124858899
-0.00122599996
-0.00100965632
-0.000598540123
-0.000331656929
9.99654262e-05
0.000374184222
0.000779557924
0.0009896245
0.00130718
0.00162050421
0.00192681981
0.00215501908
0.00241268812
0.00271423537
0.00296824102
0.00326635141
0.00350249623
0.00373816551
0.00393907198
0.00416346675
0.00435255408
0.0045972476
0.00477895233
0.00499904362
0.00515954918
0.00535276985
0.00549202025
0.00566242264
0.0057833369
0.0059325059
0.0060357693
0.00616264109
0.00624404619
0.00634779245
0.00640961394
0.0064919294
0.00654149121
0.00660343018
0.00664275226
0.00668790587
0.00672159934
0.00677239473
0.00680970305
0.00685336008
0.00688631762
0.00692335096
0.00695262505
0.0069836794
0.0070090593
0.00703602227
0.00705909662
0.00708097308
0.00709958948
0.00711858313
0.00713702419
0.00715599862
0.00717399584
0.00719133222
0.00720847266
0.00722487186
0.00724107482
0.00725638924
0.00727147384
0.00728557711
0.00729977575
0.00731299207
0.00732568678
0.00733762139
0.007349862
0.00736126779
0.00737302361
0.0073839656
0.0073951209
0.00740547425
0.00741622688
0.00742625345
0.00743665776
0.00744637262
0.00745635819
0.00746565522
0.00747524584
0.00748421884
0.00749345352
0.00750212197
0.00751102264
0.00751895148
0.0075270326
0.00753456771
0.00754220317
0.00754910096
0.00755611356
0.00756276645
0.00756959003
0.00757607322
0.00758271676
0.00758905854
0.00759559249
0.00760179982
0.00760813782
0.00761416326
0.00762031484
)
;

boundaryField
{
    closed
    {
        type            zeroGradient;
    }
    open
    {
        type            zeroGradient;
    }
    sides
    {
        type            empty;
    }
    procBoundary4to3
    {
        type            processor;
        value           uniform -0.00691678728;
    }
    procBoundary4to5
    {
        type            processor;
        value           uniform 0.00762616557;
    }
}


// ************************************************************************* //
