/*--------------------------------*- C++ -*----------------------------------*\
| =========                 |                                                 |
| \\      /  F ield         | OpenFOAM: The Open Source CFD Toolbox           |
|  \\    /   O peration     | Version:  2306                                  |
|   \\  /    A nd           | Website:  www.openfoam.com                      |
|    \\/     M anipulation  |                                                 |
\*---------------------------------------------------------------------------*/
FoamFile
{
    version     2.0;
    format      ascii;
    arch        "LSB;label=32;scalar=64";
    class       volScalarField;
    location    "0.00102";
    object      H2O;
}
// * * * * * * * * * * * * * * * * * * * * * * * * * * * * * * * * * * * * * //

dimensions      [0 0 0 0 0 0 0];

internalField   nonuniform List<scalar> 
530
(
0.0038578298
0.00458537628
0.00451283098
0.00450761044
0.00450714695
0.00450713603
0.00450713544
0.00450713543
0.00450713542
0.00450713542
0.00450713542
0.00450713542
0.00450713542
0.00450713542
0.00450713542
0.00450713542
0.00450713542
0.00450713542
0.00450713542
0.00450713542
0.00450713542
0.00450713542
0.00450713542
0.00450713542
0.00450713542
0.00450713542
0.00450713542
0.00450713542
0.00450713542
0.00450713542
0.00450713542
0.00450713542
0.00450713542
0.00450713542
0.00450713542
0.00450713542
0.00450713542
0.00450713542
0.00450713542
0.00450713542
0.00450713542
0.00450713542
0.00450713542
0.00450713542
0.00450713542
0.00450713542
0.00450713542
0.00450713542
0.00450713542
0.00450713542
0.00450713542
0.00450713542
0.00450713542
0.00450713542
0.00450713542
0.00450713542
0.00450713542
0.00450713542
0.00450713542
0.00450713542
0.00450713542
0.00450713543
0.00450713543
0.00450713543
0.00450713544
0.00450713547
0.00450713555
0.00450713578
0.00450713629
0.00450713812
0.00450714145
0.0045071504
0.00450716662
0.00450721343
0.00450725215
0.00450736372
0.0045081812
0.00450818704
0.00450266963
0.00450364976
0.00455591561
0.00457220022
0.00431763265
0.00425892614
0.0052012205
0.00615598089
0.00347929181
0.000755259984
0.00514272803
0.00712887407
0.006273069
0.000928962014
0.00104472822
0.00562203274
0.00757721687
0.00692018492
0.000812355769
0.00110674935
0.00110379083
0.00575380701
0.00702795436
0.00734975047
0.00735747556
0.000821048544
0.00106073685
0.0010425323
0.00107505941
0.00501107617
0.00695571271
0.00740351047
0.00740180805
0.000757295697
0.00104667784
0.00594088467
0.00704882535
0.00765127758
0.00764805724
0.000810542552
0.0010408747
0.000943912556
0.00108468557
0.00108457396
0.00564363535
0.0075767188
0.00758513395
0.000788378124
0.00102914997
0.00569219365
0.00745315197
0.00743543637
0.000804969799
0.00105386372
0.00640040384
0.00699033467
0.000776143196
0.00106815384
0.00650030965
0.00702372342
0.000763124137
0.00106192429
0.00653311751
0.00710172941
0.000765657728
0.00104039179
0.00587710323
0.00749367338
0.00749228071
0.000817976271
0.00105599334
0.00637163495
0.00694991302
0.000781323085
0.00107121776
0.0064568431
0.00701588839
0.000780580139
0.00105253052
0.00576176182
0.00736622321
0.00735922223
0.000838438624
0.00107038893
0.00626477982
0.00685496696
0.00080042287
0.00108137591
0.00640488535
0.00694792122
0.00079418326
0.00105634266
0.00581449883
0.00739401916
0.00739817856
0.000829379554
0.00106410609
0.00576677691
0.00687155552
0.00716347804
0.00716666694
0.000828637017
0.00108067374
0.00625134344
0.00680971137
0.000816552375
0.00108572575
0.00641547729
0.0069435484
0.000805220983
0.00106023263
0.00580174195
0.00732857269
0.0073357945
0.000872632796
0.00107171756
0.00633286169
0.00694170132
0.000814703798
0.00105829709
0.00589324773
0.0073814549
0.0073796266
0.000842539996
0.00104471249
0.00582125576
0.0073985443
0.00739893699
0.000848254946
0.00105960228
0.0064836717
0.00702629916
0.000795070302
0.00106591733
0.00660080124
0.00710164083
0.000779643595
0.00105807508
0.0066470093
0.00715588534
0.000769590475
0.00105357488
0.00667313818
0.00717917345
0.000763792593
0.00105213446
0.00667915486
0.00717875536
0.000761879616
0.00105309688
0.00666626373
0.00715806997
0.000762358511
0.00105598179
0.0066542775
0.00712856253
0.000761241791
0.00105692706
0.00665887064
0.0071604964
0.000770818221
0.00103664118
0.00613288278
0.00753822874
0.00753548134
0.000842872676
0.00105689807
0.00645619229
0.00697977143
0.000789803989
0.00107223897
0.00651902328
0.00702169829
0.000792460275
0.00105318133
0.00595071312
0.00736411197
0.00737020285
0.000874850741
0.00107100093
0.00636492096
0.00693007157
0.000811960119
0.00106420115
0.00586747897
0.00728016905
0.00728512357
0.00088688465
0.00107515537
0.00635075794
0.00691973168
0.000815881899
0.00108041741
0.00598112342
0.00687895704
0.00708156988
0.00708964772
0.000867922862
0.00108979742
0.00621982688
0.00682444034
0.000836936856
0.00107009453
0.00572418964
0.00727155175
0.00674435048
0.000932325558
0.00113503993
0.00113031967
0.00590742459
0.006884191
0.00715508429
0.00714636807
0.000869729642
0.00107338031
0.00560320737
0.00711859282
0.00710892189
0.000958336387
0.00108288968
0.00557458224
0.00711803432
0.00711430104
0.000962443434
0.00108089151
0.00566666468
0.00714593985
0.00714370921
0.000936315452
0.00107017552
0.00577376554
0.0072096912
0.00721496182
0.000931052777
0.00108036319
0.00647339214
0.00695414766
0.000861148143
0.00106047881
0.00618135918
0.00738520584
0.00738879833
0.00092782159
0.00107184219
0.00660123107
0.00698932643
0.000793393769
0.00105821887
0.00100117912
0.00104229587
0.00616901483
0.00732464231
0.00744566347
0.00744976975
0.000846132329
0.00105895941
0.00659419741
0.00700766444
0.0008454326
0.00107516137
0.00667269447
0.00706632879
0.000848021587
0.00105286519
0.00626848039
0.00739554692
0.00735465603
0.00094703532
0.00107972626
0.00644852689
0.00685769482
0.000872786861
0.00109299219
0.00650395285
0.0068955193
0.000875345937
0.00106936089
0.0061276666
0.00732179032
0.0073148055
0.000950847454
0.001063982
0.00639476612
0.00717852594
0.00762685325
0.00762107557
0.000789996451
0.00105035563
0.000977664709
0.00108368074
0.00108563046
0.00642008492
0.0076944329
0.00762032149
0.000920670145
0.00104255223
0.00633853173
0.00725802929
0.00693033624
0.00728509073
0.0066561716
0.000941492525
0.00110776646
0.00106356134
0.00108024681
0.00641394237
0.0071541398
0.000844616901
0.00104163705
0.00637555974
0.00749649103
0.00742551599
0.000928599923
0.00106956542
0.00661226444
0.00704864346
0.000847596585
0.00104851685
0.00640937551
0.00754329949
0.00748101456
0.000910950874
0.00108286139
0.00667339472
0.00676129732
0.00088590827
0.00609145123
0.00701019532
0.000808872534
0.0011038483
0.00102596822
0.00656863389
0.00719172665
0.00079392743
0.00107408124
0.00106842504
0.00668956226
0.00749865644
0.00714631941
0.0074576512
0.00723308138
0.000938896032
0.00109508261
0.00654693765
0.00682861881
0.000824296239
0.00111280353
0.00108448193
0.00655801396
0.00715456921
0.000834113987
0.00104257433
0.00640260067
0.00750272912
0.00742086847
0.000923981857
0.00107430298
0.00661067037
0.00694892786
0.000818505944
0.00110608368
0.00108675125
0.00638735975
0.00746218279
0.00737429598
0.000936831503
0.00106019463
0.00620172969
0.00726782334
0.00725300719
0.000958170194
0.00106938287
0.00613229506
0.00722338608
0.00718554284
0.000964394966
0.00107234925
0.00620405697
0.00723398752
0.0072340619
0.000953619716
0.00106457273
0.00610437895
0.00727871661
0.00693589293
0.000929475666
0.00108424236
0.00105186306
0.00105092717
0.00628453558
0.00761765433
0.00748518824
0.000939193672
0.00104262441
0.00650448762
0.00741161687
0.00739022502
0.000948618809
0.00107177789
0.00665256842
0.00701793165
0.000868395719
0.00107865519
0.00669797986
0.00703653934
0.000859285778
0.0010757456
0.00674901731
0.00707991656
0.000859581106
0.00105499625
0.00652127295
0.00741364024
0.00733187934
0.000948001833
0.00107845991
0.00661430122
0.00696033698
0.000869454343
0.00108319775
0.00668767694
0.00702568228
0.000864931787
0.00106072879
0.00647680204
0.00734536332
0.00725998968
0.000953970587
0.00108510095
0.00655735802
0.00690556071
0.000876140547
0.00108916722
0.00663185288
0.00697361579
0.00086645999
0.00106018349
0.00651647101
0.00744853887
0.0074154735
0.000925902328
0.0010592484
0.00685168193
0.00724137967
0.000827616786
0.00106137975
0.00674838106
0.00708295583
0.00084913533
0.00107893689
0.00661402442
0.00694661803
)
;

boundaryField
{
    closed
    {
        type            calculated;
        value           uniform 5.27378225e-07;
    }
    open
    {
        type            calculated;
        value           nonuniform List<scalar> 0();
    }
    sides
    {
        type            empty;
    }
    procBoundary0to1
    {
        type            processor;
        value           uniform 0.000868903939;
    }
}


// ************************************************************************* //
