/*--------------------------------*- C++ -*----------------------------------*\
| =========                 |                                                 |
| \\      /  F ield         | OpenFOAM: The Open Source CFD Toolbox           |
|  \\    /   O peration     | Version:  2306                                  |
|   \\  /    A nd           | Website:  www.openfoam.com                      |
|    \\/     M anipulation  |                                                 |
\*---------------------------------------------------------------------------*/
FoamFile
{
    version     2.0;
    format      ascii;
    arch        "LSB;label=32;scalar=64";
    class       volScalarField;
    location    "0.00102";
    object      prefDh_T;
}
// * * * * * * * * * * * * * * * * * * * * * * * * * * * * * * * * * * * * * //

dimensions      [1 1 -3 -1 0 0 0];

internalField   nonuniform List<scalar> 
530
(
-0.000862044124
-0.000632238687
-0.000591955586
-0.000591261701
-0.000591196632
-0.000591194634
-0.000591194505
-0.000591194501
-0.000591194501
-0.000591194501
-0.000591194501
-0.000591194501
-0.000591194501
-0.000591194501
-0.000591194501
-0.000591194501
-0.000591194501
-0.000591194501
-0.000591194501
-0.000591194501
-0.000591194501
-0.000591194501
-0.000591194501
-0.000591194501
-0.000591194501
-0.000591194501
-0.000591194501
-0.000591194501
-0.000591194501
-0.000591194501
-0.000591194501
-0.000591194501
-0.000591194501
-0.000591194501
-0.000591194501
-0.000591194501
-0.000591194501
-0.000591194501
-0.000591194501
-0.000591194501
-0.000591194501
-0.000591194501
-0.000591194501
-0.000591194501
-0.000591194501
-0.000591194501
-0.000591194501
-0.000591194501
-0.000591194501
-0.000591194501
-0.000591194501
-0.000591194501
-0.000591194501
-0.000591194501
-0.000591194501
-0.000591194501
-0.000591194501
-0.000591194501
-0.000591194501
-0.000591194501
-0.000591194501
-0.000591194501
-0.000591194501
-0.000591194502
-0.000591194503
-0.00059119451
-0.000591194527
-0.000591194578
-0.000591194687
-0.000591195067
-0.000591195741
-0.000591197778
-0.000591201261
-0.000591209813
-0.000591224411
-0.000591254957
-0.000591290493
-0.000591391117
-0.000591563089
-0.000591774796
-0.000591318338
-0.000591705033
-0.000595188858
-0.000597371075
-0.000589332247
-0.000603660298
-0.000612306036
-0.000725757451
-0.000586082958
-0.000527089878
-0.000595459583
-0.000728971231
-0.000748162191
-0.000587526839
-0.000472848062
-0.000550937394
-0.000735835083
-0.000748547437
-0.000748834479
-0.000590676623
-0.000537959973
-0.000500233777
-0.000499286954
-0.000728829355
-0.000742062677
-0.000736005198
-0.000744755841
-0.000596513029
-0.000546653507
-0.000493761003
-0.000493957116
-0.000726633687
-0.000742134115
-0.000606038089
-0.000536177873
-0.000463239389
-0.00046421412
-0.000715255427
-0.000741118291
-0.000728150092
-0.00074434858
-0.000737182148
-0.000592977184
-0.000472766414
-0.000471941127
-0.000729486858
-0.000738479856
-0.000594926261
-0.000487683369
-0.000489915373
-0.000723948269
-0.000745019029
-0.000613554812
-0.000542568949
-0.000726535402
-0.000747203339
-0.000601816091
-0.000538568255
-0.000727287911
-0.000746342406
-0.000597480761
-0.000529596561
-0.000732028352
-0.000741797069
-0.000596319585
-0.000482797682
-0.000483118354
-0.000725763307
-0.000745032056
-0.000613771192
-0.000547324831
-0.000728613181
-0.000746362769
-0.000606387273
-0.000539715717
-0.000732008599
-0.000741952972
-0.000596186757
-0.000498286664
-0.000499028173
-0.000725197492
-0.000744479458
-0.000612374563
-0.000558485368
-0.000728444715
-0.000745931023
-0.000612568016
-0.000547757207
-0.000731871526
-0.000741894537
-0.000596614386
-0.00049492157
-0.00049437365
-0.000729909773
-0.00074498781
-0.000600260858
-0.000556571322
-0.000522792036
-0.000521880258
-0.000726603234
-0.000745225561
-0.000614424371
-0.000563796786
-0.000728100137
-0.000745457683
-0.000611324263
-0.000548329242
-0.000732187534
-0.0007412724
-0.000597501139
-0.000502842099
-0.000501876642
-0.000728739118
-0.000742376606
-0.000610361178
-0.000548602203
-0.00073207836
-0.000742299877
-0.000599779031
-0.000496444871
-0.000496648829
-0.000731052954
-0.000737881736
-0.000595586069
-0.000494345587
-0.0004942781
-0.000726714863
-0.000744813765
-0.000603755933
-0.000538337993
-0.000726622525
-0.000747070574
-0.000590208025
-0.000529359061
-0.000724936734
-0.000747433337
-0.000584826628
-0.000522974663
-0.00072443778
-0.000747188713
-0.000581740287
-0.000520248777
-0.000724231696
-0.000746884704
-0.00058103799
-0.00052031947
-0.000724091883
-0.000746519587
-0.000582577718
-0.00052279832
-0.000724280682
-0.000745759279
-0.000583916054
-0.00052637001
-0.000726037694
-0.000744068311
-0.000582898541
-0.000522757408
-0.00073193559
-0.000740226082
-0.000599320582
-0.000477334334
-0.000477929483
-0.000726286412
-0.000743965467
-0.000606852319
-0.000543888614
-0.000728112509
-0.00074557195
-0.000599314884
-0.000539060518
-0.000732201069
-0.000742185136
-0.000598389545
-0.000498540717
-0.00049775082
-0.000731210979
-0.000743039313
-0.000608231779
-0.000549922809
-0.00073512681
-0.00074228522
-0.000596196112
-0.000508660301
-0.000507851824
-0.000730859697
-0.000745846343
-0.000609370105
-0.000550628844
-0.00073394494
-0.000748698952
-0.000601036003
-0.00055554612
-0.000532540512
-0.000530984066
-0.00072954822
-0.000744553269
-0.000608580958
-0.000562133149
-0.000736279566
-0.000744837698
-0.000593467773
-0.000509543193
-0.000571274259
-0.000744127006
-0.000749717169
-0.00074727492
-0.000590945316
-0.000554952061
-0.000523353659
-0.000524365552
-0.000735763319
-0.000741405787
-0.000594562283
-0.000527865482
-0.000528918273
-0.000741799451
-0.000742578144
-0.000592915108
-0.000527821805
-0.000528244222
-0.000742878455
-0.00074260314
-0.000593220919
-0.000524536753
-0.000524721968
-0.000738444975
-0.000741148618
-0.000593086458
-0.000517078065
-0.000516179814
-0.000736320379
-0.000743857344
-0.000603432121
-0.000547085694
-0.000739574945
-0.000742234752
-0.000597832843
-0.000495991741
-0.000495500477
-0.000734486179
-0.000744571291
-0.0005894213
-0.000542649753
-0.000731646634
-0.00074717206
-0.000737555975
-0.000748846027
-0.000598783186
-0.000503045757
-0.000488699471
-0.000488188357
-0.000731852723
-0.000745764513
-0.000590414335
-0.000540534679
-0.000733400446
-0.000745976927
-0.00058069497
-0.000533745038
-0.000738611924
-0.000742775837
-0.000598150966
-0.000494743102
-0.000499554663
-0.000736388876
-0.000745482609
-0.000607086622
-0.000558119968
-0.000733259044
-0.000745213202
-0.000600743388
-0.000554069519
-0.000735975668
-0.00074019727
-0.000600164697
-0.000503658492
-0.000504407152
-0.000736402319
-0.000741676722
-0.000606783381
-0.000520708747
-0.000466492003
-0.000467526865
-0.000724595881
-0.000740625888
-0.000731457432
-0.000744637765
-0.00073990778
-0.000599003169
-0.000458499541
-0.000467671494
-0.000740385475
-0.000740944495
-0.00059693173
-0.000511270526
-0.000549356608
-0.000508075526
-0.000581576776
-0.000735056685
-0.00074741545
-0.000738535908
-0.000748246355
-0.0006044638
-0.000523328386
-0.000739453668
-0.000742213801
-0.00060119315
-0.000482510331
-0.000491128424
-0.000735924207
-0.000741353548
-0.000587688526
-0.000536050891
-0.000736976757
-0.000741532119
-0.000601384377
-0.000476879766
-0.000484464458
-0.000739505636
-0.000742555629
-0.000580094094
-0.000569770261
-0.000733643112
-0.000598897897
-0.000540855773
-0.000736323725
-0.000740952491
-0.000741672168
-0.000592465306
-0.000518906883
-0.000734752248
-0.000748405818
-0.000740420064
-0.000576497616
-0.000482307602
-0.000524075472
-0.000487231306
-0.000514129815
-0.000734880775
-0.000742678279
-0.000595658421
-0.000561743043
-0.000733283995
-0.000743486705
-0.000742390722
-0.000593455897
-0.000523474398
-0.000737479956
-0.00074079387
-0.000600313007
-0.000481738698
-0.000491679577
-0.000734237569
-0.000743068133
-0.000588184538
-0.000547510021
-0.000731641168
-0.000746411713
-0.000739536293
-0.000598118003
-0.00048670792
-0.000497269208
-0.00074037292
-0.000740636408
-0.000597933024
-0.000510095651
-0.000511799863
-0.000740283346
-0.000740355683
-0.000597291484
-0.000515420829
-0.000519830391
-0.000740661861
-0.000741001009
-0.000597970636
-0.000514124706
-0.00051403017
-0.000739431017
-0.000739952715
-0.000595262634
-0.000508838428
-0.000549206856
-0.000737575159
-0.000743505449
-0.00074242869
-0.000744934868
-0.000596666737
-0.000468005014
-0.000483960161
-0.000743401775
-0.000740120904
-0.000597332773
-0.000492797267
-0.000495307556
-0.000735633415
-0.000744932278
-0.000583238759
-0.00053927124
-0.000731457181
-0.000746820093
-0.00057822745
-0.000537060384
-0.000731765221
-0.000745718019
-0.000571854771
-0.00053216488
-0.000737242689
-0.000742176974
-0.000596838688
-0.000492557624
-0.000502245558
-0.000736016894
-0.000746072376
-0.000587627083
-0.000545933156
-0.000732554916
-0.000746922354
-0.000578993124
-0.000538426472
-0.000737205824
-0.000743662709
-0.00059947055
-0.000500784273
-0.000510772789
-0.00073675684
-0.000746154849
-0.000594237512
-0.000552387045
-0.000731894448
-0.000746109876
-0.000585679346
-0.000544676055
-0.000735474064
-0.000742177247
-0.000597537201
-0.000488336046
-0.000492302948
-0.000734739763
-0.000745745402
-0.000559789548
-0.00051284216
-0.000728043091
-0.00074759659
-0.000572466199
-0.00053157149
-0.00072775487
-0.00074573119
-0.000588092192
-0.000547867822
)
;

boundaryField
{
    closed
    {
        type            calculated;
        value           uniform -0.00449546113;
    }
    open
    {
        type            calculated;
        value           nonuniform List<scalar> 0();
    }
    sides
    {
        type            empty;
    }
    procBoundary0to1
    {
        type            processor;
        value           uniform -0.000733121901;
    }
}


// ************************************************************************* //
