/*--------------------------------*- C++ -*----------------------------------*\
| =========                 |                                                 |
| \\      /  F ield         | OpenFOAM: The Open Source CFD Toolbox           |
|  \\    /   O peration     | Version:  2306                                  |
|   \\  /    A nd           | Website:  www.openfoam.com                      |
|    \\/     M anipulation  |                                                 |
\*---------------------------------------------------------------------------*/
FoamFile
{
    version     2.0;
    format      ascii;
    arch        "LSB;label=32;scalar=64";
    class       volScalarField;
    location    "0.00194";
    object      h;
}
// * * * * * * * * * * * * * * * * * * * * * * * * * * * * * * * * * * * * * //

dimensions      [0 2 -2 0 0 0 0];

internalField   nonuniform List<scalar> 
531
(
6767.94114
-3830.22969
-5121.68618
-4891.38298
-6548.19769
-6546.15527
8743.05498
10056.7982
10016.8276
10198.4614
-221.129601
-4213.67021
9145.43814
10291.965
76.8514873
-3980.40254
-5276.09417
-5277.46102
8903.08069
10345.0951
9760.86848
10525.0478
5934.86832
-2661.04647
-6593.12322
-6590.91493
8860.36149
9941.07948
-3843.60833
-5481.42938
8850.27929
10072.65
-1481.22003
-4759.95292
-1005.31717
9983.25049
10456.4105
146.314343
-4738.3088
2818.27817
9989.911
10042.9626
10408.8879
10075.7997
-231.476652
-5117.71522
-4941.26714
-5137.6183
-7416.57344
-7044.3245
8708.10094
9985.60373
9042.57127
10044.0095
9008.91141
-5630.74092
-6542.84382
8691.73485
10120.1837
-2974.98938
-3967.23724
9330.76688
10462.2349
-28.2503198
-3145.66768
-5755.44946
-5755.65559
8656.5473
9777.98615
9669.97265
7579.19628
-3855.78131
-5360.50872
-4636.50472
-6331.41153
-5650.77158
9241.20536
10458.9044
10021.3281
-2147.32535
-3658.85459
8972.51465
10562.2719
9846.55336
3540.41229
-6265.25072
-6263.73914
9273.18478
9803.88994
-714.385524
-7125.93255
-7110.21949
9322.3761
9824.93049
-2431.32516
-6038.05569
2060.84299
9690.56887
9838.81104
9863.86173
9515.07066
-6013.46178
-6262.75863
8466.40457
-1107.39975
-7688.43061
9360.01238
9885.30084
-1325.18461
-4800.35063
-5590.74202
-4669.51175
9536.01069
10591.54
10233.7235
-1349.24165
-4525.4998
9670.53277
9953.30074
-413.382097
-7267.01099
-7223.76672
9388.96436
9819.60999
-2209.31144
-5694.20608
874.534266
9800.87849
10530.0208
10113.9853
10540.962
5375.35474
-2834.54505
-5770.28276
-5770.01894
9564.3229
9873.41538
-178.815027
-7167.06884
-5768.51953
9100.85671
-1492.03271
-7128.67727
9509.7375
9889.03151
-1964.85574
-5118.45105
-6906.00093
-6816.66074
8692.01379
10088.0718
9483.05589
10418.5167
10286.1097
-1884.54196
-3044.35222
9366.6429
10727.3522
10090.3376
1475.00897
-4284.91797
-6598.47659
-6601.05251
8938.492
9858.97872
-4465.24791
-6456.38364
9331.8833
9587.49115
-2185.04684
-9294.72068
-8629.18306
8604.78376
9670.60769
9246.67777
9732.291
9953.70726
6844.00849
-3279.279
-6389.15558
-6387.16518
9587.70327
9695.90936
-1524.81474
-8449.65807
-7948.05491
8966.56165
9797.91268
9856.39655
10032.7844
-1360.19901
-4059.0383
9776.25497
10379.4517
-1031.95806
-3840.68477
-7219.23247
-7033.08517
8325.3718
10050.0451
9131.40386
10394.6527
9970.50228
-889.567011
-6425.75247
-6340.20458
9709.69228
10080.4951
-1129.84871
-4411.208
-6287.09866
-6289.84179
8962.165
9995.25424
-4574.39767
-5414.04424
9047.31574
10159.273
-4612.6033
-4807.78613
9039.55266
10439.5774
10029.4418
-2627.58757
-4784.85238
9623.45868
10077.3141
281.17092
-6010.38867
-5742.08035
9635.02497
10187.7266
-2691.16353
-3845.71141
9673.69757
10468.7513
-166.43282
-3122.11144
-5372.70945
-4945.24559
9262.51371
-1486.63975
-6799.38541
9327.29932
9933.46072
-4175.47324
-5347.23749
9096.61897
10112.1109
-4919.41479
-4976.0078
8874.32217
10411.0294
9600.80618
-2540.96549
-5173.48412
9337.23633
10172.2939
-4247.01664
-4348.01103
9096.38691
10604.5607
9856.94598
438.442028
-4858.11732
-7051.03044
-6865.98982
8929.77381
10320.2414
9682.92555
858.28153
-6431.2018
-4778.27962
9186.83013
10379.0043
9286.33612
10478.7205
8147.97609
-3174.06103
-5115.3871
-5193.43965
-5310.00109
-7537.4402
-7269.5163
9114.1953
9952.65603
9949.26767
10185.8889
205.567136
-3874.91588
9877.9627
10209.859
1557.91122
-6081.0967
-5699.13246
9304.951
9894.46734
9945.87259
6438.972
-3464.05735
-4467.01312
-4833.77888
-4921.20917
-6758.99649
-6732.08878
9295.09514
9946.95375
9941.11463
9989.73723
3071.5189
-6464.24885
-6332.37986
9362.59682
10054.298
-4403.40232
-4675.15848
9041.53284
10432.375
9994.62726
-2824.77648
-5001.32654
9614.92766
9976.16387
361.100107
-6888.93154
-6449.14976
9087.85467
10164.2156
9753.37858
2698.56392
-6512.36046
-6456.46211
9380.64807
9795.45595
1386.77138
-7131.20131
-6953.50068
9059.92205
9777.64101
-5588.24442
-6307.90364
8332.18428
9709.6036
9050.30269
-6522.74789
-9040.02983
8121.64417
9128.68639
-7637.13141
-8811.21471
6819.34535
8180.05888
7419.66505
-11115.5734
-12848.9325
4100.01353
6187.05463
4884.85219
5841.89084
5270.39971
5582.04004
5260.4252
5305.96513
5066.61105
4999.09274
4771.24152
4673.1042
4466.93475
4362.67886
4192.7234
4100.23594
4001.3183
3960.51299
4017.58311
4179.39454
4705.66626
5818.0481
6202.81991
6165.73373
6168.99515
6098.13155
5958.17143
5782.61196
5493.12091
5196.18903
4709.86529
4327.40585
3951.8222
4049.89344
5500.6613
5701.2856
5747.83673
5545.01195
5196.31869
4502.86163
3780.85497
2542.35884
1342.81891
-468.903076
-1496.18967
-4177.62463
-4087.73285
6954.33243
8063.58017
5865.13931
5296.99367
3340.47786
2245.48989
114.762348
-1686.89789
-4029.6664
-6784.17742
-9607.53996
-12139.6509
-12642.7187
-13267.1962
-15375.0562
-15420.3708
-13964.7664
-18898.211
-22136.7068
-25968.5409
-25719.013
-31015.5564
-36999.1161
-37581.0928
-41247.6656
-42901.0016
-46144.7163
-47656.779
-49328.6073
-49295.8987
-48279.3907
-46267.4573
-47199.3464
-46842.806
-48338.3207
-48885.3688
-50822.8506
-52642.7031
-55068.2319
-57237.6281
-59936.8598
-62796.3387
-65553.6755
-68209.4282
-70566.3519
-72691.95
-74719.0498
-76364.6905
-78161.6264
-79550.8948
-81418.6569
-82950.4615
-85181.5742
-86590.1937
-87937.2868
-88340.4718
-88463.0938
-88082.6274
-87231.1348
-86221.5882
-84590.072
-82987.0417
-80600.7343
-77917.384
-74502.3937
-71662.6464
-69802.912
-68185.1294
-66490.9247
-64964.7727
-63411.6709
-62016.7488
-60671.8632
-58837.8822
-56855.0912
-54855.0801
-52729.6379
-50909.6776
-48984.1914
-46949.5678
-45309.736
-43544.4751
-42089.1838
-40479.6452
-39187.3107
-37681.4713
-36415.9102
-34992.3691
-33940.6444
-32688.0989
-31656.7156
-30452.2778
-29362.8331
-27982.7488
-26613.1929
-25197.4938
-23955.6986
-22699.2033
-21553.2517
-20560.1313
-19759.2677
-18946.0424
-18155.8816
-17388.5118
-16606.1778
-15877.4005
-15144.0748
-14524.9301
-13829.5424
-13228.2587
-12523.3672
-11935.7119
-11220.6073
-10642.2025
-9916.05358
-9382.99501
-8811.3354
-8403.26265
-7833.47931
-7437.83159
-6870.51288
-6441.51795
-5818.1756
-5401.5802
-4793.82087
-4394.4017
-3801.10795
-3415.84706
-2926.48279
)
;

boundaryField
{
    closed
    {
        type            lookUpEnthalpy;
        h0              nonuniform List<scalar> 0();
        value           nonuniform List<scalar> 0();
    }
    open
    {
        type            zeroGradient;
    }
    sides
    {
        type            empty;
    }
    procBoundary4to3
    {
        type            processor;
        value           uniform 9741.59381;
    }
    procBoundary4to5
    {
        type            processor;
        value           uniform -2657.45498;
    }
}


// ************************************************************************* //
