/*--------------------------------*- C++ -*----------------------------------*\
| =========                 |                                                 |
| \\      /  F ield         | OpenFOAM: The Open Source CFD Toolbox           |
|  \\    /   O peration     | Version:  2306                                  |
|   \\  /    A nd           | Website:  www.openfoam.com                      |
|    \\/     M anipulation  |                                                 |
\*---------------------------------------------------------------------------*/
FoamFile
{
    version     2.0;
    format      ascii;
    arch        "LSB;label=32;scalar=64";
    class       volScalarField;
    location    "0.00194";
    object      prefDZ_H2;
}
// * * * * * * * * * * * * * * * * * * * * * * * * * * * * * * * * * * * * * //

dimensions      [1 -1 -1 0 0 0 0];

internalField   nonuniform List<scalar> 
531
(
6.28757127e-05
6.19236287e-05
6.15704175e-05
6.16440141e-05
6.11823153e-05
6.11979364e-05
6.34479743e-05
6.35724276e-05
6.35344736e-05
6.36096643e-05
6.23112109e-05
6.18257677e-05
6.35305761e-05
6.36344688e-05
6.23042984e-05
6.18853932e-05
6.15387697e-05
6.15452164e-05
6.34443278e-05
6.35774197e-05
6.34599486e-05
6.3588266e-05
6.27143936e-05
6.22211342e-05
6.1158617e-05
6.11919759e-05
6.34763459e-05
6.35731477e-05
6.19199422e-05
6.14880454e-05
6.35377402e-05
6.35657008e-05
6.22679712e-05
6.16760342e-05
6.22472832e-05
6.35392241e-05
6.36508462e-05
6.22939791e-05
6.16892625e-05
6.23703782e-05
6.35738004e-05
6.36288864e-05
6.35934951e-05
6.35919907e-05
6.22968878e-05
6.15820706e-05
6.1629893e-05
6.15725877e-05
6.09340227e-05
6.10378797e-05
6.33964118e-05
6.3478888e-05
6.33518494e-05
6.34856274e-05
6.34335194e-05
6.14385685e-05
6.1167349e-05
6.3448868e-05
6.35098264e-05
6.2147214e-05
6.18858462e-05
6.34829922e-05
6.35273651e-05
6.23543082e-05
6.21024069e-05
6.13961074e-05
6.13960188e-05
6.34369079e-05
6.34165481e-05
6.34738246e-05
6.3058351e-05
6.19163812e-05
6.14974923e-05
6.17094652e-05
6.1240054e-05
6.14345231e-05
6.35093022e-05
6.3538943e-05
6.35342555e-05
6.23574522e-05
6.19677387e-05
6.35191085e-05
6.35397622e-05
6.35112195e-05
6.24346833e-05
6.12618589e-05
6.12664395e-05
6.35011643e-05
6.35095124e-05
6.23503523e-05
6.10146629e-05
6.10294101e-05
6.35190003e-05
6.35019002e-05
6.22818804e-05
6.13121612e-05
6.23352276e-05
6.34466411e-05
6.35386191e-05
6.34569119e-05
6.35235912e-05
6.1325356e-05
6.12598231e-05
6.34544161e-05
6.2351402e-05
6.08467605e-05
6.35501114e-05
6.35196e-05
6.23265415e-05
6.16637709e-05
6.14572434e-05
6.16998871e-05
6.35629788e-05
6.3553694e-05
6.35485624e-05
6.23254625e-05
6.17387405e-05
6.35897105e-05
6.35384687e-05
6.23055433e-05
6.09898992e-05
6.10131652e-05
6.35791802e-05
6.35420065e-05
6.22896369e-05
6.14162443e-05
6.22732895e-05
6.34831618e-05
6.36246639e-05
6.34730666e-05
6.35806342e-05
6.26232367e-05
6.21818925e-05
6.13917177e-05
6.13991454e-05
6.35408445e-05
6.34985559e-05
6.23266648e-05
6.09988355e-05
6.14097939e-05
6.35025606e-05
6.23149977e-05
6.10151221e-05
6.3575969e-05
6.35104979e-05
6.23405232e-05
6.15726957e-05
6.10893584e-05
6.11089404e-05
6.35018338e-05
6.35215872e-05
6.3507136e-05
6.35434741e-05
6.35398321e-05
6.23551807e-05
6.21281735e-05
6.35544459e-05
6.35544315e-05
6.35431972e-05
6.23403018e-05
6.18020257e-05
6.117414e-05
6.11745561e-05
6.35056836e-05
6.35143309e-05
6.17551629e-05
6.12033687e-05
6.35156524e-05
6.34715929e-05
6.23497728e-05
6.0346742e-05
6.05889857e-05
6.34104509e-05
6.34523403e-05
6.34133038e-05
6.34218715e-05
6.34202996e-05
6.28746013e-05
6.20664936e-05
6.12094382e-05
6.12123834e-05
6.34941013e-05
6.34649548e-05
6.2349887e-05
6.06164239e-05
6.08021368e-05
6.34701489e-05
6.35325169e-05
6.35053678e-05
6.35461311e-05
6.23717641e-05
6.18620848e-05
6.35046284e-05
6.35356918e-05
6.23734033e-05
6.19190257e-05
6.09766991e-05
6.10519271e-05
6.34458237e-05
6.35353836e-05
6.34201821e-05
6.35580134e-05
6.3458051e-05
6.23213764e-05
6.1202577e-05
6.12527827e-05
6.34933567e-05
6.35471507e-05
6.23703896e-05
6.17681542e-05
6.12507767e-05
6.12639785e-05
6.34477035e-05
6.35473597e-05
6.17236901e-05
6.15038395e-05
6.34728117e-05
6.35565961e-05
6.17158934e-05
6.1665454e-05
6.34933467e-05
6.35582068e-05
6.35479962e-05
6.22318783e-05
6.16646724e-05
6.35448656e-05
6.35025403e-05
6.22951098e-05
6.13305845e-05
6.14186212e-05
6.35182113e-05
6.35678878e-05
6.22179279e-05
6.19189298e-05
6.35107186e-05
6.35431562e-05
6.2328993e-05
6.21083589e-05
6.15108506e-05
6.16245919e-05
6.35247327e-05
6.23383942e-05
6.11160955e-05
6.34924288e-05
6.35223259e-05
6.18328508e-05
6.15167037e-05
6.34747919e-05
6.3536289e-05
6.16348723e-05
6.16175692e-05
6.34913279e-05
6.35332071e-05
6.35288828e-05
6.22559274e-05
6.15623778e-05
6.3496148e-05
6.35434446e-05
6.18145783e-05
6.17865665e-05
6.3508361e-05
6.35583516e-05
6.35476079e-05
6.23194275e-05
6.16483215e-05
6.10581474e-05
6.11062658e-05
6.35289141e-05
6.35751212e-05
6.3535511e-05
6.23044083e-05
6.12016384e-05
6.1675942e-05
6.34200101e-05
6.35724323e-05
6.33817527e-05
6.35726972e-05
6.32281225e-05
6.2091979e-05
6.15610903e-05
6.15630525e-05
6.15224727e-05
6.0917743e-05
6.09869826e-05
6.35254275e-05
6.35341826e-05
6.35458363e-05
6.35431646e-05
6.2325176e-05
6.19107405e-05
6.35572169e-05
6.35242913e-05
6.23275418e-05
6.13150509e-05
6.14227105e-05
6.35257076e-05
6.34872108e-05
6.35152968e-05
6.28512797e-05
6.20187937e-05
6.17508774e-05
6.1655891e-05
6.16329308e-05
6.11341477e-05
6.11398111e-05
6.35365119e-05
6.3527305e-05
6.35613167e-05
6.35303252e-05
6.23969821e-05
6.12206394e-05
6.12631138e-05
6.3582298e-05
6.36011229e-05
6.1775044e-05
6.17048837e-05
6.35683107e-05
6.35981564e-05
6.35890876e-05
6.21793564e-05
6.1613595e-05
6.36270435e-05
6.35584588e-05
6.22683425e-05
6.11049353e-05
6.12402454e-05
6.35821797e-05
6.3621159e-05
6.35833799e-05
6.2362012e-05
6.12242889e-05
6.12419585e-05
6.37026731e-05
6.36469866e-05
6.22566268e-05
6.10722221e-05
6.11352099e-05
6.37242174e-05
6.37859793e-05
6.14830698e-05
6.13121135e-05
6.38155694e-05
6.38798169e-05
6.38445253e-05
6.12675475e-05
6.06634242e-05
6.39634967e-05
6.40362883e-05
6.10119753e-05
6.07602533e-05
6.37920744e-05
6.399422e-05
6.38875939e-05
6.03036689e-05
5.99752986e-05
6.34195283e-05
6.37493066e-05
6.35548194e-05
6.37255152e-05
6.36414456e-05
6.37214529e-05
6.36806597e-05
6.37241562e-05
6.37025028e-05
6.37332761e-05
6.37207663e-05
6.37530559e-05
6.37525276e-05
6.37940399e-05
6.38104929e-05
6.38706196e-05
6.39151639e-05
6.40119991e-05
6.41126688e-05
6.42933175e-05
6.45621615e-05
6.50672257e-05
6.48966326e-05
6.46477444e-05
6.43899933e-05
6.41776604e-05
6.39637158e-05
6.37978298e-05
6.36392377e-05
6.35328949e-05
6.34394949e-05
6.33129536e-05
6.31385065e-05
6.30849365e-05
6.3117098e-05
6.29955697e-05
6.28270483e-05
6.27774744e-05
6.2672713e-05
6.26984196e-05
6.26523123e-05
6.27003244e-05
6.23183693e-05
6.22112939e-05
6.18095697e-05
6.17205605e-05
6.14679468e-05
6.542008e-05
6.50039116e-05
6.47587145e-05
6.40694962e-05
6.37318177e-05
6.31056456e-05
6.26844276e-05
6.21137938e-05
6.16202114e-05
6.10774315e-05
6.05080215e-05
6.0398747e-05
6.05918523e-05
6.14256037e-05
6.09512092e-05
6.07239007e-05
6.08340582e-05
6.38821178e-05
6.75137803e-05
6.85606623e-05
7.00042064e-05
7.08253197e-05
8.27179519e-05
8.38396111e-05
8.67055618e-05
8.83874735e-05
9.20182766e-05
9.51291186e-05
0.000100249716
0.000105034717
0.000113994096
0.000118911348
0.000123235612
0.000126717771
0.000130819121
0.000134994607
0.000137861955
0.000140369091
0.000142867798
0.000145120127
0.000147336063
0.000149605453
0.000151551348
0.000153678251
0.000155318322
0.000156838862
0.000158146354
0.000159372679
0.000160605325
0.000161678349
0.000162825904
0.000163801367
0.00016489292
0.000165719956
0.000166712721
0.000167415152
0.000168345262
0.000168960667
0.000169848836
0.000170435115
0.000171269846
0.000171846207
0.000172659434
0.000173300126
0.00017414562
0.000174739052
0.000175298084
0.00017568961
0.000176187144
0.000176542252
0.000176989508
0.000177309213
0.000177706397
0.000178060598
0.000178505719
0.000178861929
0.000179301414
0.000179628012
0.000180039227
0.000180386849
0.000180752127
0.000181064433
0.000181393368
0.000181679953
0.000181982582
0.000182253705
0.000182539106
0.000182794705
0.000183046923
0.00018328015
0.00018351851
0.000183741758
0.000183983688
0.000184237073
0.000184510999
0.000184765034
0.000185012632
0.000185243067
0.000185469176
0.000185668751
0.000185855103
0.000186034152
0.000186211257
0.000186381577
0.000186550367
0.000186712836
0.000186873564
0.00018702855
0.000187183576
0.000187333927
0.000187484633
0.000187630747
0.000187777555
0.000187919834
0.000188063152
0.00018819851
0.000188324424
0.000188446155
0.000188568089
0.000188685789
0.000188803959
0.00018892336
0.000189045387
0.000189160809
0.000189278086
0.000189388909
0.000189501789
0.000189608381
0.000189712094
)
;

boundaryField
{
    closed
    {
        type            calculated;
        value           nonuniform List<scalar> 0();
    }
    open
    {
        type            calculated;
        value           nonuniform List<scalar> 0();
    }
    sides
    {
        type            empty;
    }
    procBoundary4to3
    {
        type            processor;
        value           uniform 6.34839064e-05;
    }
    procBoundary4to5
    {
        type            processor;
        value           uniform 0.000189808996;
    }
}


// ************************************************************************* //
