/*--------------------------------*- C++ -*----------------------------------*\
| =========                 |                                                 |
| \\      /  F ield         | OpenFOAM: The Open Source CFD Toolbox           |
|  \\    /   O peration     | Version:  2306                                  |
|   \\  /    A nd           | Website:  www.openfoam.com                      |
|    \\/     M anipulation  |                                                 |
\*---------------------------------------------------------------------------*/
FoamFile
{
    version     2.0;
    format      ascii;
    arch        "LSB;label=32;scalar=64";
    class       volScalarField;
    location    "0.00194";
    object      PV;
}
// * * * * * * * * * * * * * * * * * * * * * * * * * * * * * * * * * * * * * //

dimensions      [0 0 0 0 0 0 0];

internalField   nonuniform List<scalar> 
531
(
-0.00693241288
-0.00710202901
-0.00712380706
-0.00711559034
-0.00714057861
-0.00713666226
-0.00688945704
-0.0068814836
-0.0068845667
-0.00687935028
-0.00705513043
-0.00710526906
-0.00688503564
-0.00687818148
-0.00704962624
-0.00710391154
-0.00712456313
-0.00712139128
-0.00689173941
-0.00688286646
-0.00689129132
-0.00688197037
-0.00695309374
-0.00708790596
-0.00714664495
-0.00713777137
-0.00688953046
-0.00688251518
-0.007106004
-0.00712565944
-0.00688505684
-0.00688394421
-0.00706957939
-0.00712003715
-0.00706119904
-0.00688631677
-0.00687806311
-0.00704920874
-0.00711458103
-0.00699579481
-0.00688360122
-0.00688004256
-0.00688195611
-0.00688188246
-0.00705389409
-0.0071219584
-0.00711882333
-0.00712322102
-0.00715370414
-0.00714913205
-0.00689379426
-0.00688920048
-0.00689753173
-0.00688904628
-0.00689139662
-0.00713081169
-0.0071454449
-0.00689079174
-0.00688600087
-0.00709806229
-0.00710862196
-0.00688776686
-0.00688420267
-0.00705559084
-0.0070989688
-0.00713293799
-0.00713206578
-0.00688994374
-0.00689141956
-0.00688742008
-0.00691709659
-0.00710425388
-0.00712933289
-0.0071141158
-0.00713831097
-0.00712777481
-0.00688474848
-0.00688356883
-0.00688355964
-0.00708421805
-0.00710369499
-0.00688524128
-0.00688366246
-0.00688584678
-0.00699411354
-0.00713790723
-0.00713619872
-0.00688530768
-0.00688554507
-0.00706334977
-0.00714991664
-0.00714616544
-0.00688425974
-0.00688535629
-0.00708468933
-0.00713769514
-0.00701393684
-0.00688987269
-0.00688322435
-0.00688928278
-0.00688382502
-0.00713553889
-0.00713761363
-0.00688771987
-0.0070694249
-0.00715636711
-0.00688113585
-0.0068836073
-0.00706902144
-0.00711731413
-0.00712442829
-0.00711513719
-0.00688071643
-0.0068820543
-0.006882069
-0.00707073379
-0.00711372313
-0.00687909326
-0.00688341212
-0.00705487726
-0.00714889453
-0.0071446002
-0.00688020079
-0.0068828485
-0.00707908222
-0.00713150932
-0.00703021228
-0.00688782218
-0.00687792222
-0.00688870531
-0.00688068513
-0.00696282977
-0.00709206541
-0.00713310016
-0.00713000565
-0.00688212673
-0.0068853078
-0.00705319753
-0.0071499201
-0.00712610473
-0.00688393765
-0.00707092462
-0.0071476181
-0.00687935066
-0.00688426668
-0.00707883222
-0.00712370013
-0.00714404218
-0.00714405197
-0.00688610983
-0.00688592628
-0.00688701061
-0.00688505217
-0.00688506156
-0.00708216232
-0.00709778314
-0.00688402951
-0.00688430178
-0.00688430915
-0.00703079275
-0.00711220276
-0.00714186591
-0.00714025641
-0.00688610205
-0.00688528118
-0.00711336642
-0.00714164528
-0.00688470053
-0.00688913763
-0.00708478004
-0.00718339182
-0.00716789145
-0.0068931421
-0.00689085273
-0.00689374995
-0.00689338267
-0.00689321596
-0.00693580069
-0.00710501132
-0.0071446013
-0.0071434211
-0.00688700826
-0.00689001928
-0.007075317
-0.00717084368
-0.00715686368
-0.00688947624
-0.00688524405
-0.00688760284
-0.00688425007
-0.00707659431
-0.00710980913
-0.00688702199
-0.00688439276
-0.00707155574
-0.00710749519
-0.0071536971
-0.00714627706
-0.00689020254
-0.00688416977
-0.00689253569
-0.00688228109
-0.006889686
-0.00706357865
-0.00714322434
-0.00713397154
-0.00688578583
-0.00688124801
-0.00707049576
-0.00711136998
-0.00713779551
-0.0071331467
-0.00688815232
-0.00688092414
-0.00711464597
-0.00712253759
-0.00688670883
-0.00688129071
-0.00711405453
-0.00711631424
-0.00688582801
-0.00688239108
-0.00688241215
-0.00708767326
-0.0071196723
-0.00688252886
-0.00688612541
-0.00704330645
-0.00713522279
-0.00712578349
-0.00688466807
-0.00688064297
-0.00708958555
-0.00710455225
-0.00688457849
-0.00688234634
-0.00705380405
-0.00709705609
-0.00712371435
-0.00711926333
-0.00688262175
-0.00707345941
-0.00714210489
-0.0068860606
-0.00688380204
-0.00710835644
-0.00712493228
-0.00688785017
-0.00688410675
-0.00711876913
-0.00712154525
-0.00688739872
-0.0068859806
-0.00688529049
-0.0070901665
-0.00712477356
-0.00688834966
-0.00688480619
-0.00711067959
-0.00711354854
-0.00688716529
-0.006884371
-0.00688433781
-0.00704662078
-0.00712023734
-0.00714623562
-0.00714348708
-0.00688551253
-0.00688248766
-0.00688538653
-0.00703670864
-0.00714480843
-0.00711583339
-0.00689339244
-0.0068828432
-0.0068960653
-0.00688244131
-0.00690601703
-0.00709387337
-0.00712887745
-0.00712108079
-0.00712559813
-0.0071516917
-0.00714869825
-0.00688471087
-0.00688463713
-0.00688415297
-0.00688421328
-0.00705031781
-0.00710765849
-0.00688301101
-0.00688567065
-0.00702560214
-0.00713582645
-0.00712897463
-0.00688462997
-0.0068873538
-0.00688495215
-0.00693512953
-0.00710038563
-0.00711482462
-0.00711696902
-0.0071178217
-0.00714069152
-0.00714068053
-0.00688272748
-0.00688457757
-0.00688171824
-0.00688480879
-0.00699786207
-0.00713786659
-0.00713305514
-0.00688124755
-0.00687963354
-0.0071100358
-0.00711291888
-0.00688226547
-0.00688096582
-0.00688102784
-0.00708948643
-0.00712022852
-0.0068780416
-0.00688354809
-0.00703954477
-0.00714343621
-0.00713209612
-0.00688134942
-0.00687810362
-0.00688118051
-0.00699769868
-0.00713328
-0.00713070403
-0.00687163405
-0.00687596622
-0.00701217377
-0.00713699455
-0.00712842736
-0.00686995322
-0.00686551916
-0.00711140189
-0.00711480113
-0.00686258593
-0.00686049235
-0.00686049153
-0.00711119981
-0.00713841566
-0.00685322913
-0.00684856795
-0.00711721972
-0.00712257945
-0.00685058378
-0.00684335838
-0.0068433495
-0.00713252179
-0.00714387555
-0.00684941167
-0.00683440764
-0.00683996727
-0.00682636219
-0.00682816436
-0.0068162686
-0.00681505765
-0.00680429039
-0.00680091084
-0.00679040213
-0.00678528431
-0.00677440433
-0.00676761889
-0.00675562797
-0.00674705549
-0.00673302268
-0.00672222911
-0.00670481437
-0.00669034194
-0.00666758942
-0.00664251249
-0.006603234
-0.00657991317
-0.00656133225
-0.00654049732
-0.00652070339
-0.00649728548
-0.00647544629
-0.00644956576
-0.0064264556
-0.00639693065
-0.00637246069
-0.0063307862
-0.00629587871
-0.00621298065
-0.00617366812
-0.00610859462
-0.00607166397
-0.00600598782
-0.00596511853
-0.00589712861
-0.00585621012
-0.00580157146
-0.00576777118
-0.00570596323
-0.0056658984
-0.00558006799
-0.00530585464
-0.0052171102
-0.00516232288
-0.00508243232
-0.00500935373
-0.00492223224
-0.00482695593
-0.00472101217
-0.00460732967
-0.0044768414
-0.00434225156
-0.00415885468
-0.00394918501
-0.00368250408
-0.00347710021
-0.00312667717
-0.00281799805
-0.0025238352
-0.00227108173
-0.00194864397
-0.00157944498
-0.00116292791
-0.00119427684
-0.000948851547
-0.000571733761
-0.0003190859
0.000106097323
0.00036865609
0.000776329252
0.00102488852
0.00126724465
0.00150757221
0.00180017916
0.00208865063
0.00233242028
0.00256991681
0.00282213616
0.00310640242
0.00334897715
0.00361338767
0.00384075755
0.00405741001
0.00426343955
0.00444688153
0.00463750293
0.00482720223
0.00501105907
0.00518784979
0.00534840171
0.00550202409
0.00564411787
0.00577303296
0.00589859256
0.00600614789
0.00611677789
0.00620181231
0.00629765676
0.00636160077
0.00644126045
0.00649299689
0.00655687366
0.00659886851
0.00664952132
0.00668099556
0.00671948024
0.00674789084
0.00678785286
0.00681822329
0.00685294043
0.00688097428
0.00691152385
0.00693723869
0.00696418794
0.00698672437
0.00700923408
0.00702912211
0.00704828287
0.00706702592
0.00708458011
0.00710093158
0.00711733908
0.00713308495
0.00714843897
0.007163439
0.00717775701
0.00719196965
0.00720531424
0.00721881698
0.00723139736
0.00724430201
0.00725613691
0.00726844049
0.00727924505
0.00729012162
0.0072994311
0.00730957269
0.00731861563
0.00732853671
0.00733732773
0.00734709543
0.00735576251
0.00736526417
0.0073736027
0.00738277886
0.00739081584
0.00739968274
0.00740732394
0.00741565593
0.00742287588
0.00743087226
0.00743780526
0.00744548149
0.00745214521
0.0074595173
0.00746592871
0.00747301888
0.00747922192
0.00748606453
0.00749205505
0.00749864942
0.00750443923
0.00751066962
0.00751609069
0.00752210127
0.00752737207
0.00753319733
0.0075383289
0.00754397953
0.00754898523
)
;

boundaryField
{
    closed
    {
        type            zeroGradient;
    }
    open
    {
        type            zeroGradient;
    }
    sides
    {
        type            empty;
    }
    procBoundary4to3
    {
        type            processor;
        value           uniform -0.00688603571;
    }
    procBoundary4to5
    {
        type            processor;
        value           uniform 0.00755447128;
    }
}


// ************************************************************************* //
