/*--------------------------------*- C++ -*----------------------------------*\
| =========                 |                                                 |
| \\      /  F ield         | OpenFOAM: The Open Source CFD Toolbox           |
|  \\    /   O peration     | Version:  2306                                  |
|   \\  /    A nd           | Website:  www.openfoam.com                      |
|    \\/     M anipulation  |                                                 |
\*---------------------------------------------------------------------------*/
FoamFile
{
    version     2.0;
    format      ascii;
    arch        "LSB;label=32;scalar=64";
    class       volScalarField;
    location    "0.0009";
    object      PV;
}
// * * * * * * * * * * * * * * * * * * * * * * * * * * * * * * * * * * * * * //

dimensions      [0 0 0 0 0 0 0];

internalField   nonuniform List<scalar> 
531
(
-0.00719157822
-0.00696826163
-0.00696891264
-0.00717401589
-0.00720813613
-0.00718725934
-0.0069692792
-0.00696755868
-0.00718558941
-0.00719082332
-0.00696601158
-0.00697018706
-0.00715808162
-0.00719989751
-0.00718012342
-0.00696813724
-0.00696733494
-0.00713216286
-0.0071869878
-0.00718571098
-0.00719018985
-0.00696617057
-0.00696854157
-0.00716567741
-0.00719933527
-0.00718752555
-0.00696755915
-0.00696919105
-0.00715437284
-0.00720942969
-0.00718379
-0.00697058626
-0.00696848581
-0.00696966113
-0.00717139525
-0.00720605032
-0.00719432179
-0.00696898368
-0.00697010775
-0.00717985949
-0.0072198679
-0.00719280169
-0.00697259358
-0.00696810515
-0.00697198203
-0.00718223393
-0.00721962431
-0.0071985976
-0.00697204945
-0.00696750876
-0.00720006212
-0.00720412845
-0.00696907498
-0.00696978371
-0.00719381025
-0.00720898464
-0.00696744424
-0.0069719916
-0.00718346035
-0.00722315384
-0.00719535435
-0.0069729289
-0.00696901465
-0.0069715795
-0.00717939726
-0.00720888206
-0.00719516799
-0.00697148754
-0.00696922925
-0.00717930942
-0.00720590747
-0.0071981877
-0.00697019994
-0.00697016963
-0.00718006553
-0.00721880577
-0.00719576548
-0.00697167869
-0.00696973059
-0.0069706537
-0.00718464913
-0.00720860832
-0.00696843177
-0.00697218574
-0.00717876063
-0.00721889555
-0.00719359371
-0.00697251487
-0.00696839317
-0.00697118992
-0.00717893897
-0.0072001666
-0.00719433195
-0.00720453888
-0.0069674256
-0.00697214707
-0.00718586295
-0.00721782203
-0.00719977741
-0.00697341986
-0.00696790771
-0.00719952896
-0.00719940142
-0.0069716559
-0.00697089519
-0.00720288481
-0.00719545626
-0.00696979811
-0.00697361273
-0.00697002699
-0.00718748958
-0.00721186637
-0.00721583875
-0.00721394328
-0.00697040025
-0.00697294055
-0.00697054278
-0.00719879923
-0.00721992296
-0.00696970112
-0.00697510047
-0.0069686426
-0.00697440134
-0.00715071913
-0.00720969744
-0.00718991284
-0.00721377242
-0.00720973192
-0.0069724622
-0.00697162426
-0.00719276108
-0.00722958683
-0.00720532325
-0.00697250238
-0.00697277409
-0.00697172744
-0.00719807244
-0.00720097235
-0.00697120083
-0.00697433123
-0.00697021378
-0.00718247292
-0.0072147221
-0.0072143004
-0.00721327743
-0.00697197091
-0.00697375081
-0.00697156218
-0.0071987627
-0.00723608519
-0.00721867264
-0.00697315105
-0.00697322026
-0.00697289371
-0.0069728457
-0.00718623055
-0.00721432527
-0.00720870294
-0.00721682321
-0.00696890057
-0.00697483558
-0.00696853558
-0.00697392243
-0.00715258556
-0.00721293457
-0.00719264817
-0.0072195473
-0.00721420802
-0.00697094453
-0.00697343743
-0.00697029119
-0.00697332757
-0.00714749347
-0.0072096145
-0.00719146884
-0.00721680998
-0.00721320817
-0.00697094897
-0.00697358163
-0.00697034897
-0.00697338857
-0.0071546098
-0.00721410548
-0.0071940036
-0.0072267266
-0.00721710685
-0.00697190494
-0.00697269652
-0.00697117634
-0.00720814673
-0.00721248051
-0.00697066444
-0.00697298676
-0.00696980384
-0.00719032506
-0.00722149601
-0.0069702727
-0.00697191789
-0.00719366675
-0.00721601064
-0.00696825438
-0.00697283958
-0.00718812663
-0.00721603041
-0.00720460494
-0.00697224225
-0.00696874135
-0.00718629185
-0.00720228599
-0.00696969149
-0.00697073266
-0.00717613005
-0.00720180741
-0.00719738744
-0.00697059554
-0.00696995504
-0.00717592181
-0.00721424204
-0.00719208394
-0.00697082475
-0.00697030088
-0.00697028426
-0.00717346702
-0.00720278615
-0.00720322054
-0.00720283589
-0.00697073024
-0.00697186113
-0.0069711519
-0.00718336627
-0.00721594427
-0.00720579558
-0.00697239436
-0.00697114085
-0.00719053781
-0.00721067049
-0.00697092396
-0.00697315324
-0.00719190078
-0.00722483899
-0.00721493304
-0.00697318033
-0.0069720402
-0.0069728234
-0.00697188041
-0.00718607534
-0.0072157229
-0.00721476962
-0.00722131741
-0.00697034983
-0.00697256208
-0.00697076933
-0.00697166968
-0.00719040824
-0.0072163094
-0.00721017717
-0.00697098497
-0.00697144884
-0.00719078965
-0.00721951704
-0.00720864258
-0.00697257497
-0.0069690826
-0.00719720009
-0.00720525246
-0.00697060132
-0.00697053663
-0.00719408468
-0.00720171785
-0.00696903603
-0.00697105701
-0.00718724088
-0.00719991334
-0.00696803714
-0.00697111562
-0.00717903728
-0.00720103297
-0.00719707956
-0.00696980021
-0.00696973264
-0.00717352274
-0.00720349468
-0.00719596851
-0.00697050677
-0.00696937301
-0.00718147403
-0.00719683316
-0.0069686717
-0.00697167757
-0.00717435584
-0.00720107525
-0.00719705364
-0.00697109653
-0.00697112183
-0.00717804223
-0.00721570456
-0.00720559524
-0.00697202265
-0.00697149323
-0.00697236443
-0.00697105218
-0.00718328594
-0.00721309416
-0.00721378729
-0.00721618314
-0.00697026716
-0.00697193639
-0.00721437427
-0.00721311133
-0.0069696262
-0.00697295159
-0.00697043247
-0.00718650498
-0.00721529826
-0.00696858194
-0.00697287019
-0.0071878033
-0.00721649117
-0.00720825263
-0.00697142527
-0.00696954507
-0.00718839054
-0.00720562444
-0.00696813883
-0.00697179059
-0.00718135211
-0.00720925382
-0.00720128936
-0.00697078455
-0.00696937013
-0.00718466908
-0.00720129253
-0.00696750689
-0.00697163066
-0.00717815206
-0.00720704854
-0.00719892116
-0.00697039583
-0.00696911499
-0.00718364536
-0.00720000332
-0.00696687055
-0.00697158821
-0.00717557937
-0.00720593256
-0.0071969334
-0.00697038292
-0.00696887701
-0.0071821726
-0.00719660937
-0.00696670199
-0.00697144367
-0.0071686422
-0.00720036974
-0.00719371432
-0.00696925393
-0.00696911488
-0.00716727035
-0.00720052954
-0.00719712011
-0.00696776517
-0.00697116779
-0.00717570042
-0.00721007371
-0.0071989456
-0.00697101898
-0.00696856809
-0.00719358777
-0.00719640937
-0.00696872683
-0.00697127861
-0.00719763201
-0.00719405655
-0.0069673135
-0.00718913873
-0.00720884998
-0.0069688963
-0.00697166198
-0.00697097758
-0.00718380539
-0.0072140156
-0.00696727451
-0.00697430018
-0.00718336838
-0.00721974286
-0.00720337447
-0.00697191548
-0.00697076976
-0.00719802805
-0.00718977674
-0.0069696019
-0.00716630529
-0.00721557224
-0.00696849947
-0.00697305937
-0.00718868174
-0.00721301889
-0.00696784759
-0.00697481653
-0.00718702769
-0.00722843597
-0.0072083545
-0.00697207893
-0.0069722799
-0.0069733831
-0.00719990173
-0.00719865912
-0.00696923529
-0.00697209713
-0.00697175768
-0.0071799673
-0.00721506459
-0.00720484865
-0.00696958407
-0.0069712447
-0.00718035474
-0.00720719907
-0.00719851451
-0.0069686456
-0.00697067048
-0.00716516465
-0.00720080691
-0.00719267812
-0.00696795119
-0.0069705374
-0.00715894046
-0.00719873985
-0.0071909858
-0.00696761305
-0.00696989347
-0.00715842649
-0.0071989864
-0.00719207149
-0.00696692388
-0.00697009807
-0.00716728583
-0.00720370335
-0.0071947922
-0.00696849745
-0.00696861456
-0.00718122112
-0.0071967978
-0.00696511295
-0.00697140771
-0.00717250903
-0.00720606771
-0.00719542516
-0.00696906561
-0.00696842824
-0.00718260335
-0.00719733712
-0.0069653227
-0.00697161547
-0.00717298106
-0.00720610287
-0.0071950309
-0.00696948539
-0.00696825823
-0.00718221034
-0.00719482596
-0.00696606207
-0.00697096059
-0.0071690281
-0.0072010564
-0.00719322115
-0.006967312
-0.00697036253
-0.00716783537
-0.00720374314
-0.00719413157
-0.00696929916
-0.00696862957
-0.00718078148
-0.00719113283
-0.00696688369
-0.00697070826
-0.00717623739
-0.007195327
-0.00720325289
-0.00719936698
-0.00696796908
-0.0069706614
-0.00697005965
-0.00717473158
-0.00720844192
-0.00696585005
-0.00697300761
-0.00718077819
-0.00721410597
-0.0072025495
-0.00697015672
-0.00696920508
-0.0071887305
-0.00720477591
-0.00696640349
-0.00697244711
-0.00718288756
-0.00721420363
-0.00720227656
-0.00697077787
-0.00696867198
-0.00719068884
-0.00719832002
-0.00696798479
-0.00697072192
-0.00718513022
-0.00719634818
-0.00696577746
-0.00697230192
-0.00717164043
-0.00720194564
-0.0071922077
-0.0069687399
-0.00696900613
-0.00716685327
-0.00719991114
-0.0071943468
-0.00696685273
-0.00697025691
-0.00716948698
-0.00720399574
-0.0071950917
-0.00696899492
-0.00696791591
-0.00718058862
-0.00719610599
-0.00696577119
-0.00697029892
-0.00716885945
-0.00720034937
-0.00719456014
)
;

boundaryField
{
    closed
    {
        type            zeroGradient;
    }
    open
    {
        type            zeroGradient;
    }
    sides
    {
        type            empty;
    }
    procBoundary3to2
    {
        type            processor;
        value           uniform -0.00720655613;
    }
    procBoundary3to4
    {
        type            processor;
        value           uniform -0.00696780655;
    }
}


// ************************************************************************* //
