/*--------------------------------*- C++ -*----------------------------------*\
| =========                 |                                                 |
| \\      /  F ield         | OpenFOAM: The Open Source CFD Toolbox           |
|  \\    /   O peration     | Version:  2306                                  |
|   \\  /    A nd           | Website:  www.openfoam.com                      |
|    \\/     M anipulation  |                                                 |
\*---------------------------------------------------------------------------*/
FoamFile
{
    version     2.0;
    format      ascii;
    arch        "LSB;label=32;scalar=64";
    class       volVectorField;
    location    "0.0009";
    object      U;
}
// * * * * * * * * * * * * * * * * * * * * * * * * * * * * * * * * * * * * * //

dimensions      [0 1 -1 0 0 0 0];

internalField   nonuniform List<vector> 
531
(
(-0.00283850522 0 0)
(-0.00225175647 0 0)
(-0.00141583661 0 0)
(-0.00379978447 0 0)
(-0.00504650483 0 0)
(-0.0021816644 0 0)
(-0.00073384486 0 0)
(-0.000262250381 0 0)
(-9.44152476e-05 0 0)
(-0.000625983765 0 0)
(-0.0010447852 0 0)
(-0.000588009979 0 0)
(-0.000297618921 0 0)
(0.00148058512 0 0)
(0.00416026418 0 0)
(0.00519165123 0 0)
(0.00574056121 0 0)
(0.0055519 0 0)
(0.00420427492 0 0)
(0.00686834568 0 0)
(0.00972267662 0 0)
(0.00945129714 0 0)
(0.00979648583 0 0)
(0.00968013605 0 0)
(0.0111754045 0 0)
(0.0134982616 0 0)
(0.0144068363 0 0)
(0.0147895011 0 0)
(0.0145917007 0 0)
(0.0150820559 0 0)
(0.0176870447 0 0)
(0.0203650829 0 0)
(0.0212539378 0 0)
(0.0214240708 0 0)
(0.0209539725 0 0)
(0.0215928067 0 0)
(0.0232723845 0 0)
(0.0246903863 0 0)
(0.0250068776 0 0)
(0.0229533385 0 0)
(0.0219974693 0 0)
(0.0244896688 0 0)
(0.0270814706 0 0)
(0.0281090232 0 0)
(0.0281729992 0 0)
(0.0264743893 0 0)
(0.0256817918 0 0)
(0.0273212234 0 0)
(0.0292203481 0 0)
(0.0295793677 0 0)
(0.029121324 0 0)
(0.0297134023 0 0)
(0.0308524178 0 0)
(0.0311302068 0 0)
(0.0308469802 0 0)
(0.0311094539 0 0)
(0.0320962009 0 0)
(0.0322207236 0 0)
(0.0307961613 0 0)
(0.0304458626 0 0)
(0.0326480027 0 0)
(0.0352614738 0 0)
(0.0363465865 0 0)
(0.0362448944 0 0)
(0.0341594643 0 0)
(0.0334476769 0 0)
(0.0347542695 0 0)
(0.036123762 0 0)
(0.0362199491 0 0)
(0.0340064614 0 0)
(0.0336811463 0 0)
(0.0355466039 0 0)
(0.0369960289 0 0)
(0.0368060704 0 0)
(0.0346472274 0 0)
(0.0341869192 0 0)
(0.0366766069 0 0)
(0.0392752938 0 0)
(0.0399935827 0 0)
(0.0398804472 0 0)
(0.0390307742 0 0)
(0.0387418862 0 0)
(0.0396765 0 0)
(0.0397448755 0 0)
(0.0381485687 0 0)
(0.0377732523 0 0)
(0.040095963 0 0)
(0.0426498591 0 0)
(0.0434306174 0 0)
(0.0432133068 0 0)
(0.0409924292 0 0)
(0.0389637005 0 0)
(0.0396924232 0 0)
(0.0414937379 0 0)
(0.0428698851 0 0)
(0.0426220902 0 0)
(0.0406396668 0 0)
(0.0402559629 0 0)
(0.0418306269 0 0)
(0.0435718397 0 0)
(0.043672631 0 0)
(0.0427150569 0 0)
(0.0430420158 0 0)
(0.0441309052 0 0)
(0.043907182 0 0)
(0.0434482913 0 0)
(0.0436324749 0 0)
(0.0440399714 0 0)
(0.0444535893 0 0)
(0.0442394013 0 0)
(0.0421797621 0 0)
(0.0409019845 0 0)
(0.0421312378 0 0)
(0.04366876 0 0)
(0.0450001395 0 0)
(0.0453685999 0 0)
(0.045013168 0 0)
(0.0443878161 0 0)
(0.0452870115 0 0)
(0.0466540675 0 0)
(0.0467895906 0 0)
(0.0467212357 0 0)
(0.0464176452 0 0)
(0.0451900455 0 0)
(0.0439642144 0 0)
(0.0439835213 0 0)
(0.044828158 0 0)
(0.0457343142 0 0)
(0.0469632512 0 0)
(0.046826254 0 0)
(0.0454470763 0 0)
(0.045643979 0 0)
(0.0471251621 0 0)
(0.0489415736 0 0)
(0.0493230865 0 0)
(0.0486322755 0 0)
(0.0471809771 0 0)
(0.0473432698 0 0)
(0.0484385994 0 0)
(0.0486064423 0 0)
(0.0478822583 0 0)
(0.0445536152 0 0)
(0.0427410649 0 0)
(0.0443305942 0 0)
(0.046428341 0 0)
(0.0481850076 0 0)
(0.0480394139 0 0)
(0.0473591898 0 0)
(0.0453060576 0 0)
(0.0454299486 0 0)
(0.0472469957 0 0)
(0.0491793105 0 0)
(0.0492803275 0 0)
(0.049232439 0 0)
(0.0486428669 0 0)
(0.0455786027 0 0)
(0.0432364885 0 0)
(0.0448288556 0 0)
(0.0474471786 0 0)
(0.0489442374 0 0)
(0.0484711412 0 0)
(0.0481720232 0 0)
(0.047832935 0 0)
(0.0462137002 0 0)
(0.0444971322 0 0)
(0.0444191923 0 0)
(0.0456899224 0 0)
(0.0479043356 0 0)
(0.049862653 0 0)
(0.0499682826 0 0)
(0.0498259328 0 0)
(0.0496103822 0 0)
(0.0480665816 0 0)
(0.0463636444 0 0)
(0.046145149 0 0)
(0.0472591649 0 0)
(0.0492866335 0 0)
(0.0511578077 0 0)
(0.0512942117 0 0)
(0.0510896129 0 0)
(0.0507405435 0 0)
(0.0490954346 0 0)
(0.0472651998 0 0)
(0.0468323024 0 0)
(0.0473835382 0 0)
(0.0493194559 0 0)
(0.0516994215 0 0)
(0.0520793483 0 0)
(0.0510742262 0 0)
(0.0492538284 0 0)
(0.0496727874 0 0)
(0.0512226134 0 0)
(0.051242803 0 0)
(0.0501650208 0 0)
(0.0482575006 0 0)
(0.0486177728 0 0)
(0.0504884118 0 0)
(0.050204276 0 0)
(0.0488844797 0 0)
(0.0491612121 0 0)
(0.0507295395 0 0)
(0.0501462599 0 0)
(0.0476156169 0 0)
(0.0467743583 0 0)
(0.0480597431 0 0)
(0.0497272158 0 0)
(0.0494755693 0 0)
(0.0482478404 0 0)
(0.0484791174 0 0)
(0.0496459319 0 0)
(0.0490688265 0 0)
(0.0460570448 0 0)
(0.0445735751 0 0)
(0.04562268 0 0)
(0.0469747715 0 0)
(0.0464279458 0 0)
(0.0440141146 0 0)
(0.0430775006 0 0)
(0.0448314914 0 0)
(0.0469604018 0 0)
(0.0471478289 0 0)
(0.045888644 0 0)
(0.0426785815 0 0)
(0.0403039294 0 0)
(0.0405371732 0 0)
(0.0422611376 0 0)
(0.0440364559 0 0)
(0.0442307093 0 0)
(0.0431367137 0 0)
(0.0407496665 0 0)
(0.0395134435 0 0)
(0.0404385362 0 0)
(0.0419911349 0 0)
(0.0416977447 0 0)
(0.0398689072 0 0)
(0.0391941205 0 0)
(0.0399826723 0 0)
(0.0394997702 0 0)
(0.0367452337 0 0)
(0.0355442446 0 0)
(0.0372919248 0 0)
(0.038990263 0 0)
(0.0394332487 0 0)
(0.0392260764 0 0)
(0.0382262801 0 0)
(0.0350579404 0 0)
(0.0320241681 0 0)
(0.0323715562 0 0)
(0.0345631526 0 0)
(0.0361262136 0 0)
(0.0364200196 0 0)
(0.0361120455 0 0)
(0.0348706061 0 0)
(0.0313803206 0 0)
(0.0291291128 0 0)
(0.0305271498 0 0)
(0.0321388479 0 0)
(0.0317449675 0 0)
(0.0285424188 0 0)
(0.0266330338 0 0)
(0.0282279949 0 0)
(0.0297457095 0 0)
(0.0294629624 0 0)
(0.0276407488 0 0)
(0.0265093785 0 0)
(0.0266652287 0 0)
(0.0263782703 0 0)
(0.0251587176 0 0)
(0.0243132515 0 0)
(0.0242636431 0 0)
(0.023906764 0 0)
(0.0226258647 0 0)
(0.0218787017 0 0)
(0.0220641591 0 0)
(0.0214756831 0 0)
(0.0183475757 0 0)
(0.0164291169 0 0)
(0.018460341 0 0)
(0.0196020928 0 0)
(0.0190767662 0 0)
(0.0155224893 0 0)
(0.0128428197 0 0)
(0.0147479429 0 0)
(0.0159743845 0 0)
(0.0157486416 0 0)
(0.0140272276 0 0)
(0.0125255843 0 0)
(0.0123431991 0 0)
(0.0120073213 0 0)
(0.00849664868 0 0)
(0.00589904535 0 0)
(0.00741566269 0 0)
(0.00818162857 0 0)
(0.00830445204 0 0)
(0.00404996017 0 0)
(0.000568636132 0 0)
(0.00300831012 0 0)
(0.00430825997 0 0)
(0.00475284298 0 0)
(0.00451021216 0 0)
(0.00374843923 0 0)
(-0.000746409055 0 0)
(-0.00527889786 0 0)
(-0.0042838287 0 0)
(-0.00240237327 0 0)
(-0.00221265879 0 0)
(-0.00205055212 0 0)
(-0.00457344813 0 0)
(-0.00625853448 0 0)
(-0.00542591047 0 0)
(-0.00523765261 0 0)
(-0.00529511789 0 0)
(-0.00787516894 0 0)
(-0.010986216 0 0)
(-0.0112324706 0 0)
(-0.0110362868 0 0)
(-0.0147666653 0 0)
(-0.0179352822 0 0)
(-0.014614446 0 0)
(-0.0134730201 0 0)
(-0.0136574766 0 0)
(-0.0164028755 0 0)
(-0.0189888963 0 0)
(-0.0192686936 0 0)
(-0.0194470809 0 0)
(-0.0233335292 0 0)
(-0.026765781 0 0)
(-0.0234938399 0 0)
(-0.0225241964 0 0)
(-0.0229538274 0 0)
(-0.0254778842 0 0)
(-0.0277605999 0 0)
(-0.0283504451 0 0)
(-0.0287286061 0 0)
(-0.0327290757 0 0)
(-0.0363300879 0 0)
(-0.032637506 0 0)
(-0.0315481904 0 0)
(-0.0322044727 0 0)
(-0.0348057034 0 0)
(-0.0370379387 0 0)
(-0.037695715 0 0)
(-0.0381126428 0 0)
(-0.0423131109 0 0)
(-0.0462937316 0 0)
(-0.0423832214 0 0)
(-0.0412300523 0 0)
(-0.0420714644 0 0)
(-0.0445759363 0 0)
(-0.0466096079 0 0)
(-0.0474286133 0 0)
(-0.0482963408 0 0)
(-0.0484651832 0 0)
(-0.048562037 0 0)
(-0.0453872167 0 0)
(-0.0448982884 0 0)
(-0.0459946626 0 0)
(-0.046012592 0 0)
(-0.0461800442 0 0)
(-0.0428572977 0 0)
(-0.0419808197 0 0)
(-0.0429222255 0 0)
(-0.0478704748 0 0)
(-0.0525915507 0 0)
(-0.0493979129 0 0)
(-0.0487484483 0 0)
(-0.0493127996 0 0)
(-0.0521888366 0 0)
(-0.0550207013 0 0)
(-0.0560102183 0 0)
(-0.0573565786 0 0)
(-0.0591302255 0 0)
(-0.0600627854 0 0)
(-0.0604911921 0 0)
(-0.0643346809 0 0)
(-0.0663286124 0 0)
(-0.0662096197 0 0)
(-0.0669874297 0 0)
(-0.0675938006 0 0)
(-0.0703171047 0 0)
(-0.0722897151 0 0)
(-0.0738395287 0 0)
(-0.0753630849 0 0)
(-0.0791754524 0 0)
(-0.0832191871 0 0)
(-0.0805637608 0 0)
(-0.0808347908 0 0)
(-0.0824134803 0 0)
(-0.0841821022 0 0)
(-0.0845641782 0 0)
(-0.0848791128 0 0)
(-0.0842308577 0 0)
(-0.0808236883 0 0)
(-0.0815132751 0 0)
(-0.0830594344 0 0)
(-0.0854298179 0 0)
(-0.0866899302 0 0)
(-0.0882484916 0 0)
(-0.0896600366 0 0)
(-0.093862755 0 0)
(-0.0984284447 0 0)
(-0.0953908441 0 0)
(-0.0951940425 0 0)
(-0.095641821 0 0)
(-0.09765599 0 0)
(-0.0987346713 0 0)
(-0.0990357385 0 0)
(-0.100704148 0 0)
(-0.102187272 0 0)
(-0.103139583 0 0)
(-0.107069011 0 0)
(-0.111756435 0 0)
(-0.106610814 0 0)
(-0.105422504 0 0)
(-0.107259774 0 0)
(-0.111887589 0 0)
(-0.116888781 0 0)
(-0.111818972 0 0)
(-0.111013903 0 0)
(-0.112468769 0 0)
(-0.111261035 0 0)
(-0.110704556 0 0)
(-0.105925892 0 0)
(-0.104863203 0 0)
(-0.105998244 0 0)
(-0.104934927 0 0)
(-0.104531642 0 0)
(-0.0999610087 0 0)
(-0.0990738272 0 0)
(-0.100132371 0 0)
(-0.099045881 0 0)
(-0.0987084913 0 0)
(-0.0943530946 0 0)
(-0.0935062401 0 0)
(-0.0945172343 0 0)
(-0.093382164 0 0)
(-0.0928018885 0 0)
(-0.0881411879 0 0)
(-0.086875895 0 0)
(-0.0879653442 0 0)
(-0.0906375463 0 0)
(-0.0924694345 0 0)
(-0.0935771379 0 0)
(-0.0946435223 0 0)
(-0.0983787414 0 0)
(-0.102602942 0 0)
(-0.0979005505 0 0)
(-0.0965984105 0 0)
(-0.0975337705 0 0)
(-0.0999558905 0 0)
(-0.101516305 0 0)
(-0.102341873 0 0)
(-0.10311084 0 0)
(-0.106519738 0 0)
(-0.110488619 0 0)
(-0.105160126 0 0)
(-0.103440298 0 0)
(-0.104167866 0 0)
(-0.105995186 0 0)
(-0.10679808 0 0)
(-0.10705298 0 0)
(-0.107030286 0 0)
(-0.104864212 0 0)
(-0.103437027 0 0)
(-0.0981489995 0 0)
(-0.0964735941 0 0)
(-0.0964158046 0 0)
(-0.0941490071 0 0)
(-0.0925276242 0 0)
(-0.0868527606 0 0)
(-0.0842651028 0 0)
(-0.0841142521 0 0)
(-0.0854900444 0 0)
(-0.0863334554 0 0)
(-0.085878632 0 0)
(-0.0855410771 0 0)
(-0.08785127 0 0)
(-0.0924167049 0 0)
(-0.0915776164 0 0)
(-0.085441388 0 0)
(-0.0827068943 0 0)
(-0.0820996875 0 0)
(-0.0807934547 0 0)
(-0.0816430221 0 0)
(-0.0819805235 0 0)
(-0.0817023842 0 0)
(-0.0808892072 0 0)
(-0.0825370788 0 0)
(-0.0846425881 0 0)
(-0.0788802057 0 0)
(-0.0754951678 0 0)
(-0.0742993615 0 0)
(-0.074894808 0 0)
(-0.0751092645 0 0)
(-0.073567053 0 0)
(-0.0718269336 0 0)
(-0.0730026011 0 0)
(-0.0745451311 0 0)
(-0.0686269329 0 0)
(-0.0645495577 0 0)
(-0.0626428099 0 0)
(-0.0623891743 0 0)
(-0.062190351 0 0)
(-0.0598912209 0 0)
(-0.0572873459 0 0)
(-0.0562892982 0 0)
(-0.0556508845 0 0)
(-0.0535073065 0 0)
(-0.0506778761 0 0)
(-0.0509231871 0 0)
(-0.0511573673 0 0)
(-0.0457790483 0 0)
(-0.0416731222 0 0)
(-0.0387417232 0 0)
(-0.0355032222 0 0)
(-0.0322514621 0 0)
(-0.0271041444 0 0)
(-0.0226226957 0 0)
(-0.0194632208 0 0)
(-0.0167695764 0 0)
(-0.0138863183 0 0)
(-0.00887519307 0 0)
(-0.00394308168 0 0)
(-0.000678854499 0 0)
(-4.79594325e-05 0 0)
(-0.00025612731 0 0)
(0.00243672116 0 0)
(0.00584657738 0 0)
(0.00790633238 0 0)
(0.010614161 0 0)
(0.0153340815 0 0)
)
;

boundaryField
{
    closed
    {
        type            noSlip;
    }
    open
    {
        type            inletOutlet;
        inletValue      nonuniform List<vector> 0();
        value           nonuniform List<vector> 0();
    }
    sides
    {
        type            empty;
    }
    procBoundary3to2
    {
        type            processor;
        value           uniform (-0.00536670463 0 0);
    }
    procBoundary3to4
    {
        type            processor;
        value           uniform (0.0197394681 0 0);
    }
}


// ************************************************************************* //
