/*--------------------------------*- C++ -*----------------------------------*\
| =========                 |                                                 |
| \\      /  F ield         | OpenFOAM: The Open Source CFD Toolbox           |
|  \\    /   O peration     | Version:  2306                                  |
|   \\  /    A nd           | Website:  www.openfoam.com                      |
|    \\/     M anipulation  |                                                 |
\*---------------------------------------------------------------------------*/
FoamFile
{
    version     2.0;
    format      ascii;
    arch        "LSB;label=32;scalar=64";
    class       volScalarField;
    location    "0.00084";
    object      prefDPV_T;
}
// * * * * * * * * * * * * * * * * * * * * * * * * * * * * * * * * * * * * * //

dimensions      [1 -1 -1 -1 0 0 0];

internalField   nonuniform List<scalar> 
530
(
5.91115455e-10
5.90271765e-10
5.95803821e-10
6.09430322e-10
6.10108369e-10
5.91093962e-10
5.89616084e-10
5.89986257e-10
6.11505461e-10
6.0934448e-10
6.0728668e-10
5.89815714e-10
5.89803782e-10
6.1007404e-10
6.09867115e-10
5.97220171e-10
5.8999613e-10
5.89866414e-10
5.96620492e-10
6.09632203e-10
6.09228089e-10
6.09096733e-10
6.0973666e-10
5.90181124e-10
5.88562292e-10
5.90532399e-10
6.10154723e-10
6.08953093e-10
5.93709666e-10
5.90290803e-10
5.90207336e-10
5.93674994e-10
6.09717089e-10
6.09060962e-10
5.91480497e-10
5.89035491e-10
5.90587236e-10
6.10926637e-10
6.09137757e-10
5.93830878e-10
5.89798753e-10
5.91140773e-10
6.11864365e-10
6.09478509e-10
6.09411641e-10
6.0992945e-10
5.91832225e-10
5.89694572e-10
5.89639249e-10
5.94195701e-10
6.11257088e-10
6.09777442e-10
5.93781153e-10
5.90054637e-10
5.89806977e-10
5.9003757e-10
6.00190529e-10
6.10575548e-10
6.10130411e-10
5.9132645e-10
5.91201869e-10
6.07636011e-10
6.10348013e-10
5.97090371e-10
5.91096331e-10
5.93436687e-10
6.12001544e-10
6.11881117e-10
5.91119947e-10
5.9039714e-10
6.01971836e-10
6.12266996e-10
5.94599066e-10
5.91123215e-10
6.03410164e-10
6.11309134e-10
5.95059197e-10
5.91014506e-10
5.99083008e-10
6.10901376e-10
6.03004758e-10
5.90390722e-10
5.90146863e-10
6.06174369e-10
6.10524177e-10
5.96168114e-10
5.90620657e-10
5.93979083e-10
6.10341482e-10
6.10634566e-10
5.90360775e-10
5.9001184e-10
6.021023e-10
6.10867186e-10
5.94582921e-10
5.90739856e-10
6.03255777e-10
6.10703073e-10
5.94947092e-10
5.90368181e-10
5.96449248e-10
6.09259787e-10
6.11717894e-10
5.90171037e-10
5.90241032e-10
6.00532832e-10
6.09888281e-10
6.04178388e-10
5.90004599e-10
5.90613021e-10
6.04966636e-10
6.11040806e-10
5.97893279e-10
5.90228889e-10
5.91080034e-10
6.09990344e-10
6.11982036e-10
5.94123652e-10
5.91040266e-10
6.01506076e-10
6.115794e-10
5.97459094e-10
5.90252872e-10
5.91170693e-10
6.07479929e-10
6.12067431e-10
5.96199459e-10
5.90607911e-10
5.92092301e-10
6.09766736e-10
6.11909629e-10
5.95121019e-10
5.90627389e-10
5.9234383e-10
6.10381245e-10
6.1165283e-10
5.94630897e-10
5.90438505e-10
5.91723218e-10
6.08544366e-10
6.10694335e-10
5.94388827e-10
5.91921477e-10
6.03469269e-10
6.10913973e-10
5.95438507e-10
5.9099298e-10
5.93172472e-10
6.11335336e-10
6.11331383e-10
5.9432731e-10
5.90665721e-10
5.92199453e-10
6.09425332e-10
6.1025205e-10
5.93512159e-10
5.91349966e-10
6.01948222e-10
6.11811466e-10
5.97586881e-10
5.91124202e-10
5.92477834e-10
6.10081631e-10
6.12022177e-10
5.95119179e-10
5.90596488e-10
5.91690944e-10
6.09160583e-10
6.11397486e-10
5.93968913e-10
5.91031052e-10
5.98788317e-10
6.12167745e-10
6.00792962e-10
5.91207324e-10
5.9188037e-10
6.09165976e-10
6.1170362e-10
5.96089602e-10
5.90324348e-10
5.91042039e-10
6.07847858e-10
6.12161836e-10
5.94518292e-10
5.90747978e-10
5.96691811e-10
6.04273636e-10
5.95200621e-10
5.91312344e-10
6.02922667e-10
6.12292251e-10
5.93694728e-10
5.91100982e-10
6.03503276e-10
6.1209322e-10
5.94006552e-10
5.91215359e-10
6.02844767e-10
6.106905e-10
5.99279893e-10
5.90232653e-10
5.90682879e-10
6.04590087e-10
6.11444661e-10
5.94116522e-10
5.90864981e-10
6.02237026e-10
6.1175887e-10
5.93961942e-10
5.90948174e-10
6.02981238e-10
6.10358502e-10
5.98690032e-10
5.90139615e-10
5.90567966e-10
6.0614889e-10
6.10594478e-10
5.9393398e-10
5.90713665e-10
6.03027462e-10
6.10647362e-10
5.93800822e-10
5.90776078e-10
6.04677749e-10
6.09934769e-10
5.97093174e-10
5.8996741e-10
5.90330338e-10
6.0813078e-10
6.09700059e-10
5.93320828e-10
5.90638318e-10
6.06666732e-10
6.09678717e-10
5.92704375e-10
5.90362446e-10
6.0494522e-10
6.09704908e-10
5.98116261e-10
5.89741611e-10
5.89852752e-10
6.11846697e-10
6.0938953e-10
5.92100008e-10
5.90724978e-10
6.11543142e-10
6.09393743e-10
5.96835956e-10
5.89853609e-10
5.90185962e-10
6.10357604e-10
6.09400344e-10
5.94692468e-10
5.89580965e-10
5.89887122e-10
6.10766649e-10
6.09068508e-10
5.92533822e-10
5.9106016e-10
6.1175675e-10
6.09213803e-10
5.95292667e-10
5.89867476e-10
5.90473203e-10
6.10816265e-10
6.09096677e-10
5.95985227e-10
5.89986123e-10
5.90526516e-10
6.11028865e-10
6.09136291e-10
5.96177781e-10
5.90054535e-10
5.90525721e-10
6.11245194e-10
6.09206968e-10
5.96190494e-10
5.90047382e-10
5.90507441e-10
6.1142993e-10
6.09353851e-10
5.95503976e-10
5.89935265e-10
5.90315994e-10
6.11813198e-10
6.0973749e-10
5.93301024e-10
5.91392323e-10
6.10955586e-10
6.09488561e-10
5.95023132e-10
5.90100785e-10
5.90763688e-10
6.11725685e-10
6.09381052e-10
5.95669272e-10
5.9025613e-10
5.90900867e-10
6.117506e-10
6.09400215e-10
5.95667363e-10
5.9027303e-10
5.90897841e-10
6.11856499e-10
6.09443966e-10
5.95667542e-10
5.90278353e-10
5.90870028e-10
6.11970888e-10
6.09380662e-10
5.96378198e-10
5.90388163e-10
5.90929932e-10
6.12051235e-10
6.09472754e-10
5.96157895e-10
5.90347099e-10
5.90923155e-10
6.1220431e-10
6.09632255e-10
5.95600115e-10
5.90089491e-10
5.90427133e-10
6.09004026e-10
6.08818231e-10
6.09996476e-10
5.91609032e-10
5.8979114e-10
5.90310636e-10
6.11251592e-10
6.09908231e-10
5.95211488e-10
5.90267558e-10
5.90968038e-10
6.11719119e-10
6.09792044e-10
5.95054895e-10
5.90059733e-10
5.90884741e-10
6.11862646e-10
6.10911074e-10
5.93238742e-10
5.9176834e-10
6.09723121e-10
6.09901218e-10
5.94228207e-10
5.89985127e-10
5.90949614e-10
6.11898283e-10
6.10623119e-10
5.94091779e-10
5.92528255e-10
6.09968559e-10
6.09664816e-10
5.94489607e-10
5.90383885e-10
5.904813e-10
5.90529911e-10
5.91457144e-10
6.11826579e-10
6.1051178e-10
5.93625148e-10
5.92330458e-10
6.10130762e-10
6.09984024e-10
5.92908483e-10
5.89759356e-10
5.9102926e-10
6.11878598e-10
6.11328941e-10
5.91773746e-10
5.91255867e-10
6.10164942e-10
6.12179173e-10
5.9082151e-10
5.90937864e-10
6.10696713e-10
6.12270114e-10
5.90687736e-10
5.90904734e-10
6.11047123e-10
6.12319356e-10
5.90659526e-10
5.90964716e-10
6.11339296e-10
6.12143044e-10
5.90710253e-10
5.91141406e-10
6.11567093e-10
6.11730903e-10
5.90950829e-10
5.91598915e-10
6.11757793e-10
6.10797683e-10
5.90383435e-10
5.89452612e-10
5.91533319e-10
6.11577647e-10
6.12004796e-10
5.90703246e-10
5.91264629e-10
6.1164557e-10
6.12006188e-10
5.90269393e-10
5.91254352e-10
6.10997152e-10
6.12035376e-10
5.90514346e-10
5.92185975e-10
6.10594562e-10
6.11483404e-10
5.89753296e-10
5.89544221e-10
5.93402857e-10
6.10624774e-10
6.092407e-10
5.9008974e-10
5.91675526e-10
6.1032095e-10
6.07847226e-10
5.89964987e-10
5.92386761e-10
6.09759863e-10
6.08378733e-10
5.90398421e-10
5.94107474e-10
6.09267977e-10
6.09065473e-10
5.89627821e-10
5.89928405e-10
5.96250875e-10
6.09033223e-10
6.08489975e-10
6.10837956e-10
5.89650548e-10
5.89782825e-10
5.90014699e-10
5.89972048e-10
5.95847779e-10
6.08722543e-10
6.08598699e-10
6.05409264e-10
5.90819364e-10
5.94996652e-10
6.08938268e-10
6.0762696e-10
5.89239505e-10
5.89572989e-10
5.96319665e-10
6.09284825e-10
6.07089476e-10
5.90910226e-10
5.95767891e-10
6.08820674e-10
6.08318427e-10
5.89749258e-10
5.90015459e-10
5.97969627e-10
6.0892665e-10
6.09617368e-10
5.90103424e-10
5.90118727e-10
5.98085858e-10
6.08838051e-10
6.10182238e-10
5.90120553e-10
5.90094083e-10
5.97651579e-10
6.08810632e-10
6.10771841e-10
5.90104521e-10
5.90026481e-10
5.97033614e-10
6.08824888e-10
6.1154362e-10
5.89979283e-10
5.89852456e-10
5.96186041e-10
6.08985731e-10
6.11708516e-10
5.8968297e-10
5.89501114e-10
5.94567362e-10
6.09155979e-10
6.08473145e-10
5.90928708e-10
5.94084859e-10
6.09088012e-10
6.11764811e-10
5.89321527e-10
5.89132701e-10
5.92974051e-10
6.09295489e-10
6.09615292e-10
5.90581368e-10
5.92304457e-10
6.09106873e-10
6.10349344e-10
5.90606184e-10
5.92763598e-10
6.08938947e-10
6.11017316e-10
5.90029948e-10
5.89527305e-10
5.93333484e-10
6.08790368e-10
6.1030498e-10
5.90734134e-10
5.89732405e-10
5.93387188e-10
6.08635323e-10
6.09882472e-10
5.90774191e-10
5.89569444e-10
5.92661073e-10
6.08604818e-10
6.09462427e-10
5.90816687e-10
5.8954423e-10
5.92351955e-10
6.08510082e-10
6.08998484e-10
5.91285952e-10
5.89690696e-10
5.92318478e-10
6.08424615e-10
6.08658449e-10
5.91461063e-10
5.8958226e-10
5.9167014e-10
)
;

boundaryField
{
    closed
    {
        type            calculated;
        value           nonuniform List<scalar> 0();
    }
    open
    {
        type            calculated;
        value           nonuniform List<scalar> 0();
    }
    sides
    {
        type            empty;
    }
    procBoundary2to1
    {
        type            processor;
        value           uniform 6.10397439e-10;
    }
    procBoundary2to3
    {
        type            processor;
        value           uniform 6.08495506e-10;
    }
}


// ************************************************************************* //
