/*--------------------------------*- C++ -*----------------------------------*\
| =========                 |                                                 |
| \\      /  F ield         | OpenFOAM: The Open Source CFD Toolbox           |
|  \\    /   O peration     | Version:  2306                                  |
|   \\  /    A nd           | Website:  www.openfoam.com                      |
|    \\/     M anipulation  |                                                 |
\*---------------------------------------------------------------------------*/
FoamFile
{
    version     2.0;
    format      ascii;
    arch        "LSB;label=32;scalar=64";
    class       volScalarField;
    location    "0.00136";
    object      H;
}
// * * * * * * * * * * * * * * * * * * * * * * * * * * * * * * * * * * * * * //

dimensions      [0 0 0 0 0 0 0];

internalField   nonuniform List<scalar> 
531
(
1.22138558e-09
3.45422949e-08
4.20827383e-08
5.37349205e-10
1.14674136e-09
1.8436429e-08
4.85565135e-08
4.86217857e-08
4.74314167e-10
1.06354789e-09
1.86997907e-08
4.95901128e-08
4.92438866e-08
4.71334557e-10
1.18920232e-09
3.44849403e-08
3.99293713e-08
5.22996222e-10
1.33411285e-09
1.44422648e-08
3.21945004e-08
3.94648868e-08
4.02802249e-08
4.39007092e-08
4.9996574e-08
3.44754328e-08
9.35924801e-10
1.43112876e-09
1.39850034e-09
2.52998406e-08
3.66981432e-08
6.39805578e-10
1.37451241e-09
2.02335025e-08
3.27310317e-08
4.78029482e-08
4.71851717e-08
4.93986508e-10
1.85308319e-08
4.8875788e-08
1.6210523e-08
1.08074813e-09
1.06239596e-09
3.6299938e-08
4.8827526e-08
1.36567561e-08
1.09292376e-09
3.39024056e-08
4.12618074e-08
4.40432955e-09
1.19889079e-09
1.00573861e-09
1.35253499e-08
4.95472281e-08
5.04468571e-08
1.25644616e-08
1.13942435e-09
3.45842819e-08
3.87175652e-08
5.2661177e-10
2.43868058e-08
4.90148536e-08
3.77997922e-10
1.19390552e-09
1.06680388e-09
2.26088986e-08
3.78904702e-08
5.13907291e-08
5.12696433e-08
4.57420952e-10
1.02508906e-09
2.46367607e-08
5.19046351e-08
5.15812431e-08
9.06293321e-09
1.07219022e-09
3.54834762e-08
4.60890248e-08
3.49603047e-09
1.15628667e-09
3.86421586e-08
4.34466493e-08
4.30389184e-10
1.22707909e-09
1.15496784e-09
3.5638952e-08
4.37740419e-08
7.92377476e-09
1.00263451e-09
1.04001488e-09
1.03348626e-09
3.24327472e-08
4.5308351e-08
5.74805254e-08
5.75592805e-08
3.94431148e-10
1.01545677e-09
2.92508235e-08
4.94327489e-08
3.80578615e-08
9.07824252e-10
1.377831e-09
1.36099387e-09
3.36192676e-08
3.8350133e-08
5.45881131e-10
2.44094627e-08
5.20700585e-08
5.04967642e-10
1.1526696e-09
2.29793292e-08
3.45296593e-08
4.85556672e-08
4.82589125e-08
5.49458652e-10
2.70985089e-08
5.22788354e-08
1.07293344e-08
1.09606943e-09
1.01850962e-09
3.53971628e-08
4.61541656e-08
4.26527726e-10
1.23361863e-09
1.11118274e-09
3.34531e-08
4.51946345e-08
1.8718648e-08
1.06361005e-09
1.11669566e-09
4.08740042e-08
5.15089597e-08
4.51527774e-10
1.00653808e-09
2.70504719e-08
5.28966102e-08
5.25601871e-08
1.16127344e-08
1.05695417e-09
3.54015568e-08
4.66361576e-08
2.11021156e-09
1.16582593e-09
3.83585559e-08
4.51629416e-08
4.48129796e-10
1.20600786e-09
3.96585684e-08
4.33187564e-08
4.51286336e-10
1.24902574e-09
1.19952205e-09
3.61992039e-08
4.152951e-08
5.62205982e-10
1.25103114e-09
1.65155764e-08
3.71497792e-08
3.85362161e-08
4.98364668e-08
4.95464867e-08
5.72278636e-10
2.4142409e-08
4.73965308e-08
5.07307045e-10
1.19437166e-09
3.65504397e-08
3.72604771e-08
5.26101261e-10
2.51187912e-08
4.9986934e-08
3.75442281e-10
1.1711093e-09
1.05875495e-09
3.50092937e-08
4.58658765e-08
5.73943716e-10
1.08811543e-09
2.36106007e-08
5.1215791e-08
5.10031731e-08
5.17187515e-10
1.0613634e-09
2.01542968e-08
4.85729789e-08
4.84538474e-08
4.51938797e-10
1.08820434e-09
8.52202087e-09
4.57107735e-08
4.5596784e-08
4.37376369e-10
2.94131954e-08
5.16570141e-08
4.63900463e-10
1.13080923e-09
1.03534716e-09
3.7344996e-08
4.8285463e-08
8.41826242e-09
1.14309054e-09
9.82040354e-10
3.60747112e-08
4.98877573e-08
4.1649427e-10
1.12349568e-09
3.88894579e-08
4.51142759e-08
5.12816315e-10
1.20988408e-09
2.79500218e-08
3.76608514e-08
5.07096121e-08
5.03528275e-08
2.31874234e-09
1.1129253e-09
3.97481254e-08
4.44267204e-08
4.02427226e-10
1.21401332e-09
1.14372265e-09
3.69123644e-08
4.55349654e-08
5.631418e-10
1.08305324e-09
2.46537199e-08
5.15777676e-08
5.14441906e-08
5.27751643e-10
1.04976637e-09
2.08294403e-08
5.05010826e-08
5.00097367e-08
4.88464931e-10
1.14353096e-09
3.55748979e-08
4.32491803e-08
5.41285135e-10
1.16047152e-09
1.59246726e-08
4.66241633e-08
4.64720544e-08
5.62872531e-10
1.24997487e-09
2.15901946e-08
3.44050565e-08
4.68548183e-08
4.64696713e-08
6.20068301e-10
2.39264681e-08
4.83843338e-08
5.30624839e-10
1.17738424e-09
3.61016072e-08
4.28889424e-08
5.4711114e-10
1.2484322e-09
3.62221855e-08
4.25625475e-08
5.31338165e-10
1.25828573e-09
3.71303641e-08
4.29088977e-08
4.93784844e-10
1.26260711e-09
3.91815799e-08
4.2155669e-08
1.79000352e-09
1.27278364e-09
9.42736666e-10
1.79237536e-08
5.22788933e-08
5.14088529e-08
4.17253461e-10
1.18901232e-09
3.92173368e-08
3.94981498e-08
4.7524609e-10
2.45849928e-08
5.31357307e-08
4.56758294e-10
1.09682761e-09
3.85510164e-08
4.31378643e-08
2.50957812e-09
1.24500464e-09
2.62932045e-09
3.44314982e-08
4.25425845e-08
5.32759882e-08
5.30804612e-08
4.19187669e-10
1.11231901e-09
1.04499216e-09
3.82326203e-08
4.80119885e-08
6.03234399e-09
1.01228954e-09
9.71478508e-10
1.006176e-09
1.73806733e-08
5.48481069e-08
5.42969867e-08
1.86387343e-09
1.08093884e-09
4.02393817e-08
4.86410828e-08
4.51291325e-10
1.13966896e-09
3.84699519e-08
4.64504733e-08
5.73531999e-10
1.10628337e-09
2.51115383e-08
5.00193767e-08
4.97904675e-08
5.81663964e-10
1.08166905e-09
1.76762442e-08
4.85520826e-08
4.81164472e-08
5.52039162e-10
1.20312963e-09
3.49771809e-08
4.02720937e-08
6.60027224e-10
1.31790136e-09
2.05407708e-08
3.38131492e-08
4.66340917e-08
4.6436644e-08
6.54244735e-10
1.13962559e-09
1.98912298e-08
4.64938684e-08
4.64289586e-08
6.29150707e-10
1.10423925e-09
1.90733594e-08
5.00414681e-08
4.97983103e-08
5.1438425e-10
1.18865691e-09
1.14619205e-09
3.69821276e-08
4.72064182e-08
6.29960966e-10
1.05995489e-09
2.74576156e-08
5.51282842e-08
5.47977899e-08
5.08495448e-10
1.15384888e-09
1.12888655e-09
3.75025477e-08
4.59630024e-08
6.4070594e-10
1.09625747e-09
2.67820032e-08
5.06517347e-08
5.03094542e-08
6.25880562e-10
1.0909829e-09
2.29584065e-08
4.87693557e-08
4.85685979e-08
6.50735587e-10
1.08747535e-09
2.33494045e-08
5.01115849e-08
4.97140605e-08
6.06640824e-10
1.13951029e-09
3.53728276e-08
4.50399425e-08
6.78153771e-10
1.08097251e-09
2.52952805e-08
5.3775171e-08
5.32305192e-08
3.90491339e-10
1.13093017e-09
8.44229847e-10
1.24332204e-09
1.20376255e-09
2.95194229e-08
4.2700545e-08
5.20899919e-08
5.19328164e-08
5.41813166e-10
1.14907868e-09
3.7434404e-08
4.38966549e-08
6.50928729e-10
1.2193942e-09
3.50005343e-08
4.25880064e-08
7.17816017e-10
1.16892593e-09
2.22993978e-08
4.84466992e-08
4.817047e-08
6.59075236e-10
1.1766142e-09
3.51200641e-08
4.41095221e-08
7.20211945e-10
1.13967809e-09
2.44483168e-08
4.98968452e-08
4.94281009e-08
6.28269448e-10
1.18027798e-09
3.6332852e-08
4.3947023e-08
6.61072602e-10
1.21255029e-09
3.54980966e-08
4.32553175e-08
7.09942355e-10
1.15443968e-09
2.23398266e-08
4.85111731e-08
4.8314157e-08
6.53639426e-10
1.06073808e-09
2.842241e-08
5.57345341e-08
5.5555516e-08
5.27324706e-10
1.12975417e-09
1.04407893e-09
3.82704701e-08
4.47919706e-08
4.65586822e-10
1.26287302e-09
9.55699539e-10
2.81642745e-08
5.90210967e-08
5.85776045e-08
2.01751746e-09
9.74563139e-10
9.16021677e-10
1.01678596e-09
3.36040699e-08
5.05223669e-08
6.74564545e-10
9.91606379e-10
3.09402428e-08
5.85576595e-08
5.80470934e-08
4.96274288e-10
1.09854872e-09
1.07136086e-09
4.00338539e-08
4.94172787e-08
6.55888525e-10
1.02832366e-09
3.04162583e-08
5.33299133e-08
5.26896374e-08
6.14696483e-10
1.12188803e-09
3.85364148e-08
4.53847261e-08
5.77558682e-10
1.17785041e-09
4.29325579e-08
4.53372774e-08
4.93632457e-10
1.20858757e-09
1.06218221e-09
3.82634719e-08
4.84987253e-08
5.78557474e-10
1.12662955e-09
4.18752351e-08
4.8259022e-08
5.06196136e-10
1.13098385e-09
4.51080282e-08
4.93126101e-08
5.00138108e-10
1.1220308e-09
9.20924358e-10
1.16190131e-09
2.63097323e-08
4.21095484e-08
5.17389892e-08
5.14792027e-08
5.74023995e-10
1.1298463e-09
3.94445858e-08
4.50286836e-08
7.02731099e-10
1.19654641e-09
3.03064252e-08
3.99193478e-08
5.05323222e-08
5.05537522e-08
5.64445975e-10
1.16045059e-09
1.03681178e-09
3.73782275e-08
4.67310634e-08
5.2460618e-10
1.1799849e-09
9.93144858e-10
3.90933777e-08
5.11253244e-08
5.55913917e-10
1.13353354e-09
4.4267685e-08
4.4868728e-08
5.40513794e-10
1.28021602e-09
1.1068801e-09
2.67490733e-08
4.16549917e-08
4.96518945e-08
4.97591755e-08
6.8572093e-10
1.05370193e-09
3.18877286e-08
5.52738741e-08
5.50708735e-08
6.5950597e-10
1.15216985e-09
1.1203847e-09
3.78816676e-08
4.21476637e-08
)
;

boundaryField
{
    closed
    {
        type            calculated;
        value           nonuniform List<scalar> 0();
    }
    open
    {
        type            calculated;
        value           nonuniform List<scalar> 0();
    }
    sides
    {
        type            empty;
    }
    procBoundary1to0
    {
        type            processor;
        value           uniform 5.00008137e-10;
    }
    procBoundary1to2
    {
        type            processor;
        value           uniform 6.58789598e-10;
    }
}


// ************************************************************************* //
