/*--------------------------------*- C++ -*----------------------------------*\
| =========                 |                                                 |
| \\      /  F ield         | OpenFOAM: The Open Source CFD Toolbox           |
|  \\    /   O peration     | Version:  2306                                  |
|   \\  /    A nd           | Website:  www.openfoam.com                      |
|    \\/     M anipulation  |                                                 |
\*---------------------------------------------------------------------------*/
FoamFile
{
    version     2.0;
    format      ascii;
    arch        "LSB;label=32;scalar=64";
    class       volScalarField;
    location    "0.00136";
    object      mu;
}
// * * * * * * * * * * * * * * * * * * * * * * * * * * * * * * * * * * * * * //

dimensions      [1 -1 -1 0 0 0 0];

internalField   nonuniform List<scalar> 
531
(
2.02905828e-05
1.98076089e-05
1.95918575e-05
2.02456341e-05
2.02681998e-05
1.98593758e-05
1.94154497e-05
1.94129584e-05
2.02486656e-05
2.02555409e-05
1.98540277e-05
1.93871118e-05
1.93916175e-05
2.02388002e-05
2.02880411e-05
1.98107682e-05
1.96449203e-05
2.02448297e-05
2.02951077e-05
1.9908489e-05
1.97645651e-05
1.96619159e-05
1.96348904e-05
1.95302218e-05
1.93682484e-05
1.97373275e-05
2.02876224e-05
2.0320396e-05
2.03112754e-05
1.97910054e-05
1.97181758e-05
2.02669052e-05
2.03048718e-05
1.9840418e-05
1.97686557e-05
1.94397301e-05
1.94483718e-05
2.0231733e-05
1.98485058e-05
1.94071206e-05
1.98752574e-05
2.02627618e-05
2.02957593e-05
1.97333886e-05
1.94045346e-05
1.99206367e-05
2.0271769e-05
1.97798123e-05
1.96137592e-05
2.01251488e-05
2.0275723e-05
2.02502794e-05
1.9922395e-05
1.93846378e-05
1.93551743e-05
1.99409714e-05
2.0286827e-05
1.97912451e-05
1.96794274e-05
2.02416717e-05
1.97971024e-05
1.94022876e-05
2.02568232e-05
2.02669012e-05
2.02582273e-05
1.98206404e-05
1.97143903e-05
1.9332971e-05
1.93357351e-05
2.02484495e-05
2.02589317e-05
1.98052291e-05
1.93175186e-05
1.93240387e-05
2.00124579e-05
2.02785961e-05
1.97729544e-05
1.94800502e-05
2.01464037e-05
2.02812528e-05
1.96947641e-05
1.95541887e-05
2.02475936e-05
2.02741839e-05
2.02589835e-05
1.97681049e-05
1.95535299e-05
2.00381222e-05
2.0254192e-05
2.02662846e-05
2.02648214e-05
1.9784816e-05
1.95110528e-05
1.91504253e-05
1.91481026e-05
2.02574592e-05
2.02686458e-05
1.97737382e-05
1.93883842e-05
1.96924252e-05
2.02811627e-05
2.02990244e-05
2.0298056e-05
1.97805789e-05
1.96816953e-05
2.025701e-05
1.97916971e-05
1.93124237e-05
2.02671103e-05
2.02640419e-05
1.98200723e-05
1.98010753e-05
1.94183927e-05
1.9422378e-05
2.02409184e-05
1.97802896e-05
1.93073747e-05
1.99809993e-05
2.02580643e-05
2.02763496e-05
1.97736056e-05
1.94804312e-05
2.02603732e-05
2.02823753e-05
2.02649612e-05
1.97648955e-05
1.95108249e-05
1.98396918e-05
2.02600409e-05
2.02908583e-05
1.9624032e-05
1.93282836e-05
2.02594276e-05
2.0258403e-05
1.97940572e-05
1.92880225e-05
1.92956158e-05
1.99592595e-05
2.02805817e-05
1.9773895e-05
1.94633399e-05
2.01829089e-05
2.02897345e-05
1.97058771e-05
1.95023142e-05
2.02408167e-05
2.02927271e-05
1.96685133e-05
1.95538926e-05
2.02543098e-05
2.02817706e-05
2.02727076e-05
1.97542307e-05
1.96072595e-05
2.02573678e-05
2.0279055e-05
1.98797936e-05
1.97271668e-05
1.96948753e-05
1.93786886e-05
1.93855759e-05
2.0243976e-05
1.9808261e-05
1.94475776e-05
2.02454744e-05
2.02756623e-05
1.97574649e-05
1.97233158e-05
2.02347536e-05
1.97954942e-05
1.9374272e-05
2.02593903e-05
2.02668752e-05
2.02662101e-05
1.97859878e-05
1.94906377e-05
2.02595079e-05
2.02640403e-05
1.98119247e-05
1.93383043e-05
1.93427652e-05
2.02475616e-05
2.02560034e-05
1.98423562e-05
1.94180979e-05
1.94189378e-05
2.02286842e-05
2.02479183e-05
2.00083525e-05
1.95009235e-05
1.9502071e-05
2.02255738e-05
1.97894436e-05
1.93262416e-05
2.02416294e-05
2.02626962e-05
2.02639913e-05
1.9717408e-05
1.94212832e-05
2.00334967e-05
2.02695859e-05
2.02728548e-05
1.97546167e-05
1.93736019e-05
2.0246398e-05
2.02811369e-05
1.9690362e-05
1.95077315e-05
2.02399973e-05
2.02773499e-05
1.98087779e-05
1.97157598e-05
1.93549579e-05
1.93610734e-05
2.01746485e-05
2.02731191e-05
1.96680697e-05
1.95281923e-05
2.0243035e-05
2.02731509e-05
2.02623345e-05
1.97362418e-05
1.95002305e-05
2.02555365e-05
2.02626757e-05
1.98072037e-05
1.93278377e-05
1.93300541e-05
2.02489548e-05
2.02585044e-05
1.98336384e-05
1.93599524e-05
1.93698766e-05
2.02381773e-05
2.02803149e-05
1.97788788e-05
1.95608535e-05
2.02474451e-05
2.02692756e-05
1.98874423e-05
1.94694169e-05
1.94701302e-05
2.02535715e-05
2.02822903e-05
1.98279029e-05
1.97815667e-05
1.94647248e-05
1.9470767e-05
2.02508815e-05
1.98057257e-05
1.94167997e-05
2.02510102e-05
2.0287365e-05
1.97645556e-05
1.9564164e-05
2.02418643e-05
2.0298473e-05
1.97641627e-05
1.9570086e-05
2.02397189e-05
2.03024054e-05
1.97404276e-05
1.955978e-05
2.02372122e-05
2.03021957e-05
1.9684683e-05
1.95810829e-05
2.01925013e-05
2.02910635e-05
2.02352263e-05
1.985789e-05
1.93082269e-05
1.93277525e-05
2.02264485e-05
2.02894041e-05
1.96843432e-05
1.96586619e-05
2.02348303e-05
1.97971782e-05
1.92811556e-05
2.02494949e-05
2.02693978e-05
1.96998145e-05
1.9565017e-05
2.01699437e-05
2.02716852e-05
2.01400215e-05
1.97846641e-05
1.95970313e-05
1.92771918e-05
1.92832236e-05
2.02344125e-05
2.02574595e-05
2.02538956e-05
1.97002932e-05
1.94308685e-05
2.00877135e-05
2.02574468e-05
2.02653157e-05
2.02550239e-05
1.98687721e-05
1.92300408e-05
1.9245323e-05
2.01901606e-05
2.0283397e-05
1.96539749e-05
1.94071097e-05
2.0238754e-05
2.02841047e-05
1.97005067e-05
1.94709485e-05
2.02498575e-05
2.02678374e-05
1.98069608e-05
1.93732641e-05
1.93782386e-05
2.02496054e-05
2.02582196e-05
1.98650369e-05
1.94165054e-05
1.942289e-05
2.02428334e-05
2.02879392e-05
1.97945612e-05
1.96369565e-05
2.02532047e-05
2.02877396e-05
1.98380085e-05
1.97775797e-05
1.94716716e-05
1.94718663e-05
2.02543368e-05
2.026533e-05
1.98431196e-05
1.94752319e-05
1.94745154e-05
2.02503337e-05
2.02607315e-05
1.9851315e-05
1.93722922e-05
1.93769429e-05
2.02527706e-05
2.0273093e-05
2.02697015e-05
1.97317248e-05
1.94513911e-05
2.0262376e-05
2.02664812e-05
1.97897578e-05
1.92215501e-05
1.92309322e-05
2.0252309e-05
2.02736496e-05
2.02663412e-05
1.97181303e-05
1.94874984e-05
2.02607363e-05
2.0264154e-05
1.97941317e-05
1.93549863e-05
1.93619386e-05
2.02487486e-05
2.02648941e-05
1.98186884e-05
1.94091942e-05
1.94129001e-05
2.02539625e-05
2.02620537e-05
1.98120371e-05
1.93707118e-05
1.93777248e-05
2.0247807e-05
2.02792739e-05
1.97798064e-05
1.95127597e-05
2.02570814e-05
2.02593999e-05
1.98013253e-05
1.92625801e-05
1.92768082e-05
2.02344456e-05
2.02794633e-05
2.02485392e-05
2.02862773e-05
2.02712645e-05
1.97793966e-05
1.95759106e-05
1.93110029e-05
1.93138318e-05
2.0250295e-05
2.02854777e-05
1.97256224e-05
1.95389294e-05
2.02522228e-05
2.02870573e-05
1.9788143e-05
1.95771532e-05
2.02619502e-05
2.02729993e-05
1.98169e-05
1.94172287e-05
1.94200359e-05
2.0256363e-05
2.02864808e-05
1.97828743e-05
1.95357819e-05
2.02643163e-05
2.02705467e-05
1.9800515e-05
1.93762376e-05
1.93839582e-05
2.02480214e-05
2.02901814e-05
1.97554254e-05
1.95368645e-05
2.0251951e-05
2.0286354e-05
1.97757274e-05
1.955969e-05
2.02575979e-05
2.02691567e-05
1.9819888e-05
1.94161886e-05
1.94185541e-05
2.02515799e-05
2.02679652e-05
1.97922784e-05
1.92032545e-05
1.92086617e-05
2.02512056e-05
2.0266082e-05
2.0264973e-05
1.97020206e-05
1.95191481e-05
2.02410027e-05
2.02732739e-05
2.02431992e-05
1.97904919e-05
1.91004161e-05
1.91181057e-05
2.01836254e-05
2.02639569e-05
2.02470991e-05
2.02662971e-05
1.97971549e-05
1.93579149e-05
2.02518853e-05
2.02555077e-05
1.97888245e-05
1.9115709e-05
1.91340364e-05
2.0235718e-05
2.02647744e-05
2.02552917e-05
1.96517689e-05
1.93906129e-05
2.02548873e-05
2.02530033e-05
1.97851248e-05
1.9276324e-05
1.92924826e-05
2.02287186e-05
2.02762218e-05
1.97041664e-05
1.9500629e-05
2.02348358e-05
2.02774538e-05
1.95780187e-05
1.95014828e-05
2.02477513e-05
2.02715942e-05
2.02656741e-05
1.97007125e-05
1.94138935e-05
2.02432406e-05
2.02763574e-05
1.96079588e-05
1.94191672e-05
2.02329484e-05
2.02781964e-05
1.9518222e-05
1.93887624e-05
2.02286096e-05
2.02779634e-05
2.02457973e-05
2.02789898e-05
1.98055426e-05
1.9591515e-05
1.93227451e-05
1.93274078e-05
2.02448446e-05
2.02771724e-05
1.96723236e-05
1.95114248e-05
2.02499946e-05
2.02702895e-05
1.97961993e-05
1.96583634e-05
1.93583388e-05
1.93569349e-05
2.02486915e-05
2.02587509e-05
2.0261754e-05
1.97267641e-05
1.94664134e-05
2.02505624e-05
2.02665636e-05
2.02637128e-05
1.96757294e-05
1.93384463e-05
2.02505951e-05
2.02765455e-05
1.95367076e-05
1.95138649e-05
2.02511536e-05
2.02788663e-05
2.0262706e-05
1.97926247e-05
1.96080106e-05
1.93817985e-05
1.93779637e-05
2.02605213e-05
2.02689362e-05
1.97833472e-05
1.92171548e-05
1.92229588e-05
2.02575056e-05
2.02696902e-05
2.0269404e-05
1.97086946e-05
1.95921679e-05
)
;

boundaryField
{
    closed
    {
        type            calculated;
        value           nonuniform List<scalar> 0();
    }
    open
    {
        type            calculated;
        value           nonuniform List<scalar> 0();
    }
    sides
    {
        type            empty;
    }
    procBoundary1to0
    {
        type            processor;
        value           uniform 2.02406093e-05;
    }
    procBoundary1to2
    {
        type            processor;
        value           uniform 2.02604514e-05;
    }
}


// ************************************************************************* //
