/*--------------------------------*- C++ -*----------------------------------*\
| =========                 |                                                 |
| \\      /  F ield         | OpenFOAM: The Open Source CFD Toolbox           |
|  \\    /   O peration     | Version:  2306                                  |
|   \\  /    A nd           | Website:  www.openfoam.com                      |
|    \\/     M anipulation  |                                                 |
\*---------------------------------------------------------------------------*/
FoamFile
{
    version     2.0;
    format      ascii;
    arch        "LSB;label=32;scalar=64";
    class       volScalarField;
    location    "0.00162";
    object      h;
}
// * * * * * * * * * * * * * * * * * * * * * * * * * * * * * * * * * * * * * //

dimensions      [0 2 -2 0 0 0 0];

internalField   nonuniform List<scalar> 
531
(
-4887.67606
-4864.31824
9547.29184
10175.6359
1105.17439
-4955.83588
-4938.33502
9555.9227
10135.8728
686.793648
-5193.07883
-5177.04648
9552.09215
10054.8991
17.8589268
-5614.68856
-5584.31902
9486.64328
10171.9306
-2192.25399
-3596.73673
9314.55711
10398.4086
-2255.56824
-3199.36471
9419.82593
10350.2516
198.616583
-4699.1209
-4693.12401
9621.40842
10311.9794
1826.55845
-3986.84164
-3940.59727
-6271.09149
-6268.65908
8732.88505
9987.81209
9503.21776
10069.6718
10130.2436
10264.233
3729.13905
-3750.12227
-5470.3866
-5470.46018
9187.37292
9839.70302
-1747.2547
-7325.78141
-6780.47622
8985.70012
10261.4786
9852.07413
-2437.64981
-4619.83663
9239.66985
10298.5113
-2759.81632
-3674.14437
9420.35041
10442.5587
147.686604
-3466.02183
-3854.67277
-4327.66155
-6884.12377
-6882.32558
8746.7148
10091.2882
9579.3384
10417.1697
10410.864
-1608.61186
-3653.72294
9542.52333
10242.0463
-625.486712
-5251.33026
-5250.16225
9542.3312
10109.614
-42.2602823
-5328.49383
-5327.7335
9567.53336
9992.28788
-191.962541
-6305.47098
-5822.27003
9231.74368
10413.1543
9975.14622
-1793.19224
-4164.31644
9535.38593
10311.6172
-1150.87877
-4091.28796
-5239.4822
-5240.37631
9303.32384
10253.6152
-2664.04829
-3679.05336
9616.36739
10317.6127
0.206762498
-4725.28038
-4726.07868
9752.78359
10198.7541
527.184859
-5034.36946
-5034.787
9702.36255
10013.9807
-678.115727
-6452.76954
-6253.52229
9236.34657
9926.31023
9990.36977
9990.51482
-582.411275
-6498.06086
-6318.95888
9524.4638
10075.161
-3025.47075
-4388.21848
9597.4998
10171.3412
-1067.66046
-5294.81621
-5215.21776
9844.94764
10141.8829
205.785844
-5122.65128
-4999.17668
9861.52211
10120.9452
170.250592
-5644.72223
-5133.29009
9455.75552
10509.0073
10098.764
-548.639826
-5446.14434
-5179.2376
9750.19353
10258.9115
-2427.59905
-3682.80903
9821.10242
10305.1224
-347.424153
-4963.56016
-4777.71773
9893.17196
10190.1421
396.593455
-5125.27013
-4790.13567
9848.70094
10360.4211
-2103.15083
-3085.63291
9942.1978
10565.9538
121.718419
-3118.12683
-4482.83177
-4493.53644
9760.57401
10071.2069
-981.53662
-6423.17611
-5865.21092
9384.50433
10203.7849
9909.46051
-3957.27297
-4227.21487
9269.18533
-2562.70233
-5679.06666
9305.6499
10408.9748
9719.80346
2782.22533
-5998.00226
-4796.34941
9611.06641
-2320.20101
-4667.69687
9427.44268
10571.1501
9838.90964
305.18156
-5688.8222
-5239.46618
9868.04854
10102.4364
-290.115078
-5401.62957
-4986.12123
9813.91391
10201.5503
2704.0119
-5070.01488
-4462.9946
9732.58299
-1803.01898
-4357.25351
9511.44576
10619.1909
9935.97104
286.516479
-5459.91821
-5093.76577
9852.90149
10084.5048
-797.598621
-5718.08587
-5451.49112
9764.7673
9837.73471
-2121.24304
-7697.57468
-7155.20997
9030.15569
9856.20525
9552.14433
9996.77299
10269.8428
10161.5045
221.11817
-5120.44142
-4650.2459
-7297.06318
-7049.78121
9246.41185
9975.69819
-4816.24698
-4798.71804
9119.67211
10582.26
9678.23534
443.961193
-6517.41456
-4691.59511
9444.74318
-1590.01733
-5722.35427
9650.90482
10212.4498
-3859.66767
-3859.59049
9313.94149
10667.7705
9867.07885
618.891713
-5745.698
-5301.57054
9639.12479
10502.7207
10228.7511
-548.190912
-4440.69218
-4108.45491
-6512.96302
-6296.00602
9123.57616
10028.1571
9881.6775
10146.0447
1963.27235
-4896.17276
-4655.50962
9783.52267
10372.2803
1401.24298
-3518.86636
-4917.14925
-4860.96362
9496.32902
10237.7273
-3093.49255
-4192.67223
9644.09513
10236.5918
-731.244073
-5070.51657
-4898.25366
9679.42693
10250.6992
-2215.30362
-4051.08885
9686.12782
10172.2205
-809.16076
-5964.32413
-5799.3608
9300.85358
10080.6454
-4477.29793
-5083.08738
8756.17089
10291.1574
9762.11859
-3810.8604
-5462.93249
8785.38644
10339.7736
9734.31097
-2730.93867
-7476.39512
-7350.91815
9197.001
9943.81578
-2966.0873
-4615.6807
9320.69255
10323.6206
-2551.6704
-3656.45798
9505.31953
10434.4307
-848.932417
-3583.10465
-4997.72025
-4989.40273
9156.60825
10193.8661
-3648.58614
-4703.5569
9027.03754
10204.0802
-4070.66695
-4814.96598
8829.97107
10205.8555
9971.10552
10252.861
249.001195
-4134.15354
-5077.99867
-5252.41371
9029.16086
9929.13157
-2547.51668
-6861.4413
-6821.63268
9124.815
9948.61515
-3802.83599
-5364.31566
8901.72926
10121.5723
-4620.50317
-5080.07107
8651.16252
10355.0076
9875.65063
-3042.88847
-5607.11248
9115.16567
10082.7431
-3330.39727
-4966.93142
9302.14777
10110.5486
-1319.53258
-5447.49046
-5433.04661
9508.30953
10166.3503
-2380.17444
-4392.51751
9500.26653
10195.2606
-1070.76569
-5333.85559
-5324.99152
9527.21679
10159.8751
-2558.24929
-4572.61903
9515.98886
10131.9364
-1622.4875
-5718.79617
-5712.95213
9498.84801
10122.6114
-3219.25356
-4622.5404
9335.68342
10270.8246
-3451.41805
-4279.78301
9409.82726
10301.2901
-3013.12993
-4264.73934
9638.12177
10192.326
-1253.50112
-5468.7295
-5466.06493
9654.38491
10143.8175
-3611.6684
-4834.91537
9336.77052
10210.1061
-4467.31632
-4754.67152
9182.41282
10391.5173
10021.3617
-3074.29079
-5108.79512
9745.09699
10131.8414
-2165.7343
-5190.04016
-5067.51656
10028.1321
10322.8308
-2217.83615
-3298.76218
10055.6463
10561.5091
16.1097026
-3125.01115
-3799.29382
-3794.9383
9931.54765
10425.0895
-1159.40319
-3535.48955
-4357.05792
-3992.77257
9826.2299
-1226.68221
-5141.07098
10042.6905
10246.9109
-3079.96784
-4371.65355
10081.3318
10205.8942
-1852.7322
-5776.65051
-4971.06717
9878.9725
10232.6864
10395.366
10338.9264
760.204288
-4044.31738
-4288.00165
-4509.35544
10046.281
10168.6723
-1269.05074
-5605.56582
-3349.60041
9756.09282
-1636.38966
-5037.10507
10121.8381
10194.302
-4265.18594
-4005.03675
9799.06471
10383.3617
9940.45935
4075.33007
-5541.11539
-4973.84083
10263.9488
10095.9487
-1653.77705
-5611.32363
-4184.56711
9701.94465
10353.0662
6769.66901
-4553.36874
-5555.3784
-6068.38061
-4957.04706
9772.16573
10457.0527
9857.04861
-2327.54304
-4135.95329
10523.1564
10165.3727
-3192.43582
-2918.55598
10559.4811
10481.7728
381.861075
-3367.07669
-3941.89905
-3545.54305
10495.5819
10105.1707
-1945.7942
-4825.22733
-3707.38058
10466.851
10082.8357
-1653.60521
-4922.76103
-3829.62134
10448.2427
9991.77696
-1849.70684
-5627.16521
-3841.29742
10182.6654
10616.549
9935.56697
)
;

boundaryField
{
    closed
    {
        type            lookUpEnthalpy;
        h0              nonuniform List<scalar> 0();
        value           nonuniform List<scalar> 0();
    }
    open
    {
        type            zeroGradient;
    }
    sides
    {
        type            empty;
    }
    procBoundary3to2
    {
        type            processor;
        value           uniform 1234.75327;
    }
    procBoundary3to4
    {
        type            processor;
        value           uniform -1940.8069;
    }
}


// ************************************************************************* //
