/*--------------------------------*- C++ -*----------------------------------*\
| =========                 |                                                 |
| \\      /  F ield         | OpenFOAM: The Open Source CFD Toolbox           |
|  \\    /   O peration     | Version:  2306                                  |
|   \\  /    A nd           | Website:  www.openfoam.com                      |
|    \\/     M anipulation  |                                                 |
\*---------------------------------------------------------------------------*/
FoamFile
{
    version     2.0;
    format      ascii;
    arch        "LSB;label=32;scalar=64";
    class       volScalarField;
    location    "0.00174";
    object      prefDh_H;
}
// * * * * * * * * * * * * * * * * * * * * * * * * * * * * * * * * * * * * * //

dimensions      [1 1 -3 0 0 0 0];

internalField   nonuniform List<scalar> 
531
(
23130.052
23161.9178
23924.9956
23966.2971
23371.2008
23116.4159
23156.4652
23929.3835
23968.3613
23372.1965
23084.0809
23136.2493
23937.948
23963.5866
23369.4222
23031.0559
23090.6446
23924.4418
23979.2392
23344.2245
23237.9871
23913.8184
23971.055
23355.6233
23281.0323
23931.2133
23950.6347
23372.4213
23086.576
23170.9255
23911.2527
23965.6492
23568.5562
23249.8927
23079.0026
23155.8921
22998.5734
23059.679
23942.561
23957.9722
23958.9352
23959.4629
23964.8081
23966.3809
23377.8336
22981.0576
23038.365
23966.4123
23967.2928
23297.4777
22761.4255
23019.7403
23952.8021
23960.1614
23959.1162
23292.8226
23146.5126
23977.6127
23961.8775
23274.6556
23279.3843
23993.679
23959.2746
23362.944
23233.2764
23274.6171
23170.1268
23222.1421
23086.2018
23282.8624
23974.3874
23983.0007
23971.5941
23982.6695
23375.9062
23326.9884
24000.2011
23965.1265
23369.1466
23099.8351
23176.7636
23979.3533
23953.2946
23383.4407
23028.7219
23121.8174
23975.4869
23945.9251
23385.0861
22901.0179
23137.6778
23957.6277
23956.7578
23950.4056
23379.4009
23245.1964
23990.7177
23947.2131
23390.3688
23190.7105
23089.4572
23134.3122
23970.7803
23946.8273
23227.1751
23230.5489
23987.6607
23934.0495
23388.2642
23064.1083
23166.6634
23970.2189
23933.9015
23389.7671
23021.2442
23124.4662
23971.2815
23933.2466
23365.8627
22855.007
22999.1985
23958.8311
23939.2548
23955.4158
23927.4739
23381.764
22984.9976
23098.2332
23964.0213
23955.2281
23252.5829
23210.9975
23992.6813
23938.6174
23387.3925
23024.8882
23117.7928
23974.4085
23938.1116
23387.4891
23025.9326
23119.6324
23978.9196
23935.5732
23381.27
22976.6842
23090.7836
23957.3719
23962.8809
23918.0106
23376.0455
23031.7827
23122.437
23967.1532
23962.6416
23304.4295
23245.846
23991.0413
23943.4547
23382.7701
23075.3698
23155.4477
23981.356
23933.1847
23377.2943
23058.1471
23146.3512
23965.2678
23959.3728
23354.2584
23307.2512
23982.122
23950.6844
23392.344
23275.1709
23112.8778
23138.8086
23975.5606
23928.0829
23400.654
22854.7779
22970.5712
23947.5106
23928.6062
23918.9809
23224.5908
23249.7541
23958.1942
23287.1253
22818.8494
23959.9402
23923.5336
23918.6962
23922.6816
23169.5728
23182.4573
23952.7027
23272.9148
22954.9242
23962.7037
23926.9741
23896.4608
23407.1485
22924.5573
23034.2001
23945.5859
23911.8313
23414.3916
22825.2637
22950.4437
23937.6428
23925.2644
23911.3985
23218.3658
23223.4236
23955.6705
23332.8134
22980.4947
23960.1415
23928.7338
23895.6907
23401.5833
22960.0491
23055.6698
23945.3594
23911.6295
23413.641
22901.3507
22978.2029
23942.783
23897.6533
23353.2442
22564.6524
22690.8513
23905.0584
23919.6775
23880.0367
23930.0545
23896.7768
23937.0832
23904.2657
23333.287
22942.2358
22724.9573
22770.2498
23930.1926
23907.4203
23018.2708
23063.7063
23928.9369
23933.8604
23881.148
23406.2372
22830.9242
23064.6035
23929.136
23400.4791
22919.1881
23955.8187
23922.43
23149.3846
23159.2607
23940.0984
23940.8713
23896.3225
23397.7453
22948.7406
23017.0779
23926.8188
23940.3441
23903.1045
23393.365
23094.3744
23131.2214
22703.5804
22750.858
23911.5025
23935.0113
23903.448
23941.5519
23926.1286
23277.0086
23062.3996
23954.0214
23938.4631
23403.005
23176.5801
23045.1041
23046.3614
23935.0756
23937.3961
23307.3309
23147.0028
23943.0865
23930.7522
23390.7454
23005.0805
23014.2667
23931.6498
23946.6706
23369.2892
23132.0944
23941.966
23933.1012
23388.556
22915.2939
22929.6513
23919.2231
23952.4777
23169.2773
23108.4838
23926.6564
23950.743
23942.2304
23286.5966
23105.5897
23936.1313
23953.6212
23935.2373
23388.0622
22836.8698
22856.2227
23911.1444
23955.6235
23272.46
23090.109
23919.3006
23952.0328
23311.353
23190.0655
23922.7882
23945.6789
23411.6475
23200.7589
23016.4149
23022.5204
23906.1025
23943.0301
23185.5811
23077.6367
23908.6758
23942.6875
23137.968
23086.9653
23916.0471
23939.6543
23928.1788
23941.322
23394.6681
23219.9354
23079.2886
23054.1996
23922.0762
23930.8893
23347.1421
22807.7742
22825.5279
23912.1809
23945.2875
23155.0289
23006.8787
23913.025
23944.1737
23078.1672
23074.2029
23917.8552
23945.0501
23937.1084
23304.8789
23067.3716
23932.0994
23939.1011
23242.5234
23124.8672
23936.2277
23937.6087
23391.257
22951.292
23000.6106
23927.6658
23951.0929
23302.9658
23150.8724
23930.019
23940.9582
23388.0353
22988.7009
23043.6394
23932.5015
23951.9312
23298.3406
23146.7025
23933.6456
23941.2938
23381.6684
22951.9363
23011.1978
23922.3708
23965.1378
23236.9307
23137.2962
23918.3237
23959.4006
23232.3765
23178.2426
23927.6839
23953.058
23259.0097
23170.4019
23934.3831
23952.0311
23375.871
22951.1765
23027.9569
23923.5806
23967.2904
23201.8941
23128.3991
23914.2647
23963.1955
23153.7248
23176.3814
23941.8179
23961.8253
23959.4259
23315.7157
23154.4224
23934.389
23955.3404
23367.4017
23005.7474
23100.6688
23932.4474
23970.911
23341.7834
23291.3806
23931.9848
23956.5634
23376.1887
23303.3463
23205.7934
23217.888
23951.9204
23958.9797
23380.4128
23241.2358
23109.1843
23215.0843
23944.1079
23383.3733
23029.7262
23937.661
23949.0748
23229.2862
23093.056
23939.6712
23943.0937
23315.7443
22767.1815
22951.2162
23915.514
23956.0038
23927.3512
23950.7037
23935.1991
23376.0984
22963.6541
23067.1989
23937.9717
23943.1929
23393.9597
22869.1098
23214.9302
23935.7347
23310.4354
22923.2265
23945.4072
23936.8403
23000.6902
23011.5632
23964.0181
23934.0068
23964.5471
23943.7955
23247.709
23070.4607
23967.7882
23936.9447
23326.906
22847.3947
23058.7177
23939.8119
23948.2466
23937.7891
23264.187
23051.7804
22886.071
22995.5382
23963.6763
23946.2542
23958.9899
23334.555
23091.9382
23977.2221
23933.2501
23267.83
23300.613
23987.4678
23936.6021
23375.327
23297.5763
23168.5384
23204.9297
23980.1206
23942.5036
23381.3041
23054.4987
23159.9152
23966.603
23946.0022
23383.3592
23040.3713
23145.2542
23970.0904
23932.0888
23379.298
22936.0903
23144.8596
23951.3413
23957.974
23919.0573
)
;

boundaryField
{
    closed
    {
        type            calculated;
        value           nonuniform List<scalar> 0();
    }
    open
    {
        type            calculated;
        value           nonuniform List<scalar> 0();
    }
    sides
    {
        type            empty;
    }
    procBoundary3to2
    {
        type            processor;
        value           uniform 23373.3002;
    }
    procBoundary3to4
    {
        type            processor;
        value           uniform 23386.2306;
    }
}


// ************************************************************************* //
