/*--------------------------------*- C++ -*----------------------------------*\
| =========                 |                                                 |
| \\      /  F ield         | OpenFOAM: The Open Source CFD Toolbox           |
|  \\    /   O peration     | Version:  2306                                  |
|   \\  /    A nd           | Website:  www.openfoam.com                      |
|    \\/     M anipulation  |                                                 |
\*---------------------------------------------------------------------------*/
FoamFile
{
    version     2.0;
    format      ascii;
    arch        "LSB;label=32;scalar=64";
    class       volScalarField;
    location    "0.00174";
    object      rho;
}
// * * * * * * * * * * * * * * * * * * * * * * * * * * * * * * * * * * * * * //

dimensions      [1 -3 0 0 0 0 0];

internalField   nonuniform List<scalar> 
531
(
0.952840612
0.951198956
0.903965841
0.902586323
0.938633002
0.95356493
0.951496402
0.903826815
0.902483409
0.939080312
0.955234984
0.952536784
0.903473138
0.902632255
0.939727254
0.957950447
0.954868193
0.904005852
0.901999878
0.941725178
0.947212826
0.904275257
0.902374273
0.941080543
0.944935801
0.903614663
0.903131232
0.939028728
0.954903761
0.950521128
0.904323715
0.902483882
0.922725161
0.94632606
0.955131409
0.951128411
0.959215287
0.956033212
0.902771958
0.902401285
0.902260567
0.902262925
0.902181128
0.901918623
0.93856241
0.959842387
0.956857814
0.901705215
0.901586954
0.94338806
0.97101579
0.957689974
0.90184868
0.9020418
0.901750789
0.943490385
0.951033537
0.901081648
0.901859712
0.944341748
0.944089951
0.900443808
0.901973907
0.938429127
0.946408977
0.944244428
0.949642566
0.946933649
0.953949353
0.943768998
0.90106727
0.900915477
0.901324536
0.900876698
0.938157862
0.941437303
0.900087895
0.90149892
0.938438158
0.953137911
0.949153373
0.900806198
0.90180358
0.938012155
0.956740772
0.951924837
0.900860358
0.901944515
0.937973513
0.963231445
0.951021094
0.90126018
0.9017482
0.901653234
0.93845988
0.945382493
0.900144213
0.901929154
0.93754989
0.948120632
0.953322903
0.9509903
0.900680889
0.901762987
0.946148484
0.945959844
0.900038331
0.902236144
0.937455589
0.954481752
0.949182021
0.900687792
0.902131121
0.93691639
0.956630623
0.951303806
0.900535133
0.901996771
0.938814561
0.965130066
0.957715211
0.90074894
0.90178945
0.901161858
0.902239628
0.936556633
0.958401558
0.952569483
0.90070673
0.901149347
0.944601515
0.946745652
0.899582913
0.901839957
0.937401582
0.956338908
0.951556265
0.900329043
0.901837831
0.936734995
0.956303501
0.951483867
0.900155131
0.901964062
0.937032336
0.958876646
0.953016213
0.900985512
0.901150638
0.90274826
0.937092727
0.956111539
0.951454241
0.900725032
0.901052321
0.942096341
0.945127387
0.899842365
0.901917318
0.936941647
0.953964612
0.949847637
0.900243587
0.902358177
0.93644175
0.95490562
0.950370511
0.900950897
0.901376527
0.939678567
0.94210991
0.900368868
0.901898575
0.936191457
0.943815825
0.95219653
0.950863948
0.900537881
0.902568634
0.937355589
0.965502692
0.959578132
0.90153677
0.902804862
0.902987792
0.946543587
0.945253343
0.900989225
0.943340093
0.96746162
0.900890244
0.902828788
0.90286012
0.902865222
0.949436517
0.948774239
0.901245017
0.944118152
0.960512597
0.900888411
0.903091658
0.903864836
0.936470298
0.962097163
0.956482537
0.901970522
0.903416656
0.936489819
0.967251924
0.960844147
0.902089533
0.903134572
0.90347188
0.94707497
0.9468213
0.901279421
0.941192855
0.959369617
0.901174169
0.903202313
0.904129145
0.936489872
0.960451647
0.955550041
0.902121975
0.903634518
0.936502832
0.963498511
0.959560767
0.902163582
0.904076185
0.940232192
0.980751471
0.974345176
0.903279368
0.903183783
0.904499971
0.902856812
0.904120196
0.90276725
0.903981025
0.941237467
0.961381354
0.97253573
0.970210053
0.902286707
0.903632011
0.957402239
0.955060588
0.902257462
0.902943545
0.904569682
0.933906334
0.966967115
0.954958181
0.902366329
0.937612371
0.962419239
0.901355808
0.903087593
0.95055644
0.950043432
0.90181803
0.902639812
0.904035836
0.934726417
0.960890783
0.957400989
0.902643192
0.90265946
0.904057626
0.936029213
0.953478457
0.951600212
0.97358271
0.971212887
0.902860191
0.902629161
0.903624693
0.902554367
0.903165275
0.944205729
0.955298306
0.901718227
0.902796669
0.937146682
0.949493405
0.95629216
0.95625153
0.90253494
0.902959996
0.942853777
0.951153561
0.902415872
0.903314081
0.937492548
0.958564825
0.958126831
0.903017712
0.902749303
0.939875095
0.952154638
0.902689417
0.903388674
0.938093203
0.963435254
0.962743948
0.90363529
0.90270272
0.950461833
0.953628927
0.903120649
0.903062417
0.903117651
0.944535272
0.953917715
0.902941155
0.903141908
0.903585211
0.939030108
0.967882734
0.966936148
0.904364632
0.902875486
0.945508024
0.954943445
0.904086807
0.903267519
0.9435679
0.949848087
0.904147567
0.903650926
0.937874559
0.949353166
0.958876356
0.958579892
0.904688756
0.903695596
0.950190938
0.955772467
0.90461912
0.90378078
0.952678661
0.955319703
0.904272432
0.903961216
0.90435424
0.903947349
0.936884104
0.948479836
0.955746198
0.957044
0.904223871
0.904165475
0.941904406
0.969737275
0.968847738
0.904717702
0.903557271
0.951845088
0.959492962
0.904497817
0.903709403
0.955806824
0.956009769
0.90419917
0.903816755
0.903801073
0.944068415
0.956346015
0.903846986
0.90394162
0.947282653
0.953363427
0.903748272
0.903932153
0.939411736
0.962301188
0.959763743
0.904163906
0.903376565
0.944127241
0.951990971
0.904056455
0.903801169
0.939146222
0.960341566
0.9575067
0.903952895
0.90332152
0.94432058
0.95216228
0.903879061
0.903726468
0.939656598
0.962183776
0.959130333
0.904308252
0.902686488
0.947443382
0.952584659
0.904351351
0.902966363
0.94763889
0.950430988
0.903946692
0.903228333
0.946211207
0.950791683
0.903732807
0.903145365
0.93985406
0.962052127
0.958087251
0.904083057
0.902388187
0.949069685
0.952861484
0.904294083
0.902590077
0.951540814
0.950362953
0.903145867
0.90280178
0.902580641
0.943114491
0.951474688
0.903610284
0.902895723
0.939941692
0.959159453
0.954266604
0.903758422
0.902253743
0.941809204
0.94443697
0.903858006
0.903114953
0.937842647
0.943863004
0.948912641
0.948284653
0.903181246
0.902986187
0.939014576
0.947113987
0.953944598
0.948477477
0.903200635
0.939356263
0.958063759
0.903689382
0.903279956
0.947745836
0.954789819
0.903599969
0.903430027
0.943262788
0.971557244
0.962090516
0.904351296
0.9029634
0.903918322
0.903331397
0.903650083
0.940060359
0.961350049
0.956003004
0.903671792
0.903263528
0.938456542
0.966146764
0.948299088
0.903309246
0.943331734
0.963303321
0.903149074
0.903421496
0.959278717
0.958696358
0.902116627
0.903540219
0.902256702
0.90310037
0.946437378
0.955583486
0.902323734
0.903273409
0.942292463
0.967029513
0.956139795
0.903109414
0.90303346
0.903200982
0.945498428
0.956457946
0.965001581
0.959351535
0.901916723
0.903078667
0.902122559
0.941831858
0.954372179
0.901859333
0.903483703
0.945284901
0.943613172
0.901459708
0.903608973
0.937071668
0.943808872
0.95048494
0.948625243
0.901800432
0.903186994
0.938943524
0.956473705
0.95105382
0.902463375
0.903120942
0.938549579
0.957333879
0.95194724
0.902431553
0.903785144
0.939098882
0.962845092
0.952101302
0.903164283
0.903191916
0.904437129
)
;

boundaryField
{
    closed
    {
        type            calculated;
        value           nonuniform List<scalar> 0();
    }
    open
    {
        type            calculated;
        value           nonuniform List<scalar> 0();
    }
    sides
    {
        type            empty;
    }
    procBoundary3to2
    {
        type            processor;
        value           uniform 0.938347318;
    }
    procBoundary3to4
    {
        type            processor;
        value           uniform 0.938261158;
    }
}


// ************************************************************************* //
