/*--------------------------------*- C++ -*----------------------------------*\
| =========                 |                                                 |
| \\      /  F ield         | OpenFOAM: The Open Source CFD Toolbox           |
|  \\    /   O peration     | Version:  2306                                  |
|   \\  /    A nd           | Website:  www.openfoam.com                      |
|    \\/     M anipulation  |                                                 |
\*---------------------------------------------------------------------------*/
FoamFile
{
    version     2.0;
    format      ascii;
    arch        "LSB;label=32;scalar=64";
    class       volScalarField;
    location    "0.00174";
    object      sourcePV;
}
// * * * * * * * * * * * * * * * * * * * * * * * * * * * * * * * * * * * * * //

dimensions      [1 -3 -1 0 0 0 0];

internalField   nonuniform List<scalar> 
531
(
0.154094312
0.151045765
0.00500540777
0.00604333156
0.108761646
0.155398031
0.151477798
0.00510840028
0.00601548216
0.114530135
0.158415113
0.153446667
0.00521011332
0.0058980959
0.120917659
0.163584397
0.157496323
0.00508109944
0.00614346743
0.133055474
0.143344339
0.00472166231
0.00621236508
0.131706734
0.139673618
0.00512264971
0.00596721484
0.116151797
0.158672227
0.149903217
0.00490927046
0.00627810356
0.0393182737
0.141883628
0.159428571
0.151298345
0.166665507
0.160608852
0.00516091646
0.00588714541
0.00575977951
0.00586824114
0.00624328855
0.00593789375
0.11947558
0.168000303
0.162484998
0.00573670562
0.00563348449
0.137345086
0.188180378
0.164246673
0.00501644267
0.00609504886
0.00548098533
0.137965997
0.152524878
0.00597109114
0.00609487746
0.139350771
0.139742732
0.00632388723
0.00621503606
0.114703398
0.144355403
0.1392924
0.150369911
0.144412366
0.158236561
0.13836871
0.00600973933
0.00650379867
0.00628750467
0.00643420706
0.120096813
0.134472385
0.00654086231
0.00613092528
0.120151481
0.156889019
0.149267909
0.00615360177
0.00576316676
0.123761982
0.16373736
0.154715616
0.00604025519
0.0055103517
0.125159049
0.175598632
0.153033338
0.00536701776
0.00626276249
0.00554713608
0.129743704
0.143275189
0.00635780414
0.00593302784
0.125237055
0.148583062
0.158000803
0.153635791
0.00580736039
0.00577826877
0.1447965
0.144746144
0.00620041869
0.0056628747
0.124913579
0.16069078
0.150574498
0.00601382991
0.00556665174
0.11994189
0.164630165
0.154612664
0.0059108893
0.00533987299
0.131353011
0.17980687
0.166324579
0.00528389501
0.00555508109
0.00580239281
0.00539292398
0.112330032
0.167991359
0.156735582
0.00573713805
0.00580717633
0.142472805
0.146373719
0.00615255664
0.00566017356
0.125889959
0.164253555
0.155143352
0.00593919087
0.00559239033
0.117686901
0.164119493
0.15507663
0.00596017939
0.00555232932
0.117367415
0.168757844
0.157535991
0.00553753548
0.00632436993
0.00537317524
0.114357264
0.163839561
0.154310248
0.00578239258
0.00599139302
0.137634029
0.142947011
0.00615272881
0.00586866002
0.115166787
0.159482732
0.151724546
0.00595792957
0.00570174571
0.105633379
0.161293916
0.152195814
0.00577544641
0.00604620813
0.133009227
0.136937805
0.00607952758
0.00618819714
0.109636727
0.140511136
0.156075778
0.153450589
0.00573294668
0.00539319279
0.12817172
0.17985825
0.169167129
0.0050292552
0.00576152469
0.00523107593
0.145845794
0.143323537
0.00482408078
0.139884752
0.183046251
0.00475307451
0.00523706682
0.00485141354
0.00521276593
0.151326449
0.149413799
0.00473460493
0.14101205
0.170780582
0.00491317597
0.00595981041
0.00471039295
0.118542277
0.173761369
0.163391773
0.00538124317
0.00513617924
0.122339417
0.182500857
0.171100584
0.00480565987
0.00570611937
0.00510011521
0.146501915
0.145728047
0.00476805152
0.135377199
0.168444756
0.00491764756
0.00600820424
0.00482937879
0.113537164
0.170590594
0.161392972
0.00534312541
0.00523683834
0.120139812
0.175781017
0.168683
0.00515288837
0.00480681886
0.13381091
0.204577509
0.194388878
0.00390088251
0.00504827765
0.00404012118
0.00535381493
0.00482360051
0.00582301093
0.00524298147
0.135485455
0.172059344
0.19131303
0.187370466
0.00435795156
0.00495927779
0.165432733
0.16072026
0.00428256229
0.00608062579
0.00452843017
0.0871618702
0.182007555
0.160517614
0.00461527841
0.128748473
0.174085746
0.00509018698
0.00545733757
0.153149056
0.15175058
0.00458986918
0.0062523261
0.00496473279
0.0925133044
0.171576803
0.16488981
0.00492557283
0.00614489709
0.00549471585
0.104363577
0.158449925
0.154317503
0.193052316
0.189111095
0.00373275594
0.00539476927
0.00445441288
0.00577399062
0.00554152728
0.140424568
0.160854315
0.00513406697
0.00579045571
0.120257423
0.15030716
0.162562905
0.162327902
0.0047754219
0.00577242005
0.137854323
0.15303238
0.00509616512
0.0056865136
0.114802844
0.166351364
0.165073246
0.00500131698
0.0057865709
0.131744057
0.154314777
0.00509037822
0.00560017137
0.117910726
0.174469444
0.172830053
0.00461366735
0.00575262032
0.151015817
0.156181874
0.00406165983
0.00608119039
0.0053760398
0.139238859
0.156567207
0.00431892386
0.00624388297
0.00540977427
0.124073155
0.181458331
0.1795408
0.00458220437
0.00566640929
0.141408519
0.157896031
0.00463578143
0.00596531568
0.137672295
0.148608281
0.00495005626
0.00602015487
0.12059812
0.147842324
0.165345858
0.164404394
0.00435808192
0.00574310233
0.149836921
0.159258835
0.00438984411
0.00581627253
0.154070618
0.158414325
0.00432812739
0.00584630045
0.00556787854
0.00595053446
0.0979837485
0.146064365
0.159333745
0.161568422
0.00472778679
0.00540877192
0.133400614
0.184040316
0.182398161
0.00478881022
0.00551982647
0.15234447
0.165807344
0.00443880845
0.00572207894
0.159369804
0.159584961
0.00430716867
0.00602336796
0.00528508118
0.137340809
0.160363659
0.00494332782
0.0057648037
0.143326276
0.155033194
0.00515215773
0.00563965878
0.126598323
0.171145264
0.166262035
0.00521737685
0.00580483053
0.13759633
0.152469249
0.00524594425
0.00574228953
0.12191184
0.167676801
0.162251498
0.00531207792
0.00584618578
0.137724746
0.152859373
0.00531324416
0.00571634503
0.125089101
0.171058183
0.165084817
0.00519127413
0.00591081653
0.143957856
0.153323677
0.00497023779
0.00599784684
0.144049235
0.149574946
0.00510130346
0.00601065056
0.141034354
0.150513513
0.00537736404
0.00584956383
0.126178012
0.171066958
0.163450767
0.00519595434
0.00586393731
0.147079122
0.154131961
0.00482285851
0.00592820816
0.151429381
0.149729059
0.00512101023
0.00627295343
0.00564281624
0.135193933
0.151988827
0.0053752959
0.00587131325
0.123606367
0.166000531
0.156432632
0.00545034109
0.00598596128
0.133076851
0.138627177
0.00554285795
0.00629020313
0.10280928
0.137615621
0.14654629
0.145847301
0.00590175517
0.00616863723
0.118426314
0.143682511
0.15607463
0.145965447
0.00519356564
0.123867494
0.163727432
0.00554648253
0.00578080384
0.143955887
0.158103682
0.00557332161
0.00555750614
0.135700677
0.187627188
0.17072481
0.00491502093
0.00588634736
0.00518060692
0.00615952095
0.00540991638
0.130424678
0.170069477
0.160157098
0.00580002411
0.00550683542
0.120946402
0.178565565
0.146070917
0.00503069857
0.136830198
0.173676067
0.00567155266
0.00545529337
0.166130488
0.165574385
0.00545069715
0.00553178756
0.00581672767
0.00560576646
0.14259999
0.160143698
0.00632116862
0.00541025726
0.134715896
0.180494769
0.160636352
0.0054214468
0.00604336478
0.00544418704
0.141550662
0.161912008
0.17685472
0.166865508
0.00533045127
0.00601464779
0.00531330194
0.134395016
0.157953826
0.00643768874
0.00562633975
0.140214057
0.13831115
0.00654815145
0.00611459752
0.0976405397
0.138530628
0.150057025
0.14706398
0.00639669891
0.00566429023
0.12165619
0.161364118
0.150969864
0.00625670521
0.00563327639
0.116583331
0.162613289
0.152552933
0.00625754207
0.00541319707
0.11925603
0.172481984
0.152259664
0.00574766954
0.0063496909
0.00523266701
)
;

boundaryField
{
    closed
    {
        type            calculated;
        value           nonuniform List<scalar> 0();
    }
    open
    {
        type            calculated;
        value           nonuniform List<scalar> 0();
    }
    sides
    {
        type            empty;
    }
    procBoundary3to2
    {
        type            processor;
        value           uniform 0;
    }
    procBoundary3to4
    {
        type            processor;
        value           uniform 0;
    }
}


// ************************************************************************* //
