/*--------------------------------*- C++ -*----------------------------------*\
| =========                 |                                                 |
| \\      /  F ield         | OpenFOAM: The Open Source CFD Toolbox           |
|  \\    /   O peration     | Version:  2306                                  |
|   \\  /    A nd           | Website:  www.openfoam.com                      |
|    \\/     M anipulation  |                                                 |
\*---------------------------------------------------------------------------*/
FoamFile
{
    version     2.0;
    format      ascii;
    arch        "LSB;label=32;scalar=64";
    class       volVectorField;
    location    "0.00174";
    object      U;
}
// * * * * * * * * * * * * * * * * * * * * * * * * * * * * * * * * * * * * * //

dimensions      [0 1 -1 0 0 0 0];

internalField   nonuniform List<vector> 
531
(
(0.90061998 0 0)
(0.895018041 0 0)
(0.900424588 0 0)
(0.886803785 0 0)
(0.859641624 0 0)
(0.857382903 0 0)
(0.848826944 0 0)
(0.850371355 0 0)
(0.831994866 0 0)
(0.799992928 0 0)
(0.792076613 0 0)
(0.780232217 0 0)
(0.777704596 0 0)
(0.754782426 0 0)
(0.718745699 0 0)
(0.704978913 0 0)
(0.691275351 0 0)
(0.686208931 0 0)
(0.663028692 0 0)
(0.644186742 0 0)
(0.649597561 0 0)
(0.646962145 0 0)
(0.617407767 0 0)
(0.595576766 0 0)
(0.596535384 0 0)
(0.588519644 0 0)
(0.55438396 0 0)
(0.517861656 0 0)
(0.498108362 0 0)
(0.479028916 0 0)
(0.462506932 0 0)
(0.435308087 0 0)
(0.417099711 0 0)
(0.405641442 0 0)
(0.385898796 0 0)
(0.362982179 0 0)
(0.340464441 0 0)
(0.319761819 0 0)
(0.304226044 0 0)
(0.284235506 0 0)
(0.265691396 0 0)
(0.248587587 0 0)
(0.23293396 0 0)
(0.213487794 0 0)
(0.191089117 0 0)
(0.177502245 0 0)
(0.169201784 0 0)
(0.160149713 0 0)
(0.14401187 0 0)
(0.128211479 0 0)
(0.120151976 0 0)
(0.118251562 0 0)
(0.115520986 0 0)
(0.109703987 0 0)
(0.102942755 0 0)
(0.0968699326 0 0)
(0.0948907262 0 0)
(0.0938220625 0 0)
(0.0904622236 0 0)
(0.0884744189 0 0)
(0.0902200203 0 0)
(0.0922585519 0 0)
(0.0915816202 0 0)
(0.0905841426 0 0)
(0.0926648825 0 0)
(0.0970357151 0 0)
(0.100840393 0 0)
(0.10581116 0 0)
(0.111791817 0 0)
(0.114573795 0 0)
(0.118171893 0 0)
(0.120541538 0 0)
(0.125652834 0 0)
(0.131264035 0 0)
(0.129248163 0 0)
(0.130316635 0 0)
(0.133578778 0 0)
(0.135878873 0 0)
(0.135640116 0 0)
(0.135859421 0 0)
(0.138204056 0 0)
(0.141045538 0 0)
(0.142904448 0 0)
(0.14087101 0 0)
(0.137410333 0 0)
(0.137691221 0 0)
(0.138221004 0 0)
(0.136923982 0 0)
(0.132898805 0 0)
(0.12367284 0 0)
(0.124123566 0 0)
(0.12589748 0 0)
(0.117030925 0 0)
(0.118730923 0 0)
(0.110713049 0 0)
(0.0986163396 0 0)
(0.091334087 0 0)
(0.0834348628 0 0)
(0.0735459391 0 0)
(0.061983134 0 0)
(0.0560919578 0 0)
(0.0484785057 0 0)
(0.0390269773 0 0)
(0.0334739132 0 0)
(0.0222940247 0 0)
(0.00584840957 0 0)
(-0.00396854036 0 0)
(-0.0129396334 0 0)
(-0.0230953639 0 0)
(-0.0339934598 0 0)
(-0.0398865257 0 0)
(-0.0465147649 0 0)
(-0.0563047312 0 0)
(-0.0650973238 0 0)
(-0.075081081 0 0)
(-0.0791285765 0 0)
(-0.0855829839 0 0)
(-0.095268165 0 0)
(-0.112942431 0 0)
(-0.131294093 0 0)
(-0.128750923 0 0)
(-0.130847878 0 0)
(-0.141832327 0 0)
(-0.148995202 0 0)
(-0.154424009 0 0)
(-0.160068006 0 0)
(-0.167561562 0 0)
(-0.163644971 0 0)
(-0.165224569 0 0)
(-0.173806201 0 0)
(-0.184399174 0 0)
(-0.191977801 0 0)
(-0.195976192 0 0)
(-0.202307169 0 0)
(-0.203786756 0 0)
(-0.206138533 0 0)
(-0.199163678 0 0)
(-0.199337008 0 0)
(-0.204554425 0 0)
(-0.204472815 0 0)
(-0.206384483 0 0)
(-0.197977566 0 0)
(-0.196409294 0 0)
(-0.200078263 0 0)
(-0.19811848 0 0)
(-0.200347428 0 0)
(-0.192438005 0 0)
(-0.190346547 0 0)
(-0.192330975 0 0)
(-0.190202612 0 0)
(-0.185288632 0 0)
(-0.186482701 0 0)
(-0.17645059 0 0)
(-0.173437456 0 0)
(-0.17530391 0 0)
(-0.181333582 0 0)
(-0.186215556 0 0)
(-0.182967019 0 0)
(-0.183854036 0 0)
(-0.181524624 0 0)
(-0.180481963 0 0)
(-0.171218265 0 0)
(-0.166523718 0 0)
(-0.167225769 0 0)
(-0.166307141 0 0)
(-0.167113451 0 0)
(-0.158039828 0 0)
(-0.154009794 0 0)
(-0.154781286 0 0)
(-0.162850793 0 0)
(-0.168749809 0 0)
(-0.165571218 0 0)
(-0.166689438 0 0)
(-0.166509962 0 0)
(-0.169687936 0 0)
(-0.168387257 0 0)
(-0.159307041 0 0)
(-0.155374077 0 0)
(-0.153820275 0 0)
(-0.164075658 0 0)
(-0.175630979 0 0)
(-0.161287413 0 0)
(-0.15220592 0 0)
(-0.154130501 0 0)
(-0.154421524 0 0)
(-0.158084053 0 0)
(-0.164799929 0 0)
(-0.160286767 0 0)
(-0.172091601 0 0)
(-0.180023861 0 0)
(-0.17163686 0 0)
(-0.173925882 0 0)
(-0.173933806 0 0)
(-0.172867054 0 0)
(-0.183076008 0 0)
(-0.189999138 0 0)
(-0.184649597 0 0)
(-0.197091038 0 0)
(-0.203690981 0 0)
(-0.198941172 0 0)
(-0.204474024 0 0)
(-0.205396797 0 0)
(-0.20143789 0 0)
(-0.206115601 0 0)
(-0.201360606 0 0)
(-0.198714853 0 0)
(-0.203776703 0 0)
(-0.205316655 0 0)
(-0.209543145 0 0)
(-0.199272798 0 0)
(-0.194339844 0 0)
(-0.201413843 0 0)
(-0.207529159 0 0)
(-0.215414601 0 0)
(-0.222211907 0 0)
(-0.219027178 0 0)
(-0.23314017 0 0)
(-0.24076339 0 0)
(-0.235993771 0 0)
(-0.240082619 0 0)
(-0.242254811 0 0)
(-0.237507255 0 0)
(-0.240900332 0 0)
(-0.23351757 0 0)
(-0.22831822 0 0)
(-0.230581448 0 0)
(-0.228946312 0 0)
(-0.227452473 0 0)
(-0.218052085 0 0)
(-0.211216124 0 0)
(-0.209695668 0 0)
(-0.228071715 0 0)
(-0.242510228 0 0)
(-0.23001906 0 0)
(-0.221537086 0 0)
(-0.214778164 0 0)
(-0.209718815 0 0)
(-0.203621418 0 0)
(-0.200838164 0 0)
(-0.198347767 0 0)
(-0.196795692 0 0)
(-0.20250541 0 0)
(-0.208247574 0 0)
(-0.199879897 0 0)
(-0.184781773 0 0)
(-0.172541523 0 0)
(-0.162437297 0 0)
(-0.165729104 0 0)
(-0.166265002 0 0)
(-0.154565499 0 0)
(-0.144776753 0 0)
(-0.137662321 0 0)
(-0.128725912 0 0)
(-0.132617104 0 0)
(-0.120498834 0 0)
(-0.100312138 0 0)
(-0.104369757 0 0)
(-0.112247714 0 0)
(-0.101514978 0 0)
(-0.0875872098 0 0)
(-0.0940279939 0 0)
(-0.0978984041 0 0)
(-0.0855782386 0 0)
(-0.0744736555 0 0)
(-0.0677174077 0 0)
(-0.0566693882 0 0)
(-0.0594670314 0 0)
(-0.0474171535 0 0)
(-0.0304803844 0 0)
(-0.0221842065 0 0)
(-0.015002053 0 0)
(-0.00725278248 0 0)
(-0.00635449824 0 0)
(-0.00360672712 0 0)
(0.00191223686 0 0)
(0.00461006419 0 0)
(0.0169739867 0 0)
(0.029604711 0 0)
(0.0336333002 0 0)
(0.0401240326 0 0)
(0.041013975 0 0)
(0.036954061 0 0)
(0.0305100873 0 0)
(0.0393539123 0 0)
(0.0517805234 0 0)
(0.0509650508 0 0)
(0.0499669836 0 0)
(0.0504341628 0 0)
(0.0494532609 0 0)
(0.0568729148 0 0)
(0.0672008366 0 0)
(0.0580857488 0 0)
(0.0483114847 0 0)
(0.0547689789 0 0)
(0.0646580964 0 0)
(0.0615563386 0 0)
(0.0591349901 0 0)
(0.0582403911 0 0)
(0.0657165152 0 0)
(0.0733046394 0 0)
(0.0627224933 0 0)
(0.0524419482 0 0)
(0.057240778 0 0)
(0.0653168307 0 0)
(0.0602464712 0 0)
(0.0566575825 0 0)
(0.0549089582 0 0)
(0.0624593608 0 0)
(0.0680797463 0 0)
(0.0552793779 0 0)
(0.0437529464 0 0)
(0.0477557176 0 0)
(0.0593457612 0 0)
(0.0515020201 0 0)
(0.0420703055 0 0)
(0.0320485267 0 0)
(0.0350267688 0 0)
(0.046902645 0 0)
(0.0370754248 0 0)
(0.0323326633 0 0)
(0.0305369261 0 0)
(0.0302411628 0 0)
(0.0387094487 0 0)
(0.0467288141 0 0)
(0.0335374165 0 0)
(0.0223134003 0 0)
(0.0284594259 0 0)
(0.0377588912 0 0)
(0.0256054332 0 0)
(0.0146273112 0 0)
(0.0220842511 0 0)
(0.0307572752 0 0)
(0.0291119349 0 0)
(0.028118262 0 0)
(0.0270230565 0 0)
(0.026858192 0 0)
(0.0356915112 0 0)
(0.046256983 0 0)
(0.0345410185 0 0)
(0.0248000172 0 0)
(0.034957074 0 0)
(0.0460129835 0 0)
(0.0357337852 0 0)
(0.0276675324 0 0)
(0.0368413589 0 0)
(0.0512220223 0 0)
(0.0522845643 0 0)
(0.0525187861 0 0)
(0.0555099434 0 0)
(0.0559378879 0 0)
(0.0580456985 0 0)
(0.0616909071 0 0)
(0.0727734978 0 0)
(0.0853220631 0 0)
(0.0789740353 0 0)
(0.0767849401 0 0)
(0.0838565529 0 0)
(0.096325305 0 0)
(0.10645112 0 0)
(0.103949779 0 0)
(0.10430806 0 0)
(0.11749312 0 0)
(0.128892597 0 0)
(0.126779507 0 0)
(0.129957656 0 0)
(0.14229076 0 0)
(0.1567725 0 0)
(0.160211156 0 0)
(0.162625598 0 0)
(0.166656737 0 0)
(0.179631671 0 0)
(0.190271414 0 0)
(0.192019329 0 0)
(0.19799886 0 0)
(0.210789487 0 0)
(0.220003374 0 0)
(0.220028083 0 0)
(0.224387216 0 0)
(0.230106712 0 0)
(0.242811278 0 0)
(0.252043317 0 0)
(0.255024152 0 0)
(0.263004374 0 0)
(0.275910077 0 0)
(0.282575834 0 0)
(0.281079048 0 0)
(0.285116321 0 0)
(0.289896173 0 0)
(0.302389881 0 0)
(0.310468994 0 0)
(0.314237094 0 0)
(0.324812138 0 0)
(0.33850934 0 0)
(0.342323566 0 0)
(0.338033829 0 0)
(0.341028769 0 0)
(0.344932899 0 0)
(0.357826081 0 0)
(0.364530588 0 0)
(0.367694042 0 0)
(0.381335349 0 0)
(0.39639337 0 0)
(0.399580618 0 0)
(0.402479004 0 0)
(0.417565375 0 0)
(0.432549751 0 0)
(0.434280397 0 0)
(0.437972312 0 0)
(0.454189704 0 0)
(0.469044881 0 0)
(0.467328316 0 0)
(0.457189631 0 0)
(0.45760691 0 0)
(0.458581202 0 0)
(0.468830542 0 0)
(0.471167253 0 0)
(0.471485046 0 0)
(0.484997374 0 0)
(0.495708468 0 0)
(0.489879053 0 0)
(0.488745895 0 0)
(0.506304056 0 0)
(0.510688952 0 0)
(0.499450054 0 0)
(0.492888095 0 0)
(0.491434014 0 0)
(0.502602817 0 0)
(0.508468722 0 0)
(0.49622924 0 0)
(0.477453716 0 0)
(0.470443873 0 0)
(0.463366954 0 0)
(0.461969119 0 0)
(0.454492221 0 0)
(0.448272746 0 0)
(0.452240659 0 0)
(0.450700997 0 0)
(0.434153236 0 0)
(0.414972141 0 0)
(0.40730296 0 0)
(0.401843188 0 0)
(0.396940175 0 0)
(0.391357946 0 0)
(0.371521546 0 0)
(0.351266277 0 0)
(0.342699979 0 0)
(0.336269477 0 0)
(0.328440777 0 0)
(0.318322307 0 0)
(0.300326307 0 0)
(0.293919681 0 0)
(0.294571299 0 0)
(0.280956537 0 0)
(0.272736746 0 0)
(0.275624869 0 0)
(0.274035742 0 0)
(0.258992022 0 0)
(0.247158815 0 0)
(0.245076834 0 0)
(0.245119449 0 0)
(0.243496634 0 0)
(0.235301213 0 0)
(0.230144732 0 0)
(0.225237827 0 0)
(0.221147748 0 0)
(0.212512834 0 0)
(0.208060882 0 0)
(0.206759551 0 0)
(0.204279546 0 0)
(0.194955914 0 0)
(0.183061635 0 0)
(0.176728792 0 0)
(0.176574626 0 0)
(0.172202302 0 0)
(0.163125975 0 0)
(0.16296557 0 0)
(0.162446696 0 0)
(0.153574731 0 0)
(0.146668999 0 0)
(0.14385281 0 0)
(0.140821833 0 0)
(0.131644878 0 0)
(0.126338881 0 0)
(0.121818923 0 0)
(0.112087413 0 0)
(0.105227998 0 0)
(0.0988836047 0 0)
(0.0908341779 0 0)
(0.0808791195 0 0)
(0.0700060341 0 0)
(0.0707940422 0 0)
(0.0668991299 0 0)
(0.0554599041 0 0)
(0.0522397433 0 0)
(0.0401158907 0 0)
(0.0260734057 0 0)
(0.0200128613 0 0)
(0.0164648459 0 0)
(0.0105659618 0 0)
(-0.000753672014 0 0)
(-0.00624972438 0 0)
(-0.0185681601 0 0)
(-0.031679867 0 0)
(-0.042349392 0 0)
(-0.0551899046 0 0)
(-0.0636440687 0 0)
(-0.0720718405 0 0)
(-0.0847873307 0 0)
(-0.0996310621 0 0)
(-0.11173635 0 0)
(-0.12796418 0 0)
(-0.140300445 0 0)
(-0.143616752 0 0)
(-0.157838696 0 0)
(-0.176898749 0 0)
(-0.189421383 0 0)
(-0.201310759 0 0)
(-0.203702929 0 0)
(-0.21790749 0 0)
(-0.240172649 0 0)
(-0.252864361 0 0)
(-0.265108339 0 0)
(-0.265408351 0 0)
(-0.279913931 0 0)
(-0.303616209 0 0)
(-0.314702925 0 0)
(-0.3231796 0 0)
(-0.325484014 0 0)
(-0.340234389 0 0)
(-0.357240598 0 0)
(-0.371802424 0 0)
)
;

boundaryField
{
    closed
    {
        type            noSlip;
    }
    open
    {
        type            inletOutlet;
        inletValue      nonuniform List<vector> 0();
        value           nonuniform List<vector> 0();
    }
    sides
    {
        type            empty;
    }
    procBoundary3to2
    {
        type            processor;
        value           uniform (0.899151292 0 0);
    }
    procBoundary3to4
    {
        type            processor;
        value           uniform (-0.377168401 0 0);
    }
}


// ************************************************************************* //
