/*--------------------------------*- C++ -*----------------------------------*\
| =========                 |                                                 |
| \\      /  F ield         | OpenFOAM: The Open Source CFD Toolbox           |
|  \\    /   O peration     | Version:  2306                                  |
|   \\  /    A nd           | Website:  www.openfoam.com                      |
|    \\/     M anipulation  |                                                 |
\*---------------------------------------------------------------------------*/
FoamFile
{
    version     2.0;
    format      ascii;
    arch        "LSB;label=32;scalar=64";
    class       volScalarField;
    location    "6e-05";
    object      H;
}
// * * * * * * * * * * * * * * * * * * * * * * * * * * * * * * * * * * * * * //

dimensions      [0 0 0 0 0 0 0];

internalField   nonuniform List<scalar> 
3801
(
4.13171137e-08
1.19746657e-09
1.23738163e-09
2.92172854e-08
4.22142426e-08
4.10501598e-08
5.00276019e-08
4.95801774e-08
9.53950261e-10
1.20231782e-09
3.93545463e-08
4.43143825e-08
7.97921013e-10
1.24389115e-09
3.88888682e-08
4.3856001e-08
6.32296521e-10
1.23829527e-09
3.72855273e-08
4.35586876e-08
6.71837269e-10
1.2284557e-09
3.512481e-08
4.34475604e-08
3.5757253e-09
1.21633624e-09
3.35974728e-08
4.34597729e-08
5.69678458e-09
1.20624054e-09
3.26611938e-08
4.33629575e-08
6.79609577e-09
1.20208771e-09
3.20712824e-08
4.30341332e-08
7.09714697e-09
1.2047846e-09
3.16876805e-08
4.23962652e-08
6.76749088e-09
1.21370074e-09
3.139745e-08
4.14784588e-08
6.02137963e-09
1.22411366e-09
3.17920673e-08
4.0728649e-08
2.40901667e-09
1.24302021e-09
2.77391935e-08
3.9806559e-08
4.65054604e-08
4.61665003e-08
8.8614142e-09
1.152911e-09
3.19472859e-08
4.26457546e-08
5.94121428e-09
1.19399642e-09
3.28373853e-08
4.20215718e-08
4.57451366e-09
1.21777357e-09
3.38194196e-08
3.94295342e-08
3.53007037e-09
2.902868e-08
4.85385728e-08
4.85163916e-09
1.12482968e-09
3.4158926e-08
4.45782707e-08
3.92004367e-09
1.18483608e-09
3.55937087e-08
4.46806552e-08
2.89598346e-09
1.19476544e-09
3.684825e-08
4.48319939e-08
1.78986158e-09
1.20366853e-09
3.78469589e-08
4.48893132e-08
8.27507584e-10
1.21377168e-09
3.85772322e-08
4.48683126e-08
4.71187033e-10
1.22440768e-09
3.9150329e-08
4.47446574e-08
5.69724076e-10
1.23604097e-09
3.97334148e-08
4.44624902e-08
6.88346222e-10
1.24783882e-09
4.03223583e-08
4.39403466e-08
8.18897398e-10
1.25879437e-09
4.09432775e-08
4.31304003e-08
9.47102046e-10
1.26968129e-09
4.21707764e-08
4.17052031e-08
1.07193135e-09
3.77397552e-08
4.67384113e-08
1.12497013e-09
1.22485075e-09
4.20627916e-08
4.45683873e-08
1.16631459e-09
1.22139462e-09
4.33335421e-08
4.36216518e-08
1.21943069e-09
1.22696794e-09
4.33013969e-08
4.29295039e-08
1.26929308e-09
1.21886212e-09
4.28300099e-08
4.32299139e-08
1.30966033e-09
1.19285392e-09
4.21029011e-08
4.68399171e-08
4.26659364e-08
1.24362253e-09
1.24913921e-09
4.18501885e-08
4.17383345e-08
1.32340989e-09
1.25202573e-09
4.02141457e-08
3.9486222e-08
1.34965639e-09
1.26604226e-09
3.9996678e-08
4.00924417e-08
4.26498059e-08
3.77933588e-08
1.28704679e-09
3.9445563e-08
4.33289224e-08
1.30708619e-09
1.26677034e-09
4.26762665e-08
4.3084734e-08
1.28734204e-09
1.25314949e-09
4.37383391e-08
4.38100977e-08
1.27624338e-09
1.25494924e-09
4.439212e-08
4.43444098e-08
1.26173744e-09
1.25652754e-09
4.45755163e-08
4.4591926e-08
1.24729531e-09
1.25789725e-09
4.44601394e-08
4.46015492e-08
1.23347195e-09
1.26102148e-09
4.41778629e-08
4.4444798e-08
1.22103542e-09
1.26672701e-09
4.37505675e-08
4.41145961e-08
1.21143593e-09
1.27685149e-09
4.30917806e-08
4.34894006e-08
1.20797592e-09
1.29195828e-09
4.20946551e-08
4.24344157e-08
1.21478075e-09
1.30944765e-09
4.06087228e-08
4.08803296e-08
1.23325574e-09
1.32120035e-09
3.83519106e-08
3.95274356e-08
1.266147e-09
1.29706882e-09
3.52443984e-08
4.29250482e-08
4.01213375e-08
4.53453679e-08
4.44927944e-08
1.16155334e-09
1.30780192e-09
4.10233386e-08
4.3098063e-08
1.09030764e-09
1.31199102e-09
4.01095779e-08
4.18911638e-08
1.09270884e-09
1.32211718e-09
3.89962664e-08
4.08186606e-08
1.09813029e-09
1.32583488e-09
3.74175159e-08
4.03145482e-08
1.11144075e-09
1.31106104e-09
3.55293621e-08
4.1226105e-08
4.35884755e-08
4.35331134e-08
1.01154208e-09
1.26361223e-09
4.00492046e-08
4.3873635e-08
1.0123447e-09
1.2399803e-09
3.86789271e-08
4.48736109e-08
1.05404594e-09
1.17945843e-09
3.59821557e-08
4.87742159e-08
4.81723844e-08
9.77563405e-10
1.2450239e-09
4.04014286e-08
4.51441299e-08
9.39589126e-10
1.26650248e-09
4.15146406e-08
4.47031298e-08
9.45547083e-10
1.26898958e-09
4.17262764e-08
4.45838782e-08
9.6576611e-10
1.27021709e-09
4.1848991e-08
4.44827762e-08
9.95555025e-10
1.27325396e-09
4.19189344e-08
4.42895158e-08
1.035689e-09
1.27860651e-09
4.1912808e-08
4.39200946e-08
1.08762628e-09
1.28411821e-09
4.17715303e-08
4.32542934e-08
1.14302354e-09
1.27093835e-09
4.13035176e-08
4.20650493e-08
1.17862779e-09
1.24154166e-09
4.03550823e-08
4.03410693e-08
1.21857055e-09
1.21780572e-09
3.8806924e-08
3.79966881e-08
1.28954149e-09
1.24929408e-09
3.45300183e-08
3.969698e-08
4.58033536e-08
4.15883761e-08
1.07491747e-09
3.55552995e-08
4.64282838e-08
1.25710824e-09
1.06753054e-09
4.20790852e-08
4.18439501e-08
1.2155961e-09
1.11170957e-09
4.13608202e-08
3.97287999e-08
1.2344688e-09
1.18385658e-09
4.1346469e-08
3.58813072e-08
1.16488787e-09
3.18127042e-08
4.58595184e-08
1.36093495e-09
1.23269651e-09
4.01960408e-08
4.08486885e-08
1.32935865e-09
1.33475567e-09
3.87784698e-08
3.86949205e-08
1.36871466e-09
1.35564205e-09
3.41796445e-08
3.8577931e-08
4.23409497e-08
4.08015553e-08
1.21000076e-09
3.06160431e-08
4.57128122e-08
1.28587313e-09
1.28024007e-09
3.31957139e-08
4.53832339e-08
4.38877681e-08
1.17899104e-09
1.33118363e-09
3.71299278e-08
3.98235146e-08
1.10948465e-09
1.34757224e-09
3.59994898e-08
3.79277297e-08
1.12498954e-09
1.32149263e-09
2.52889343e-08
4.14933482e-08
4.03164334e-08
4.64670828e-08
4.46559218e-08
1.04323817e-09
1.35462142e-09
1.28093474e-09
3.47486744e-08
4.81095043e-08
4.34115114e-08
1.06383871e-09
1.34233803e-09
4.01881854e-08
3.94799999e-08
1.12693857e-09
3.38259995e-08
4.57369892e-08
1.05799953e-09
1.25969937e-09
3.94742218e-08
4.32764294e-08
1.03784404e-09
1.29713495e-09
4.01481983e-08
4.11832191e-08
1.05585379e-09
1.36609664e-09
4.15384863e-08
3.65638013e-08
1.18168644e-09
3.4484252e-08
4.54423356e-08
1.16617967e-09
1.27212082e-09
4.03262607e-08
4.32189075e-08
1.16412908e-09
1.30120019e-09
4.11501106e-08
4.18284328e-08
1.21189881e-09
1.32050202e-09
4.01894126e-08
4.03329166e-08
1.29242151e-09
1.26846585e-09
3.7225732e-08
4.78594015e-08
4.14204902e-08
3.11596422e-09
1.34563298e-09
4.26086936e-08
4.17379483e-08
1.26605917e-09
1.31110708e-09
4.06759102e-08
4.06300167e-08
1.31326082e-09
1.31356022e-09
3.94741964e-08
3.9087507e-08
1.39140746e-09
1.27595871e-09
3.25525644e-08
4.53750863e-08
3.67582404e-08
1.29458127e-09
1.33965637e-09
3.7015043e-08
4.16074128e-08
4.22780126e-08
4.33845361e-08
1.34280307e-09
1.1743649e-09
3.75307229e-08
5.09773392e-08
4.25297893e-08
1.18011423e-09
1.28943496e-09
4.39674255e-08
4.27920258e-08
1.29102408e-09
1.26211594e-09
4.18518314e-08
4.30061638e-08
1.38483669e-09
1.18073987e-09
3.65872719e-08
4.94202105e-08
4.41045494e-08
1.20799518e-09
1.27150178e-09
4.31053804e-08
4.3019648e-08
1.28247141e-09
1.25536109e-09
4.26294658e-08
4.12206075e-08
1.28534534e-09
1.28018519e-09
4.387226e-08
3.74321475e-08
1.20626848e-09
3.36857333e-08
4.91515093e-08
1.37280729e-09
1.1633469e-09
4.35341462e-08
4.47803272e-08
1.27896819e-09
1.158658e-09
4.43501348e-08
4.38078869e-08
1.25421338e-09
1.15232936e-09
4.43931618e-08
4.36661137e-08
1.24626268e-09
1.13669854e-09
4.44043336e-08
4.35725279e-08
1.2410723e-09
1.11640733e-09
4.43727652e-08
4.34408755e-08
1.23688026e-09
1.0954322e-09
4.42342738e-08
4.32024657e-08
1.23358482e-09
1.07779712e-09
4.39795957e-08
4.28446304e-08
1.23215648e-09
1.06733774e-09
4.35883114e-08
4.23168785e-08
1.23355911e-09
1.06629849e-09
4.29635508e-08
4.1476361e-08
1.23565333e-09
1.07346456e-09
4.20747443e-08
4.0051349e-08
1.23334429e-09
1.11105956e-09
4.18998403e-08
3.56505033e-08
1.10563783e-09
3.00271819e-08
4.69916557e-08
1.34677766e-09
1.09460488e-09
3.9811648e-08
3.97073007e-08
1.33026354e-09
1.21620693e-09
3.24114541e-08
3.97396968e-08
4.68409583e-08
4.35156412e-08
1.06643245e-09
3.4129255e-08
4.91644553e-08
1.25230252e-09
1.13732674e-09
4.162036e-08
4.33438704e-08
1.19525642e-09
1.19249559e-09
4.06004981e-08
4.36183248e-08
1.27251893e-09
1.11591676e-09
3.2672846e-08
5.17234492e-08
4.93001994e-08
1.09628639e-09
1.18967552e-09
4.15578496e-08
4.49727206e-08
1.10382993e-09
1.24626077e-09
4.24342144e-08
4.44971689e-08
1.07304144e-09
1.25641985e-09
4.24532777e-08
4.44825685e-08
1.04644201e-09
1.25529037e-09
4.23387893e-08
4.45117549e-08
1.01379513e-09
1.25326548e-09
4.21886824e-08
4.4576985e-08
9.75403998e-10
1.25112005e-09
4.20011379e-08
4.4664458e-08
9.30971113e-10
1.2488761e-09
4.17509151e-08
4.47491877e-08
8.81121449e-10
1.2470124e-09
4.1413933e-08
4.47854293e-08
8.27154049e-10
1.24634491e-09
4.097216e-08
4.4732538e-08
7.71193295e-10
1.24788086e-09
4.03413165e-08
4.44861248e-08
7.15629819e-10
1.25212904e-09
3.95703646e-08
4.40417107e-08
6.63643007e-10
1.25933757e-09
3.84874895e-08
4.32455557e-08
6.23399794e-10
1.27153954e-09
3.69243205e-08
4.18348414e-08
6.06511073e-10
1.29046336e-09
3.47416331e-08
3.98042493e-08
6.2299953e-10
1.29835449e-09
3.21461245e-08
3.91715812e-08
4.30730251e-08
4.27520736e-08
7.66146075e-10
3.20173473e-08
4.40136664e-08
5.39934044e-10
1.24705238e-09
3.49447242e-08
4.18146059e-08
5.30798065e-10
1.25325727e-09
3.58611222e-08
4.24381514e-08
5.42379153e-10
1.19589354e-09
3.47564062e-08
4.80619381e-08
4.77367378e-08
7.77366061e-10
1.25907254e-09
3.75398706e-08
4.39553822e-08
5.48374315e-10
1.26256133e-09
3.78648819e-08
4.33737476e-08
6.1036471e-10
1.27265774e-09
3.78703462e-08
4.2667542e-08
6.79328456e-10
1.29369018e-09
3.78455252e-08
4.14328972e-08
7.53384793e-10
1.32590581e-09
3.85543056e-08
3.89211051e-08
9.31989298e-10
3.38381706e-08
4.41716417e-08
8.51901448e-10
1.2839593e-09
3.77337727e-08
4.24178347e-08
8.61510906e-10
1.29548261e-09
3.78465317e-08
4.13202798e-08
9.28745568e-10
1.2367821e-09
3.52720472e-08
4.70328219e-08
4.46416012e-08
1.04380906e-09
1.31172706e-09
3.66427512e-08
4.08479318e-08
9.77691587e-10
1.27827943e-09
3.30307039e-08
4.38263479e-08
4.11974128e-08
1.12312696e-09
1.35637213e-09
3.3239662e-08
3.85433918e-08
4.23966957e-08
3.93660963e-08
1.11842663e-09
3.14835402e-08
4.17614973e-08
1.02058037e-09
1.33690264e-09
3.49445136e-08
3.81807395e-08
1.05402519e-09
1.34782571e-09
3.33386122e-08
3.84310179e-08
4.25077087e-08
4.10547186e-08
1.12956996e-09
3.335217e-08
4.45637497e-08
1.04363992e-09
1.28829177e-09
3.88408631e-08
4.27074159e-08
1.05749224e-09
1.30145006e-09
4.05286395e-08
4.25786043e-08
1.1145407e-09
1.27289788e-09
4.16997318e-08
4.26205675e-08
1.16320018e-09
1.19492668e-09
4.24992486e-08
4.23787799e-08
1.19777931e-09
1.08711601e-09
4.3030746e-08
4.17478975e-08
1.22251222e-09
9.70013993e-10
4.323352e-08
4.0805012e-08
1.24193164e-09
8.61852469e-10
4.32365981e-08
3.95734789e-08
1.25441049e-09
7.73206642e-10
4.31187715e-08
3.80488209e-08
1.25124538e-09
7.30363645e-10
4.4464959e-08
3.41329717e-08
8.10725003e-10
4.11305053e-08
4.13110732e-08
1.2656036e-09
6.01327106e-10
4.3722128e-08
4.00554033e-08
1.23997175e-09
6.29614193e-10
4.43301062e-08
3.97628944e-08
1.23313887e-09
6.97431294e-10
4.41921455e-08
3.97805046e-08
1.23505705e-09
7.88221477e-10
4.40138962e-08
3.94007835e-08
1.20780802e-09
9.35010853e-10
4.66114823e-08
3.34353034e-08
9.93504232e-10
4.19774435e-08
4.45447519e-08
1.22495176e-09
9.53232516e-10
4.45445111e-08
4.34418811e-08
1.19910928e-09
1.03793618e-09
4.45950166e-08
4.32141009e-08
1.21285814e-09
1.11384252e-09
4.41319906e-08
4.30242242e-08
1.2119541e-09
1.15808604e-09
4.33076633e-08
4.26590919e-08
1.20524089e-09
1.2076171e-09
4.25219403e-08
4.21458747e-08
1.20311148e-09
1.25502473e-09
4.16669563e-08
4.15434735e-08
1.1773336e-09
1.23151989e-09
3.98727998e-08
4.8181492e-08
4.44593376e-08
1.15078774e-09
1.19783144e-09
3.86818896e-08
4.9392489e-08
4.74144195e-08
1.05970291e-09
1.23875211e-09
4.06799475e-08
4.37851942e-08
9.35790167e-10
1.2637361e-09
4.04209443e-08
4.25795351e-08
8.89607222e-10
1.27369451e-09
4.03495191e-08
4.02480728e-08
8.60075518e-10
3.36109513e-08
4.81537294e-08
8.0677045e-10
1.18306274e-09
3.94774875e-08
4.46485513e-08
7.00857684e-10
1.21637737e-09
3.96156585e-08
4.45924976e-08
6.20653772e-10
1.20881308e-09
3.79774138e-08
4.45901331e-08
1.96081633e-09
1.1874787e-09
3.50932231e-08
4.44723933e-08
5.90387624e-09
1.16449165e-09
3.29674167e-08
4.43869035e-08
8.71686911e-09
1.14283473e-09
3.14865072e-08
4.4282496e-08
1.06275326e-08
1.12402994e-09
3.04323939e-08
4.42103889e-08
1.18459535e-08
1.1103931e-09
2.97952195e-08
4.40621428e-08
1.23092118e-08
1.10562466e-09
2.949663e-08
4.38798599e-08
1.23173042e-08
1.10911239e-09
2.93655296e-08
4.35770233e-08
1.19920248e-08
1.1200439e-09
2.94004916e-08
4.31757759e-08
1.13692136e-08
1.13791066e-09
2.96649343e-08
4.26115828e-08
1.00897625e-08
1.16712856e-09
3.04480076e-08
4.15121837e-08
7.38471149e-09
1.22374269e-09
3.19485361e-08
3.7226392e-08
3.14902776e-09
2.47598271e-08
4.71141076e-08
4.04998375e-09
1.16356345e-09
3.32301914e-08
4.0287429e-08
5.42457163e-10
1.26661993e-09
2.80095016e-08
3.79644552e-08
4.68301117e-08
4.66234958e-08
6.84001891e-10
2.93888002e-08
4.83275849e-08
6.79460698e-10
1.19271199e-09
3.77689905e-08
4.29016733e-08
7.9392347e-10
1.27023387e-09
3.82749493e-08
4.1937804e-08
9.32551089e-10
1.29338394e-09
3.86584825e-08
4.1387727e-08
1.08189212e-09
1.30217376e-09
3.85297052e-08
4.08969934e-08
1.259998e-09
1.28151277e-09
3.41140776e-08
4.18511597e-08
4.89397247e-08
4.77021155e-08
1.14455916e-09
1.09631237e-09
4.49495534e-08
4.45459655e-08
1.19337219e-09
1.04531834e-09
4.45976066e-08
4.3354349e-08
1.20869571e-09
9.92607634e-10
4.45474689e-08
4.27712581e-08
1.22317286e-09
9.5057287e-10
4.44858866e-08
4.23368794e-08
1.23882785e-09
9.37700405e-10
4.42714915e-08
4.13994402e-08
1.23835639e-09
9.94417567e-10
4.44203344e-08
4.35960354e-08
9.38340125e-10
1.12020286e-09
3.48176765e-08
4.44295504e-08
1.6749219e-08
1.1718327e-09
2.16354634e-08
4.4882956e-08
2.86358115e-08
1.20363976e-09
7.44603035e-09
4.51707116e-08
3.6600407e-08
1.22048167e-09
7.90035576e-10
4.5369955e-08
4.0650857e-08
1.22867689e-09
8.51501087e-10
4.54411823e-08
3.90792315e-08
1.22823036e-09
1.96733488e-09
4.55448003e-08
3.23214531e-08
1.22973334e-09
1.65609737e-08
4.55061398e-08
2.13910735e-08
1.22802231e-09
3.00752989e-08
4.51429663e-08
4.346386e-09
1.24895295e-09
3.96181827e-08
4.47259439e-08
1.1244064e-09
1.24539255e-09
4.30707042e-08
4.45201027e-08
1.1972842e-09
1.25052196e-09
4.32111343e-08
4.37928956e-08
1.23345977e-09
1.27011163e-09
4.27147712e-08
4.25871219e-08
1.25676139e-09
1.34266552e-09
4.30592474e-08
3.7597262e-08
1.16966512e-09
2.99850888e-08
4.97929969e-08
1.37996809e-09
1.14419763e-09
3.38702708e-08
5.19995435e-08
4.63980665e-08
1.13050594e-09
1.33659045e-09
4.29836988e-08
4.09900917e-08
1.1807278e-09
3.12444214e-08
4.97628468e-08
1.22056659e-09
1.26030975e-09
4.17723617e-08
4.46100628e-08
1.1629883e-09
1.32706004e-09
4.18746758e-08
4.34228579e-08
1.17361551e-09
1.3450013e-09
4.06049024e-08
4.45121309e-08
1.24029767e-09
1.28626149e-09
3.39165393e-08
5.16000112e-08
5.10236595e-08
1.16893423e-09
1.33786906e-09
4.19710853e-08
4.57583055e-08
1.17228387e-09
1.39221077e-09
4.26090586e-08
4.7357166e-08
1.28602863e-09
1.30203965e-09
3.69835595e-08
5.81631386e-08
5.67863727e-08
1.14294653e-09
1.37966169e-09
5.0465481e-08
5.19139787e-08
9.75883263e-10
1.48424117e-09
1.03755228e-09
1.54796672e-09
1.26526363e-09
1.64763483e-09
1.49039065e-09
3.16360187e-08
4.5620502e-08
1.61042033e-09
1.72667117e-09
4.61194456e-08
4.54325358e-08
1.75787156e-09
1.83025073e-09
1.49908877e-09
1.91785892e-09
1.63542112e-09
2.07202168e-09
1.85695001e-09
2.23481243e-09
2.06969978e-09
2.4059907e-09
2.29284168e-09
2.57627422e-09
2.44713366e-09
2.73406643e-09
2.52394079e-09
2.87191552e-09
2.49200905e-09
3.04533404e-09
2.56270624e-09
7.21019545e-09
1.09919969e-08
2.63401095e-08
6.25015004e-09
6.81285835e-09
2.33878477e-08
4.34432821e-08
1.67676166e-08
1.35396734e-08
2.41514571e-08
2.22332886e-08
3.62585182e-08
4.31800465e-08
4.29925092e-08
2.10142299e-08
1.74882376e-08
4.66611886e-08
4.41006166e-08
2.76272197e-08
4.04409703e-08
4.75324763e-08
3.78128147e-08
3.41638467e-08
5.18211384e-08
5.63779486e-08
4.89492278e-08
3.78203202e-08
6.04679934e-08
8.70395861e-08
5.16631421e-08
6.13846091e-08
9.52737905e-08
1.14111987e-07
5.51496243e-08
4.51255124e-08
1.32140954e-07
1.63425777e-07
8.42883112e-08
1.17926049e-07
1.57234875e-07
1.85679696e-07
1.41895191e-07
1.87997495e-07
1.91229071e-07
2.30248542e-07
2.19646894e-07
2.62843755e-07
2.41319886e-07
2.8965525e-07
2.86418832e-07
2.39268978e-07
2.67326976e-07
3.20273511e-07
1.00123284e-07
3.32225874e-07
3.19568992e-07
2.40266606e-07
3.29369196e-07
4.87811487e-07
5.45724709e-07
5.02967818e-07
5.94033224e-07
7.48565951e-07
7.42695283e-07
8.01211936e-07
7.97153913e-07
6.76772789e-07
6.95408294e-07
9.06426745e-07
5.73538153e-07
6.78389902e-07
6.71072248e-07
7.98432809e-07
7.34709837e-07
9.11141148e-07
9.62634126e-07
1.34015336e-06
2.82690598e-07
3.21894213e-07
4.23277097e-07
4.45157196e-07
3.98932247e-07
8.12925656e-07
1.49079282e-06
1.34322592e-06
8.95421055e-07
1.00648658e-06
1.21868403e-06
1.673449e-06
2.3436381e-07
6.3973026e-07
5.02486576e-07
1.26352061e-06
8.3749501e-07
1.44473846e-06
1.36931288e-06
2.00123143e-06
2.15139684e-06
2.58817148e-06
2.94639082e-06
3.10032864e-06
3.36446413e-06
3.86901473e-06
4.12546459e-06
4.55958431e-06
4.8202443e-06
5.41281121e-06
5.74240116e-06
4.89647419e-06
5.12569869e-06
5.49227933e-06
5.71838248e-06
6.29393187e-06
6.83196371e-06
7.35736947e-06
7.54195249e-06
7.59932193e-06
7.7354498e-06
7.86912684e-06
8.15448358e-06
8.50623457e-06
8.83701748e-06
9.16118571e-06
9.46419694e-06
9.77017228e-06
1.00468507e-05
1.03434075e-05
1.06039424e-05
1.08992535e-05
1.11536602e-05
1.14722162e-05
1.17478238e-05
1.20907735e-05
1.23958435e-05
1.27641804e-05
1.32639332e-05
1.41431572e-05
1.50630014e-05
1.60084333e-05
1.67632926e-05
1.76030967e-05
1.82473898e-05
1.89997517e-05
1.9613268e-05
2.02801323e-05
2.08896893e-05
2.16113324e-05
2.23454488e-05
2.31045421e-05
2.3920554e-05
2.47511012e-05
2.5742591e-05
2.67242971e-05
2.79151265e-05
2.90135722e-05
3.02920361e-05
3.14761421e-05
3.28186311e-05
3.40032263e-05
3.53535832e-05
3.65405309e-05
3.79191462e-05
3.91002307e-05
4.05074817e-05
4.16865729e-05
4.30885761e-05
4.43051759e-05
4.5706834e-05
4.70560293e-05
4.85885272e-05
5.00148802e-05
5.16182137e-05
5.30697885e-05
5.47679974e-05
5.62992006e-05
5.80408972e-05
5.96265937e-05
6.14031444e-05
6.30394683e-05
6.48510759e-05
6.65357998e-05
6.83827475e-05
7.01144906e-05
7.19936229e-05
7.37700382e-05
7.56794615e-05
7.74988678e-05
7.9437085e-05
8.13115205e-05
8.32984494e-05
8.52330616e-05
8.72492584e-05
8.92208573e-05
9.12644892e-05
9.3269529e-05
9.53390436e-05
9.73739332e-05
9.94682898e-05
0.000101529011
0.000103651436
0.00010574334
0.000107889316
0.000109992777
0.000112152704
0.000114265921
0.000116442087
0.000118563914
0.000120757262
0.000122885365
0.000125102392
0.000127245336
0.000129486944
0.000131633414
0.000133895711
0.00013604294
0.000138323725
0.000140467217
0.000142765693
0.000144902108
0.00014721772
0.000149343815
0.000151675843
0.000153788053
0.000156134746
0.000158228171
0.000160587178
0.000162658778
0.000165029017
0.000167074736
0.00016945365
0.000171469359
0.000173854133
0.000175835728
0.000178223306
0.000180166817
0.000182553956
0.000184455828
0.000186839873
0.000188697083
0.00019107403
0.000192882761
0.000195247753
0.000197002884
0.00019934658
0.000201039794
0.000203354714
0.000204984492
0.000207279274
0.000208848485
0.000211099702
0.000212597654
0.000214805902
0.000216233325
0.000218397374
0.000219757921
0.000221887955
0.00022319695
0.000225303039
0.000226567108
0.000228649448
0.000229871434
0.000231926573
0.000233108725
0.000235131532
0.000236275622
0.000238257675
0.000239361177
0.00024129065
0.000242347696
0.000244203805
0.000245207809
0.000246996994
0.000247939721
0.000249805837
0.000250696016
0.00025251966
0.000253389963
0.000255112441
0.000255625418
0.000257553287
0.000258622256
0.000259918793
0.000259284481
0.000262033712
0.000265066805
0.000264315951
0.000261297994
0.000266161348
0.000271967888
0.000268500642
0.000262443156
0.000270036295
0.000277628553
0.000272403903
0.000263772449
0.000273665753
0.000281428001
0.000276030815
0.000264350979
0.000277098023
0.000287065416
0.000279172112
0.000256378017
0.000280687089
0.000309588929
0.000280679309
0.000229032876
0.000286240939
0.000350914415
0.000274288051
0.000182443705
0.000300026459
0.000382576716
0.000250285431
0.000128448517
0.000338829791
0.000406661691
0.000193974754
8.82206595e-05
0.000377823128
0.000410538804
0.000114070916
7.08914939e-05
0.000384465355
0.000407927913
7.5095371e-05
5.85573155e-05
0.00035088155
0.000401045478
5.92843746e-05
4.48196301e-05
0.000298410475
0.000386949918
4.50267815e-05
3.67598683e-05
0.000213903431
0.000379449013
7.11780289e-05
3.19283376e-05
0.000124842165
0.000359606231
7.47036322e-05
2.39617687e-05
6.82565784e-05
0.000338753443
5.89546841e-05
1.86081828e-05
3.93926652e-05
0.000320161505
4.26743554e-05
1.67531265e-05
2.65821707e-05
0.000303928192
3.40648401e-05
1.55841245e-05
2.31779759e-05
0.00028683812
3.30849645e-05
1.43520655e-05
2.47369601e-05
0.000267547353
3.71754793e-05
1.29319475e-05
3.15543683e-05
0.000244335769
4.08868284e-05
1.22693312e-05
3.85742164e-05
0.000213059288
4.5986189e-05
2.23417397e-05
4.33162987e-05
0.000149442002
4.75542093e-05
5.08726454e-05
4.47105613e-05
0.000104966925
4.79214537e-05
6.01078729e-05
4.494395e-05
7.9823303e-05
4.60738157e-05
5.16157081e-05
4.29775181e-05
6.54955268e-05
4.27823958e-05
4.53542098e-05
4.00405301e-05
5.25544299e-05
3.91078864e-05
4.20000338e-05
3.68962563e-05
4.31528655e-05
3.56016975e-05
3.80669859e-05
3.38372138e-05
3.69974647e-05
3.24978611e-05
3.42854016e-05
3.10829486e-05
3.28120845e-05
2.99020598e-05
3.10849953e-05
2.87700519e-05
2.98058258e-05
2.77732516e-05
2.85799881e-05
2.68588366e-05
2.75538407e-05
2.60454845e-05
2.66295006e-05
2.53350156e-05
2.583261e-05
2.4714723e-05
2.51573887e-05
2.41610249e-05
2.45658818e-05
2.36678981e-05
2.4043232e-05
2.32273024e-05
2.35810033e-05
2.28328249e-05
2.31695707e-05
2.24779853e-05
2.28014443e-05
2.21571252e-05
2.24695853e-05
2.18649905e-05
2.21680489e-05
2.15969372e-05
2.18915587e-05
2.1348807e-05
2.16355914e-05
2.11169541e-05
2.13962306e-05
2.08981881e-05
2.11701408e-05
2.06964263e-05
2.09544939e-05
2.0514443e-05
2.07580188e-05
2.03383114e-05
2.05749634e-05
2.01664109e-05
2.03962859e-05
1.99974792e-05
2.02012862e-05
1.98030323e-05
1.99505573e-05
1.95620557e-05
1.97028222e-05
1.93231634e-05
1.94575538e-05
1.90860237e-05
1.92144679e-05
1.88505016e-05
1.89734915e-05
1.86166381e-05
1.87347376e-05
1.83846295e-05
1.84984855e-05
1.81548122e-05
1.82651677e-05
1.792765e-05
1.80353642e-05
1.7703727e-05
1.78098057e-05
1.74837454e-05
1.75893886e-05
1.72685308e-05
1.73751978e-05
1.70590412e-05
1.71685645e-05
1.68563919e-05
1.6971095e-05
1.66618694e-05
1.67848663e-05
1.64770068e-05
1.66122848e-05
1.63159455e-05
1.64580196e-05
1.61797786e-05
1.63443647e-05
1.60581389e-05
1.6257374e-05
1.59546563e-05
1.61957894e-05
1.58701608e-05
1.61911836e-05
1.58149465e-05
1.61917011e-05
1.57758009e-05
1.6451102e-05
1.5840308e-05
1.65018929e-05
1.59178757e-05
1.75273679e-05
1.62272995e-05
1.69476134e-05
1.62182915e-05
2.01941877e-05
1.69574695e-05
1.69770175e-05
1.64370185e-05
2.67425978e-05
1.85120378e-05
1.51286534e-05
1.63628432e-05
4.1686142e-05
2.16728836e-05
8.3019614e-06
1.57060479e-05
5.99281075e-05
2.72892541e-05
3.31998105e-06
1.33105984e-05
7.94551597e-05
3.59298829e-05
1.96430977e-06
9.35868691e-06
8.74266612e-05
4.66979231e-05
1.63234057e-06
5.08198231e-06
9.38661836e-05
5.53774447e-05
1.4646189e-06
3.06622405e-06
9.73794209e-05
6.32557443e-05
1.25763366e-06
2.33585851e-06
9.93515583e-05
6.81371307e-05
1.14318811e-06
1.83422493e-06
9.94366887e-05
7.14945563e-05
1.14468554e-06
1.50874073e-06
9.81760112e-05
7.49226818e-05
1.16632873e-06
1.31108086e-06
9.64191782e-05
7.74200134e-05
1.2143732e-06
1.13615148e-06
9.43879766e-05
7.90054695e-05
1.22287504e-06
9.78329605e-07
9.24543286e-05
7.96758821e-05
1.2168354e-06
9.36292871e-07
9.07995602e-05
7.843405e-05
1.26428118e-06
9.40324036e-07
8.92738363e-05
7.72396416e-05
1.15609315e-06
9.55763572e-07
8.7367174e-05
7.60709513e-05
1.10182907e-06
9.63788467e-07
8.51697243e-05
7.47794805e-05
1.04936471e-06
9.52850346e-07
8.29572712e-05
7.32565155e-05
1.00983836e-06
9.45565811e-07
8.11060336e-05
7.12752634e-05
1.01225857e-06
9.43974655e-07
7.97150819e-05
6.86173198e-05
1.03947238e-06
9.38847353e-07
7.91377822e-05
6.53506132e-05
1.13866737e-06
9.52571338e-07
7.76532985e-05
6.26307153e-05
1.37111857e-06
9.73684412e-07
7.41097217e-05
6.05625883e-05
5.86029392e-06
1.18436116e-06
6.2012372e-05
5.8933647e-05
3.335335e-05
5.30731016e-06
2.5472759e-05
4.83528451e-05
7.59832405e-05
2.76383136e-05
4.15926517e-06
1.86675806e-05
8.66591141e-05
5.94895758e-05
8.6184528e-07
3.26499189e-06
8.45924202e-05
6.7005576e-05
7.93050094e-07
9.56415675e-07
8.16676481e-05
6.65552922e-05
8.4226371e-07
8.55123821e-07
7.9407163e-05
6.58855571e-05
8.43010128e-07
8.34296194e-07
7.73102111e-05
6.50305975e-05
8.32988955e-07
8.21268178e-07
7.55197634e-05
6.42212991e-05
8.15522958e-07
8.04956304e-07
7.40464724e-05
6.34654064e-05
7.97200763e-07
7.84005763e-07
7.27296008e-05
6.27626932e-05
7.77494156e-07
7.61599418e-07
7.1541175e-05
6.21251265e-05
7.56067471e-07
7.39626686e-07
7.04609825e-05
6.15598356e-05
7.31796944e-07
7.14439875e-07
6.94760871e-05
6.10188484e-05
7.04713331e-07
6.8602421e-07
6.85846506e-05
6.05475597e-05
6.756326e-07
6.51802738e-07
6.77897045e-05
6.015758e-05
6.46709418e-07
6.15866186e-07
6.71117216e-05
5.97907633e-05
6.18883481e-07
5.85233941e-07
6.65269507e-05
5.93150138e-05
5.92439348e-07
5.51992874e-07
6.62623096e-05
5.8567329e-05
5.93718999e-07
5.26341727e-07
6.59667724e-05
5.80986041e-05
5.63494487e-07
4.96518084e-07
6.57278509e-05
5.7763418e-05
5.29001436e-07
4.66992012e-07
6.53892056e-05
5.75215265e-05
5.02157605e-07
4.37890453e-07
6.49555847e-05
5.74102366e-05
4.70892769e-07
4.05717789e-07
6.45627811e-05
5.73278735e-05
4.41821297e-07
3.80390222e-07
6.41277916e-05
5.74450342e-05
3.7814067e-07
3.52361835e-07
6.39349014e-05
5.72055825e-05
3.47964714e-07
3.30659068e-07
6.37607385e-05
5.69661248e-05
3.19846081e-07
3.09013479e-07
6.3604626e-05
5.67335402e-05
2.93584524e-07
2.88024224e-07
6.34638443e-05
5.65164771e-05
2.68535087e-07
2.68660145e-07
6.33398758e-05
5.63103425e-05
2.44478511e-07
2.50925698e-07
6.32331222e-05
5.61143115e-05
2.22042716e-07
2.34765416e-07
6.31450146e-05
5.59276485e-05
2.01343248e-07
2.2008136e-07
6.30742645e-05
5.57494288e-05
1.82423118e-07
2.06784806e-07
6.30199222e-05
5.5578747e-05
1.65305603e-07
1.94791986e-07
6.29804957e-05
5.541492e-05
1.49998715e-07
1.84006253e-07
6.29551997e-05
5.52577367e-05
1.36512801e-07
1.74293839e-07
6.29408493e-05
5.51076282e-05
1.24894008e-07
1.65511286e-07
6.29334063e-05
5.49657425e-05
1.15246704e-07
1.57391218e-07
6.29303917e-05
5.48327769e-05
1.07700253e-07
1.49861463e-07
6.29296081e-05
5.4709057e-05
1.022784e-07
1.43164148e-07
6.29293313e-05
5.45944528e-05
9.88785046e-08
1.37510932e-07
6.29280948e-05
5.44872979e-05
9.73880062e-08
1.32914727e-07
6.29254646e-05
5.43861631e-05
9.77648556e-08
1.2939094e-07
6.29218595e-05
5.42907317e-05
9.9966144e-08
1.26955619e-07
6.29183362e-05
5.4201062e-05
1.03802752e-07
1.25589587e-07
6.2916883e-05
5.41151868e-05
1.08903454e-07
1.25261722e-07
6.29211566e-05
5.4027184e-05
1.14832283e-07
1.26043468e-07
6.29363312e-05
5.3927523e-05
1.21213549e-07
1.28139097e-07
6.29672005e-05
5.38059316e-05
1.27836903e-07
1.3176452e-07
6.30155206e-05
5.36562027e-05
1.34716892e-07
1.36927912e-07
6.30783502e-05
5.34807631e-05
1.42123467e-07
1.43256062e-07
6.31509024e-05
5.32925862e-05
1.50646489e-07
1.50126181e-07
6.32161242e-05
5.31120134e-05
1.60808931e-07
1.56981167e-07
6.32636748e-05
5.29568512e-05
1.72678195e-07
1.63582599e-07
6.32920939e-05
5.28303095e-05
1.85793019e-07
1.70209292e-07
6.33130303e-05
5.27161297e-05
1.99360084e-07
1.77747289e-07
6.3348153e-05
5.25853663e-05
2.12413563e-07
1.87237738e-07
6.34179442e-05
5.24099297e-05
2.24132477e-07
1.98879481e-07
6.35287801e-05
5.21795002e-05
2.34772204e-07
2.11585553e-07
6.36642801e-05
5.19209422e-05
2.46019525e-07
2.24182306e-07
6.37837309e-05
5.16881459e-05
2.59010268e-07
2.36885311e-07
6.38499883e-05
5.14874384e-05
2.73914009e-07
2.49035577e-07
6.38770289e-05
5.12820631e-05
2.90889938e-07
2.60858606e-07
6.38994675e-05
5.10616577e-05
3.0882757e-07
2.7280333e-07
6.39340871e-05
5.08407515e-05
3.2639912e-07
2.85076253e-07
6.39980402e-05
5.06143444e-05
3.42091078e-07
2.98726241e-07
6.41279338e-05
5.03317002e-05
3.53500214e-07
3.15185869e-07
6.43730592e-05
4.99382244e-05
3.58903887e-07
3.34119632e-07
6.47578239e-05
4.94118222e-05
3.60175783e-07
3.54190855e-07
6.5217671e-05
4.88392656e-05
3.61689162e-07
3.73661625e-07
6.56123547e-05
4.8359133e-05
3.68576906e-07
3.90445593e-07
6.58369726e-05
4.80458005e-05
3.8360696e-07
4.03476562e-07
6.5872347e-05
4.78833504e-05
4.06161143e-07
4.13278749e-07
6.57658925e-05
4.78094598e-05
4.33191697e-07
4.20942446e-07
6.55834959e-05
4.7764474e-05
4.6169654e-07
4.26540056e-07
6.53752401e-05
4.77440113e-05
4.89895227e-07
4.3196985e-07
6.51446561e-05
4.77654624e-05
5.1449194e-07
4.37647995e-07
6.49180529e-05
4.77735592e-05
5.3364078e-07
4.42666019e-07
6.47580241e-05
4.70535244e-05
6.42760239e-07
4.49269633e-07
6.46662787e-05
4.69922069e-05
6.49183944e-07
4.53132175e-07
6.45925644e-05
4.69754518e-05
6.51398644e-07
4.55558036e-07
6.44819424e-05
4.70418869e-05
6.50571869e-07
4.57522431e-07
6.43293135e-05
4.7157251e-05
6.43617769e-07
4.62183665e-07
6.42316844e-05
4.78208939e-05
5.32037399e-07
4.6609823e-07
6.4432154e-05
4.75804929e-05
5.07808288e-07
4.6017326e-07
6.49829778e-05
4.73756905e-05
4.97122134e-07