/*--------------------------------*- C++ -*----------------------------------*\
| =========                 |                                                 |
| \\      /  F ield         | OpenFOAM: The Open Source CFD Toolbox           |
|  \\    /   O peration     | Version:  2306                                  |
|   \\  /    A nd           | Website:  www.openfoam.com                      |
|    \\/     M anipulation  |                                                 |
\*---------------------------------------------------------------------------*/
FoamFile
{
    version     2.0;
    format      ascii;
    arch        "LSB;label=32;scalar=64";
    class       volScalarField;
    location    "6e-05";
    object      prefDPV_T;
}
// * * * * * * * * * * * * * * * * * * * * * * * * * * * * * * * * * * * * * //

dimensions      [1 -1 -1 -1 0 0 0];

internalField   nonuniform List<scalar> 
3801
(
5.9042197e-10
6.08997434e-10
6.08711627e-10
5.93937103e-10
5.90387079e-10
5.90283929e-10
5.89016793e-10
5.8879088e-10
6.10089216e-10
6.08924212e-10
5.91000442e-10
5.89651324e-10
6.10809863e-10
6.08734698e-10
5.91267938e-10
5.89713672e-10
6.115599e-10
6.08761025e-10
5.91555771e-10
5.89782187e-10
6.12332415e-10
6.08806616e-10
5.91748649e-10
5.89810456e-10
6.10150747e-10
6.08864308e-10
5.92117395e-10
5.89802697e-10
6.0859151e-10
6.0891302e-10
5.92465231e-10
5.89810832e-10
6.07797254e-10
6.08933173e-10
5.9270987e-10
5.89861777e-10
6.07579565e-10
6.089195e-10
5.9289757e-10
5.89973938e-10
6.0780925e-10
6.08873994e-10
5.93069914e-10
5.90147567e-10
6.0833204e-10
6.08819312e-10
5.92963516e-10
5.90295434e-10
6.11116918e-10
6.08728258e-10
5.94807303e-10
5.90472807e-10
5.89616886e-10
5.89390275e-10
6.06300892e-10
6.0914775e-10
5.92803503e-10
5.90013735e-10
6.08421784e-10
6.08956164e-10
5.92450361e-10
5.90120057e-10
6.09449772e-10
6.0883943e-10
5.92058105e-10
5.90588353e-10
6.10214736e-10
5.94052958e-10
5.89276558e-10
6.09256671e-10
6.09266594e-10
5.91912677e-10
5.89685894e-10
6.09898279e-10
6.09004803e-10
5.91574579e-10
5.89604495e-10
6.10670046e-10
6.08959579e-10
5.91416512e-10
5.89566971e-10
6.11486802e-10
6.08917052e-10
5.91281534e-10
5.89546617e-10
6.12175946e-10
6.08868873e-10
5.91125797e-10
5.89540496e-10
6.12279026e-10
6.08817992e-10
5.90935632e-10
5.89555774e-10
6.11825582e-10
6.08761713e-10
5.90724569e-10
5.89607408e-10
6.11279304e-10
6.08702889e-10
5.90507044e-10
5.89715719e-10
6.10678317e-10
6.08645055e-10
5.90279776e-10
5.89892728e-10
6.10090404e-10
6.08586019e-10
5.89933041e-10
5.90185552e-10
6.09535989e-10
5.90768186e-10
5.8919222e-10
6.09251627e-10
6.08822961e-10
5.89997908e-10
5.89639196e-10
6.09078018e-10
6.08832928e-10
5.89732943e-10
5.89850345e-10
6.08842361e-10
6.08805958e-10
5.89703241e-10
5.89994083e-10
6.08617691e-10
6.08838316e-10
5.89748217e-10
5.89955588e-10
6.08430588e-10
6.08958616e-10
5.89844565e-10
5.89357283e-10
5.89752441e-10
6.08712285e-10
6.08730285e-10
5.9007393e-10
5.900735e-10
6.0835055e-10
6.08692088e-10
5.90254707e-10
5.9055369e-10
6.08231611e-10
6.0860338e-10
5.90263002e-10
5.90495211e-10
5.89825493e-10
5.90840583e-10
6.08563305e-10
5.90563288e-10
5.89692412e-10
6.08409375e-10
6.08637003e-10
5.89910339e-10
5.89823726e-10
6.08523545e-10
6.08693773e-10
5.89669367e-10
5.89717514e-10
6.08581489e-10
6.08684655e-10
5.89550988e-10
5.8961281e-10
6.08648864e-10
6.0867776e-10
5.89527075e-10
5.89558969e-10
6.08714477e-10
6.08671288e-10
5.89554498e-10
5.8955119e-10
6.08777665e-10
6.08656639e-10
5.89606304e-10
5.89571369e-10
6.08835357e-10
6.08630369e-10
5.89676083e-10
5.89617662e-10
6.08880658e-10
6.08583231e-10
5.89777813e-10
5.89715404e-10
6.08897821e-10
6.08510539e-10
5.89926053e-10
5.89900335e-10
6.08867596e-10
6.08422231e-10
5.90144234e-10
5.90198381e-10
6.0878281e-10
6.08355603e-10
5.90486356e-10
5.90501946e-10
6.08626197e-10
6.08457341e-10
5.90990868e-10
5.90017664e-10
5.90132383e-10
5.8959243e-10
5.89415141e-10
6.09096231e-10
6.08454868e-10
5.90236312e-10
5.89688119e-10
6.0943101e-10
6.08422578e-10
5.90376868e-10
5.89945389e-10
6.09422738e-10
6.08364387e-10
5.90548215e-10
5.90165357e-10
6.09397737e-10
6.083387e-10
5.90813043e-10
5.90299986e-10
6.09335974e-10
6.08400838e-10
5.91039932e-10
5.90213833e-10
5.89806516e-10
5.89773281e-10
6.09808648e-10
6.08627553e-10
5.90400199e-10
5.8975138e-10
6.09807966e-10
6.08733783e-10
5.90593148e-10
5.89655637e-10
6.09623187e-10
6.09011469e-10
5.90874019e-10
5.89147928e-10
5.88824712e-10
6.09946462e-10
6.08742448e-10
5.90561056e-10
5.89391418e-10
6.10139527e-10
6.0863543e-10
5.90376135e-10
5.89473771e-10
6.10116237e-10
6.08621931e-10
5.90347478e-10
5.89500979e-10
6.10027354e-10
6.0861587e-10
5.90327306e-10
5.89518252e-10
6.09894633e-10
6.08602171e-10
5.90315091e-10
5.89548644e-10
6.09714332e-10
6.08577452e-10
5.90312913e-10
5.89609153e-10
6.09479912e-10
6.08550994e-10
5.90326113e-10
5.89717892e-10
6.09228714e-10
6.08607616e-10
5.90380385e-10
5.89910492e-10
6.09064598e-10
6.08736105e-10
5.90502778e-10
5.90213686e-10
6.08881314e-10
6.08834163e-10
5.90679176e-10
5.90662293e-10
6.08563115e-10
6.08672616e-10
5.91496125e-10
5.90592529e-10
5.8946494e-10
5.90116487e-10
6.09556616e-10
5.91204426e-10
5.89259846e-10
6.08720264e-10
6.09535012e-10
5.90088596e-10
5.90030378e-10
6.08899563e-10
6.09330923e-10
5.90230217e-10
5.90375553e-10
6.08808527e-10
6.08990226e-10
5.90210984e-10
5.90991281e-10
6.09145426e-10
5.92637224e-10
5.89326392e-10
6.08238125e-10
6.08780236e-10
5.90208982e-10
5.90181217e-10
6.08371853e-10
6.08301253e-10
5.9044642e-10
5.90544493e-10
6.0817523e-10
6.0819305e-10
5.91534249e-10
5.90598539e-10
5.89923168e-10
5.90148858e-10
6.08909162e-10
5.93185422e-10
5.89351161e-10
6.08544329e-10
6.08559525e-10
5.91901968e-10
5.89525944e-10
5.89491526e-10
6.09020361e-10
6.08338708e-10
5.90845143e-10
5.90300015e-10
6.09346675e-10
6.08237948e-10
5.9099158e-10
5.90744129e-10
6.0927922e-10
6.08339852e-10
5.95895383e-10
5.90164605e-10
5.9015021e-10
5.89356499e-10
5.89473952e-10
6.09669873e-10
6.08208401e-10
6.08569589e-10
5.91227394e-10
5.89098796e-10
5.89620052e-10
6.09560944e-10
6.08297583e-10
5.90296076e-10
5.90393759e-10
6.09302134e-10
5.91728809e-10
5.89332666e-10
6.09587167e-10
6.08681441e-10
5.90405548e-10
5.89736303e-10
6.09687923e-10
6.08495328e-10
5.90308463e-10
5.90059951e-10
6.09602913e-10
6.08169572e-10
5.89990149e-10
5.90869761e-10
6.09057793e-10
5.91402963e-10
5.89326447e-10
6.09085569e-10
6.0862674e-10
5.901325e-10
5.8973141e-10
6.09113323e-10
6.08477041e-10
5.89938161e-10
5.89966596e-10
6.08899128e-10
6.08384811e-10
5.90033926e-10
5.90295462e-10
6.08521029e-10
6.08599858e-10
5.90472563e-10
5.89425235e-10
5.89787715e-10
6.10345707e-10
6.08281871e-10
5.90251466e-10
5.89935403e-10
6.08609349e-10
6.08435735e-10
5.9009167e-10
5.9023345e-10
6.08422231e-10
6.08403151e-10
5.90179306e-10
5.90622408e-10
6.08055144e-10
6.08566997e-10
5.92197399e-10
5.89542428e-10
5.90718761e-10
6.08485422e-10
6.08279847e-10
5.90764341e-10
5.90223003e-10
5.89836001e-10
5.89948854e-10
6.08271313e-10
6.09046247e-10
5.90582058e-10
5.88663861e-10
5.89745453e-10
6.09017196e-10
6.08537535e-10
5.8971233e-10
5.89905913e-10
6.08509691e-10
6.08627741e-10
5.89907128e-10
5.90021516e-10
6.08077004e-10
6.09010418e-10
5.90730066e-10
5.88947115e-10
5.89461833e-10
6.08876586e-10
6.08617792e-10
5.89918617e-10
5.89835515e-10
6.08541355e-10
6.08667e-10
5.89895997e-10
5.90216845e-10
6.08540802e-10
6.08538746e-10
5.89663434e-10
5.90802582e-10
6.08936678e-10
5.91801284e-10
5.88790771e-10
6.08131236e-10
6.0910259e-10
5.89635281e-10
5.89649462e-10
6.08581989e-10
6.09109985e-10
5.89583115e-10
5.89784976e-10
6.08690653e-10
6.09146403e-10
5.89619981e-10
5.89771025e-10
6.08727469e-10
6.092231e-10
5.89632619e-10
5.8977102e-10
6.08753744e-10
6.09318726e-10
5.89647315e-10
5.89790374e-10
6.08775764e-10
6.09415903e-10
5.8968083e-10
5.89831751e-10
6.08793558e-10
6.09496494e-10
5.89734844e-10
5.89891704e-10
6.08802374e-10
6.09542869e-10
5.89812407e-10
5.89977502e-10
6.08797483e-10
6.09544549e-10
5.89932812e-10
5.90121068e-10
6.08788682e-10
6.09506072e-10
5.90105307e-10
5.90385041e-10
6.08797953e-10
6.09318423e-10
5.90190951e-10
5.91069794e-10
6.09400436e-10
5.93501876e-10
5.89245594e-10
6.08311271e-10
6.09391539e-10
5.90315067e-10
5.9059178e-10
6.08372427e-10
6.08809203e-10
5.92458714e-10
5.90694648e-10
5.89338314e-10
5.89878128e-10
6.09589309e-10
5.91705694e-10
5.88912731e-10
6.08745456e-10
6.09201401e-10
5.90190353e-10
5.89962376e-10
6.09001716e-10
6.08936818e-10
5.90342353e-10
5.90000714e-10
6.08658325e-10
6.09286958e-10
5.92283633e-10
5.88679663e-10
5.88759637e-10
6.09427717e-10
6.08982249e-10
5.9044839e-10
5.89547065e-10
6.09406264e-10
6.08717045e-10
5.90320191e-10
5.89586876e-10
6.0954598e-10
6.08672164e-10
5.90341938e-10
5.89588367e-10
6.09666823e-10
6.08676757e-10
5.9037522e-10
5.89587776e-10
6.09815539e-10
6.08685759e-10
5.9041384e-10
5.89578188e-10
6.09990561e-10
6.08695834e-10
5.90460006e-10
5.89562397e-10
6.10193095e-10
6.08706725e-10
5.90517795e-10
5.89545201e-10
6.10420205e-10
6.0871614e-10
5.9058934e-10
5.89533879e-10
6.10665967e-10
6.08720347e-10
5.90674133e-10
5.89534465e-10
6.10920591e-10
6.08714491e-10
5.90784062e-10
5.89566755e-10
6.11173035e-10
6.08695706e-10
5.90905933e-10
5.89632171e-10
6.11408954e-10
6.08663112e-10
5.9106656e-10
5.89762528e-10
6.11590676e-10
6.08605291e-10
5.91301334e-10
5.90010225e-10
6.11664325e-10
6.08511687e-10
5.91628497e-10
5.90392892e-10
6.11588757e-10
6.08461996e-10
5.92583604e-10
5.90601843e-10
5.89990333e-10
5.90075929e-10
6.10933269e-10
5.92675698e-10
5.89806846e-10
6.11961155e-10
6.0871622e-10
5.91542599e-10
5.90065947e-10
6.1200305e-10
6.08680464e-10
5.91310902e-10
5.90014413e-10
6.11953506e-10
6.08938794e-10
5.91269548e-10
5.89253598e-10
5.89008651e-10
6.10863773e-10
6.08678277e-10
5.90963754e-10
5.89557962e-10
6.1191838e-10
6.0865879e-10
5.90973839e-10
5.89702679e-10
6.11633147e-10
6.08603976e-10
5.90923801e-10
5.89830078e-10
6.11316874e-10
6.0850179e-10
5.90880726e-10
5.90044436e-10
6.10981142e-10
6.08332231e-10
5.9059788e-10
5.90604961e-10
6.10173722e-10
5.91781246e-10
5.89629588e-10
6.10528132e-10
6.08553163e-10
5.90878859e-10
5.89882766e-10
6.10492605e-10
6.08485106e-10
5.90828642e-10
5.90174579e-10
6.10195641e-10
6.08747574e-10
5.91035748e-10
5.89361605e-10
5.89492493e-10
6.09652636e-10
6.08421288e-10
5.91022372e-10
5.90159123e-10
6.09974683e-10
6.08558801e-10
5.9209495e-10
5.89884993e-10
5.90091776e-10
6.09289822e-10
6.08204196e-10
5.92039515e-10
5.90559782e-10
5.90005093e-10
5.9052811e-10
6.09336623e-10
5.92878961e-10
5.90034412e-10
6.09778259e-10
6.08295404e-10
5.91385492e-10
5.90621155e-10
6.09630912e-10
6.08225877e-10
5.91982774e-10
5.90736755e-10
5.89927893e-10
5.90351566e-10
6.09301201e-10
5.92081564e-10
5.89529701e-10
6.09671193e-10
6.08534397e-10
5.90810798e-10
5.89797674e-10
6.09611617e-10
6.08469395e-10
5.90510726e-10
5.89828117e-10
6.0935354e-10
6.08595368e-10
5.90271986e-10
5.8982002e-10
6.09128405e-10
6.08948662e-10
5.90083296e-10
5.89866359e-10
6.08964036e-10
6.09440559e-10
5.89941059e-10
5.90004002e-10
6.08844018e-10
6.09978209e-10
5.89860427e-10
5.90232172e-10
6.08749573e-10
6.10476277e-10
5.89822272e-10
5.90549371e-10
6.08690521e-10
6.10884672e-10
5.89809514e-10
5.90941959e-10
6.0870381e-10
6.1108536e-10
5.89700477e-10
5.91693557e-10
6.10733684e-10
5.90295453e-10
5.90361177e-10
6.0862121e-10
6.11692099e-10
5.89701937e-10
5.90877823e-10
6.08757813e-10
6.11562628e-10
5.89617595e-10
5.9098595e-10
6.08786974e-10
6.11258019e-10
5.89664041e-10
5.91000854e-10
6.08774964e-10
6.10848181e-10
5.89732784e-10
5.91030951e-10
6.0889089e-10
6.10190909e-10
5.89439364e-10
5.92121089e-10
6.09928966e-10
5.90193167e-10
5.89956189e-10
6.08809153e-10
6.10113885e-10
5.89575565e-10
5.90294286e-10
6.08942186e-10
6.09709494e-10
5.89587827e-10
5.90256015e-10
6.08875429e-10
6.09359304e-10
5.89676196e-10
5.90189548e-10
6.08876391e-10
6.09148629e-10
5.89799991e-10
5.9016716e-10
6.08904772e-10
6.08911383e-10
5.89915223e-10
5.90185332e-10
6.08914156e-10
6.08680283e-10
5.90061323e-10
5.90257014e-10
6.09026357e-10
6.08770934e-10
5.90376465e-10
5.89136433e-10
5.89689365e-10
6.09145908e-10
6.08930996e-10
5.90572399e-10
5.88987479e-10
5.89114162e-10
6.09557143e-10
6.08748134e-10
5.90521818e-10
5.89751029e-10
6.10143466e-10
6.08623454e-10
5.90623866e-10
5.89992864e-10
6.10367228e-10
6.08563457e-10
5.90638808e-10
5.90546652e-10
6.10522059e-10
5.92031518e-10
5.89241301e-10
6.10756387e-10
6.08995914e-10
5.91001021e-10
5.89679365e-10
6.1124135e-10
6.08851917e-10
5.9108092e-10
5.89662118e-10
6.11611782e-10
6.08890902e-10
5.9136359e-10
5.896731e-10
6.11354094e-10
6.08991375e-10
5.91661022e-10
5.89715523e-10
6.08422299e-10
6.09098005e-10
5.9231877e-10
5.89734286e-10
6.06400142e-10
6.09198093e-10
5.92918217e-10
5.89753123e-10
6.05060236e-10
6.09285325e-10
5.93375389e-10
5.89762016e-10
6.04221514e-10
6.09349069e-10
5.93664011e-10
5.89779332e-10
6.03910632e-10
6.09372179e-10
5.93805318e-10
5.89798135e-10
6.03910379e-10
6.0935733e-10
5.93874909e-10
5.89835732e-10
6.04135202e-10
6.09307681e-10
5.93871424e-10
5.89890152e-10
6.04561106e-10
6.09225377e-10
5.93769126e-10
5.89970115e-10
6.05449488e-10
6.09089447e-10
5.93442555e-10
5.90151975e-10
6.07392771e-10
6.0881583e-10
5.92860106e-10
5.90953069e-10
6.10477259e-10
5.96235875e-10
5.89519045e-10
6.0991558e-10
6.09081494e-10
5.92366041e-10
5.90476566e-10
6.1197324e-10
6.08594782e-10
5.94693628e-10
5.90962022e-10
5.89615885e-10
5.89540257e-10
6.11326777e-10
5.93968533e-10
5.89240959e-10
6.11351976e-10
6.0895227e-10
5.9124916e-10
5.89944017e-10
6.10818014e-10
6.08600292e-10
5.91128417e-10
5.90045595e-10
6.10181034e-10
6.08492302e-10
5.9095433e-10
5.90136097e-10
6.09497276e-10
6.08445676e-10
5.90824894e-10
5.90272235e-10
6.08673051e-10
6.08530022e-10
5.91783759e-10
5.90198055e-10
5.89024869e-10
5.89099279e-10
6.09206389e-10
6.09402487e-10
5.89697004e-10
5.89704046e-10
6.08971245e-10
6.0963432e-10
5.8972054e-10
5.89939152e-10
6.08897367e-10
6.09880052e-10
5.89688142e-10
5.90070863e-10
6.08831501e-10
6.10077191e-10
5.89647598e-10
5.90165866e-10
6.08761328e-10
6.10143377e-10
5.896262e-10
5.90282214e-10
6.08766574e-10
6.09875035e-10
5.89901142e-10
5.89878551e-10
6.10184738e-10
6.092882e-10
5.91435234e-10
5.89790179e-10
6.00876603e-10
6.09046262e-10
5.97910914e-10
5.89656398e-10
5.94174771e-10
6.08905737e-10
6.07273701e-10
5.89557779e-10
5.91313016e-10
6.08836924e-10
6.10864189e-10
5.89472173e-10
5.90829391e-10
6.08802904e-10
6.10582677e-10
5.89441262e-10
5.91045966e-10
6.08808135e-10
6.1135434e-10
5.89379174e-10
5.92495102e-10
6.088061e-10
6.01022797e-10
5.89349857e-10
5.98057044e-10
6.08817724e-10
5.9347504e-10
5.89392014e-10
6.09505997e-10
6.08721696e-10
5.90772168e-10
5.89498912e-10
6.09342681e-10
6.08734833e-10
5.90045581e-10
5.89531915e-10
6.08979884e-10
6.0871302e-10
5.8985653e-10
5.89647463e-10
6.08797166e-10
6.08624485e-10
5.89835256e-10
5.89825961e-10
6.08676994e-10
6.08290253e-10
5.89799711e-10
5.90506849e-10
6.09093753e-10
5.93372123e-10
5.8873346e-10
6.08129091e-10
6.09200036e-10
5.9144398e-10
5.88393196e-10
5.88876251e-10
6.09265538e-10
6.08340394e-10
5.89715431e-10
5.89945721e-10
6.09075212e-10
5.92781769e-10
5.88463925e-10
6.08898666e-10
6.0869907e-10
5.89630648e-10
5.89326144e-10
6.09195319e-10
6.08387403e-10
5.8962145e-10
5.89434817e-10
6.09162067e-10
6.08321317e-10
5.89757547e-10
5.89195819e-10
6.08874686e-10
6.08617733e-10
5.91324761e-10
5.879644e-10
5.87834808e-10
6.0921182e-10
6.0843115e-10
5.89392809e-10
5.88655416e-10
6.09254085e-10
6.08195812e-10
5.89067183e-10
5.8829763e-10
6.08793476e-10
6.08651594e-10
5.89667452e-10
5.86444513e-10
5.86362546e-10
6.09445767e-10
6.08396193e-10
5.87686209e-10
5.86923126e-10
6.10286203e-10
6.0798788e-10
6.09957716e-10
6.07730453e-10
6.08932657e-10
6.07282959e-10
6.07954237e-10
5.91791723e-10
5.87442668e-10
6.07678598e-10
6.07020592e-10
5.87400988e-10
5.87023147e-10
6.08258866e-10
6.06674002e-10
6.08291305e-10
6.06423826e-10
6.07499571e-10
6.06004787e-10
6.06567936e-10
6.05495184e-10
6.05785791e-10
6.04928964e-10
6.05086162e-10
6.04332356e-10
6.04520658e-10
6.03726463e-10
6.04139433e-10
6.03130103e-10
6.04134382e-10
6.02480336e-10
6.04763196e-10
6.043388e-10
5.99940869e-10
5.810455e-10
6.08110235e-10
6.07937121e-10
5.88036839e-10
5.64131983e-10
5.97602343e-10
6.01983045e-10
5.90429012e-10
5.93353386e-10
5.77858439e-10
5.707131e-10
5.72047596e-10
5.9708792e-10
6.01241726e-10
5.71392924e-10
5.75478906e-10
5.93199916e-10
5.81485794e-10
5.7555367e-10
5.85791783e-10
5.9011322e-10
5.74510574e-10
5.71670401e-10
5.78682742e-10
5.94582007e-10
5.83012796e-10
5.83077994e-10
5.9701816e-10
5.93560369e-10
5.83432718e-10
5.77222504e-10
5.95826595e-10
5.99964241e-10
5.80115615e-10
5.73927096e-10
5.9528244e-10
5.88512298e-10
5.80568843e-10
5.75093686e-10
5.87926675e-10
5.79104184e-10
5.817295e-10
5.75479007e-10
5.8125304e-10
5.7437046e-10
5.82913738e-10
5.76946272e-10
5.81134618e-10
5.82034274e-10
5.82216149e-10
5.80782934e-10
5.97945375e-10
5.74770917e-10
5.79583106e-10
5.93300365e-10
5.88136131e-10
5.71871871e-10
5.71486899e-10
5.7918351e-10
5.74232222e-10
5.59818412e-10
5.65674636e-10
5.62348381e-10
5.64437149e-10
5.60158484e-10
5.62940912e-10
5.57919765e-10
5.6634271e-10
5.61439494e-10
5.64698169e-10
5.55892728e-10
5.64050403e-10
5.53739845e-10
5.53927701e-10
5.42181346e-10
5.77058474e-10
5.77316783e-10
5.71223416e-10
5.71578947e-10
5.78018734e-10
5.56092755e-10
5.24416049e-10
5.34509384e-10
5.59306908e-10
5.41005112e-10
5.36054385e-10
5.23663156e-10
5.50749876e-10
5.29768128e-10
5.38176753e-10
5.18728381e-10
5.31476362e-10
5.13662456e-10
5.18416411e-10
5.02144951e-10
5.05874573e-10
4.92233598e-10
4.93416298e-10
4.84990569e-10
4.85605434e-10
4.7409691e-10
4.73979982e-10
4.63896664e-10
4.63279909e-10
4.53641294e-10
4.51894571e-10
4.53839834e-10
4.52420091e-10
4.45773425e-10
4.4421891e-10
4.37070352e-10
4.33492759e-10
4.27196887e-10
4.25486515e-10
4.22201181e-10
4.20399373e-10
4.16918134e-10
4.14207436e-10
4.09854531e-10
4.06897955e-10
4.03096044e-10
4.00267522e-10
3.96773931e-10
3.93984792e-10
3.90670064e-10
3.87865823e-10
3.84712191e-10
3.82059519e-10
3.79086479e-10
3.76312909e-10
3.73294149e-10
3.70362609e-10
3.67290195e-10
3.63877667e-10
3.59744939e-10
3.55602958e-10
3.51615902e-10
3.48036226e-10
3.44472024e-10
3.41245612e-10
3.37991894e-10
3.34977146e-10
3.32222959e-10
3.29451192e-10
3.26717518e-10
3.23758926e-10
3.20927084e-10
3.17776164e-10
3.14853438e-10
3.11457707e-10
3.08394451e-10
3.04790483e-10
3.01650602e-10
2.98024603e-10
2.94866424e-10
2.91277747e-10
2.88235548e-10
2.84767212e-10
2.81836119e-10
2.78451498e-10
2.75636722e-10
2.72331774e-10
2.69668154e-10
2.66576974e-10
2.63973103e-10
2.60953533e-10
2.58262722e-10
2.55190175e-10
2.52491506e-10
2.49416336e-10
2.46766127e-10
2.43659417e-10
2.4100243e-10
2.37927902e-10
2.35295169e-10
2.32257592e-10
2.29651641e-10
2.26648496e-10
2.24070414e-10
2.21101662e-10
2.18552497e-10
2.15616318e-10
2.13095375e-10
2.10190691e-10
2.07698461e-10
2.04827072e-10
2.02361951e-10
1.99519539e-10
1.97080707e-10
1.94271408e-10
1.91866831e-10
1.89091813e-10
1.86722575e-10
1.83982159e-10
1.81649264e-10
1.78945136e-10
1.76648953e-10
1.73979655e-10
1.71721449e-10
1.6908997e-10
1.6687275e-10
1.64280517e-10
1.62103296e-10
1.59547473e-10
1.57407467e-10
1.54884918e-10
1.52780569e-10
1.50285781e-10
1.48209331e-10
1.45741314e-10
1.43697966e-10
1.41260039e-10
1.39249247e-10
1.36841418e-10
1.34862519e-10
1.32483741e-10
1.30536606e-10
1.28187194e-10
1.26271983e-10
1.23952827e-10
1.2206965e-10
1.19781416e-10
1.17930118e-10
1.15673623e-10
1.13854192e-10
1.1163101e-10
1.0984307e-10
1.07654164e-10
1.05897713e-10
1.0374429e-10
1.02019018e-10
9.99026677e-11
9.82081435e-11
9.61306181e-11
9.44663022e-11
9.24295885e-11
9.07947814e-11
8.88008484e-11
8.71946679e-11
8.52460068e-11
8.3668097e-11
8.17679452e-11
8.02172655e-11
7.83679147e-11
7.68431319e-11
7.50439165e-11
7.35422783e-11
7.18013163e-11
7.03230328e-11
6.86393822e-11
6.71795145e-11
6.55509018e-11
6.41049524e-11
6.25346676e-11
6.11050046e-11
5.9598248e-11
5.81833246e-11
5.67403121e-11
5.53367432e-11
5.39571255e-11
5.2561701e-11
5.12451371e-11
4.98538719e-11
4.85985166e-11
4.72081587e-11
4.601468e-11
4.46218435e-11
4.34886946e-11
4.20916403e-11
4.10238214e-11
3.9638029e-11
3.85856921e-11
3.71973054e-11
3.62402206e-11
3.48824963e-11
3.40073458e-11
3.26297927e-11
3.18817366e-11
3.05764883e-11
2.98675766e-11
2.81790495e-11
2.79136611e-11
2.71481399e-11
2.60621629e-11
2.33721016e-11
2.42204618e-11
2.4225076e-11
2.25491739e-11
1.88877269e-11
2.0857066e-11
2.12918502e-11
1.93873811e-11
1.49959687e-11
1.78222231e-11
1.82059437e-11
1.65343662e-11
1.16192878e-11
1.51259068e-11
1.57262097e-11
1.39710047e-11
6.99426027e-12
1.28154445e-11
1.77923452e-11
1.14244865e-11
-2.78417779e-12
1.1493016e-11
2.10986855e-11
7.36091643e-12
-1.18368555e-11
1.16027277e-11
2.12496305e-11
1.93885077e-12
-2.12734206e-11
1.63867897e-11
2.03124324e-11
-1.12553462e-11
-2.8190919e-11
1.8090178e-11
1.84883902e-11
-2.41263433e-11
-3.07224452e-11
1.68204859e-11
1.61819349e-11
-3.0092372e-11
-3.26650071e-11
1.25511172e-11
1.39200041e-11
-3.25261127e-11
-3.48245182e-11
4.96748568e-12
1.12665591e-11
-3.49884597e-11
-3.61084298e-11
-1.1750452e-11
9.2151847e-12
-3.11837886e-11
-3.68926586e-11
-2.3767423e-11
6.61339867e-12
-3.10046729e-11
-3.81583427e-11
-3.18797278e-11
3.98556595e-12
-3.31204023e-11
-3.90479018e-11
-3.59049673e-11
1.4867256e-12
-3.54401048e-11
-3.93716249e-11
-3.77962645e-11
-8.93138726e-13
-3.67001987e-11
-3.95890598e-11
-3.83258251e-11
-3.49449212e-12
-3.68722755e-11
-3.98135109e-11
-3.81099849e-11
-6.29099713e-12
-3.63290673e-11
-4.00637804e-11
-3.71376692e-11
-9.7285385e-12
-3.59136571e-11
-4.01882354e-11
-3.6236941e-11
-1.41102835e-11
-3.53325436e-11
-3.8569004e-11
-3.56901846e-11
-2.34888259e-11
-3.51937798e-11
-3.48066295e-11
-3.55673743e-11
-2.85923913e-11
-3.51767994e-11
-3.36973877e-11
-3.5564799e-11
-3.14199211e-11
-3.5433368e-11
-3.47671579e-11
-3.58317367e-11
-3.30803342e-11
-3.58641761e-11
-3.55574876e-11
-3.62169664e-11
-3.4674767e-11
-3.63410915e-11
-3.59835149e-11
-3.66288941e-11
-3.58438786e-11
-3.6799684e-11
-3.6488037e-11
-3.70314988e-11
-3.66279484e-11
-3.72085054e-11
-3.69793782e-11
-3.73974851e-11
-3.71723142e-11
-3.75576364e-11
-3.74015491e-11
-3.77112108e-11
-3.75739533e-11
-3.78465045e-11
-3.77393157e-11
-3.79705292e-11
-3.78778497e-11
-3.80806931e-11
-3.8002555e-11
-3.81798815e-11
-3.81105409e-11
-3.82679061e-11
-3.82060757e-11
-3.83462666e-11
-3.82895736e-11
-3.84158097e-11
-3.83631188e-11
-3.84776771e-11
-3.84279014e-11
-3.85327874e-11
-3.84852892e-11
-3.85820725e-11
-3.85363537e-11
-3.86263512e-11
-3.85821058e-11
-3.8666386e-11
-3.86234039e-11
-3.87028534e-11
-3.8661012e-11
-3.8736361e-11
-3.86955879e-11
-3.87674428e-11
-3.87277025e-11
-3.87965675e-11
-3.87578435e-11
-3.88242487e-11
-3.87864257e-11
-3.88508653e-11
-3.88139707e-11
-3.88765472e-11
-3.88407042e-11
-3.89015512e-11
-3.88667425e-11
-3.89260795e-11
-3.88956423e-11
-3.89550262e-11
-3.89341085e-11
-3.899194e-11
-3.89719955e-11
-3.90284198e-11
-3.90093951e-11
-3.90645272e-11
-3.90463611e-11
-3.91002924e-11
-3.90829143e-11
-3.91357186e-11
-3.91190465e-11
-3.91707843e-11
-3.91547241e-11
-3.92054469e-11
-3.91898902e-11
-3.92396442e-11
-3.92244656e-11
-3.92732958e-11
-3.92583486e-11
-3.93063035e-11
-3.9291413e-11
-3.9338551e-11
-3.93235049e-11
-3.93699022e-11
-3.93544341e-11
-3.94001981e-11
-3.93839704e-11
-3.94292545e-11
-3.94118154e-11
-3.94568512e-11
-3.94376228e-11
-3.94827911e-11
-3.9460868e-11
-3.95067119e-11
-3.94811455e-11
-3.95282589e-11
-3.94970915e-11
-3.95468485e-11
-3.95089181e-11
-3.95623516e-11
-3.95115336e-11
-3.95731106e-11
-3.95133347e-11
-3.95812706e-11
-3.94721287e-11
-3.95719193e-11
-3.94640777e-11
-3.95593166e-11
-3.93046847e-11
-3.95088912e-11
-3.93922248e-11
-3.95107622e-11
-3.89166861e-11
-3.93906974e-11
-3.93893036e-11
-3.94762515e-11
-3.80055823e-11
-3.91588424e-11
-3.96909574e-11
-3.94902158e-11
-3.61755326e-11
-3.87046538e-11
-4.08980382e-11
-3.95995208e-11
-3.41749953e-11
-3.79358059e-11
-4.20015351e-11
-3.99901781e-11
-3.21815184e-11
-3.68547344e-11
-4.24462509e-11
-4.07042558e-11
-3.14407028e-11
-3.56122474e-11
-4.25580236e-11
-4.16109358e-11
-3.08600606e-11
-3.46713097e-11
-4.26171051e-11
-4.2113946e-11
-3.05555656e-11
-3.38456791e-11
-4.26900421e-11
-4.23522529e-11
-3.03936903e-11
-3.33675204e-11
-4.27335054e-11
-4.25174378e-11
-3.04065284e-11
-3.30457645e-11
-4.27392831e-11
-4.26260036e-11
-3.05403754e-11
-3.27201535e-11
-4.27374682e-11
-4.26930933e-11
-3.07179808e-11
-3.24885456e-11
-4.27273703e-11
-4.27537181e-11
-3.09193612e-11
-3.23465103e-11
-4.27305135e-11
-4.28097406e-11
-3.11104783e-11
-3.22916044e-11
-4.27385899e-11
-4.28431896e-11
-3.12746313e-11
-3.24191009e-11
-4.27295928e-11
-4.28501908e-11
-3.14251861e-11
-3.25410737e-11
-4.27708812e-11
-4.28495363e-11
-3.16089011e-11
-3.26591687e-11
-4.27953048e-11
-4.28541918e-11
-3.18218711e-11
-3.27879956e-11
-4.28193535e-11
-4.28723031e-11
-3.20351539e-11
-3.29387942e-11
-4.28459818e-11
-4.28886781e-11
-3.22138319e-11
-3.31383578e-11
-4.28569135e-11
-4.29028584e-11
-3.23486169e-11
-3.34031988e-11
-4.28511814e-11
-4.29197342e-11
-3.24054357e-11
-3.37268773e-11
-4.28214962e-11
-4.29239698e-11
-3.25454066e-11
-3.39966008e-11
-4.27585292e-11
-4.29234332e-11
-3.28789443e-11
-3.42052133e-11
-4.1518948e-11
-4.28258484e-11
-3.40627884e-11
-3.43737807e-11
-3.72354235e-11
-4.16474872e-11
-3.82504409e-11
-3.54823048e-11
-3.26879266e-11
-3.79528379e-11
-4.19149293e-11
-3.92239445e-11
-3.17117263e-11
-3.43140097e-11
-4.30365874e-11
-4.22079571e-11
-3.19060816e-11
-3.35671997e-11
-4.3092756e-11
-4.29974259e-11
-3.21742375e-11
-3.36131594e-11
-4.3076176e-11
-4.30754188e-11
-3.2381191e-11
-3.36776755e-11
-4.30908798e-11
-4.3102071e-11
-3.25731898e-11
-3.37601715e-11
-4.31113313e-11
-4.31231441e-11
-3.2738051e-11
-3.38386661e-11
-4.31353911e-11
-4.31455402e-11
-3.28811142e-11
-3.39125738e-11
-4.31591164e-11
-4.31701507e-11
-3.30093463e-11
-3.39817197e-11
-4.31829589e-11
-4.31950755e-11
-3.31251678e-11
-3.40449804e-11
-4.32073082e-11
-4.32192688e-11
-3.32302366e-11
-3.41050804e-11
-4.32329157e-11
-4.32450254e-11
-3.33257295e-11
-3.41623514e-11
-4.32597575e-11
-4.32723375e-11
-3.34119322e-11
-3.42117858e-11
-4.32873153e-11
-4.33027411e-11
-3.34887116e-11
-3.42522854e-11
-4.33142677e-11
-4.33337156e-11
-3.35541757e-11
-3.42904977e-11
-4.3340075e-11
-4.33610665e-11
-3.36107224e-11
-3.43403703e-11
-4.33646063e-11
-4.33896265e-11
-3.36361354e-11
-3.44190504e-11
-4.33721831e-11
-4.34131612e-11
-3.36647923e-11
-3.44685417e-11
-4.33974134e-11
-4.34382123e-11
-3.36880517e-11
-3.45041442e-11
-4.34249921e-11
-4.34628111e-11
-3.37211458e-11
-3.45300572e-11
-4.34477613e-11
-4.3486875e-11
-3.37635962e-11
-3.45423274e-11
-4.34729935e-11
-4.35124869e-11
-3.38021441e-11
-3.45515997e-11
-4.34965189e-11
-4.3533717e-11
-3.38449546e-11
-3.45399088e-11
-4.35403379e-11
-4.35563843e-11
-3.38641603e-11
-3.45658272e-11
-4.35640215e-11
-4.35750657e-11
-3.38816072e-11
-3.45918055e-11
-4.35862312e-11
-4.3593478e-11
-3.38973453e-11
-3.46171313e-11
-4.36070874e-11
-4.36112676e-11
-3.39116262e-11
-3.46408761e-11
-4.36269814e-11
-4.36278583e-11
-3.39242975e-11
-3.46635115e-11
-4.36460455e-11
-4.36432517e-11
-3.39353133e-11
-3.46851091e-11
-4.36639109e-11
-4.36574826e-11
-3.3944538e-11
-3.47057318e-11
-4.36805204e-11
-4.36706103e-11
-3.39521027e-11
-3.47254672e-11
-4.36958556e-11
-4.36826897e-11
-3.39580979e-11
-3.47444085e-11
-4.37099069e-11
-4.36937754e-11
-3.39626575e-11
-3.47626306e-11
-4.3722672e-11
-4.37039316e-11
-3.39659798e-11
-3.47801566e-11
-4.37341487e-11
-4.37132431e-11
-3.39683058e-11
-3.47969305e-11
-4.37443171e-11
-4.37217965e-11
-3.39698895e-11
-3.4812814e-11
-4.37531249e-11
-4.3729751e-11
-3.39710014e-11
-3.482773e-11
-4.37605028e-11
-4.37371577e-11
-3.39718681e-11
-3.48416594e-11
-4.37664395e-11
-4.37438854e-11
-3.39726506e-11
-3.48546258e-11
-4.37709986e-11
-4.37498171e-11
-3.39734923e-11
-3.48667891e-11
-4.37742555e-11
-4.37549452e-11
-3.39744553e-11
-3.48782691e-11
-4.37762474e-11
-4.37592589e-11
-3.39755185e-11
-3.48890908e-11
-4.37770054e-11
-4.37627556e-11
-3.39765653e-11
-3.48992726e-11
-4.37766387e-11
-4.3765462e-11
-3.39773532e-11
-3.49090474e-11
-4.37753627e-11
-4.37674099e-11
-3.39774717e-11
-3.49190372e-11
-4.37734385e-11
-4.37685632e-11
-3.39763794e-11
-3.49302232e-11
-4.37710986e-11
-4.3768802e-11
-3.39735951e-11
-3.49436639e-11
-4.37684799e-11
-4.3767999e-11
-3.39689575e-11
-3.49600066e-11
-4.37655817e-11
-4.37661513e-11
-3.39628456e-11
-3.4979e-11
-4.37622464e-11
-4.37634811e-11
-3.39562187e-11
-3.49992824e-11
-4.37581256e-11
-4.37603603e-11
-3.39502767e-11
-3.5018735e-11
-4.37529104e-11
-4.37571283e-11
-3.39459889e-11
-3.50355151e-11
-4.3746565e-11
-4.37539362e-11
-3.39434691e-11
-3.50492728e-11
-4.37393742e-11
-4.37506216e-11
-3.39416225e-11
-3.50616657e-11
-4.3731818e-11
-4.37466649e-11
-3.39384031e-11
-3.50757331e-11
-4.37244643e-11
-4.37414654e-11
-3.39318035e-11
-3.50944709e-11
-4.37177913e-11
-4.37349147e-11
-3.39211597e-11
-3.51189632e-11
-4.37116498e-11
-4.37276605e-11
-3.39080907e-11
-3.51463665e-11
-4.3705039e-11
-4.37203877e-11
-3.3896543e-11
-3.51710726e-11
-4.36973372e-11
-4.37129556e-11
-3.389007e-11
-3.51923755e-11
-4.36884842e-11
-4.37057715e-11
-3.38874818e-11
-3.5214032e-11
-4.36783429e-11
-4.3698698e-11
-3.38854409e-11
-3.52372208e-11
-4.36675681e-11
-4.369148e-11
-3.38821504e-11
-3.52604929e-11
-4.36569247e-11
-4.36840197e-11
-3.38758602e-11
-3.5284362e-11
-4.36472914e-11
-4.3675712e-11
-3.38630212e-11
-3.53141354e-11
-4.36400827e-11
-4.36657188e-11
-3.38388706e-11
-3.53581753e-11
-4.36363212e-11
-4.36542538e-11
-3.38011036e-11
-3.54188394e-11
-4.36348817e-11
-4.36420925e-11
-3.3756057e-11
-3.54847639e-11
-4.36332578e-11
-4.36302198e-11
-3.37173739e-11
-3.55399922e-11
-4.36284691e-11
-4.36198443e-11
-3.36952622e-11
-3.55759866e-11
-4.36189293e-11
-4.36115889e-11
-3.36916181e-11
-3.55945532e-11
-4.36049943e-11
-4.36051652e-11
-3.37018668e-11
-3.560287e-11
-4.35884483e-11
-4.35999342e-11
-3.37195793e-11
-3.56078132e-11
-4.35710395e-11
-4.35958923e-11
-3.37398658e-11
-3.56098992e-11
-4.35537569e-11