/*--------------------------------*- C++ -*----------------------------------*\
| =========                 |                                                 |
| \\      /  F ield         | OpenFOAM: The Open Source CFD Toolbox           |
|  \\    /   O peration     | Version:  2306                                  |
|   \\  /    A nd           | Website:  www.openfoam.com                      |
|    \\/     M anipulation  |                                                 |
\*---------------------------------------------------------------------------*/
FoamFile
{
    version     2.0;
    format      ascii;
    arch        "LSB;label=32;scalar=64";
    class       volScalarField;
    location    "6e-05";
    object      prefDZ_H2;
}
// * * * * * * * * * * * * * * * * * * * * * * * * * * * * * * * * * * * * * //

dimensions      [1 -1 -1 0 0 0 0];

internalField   nonuniform List<scalar> 
3801
(
6.19223406e-05
6.36214419e-05
6.35189048e-05
6.23084582e-05
6.18645223e-05
6.19266621e-05
6.12611921e-05
6.12851182e-05
6.3515498e-05
6.3566618e-05
6.20897475e-05
6.16796324e-05
6.34780062e-05
6.35831045e-05
6.21414449e-05
6.17124507e-05
6.34160149e-05
6.35817978e-05
6.22635807e-05
6.17357619e-05
6.33003134e-05
6.35787372e-05
6.24065364e-05
6.17446797e-05
6.31205054e-05
6.35767213e-05
6.23994173e-05
6.17433499e-05
6.2997112e-05
6.35758298e-05
6.23695913e-05
6.17498733e-05
6.29361001e-05
6.35756091e-05
6.23581859e-05
6.17737495e-05
6.29195427e-05
6.35750852e-05
6.23599116e-05
6.18209931e-05
6.29367324e-05
6.35730474e-05
6.23712234e-05
6.18898191e-05
6.29761527e-05
6.35689979e-05
6.23977275e-05
6.19464909e-05
6.32041636e-05
6.35711787e-05
6.23637489e-05
6.20157262e-05
6.15353407e-05
6.15449051e-05
6.28241008e-05
6.35447842e-05
6.23695351e-05
6.18091167e-05
6.29842575e-05
6.35562727e-05
6.23914948e-05
6.18552506e-05
6.30661086e-05
6.355627e-05
6.24134833e-05
6.20480079e-05
6.3127121e-05
6.23171444e-05
6.1378135e-05
6.30512354e-05
6.35215112e-05
6.24177647e-05
6.16655304e-05
6.31003484e-05
6.3560711e-05
6.23620901e-05
6.16535069e-05
6.31632549e-05
6.35647049e-05
6.22753133e-05
6.16414424e-05
6.32297132e-05
6.35659959e-05
6.22045782e-05
6.16364573e-05
6.32849821e-05
6.35675946e-05
6.21472097e-05
6.16373569e-05
6.33114464e-05
6.35691396e-05
6.20960676e-05
6.16461429e-05
6.3337896e-05
6.35701764e-05
6.20427444e-05
6.16673258e-05
6.33740594e-05
6.3569336e-05
6.19888442e-05
6.1707409e-05
6.34179283e-05
6.35650415e-05
6.19325841e-05
6.17702804e-05
6.34663829e-05
6.35591068e-05
6.18310617e-05
6.18795443e-05
6.35373181e-05
6.21603504e-05
6.14960226e-05
6.35024251e-05
6.35772169e-05
6.18427979e-05
6.16629374e-05
6.35396236e-05
6.35692917e-05
6.17457075e-05
6.17369333e-05
6.35690505e-05
6.35697619e-05
6.17453458e-05
6.17902998e-05
6.35918269e-05
6.35611923e-05
6.1777017e-05
6.17689276e-05
6.36045589e-05
6.35525332e-05
6.1827675e-05
6.14987539e-05
6.17870548e-05
6.35563953e-05
6.36061867e-05
6.18616823e-05
6.18682619e-05
6.35921646e-05
6.35802577e-05
6.19724644e-05
6.20415466e-05
6.36037463e-05
6.35583992e-05
6.19855603e-05
6.20012338e-05
6.17939256e-05
6.21646535e-05
6.36261714e-05
6.20447644e-05
6.17428531e-05
6.35686146e-05
6.35991739e-05
6.179913e-05
6.17677409e-05
6.35863639e-05
6.35881531e-05
6.17163555e-05
6.17155519e-05
6.35897489e-05
6.35878689e-05
6.16676657e-05
6.16750321e-05
6.35852959e-05
6.3588816e-05
6.16546482e-05
6.16558785e-05
6.35792701e-05
6.3589108e-05
6.16637233e-05
6.1654735e-05
6.35739143e-05
6.35898991e-05
6.1684834e-05
6.16658718e-05
6.35700493e-05
6.35918665e-05
6.17161139e-05
6.16895448e-05
6.35679645e-05
6.35948076e-05
6.1763742e-05
6.17349435e-05
6.35681803e-05
6.35967522e-05
6.18349688e-05
6.18127715e-05
6.35717961e-05
6.35948006e-05
6.1939949e-05
6.19291556e-05
6.35784854e-05
6.35859865e-05
6.20984612e-05
6.20343868e-05
6.35842766e-05
6.35667587e-05
6.22903175e-05
6.17923724e-05
6.19663961e-05
6.16105033e-05
6.16516797e-05
6.35332714e-05
6.36199448e-05
6.1924135e-05
6.17563093e-05
6.351641e-05
6.36081631e-05
6.19895741e-05
6.18485237e-05
6.35209922e-05
6.35998595e-05
6.20688265e-05
6.19298041e-05
6.3522831e-05
6.35923447e-05
6.21825853e-05
6.19708419e-05
6.35268551e-05
6.35806542e-05
6.23078727e-05
6.19103077e-05
6.17357461e-05
6.17366589e-05
6.35106625e-05
6.35720451e-05
6.19951623e-05
6.17141233e-05
6.35152024e-05
6.35604687e-05
6.20909428e-05
6.16447909e-05
6.35380773e-05
6.35369707e-05
6.2265876e-05
6.13561707e-05
6.13819527e-05
6.34710808e-05
6.35975979e-05
6.19888965e-05
6.16099444e-05
6.34872961e-05
6.35960972e-05
6.19066378e-05
6.16429985e-05
6.3495563e-05
6.35947628e-05
6.18914689e-05
6.1652282e-05
6.35079985e-05
6.35947476e-05
6.18823754e-05
6.16597406e-05
6.35232589e-05
6.35960925e-05
6.18771325e-05
6.16737982e-05
6.35412756e-05
6.35978521e-05
6.18773336e-05
6.17008014e-05
6.35627357e-05
6.35986098e-05
6.18869984e-05
6.1749312e-05
6.35839415e-05
6.35897169e-05
6.1919725e-05
6.18354114e-05
6.35945247e-05
6.35718177e-05
6.19865464e-05
6.19614961e-05
6.36074879e-05
6.35502737e-05
6.20920341e-05
6.21355625e-05
6.36382602e-05
6.35428165e-05
6.23425027e-05
6.20329749e-05
6.15729737e-05
6.18807171e-05
6.35813152e-05
6.2324539e-05
6.15201051e-05
6.3636251e-05
6.35071633e-05
6.18492486e-05
6.18584258e-05
6.36114564e-05
6.35219421e-05
6.19037484e-05
6.20111772e-05
6.3612857e-05
6.35373766e-05
6.19029718e-05
6.22839985e-05
6.36099465e-05
6.2293278e-05
6.15606593e-05
6.36640041e-05
6.35725181e-05
6.19692953e-05
6.19294748e-05
6.36430002e-05
6.3599356e-05
6.20710895e-05
6.20853133e-05
6.3641128e-05
6.35948113e-05
6.23023044e-05
6.20971005e-05
6.18201784e-05
6.19293232e-05
6.35921413e-05
6.22831416e-05
6.15715591e-05
6.36007008e-05
6.35873417e-05
6.22696609e-05
6.16038096e-05
6.16938902e-05
6.35450577e-05
6.36193189e-05
6.22015631e-05
6.1998779e-05
6.35283853e-05
6.35996786e-05
6.22777731e-05
6.21475664e-05
6.35387895e-05
6.35707657e-05
6.23083064e-05
6.18903786e-05
6.1957081e-05
6.15233106e-05
6.16459233e-05
6.35306201e-05
6.36052115e-05
6.36016573e-05
6.22907482e-05
6.13999964e-05
6.17322829e-05
6.35182184e-05
6.36331688e-05
6.1977722e-05
6.20269314e-05
6.35783683e-05
6.23107352e-05
6.15688334e-05
6.35153352e-05
6.36093716e-05
6.20283698e-05
6.17494091e-05
6.35196504e-05
6.36075231e-05
6.19811355e-05
6.18994979e-05
6.35226509e-05
6.36231891e-05
6.18728819e-05
6.22346432e-05
6.36035231e-05
6.23065048e-05
6.15869525e-05
6.35480827e-05
6.36159826e-05
6.19548964e-05
6.17524882e-05
6.3569294e-05
6.3609353e-05
6.18906367e-05
6.18539818e-05
6.35913219e-05
6.36125522e-05
6.19533771e-05
6.1969379e-05
6.36100498e-05
6.35678912e-05
6.21572978e-05
6.14324748e-05
6.18619049e-05
6.31288785e-05
6.36337436e-05
6.18296511e-05
6.1856609e-05
6.35652171e-05
6.36170999e-05
6.19313765e-05
6.19467266e-05
6.36141996e-05
6.35961278e-05
6.20067481e-05
6.20707234e-05
6.36341197e-05
6.35724861e-05
6.22652838e-05
6.16053926e-05
6.22081993e-05
6.35838555e-05
6.36023219e-05
6.21993381e-05
6.18884797e-05
6.18167228e-05
6.17588651e-05
6.36094749e-05
6.35489746e-05
6.21526462e-05
6.11810163e-05
6.17944811e-05
6.35478942e-05
6.36118866e-05
6.17054921e-05
6.17918169e-05
6.35909837e-05
6.35640068e-05
6.1847581e-05
6.1787676e-05
6.36237645e-05
6.35433866e-05
6.22184431e-05
6.13025237e-05
6.16786238e-05
6.35433461e-05
6.36034841e-05
6.17737823e-05
6.17725851e-05
6.35796261e-05
6.35706588e-05
6.18007935e-05
6.19108884e-05
6.35942413e-05
6.35643409e-05
6.17077482e-05
6.21807154e-05
6.36022993e-05
6.23125894e-05
6.1314692e-05
6.36183206e-05
6.35519317e-05
6.17261149e-05
6.16502935e-05
6.36044971e-05
6.35327442e-05
6.16725565e-05
6.17206344e-05
6.35904473e-05
6.35395867e-05
6.16725197e-05
6.17283454e-05
6.35879627e-05
6.3540032e-05
6.16727187e-05
6.17340801e-05
6.35887984e-05
6.35358432e-05
6.16757194e-05
6.17435755e-05
6.35903615e-05
6.35294811e-05
6.16867049e-05
6.17612309e-05
6.35921269e-05
6.3522696e-05
6.1706372e-05
6.17875303e-05
6.35940973e-05
6.35167217e-05
6.1736193e-05
6.18260243e-05
6.35962604e-05
6.35120958e-05
6.17835198e-05
6.18876975e-05
6.35978545e-05
6.35070186e-05
6.18508645e-05
6.19936605e-05
6.35956265e-05
6.3500809e-05
6.18683199e-05
6.23047775e-05
6.35722985e-05
6.22938278e-05
6.14825107e-05
6.36670236e-05
6.34907252e-05
6.20008534e-05
6.20323087e-05
6.36478538e-05
6.3510086e-05
6.23290267e-05
6.20397005e-05
6.14976359e-05
6.17455324e-05
6.35712066e-05
6.23488566e-05
6.13190646e-05
6.36379253e-05
6.35160837e-05
6.18850001e-05
6.17623847e-05
6.36144983e-05
6.3523732e-05
6.19580812e-05
6.17480156e-05
6.36497887e-05
6.34900427e-05
6.23125729e-05
6.11257762e-05
6.13031506e-05
6.35500051e-05
6.35620578e-05
6.19098537e-05
6.16312435e-05
6.35687432e-05
6.35764725e-05
6.18457194e-05
6.16637248e-05
6.35570445e-05
6.35821392e-05
6.18461699e-05
6.16647362e-05
6.35470836e-05
6.35810759e-05
6.18558447e-05
6.16628824e-05
6.35353715e-05
6.35800101e-05
6.18681596e-05
6.16581542e-05
6.35218144e-05
6.35794725e-05
6.18833975e-05
6.16516057e-05
6.35061275e-05
6.35793015e-05
6.19034473e-05
6.16451294e-05
6.34884148e-05
6.35795694e-05
6.19299665e-05
6.16420853e-05
6.34691213e-05
6.35805892e-05
6.19640007e-05
6.16454231e-05
6.34487616e-05
6.35824634e-05
6.20116018e-05
6.16629875e-05
6.34277439e-05
6.35847865e-05
6.20685006e-05
6.1695075e-05
6.34072511e-05
6.35879316e-05
6.21469768e-05
6.1753297e-05
6.33887482e-05
6.35904024e-05
6.22594779e-05
6.18572758e-05
6.33733868e-05
6.35901619e-05
6.24143007e-05
6.20085022e-05
6.33784982e-05
6.35787471e-05
6.23284818e-05
6.2064003e-05
6.17812044e-05
6.18074428e-05
6.34262565e-05
6.2338566e-05
6.17094119e-05
6.33233466e-05
6.35798759e-05
6.23942149e-05
6.18631253e-05
6.33200315e-05
6.35741082e-05
6.23194908e-05
6.18217197e-05
6.33377933e-05
6.35466608e-05
6.23051272e-05
6.14105638e-05
6.14203992e-05
6.33906492e-05
6.36027865e-05
6.21910808e-05
6.1694838e-05
6.33096193e-05
6.36003154e-05
6.21738376e-05
6.17409524e-05
6.33319707e-05
6.35948875e-05
6.21686089e-05
6.17932408e-05
6.33600729e-05
6.35965447e-05
6.21657412e-05
6.18836871e-05
6.33985128e-05
6.35859554e-05
6.20983509e-05
6.20784887e-05
6.34836674e-05
6.2329232e-05
6.16869038e-05
6.3432702e-05
6.3600067e-05
6.21717891e-05
6.18123271e-05
6.34520819e-05
6.35882724e-05
6.21605069e-05
6.19014209e-05
6.34936743e-05
6.35582151e-05
6.23083467e-05
6.14860989e-05
6.16481195e-05
6.35107272e-05
6.36055028e-05
6.2246497e-05
6.19275651e-05
6.35148226e-05
6.35760718e-05
6.23067387e-05
6.17266972e-05
6.19014551e-05
6.35407203e-05
6.36097098e-05
6.2320966e-05
6.20952194e-05
6.1823468e-05
6.2046015e-05
6.35702039e-05
6.23213295e-05
6.1863619e-05
6.35291673e-05
6.36042504e-05
6.23687907e-05
6.21213232e-05
6.35480383e-05
6.35885999e-05
6.23178558e-05
6.2118789e-05
6.1810628e-05
6.19321653e-05
6.35921666e-05
6.23515022e-05
6.16555615e-05
6.35349943e-05
6.3602791e-05
6.21025648e-05
6.17882647e-05
6.3544759e-05
6.36027355e-05
6.19769983e-05
6.17983612e-05
6.3567847e-05
6.35869329e-05
6.18869644e-05
6.17952187e-05
6.35815637e-05
6.35527857e-05
6.18234642e-05
6.1813297e-05
6.35866594e-05
6.35082518e-05
6.17800549e-05
6.18618549e-05
6.35878908e-05
6.34634912e-05
6.17615301e-05
6.19364938e-05
6.35888546e-05
6.34244508e-05
6.17584323e-05
6.20361448e-05
6.35913532e-05
6.339323e-05
6.17645838e-05
6.21603163e-05
6.35888815e-05
6.33866477e-05
6.16736664e-05
6.23455951e-05
6.34502052e-05
6.19229053e-05
6.19176771e-05
6.35758918e-05
6.33831178e-05
6.1719779e-05
6.20368937e-05
6.35873336e-05
6.3391691e-05
6.16762584e-05
6.2063889e-05
6.35824773e-05
6.34258739e-05
6.16881185e-05
6.20640993e-05
6.35796062e-05
6.34643265e-05
6.17040989e-05
6.20896663e-05
6.35591939e-05
6.35312886e-05
6.15185053e-05
6.23765163e-05
6.35564707e-05
6.18638212e-05
6.16856793e-05
6.35620826e-05
6.35455164e-05
6.16599889e-05
6.17798003e-05
6.35692142e-05
6.35491671e-05
6.16577048e-05
6.17917887e-05
6.35699698e-05
6.35707098e-05
6.16927133e-05
6.1799042e-05
6.35659819e-05
6.35761106e-05
6.17524135e-05
6.18201387e-05
6.35606909e-05
6.35816047e-05
6.18087603e-05
6.18529958e-05
6.35594471e-05
6.35835073e-05
6.18714425e-05
6.18951168e-05
6.35424653e-05
6.35552611e-05
6.20030819e-05
6.13968771e-05
6.16732504e-05
6.35294699e-05
6.35487162e-05
6.20887591e-05
6.13060428e-05
6.14473686e-05
6.34843474e-05
6.35699063e-05
6.19689598e-05
6.17195501e-05
6.34641168e-05
6.3568164e-05
6.19931585e-05
6.18114854e-05
6.34678208e-05
6.35560356e-05
6.19987084e-05
6.19966944e-05
6.3490811e-05
6.23743978e-05
6.14036363e-05
6.34574535e-05
6.35395803e-05
6.20824279e-05
6.16606499e-05
6.34247545e-05
6.35628031e-05
6.20810015e-05
6.16630042e-05
6.34095624e-05
6.35649394e-05
6.22046467e-05
6.16639066e-05
6.32185188e-05
6.35601354e-05
6.23989267e-05
6.16742364e-05
6.29832962e-05
6.35531558e-05
6.2369094e-05
6.16809138e-05
6.28312766e-05
6.35461911e-05
6.23349318e-05
6.16887857e-05
6.27356552e-05
6.35405972e-05
6.23182487e-05
6.16939318e-05
6.26780007e-05
6.35371995e-05
6.23113548e-05
6.17044286e-05
6.26569203e-05
6.35370784e-05
6.2310008e-05
6.17171274e-05
6.26567476e-05
6.35397934e-05
6.23120904e-05
6.1738614e-05
6.26718494e-05
6.35443038e-05
6.2316954e-05
6.17673149e-05
6.27009715e-05
6.35502216e-05
6.23262223e-05
6.18077547e-05
6.27630557e-05
6.35583609e-05
6.23439603e-05
6.18882019e-05
6.2906e-05
6.35629262e-05
6.23881755e-05
6.22073811e-05
6.3147365e-05
6.23414642e-05
6.14887114e-05
6.31069812e-05
6.35270989e-05
6.24233141e-05
6.19882027e-05
6.33996881e-05
6.35518591e-05
6.23703846e-05
6.21670504e-05
6.15131194e-05
6.15232333e-05
6.34376821e-05
6.23495569e-05
6.13915013e-05
6.34456935e-05
6.35440815e-05
6.22060211e-05
6.17881489e-05
6.34585991e-05
6.35780068e-05
6.21651624e-05
6.18541421e-05
6.3499298e-05
6.35848827e-05
6.21265463e-05
6.18941794e-05
6.35496639e-05
6.35815238e-05
6.21217044e-05
6.19346399e-05
6.36020708e-05
6.35619387e-05
6.23710796e-05
6.18718255e-05
6.13394339e-05
6.14274685e-05
6.35664868e-05
6.35173567e-05
6.16426735e-05
6.16688102e-05
6.35703215e-05
6.34950335e-05
6.16666687e-05
6.17600176e-05
6.35717076e-05
6.34808882e-05
6.16676252e-05
6.18058769e-05
6.35775564e-05
6.34720949e-05
6.16686841e-05
6.18398309e-05
6.3585021e-05
6.34790016e-05
6.1680499e-05
6.19058153e-05
6.35882382e-05
6.34866076e-05
6.16901146e-05
6.1740586e-05
6.35449794e-05
6.35202283e-05
6.23657237e-05
6.16820565e-05
6.24865115e-05
6.35337542e-05
6.23475075e-05
6.16442474e-05
6.22909959e-05
6.35525892e-05
6.28949307e-05
6.16194279e-05
6.22788766e-05
6.35687362e-05
6.35066519e-05
6.16011609e-05
6.19964471e-05
6.35757953e-05
6.35220126e-05
6.1594624e-05
6.21102306e-05
6.35791977e-05
6.32188158e-05
6.15840087e-05
6.23268911e-05
6.35851385e-05
6.24873758e-05
6.15845143e-05
6.23565565e-05
6.35886983e-05
6.22926101e-05
6.16100576e-05
6.30655548e-05
6.35960367e-05
6.20537827e-05
6.16433538e-05
6.3610835e-05
6.35913239e-05
6.17854969e-05
6.16584147e-05
6.36015436e-05
6.35949981e-05
6.17625979e-05
6.17113969e-05
6.35953873e-05
6.36033269e-05
6.17908444e-05
6.17976818e-05
6.35892326e-05
6.36275936e-05
6.1767408e-05
6.21412649e-05
6.3577969e-05
6.22399014e-05
6.12679889e-05
6.36502298e-05
6.35567225e-05
6.22259909e-05
6.10988163e-05
6.1497737e-05
6.3555234e-05
6.36470763e-05
6.17652758e-05
6.19003906e-05
6.36174131e-05
6.22489873e-05
6.12587095e-05
6.36359793e-05
6.36306723e-05
6.18281142e-05
6.16380672e-05
6.36532471e-05
6.36470618e-05
6.18215422e-05
6.17169652e-05
6.36717516e-05
6.36682191e-05
6.19044454e-05
6.16342174e-05
6.37063975e-05
6.36755758e-05
6.21944261e-05
6.11140769e-05
6.11471297e-05
6.36984887e-05
6.37351004e-05
6.17957838e-05
6.15204933e-05
6.37532194e-05
6.37610902e-05
6.17315486e-05
6.14011199e-05
6.38271076e-05
6.37741418e-05
6.20803129e-05
6.06185579e-05
6.07156854e-05
6.37988919e-05
6.38698319e-05
6.11754351e-05
6.1046836e-05
6.38440983e-05
6.39403197e-05
6.38095495e-05
6.39752137e-05
6.38584262e-05
6.40002337e-05
6.39377567e-05
6.19591887e-05
6.14282133e-05
6.41046771e-05
6.40747981e-05
6.13993372e-05
6.13985087e-05
6.39993805e-05
6.41639955e-05
6.40507437e-05
6.41980188e-05
6.40949906e-05
6.42179564e-05
6.41771189e-05
6.42475165e-05
6.42464419e-05
6.42824101e-05
6.42871059e-05
6.43213167e-05
6.43256203e-05
6.43641029e-05
6.4357564e-05
6.44100454e-05
6.43652663e-05
6.4454907e-05
6.39522993e-05
5.89026602e-05
5.90197912e-05
5.97383886e-05
5.94925472e-05
5.96553936e-05
5.94157149e-05
6.05586476e-05
5.94835431e-05
5.98775763e-05
5.9249179e-05
5.95177261e-05
5.99256819e-05
6.03195011e-05
6.02538317e-05
6.02760682e-05
6.07895902e-05
6.03002866e-05
6.00222063e-05
6.05907389e-05
5.9647954e-05
5.99416138e-05
6.0422339e-05
6.10626115e-05
5.98657012e-05
6.01155726e-05
6.04344464e-05
6.39818666e-05
6.15277806e-05
6.53747433e-05
6.53504982e-05
6.52644443e-05
6.53310321e-05
6.52656861e-05
6.49530388e-05
6.48157053e-05
6.59118374e-05
6.62591543e-05
6.52749278e-05
6.5648241e-05
6.61030013e-05
6.6401276e-05
6.58824104e-05
6.6320145e-05
6.62446658e-05
6.65773024e-05
6.634943e-05
6.67260423e-05
6.74003535e-05
6.7638414e-05
6.74673079e-05
6.65855064e-05
6.66678604e-05
6.6964107e-05
6.58502394e-05
6.83724969e-05
6.80886078e-05
6.69994448e-05
6.75855051e-05
6.90447644e-05
6.92611211e-05
6.86054804e-05
6.92264056e-05
7.0514298e-05
7.01817651e-05
7.0496659e-05
7.04070063e-05
7.0162717e-05
7.00688608e-05
7.0886374e-05
6.95720067e-05
6.93668286e-05
6.91366575e-05
7.02591546e-05
6.94330765e-05
7.08136467e-05
7.08739904e-05
7.27649509e-05
6.69540596e-05
6.71047044e-05
6.77876948e-05
6.78096337e-05
6.70827879e-05
6.99939388e-05
7.43037288e-05
7.2988025e-05
6.97804826e-05
7.1298302e-05
7.20913444e-05
7.40855993e-05
6.83762972e-05
7.17639963e-05
7.03183407e-05
7.35841389e-05
7.06877497e-05
7.36017566e-05
7.29252814e-05
7.55768133e-05
7.5243217e-05
7.72940962e-05
7.75656851e-05
7.85608392e-05
7.86997238e-05
8.07917606e-05
8.10971682e-05
8.29239489e-05
8.32643322e-05
8.48667254e-05
8.5407876e-05
8.41536226e-05
8.44236704e-05
8.53702197e-05
8.56626688e-05
8.68972321e-05
8.77244623e-05
8.88042897e-05
8.90766864e-05
8.93914207e-05
8.96422691e-05
9.00436761e-05
9.04763937e-05
9.11136911e-05
9.15911295e-05
9.21341026e-05
9.25706329e-05
9.30754785e-05
9.35008723e-05
9.39920193e-05
9.44201347e-05
9.48888923e-05
9.52492464e-05
9.56730033e-05
9.6075499e-05
9.65408957e-05
9.69982509e-05
9.75026788e-05
9.80878072e-05
9.88309242e-05
9.95699766e-05
0.000100292433
0.000100911294
0.00010155025
0.000102096279
0.000102674205
0.000103160431
0.000103578492
0.000103977993
0.000104408867
0.000104878346
0.000105364338
0.000105905997
0.000106434554
0.000107050315
0.000107619991
0.00010829171
0.000108887737
0.000109569402
0.000110175572
0.000110854347
0.000111436025
0.000112090774
0.000112649315
0.000113288193
0.000113821255
0.000114444015
0.00011493046
0.000115482525
0.000115953042
0.000116495651
0.000116994011
0.000117556054
0.000118062196
0.000118631604
0.000119132084
0.000119714155
0.000120221778
0.000120799607
0.000121306378
0.000121878386
0.000122382973
0.000122949197
0.000123450743
0.000124010583
0.000124508153
0.000125061541
0.000125554806
0.000126101559
0.000126589931
0.000127129423
0.000127612032
0.000128143488
0.000128618484
0.000129141691
0.000129608964
0.0001301239
0.000130582969
0.000131089141
0.00013153937
0.000132036277
0.000132477529
0.000132962792
0.000133388865
0.000133861108
0.000134278057
0.000134741607
0.000135149686
0.000135605416
0.000136005364
0.000136454372
0.000136846737
0.000137290236
0.000137676296
0.000138114691
0.000138493735
0.000138926574
0.000139298647
0.000139726045
0.000140091333
0.000140513841
0.000140872544
0.000141290239
0.000141642295
0.000142055107
0.000142400528
0.000142808469
0.000143147366
0.000143550413
0.000143882755
0.000144280672
0.000144606571
0.000144999312
0.000145318823
0.000145706285
0.000146019523
0.000146401533
0.000146708639
0.000147084992
0.000147386106
0.000147756462
0.000148051753
0.000148415948
0.000148705691
0.000149063356
0.000149347692
0.000149698467
0.000149977882
0.000150321535
0.00015059622
0.000150932685
0.000151203157
0.00015153112
0.000151797548
0.000152117365
0.000152380776
0.000152692918
0.000152954306
0.0001532584
0.000153517731
0.000153813009
0.000154071006
0.000154357618
0.000154614955
0.000154892644
0.000155149972
0.000155418536
0.000155677138
0.000155937271
0.000156197702
0.000156448419
0.000156711654
0.000156953607
0.000157219996
0.00015745122
0.000157718302
0.000157949553
0.000158218582
0.000158435301
0.000158703203
0.000158904505
0.000159172021
0.000159356695
0.000159628611
0.000159793886
0.000160104307
0.000160220255
0.000160436978
0.000160637201
0.00016111223
0.000161050245
0.000161176236
0.000161448234
0.000162086202
0.000161839838
0.000161912001
0.000162209689
0.000162986059
0.000162582095
0.000162663707
0.000162924869
0.000163797761
0.000163273411
0.000163349769
0.000163592093
0.000164767865
0.000163902597
0.00016335736
0.000164243179
0.000166858397
0.000164351712
0.00016340497
0.00016513034
0.000168459905
0.000164633608
0.000163909366
0.000166025732
0.000170226758
0.000164269001
0.000164506093
0.000168736452
0.000171932443
0.0001645624
0.00016499022
0.000171090112
0.000172408367
0.00016497413
0.000165513478
0.000172306985
0.000173002504
0.000165427632
0.000165979423
0.000172847632
0.000173770622
0.000166364261
0.000166442372
0.000174001487
0.000174337034
0.000169740774
0.000166880883
0.000172882105
0.000174718919
0.000171633299
0.000167262095
0.000173260982
0.000175196137
0.000173469233
0.000167623182
0.00017371163
0.000175546074
0.000174440042
0.000168002547
0.000174415897
0.00017573522
0.000175069075
0.00016840848
0.000174925125
0.000175971027
0.000175406509
0.000168887812
0.000175190436
0.000176237335
0.000175605913
0.000169410665
0.000175297223
0.000176495057
0.000175610384
0.000170096336
0.000175575261
0.00017672839
0.000175755677
0.000170988279
0.000175821422
0.000176590869
0.000175991873
0.000173882356
0.000176072321
0.000176061724
0.000176246061
0.000175023061
0.000176252408
0.000175940764
0.000176431037
0.000175554138
0.000176488828
0.000176390403
0.000176667246
0.000175997365
0.000176759969
0.000176747633
0.000176924278
0.000176596629
0.000177034387
0.000177007271
0.000177180332
0.000177049091
0.000177298804
0.000177278826
0.000177429566
0.000177387059
0.000177547002
0.000177543429
0.000177665785
0.000177662256
0.000177777383
0.000177788123
0.000177886979
0.000177900574
0.000177991952
0.000178011185
0.000178093841
0.000178115368
0.000178192063
0.000178215952
0.000178286194
0.00017831195
0.000178377061
0.000178403489
0.000178465274
0.000178491984
0.00017855091
0.000178577751
0.000178634153
0.000178660952
0.000178715168
0.000178741833
0.00017879415
0.000178820608
0.00017887129
0.000178897504
0.000178946782
0.000178972735
0.000179020814
0.00017904651
0.00017909357
0.000179119024
0.000179165222
0.000179190459
0.000179235928
0.00017926098
0.000179305459
0.000179330737
0.000179373801
0.000179399281
0.000179441618
0.000179466912
0.000179508957
0.000179534106
0.000179575888
0.000179605438
0.000179648817
0.000179689384
0.000179732389
0.00017977263
0.000179815287
0.000179855234
0.00017989757
0.000179937254
0.0001799793
0.000180018746
0.000180060533
0.000180099765
0.000180141325
0.000180180363
0.000180221729
0.00018026059
0.000180301795
0.000180340493
0.00018038157
0.000180420116
0.0001804611
0.000180499499
0.000180540425
0.000180578678
0.000180619584
0.000180657678
0.000180698608
0.000180736515
0.00018077752
0.000180815184
0.000180856328
0.000180893661
0.000180934104
0.000180971795
0.000181011126
0.000181048355
0.000181088227
0.000181124847
0.000181165395
0.000181201467
0.00018124271
0.000181277677
0.000181320049
0.00018135521
0.000181397931
0.000181416584
0.000181466719
0.000181476644
0.000181523288
0.000181499014
0.000181571136
0.000181590518
0.000181634705
0.000181539312
0.000181667607
0.000181753834
0.000181755661
0.00018147896
0.000181737887
0.00018204096
0.000181898413
0.000181130073
0.000181763198
0.000182465142
0.000182087295
0.000180462284
0.000181713553
0.00018260824
0.000182349177
0.00017964355
0.000181538279
0.000182756783
0.000182656816
0.000179603394
0.00018122097
0.00018290244
0.000182931918
0.000179596995
0.000180935723
0.000183042017
0.000183106149
0.000179659932
0.00018070587
0.000183187909
0.000183247154
0.000179753847
0.000180659455
0.000183340116
0.000183392834
0.000179919575
0.000180675844
0.0001834986
0.000183539539
0.000180134374
0.000180701086
0.000183655018
0.000183690707
0.000180364343
0.00018076701
0.000183818897
0.000183848968
0.00018060567
0.00018086852
0.0001839903
0.00018401537
0.000180848393
0.000181001876
0.000184164199
0.000184192361
0.000181085294
0.00018122757
0.000184331044
0.000184373919
0.000181314245
0.000181468383
0.000184507982
0.00018455163
0.000181553784
0.000181702413
0.000184690654
0.00018472698
0.000181803697
0.000181936061
0.000184875566
0.000184906016
0.000182052594
0.000182172186
0.000185062443
0.000185088159
0.000182290317
0.000182420338
0.000185241875
0.000185276454
0.000182511559
0.000182681905
0.000185405617
0.000185471164
0.000182688681
0.000182952994
0.000185548167
0.000185652453
0.000182857678
0.000183198097
0.000185656503
0.000185814973
0.000183017727
0.000183397233
0.000185398439
0.000185902282
0.000183611096
0.000183525074
0.00018480664
0.000185675523
0.000185283165
0.000184097662
0.000183766899
0.000185114156
0.000186059704
0.000185694759
0.000183397674
0.000184296464
0.000186450444
0.000186375848
0.000183589865
0.000184035214
0.000186637817
0.00018670257
0.000183819213
0.000184186184
0.000186803635
0.000186881544
0.000184030193
0.000184352235
0.000186970412
0.000187041553
0.000184229232
0.000184517446
0.00018712798
0.000187190295
0.000184406971
0.000184670201
0.000187272434
0.000187325633
0.000184562885
0.000184807809
0.000187403689
0.000187448508
0.000184705213
0.000184933719
0.000187525693
0.000187563541
0.000184839311
0.000185054073
0.000187645128
0.000187677393
0.00018497056
0.000185175058
0.000187765744
0.000187794337
0.000185100663
0.000185298468
0.000187887294
0.000187913877
0.000185228176
0.000185418812
0.00018800727
0.000188033628
0.000185350457
0.00018553216
0.00018812276
0.000188149949
0.000185465087
0.000185640535
0.000188232139
0.000188259922
0.000185571812
0.00018574631
0.000188334401
0.000188365987
0.000185663751
0.000185855134
0.000188424157
0.000188463369
0.00018575246
0.000185950948
0.000188513967
0.000188555382
0.000185835018
0.000186037133
0.000188601173
0.000188641943
0.000185916003
0.000186116445
0.000188682627
0.000188723372
0.000185995524
0.000186186954
0.000188762044
0.000188800973
0.000186070082
0.000186253999
0.000188835897
0.000188872027
0.000186142803
0.000186310614
0.000188913224
0.000188941444
0.000186204626
0.000186374558
0.000188978728
0.000189005988
0.00018626243
0.000186434953
0.000189039971
0.000189066758
0.000186316388
0.000186491643
0.000189097318
0.000189123638
0.000186366827
0.000186544445
0.000189151116
0.000189176581
0.000186413878
0.000186593703
0.000189201549
0.000189225818
0.000186457633
0.000186639677
0.000189248537
0.000189271623
0.000186498049
0.000186682615
0.000189292032
0.000189314227
0.000186535143
0.000186722694
0.000189332045
0.000189353765
0.000186569004
0.000186759998
0.000189368705
0.000189390279
0.000186599855
0.000186794543
0.000189402269
0.000189423801
0.000186627999
0.000186826388
0.000189433016
0.00018945449
0.000186653716
0.000186855727
0.00018946107
0.000189482659
0.000186677114
0.000186882818
0.00018948637
0.000189508609
0.000186698197
0.000186907758
0.000189508907
0.000189532314
0.000186717145
0.000186930395
0.00018952897
0.000189553549
0.000186734375
0.000186950649
0.00018954698
0.000189572367
0.000186750184
0.00018696886
0.000189563032
0.00018958924
0.000186764444
0.000186985544
0.000189576853
0.000189604555
0.000186776876
0.000187000862
0.000189588311
0.000189618213
0.000186787545
0.00018701453
0.00018959779
0.000189629867
0.000186796898
0.000187026347
0.000189605898
0.00018963947
0.000186805241
0.00018703662
0.000189612926
0.00018964737
0.000186812441
0.000187046016
0.000189618756
0.000189654018
0.000186818099
0.000187055191
0.000189623088
0.000189659674
0.000186821893
0.000187064422
0.000189625747
0.00018966434
0.000186823873
0.000187073601
0.000189626763
0.000189668037
0.000186824329
0.00018708235
0.000189626236
0.000189670711
0.000186823904
0.000187089846
0.000189624638
0.000189671971
0.000186823585
0.00018709522
0.000189622799
0.000189671674
0.000186823991
0.000187098666
0.000189620909
0.000189670521
0.00018682436
0.000187101512
0.000189618118
0.000189669135
0.000186823201
0.000187104715
0.000189613939
0.000189667068
0.000186820036
0.000187108505
0.000189609022
0.000189664005
0.000186815284
0.000187113293
0.000189603537
0.000189660722
0.000186809033
0.000187118797
0.000189596895
0.000189656598
0.000186802866
0.000187122271
0.00018959094
0.000189650536
0.000186799526
0.000187124148
0.000189585403
0.000189645347
0.000186795952
0.000187127542
0.000189577019
0.000189641127
0.000186790371
0.000187131153
0.000189567343
0.000189635877
0.000186784567
0.000187133513
0.000189558441
0.00018962932
0.000186778975
0.000187135178
0.000189550583
0.000189621899
0.000186772244
0.00018713814
0.000189543431
0.00018961396
0.000186762476
0.000187144863
0.000189536288
0.000189606691
0.00018674776
0.000187156967
0.000189527335
0.000189600315
0.000186729381
0.000187170425
0.000189517531
0.000189593549
0.000186712601
0.000187180444
0.000189507473
0.000189585693
0.000186701112
0.000187184175
0.000189497907
0.000189577315
0.000186695346
0.000187183112
0.00018948782
0.000189569221
0.000186693054
0.000187179378
0.000189476993
0.000189561426
0.000186692343
0.000187174975
0.000189465498
0.000189554562
0.00018669132
0.000187170182
0.000189453348
0.000189546855
0.000186691282
0.000187162787
0.000189443507
0.000189538466
0.000186691829
0.000187156159
0.000189434178
0.000189530928
0.000186689713
0.000187174828
0.000189403514
0.000189523406
0.000186685303
0.000187171052
0.00018939484
0.000189516137
0.000186680391
0.000187165113
0.00018938785
0.00018950902
0.000186676302
0.000187156148
0.000189382295
0.000189500788
0.000186674322
0.000187145924
0.000189377989
0.0001894919
0.000186671051
0.00018711579
0.000189396579
0.000189485288
0.000186658446
0.000187116826
0.000189392594
0.000189480781
0.000186637104
0.000187117738