/*--------------------------------*- C++ -*----------------------------------*\
| =========                 |                                                 |
| \\      /  F ield         | OpenFOAM: The Open Source CFD Toolbox           |
|  \\    /   O peration     | Version:  2306                                  |
|   \\  /    A nd           | Website:  www.openfoam.com                      |
|    \\/     M anipulation  |                                                 |
\*---------------------------------------------------------------------------*/
FoamFile
{
    version     2.0;
    format      ascii;
    arch        "LSB;label=32;scalar=64";
    class       volScalarField;
    location    "0.00108";
    object      prefDZ_H2O;
}
// * * * * * * * * * * * * * * * * * * * * * * * * * * * * * * * * * * * * * //

dimensions      [1 -1 -1 0 0 0 0];

internalField   nonuniform List<scalar> 
530
(
-7.64788301e-07
-7.52785301e-07
-7.52061274e-07
-7.52078568e-07
-7.52080005e-07
-7.52080021e-07
-7.52080022e-07
-7.52080022e-07
-7.52080022e-07
-7.52080022e-07
-7.52080022e-07
-7.52080022e-07
-7.52080022e-07
-7.52080022e-07
-7.52080022e-07
-7.52080022e-07
-7.52080022e-07
-7.52080022e-07
-7.52080022e-07
-7.52080022e-07
-7.52080022e-07
-7.52080022e-07
-7.52080022e-07
-7.52080022e-07
-7.52080022e-07
-7.52080022e-07
-7.52080022e-07
-7.52080022e-07
-7.52080022e-07
-7.52080022e-07
-7.52080022e-07
-7.52080022e-07
-7.52080022e-07
-7.52080022e-07
-7.52080022e-07
-7.52080022e-07
-7.52080022e-07
-7.52080022e-07
-7.52080022e-07
-7.52080022e-07
-7.52080022e-07
-7.52080022e-07
-7.52080022e-07
-7.52080022e-07
-7.52080022e-07
-7.52080022e-07
-7.52080022e-07
-7.52080022e-07
-7.52080022e-07
-7.52080022e-07
-7.52080022e-07
-7.52080022e-07
-7.52080022e-07
-7.52080022e-07
-7.52080022e-07
-7.52080022e-07
-7.52080022e-07
-7.52080022e-07
-7.52080022e-07
-7.52080022e-07
-7.52080022e-07
-7.52080022e-07
-7.52080022e-07
-7.52080022e-07
-7.52080022e-07
-7.52080021e-07
-7.52080021e-07
-7.52080021e-07
-7.52080021e-07
-7.52080019e-07
-7.52080014e-07
-7.52080018e-07
-7.52080017e-07
-7.52079746e-07
-7.5208032e-07
-7.52081224e-07
-7.52072919e-07
-7.52068069e-07
-7.52122719e-07
-7.52202492e-07
-7.5198067e-07
-7.51261001e-07
-7.518871e-07
-7.54338593e-07
-7.54403697e-07
-7.40373905e-07
-7.3880124e-07
-7.80584513e-07
-7.75000246e-07
-7.47276504e-07
-7.34653856e-07
-7.37371152e-07
-7.75891338e-07
-7.74784693e-07
-7.51431563e-07
-7.33147948e-07
-7.33955545e-07
-7.7631716e-07
-7.74159621e-07
-7.75275556e-07
-7.54108083e-07
-7.37900428e-07
-7.3600338e-07
-7.33070477e-07
-7.37823669e-07
-7.7502408e-07
-7.74029184e-07
-7.75290282e-07
-7.75243264e-07
-7.3399784e-07
-7.32457274e-07
-7.76924575e-07
-7.74588053e-07
-7.54795515e-07
-7.3743276e-07
-7.36648042e-07
-7.36198559e-07
-7.32838657e-07
-7.35132435e-07
-7.75963562e-07
-7.74629238e-07
-7.76529294e-07
-7.7468634e-07
-7.770864e-07
-7.33424503e-07
-7.33975945e-07
-7.74204934e-07
-7.75770662e-07
-7.43752267e-07
-7.32914353e-07
-7.35762769e-07
-7.75546927e-07
-7.44686018e-07
-7.3466312e-07
-7.73800011e-07
-7.75372966e-07
-7.36137503e-07
-7.36357115e-07
-7.74625906e-07
-7.75292984e-07
-7.35059056e-07
-7.36653225e-07
-7.75856012e-07
-7.73156977e-07
-7.77249369e-07
-7.41614447e-07
-7.31132154e-07
-7.35819853e-07
-7.75985198e-07
-7.44891465e-07
-7.35057859e-07
-7.73462098e-07
-7.75088007e-07
-7.36181999e-07
-7.35804226e-07
-7.70378943e-07
-7.73795119e-07
-7.76287262e-07
-7.37026761e-07
-7.32465536e-07
-7.67938046e-07
-7.75389236e-07
-7.36326343e-07
-7.35799002e-07
-7.73409663e-07
-7.74975494e-07
-7.37836214e-07
-7.36047165e-07
-7.54551306e-07
-7.74084318e-07
-7.74395336e-07
-7.36202807e-07
-7.34942503e-07
-7.7361816e-07
-7.74731787e-07
-7.3879061e-07
-7.3715235e-07
-7.33151888e-07
-7.3460118e-07
-7.74798812e-07
-7.75453433e-07
-7.35323929e-07
-7.36186183e-07
-7.73993566e-07
-7.74672315e-07
-7.37559217e-07
-7.36375615e-07
-7.5807085e-07
-7.73786572e-07
-7.75031309e-07
-7.37647031e-07
-7.33000637e-07
-7.65274502e-07
-7.75507652e-07
-7.35173559e-07
-7.35430236e-07
-7.76075388e-07
-7.74924481e-07
-7.76913558e-07
-7.32594519e-07
-7.33151767e-07
-7.74068383e-07
-7.74877224e-07
-7.44633237e-07
-7.37861812e-07
-7.34920426e-07
-7.37237037e-07
-7.74784461e-07
-7.44158013e-07
-7.34967839e-07
-7.73403219e-07
-7.74624283e-07
-7.35818948e-07
-7.36275354e-07
-7.73814673e-07
-7.74315852e-07
-7.35823799e-07
-7.36580934e-07
-7.73181149e-07
-7.74138945e-07
-7.43626969e-07
-7.35564886e-07
-7.37990003e-07
-7.74056713e-07
-7.73648018e-07
-7.35954943e-07
-7.38019497e-07
-7.74169839e-07
-7.43434703e-07
-7.35327893e-07
-7.73261374e-07
-7.74248375e-07
-7.35612286e-07
-7.35881571e-07
-7.73843255e-07
-7.74081967e-07
-7.35501882e-07
-7.36911962e-07
-7.7358853e-07
-7.7337188e-07
-7.53124348e-07
-7.38200279e-07
-7.3421251e-07
-7.36965375e-07
-7.74848237e-07
-7.43728474e-07
-7.3485382e-07
-7.73675538e-07
-7.74763081e-07
-7.34507248e-07
-7.35834971e-07
-7.75515139e-07
-7.74807001e-07
-7.75957986e-07
-7.32259254e-07
-7.31965799e-07
-7.74824039e-07
-7.75351255e-07
-7.3494173e-07
-7.34412009e-07
-7.58908808e-07
-7.74867634e-07
-7.74630296e-07
-7.3407573e-07
-7.33209932e-07
-7.74589405e-07
-7.74716697e-07
-7.35090365e-07
-7.36693388e-07
-7.73486145e-07
-7.73884479e-07
-7.41214369e-07
-7.38384428e-07
-7.3448074e-07
-7.35542927e-07
-7.7426729e-07
-7.74118633e-07
-7.36235724e-07
-7.35681228e-07
-7.63698068e-07
-7.73251522e-07
-7.75159589e-07
-7.39686527e-07
-7.33312209e-07
-7.39043694e-07
-7.75265284e-07
-7.72637386e-07
-7.75112921e-07
-7.41886637e-07
-7.33388819e-07
-7.33895149e-07
-7.5218997e-07
-7.74074052e-07
-7.74253068e-07
-7.36418263e-07
-7.32613568e-07
-7.42797388e-07
-7.75345841e-07
-7.73865103e-07
-7.3370655e-07
-7.33470327e-07
-7.74440059e-07
-7.75250827e-07
-7.51578676e-07
-7.31477875e-07
-7.3424831e-07
-7.75677993e-07
-7.75249256e-07
-7.64399753e-07
-7.31880229e-07
-7.32923405e-07
-7.75539375e-07
-7.75095228e-07
-7.33828832e-07
-7.3492376e-07
-7.77131182e-07
-7.74842581e-07
-7.78730654e-07
-7.32714944e-07
-7.31989887e-07
-7.74335846e-07
-7.75409219e-07
-7.39153689e-07
-7.33229258e-07
-7.35666236e-07
-7.7484019e-07
-7.74808641e-07
-7.73835061e-07
-7.75188436e-07
-7.44417097e-07
-7.30563326e-07
-7.32981504e-07
-7.75294084e-07
-7.74658477e-07
-7.34425258e-07
-7.3440161e-07
-7.74783596e-07
-7.74513298e-07
-7.35074649e-07
-7.35502599e-07
-7.7455895e-07
-7.74816082e-07
-7.58659396e-07
-7.32289092e-07
-7.3333543e-07
-7.74975685e-07
-7.74648862e-07
-7.35175093e-07
-7.35307355e-07
-7.74886101e-07
-7.7441968e-07
-7.35135232e-07
-7.35768627e-07
-7.75882102e-07
-7.7452944e-07
-7.76037152e-07
-7.33557318e-07
-7.32440497e-07
-7.7395586e-07
-7.74673268e-07
-7.43756076e-07
-7.36399706e-07
-7.3701709e-07
-7.36195055e-07
-7.34515515e-07
-7.43106239e-07
-7.74303508e-07
-7.73117051e-07
-7.73882581e-07
-7.73581431e-07
-7.36448002e-07
-7.35166483e-07
-7.73423065e-07
-7.73688289e-07
-7.44955951e-07
-7.3699373e-07
-7.36738175e-07
-7.36524904e-07
-7.33736397e-07
-7.35568737e-07
-7.74828532e-07
-7.738614e-07
-7.74437858e-07
-7.38582458e-07
-7.37025976e-07
-7.74882534e-07
-7.74490401e-07
-7.75178355e-07
-7.32516875e-07
-7.31184225e-07
-7.75067546e-07
-7.7492114e-07
-7.34363665e-07
-7.34849066e-07
-7.73874488e-07
-7.74003647e-07
-7.48580976e-07
-7.36892549e-07
-7.35232296e-07
-7.42729463e-07
-7.74458465e-07
-7.38724383e-07
-7.34399302e-07
-7.74142482e-07
-7.73671885e-07
-7.34300312e-07
-7.3791563e-07
-7.74039253e-07
-7.73387213e-07
-7.37143731e-07
-7.35463657e-07
-7.74048587e-07
-7.74299659e-07
-7.73657895e-07
-7.74375415e-07
-7.37204361e-07
-7.33851981e-07
-7.36396544e-07
-7.33098618e-07
-7.37094254e-07
-7.74902094e-07
-7.38615899e-07
-7.35801717e-07
-7.73868169e-07
-7.73872766e-07
-7.73768462e-07
-7.37518393e-07
-7.36061925e-07
-7.73995262e-07
-7.73595802e-07
-7.54946792e-07
-7.37205532e-07
-7.34883464e-07
-7.36064562e-07
-7.7479025e-07
-7.74317867e-07
-7.34712712e-07
-7.3557114e-07
-7.74927635e-07
-7.74214365e-07
-7.74806525e-07
-7.34906864e-07
-7.33532433e-07
-7.74061562e-07
-7.74778168e-07
-7.39233983e-07
-7.32566987e-07
-7.34358461e-07
-7.74199899e-07
-7.74549018e-07
-7.44818677e-07
-7.329202e-07
-7.34648028e-07
-7.74101671e-07
-7.74313288e-07
-7.44671159e-07
-7.3324266e-07
-7.35087677e-07
-7.74162443e-07
-7.74083608e-07
-7.44308779e-07
-7.36652289e-07
-7.35153724e-07
-7.35267508e-07
-7.75267987e-07
-7.74504533e-07
-7.74356531e-07
-7.74522173e-07
-7.36280982e-07
-7.33557316e-07
-7.74319925e-07
-7.74703912e-07
-7.39420489e-07
-7.31498866e-07
-7.33359703e-07
-7.75433544e-07
-7.74275058e-07
-7.35769406e-07
-7.34923612e-07
-7.75298129e-07
-7.74117638e-07
-7.3633669e-07
-7.35962456e-07
-7.75008661e-07
-7.7410813e-07
-7.36668069e-07
-7.35865576e-07
-7.74413508e-07
-7.74396134e-07
-7.45958782e-07
-7.32742951e-07
-7.34051033e-07
-7.75266097e-07
-7.74167315e-07
-7.35802491e-07
-7.35236897e-07
-7.75380469e-07
-7.7417613e-07
-7.36697868e-07
-7.3593183e-07
-7.74700111e-07
-7.74449026e-07
-7.47402794e-07
-7.33130955e-07
-7.342342e-07
-7.75312869e-07
-7.74131632e-07
-7.36172208e-07
-7.35510905e-07
-7.75541927e-07
-7.74162481e-07
-7.3703619e-07
-7.36053044e-07
-7.7488405e-07
-7.74519525e-07
-7.46560738e-07
-7.32720132e-07
-7.33784151e-07
-7.75668307e-07
-7.74207713e-07
-7.35640815e-07
-7.34535088e-07
-7.76198638e-07
-7.7417165e-07
-7.36384797e-07
-7.35605722e-07
-7.75915322e-07
-7.74072988e-07
-7.3731184e-07
-7.36121157e-07
)
;

boundaryField
{
    closed
    {
        type            calculated;
        value           uniform -1.03352706e-06;
    }
    open
    {
        type            calculated;
        value           nonuniform List<scalar> 0();
    }
    sides
    {
        type            empty;
    }
    procBoundary0to1
    {
        type            processor;
        value           uniform -7.75308554e-07;
    }
}


// ************************************************************************* //
