/*--------------------------------*- C++ -*----------------------------------*\
| =========                 |                                                 |
| \\      /  F ield         | OpenFOAM: The Open Source CFD Toolbox           |
|  \\    /   O peration     | Version:  2306                                  |
|   \\  /    A nd           | Website:  www.openfoam.com                      |
|    \\/     M anipulation  |                                                 |
\*---------------------------------------------------------------------------*/
FoamFile
{
    version     2.0;
    format      ascii;
    arch        "LSB;label=32;scalar=64";
    class       volScalarField;
    location    "0.001";
    object      sourcePV;
}
// * * * * * * * * * * * * * * * * * * * * * * * * * * * * * * * * * * * * * //

dimensions      [1 -3 -1 0 0 0 0];

internalField   nonuniform List<scalar> 
530
(
0.366055659
0.0274938202
2.1538977e-08
0.200134988
0.331867528
0.21885152
2.2332453e-08
0.011152541
0.312593495
0.276359086
2.29695493e-08
2.29404178e-08
0.284962403
0.20890136
2.36400571e-08
2.36162264e-08
0.267821473
0.170377986
2.43852376e-08
2.44065023e-08
0.246865186
0.147417899
2.51518838e-08
2.5196259e-08
0.223632017
0.134275241
0.000430327433
2.59865198e-08
0.196317568
0.124356316
0.0105496048
0.00277746646
0.156294422
0.111939649
0.0569232882
0.031638461
0.0633079064
0.048251405
0.132577729
0.0887167483
0.010326017
0.0078933077
0.154509176
0.109802149
2.94219792e-08
2.95053271e-08
0.143953954
0.109180487
3.02193414e-08
3.02875297e-08
0.135498165
0.106706388
3.10567037e-08
3.11094629e-08
0.127829909
0.103372313
3.19008004e-08
3.19378976e-08
0.120663769
0.0998482793
3.27984614e-08
3.28370827e-08
0.11507953
0.0938734192
3.38010161e-08
3.38155332e-08
0.110923822
0.0886824568
3.47790376e-08
3.48084863e-08
0.108411525
0.0829926334
3.57425743e-08
3.57901546e-08
0.105854862
0.0795992723
3.66862508e-08
3.67565495e-08
0.102957183
0.0763243757
3.76343064e-08
3.77050501e-08
0.0977279512
0.0744251918
3.86756991e-08
3.87455023e-08
0.0927018167
0.0722495815
3.98156926e-08
3.98808037e-08
0.0882443606
0.0695841309
4.09586697e-08
4.10120663e-08
0.0838970934
0.0672449126
4.20952391e-08
4.21451639e-08
0.0799108625
0.0626886273
4.32317459e-08
4.32774991e-08
0.0768709697
0.0593214392
4.43397143e-08
4.43938176e-08
0.0732220079
0.0564911385
4.56112579e-08
4.56722941e-08
0.0703092171
0.0533918004
4.69505104e-08
4.70109857e-08
0.0671406896
0.0509553557
4.82733683e-08
4.83294559e-08
0.0638251563
0.0483956969
4.95689452e-08
4.9618762e-08
0.0611172371
0.0464982875
5.08421713e-08
5.08759133e-08
0.0576664167
0.0446173079
5.20743752e-08
5.21102014e-08
0.0549984762
0.0427210193
5.36197324e-08
5.36668384e-08
0.052175461
0.040797602
5.51479501e-08
5.51931432e-08
0.0492594823
0.0388765743
5.66198798e-08
5.66731359e-08
0.0457576731
0.0374274344
5.79799485e-08
5.80605854e-08
0.0442125056
0.0358495653
5.92753944e-08
5.93611475e-08
0.0426711762
0.0346037371
6.05177569e-08
6.06046761e-08
0.0409980944
0.0329960293
6.20665475e-08
6.21966902e-08
0.0395813943
0.0312721984
6.36022328e-08
6.37277695e-08
0.0378889577
0.029363557
6.50720401e-08
6.51723406e-08
0.0363019489
0.0280664396
6.64475669e-08
6.65393161e-08
0.0349148799
0.0268288832
6.77805716e-08
6.78497403e-08
0.0332477406
0.0254549795
6.90498046e-08
6.91085581e-08
0.0316435242
0.0237064487
7.02445274e-08
7.02983056e-08
0.0299695974
0.0219919071
7.17543363e-08
7.18165999e-08
0.0281171832
0.0203260809
7.32701139e-08
7.33327971e-08
0.0261038865
0.0185110676
7.46948492e-08
7.47597935e-08
0.0238954806
0.0164934181
7.6032088e-08
7.61011014e-08
0.0215083637
0.0143529388
7.72813723e-08
7.73528297e-08
0.0191551046
0.0133347235
7.84362252e-08
7.85044318e-08
0.0172223346
0.0126183895
7.9481044e-08
7.95578822e-08
0.016058756
0.0119450004
8.04621324e-08
8.05580917e-08
0.015429731
0.0117237182
8.13800662e-08
8.15041562e-08
0.0147358232
0.011602211
8.29013756e-08
8.31786772e-08
0.0145975642
0.0114822498
8.45933347e-08
8.48876889e-08
0.0144795014
0.0113527602
8.61515362e-08
8.64612232e-08
0.0143597853
0.0112150723
8.75868525e-08
8.78909511e-08
0.0141816608
0.0110742957
8.89146254e-08
8.91937768e-08
0.013883691
0.0108893827
9.01453609e-08
9.0395065e-08
0.0133925793
0.0105606327
9.12910549e-08
9.15058752e-08
0.0125825705
0.00997051642
9.23665649e-08
9.25341229e-08
0.0114578176
0.00906454678
9.34013463e-08
9.34914571e-08
0.0088114804
0.00782330534
0.000120329731
9.43790809e-08
0.00456053213
0.00714891775
0.00926108562
9.5152406e-08
9.54457169e-08
0.00659794648
0.0115988821
9.58448017e-08
9.5601285e-08
0.00613583165
0.0119892075
9.63989981e-08
9.61184626e-08
0.00593831828
0.0114738871
9.68621775e-08
9.66089047e-08
0.00579051669
0.0107152312
9.7259271e-08
9.70450165e-08
0.0056255582
0.00994780938
9.76034437e-08
9.74249343e-08
0.00543641603
0.00922168657
9.79003623e-08
9.7751981e-08
0.00525309992
0.00853755783
9.8152779e-08
9.80310145e-08
0.00505208759
0.00792656663
9.83830678e-08
9.8264109e-08
0.00483730745
0.0073743006
9.86891332e-08
9.8547038e-08
0.00461035839
0.00686470456
9.89600907e-08
9.88291282e-08
0.00437628588
0.0063897268
9.9197522e-08
9.90746876e-08
0.0041398475
0.00594479224
9.94029663e-08
9.92868215e-08
0.0039051896
0.00552747593
9.95788814e-08
9.94683355e-08
0.00367476378
0.00513641568
9.9727747e-08
9.96218939e-08
0.00345113723
0.00477068942
9.98519026e-08
9.97500548e-08
0.00323632315
0.00442939963
9.99536011e-08
9.98552766e-08
0.00303153075
0.00411146582
1.00035033e-07
9.99399121e-08
0.00283725253
0.00381559813
1.00098316e-07
1.00006201e-07
0.00265350265
0.0035403664
1.00145475e-07
1.00056263e-07
0.00248003664
0.00328428904
1.00178424e-07
1.00092086e-07
0.00231649868
0.00304590407
1.00198956e-07
1.00115522e-07
0.00216250362
0.00282381207
1.00208737e-07
1.00128284e-07
0.00201767687
0.0026166949
1.002093e-07
1.00131941e-07
0.00188167308
0.00242331807
1.00202049e-07
1.00127929e-07
0.00175418848
0.00224252287
1.00188253e-07
1.00117552e-07
0.00163497996
0.00207320608
1.00169052e-07
1.0010199e-07
0.00152389795
0.00191428044
1.00145457e-07
1.00082312e-07
0.00142093124
0.00176460814
1.00118355e-07
1.00059486e-07
0.0013262194
0.00162293209
1.00088494e-07
1.00034408e-07
0.0012401089
0.00148771035
1.00056334e-07
1.00008068e-07
0.00116237674
0.00135778087
1.00022659e-07
9.99810203e-08
0.00109325527
0.00123126504
9.99870915e-08
9.99547634e-08
0.00103711062
0.00110364535
9.99495689e-08
9.99295432e-08
0.00100687344
0.000968465541
9.99106775e-08
9.9904463e-08
0.000987806149
0.000842276642
9.98681267e-08
9.98755836e-08
0.000974295512
0.000767160752
9.98317463e-08
9.98467523e-08
0.000913945928
0.000704209637
9.98025912e-08
9.98173936e-08
0.000842895838
0.000652380578
9.97757646e-08
9.97888903e-08
0.000771146011
0.000603599146
9.97504417e-08
9.97617632e-08
0.000703602485
0.000556129359
9.97261301e-08
9.97363274e-08
0.000643364376
0.000505962608
9.9702898e-08
9.9712413e-08
0.000592125541
0.000462136606
9.96811787e-08
9.96895246e-08
0.000535593754
0.000422452256
9.96620148e-08
9.96675668e-08
0.000484787894
0.000389261425
9.96428186e-08
9.96471911e-08
0.000440874956
0.000356117983
9.9624671e-08
9.96282279e-08
0.0003994947
0.000324021533
9.96085304e-08
9.96109918e-08
0.000354578626
0.000289234616
9.95950878e-08
9.95964493e-08
0.00029433575
0.00023372403
4.883815e-05
2.21216878e-05
0.000177906372
0.000137943514
0.000124549267
9.2919182e-05
0.000123076435
9.51808768e-05
0.000111685073
8.78748147e-05
0.000101194351
8.07129226e-05
9.09334245e-05
7.20452792e-05
8.06140697e-05
6.31396665e-05
6.99041299e-05
5.41451231e-05
5.88771834e-05
4.52389062e-05
4.7712631e-05
3.65102292e-05
3.66712675e-05
2.80209347e-05
2.6002935e-05
1.98802244e-05
1.65730865e-05
1.19267929e-05
8.06983405e-06
4.42255558e-06
3.61046101e-07
9.94575332e-08
9.9455337e-08
9.94538575e-08
9.94528377e-08
9.94522006e-08
9.94518225e-08
9.9451617e-08
9.94515154e-08
9.94514704e-08
9.94514539e-08
9.94514491e-08
9.94514487e-08
9.94514492e-08
9.94514497e-08
9.94514501e-08
9.94514502e-08
9.94514503e-08
9.94514503e-08
9.94514503e-08
9.94514503e-08
9.94514503e-08
9.94514503e-08
9.94514503e-08
9.94514503e-08
9.94514503e-08
9.94514503e-08
9.94514503e-08
9.94514503e-08
9.94514503e-08
9.94514503e-08
9.94514503e-08
9.94514503e-08
9.94514503e-08
9.94514503e-08
9.94514503e-08
9.94514503e-08
9.94514503e-08
9.94514503e-08
9.94514503e-08
9.94514503e-08
9.94514503e-08
9.94514503e-08
9.94514503e-08
9.94514503e-08
9.94514503e-08
9.94514503e-08
)
;

boundaryField
{
    closed
    {
        type            calculated;
        value           nonuniform List<scalar> 0();
    }
    open
    {
        type            calculated;
        value           uniform 0;
    }
    sides
    {
        type            empty;
    }
    procBoundary5to4
    {
        type            processor;
        value           uniform 0;
    }
}


// ************************************************************************* //
