/*--------------------------------*- C++ -*----------------------------------*\
| =========                 |                                                 |
| \\      /  F ield         | OpenFOAM: The Open Source CFD Toolbox           |
|  \\    /   O peration     | Version:  2306                                  |
|   \\  /    A nd           | Website:  www.openfoam.com                      |
|    \\/     M anipulation  |                                                 |
\*---------------------------------------------------------------------------*/
FoamFile
{
    version     2.0;
    format      ascii;
    arch        "LSB;label=32;scalar=64";
    class       volVectorField;
    location    "0.001";
    object      U;
}
// * * * * * * * * * * * * * * * * * * * * * * * * * * * * * * * * * * * * * //

dimensions      [0 1 -1 0 0 0 0];

internalField   nonuniform List<vector> 
530
(
(1.07057315 0 0)
(1.09246106 0 0)
(1.23219662 0 0)
(1.26304029 0 0)
(1.18151956 0 0)
(1.08648229 0 0)
(1.11926887 0 0)
(1.28176891 0 0)
(1.27869578 0 0)
(1.11779501 0 0)
(1.09768102 0 0)
(1.21864561 0 0)
(1.19301694 0 0)
(1.07219885 0 0)
(1.1033189 0 0)
(1.22524935 0 0)
(1.19978027 0 0)
(1.07638873 0 0)
(1.09655738 0 0)
(1.21679435 0 0)
(1.19990851 0 0)
(1.07768855 0 0)
(1.09155374 0 0)
(1.21164576 0 0)
(1.19502946 0 0)
(1.06782831 0 0)
(1.07883387 0 0)
(1.20873899 0 0)
(1.20283057 0 0)
(1.06814095 0 0)
(1.03928176 0 0)
(1.15429438 0 0)
(1.20201836 0 0)
(1.12276366 0 0)
(1.0859551 0 0)
(1.11789937 0 0)
(1.14221772 0 0)
(1.14960432 0 0)
(1.12979503 0 0)
(1.07704231 0 0)
(1.09373246 0 0)
(1.1804374 0 0)
(1.16318515 0 0)
(1.04091509 0 0)
(1.04034391 0 0)
(1.15459411 0 0)
(1.15199759 0 0)
(1.04236701 0 0)
(1.04085747 0 0)
(1.14133222 0 0)
(1.13885787 0 0)
(1.03734205 0 0)
(1.03687786 0 0)
(1.13387497 0 0)
(1.1310791 0 0)
(1.03273684 0 0)
(1.03423545 0 0)
(1.1305641 0 0)
(1.12705109 0 0)
(1.02914877 0 0)
(1.0307185 0 0)
(1.12527095 0 0)
(1.12010059 0 0)
(1.02472225 0 0)
(1.03187201 0 0)
(1.12818915 0 0)
(1.12068067 0 0)
(1.02495651 0 0)
(1.0326694 0 0)
(1.12779392 0 0)
(1.11787582 0 0)
(1.02089785 0 0)
(1.0283337 0 0)
(1.12135311 0 0)
(1.11067 0 0)
(1.01316741 0 0)
(1.01603343 0 0)
(1.10418626 0 0)
(1.09329523 0 0)
(0.996563245 0 0)
(0.998718013 0 0)
(1.08627097 0 0)
(1.07893816 0 0)
(0.986021728 0 0)
(0.986973367 0 0)
(1.07188605 0 0)
(1.06549319 0 0)
(0.976955843 0 0)
(0.978549156 0 0)
(1.06005631 0 0)
(1.05280882 0 0)
(0.96758571 0 0)
(0.97100197 0 0)
(1.05166189 0 0)
(1.04515374 0 0)
(0.961991384 0 0)
(0.965699988 0 0)
(1.04592146 0 0)
(1.03968633 0 0)
(0.95848428 0 0)
(0.965881863 0 0)
(1.04785669 0 0)
(1.03908135 0 0)
(0.955820866 0 0)
(0.96363272 0 0)
(1.04680585 0 0)
(1.03914307 0 0)
(0.955418778 0 0)
(0.961423632 0 0)
(1.04220356 0 0)
(1.03438586 0 0)
(0.952711271 0 0)
(0.958791224 0 0)
(1.0371506 0 0)
(1.02950364 0 0)
(0.950310737 0 0)
(0.955697678 0 0)
(1.03160654 0 0)
(1.02449315 0 0)
(0.948152254 0 0)
(0.954919101 0 0)
(1.02972835 0 0)
(1.02162006 0 0)
(0.944424691 0 0)
(0.949905311 0 0)
(1.02476434 0 0)
(1.01920756 0 0)
(0.943133187 0 0)
(0.946874189 0 0)
(1.02056894 0 0)
(1.01530435 0 0)
(0.939944753 0 0)
(0.942243895 0 0)
(1.01353339 0 0)
(1.00844408 0 0)
(0.934767507 0 0)
(0.936543934 0 0)
(1.00599095 0 0)
(1.00073469 0 0)
(0.927844635 0 0)
(0.928557662 0 0)
(0.996197087 0 0)
(0.993405406 0 0)
(0.923870704 0 0)
(0.922276945 0 0)
(0.985731761 0 0)
(0.9813532 0 0)
(0.912943419 0 0)
(0.911869755 0 0)
(0.974731142 0 0)
(0.970549842 0 0)
(0.902644068 0 0)
(0.901358096 0 0)
(0.963521413 0 0)
(0.95936291 0 0)
(0.893686545 0 0)
(0.893502012 0 0)
(0.953186554 0 0)
(0.947539865 0 0)
(0.885268703 0 0)
(0.88793369 0 0)
(0.945837356 0 0)
(0.940502677 0 0)
(0.883345622 0 0)
(0.889698967 0 0)
(0.94573629 0 0)
(0.939817168 0 0)
(0.886674305 0 0)
(0.894439318 0 0)
(0.94718042 0 0)
(0.939722864 0 0)
(0.889486297 0 0)
(0.899292144 0 0)
(0.95066123 0 0)
(0.94267669 0 0)
(0.894060961 0 0)
(0.904545874 0 0)
(0.954697256 0 0)
(0.945948309 0 0)
(0.898281022 0 0)
(0.90938493 0 0)
(0.958938755 0 0)
(0.950567992 0 0)
(0.904331491 0 0)
(0.915003815 0 0)
(0.962733191 0 0)
(0.954963326 0 0)
(0.910879339 0 0)
(0.921415646 0 0)
(0.967714146 0 0)
(0.960440777 0 0)
(0.917662152 0 0)
(0.928024576 0 0)
(0.973790385 0 0)
(0.967002173 0 0)
(0.924490271 0 0)
(0.934640931 0 0)
(0.981073936 0 0)
(0.974268414 0 0)
(0.93006144 0 0)
(0.939883617 0 0)
(0.988222791 0 0)
(0.981196993 0 0)
(0.933614016 0 0)
(0.942204612 0 0)
(0.99158455 0 0)
(0.983360508 0 0)
(0.933193367 0 0)
(0.941061466 0 0)
(0.990104073 0 0)
(0.979803162 0 0)
(0.92809357 0 0)
(0.935658247 0 0)
(0.98329574 0 0)
(0.972294705 0 0)
(0.920406762 0 0)
(0.925587757 0 0)
(0.970672442 0 0)
(0.961713533 0 0)
(0.912996795 0 0)
(0.916014128 0 0)
(0.95734993 0 0)
(0.94995084 0 0)
(0.905371074 0 0)
(0.907440446 0 0)
(0.945226232 0 0)
(0.938773199 0 0)
(0.897809878 0 0)
(0.899344352 0 0)
(0.93406207 0 0)
(0.928302365 0 0)
(0.890728016 0 0)
(0.892183162 0 0)
(0.924071393 0 0)
(0.918577091 0 0)
(0.884238605 0 0)
(0.886069266 0 0)
(0.915345673 0 0)
(0.90964093 0 0)
(0.877941799 0 0)
(0.880317183 0 0)
(0.907376594 0 0)
(0.901089036 0 0)
(0.871258399 0 0)
(0.874356483 0 0)
(0.899634442 0 0)
(0.892287717 0 0)
(0.864121188 0 0)
(0.868994262 0 0)
(0.89348066 0 0)
(0.883920085 0 0)
(0.8564729 0 0)
(0.863779798 0 0)
(0.888114768 0 0)
(0.879410768 0 0)
(0.857215101 0 0)
(0.877227166 0 0)
(0.914192575 0 0)
(0.918230841 0 0)
(0.90896001 0 0)
(0.877181549 0 0)
(0.858691511 0 0)
(0.892611279 0 0)
(0.902591805 0 0)
(0.869583971 0 0)
(0.856831319 0 0)
(0.879036604 0 0)
(0.879816507 0 0)
(0.853885816 0 0)
(0.849744291 0 0)
(0.870828771 0 0)
(0.870596795 0 0)
(0.847457377 0 0)
(0.845645324 0 0)
(0.865262657 0 0)
(0.86439191 0 0)
(0.843193746 0 0)
(0.84215717 0 0)
(0.860164617 0 0)
(0.859036716 0 0)
(0.839508776 0 0)
(0.838830957 0 0)
(0.855431517 0 0)
(0.854109904 0 0)
(0.836053755 0 0)
(0.835727317 0 0)
(0.851223423 0 0)
(0.849785614 0 0)
(0.832993132 0 0)
(0.833070407 0 0)
(0.847648269 0 0)
(0.846146997 0 0)
(0.830531993 0 0)
(0.830829712 0 0)
(0.8445792 0 0)
(0.843219497 0 0)
(0.828816229 0 0)
(0.829233691 0 0)
(0.842015138 0 0)
(0.840777558 0 0)
(0.827660889 0 0)
(0.828303055 0 0)
(0.840179564 0 0)
(0.838989054 0 0)
(0.827021606 0 0)
(0.827853455 0 0)
(0.838892634 0 0)
(0.837762532 0 0)
(0.826841688 0 0)
(0.827823317 0 0)
(0.838084101 0 0)
(0.837025964 0 0)
(0.827066995 0 0)
(0.828164053 0 0)
(0.837702722 0 0)
(0.836728617 0 0)
(0.827656814 0 0)
(0.828843519 0 0)
(0.837715975 0 0)
(0.836834672 0 0)
(0.82857986 0 0)
(0.829836655 0 0)
(0.838097142 0 0)
(0.837313181 0 0)
(0.829808024 0 0)
(0.831118478 0 0)
(0.8388171 0 0)
(0.838130496 0 0)
(0.831310069 0 0)
(0.832658869 0 0)
(0.839840163 0 0)
(0.839247082 0 0)
(0.833049404 0 0)
(0.834421832 0 0)
(0.841124746 0 0)
(0.840618726 0 0)
(0.834985658 0 0)
(0.836367931 0 0)
(0.842626653 0 0)
(0.842199896 0 0)
(0.837077935 0 0)
(0.838457776 0 0)
(0.844302761 0 0)
(0.84394716 0 0)
(0.83928784 0 0)
(0.840654874 0 0)
(0.84611368 0 0)
(0.845821411 0 0)
(0.841581279 0 0)
(0.842927115 0 0)
(0.848024923 0 0)
(0.847788671 0 0)
(0.843928932 0 0)
(0.845247021 0 0)
(0.850006935 0 0)
(0.849819893 0 0)
(0.846305942 0 0)
(0.84759136 0 0)
(0.852034599 0 0)
(0.85189041 0 0)
(0.848691365 0 0)
(0.849940614 0 0)
(0.854086692 0 0)
(0.85397938 0 0)
(0.851067673 0 0)
(0.852278545 0 0)
(0.856145403 0 0)
(0.85606925 0 0)
(0.853420174 0 0)
(0.854591547 0 0)
(0.858195474 0 0)
(0.858144615 0 0)
(0.855735725 0 0)
(0.85686725 0 0)
(0.860222534 0 0)
(0.860190531 0 0)
(0.858001126 0 0)
(0.859093531 0 0)
(0.862212482 0 0)
(0.862190027 0 0)
(0.860200796 0 0)
(0.861256093 0 0)
(0.864148137 0 0)
(0.864128738 0 0)
(0.862323898 0 0)
(0.863343094 0 0)
(0.86601641 0 0)
(0.865993208 0 0)
(0.86435781 0 0)
(0.865323984 0 0)
(0.867778555 0 0)
(0.867753903 0 0)
(0.866268741 0 0)
(0.86719145 0 0)
(0.869393692 0 0)
(0.869267015 0 0)
(0.86793601 0 0)
(0.868925018 0 0)
(0.870884618 0 0)
(0.870694094 0 0)
(0.869704993 0 0)
(0.870802069 0 0)
(0.87242088 0 0)
(0.872060924 0 0)
(0.871173869 0 0)
(0.872122479 0 0)
(0.873565066 0 0)
(0.873284707 0 0)
(0.872540503 0 0)
(0.873425216 0 0)
(0.874757991 0 0)
(0.874520813 0 0)
(0.873847099 0 0)
(0.87464433 0 0)
(0.875864522 0 0)
(0.875655622 0 0)
(0.875037381 0 0)
(0.875768136 0 0)
(0.876895049 0 0)
(0.876709862 0 0)
(0.876139318 0 0)
(0.876799555 0 0)
(0.877823204 0 0)
(0.877635047 0 0)
(0.877107495 0 0)
(0.877728774 0 0)
(0.878639733 0 0)
(0.878375909 0 0)
(0.877839078 0 0)
(0.878409294 0 0)
(0.879258297 0 0)
(0.879051205 0 0)
(0.878586144 0 0)
(0.879135141 0 0)
(0.879930084 0 0)
(0.879757003 0 0)
(0.879331111 0 0)
(0.879814409 0 0)
(0.88051862 0 0)
(0.880335233 0 0)
(0.879917591 0 0)
(0.880325548 0 0)
(0.880939858 0 0)
(0.880735381 0 0)
(0.880303789 0 0)
(0.880653157 0 0)
(0.881225513 0 0)
(0.880988342 0 0)
(0.880455295 0 0)
(0.880669717 0 0)
(0.881134457 0 0)
(0.88037579 0 0)
(0.878995458 0 0)
(0.879452481 0 0)
(0.880948651 0 0)
(0.881210553 0 0)
(0.880268392 0 0)
(0.879705225 0 0)
(0.879460237 0 0)
(0.879043103 0 0)
(0.878462329 0 0)
(0.87781323 0 0)
(0.877077873 0 0)
(0.876218306 0 0)
(0.875210264 0 0)
(0.874026364 0 0)
(0.872633044 0 0)
(0.870990274 0 0)
(0.869052497 0 0)
(0.86676629 0 0)
(0.864070579 0 0)
(0.860894205 0 0)
(0.857156493 0 0)
(0.852764998 0 0)
(0.847616692 0 0)
(0.841597137 0 0)
(0.834583052 0 0)
(0.826444813 0 0)
(0.817052412 0 0)
(0.806284104 0 0)
(0.794039337 0 0)
(0.780257335 0 0)
(0.764941838 0 0)
(0.748192107 0 0)
(0.730245309 0 0)
(0.711516952 0 0)
(0.692646076 0 0)
(0.674541384 0 0)
(0.658404796 0 0)
(0.645726881 0 0)
(0.63823441 0 0)
(0.63777193 0 0)
(0.646104313 0 0)
(0.664639522 0 0)
(0.694090882 0 0)
(0.734124063 0 0)
(0.783059699 0 0)
(0.837720326 0 0)
(0.893516364 0 0)
(0.944847359 0 0)
(0.985842786 0 0)
(1.01139987 0 0)
(1.01838096 0 0)
(1.00668852 0 0)
(0.979779445 0 0)
(0.944143418 0 0)
(0.907516703 0 0)
(0.876261826 0 0)
(0.853006955 0 0)
(0.835813426 0 0)
(0.819900319 0 0)
(0.802514684 0 0)
(0.787767348 0 0)
(0.785628408 0 0)
(0.801467162 0 0)
(0.83008107 0 0)
(0.856156372 0 0)
(0.874272029 0 0)
(0.880283347 0 0)
(0.883541326 0 0)
(0.864714557 0 0)
(0.844440107 0 0)
(0.813242741 0 0)
(0.832173095 0 0)
(0.85762489 0 0)
(0.976070785 0 0)
(1.06776877 0 0)
(1.16433166 0 0)
(1.16234361 0 0)
(1.13100292 0 0)
)
;

boundaryField
{
    closed
    {
        type            noSlip;
    }
    open
    {
        type            inletOutlet;
        inletValue      uniform (0 0 0);
        value           uniform (1.13100292 0 0);
    }
    sides
    {
        type            empty;
    }
    procBoundary5to4
    {
        type            processor;
        value           uniform (1.22090202 0 0);
    }
}


// ************************************************************************* //
