/*--------------------------------*- C++ -*----------------------------------*\
| =========                 |                                                 |
| \\      /  F ield         | OpenFOAM: The Open Source CFD Toolbox           |
|  \\    /   O peration     | Version:  2306                                  |
|   \\  /    A nd           | Website:  www.openfoam.com                      |
|    \\/     M anipulation  |                                                 |
\*---------------------------------------------------------------------------*/
FoamFile
{
    version     2.0;
    format      ascii;
    arch        "LSB;label=32;scalar=64";
    class       volScalarField;
    location    "0.00136";
    object      alpha;
}
// * * * * * * * * * * * * * * * * * * * * * * * * * * * * * * * * * * * * * //

dimensions      [1 -1 -1 0 0 0 0];

internalField   nonuniform List<scalar> 
530
(
3.68138634e-05
3.63474719e-05
3.54051638e-05
3.53546886e-05
3.59483097e-05
3.68147798e-05
3.64333315e-05
3.54130858e-05
3.53483215e-05
3.59285599e-05
3.6815316e-05
3.65159695e-05
3.5425377e-05
3.53413537e-05
3.59006263e-05
3.68150244e-05
3.67041332e-05
3.54509971e-05
3.53337938e-05
3.5888465e-05
3.68118679e-05
3.68282134e-05
3.55498574e-05
3.53645262e-05
3.54731424e-05
3.5454431e-05
3.59090452e-05
3.68297848e-05
3.68462753e-05
3.68504993e-05
3.60954197e-05
3.57079604e-05
3.582318e-05
3.68450913e-05
3.64188472e-05
3.53399818e-05
3.52240547e-05
3.52563896e-05
3.58195956e-05
3.68310873e-05
3.64755825e-05
3.53062644e-05
3.52110835e-05
3.58388802e-05
3.68194777e-05
3.67450604e-05
3.5522346e-05
3.51986857e-05
3.54306964e-05
3.61374361e-05
3.68264752e-05
3.68075084e-05
3.68328684e-05
3.61663539e-05
3.53304257e-05
3.51205239e-05
3.58118725e-05
3.68260388e-05
3.63995642e-05
3.54228246e-05
3.5218643e-05
3.52640197e-05
3.58712753e-05
3.68256327e-05
3.63545324e-05
3.53821942e-05
3.5261751e-05
3.59791127e-05
3.68169921e-05
3.63554853e-05
3.54233291e-05
3.52783308e-05
3.59937664e-05
3.68392854e-05
3.60918498e-05
3.5702387e-05
3.58608733e-05
3.68491529e-05
3.68317933e-05
3.5654921e-05
3.52903901e-05
3.5367526e-05
3.52379998e-05
3.57870176e-05
3.67924927e-05
3.68504912e-05
3.63493609e-05
3.54083655e-05
3.52300696e-05
3.60547117e-05
3.6832831e-05
3.58731341e-05
3.55614724e-05
3.59525292e-05
3.68329145e-05
3.6022277e-05
3.52114552e-05
3.51786555e-05
3.60904224e-05
3.68372668e-05
3.58015916e-05
3.55282097e-05
3.61104923e-05
3.68380452e-05
3.58076722e-05
3.56060138e-05
3.61601306e-05
3.68107894e-05
3.59367889e-05
3.51933673e-05
3.52517937e-05
3.65368332e-05
3.67964777e-05
3.58673404e-05
3.51726642e-05
3.52571595e-05
3.65795503e-05
3.67950647e-05
3.58566135e-05
3.51605849e-05
3.5239301e-05
3.65370831e-05
3.68240182e-05
3.57813338e-05
3.56247928e-05
3.65817474e-05
3.68079492e-05
3.58693492e-05
3.52183336e-05
3.52940265e-05
3.66698128e-05
3.67961467e-05
3.58863974e-05
3.5217951e-05
3.52828334e-05
3.66693625e-05
3.67992301e-05
3.58819297e-05
3.52009016e-05
3.52637511e-05
3.67055685e-05
3.67996877e-05
3.58654116e-05
3.51690475e-05
3.52212439e-05
3.66286596e-05
3.68338313e-05
3.57903884e-05
3.55773965e-05
3.67841663e-05
3.68150004e-05
3.58356101e-05
3.51531735e-05
3.5191451e-05
3.67019489e-05
3.68346244e-05
3.57945921e-05
3.55713309e-05
3.67700787e-05
3.68188306e-05
3.58505003e-05
3.51976914e-05
3.52123417e-05
3.67715995e-05
3.68009349e-05
3.58624088e-05
3.51694606e-05
3.51799779e-05
3.67098408e-05
3.68354776e-05
3.57929506e-05
3.55716653e-05
3.675945e-05
3.68185177e-05
3.58600014e-05
3.52444058e-05
3.52460538e-05
3.67518426e-05
3.68032388e-05
3.59249725e-05
3.53004916e-05
3.53018394e-05
3.67141127e-05
3.68047622e-05
3.59662649e-05
3.53441594e-05
3.5344722e-05
3.66750827e-05
3.68104749e-05
3.60776224e-05
3.56027674e-05
3.54747065e-05
3.50649696e-05
3.50705797e-05
3.65227301e-05
3.68260719e-05
3.57794634e-05
3.54454147e-05
3.66426701e-05
3.68279795e-05
3.57908541e-05
3.5536319e-05
3.67052824e-05
3.68002834e-05
3.58237393e-05
3.5109133e-05
3.51114441e-05
3.66140363e-05
3.68280098e-05
3.57770238e-05
3.53565982e-05
3.66357312e-05
3.68385834e-05
3.57752267e-05
3.53179133e-05
3.66086567e-05
3.68369501e-05
3.57586464e-05
3.52922629e-05
3.6612192e-05
3.68377426e-05
3.57595006e-05
3.53170903e-05
3.66508383e-05
3.68351648e-05
3.57694036e-05
3.53950315e-05
3.67326324e-05
3.68101859e-05
3.57850494e-05
3.50428775e-05
3.50474657e-05
3.67258166e-05
3.68328217e-05
3.57585435e-05
3.54768103e-05
3.67635258e-05
3.68149109e-05
3.58011053e-05
3.52000949e-05
3.52019182e-05
3.67566883e-05
3.68381238e-05
3.57497978e-05
3.54826531e-05
3.67882949e-05
3.68247903e-05
3.57854899e-05
3.5210703e-05
3.52255046e-05
3.68140906e-05
3.68105485e-05
3.57865382e-05
3.51595341e-05
3.51609547e-05
3.68129795e-05
3.68477348e-05
3.57332731e-05
3.54890428e-05
3.6830402e-05
3.68313908e-05
3.57757398e-05
3.52676558e-05
3.53750021e-05
3.68352083e-05
3.68217493e-05
3.58050735e-05
3.53482865e-05
3.54881522e-05
3.68360627e-05
3.68414474e-05
3.57831599e-05
3.55140835e-05
3.53352964e-05
3.53995922e-05
3.68520933e-05
3.68215047e-05
3.5756178e-05
3.51902086e-05
3.53181264e-05
3.68478874e-05
3.6860849e-05
3.57181893e-05
3.5481599e-05
3.68844005e-05
3.68360691e-05
3.57480975e-05
3.52417754e-05
3.5453378e-05
3.6862364e-05
3.68314367e-05
3.57497474e-05
3.52633373e-05
3.55457411e-05
3.68621795e-05
3.68315661e-05
3.57523149e-05
3.52471972e-05
3.5491867e-05
3.68662179e-05
3.68303166e-05
3.57423877e-05
3.52321678e-05
3.55037417e-05
3.68672924e-05
3.68315498e-05
3.57388879e-05
3.52397945e-05
3.55227282e-05
3.68670516e-05
3.68312152e-05
3.5739426e-05
3.5254089e-05
3.55504375e-05
3.68651579e-05
3.68300138e-05
3.57396569e-05
3.5260753e-05
3.55591981e-05
3.68609081e-05
3.68258325e-05
3.57424488e-05
3.5253049e-05
3.55416846e-05
3.68592375e-05
3.68251988e-05
3.57282292e-05
3.51527601e-05
3.54071333e-05
3.68564133e-05
3.68047124e-05
3.57378877e-05
3.50345065e-05
3.52083127e-05
3.68253472e-05
3.68076765e-05
3.63377782e-05
3.54151909e-05
3.54109323e-05
3.68735676e-05
3.68102026e-05
3.57149834e-05
3.51214264e-05
3.54321355e-05
3.68509387e-05
3.68176766e-05
3.57311342e-05
3.52241499e-05
3.5481369e-05
3.68454345e-05
3.68466978e-05
3.57275148e-05
3.55942929e-05
3.68679807e-05
3.6821834e-05
3.57244415e-05
3.52869172e-05
3.56122392e-05
3.6833414e-05
3.68364476e-05
3.57377088e-05
3.53372429e-05
3.52057795e-05
3.52069923e-05
3.68370618e-05
3.68318104e-05
3.55284587e-05
3.53947754e-05
3.68592994e-05
3.68115558e-05
3.56734951e-05
3.50038601e-05
3.53159699e-05
3.68179049e-05
3.68415778e-05
3.5493841e-05
3.53538034e-05
3.68291753e-05
3.68447855e-05
3.54752965e-05
3.53576276e-05
3.6829128e-05
3.68425439e-05
3.54527666e-05
3.53442366e-05
3.68298422e-05
3.68436381e-05
3.54435582e-05
3.53379864e-05
3.68304867e-05
3.6844833e-05
3.54519398e-05
3.53534236e-05
3.68317447e-05
3.6839896e-05
3.54751734e-05
3.53929953e-05
3.68408008e-05
3.68174371e-05
3.55240496e-05
3.48987322e-05
3.52931518e-05
3.68178973e-05
3.68525886e-05
3.54016117e-05
3.52904758e-05
3.68197888e-05
3.68516086e-05
3.54601587e-05
3.53568108e-05
3.68234045e-05
3.6843723e-05
3.54978626e-05
3.54288588e-05
3.68314212e-05
3.68215332e-05
3.55110947e-05
3.49628338e-05
3.53825616e-05
3.68191672e-05
3.68600872e-05
3.54386733e-05
3.53427149e-05
3.68174254e-05
3.68591447e-05
3.55204474e-05
3.54246568e-05
3.6825545e-05
3.68527665e-05
3.55761971e-05
3.55384882e-05
3.68378535e-05
3.68286269e-05
3.55670327e-05
3.51130586e-05
3.56788877e-05
3.68179145e-05
3.68432005e-05
3.68385449e-05
3.570908e-05
3.53490522e-05
3.54647952e-05
3.54491266e-05
3.52885029e-05
3.55552287e-05
3.68313568e-05
3.68626752e-05
3.56905383e-05
3.56718814e-05
3.68231117e-05
3.6844069e-05
3.56773455e-05
3.53004374e-05
3.56757998e-05
3.68171107e-05
3.68819648e-05
3.57002539e-05
3.56531082e-05
3.68106561e-05
3.68480116e-05
3.56687855e-05
3.5254663e-05
3.56940556e-05
3.68087661e-05
3.68569403e-05
3.56513586e-05
3.52033235e-05
3.56997174e-05
3.68038136e-05
3.68527856e-05
3.56183907e-05
3.51426174e-05
3.55830886e-05
3.67965504e-05
3.68748707e-05
3.56974543e-05
3.55840594e-05
3.67608462e-05
3.68388216e-05
3.56527072e-05
3.51280933e-05
3.56700976e-05
3.67730648e-05
3.68528293e-05
3.56533305e-05
3.50846182e-05
3.54880512e-05
3.67638113e-05
3.68704904e-05
3.56994982e-05
3.5565164e-05
3.66796181e-05
3.68322001e-05
3.56678616e-05
3.50841311e-05
3.54006036e-05
3.67164133e-05
3.68671756e-05
3.57045342e-05
3.55330808e-05
3.64535643e-05
3.68484365e-05
3.5729499e-05
3.56674488e-05
3.63625247e-05
3.6813693e-05
3.57355982e-05
3.52806083e-05
3.54124481e-05
3.64974416e-05
3.68277726e-05
3.58182347e-05
3.53617809e-05
3.53743438e-05
3.62958948e-05
3.68084924e-05
3.59212836e-05
3.54456312e-05
3.53907632e-05
3.61223312e-05
3.67906546e-05
3.60202225e-05
3.55163869e-05
3.54042838e-05
3.60178534e-05
3.67762896e-05
3.60962341e-05
3.55632022e-05
3.54057253e-05
3.59571479e-05
)
;

boundaryField
{
    closed
    {
        type            calculated;
        value           nonuniform List<scalar> 0();
    }
    open
    {
        type            calculated;
        value           nonuniform List<scalar> 0();
    }
    sides
    {
        type            empty;
    }
    procBoundary2to1
    {
        type            processor;
        value           uniform 3.59757952e-05;
    }
    procBoundary2to3
    {
        type            processor;
        value           uniform 3.67674146e-05;
    }
}


// ************************************************************************* //
