/*--------------------------------*- C++ -*----------------------------------*\
| =========                 |                                                 |
| \\      /  F ield         | OpenFOAM: The Open Source CFD Toolbox           |
|  \\    /   O peration     | Version:  2306                                  |
|   \\  /    A nd           | Website:  www.openfoam.com                      |
|    \\/     M anipulation  |                                                 |
\*---------------------------------------------------------------------------*/
FoamFile
{
    version     2.0;
    format      ascii;
    arch        "LSB;label=32;scalar=64";
    class       volScalarField;
    location    "0.00136";
    object      prefDZ_H2;
}
// * * * * * * * * * * * * * * * * * * * * * * * * * * * * * * * * * * * * * //

dimensions      [1 -1 -1 0 0 0 0];

internalField   nonuniform List<scalar> 
530
(
6.35346167e-05
6.28646373e-05
6.18806001e-05
6.1803212e-05
6.24426781e-05
6.35372016e-05
6.29620828e-05
6.18924356e-05
6.1793249e-05
6.24248997e-05
6.35393791e-05
6.30571248e-05
6.19107048e-05
6.17824634e-05
6.24014804e-05
6.35406872e-05
6.32767743e-05
6.19482869e-05
6.17697797e-05
6.23920942e-05
6.3538729e-05
6.35187292e-05
6.20924384e-05
6.18125752e-05
6.19804588e-05
6.19503307e-05
6.24021237e-05
6.35676696e-05
6.36043903e-05
6.36091915e-05
6.25882948e-05
6.23223194e-05
6.23359828e-05
6.36000549e-05
6.29462333e-05
6.17858526e-05
6.16150375e-05
6.16620317e-05
6.23356305e-05
6.35665214e-05
6.30110995e-05
6.17376065e-05
6.15936072e-05
6.23567558e-05
6.35550915e-05
6.33407589e-05
6.20523296e-05
6.15692431e-05
6.1917747e-05
6.26340006e-05
6.35661554e-05
6.35260845e-05
6.35767014e-05
6.26648042e-05
6.17751839e-05
6.14634357e-05
6.23263368e-05
6.35662269e-05
6.29243268e-05
6.19072414e-05
6.16067912e-05
6.1674739e-05
6.23740881e-05
6.35689624e-05
6.28727269e-05
6.18488623e-05
6.16683669e-05
6.24716197e-05
6.35557151e-05
6.28735755e-05
6.19091023e-05
6.16936784e-05
6.24846453e-05
6.35991591e-05
6.25854654e-05
6.22930181e-05
6.23699034e-05
6.36276502e-05
6.35404452e-05
6.22504508e-05
6.17047486e-05
6.18313383e-05
6.16312868e-05
6.2295761e-05
6.34942108e-05
6.36265941e-05
6.28661019e-05
6.18904644e-05
6.16219965e-05
6.25447348e-05
6.35749021e-05
6.23684321e-05
6.2110638e-05
6.24423155e-05
6.35736717e-05
6.25135974e-05
6.15988337e-05
6.1551645e-05
6.25827505e-05
6.3576676e-05
6.23137848e-05
6.206348e-05
6.26041437e-05
6.35863345e-05
6.23206039e-05
6.21758687e-05
6.2657704e-05
6.35339099e-05
6.2432018e-05
6.15664744e-05
6.16566076e-05
6.30827023e-05
6.35027979e-05
6.2377533e-05
6.15349377e-05
6.16640031e-05
6.31324025e-05
6.35001944e-05
6.23686576e-05
6.15173676e-05
6.16405175e-05
6.30824984e-05
6.3558586e-05
6.23568808e-05
6.2203402e-05
6.31350998e-05
6.35338703e-05
6.23819255e-05
6.16011721e-05
6.17174337e-05
6.32375002e-05
6.35092277e-05
6.23967387e-05
6.1600387e-05
6.17010313e-05
6.32372143e-05
6.35150882e-05
6.23932319e-05
6.15754577e-05
6.16729916e-05
6.32800274e-05
6.35158903e-05
6.23792671e-05
6.1529048e-05
6.16136097e-05
6.31891841e-05
6.35834547e-05
6.23899039e-05
6.21341306e-05
6.34063984e-05
6.35507296e-05
6.23621419e-05
6.15054929e-05
6.15690744e-05
6.32749783e-05
6.35869249e-05
6.23971478e-05
6.21254739e-05
6.33782596e-05
6.35588713e-05
6.23750026e-05
6.1571224e-05
6.15961742e-05
6.33877437e-05
6.35210274e-05
6.23789232e-05
6.15292969e-05
6.1552266e-05
6.32842221e-05
6.35884213e-05
6.23932846e-05
6.21261741e-05
6.33561718e-05
6.35590572e-05
6.23814421e-05
6.16398567e-05
6.16456717e-05
6.33509031e-05
6.3529774e-05
6.24304359e-05
6.17226082e-05
6.17281743e-05
6.32893854e-05
6.35339324e-05
6.24660004e-05
6.17870481e-05
6.17915577e-05
6.32431829e-05
6.35503978e-05
6.25739111e-05
6.21702982e-05
6.19801058e-05
6.13771788e-05
6.13908656e-05
6.30664358e-05
6.35627444e-05
6.23908884e-05
6.19409199e-05
6.32061621e-05
6.35764079e-05
6.24009154e-05
6.2071767e-05
6.32791514e-05
6.35219093e-05
6.23603842e-05
6.14402404e-05
6.145064e-05
6.31707912e-05
6.35677401e-05
6.23992311e-05
6.18117417e-05
6.31985119e-05
6.35878565e-05
6.24142058e-05
6.17550545e-05
6.31668281e-05
6.35831136e-05
6.23926603e-05
6.17174668e-05
6.31711015e-05
6.35845533e-05
6.23939633e-05
6.17539125e-05
6.3216351e-05
6.3582956e-05
6.24018939e-05
6.18660001e-05
6.33123698e-05
6.35358389e-05
6.23371132e-05
6.13456103e-05
6.13578472e-05
6.33064087e-05
6.35803244e-05
6.23651385e-05
6.19867226e-05
6.33733415e-05
6.35515544e-05
6.23398696e-05
6.15772921e-05
6.15836715e-05
6.33856138e-05
6.35952642e-05
6.23529543e-05
6.19965757e-05
6.34293843e-05
6.35708061e-05
6.23318918e-05
6.15952067e-05
6.16154977e-05
6.35120172e-05
6.35433066e-05
6.23200409e-05
6.15199677e-05
6.15253305e-05
6.35097346e-05
6.36135715e-05
6.23402251e-05
6.20071944e-05
6.35245314e-05
6.35864349e-05
6.23168251e-05
6.16798725e-05
6.18370626e-05
6.35628125e-05
6.35719439e-05
6.23259213e-05
6.1797987e-05
6.20047763e-05
6.35717133e-05
6.3613503e-05
6.23206435e-05
6.20437164e-05
6.17794517e-05
6.18736296e-05
6.36026265e-05
6.35683071e-05
6.22953323e-05
6.15667336e-05
6.1758383e-05
6.35913633e-05
6.36404075e-05
6.23356462e-05
6.19975443e-05
6.36481085e-05
6.35957302e-05
6.22983033e-05
6.16430313e-05
6.19540267e-05
6.36247621e-05
6.35883142e-05
6.22940098e-05
6.1674957e-05
6.20898126e-05
6.36273779e-05
6.35899416e-05
6.22963452e-05
6.16516667e-05
6.20110485e-05
6.36341307e-05
6.35851445e-05
6.22902923e-05
6.1629772e-05
6.20290427e-05
6.36365764e-05
6.35873279e-05
6.22880948e-05
6.16410865e-05
6.20570624e-05
6.36371925e-05
6.35872101e-05
6.22881032e-05
6.16619199e-05
6.20976031e-05
6.36350327e-05
6.35855678e-05
6.22908174e-05
6.16712751e-05
6.21099083e-05
6.36282318e-05
6.3577952e-05
6.22967757e-05
6.16595025e-05
6.20836989e-05
6.36249148e-05
6.35733299e-05
6.23058203e-05
6.15126278e-05
6.1885323e-05
6.36176538e-05
6.35324509e-05
6.23064588e-05
6.13353825e-05
6.15952485e-05
6.35344713e-05
6.35460214e-05
6.28533202e-05
6.18962707e-05
6.18859839e-05
6.36400215e-05
6.35425824e-05
6.23140384e-05
6.14653162e-05
6.19229369e-05
6.3608874e-05
6.3560541e-05
6.22992251e-05
6.16155988e-05
6.19970294e-05
6.36021344e-05
6.36216666e-05
6.23518946e-05
6.21611812e-05
6.36398267e-05
6.35737027e-05
6.23014866e-05
6.17063793e-05
6.21873155e-05
6.35829399e-05
6.36019494e-05
6.23514502e-05
6.17832475e-05
6.15888154e-05
6.15930418e-05
6.35783322e-05
6.3584569e-05
6.20611458e-05
6.18664223e-05
6.36171135e-05
6.35442108e-05
6.22752949e-05
6.12902092e-05
6.17536556e-05
6.35406968e-05
6.36047325e-05
6.20074581e-05
6.18099802e-05
6.35566907e-05
6.36104822e-05
6.19802599e-05
6.18151441e-05
6.35556337e-05
6.36062143e-05
6.19479125e-05
6.17955032e-05
6.3556276e-05
6.36075558e-05
6.1935076e-05
6.17865396e-05
6.35574605e-05
6.36097137e-05
6.19480153e-05
6.18089677e-05
6.35608019e-05
6.3602005e-05
6.19831159e-05
6.18643892e-05
6.35797963e-05
6.35531918e-05
6.20583784e-05
6.11381421e-05
6.17213164e-05
6.35363824e-05
6.36218565e-05
6.1875029e-05
6.1718424e-05
6.35377494e-05
6.3620144e-05
6.19611431e-05
6.1814324e-05
6.35466621e-05
6.36091484e-05
6.20174361e-05
6.19172821e-05
6.35636222e-05
6.35629118e-05
6.204065e-05
6.12328636e-05
6.18527059e-05
6.3541121e-05
6.36382332e-05
6.193105e-05
6.17956405e-05
6.35374832e-05
6.36357967e-05
6.20517108e-05
6.19145202e-05
6.35549505e-05
6.36287036e-05
6.21348043e-05
6.20786324e-05
6.35804888e-05
6.35818701e-05
6.21261619e-05
6.14529531e-05
6.2271781e-05
6.35402202e-05
6.36311982e-05
6.36034677e-05
6.22796795e-05
6.18003511e-05
6.19721574e-05
6.19467746e-05
6.17129903e-05
6.21032221e-05
6.35755015e-05
6.36515242e-05
6.23032048e-05
6.22753048e-05
6.35631906e-05
6.36150156e-05
6.22736762e-05
6.17290414e-05
6.22659182e-05
6.35497101e-05
6.3686388e-05
6.2314162e-05
6.22487479e-05
6.35317902e-05
6.36190891e-05
6.2274232e-05
6.166183e-05
6.22783096e-05
6.35282104e-05
6.36338374e-05
6.22479594e-05
6.15870467e-05
6.23003242e-05
6.3512668e-05
6.36238425e-05
6.22001998e-05
6.14978646e-05
6.21448995e-05
6.34947943e-05
6.36644705e-05
6.23109542e-05
6.21455331e-05
6.34117144e-05
6.35946922e-05
6.22513179e-05
6.14743552e-05
6.2272156e-05
6.3443072e-05
6.36188416e-05
6.22520468e-05
6.14121128e-05
6.20030942e-05
6.34198085e-05
6.36502996e-05
6.22970762e-05
6.21167645e-05
6.32429302e-05
6.3576777e-05
6.22547091e-05
6.14094786e-05
6.18735134e-05
6.33159895e-05
6.36393915e-05
6.22710093e-05
6.20709854e-05
6.29836667e-05
6.3602043e-05
6.22757335e-05
6.22661988e-05
6.28808545e-05
6.35386165e-05
6.22583303e-05
6.16975458e-05
6.1889064e-05
6.30322132e-05
6.35632524e-05
6.23208714e-05
6.18187557e-05
6.1832039e-05
6.2806282e-05
6.35208509e-05
6.2413862e-05
6.19428465e-05
6.18567715e-05
6.26178886e-05
6.34801914e-05
6.25118268e-05
6.2047835e-05
6.18768458e-05
6.25090999e-05
6.34472078e-05
6.25904657e-05
6.21173655e-05
6.18788624e-05
6.24483312e-05
)
;

boundaryField
{
    closed
    {
        type            calculated;
        value           nonuniform List<scalar> 0();
    }
    open
    {
        type            calculated;
        value           nonuniform List<scalar> 0();
    }
    sides
    {
        type            empty;
    }
    procBoundary2to1
    {
        type            processor;
        value           uniform 6.24684223e-05;
    }
    procBoundary2to3
    {
        type            processor;
        value           uniform 6.34259484e-05;
    }
}


// ************************************************************************* //
