/*--------------------------------*- C++ -*----------------------------------*\
| =========                 |                                                 |
| \\      /  F ield         | OpenFOAM: The Open Source CFD Toolbox           |
|  \\    /   O peration     | Version:  2306                                  |
|   \\  /    A nd           | Website:  www.openfoam.com                      |
|    \\/     M anipulation  |                                                 |
\*---------------------------------------------------------------------------*/
FoamFile
{
    version     2.0;
    format      ascii;
    arch        "LSB;label=32;scalar=64";
    class       volScalarField;
    location    "0.00136";
    object      Z;
}
// * * * * * * * * * * * * * * * * * * * * * * * * * * * * * * * * * * * * * //

dimensions      [0 0 0 0 0 0 0];

internalField   nonuniform List<scalar> 
530
(
0.0140888411
0.0142478084
0.0147744495
0.0147917806
0.0144038995
0.0140880967
0.0142236606
0.0147721851
0.0147942346
0.0144159946
0.0140872885
0.014202166
0.0147688139
0.0147967303
0.0144355373
0.0140863306
0.0141576124
0.0147625809
0.0148008773
0.014445195
0.0140849967
0.0141083391
0.0147398783
0.0147970726
0.0147577037
0.0147666634
0.0144209371
0.0140825653
0.0140747086
0.0140752879
0.0143327942
0.0146897079
0.0144893928
0.0140762258
0.014228799
0.0147888181
0.0148176714
0.0148106302
0.0144956427
0.0140842092
0.0142134331
0.0147950741
0.0148241413
0.0144889039
0.0140816689
0.0141442305
0.0147461952
0.0148354659
0.0147687637
0.0143176843
0.0140808596
0.014088745
0.0140798783
0.0143068151
0.0147858868
0.0148417213
0.0144971711
0.0140804814
0.0142342279
0.0147689759
0.0148193949
0.0148065793
0.0144523463
0.014078624
0.014245988
0.0147768783
0.0148115881
0.0143867565
0.0140793839
0.0142452944
0.0147670157
0.0148062075
0.0143777012
0.0140722095
0.0143351999
0.0146583608
0.0144659563
0.0140637985
0.0140991631
0.0147066008
0.014812972
0.0147739949
0.0148203732
0.0145011447
0.0140951091
0.0140654578
0.014246033
0.0147651998
0.0148189163
0.0143481482
0.0140808594
0.014441141
0.014734974
0.0143958227
0.0140816136
0.014364816
0.0148173849
0.0148238914
0.0143344651
0.0140832794
0.0144989502
0.014740314
0.0143268615
0.0140784734
0.0144970522
0.0147241395
0.0143089157
0.0140868752
0.0144105601
0.0148298749
0.0148097923
0.0141993279
0.0140933452
0.0144644488
0.014836275
0.014809212
0.0141889905
0.014093723
0.0144722
0.0148388715
0.0148094845
0.0141984418
0.0140832146
0.0145985046
0.0147194999
0.01418869
0.0140847032
0.0144667891
0.0148267192
0.0148013798
0.0141670951
0.0140894763
0.014455453
0.0148271167
0.0148040262
0.0141675918
0.0140885528
0.0144589423
0.0148309572
0.0148086432
0.0141598119
0.0140884539
0.014470471
0.0148378961
0.0148144366
0.0141764523
0.0140768248
0.0146284039
0.0147307979
0.014136889
0.0140806536
0.0145026263
0.0148419169
0.0148227512
0.01415935
0.0140754845
0.0146307186
0.0147318685
0.0141419015
0.0140790308
0.0144925657
0.0148310527
0.0148228317
0.0141379279
0.0140865201
0.0144756274
0.0148382783
0.0148254495
0.0141575091
0.0140753046
0.0146283316
0.0147314105
0.0141461583
0.0140786816
0.0144836749
0.0148200421
0.0148148185
0.0141436063
0.0140833612
0.0144301125
0.0148062266
0.0148005955
0.0141567692
0.0140821908
0.0144024611
0.0147953634
0.0147896116
0.0141650766
0.0140773035
0.0143448342
0.0147264077
0.0147617213
0.0148607979
0.0148525021
0.0142029635
0.0140824648
0.0146507955
0.014762579
0.0141741346
0.0140762451
0.014643302
0.014744602
0.0141590057
0.0140855166
0.0145226301
0.0148528721
0.0148431491
0.0141777647
0.0140811559
0.0146674664
0.0147824199
0.0141765228
0.0140780352
0.0146924578
0.0147917047
0.0141828339
0.0140794343
0.0146996706
0.0147978415
0.014182235
0.014079239
0.0146993672
0.0147918026
0.0141732536
0.0140781411
0.0146859526
0.0147764791
0.0141545203
0.0140853242
0.0145632376
0.0148648114
0.0148567551
0.0141490133
0.0140778043
0.0146540247
0.0147553205
0.0141398927
0.0140801171
0.0145365941
0.0148269907
0.0148213421
0.0141283693
0.014073504
0.0146533366
0.0147517042
0.0141275524
0.0140769253
0.0145549827
0.0148211845
0.0148197108
0.0141015496
0.014081388
0.0145362033
0.0148335014
0.014828607
0.0141019744
0.0140706715
0.0146667993
0.0147479791
0.0141068015
0.0140732338
0.0145521628
0.0148060073
0.0147806171
0.0140894159
0.0140738965
0.0145094058
0.0147868902
0.0147501186
0.0140851238
0.0140657615
0.0145434695
0.014742133
0.0147892145
0.0147738631
0.014080183
0.014075772
0.0145588882
0.0148237835
0.0147869303
0.0140832282
0.0140657807
0.0146891998
0.0147476222
0.0140796348
0.0140716312
0.0145784918
0.0148105397
0.0147582406
0.0140757407
0.0140722031
0.0145692466
0.0148049261
0.0147348683
0.014074139
0.01407138
0.0145676753
0.0148082302
0.0147477797
0.0140734848
0.0140731235
0.014577982
0.0148116147
0.0147438311
0.0140729489
0.0140728519
0.0145815268
0.0148095956
0.0147388072
0.0140724188
0.0140726561
0.0145805131
0.014806359
0.0147320793
0.0140721618
0.0140726454
0.014583934
0.0148053841
0.014730875
0.0140726783
0.0140736885
0.0145870899
0.014807936
0.0147361685
0.0140732423
0.0140758151
0.014627176
0.0148315088
0.0147710035
0.0140751222
0.0140829918
0.0146096083
0.0148641718
0.0148166502
0.0140976245
0.0140775987
0.0142498991
0.0147704619
0.0147779639
0.0140758555
0.0140815287
0.0146643359
0.0148407586
0.0147633415
0.0140758059
0.0140771828
0.0146121933
0.0148170421
0.0147479887
0.0140753239
0.0140652641
0.0146946271
0.0147224772
0.014071665
0.0140729614
0.0146282298
0.0148040088
0.0147183328
0.0140767906
0.0140683937
0.014674395
0.0147872766
0.0148211675
0.0148173586
0.0140821973
0.0140746196
0.0147449572
0.0147752612
0.0140776459
0.0140816605
0.0147065022
0.0148714988
0.0147899168
0.0140885365
0.0140708498
0.0147582874
0.0147793656
0.0140882276
0.014070109
0.0147627473
0.0147791461
0.0140887793
0.0140707681
0.0147670261
0.0147824182
0.0140889658
0.0140708661
0.0147681548
0.0147836199
0.0140887982
0.0140705811
0.0147650788
0.0147801903
0.0140878992
0.0140710762
0.0147577481
0.0147747622
0.0140842459
0.014081157
0.0147395809
0.0148930466
0.0147937083
0.0140909377
0.0140697887
0.0147758863
0.0147927527
0.0140916164
0.0140699892
0.0147613169
0.0147787373
0.01408941
0.014070031
0.0147504455
0.0147655516
0.0140860828
0.0140788513
0.0147405521
0.0148774882
0.0147714155
0.0140892649
0.014066412
0.0147641939
0.0147789816
0.0140899641
0.0140670496
0.0147429056
0.0147609018
0.0140864239
0.0140660539
0.0147266991
0.0147376332
0.0140816005
0.0140736564
0.0147201289
0.0148428441
0.0146729789
0.01408881
0.0140570095
0.0140691839
0.0146264526
0.0147847591
0.0147530702
0.0147609888
0.0147971619
0.014733416
0.0140793827
0.0140609168
0.014696595
0.0147023612
0.0140799217
0.0140669726
0.014678655
0.0147965061
0.0146704947
0.0140828676
0.0140563909
0.0146927946
0.0147052268
0.0140879628
0.0140677652
0.0146958802
0.0148076085
0.0146532581
0.0140885187
0.0140664277
0.0147022325
0.0148191231
0.0146739581
0.0140934284
0.0140688213
0.0147094906
0.0148337539
0.0147250005
0.0140978733
0.0140631956
0.0146935649
0.0147262004
0.014117127
0.0140743718
0.0146991842
0.0148401933
0.0147038361
0.014108903
0.0140716759
0.014699389
0.0148483503
0.0147527658
0.0141148637
0.0140677457
0.0146697194
0.0147327944
0.0141550855
0.0140793187
0.0146696463
0.014850993
0.0147761884
0.0141370719
0.0140712853
0.0146227595
0.0147384705
0.0142155629
0.0140776974
0.0145818399
0.0147084446
0.0142420469
0.0140864679
0.0145455866
0.0148048859
0.0147762442
0.0142010107
0.0140834907
0.0144776144
0.0147820952
0.0147871173
0.014262213
0.0140924282
0.0144144166
0.0147598371
0.0147821983
0.0143234383
0.0141015356
0.0143661373
0.0147402556
0.0147785852
0.0143668041
0.0141090286
0.0143338646
0.0147269927
0.0147783945
0.014395466
)
;

boundaryField
{
    closed
    {
        type            zeroGradient;
    }
    open
    {
        type            zeroGradient;
    }
    sides
    {
        type            empty;
    }
    procBoundary2to1
    {
        type            processor;
        value           uniform 0.0143884911;
    }
    procBoundary2to3
    {
        type            processor;
        value           uniform 0.0141141556;
    }
}


// ************************************************************************* //
