/*--------------------------------*- C++ -*----------------------------------*\
| =========                 |                                                 |
| \\      /  F ield         | OpenFOAM: The Open Source CFD Toolbox           |
|  \\    /   O peration     | Version:  2306                                  |
|   \\  /    A nd           | Website:  www.openfoam.com                      |
|    \\/     M anipulation  |                                                 |
\*---------------------------------------------------------------------------*/
FoamFile
{
    version     2.0;
    format      ascii;
    arch        "LSB;label=32;scalar=64";
    class       volScalarField;
    location    "0.00042";
    object      Z;
}
// * * * * * * * * * * * * * * * * * * * * * * * * * * * * * * * * * * * * * //

dimensions      [0 0 0 0 0 0 0];

internalField   nonuniform List<scalar> 
531
(
0.0140892595
0.0144192233
0.0147930119
0.0147806826
0.0141772422
0.0141341005
0.0146719009
0.0147411645
0.014197655
0.014146915
0.014685103
0.0146971095
0.0141966995
0.0142348903
0.0145259288
0.014496299
0.0144847408
0.0145752355
0.0145030333
0.014341269
0.0144768354
0.0147520135
0.0145756607
0.0141189029
0.0142618331
0.0145776947
0.0145050091
0.0144507846
0.0146516145
0.0146822087
0.0141904163
0.0141161649
0.0146462518
0.0147641334
0.0143011876
0.0141064194
0.0144877318
0.0147876763
0.0145683301
0.0141166796
0.0141851576
0.0146141913
0.0146609653
0.0145361027
0.014460387
0.0144731739
0.0144935442
0.0144740021
0.0144496746
0.0144552294
0.014468273
0.0144672884
0.014460917
0.014460516
0.0144620978
0.0144624563
0.0144619708
0.014461705
0.0144617492
0.0144617845
0.0144617608
0.0144617265
0.0144617214
0.0144617201
0.0144617145
0.0144617107
0.0144617099
0.0144617093
0.0144617081
0.0144617069
0.0144617067
0.014461708
0.0144617091
0.0144617061
0.0144617019
0.0144617062
0.0144617172
0.0144617132
0.0144616886
0.0144616883
0.0144617342
0.0144617413
0.0144616798
0.014461651
0.0144617211
0.0144617863
0.0144617213
0.0144616081
0.0144616509
0.0144618139
0.0144618074
0.0144616088
0.0144615901
0.0144617627
0.0144618211
0.0144616966
0.0144616104
0.0144616871
0.0144617771
0.0144617342
0.0144616584
0.0144616934
0.0144617608
0.0144616991
0.0144615827
0.0144617064
0.0144620215
0.0144618564
0.0144609961
0.0144610181
0.014463124
0.0144633933
0.0144597172
0.0144581338
0.014463652
0.0144687318
0.0144616409
0.014449628
0.0144562883
0.0144810804
0.0144790533
0.0144354304
0.0144314611
0.0144877136
0.0145083375
0.014447467
0.0144000173
0.0144544949
0.0145368941
0.0145011353
0.0143786047
0.0143879796
0.0145376743
0.0145510693
0.0144128791
0.0143645973
0.0144708625
0.0145458011
0.0144831973
0.0143923262
0.0144223982
0.0145111129
0.0145065259
0.0144316293
0.014425709
0.0144737817
0.0144881189
0.0144616817
0.0144453517
0.0144577254
0.0144712663
0.0144664999
0.0144570822
0.0144582412
0.0144638254
0.0144638104
0.0144608656
0.0144607281
0.0144620083
0.0144621498
0.0144615478
0.0144614948
0.014461832
0.0144618428
0.0144616063
0.014461603
0.0144617753
0.0144617827
0.0144616733
0.014461658
0.0144617175
0.0144617346
0.0144617069
0.0144616934
0.0144617044
0.0144617115
0.0144617078
0.0144617071
0.0144617114
0.0144617082
0.0144616882
0.014461691
0.0144617542
0.0144617612
0.0144616235
0.0144615668
0.014461802
0.0144620309
0.0144617157
0.0144610334
0.014461261
0.0144629473
0.0144630788
0.0144600915
0.0144589216
0.0144624966
0.0144666124
0.0144642819
0.0144547081
0.0144535272
0.0144659915
0.0144762373
0.0144733214
0.014443629
0.0144342677
0.0144582459
0.0145110625
0.0145123113
0.0144068414
0.0143802443
0.014489922
0.0145981932
0.0145089015
0.0143138637
0.01438544
0.0147119309
0.0146987828
0.0141665312
0.0141225038
0.0145866689
0.0147722181
0.0144660109
0.0141270157
0.0143283256
0.0147666579
0.0147007213
0.0141632973
0.0141516133
0.0146791736
0.0147557163
0.0143154037
0.0141153458
0.0144552051
0.0147907213
0.0146319093
0.0141413194
0.0141710815
0.014709213
0.0147649062
0.0143136132
0.0141113803
0.0144537092
0.0147797571
0.0146079462
0.0141274127
0.0141574298
0.0145909689
0.014654499
0.0145635083
0.0144546033
0.0144207059
0.0144222291
0.0145642274
0.0147212758
0.014566695
0.0141262724
0.0141643404
0.014713073
0.0147623924
0.0142671274
0.0141010054
0.0144369056
0.0147917955
0.0147055746
0.0141550251
0.014149103
0.0147105333
0.0147547959
0.0142182786
0.0141015251
0.0145103401
0.0148058797
0.0146344013
0.0141435714
0.0142018771
0.0147425398
0.0147629812
0.0141969026
0.0141012272
0.0145276208
0.0148161612
0.0146581427
0.0141427402
0.0141786501
0.0147281615
0.0147476541
0.0141847066
0.0140961567
0.0145113393
0.0148079717
0.0147262868
0.0141465576
0.0140960315
0.0145505209
0.0148040224
0.0146770755
0.014138318
0.0140976937
0.0145614513
0.0148022582
0.0146706821
0.0141372422
0.014097888
0.0145643899
0.0148039243
0.0146734689
0.0141373865
0.0140983033
0.0145640451
0.0148040389
0.0146786024
0.0141384128
0.0140980739
0.0145523318
0.0148079348
0.0147128539
0.0141478669
0.0140967459
0.0145323066
0.0148004059
0.0146870374
0.0141518868
0.014117314
0.0146126944
0.0147899238
0.0144766078
0.0141304427
0.0143208276
0.0147546359
0.0146822796
0.0141829614
0.0142215545
0.0147099246
0.014724983
0.0142025068
0.0141028485
0.0144987383
0.014783433
0.0146719417
0.0141598571
0.0141054995
0.0144380435
0.0146228235
0.0146161141
0.0146757878
0.014705268
0.0143317313
0.0141156106
0.0144292003
0.0147727819
0.0146354301
0.0141630092
0.0142150723
0.0146999012
0.0147187071
0.014223123
0.0141087658
0.0144723841
0.0147980587
0.0146864813
0.0142054827
0.0142639279
0.0147106259
0.0146187306
0.014158092
0.0142662431
0.0147210627
0.0146607208
0.0141463285
0.0141199751
0.014615454
0.0148099315
0.0146119575
0.0141284111
0.014086665
0.0144914561
0.0148439378
0.0148777378
0.0143898394
0.0140914622
0.0145095032
0.0147263648
0.0143471653
0.0140776137
0.0140588641
0.014239292
0.0145207367
0.0143442517
0.0140753456
0.0140628274
0.0140309963
0.0140103092
0.013980496
0.0139575561
0.0139190402
0.0138907213
0.0138374917
0.013786979
0.0136576572
0.0135752999
0.0135117616
0.0134536552
0.0134025825
0.0133392526
0.0132947759
0.0131990801
0.013110672
0.0129056165
0.0127839663
0.01268896
0.0125771111
0.0125222298
0.0124290343
0.0122764739
0.0120068894
0.0119906104
0.0119850785
0.0119019577
0.0119857273
0.0119897971
0.011904465
0.0119062168
0.011827477
0.0117348906
0.0119064876
0.0120286505
0.0119787813
0.0121076063
0.0121779179
0.0122901781
0.0127005054
0.0129750307
0.0131446208
0.0133091548
0.0134777398
0.013679616
0.0138595242
0.0140243354
0.0141922505
0.0143724688
0.0145532983
0.0147231891
0.0148894318
0.0150412361
0.0151864682
0.0153098148
0.0154224803
0.0155152856
0.0156048119
0.0156737188
0.0157398479
0.0157845375
0.0158261618
0.0158762591
0.0159193866
0.0159733874
0.0160016267
0.0160478143
0.0160792031
0.0161158467
0.0161469406
0.0161716049
0.0162006044
0.0162324297
0.0162589813
0.0162742019
0.0162926693
0.0163040684
0.0163178432
0.0163261069
0.0163394737
0.0163493823
0.0163613156
0.0163689198
0.0163795476
0.0163923371
0.0164045883
0.0164132561
0.0164209123
0.016425726
0.0164309713
0.0164345921
0.0164389352
0.0164421987
0.0164458554
0.016448057
0.016449908
0.0164514964
0.0164550159
0.0164582164
0.0164620466
0.0164643266
0.0164672038
0.0164677669
0.0164698937
0.0164687682
0.0164686389
0.0164664242
0.0164654814
0.0164627648
0.0164612251
0.0164578898
0.0164558643
0.0164517268
0.0164492573
0.0164442912
0.0164414485
0.0164356627
0.016432485
0.0164257402
0.0164220586
0.0164146757
0.016411107
0.0164035977
0.0163997552
0.0163915907
0.0163874699
0.0163787086
0.0163742868
0.0163646534
0.0163596368
0.0163496174
0.0163441654
0.016333898
0.0163281022
0.0163178382
0.0163107284
0.0163008746
0.0162928004
0.0162831835
0.0162743212
)
;

boundaryField
{
    closed
    {
        type            zeroGradient;
    }
    open
    {
        type            zeroGradient;
    }
    sides
    {
        type            empty;
    }
    procBoundary4to3
    {
        type            processor;
        value           uniform 0.0141609533;
    }
    procBoundary4to5
    {
        type            processor;
        value           uniform 0.0162646086;
    }
}


// ************************************************************************* //
