/*--------------------------------*- C++ -*----------------------------------*\
| =========                 |                                                 |
| \\      /  F ield         | OpenFOAM: The Open Source CFD Toolbox           |
|  \\    /   O peration     | Version:  2306                                  |
|   \\  /    A nd           | Website:  www.openfoam.com                      |
|    \\/     M anipulation  |                                                 |
\*---------------------------------------------------------------------------*/
FoamFile
{
    version     2.0;
    format      ascii;
    arch        "LSB;label=32;scalar=64";
    class       volScalarField;
    location    "0.00194";
    object      H2;
}
// * * * * * * * * * * * * * * * * * * * * * * * * * * * * * * * * * * * * * //

dimensions      [0 0 0 0 0 0 0];

internalField   nonuniform List<scalar> 
531
(
0.011009795
0.0110236469
0.0108326675
0.0106672397
0.0106614254
0.0110435946
0.0110057679
0.0107787162
0.0106837222
0.0106637554
0.010660244
0.0110451471
0.0110132936
0.0107798541
0.0106636973
0.0106621174
0.0110413566
0.0110123877
0.0108170209
0.0106675291
0.0106660637
0.0110411925
0.0110113263
0.0108170686
0.0106678764
0.0106663942
0.0110402857
0.0110110607
0.0108134797
0.0106679312
0.0106662232
0.0110389935
0.0110113199
0.0108010544
0.0106655075
0.0106640807
0.0110384817
0.0110158956
0.0107601748
0.0106492526
0.0106454025
0.0110537953
0.0110132276
0.0110271756
0.0110075782
0.0108400107
0.0106756129
0.0106538185
0.0106483262
0.0110463893
0.0110105307
0.0106905403
0.0106677253
0.0110413388
0.0110123247
0.0107355501
0.0106553793
0.010651391
0.0110392421
0.0110086112
0.0107051636
0.0106785666
0.0110382382
0.011008651
0.0107752387
0.010665941
0.0106604808
0.0110416867
0.011004389
0.0106959627
0.0106779978
0.0110492287
0.0109965369
0.011010482
0.0107582828
0.0106739164
0.0106760886
0.0106614042
0.010658634
0.0110425046
0.0110124635
0.0107791761
0.0106657883
0.0106608897
0.0110428822
0.0110047986
0.0106965724
0.0106777718
0.0110502085
0.0109987842
0.0110096497
0.0108077316
0.0106810799
0.0106791084
0.0106645604
0.0106610138
0.0110448006
0.0110096843
0.0107749123
0.0106645315
0.0106626669
0.0110414595
0.0110086527
0.0107580681
0.0106624798
0.0107061732
0.011021198
0.0109902598
0.0109925296
0.0107594834
0.0106793222
0.010664669
0.0106634736
0.0110472782
0.0110097634
0.0107537398
0.0106649889
0.0106615895
0.0110482317
0.011009571
0.0107797545
0.0106667621
0.0106927874
0.0110302395
0.0107477645
0.0106749484
0.0110653156
0.0109993087
0.011016499
0.0107190839
0.0106470978
0.0106619217
0.0110447728
0.0110093851
0.0106898817
0.0106533712
0.0110664802
0.0110175811
0.010791684
0.0106497311
0.0106462499
0.0110741754
0.0110153804
0.0106987352
0.0106710694
0.0110683024
0.0110167225
0.010811285
0.0106539702
0.01064747
0.0110643605
0.0110141809
0.0106971364
0.010665443
0.0110669581
0.0110105916
0.0106994052
0.0106671337
0.011055855
0.0110110121
0.010699389
0.0106705826
0.0110282393
0.0110089607
0.010994167
0.0106826482
0.0106637724
0.0107472395
0.0110405524
0.0107379021
0.0106801529
0.011034793
0.0110046883
0.0110063032
0.0107865423
0.0106708489
0.0106759548
0.0106629311
0.010668663
0.0110697753
0.0107972789
0.0106762464
0.0109781008
0.0110081357
0.0110578736
0.0107208271
0.0106656576
0.0106810475
0.0110604401
0.010791415
0.0106797292
0.0109837863
0.0110059301
0.0110321813
0.010723903
0.0106602938
0.0106862501
0.0110653729
0.0107726349
0.0106830417
0.011024706
0.0110068196
0.0110633181
0.0107039112
0.0106636419
0.0107043576
0.0110733663
0.0107464561
0.0106873442
0.011068786
0.0110070479
0.0110712341
0.0106981069
0.0106599964
0.0106763426
0.0110427418
0.0110485382
0.0107467708
0.0106782908
0.0107057173
0.0110419748
0.0110485854
0.0107436402
0.0106736831
0.0106735056
0.0107120608
0.0110461701
0.0110640152
0.0107043951
0.0106701807
0.0107108035
0.0110433606
0.0110624307
0.0107094855
0.0106730531
0.0107216245
0.0110381812
0.0110616326
0.010707069
0.0106734447
0.0107257317
0.0110337688
0.0110610827
0.010705674
0.0106773626
0.010780511
0.0110785668
0.0107209554
0.0107132571
0.0110274354
0.0110099009
0.0110242466
0.0106759112
0.0106644037
0.0107310709
0.0110243454
0.0110647847
0.0106945639
0.0106721611
0.010741412
0.0110278321
0.0110677673
0.0106823024
0.0106614076
0.0107428424
0.0110096066
0.0110025546
0.0110712569
0.0106789591
0.0106644045
0.0106662326
0.0107533189
0.0110499906
0.0107130583
0.0107201641
0.0110278834
0.0109651188
0.0106869273
0.0107392146
0.011018775
0.0110543912
0.0106934439
0.0106587018
0.0107222952
0.0110198313
0.0110329426
0.0107561574
0.0106725474
0.0106776113
0.0108220657
0.0110770328
0.010720665
0.0107327496
0.0110197077
0.0109788596
0.0106914359
0.0107462519
0.0110119775
0.0110410856
0.0107082689
0.0106662564
0.0107279663
0.0110203656
0.0110419065
0.0106976125
0.0106616944
0.0107202825
0.0110226238
0.0110419268
0.0106919906
0.0106554442
0.0106984716
0.0110233935
0.0110183838
0.0108324136
0.0106650584
0.0107178875
0.0109435412
0.0106915955
0.0106997071
0.0110209399
0.0110091835
0.0109311274
0.010680746
0.0107269199
0.0110693465
0.0107141663
0.0107026665
0.0110184271
0.0110205993
0.0107130342
0.010672043
0.0106682027
0.0107400167
0.0110655437
0.0107104883
0.010697872
0.0110312343
0.0110414316
0.0106797396
0.0107102617
0.0110303976
0.0109959981
0.0110233782
0.0107476306
0.0106577923
0.0106538867
0.010712034
0.0110619452
0.0107176773
0.0106908922
0.011048095
0.0110803711
0.0106761958
0.0106966842
0.0110348439
0.0110565142
0.0106862668
0.0107067866
0.0110307284
0.0110119545
0.0107349332
0.0106740196
0.0106686244
0.010717591
0.0110645072
0.0107500876
0.0107000306
0.0110721714
0.0110576311
0.0106877906
0.0106963716
0.0110620833
0.011013484
0.0107854042
0.010665874
0.0106812444
0.0110656387
0.0110414964
0.0107154644
0.0107028605
0.0110471096
0.0110160604
0.0107648292
0.0106741219
0.0106636207
0.0106692316
0.0110437071
0.0110056577
0.011013113
0.0107715896
0.0106545138
0.0106602973
0.0110491347
0.0110223497
0.0108097187
0.0106660902
0.0106684312
0.0110273557
0.011035181
0.0107429611
0.0106982717
0.0109691849
0.0110173364
0.0109413307
0.0106875704
0.0106748234
0.0106614434
0.0106633148
0.0109647149
0.0110349894
0.0107718704
0.0106968663
0.0109228738
0.0110334274
0.0107901766
0.0107089792
0.0109282711
0.0110214614
0.0108616993
0.0106890604
0.0106655406
0.0106699759
0.0109996317
0.0108651274
0.0106942371
0.0108537649
0.0110566121
0.0107847202
0.0106874603
0.010855464
0.0110501846
0.0107973194
0.0106921045
0.010854408
0.0110308924
0.0109784281
0.0107120392
0.010682425
0.010683158
0.0110018853
0.0110218798
0.0109015164
0.010684313
0.0106815024
0.010923059
0.0110324644
0.0108954232
0.0106801395
0.0106772376
0.0109126
0.0110472377
0.0108091251
0.0106811772
0.0107634918
0.0110573894
0.0110018494
0.010685806
0.0106684554
0.0107790039
0.0110520296
0.0109972742
0.0106857212
0.0106679269
0.0107722682
0.011053498
0.0110000513
0.0106826609
0.0106623961
0.0107615096
0.0110604606
0.0108911749
0.0106963956
0.0107697315
0.0110502536
0.011038709
0.0106890512
0.0106692335
0.0107553003
0.0110671452
0.0110080896
0.0110234653
0.010737688
0.0106672312
0.010660997
0.0107442021
0.011053279
0.0110567466
0.0106873345
0.0106725196
0.0108449769
0.0109004879
0.0107130384
0.0107638228
0.0110451504
0.011033132
0.0106820039
0.0106571308
0.0107485728
0.011051064
0.0108646213
0.010698129
0.0108422035
0.0108722326
0.0107062326
0.0107579833
0.0110527975
0.0110057501
0.0110135173
0.0107650087
0.0106644101
0.0106548435
0.010746278
0.0110391712
0.0110530678
0.0106957881
0.0106730083
0.0107687753
0.0110338309
0.0110674503
0.0106880527
0.0106686724
0.010767833
0.0110337063
0.0110471989
0.0106828846
0.0106609103
0.0107695364
0.0110364559
0.0108858809
0.0106872971
)
;

boundaryField
{
    closed
    {
        type            calculated;
        value           nonuniform List<scalar> 0();
    }
    open
    {
        type            calculated;
        value           nonuniform List<scalar> 0();
    }
    sides
    {
        type            empty;
    }
    procBoundary1to0
    {
        type            processor;
        value           uniform 0.0110584187;
    }
    procBoundary1to2
    {
        type            processor;
        value           uniform 0.0107658922;
    }
}


// ************************************************************************* //
