/*--------------------------------*- C++ -*----------------------------------*\
| =========                 |                                                 |
| \\      /  F ield         | OpenFOAM: The Open Source CFD Toolbox           |
|  \\    /   O peration     | Version:  2306                                  |
|   \\  /    A nd           | Website:  www.openfoam.com                      |
|    \\/     M anipulation  |                                                 |
\*---------------------------------------------------------------------------*/
FoamFile
{
    version     2.0;
    format      ascii;
    arch        "LSB;label=32;scalar=64";
    class       volScalarField;
    location    "0.00194";
    object      prefDh_H;
}
// * * * * * * * * * * * * * * * * * * * * * * * * * * * * * * * * * * * * * //

dimensions      [1 1 -3 0 0 0 0];

internalField   nonuniform List<scalar> 
531
(
23943.7478
23897.0475
23431.0467
23072.9464
23083.4091
23913.127
23954.9289
23406.2357
23296.7896
23059.8228
23064.0577
23921.6408
23935.5084
23400.3273
23063.8215
23070.417
23922.6847
23931.9805
23422.3362
23102.653
23106.2098
23925.6358
23933.7478
23421.8014
23108.7277
23111.4501
23928.1718
23934.8
23418.7147
23109.8172
23111.4821
23929.6608
23935.9213
23410.6397
23089.1531
23090.8305
23932.672
23931.8905
23390.896
22917.5785
22929.9707
23902.4686
23949.4534
23906.7786
23958.0784
23444.0455
23242.8437
22970.3257
22978.8058
23921.7283
23960.8195
23340.2917
23146.2628
23933.5582
23944.9746
23382.5912
22993.4424
22999.1147
23922.4997
23957.0924
23408.8731
23240.618
23931.0572
23940.2904
23390.4682
23087.3441
23091.7787
23910.9851
23969.55
23377.5579
23267.3507
23914.9143
23972.9849
23937.6731
23377.5414
23179.9066
23234.94
23049.2962
23052.5212
23912.006
23935.8227
23395.1359
23086.8322
23091.4486
23903.4958
23966.9769
23389.9483
23261.0299
23908.2321
23966.9609
23937.3291
23406.2048
23254.2868
23262.835
23083.59
23086.6315
23906.4677
23949.5262
23393.7088
23103.1121
23103.9297
23921.3528
23959.1396
23373.0799
23106.8002
23359.7641
23953.4277
23993.8435
23979.9748
23374.3845
23283.9141
23116.842
23117.6185
23909.2012
23949.9811
23383.5342
23092.836
23095.2331
23891.6852
23950.8562
23397.3696
23123.0163
23359.205
23927.4138
23395.065
23218.1577
23884.2655
23967.0698
23940.6981
23370.2551
22881.1326
23090.4674
23883.5971
23953.7715
23327.3482
23012.8787
23868.2899
23940.3139
23404.0937
22933.1164
22939.2078
23836.2509
23939.7263
23409.7336
23146.5759
23849.6291
23923.4709
23417.9046
22954.2733
22959.2009
23794.4102
23951.7136
23376.5573
23129.3869
23799.583
23954.1544
23400.8486
23144.6596
23778.6755
23950.6942
23406.998
23170.0164
23727.4963
23949.559
23658.5821
23350.4523
23059.6663
23362.2417
23880.3613
23376.801
23253.8925
23741.9643
23953.7361
23943.061
23392.9404
23164.8829
23234.942
23057.499
23107.8034
23829.3176
23405.7711
23209.7601
23636.359
23950.137
23775.4663
23364.0682
23043.8508
23247.1404
23849.8799
23402.968
23252.1483
23646.6619
23959.2145
23927.342
23359.7679
22987.6059
23346.3495
23833.3543
23392.8554
23293.401
23720.4744
23955.7213
23846.6033
23375.3791
23012.0145
23364.4785
23806.3455
23393.7366
23360.2169
23873.8769
23954.2422
23804.9739
23382.6257
22998.2377
23321.0056
23895.9836
23841.1921
23388.4505
23201.1774
23347.2389
23911.8245
23848.3305
23396.3581
23195.757
23167.2208
23340.0811
23908.9759
23816.127
23400.1604
23118.6937
23341.3064
23911.7394
23822.4363
23396.2406
23148.1169
23347.1301
23923.3685
23825.1176
23393.5295
23153.3885
23348.6862
23934.2691
23830.5826
23396.8836
23170.4117
23380.2699
23820.4069
23397.1198
23371.6556
23948.3435
23948.3498
23717.3765
23191.2875
23034.58
23361.7699
23929.9163
23827.9365
23377.4963
23129.8199
23365.9307
23946.2095
23830.2924
23277.9251
23042.9991
23353.3566
23963.0572
23967.4504
23803.9115
23237.7764
23075.3112
23103.4826
23359.6946
23769.0877
23389.9663
23375.5536
23953.6637
23611.6915
23306.3954
23378.3562
23972.124
23865.598
23379.8386
23008.005
23346.993
23967.2352
23920.1158
23379.6422
23166.8618
23189.2654
23416.9557
23830.7801
23386.9109
23395.1619
23964.508
23634.4178
23351.7491
23391.5278
23976.388
23893.067
23376.5093
23065.2957
23367.0237
23959.6775
23907.3533
23393.2861
23013.0389
23374.1358
23950.2085
23908.4787
23374.8326
22943.7402
23370.2309
23946.8564
23948.2942
23420.2834
23089.1126
23364.4354
23576.4698
23378.2283
23376.9814
23958.5464
23956.9811
23556.2691
23217.9528
23363.8843
23882.2181
23379.4033
23417.373
23952.4636
23949.1392
23399.5872
23156.4917
23089.4475
23369.315
23890.4897
23376.4264
23389.9621
23934.1987
23749.7731
23254.1639
23388.0396
23910.8929
23977.5808
23956.0923
23379.3504
23033.4164
22977.1244
23369.0209
23908.3091
23364.6966
23321.5373
23895.8708
23827.4134
23233.755
23362.5891
23924.1569
23891.2419
23340.991
23418.0581
23913.0045
23968.3638
23384.9921
23202.4495
23101.1471
23377.0116
23882.8124
23367.7782
23400.3382
23805.8862
23879.3031
23372.3779
23371.8361
23846.7779
23960.4586
23384.999
23091.4056
23240.9728
23835.8866
23927.1561
23377.4605
23426.1332
23753.5492
23949.4842
23388.586
23195.6186
23056.944
23114.0385
23752.2912
23961.9564
23964.3611
23373.5565
22967.8571
23022.553
23761.9308
23945.4377
23410.6556
23082.313
23081.2422
23721.0403
23934.2253
23370.2412
23402.4089
23618.4209
23928.0551
23572.2821
23347.7095
23207.0515
23041.3299
23041.8108
23611.7139
23933.2229
23378.0437
23392.8499
23543.7243
23924.3637
23393.7137
23402.1225
23552.1475
23932.5899
23465.7481
23380.2508
23077.7596
23094.5869
23675.2787
23460.7361
23375.0543
23443.2995
23887.2098
23374.3765
23293.1095
23445.963
23897.4719
23388.0002
23369.9949
23445.2612
23913.6416
23631.8058
23369.0954
23231.9604
23237.6139
23675.3031
23939.8531
23513.8561
23294.6613
23229.3454
23543.8438
23916.5788
23504.9776
23239.1544
23167.5305
23527.9197
23894.5221
23399.6678
23230.5661
23358.4142
23859.3582
23673.1196
23340.7856
23089.2759
23370.2047
23867.8745
23664.383
23343.107
23082.9799
23364.9045
23866.7933
23669.4085
23319.1319
23025.9145
23356.2629
23866.2439
23496.4948
23390.6646
23372.0741
23870.1459
23738.8829
23379.8023
23080.8733
23348.7608
23812.5422
23962.7416
23922.2901
23370.5877
23117.9109
23036.2089
23354.0518
23864.8643
23773.5093
23340.724
23128.3061
23433.3836
23510.3779
23387.0156
23372.0747
23894.2001
23729.3683
23308.2464
22968.1032
23352.8688
23891.7821
23460.7845
23407.002
23432.4331
23471.3969
23407.1264
23363.6398
23869.8347
23974.3106
23934.7575
23382.5265
23100.1946
22971.6771
23368.7153
23897.8091
23867.1776
23391.6021
23096.278
23376.392
23909.6476
23794.1127
23358.9381
23061.0717
23372.5293
23913.9825
23756.3218
23312.0441
22997.0279
23364.5711
23920.1643
23488.9514
23292.3253
)
;

boundaryField
{
    closed
    {
        type            calculated;
        value           nonuniform List<scalar> 0();
    }
    open
    {
        type            calculated;
        value           nonuniform List<scalar> 0();
    }
    sides
    {
        type            empty;
    }
    procBoundary1to0
    {
        type            processor;
        value           uniform 23894.0496;
    }
    procBoundary1to2
    {
        type            processor;
        value           uniform 23375.932;
    }
}


// ************************************************************************* //
