/*--------------------------------*- C++ -*----------------------------------*\
| =========                 |                                                 |
| \\      /  F ield         | OpenFOAM: The Open Source CFD Toolbox           |
|  \\    /   O peration     | Version:  2306                                  |
|   \\  /    A nd           | Website:  www.openfoam.com                      |
|    \\/     M anipulation  |                                                 |
\*---------------------------------------------------------------------------*/
FoamFile
{
    version     2.0;
    format      ascii;
    arch        "LSB;label=32;scalar=64";
    class       volScalarField;
    location    "0.00058";
    object      H;
}
// * * * * * * * * * * * * * * * * * * * * * * * * * * * * * * * * * * * * * //

dimensions      [0 0 0 0 0 0 0];

internalField   nonuniform List<scalar> 
530
(
2.53289854e-10
2.53048038e-10
1.55509441e-05
9.34544515e-06
2.73915799e-10
2.71115825e-10
1.42172482e-05
8.49142738e-06
2.88715044e-10
2.88236206e-10
1.3412218e-05
7.89620045e-06
3.09472948e-10
3.10562075e-10
1.25477111e-05
7.46278381e-06
3.30599792e-10
3.32169244e-10
1.1790922e-05
7.116369e-06
3.51643444e-10
3.54051206e-10
1.11592163e-05
6.72703525e-06
3.73729082e-10
3.76890425e-10
1.04804854e-05
6.31787838e-06
3.97602609e-10
4.02658553e-10
9.70318292e-06
5.82593884e-06
4.33113152e-10
4.37948078e-10
8.57149301e-06
5.19031669e-06
4.7515149e-10
4.7718818e-10
6.44160463e-06
4.37019149e-06
7.04469189e-07
5.22648869e-10
2.7663353e-06
3.76336634e-06
5.78258363e-06
1.95425674e-07
1.74384118e-07
2.64361147e-06
8.622462e-06
6.87198432e-07
6.06464801e-10
1.45618215e-06
8.50518767e-06
1.94033019e-06
6.67588457e-10
5.49206348e-07
7.76075979e-06
3.17780323e-06
7.35415467e-10
2.7206207e-07
6.97143893e-06
3.53693327e-06
8.10267648e-10
3.14128561e-07
6.1535482e-06
2.93356977e-06
9.0919809e-10
6.0587956e-07
5.4637116e-06
1.90077347e-06
1.01953032e-09
1.29562957e-06
4.89655539e-06
8.00382983e-07
1.12679797e-09
2.19532098e-06
4.4717336e-06
4.07863607e-07
1.24145679e-09
2.8471641e-06
3.9393108e-06
1.09282476e-07
1.38477653e-09
3.25487638e-06
3.24548072e-06
1.53845971e-09
1.53209099e-09
3.74622652e-06
2.69955609e-06
1.68044773e-09
1.69445139e-09
3.79666365e-06
2.42237657e-06
1.84273201e-09
1.86261606e-09
3.40149032e-06
2.29675306e-06
2.03202555e-09
2.05135803e-09
3.01392838e-06
2.0473092e-06
2.2461821e-09
2.26240222e-09
2.71798297e-06
1.76812347e-06
2.46136358e-09
2.47841217e-09
2.48127414e-06
1.47940919e-06
2.6755302e-09
2.69589197e-09
2.24917011e-06
1.23754682e-06
2.88757268e-09
2.91847605e-09
2.04186782e-06
1.04062623e-06
3.11707307e-09
3.15709744e-09
1.86596518e-06
9.8375873e-07
3.3724323e-09
3.41428273e-09
1.71853761e-06
9.35163479e-07
3.6226801e-09
3.66748956e-09
1.6183897e-06
8.97207036e-07
3.8655755e-09
3.91407253e-09
1.56764094e-06
8.75453115e-07
4.09959952e-09
4.15059062e-09
1.54035418e-06
8.74484855e-07
4.32147623e-09
4.37613195e-09
1.54201125e-06
9.03189627e-07
4.53097593e-09
4.58273484e-09
1.57722555e-06
9.80336061e-07
4.72997591e-09
4.80016981e-09
1.75164253e-06
1.0689177e-06
4.96607295e-09
5.04517795e-09
1.89174662e-06
1.1752075e-06
5.23105241e-09
5.29717178e-09
1.95433462e-06
1.26026919e-06
5.51022035e-09
5.56100782e-09
1.82598685e-06
1.21997383e-06
5.83724783e-09
5.86650307e-09
1.42993208e-06
1.09806666e-06
6.2260944e-09
6.23093911e-09
9.78850168e-07
7.30413036e-07
1.73618337e-07
1.5827704e-07
1.92044986e-07
4.36565824e-08
4.65556418e-07
4.71496399e-07
6.82835497e-09
6.8190937e-09
5.93869111e-07
6.45126601e-07
7.01115688e-09
6.9903426e-09
6.23856044e-07
6.87437355e-07
7.1884273e-09
7.16565106e-09
6.62025035e-07
7.03347882e-07
7.34739947e-09
7.32946166e-09
7.41585261e-07
7.06974665e-07
7.48831977e-09
7.47997558e-09
8.34425572e-07
7.0266864e-07
7.59891917e-09
7.60216816e-09
9.84003603e-07
6.59333462e-07
7.71529117e-09
7.72934957e-09
1.03390174e-06
6.78883993e-07
7.8280936e-09
7.84938569e-09
9.65408922e-07
6.86729793e-07
7.98015731e-09
7.97879719e-09
7.97002685e-07
7.05026337e-07
8.13479145e-09
8.10936497e-09
6.23512265e-07
6.77930491e-07
8.26691366e-09
8.2185649e-09
5.01140156e-07
6.3254959e-07
8.37817728e-09
8.31741407e-09
4.16552049e-07
5.82313692e-07
8.47225232e-09
8.40646265e-09
3.55772373e-07
5.33238879e-07
8.55283254e-09
8.48548401e-09
3.08710218e-07
4.89081111e-07
8.62232187e-09
8.5554283e-09
2.72158723e-07
4.48353059e-07
8.68471768e-09
8.61495354e-09
2.39941092e-07
4.13492359e-07
8.73706281e-09
8.66875141e-09
2.13696466e-07
3.81284997e-07
8.78225499e-09
8.71595727e-09
1.92915158e-07
3.50463427e-07
8.82064033e-09
8.75766148e-09
1.7573644e-07
3.21813299e-07
8.85331609e-09
8.79421645e-09
1.60849873e-07
2.95566826e-07
8.88117598e-09
8.8260831e-09
1.47709175e-07
2.71504772e-07
8.90491406e-09
8.85379072e-09
1.35845118e-07
2.49391896e-07
8.9251225e-09
8.87783499e-09
1.24944223e-07
2.29002922e-07
8.94229596e-09
8.8986716e-09
1.14836379e-07
2.10151714e-07
8.95687972e-09
8.91668998e-09
1.05277401e-07
1.9280843e-07
8.9692705e-09
8.93220127e-09
9.60840517e-08
1.77126883e-07
8.97983159e-09
8.94542339e-09
8.71490374e-08
1.63475221e-07
8.98886145e-09
8.95651226e-09
7.85193513e-08
1.52309267e-07
8.99654613e-09
8.9656901e-09
7.04873309e-08
1.43692029e-07
9.00288013e-09
8.97350616e-09
6.36714531e-08
1.36017496e-07
9.00760386e-09
8.98150732e-09
5.93069192e-08
1.23769338e-07
9.00960869e-09
8.9930381e-09
5.7578728e-08
9.71976141e-08
9.01005882e-09
9.01331925e-09
5.87128901e-08
5.15234488e-08
9.00905983e-09
3.34903189e-08
5.97809106e-08
9.01725612e-09
9.00920899e-09
5.91227172e-08
5.93727983e-08
9.01239596e-09
9.00984935e-09
6.72021647e-08
5.74817546e-08
9.0119054e-09
9.01162388e-09
6.76109683e-08
5.48335342e-08
9.01237026e-09
9.01364661e-09
6.47963823e-08
5.06771851e-08
9.01380153e-09
9.0155887e-09
6.0888171e-08
4.67288176e-08
9.01528304e-09
9.01726184e-09
5.6648475e-08
4.32122487e-08
9.01663709e-09
9.018724e-09
5.25999758e-08
3.95839819e-08
9.01786362e-09
9.01998777e-09
4.86679072e-08
3.66901877e-08
9.01903138e-09
9.02102626e-09
4.49135525e-08
3.38671183e-08
9.02002926e-09
9.02201612e-09
4.1488083e-08
3.12311445e-08
9.02091787e-09
9.02286126e-09
3.83164888e-08
2.90454936e-08
9.02166352e-09
9.02339733e-09
3.55772248e-08
2.70668522e-08
9.0223318e-09
9.02404783e-09
3.28549853e-08
2.50679947e-08
9.02297905e-09
9.02461219e-09
3.03562821e-08
2.32547712e-08
9.02355991e-09
9.02510295e-09
2.80655286e-08
2.16072119e-08
9.02408329e-09
9.02553189e-09
2.59649318e-08
2.01087234e-08
9.02455753e-09
9.02590861e-09
2.40353125e-08
1.87454977e-08
9.02499034e-09
9.02624102e-09
2.22576068e-08
1.75057368e-08
9.0253886e-09
9.02653549e-09
2.06140301e-08
1.63786928e-08
9.02575826e-09
9.02679735e-09
1.9088927e-08
1.5354909e-08
9.02610403e-09
9.02703137e-09
1.76694512e-08
1.4424569e-08
9.02642933e-09
9.02724215e-09
1.63460988e-08
1.35756667e-08
9.02673641e-09
9.02743424e-09
1.51128093e-08
1.27953098e-08
9.02702657e-09
9.02761193e-09
1.39658259e-08
1.20717329e-08
9.02730047e-09
9.02777907e-09
1.29022581e-08
1.13944591e-08
9.02755846e-09
9.02793889e-09
1.19195502e-08
1.07544585e-08
9.02780067e-09
9.02809347e-09
1.10155662e-08
1.01459347e-08
9.02802619e-09
9.02824138e-09
1.0189694e-08
9.57216789e-09
9.02822824e-09
9.02836237e-09
9.46068254e-09
9.08255302e-09
9.02834804e-09
9.02831936e-09
9.02836271e-09
9.02822681e-09
9.02819856e-09
9.02812521e-09
9.02810511e-09
9.02804061e-09
9.02801679e-09
9.02796453e-09
9.02794236e-09
9.02789764e-09
9.0278769e-09
9.02783887e-09
9.02781996e-09
9.02778734e-09
9.02777014e-09
9.02774214e-09
9.02772658e-09
9.02770253e-09
9.02768849e-09
9.02766782e-09
9.02765518e-09
9.02763741e-09
9.02762607e-09
9.0276108e-09
9.02760064e-09
9.02758702e-09
9.02757701e-09
9.0275638e-09
9.02755384e-09
9.02754135e-09
9.0275317e-09
9.02752024e-09
9.02751118e-09
9.02750102e-09
9.02749286e-09
9.0274842e-09
9.02747718e-09
9.02747015e-09
9.02746444e-09
9.02745904e-09
9.02745468e-09
9.0274508e-09
9.02744771e-09
9.02744513e-09
9.02744312e-09
9.02744155e-09
9.02744037e-09
9.0274395e-09
9.02743888e-09
9.02743848e-09
9.02743819e-09
9.02743801e-09
9.02743789e-09
9.02743782e-09
9.02743778e-09
9.02743776e-09
9.02743775e-09
9.02743775e-09
9.02743775e-09
9.02743775e-09
9.02743774e-09
9.02743774e-09
9.02743774e-09
9.02743774e-09
9.02743774e-09
9.02743774e-09
9.02743774e-09
9.02743774e-09
9.02743774e-09
9.02743774e-09
9.02743774e-09
9.02743774e-09
9.02743774e-09
9.02743774e-09
9.02743774e-09
9.02743774e-09
9.02743774e-09
9.02743774e-09
9.02743774e-09
9.02743774e-09
9.02743774e-09
9.02743774e-09
9.02743774e-09
9.02743774e-09
9.02743774e-09
9.02743774e-09
9.02743774e-09
9.02743774e-09
9.02743774e-09
9.02743774e-09
9.02743774e-09
9.02743774e-09
9.02743774e-09
9.02743774e-09
9.02743774e-09
9.02743774e-09
9.02743774e-09
9.02743774e-09
9.02743774e-09
9.02743774e-09
9.02743774e-09
9.02743774e-09
)
;

boundaryField
{
    closed
    {
        type            calculated;
        value           nonuniform List<scalar> 0();
    }
    open
    {
        type            calculated;
        value           uniform 9.02743774e-09;
    }
    sides
    {
        type            empty;
    }
    procBoundary5to4
    {
        type            processor;
        value           uniform 1.01759974e-05;
    }
}


// ************************************************************************* //
