/*--------------------------------*- C++ -*----------------------------------*\
| =========                 |                                                 |
| \\      /  F ield         | OpenFOAM: The Open Source CFD Toolbox           |
|  \\    /   O peration     | Version:  2306                                  |
|   \\  /    A nd           | Website:  www.openfoam.com                      |
|    \\/     M anipulation  |                                                 |
\*---------------------------------------------------------------------------*/
FoamFile
{
    version     2.0;
    format      ascii;
    arch        "LSB;label=32;scalar=64";
    class       surfaceScalarField;
    location    "0.00058";
    object      phi;
}
// * * * * * * * * * * * * * * * * * * * * * * * * * * * * * * * * * * * * * //

dimensions      [1 0 -1 0 0 0 0];

oriented        oriented;

internalField   nonuniform List<scalar> 
529
(
2.38503057e-06
2.55588623e-06
2.36705343e-06
2.17565239e-06
2.36749464e-06
2.53422715e-06
2.33830105e-06
2.14645943e-06
2.33662695e-06
2.50219646e-06
2.30573058e-06
2.11711279e-06
2.30203433e-06
2.45924551e-06
2.26715382e-06
2.08852024e-06
2.26764016e-06
2.41881976e-06
2.23009682e-06
2.05363195e-06
2.2260982e-06
2.37497652e-06
2.18899842e-06
2.01613104e-06
2.18588718e-06
2.33598397e-06
2.15435211e-06
1.98423922e-06
2.15567158e-06
2.30937364e-06
2.12858822e-06
1.96262999e-06
2.14193667e-06
2.29877761e-06
2.10698878e-06
1.94668514e-06
2.15652015e-06
2.32341616e-06
2.09908191e-06
1.93550887e-06
2.07592797e-06
2.27278094e-06
2.25293264e-06
2.054427e-06
1.94121326e-06
2.11922384e-06
2.34510189e-06
2.20079541e-06
1.99387957e-06
2.08657887e-06
2.22373101e-06
2.1920878e-06
2.07406384e-06
2.06219011e-06
2.18750563e-06
2.26012183e-06
2.15063769e-06
2.05604907e-06
2.18076757e-06
2.31295033e-06
2.1903145e-06
2.07922939e-06
2.21776745e-06
2.33741245e-06
2.20575869e-06
2.12922575e-06
2.26760462e-06
2.32670165e-06
2.20168604e-06
2.18668584e-06
2.31788618e-06
2.30625031e-06
2.18976617e-06
2.23498955e-06
2.36169935e-06
2.27691011e-06
2.16010024e-06
2.2797757e-06
2.40155887e-06
2.25320478e-06
2.13642236e-06
2.29558827e-06
2.41246212e-06
2.23952069e-06
2.12698904e-06
2.28610569e-06
2.38041712e-06
2.24185699e-06
2.14951344e-06
2.27408139e-06
2.35933135e-06
2.23740849e-06
2.14134973e-06
2.25432844e-06
2.34515325e-06
2.22529828e-06
2.11770623e-06
2.23128827e-06
2.32241238e-06
2.20534928e-06
2.10257446e-06
2.21331696e-06
2.29703205e-06
2.18018993e-06
2.08097213e-06
2.18998205e-06
2.26863115e-06
2.15096422e-06
2.05615514e-06
2.16207746e-06
2.23598169e-06
2.12437688e-06
2.02900969e-06
2.12736282e-06
2.20304402e-06
2.0961021e-06
2.00402999e-06
2.09738159e-06
2.16768303e-06
2.06519051e-06
1.97937054e-06
2.06702049e-06
2.13158798e-06
2.03436802e-06
1.95525626e-06
2.03804215e-06
2.097691e-06
2.00605693e-06
1.93308331e-06
2.01097421e-06
2.065678e-06
1.98076358e-06
1.91411779e-06
1.98578929e-06
2.0359068e-06
1.96229846e-06
1.90315239e-06
1.96757932e-06
2.01380363e-06
1.95182798e-06
1.90313243e-06
1.96296432e-06
2.00336592e-06
1.95954142e-06
1.91808741e-06
1.96446679e-06
1.99730595e-06
1.9638927e-06
1.93194725e-06
1.96941491e-06
1.99494656e-06
1.97048169e-06
1.94767e-06
1.97968472e-06
1.99993378e-06
1.97737581e-06
1.96037054e-06
1.99443173e-06
2.01521075e-06
1.98208616e-06
1.96558617e-06
2.01776182e-06
2.04458395e-06
1.97006922e-06
1.92298085e-06
2.00070185e-06
2.04361497e-06
1.95157605e-06
1.8813475e-06
1.90912137e-06
1.91993426e-06
1.94526784e-06
1.98486907e-06
1.9562337e-06
1.94413795e-06
1.98389888e-06
2.01129923e-06
1.97763499e-06
1.96027422e-06
1.99673526e-06
2.01929e-06
1.98636118e-06
1.96939595e-06
2.00482447e-06
2.02592652e-06
1.99400558e-06
1.97815118e-06
2.01404773e-06
2.03380688e-06
1.99940993e-06
1.98648512e-06
2.02716593e-06
2.04699713e-06
2.01430906e-06
2.00534833e-06
2.04588305e-06
2.05745814e-06
2.01763467e-06
2.01935948e-06
2.06712379e-06
2.0773184e-06
2.03573596e-06
2.03545254e-06
2.07982643e-06
2.08971195e-06
2.049393e-06
2.0468321e-06
2.08751473e-06
2.10268293e-06
2.06908635e-06
2.05759316e-06
2.09415662e-06
2.11389377e-06
2.08369731e-06
2.0712888e-06
2.10424902e-06
2.12401337e-06
2.0992029e-06
2.08781375e-06
2.11731219e-06
2.13586875e-06
2.1147006e-06
2.10429589e-06
2.13066191e-06
2.14771219e-06
2.12940907e-06
2.12001248e-06
2.14373873e-06
2.15919522e-06
2.14331581e-06
2.13476087e-06
2.15593123e-06
2.17008971e-06
2.15543125e-06
2.14816198e-06
2.16771971e-06
2.17982263e-06
2.16681306e-06
2.15982474e-06
2.17738348e-06
2.18783683e-06
2.17585602e-06
2.16906383e-06
2.18447288e-06
2.19333426e-06
2.18189157e-06
2.17515428e-06
2.18841724e-06
2.19563745e-06
2.18448974e-06
2.17759754e-06
2.18873105e-06
2.1942956e-06
2.18331161e-06
2.17605612e-06
2.1850836e-06
2.18899708e-06
2.17801534e-06
2.17026814e-06
2.17722384e-06
2.17951029e-06
2.16840028e-06
2.16007483e-06
2.1650173e-06
2.1657095e-06
2.1543784e-06
2.14541512e-06
2.14841238e-06
2.14755874e-06
2.13592766e-06
2.12629601e-06
2.12743038e-06
2.12508565e-06
2.11310788e-06
2.10278995e-06
2.10214595e-06
2.0983778e-06
2.08602275e-06
2.07501113e-06
2.07268614e-06
2.06757909e-06
2.05482786e-06
2.04311395e-06
2.03921599e-06
2.03288115e-06
2.01971695e-06
2.00727359e-06
2.00191644e-06
1.99451162e-06
1.98093253e-06
1.96767433e-06
1.96096873e-06
1.95269404e-06
1.93874311e-06
1.92450842e-06
1.91652582e-06
1.90764657e-06
1.89343278e-06
1.87789167e-06
1.86840707e-06
1.85901724e-06
1.84479374e-06
1.82715121e-06
1.81628848e-06
1.80643736e-06
1.79208517e-06
1.77611035e-06
1.76381368e-06
1.7489763e-06
1.73456212e-06
1.72333212e-06
1.71015964e-06
1.69488333e-06
1.68034136e-06
1.6682631e-06
1.65443507e-06
1.63887768e-06
1.62402549e-06
1.61140012e-06
1.59710353e-06
1.58124498e-06
1.56602631e-06
1.55280739e-06
1.53814866e-06
1.52211498e-06
1.50671532e-06
1.4930968e-06
1.47821989e-06
1.4620477e-06
1.44649241e-06
1.43252341e-06
1.41742431e-06
1.40118576e-06
1.38545724e-06
1.37119804e-06
1.35595925e-06
1.33971062e-06
1.32399839e-06
1.30955176e-06
1.29424417e-06
1.27805099e-06
1.26228596e-06
1.24771951e-06
1.23237211e-06
1.21627954e-06
1.20055615e-06
1.18593613e-06
1.17064893e-06
1.15470568e-06
1.13909621e-06
1.12449235e-06
1.10932379e-06
1.09357902e-06
1.07811796e-06
1.06357903e-06
1.04852921e-06
1.0330074e-06
1.01774392e-06
1.00332595e-06
9.88496878e-07
9.73256089e-07
9.58254142e-07
9.44020154e-07
9.2945023e-07
9.14523473e-07
8.99819478e-07
8.85812875e-07
8.71536631e-07
8.56954312e-07
8.42581793e-07
8.28842718e-07
8.14892467e-07
8.00683332e-07
7.86673791e-07
7.73239792e-07
7.59646245e-07
7.45837882e-07
7.32221191e-07
7.1912758e-07
7.0592016e-07
6.92539121e-07
6.79343613e-07
6.66623578e-07
6.53830346e-07
6.40902055e-07
6.28154535e-07
6.15839116e-07
6.03486667e-07
5.9103527e-07
5.78760861e-07
5.66878932e-07
5.54992352e-07
5.43040576e-07
5.31262641e-07
5.1984092e-07
5.08443571e-07
4.97012626e-07
4.8575284e-07
4.74815984e-07
4.63929324e-07
4.53038835e-07
4.42317238e-07
4.31887987e-07
4.21531656e-07
4.11199655e-07
4.01034647e-07
3.9113389e-07
3.81325811e-07
3.71568767e-07
3.61977132e-07
3.526239e-07
3.43380243e-07
3.34213046e-07
3.25209992e-07
3.1642142e-07
3.0775648e-07
2.99192486e-07
2.90791847e-07
2.82582942e-07
2.74508731e-07
2.66560551e-07
2.58776171e-07
2.51158946e-07
2.43682091e-07
2.36364284e-07
2.29218192e-07
2.22191572e-07
2.15331668e-07
2.08652942e-07
2.02117397e-07
1.95733508e-07
1.89510218e-07
1.83446972e-07
1.7754113e-07
1.71793847e-07
1.66205959e-07
1.60777776e-07
1.55509258e-07
1.50400782e-07
1.45452559e-07
1.40664837e-07
1.3603772e-07
1.31571397e-07
1.2726596e-07
1.23121533e-07
1.19138157e-07
1.153159e-07
1.11654761e-07
1.08154768e-07
1.04815897e-07
1.01638154e-07
9.86214958e-08
9.57600056e-08
9.28738348e-08
8.99872732e-08
8.71299635e-08
8.43378842e-08
8.16543187e-08
7.91310752e-08
7.68297232e-08
7.48231088e-08
7.31968981e-08
7.20514003e-08
7.15034554e-08
7.16885493e-08
7.27629775e-08
7.49061558e-08
7.83228725e-08
8.3245499e-08
8.9935897e-08
9.86868808e-08
1.09822903e-07
1.23699574e-07
1.40701493e-07
1.61237722e-07
1.8573408e-07
2.14621189e-07
2.48317166e-07
2.87203527e-07
3.31593073e-07
3.81688411e-07
4.37530605e-07
4.98937989e-07
5.65437376e-07
6.36192391e-07
7.09937361e-07
7.84930171e-07
8.58943128e-07
9.29315813e-07
9.93095878e-07
1.04728964e-06
1.08922908e-06
1.11703269e-06
1.13009369e-06
1.12947977e-06
1.11809228e-06
1.10044163e-06
1.08197537e-06
1.06806048e-06
1.06292471e-06
1.06894401e-06
1.08656333e-06
1.11481704e-06
1.15205037e-06
1.19633463e-06
1.24539561e-06
1.29638889e-06
1.34601419e-06
1.39082384e-06
1.42652611e-06
1.44570663e-06
1.43753446e-06
1.39478486e-06
1.32332607e-06
1.23909816e-06
1.15688064e-06
1.08669622e-06
1.02328293e-06
9.51131683e-07
8.7757632e-07
8.15380505e-07
8.64552427e-07
1.15833657e-06
1.75465243e-06
2.40783895e-06
2.72678132e-06
2.65101285e-06
2.38568316e-06
2.16636051e-06
)
;

boundaryField
{
    closed
    {
        type            calculated;
        value           nonuniform List<scalar> 0();
    }
    open
    {
        type            calculated;
        value           uniform 1.95368291e-06;
    }
    sides
    {
        type            empty;
        value           nonuniform List<scalar> 0();
    }
    procBoundary5to4
    {
        type            processor;
        value           uniform -2.22576956e-06;
    }
}


// ************************************************************************* //
