/*--------------------------------*- C++ -*----------------------------------*\
| =========                 |                                                 |
| \\      /  F ield         | OpenFOAM: The Open Source CFD Toolbox           |
|  \\    /   O peration     | Version:  2306                                  |
|   \\  /    A nd           | Website:  www.openfoam.com                      |
|    \\/     M anipulation  |                                                 |
\*---------------------------------------------------------------------------*/
FoamFile
{
    version     2.0;
    format      ascii;
    arch        "LSB;label=32;scalar=64";
    class       volScalarField;
    location    "0.00058";
    object      prefDh_H2O;
}
// * * * * * * * * * * * * * * * * * * * * * * * * * * * * * * * * * * * * * //

dimensions      [1 1 -3 0 0 0 0];

internalField   nonuniform List<scalar> 
530
(
-202.604437
-202.601716
-198.090114
-199.409056
-202.819232
-202.791251
-198.538375
-199.782963
-202.97666
-202.971319
-198.856247
-200.095448
-203.126888
-203.134268
-199.191076
-200.37144
-203.282632
-203.294229
-199.513965
-200.616555
-203.440077
-203.458221
-199.815614
-200.876646
-203.606677
-203.630394
-200.13328
-201.146984
-203.784074
-203.811136
-200.478838
-201.444642
-203.972545
-203.998167
-200.921125
-201.802157
-204.194034
-204.204762
-201.639129
-202.240339
-203.701976
-204.439937
-202.928952
-202.619781
-202.108087
-204.464558
-204.543551
-203.175775
-201.562773
-204.16278
-204.810291
-203.880573
-201.801528
-203.788182
-205.03313
-204.62581
-202.207436
-203.51547
-205.274133
-205.134271
-202.624295
-203.624152
-205.531536
-205.315082
-203.054561
-204.040991
-205.771294
-205.244254
-203.481107
-204.687363
-206.002346
-205.043928
-203.859281
-205.396595
-206.216494
-204.90037
-204.187409
-206.01781
-206.433674
-204.851118
-204.544899
-206.537304
-206.645334
-204.909007
-204.954827
-206.848742
-206.843485
-204.967074
-205.371536
-207.031903
-207.050975
-205.14994
-205.676729
-207.230541
-207.254799
-205.468606
-205.911575
-207.433716
-207.451164
-205.804386
-206.192381
-207.621672
-207.635642
-206.096152
-206.478136
-207.801693
-207.815628
-206.357397
-206.760419
-207.972904
-207.988694
-206.608819
-207.016241
-208.135385
-208.158158
-206.842523
-207.261755
-208.290935
-208.313859
-207.055369
-207.47211
-208.435461
-208.45849
-207.249194
-207.665357
-208.571735
-208.5955
-207.417268
-207.839571
-208.69929
-208.724146
-207.559285
-207.989345
-208.81809
-208.843397
-207.686029
-208.111454
-208.927246
-208.953577
-207.785176
-208.203009
-209.027381
-209.051635
-207.861513
-208.241552
-209.112289
-209.138303
-207.880314
-208.262686
-209.191738
-209.214251
-207.907488
-208.262166
-209.266649
-209.284909
-207.95815
-208.274774
-209.342485
-209.356273
-208.072501
-208.390451
-209.427645
-209.435658
-208.278655
-208.569697
-209.525134
-209.526625
-208.729602
-208.952015
-209.458366
-209.480905
-209.468695
-209.60829
-209.255692
-209.25954
-209.667527
-209.665936
-209.193625
-209.158155
-209.70915
-209.704987
-209.213046
-209.166422
-209.748628
-209.744035
-209.221479
-209.193097
-209.783227
-209.779779
-209.188988
-209.225039
-209.813274
-209.811984
-209.139293
-209.258726
-209.836103
-209.837707
-209.03748
-209.323117
-209.859884
-209.864012
-209.018801
-209.330295
-209.882677
-209.88712
-209.099707
-209.345323
-209.908976
-209.90904
-209.264411
-209.348857
-209.93534
-209.930962
-209.431502
-209.389474
-209.957381
-209.949042
-209.552802
-209.44374
-209.975662
-209.965246
-209.639778
-209.500306
-209.990883
-209.979686
-209.704489
-209.554227
-210.003746
-209.992358
-209.755807
-209.602417
-210.014698
-210.003457
-209.796655
-209.646321
-210.024438
-210.012785
-209.832504
-209.683988
-210.032498
-210.021147
-209.862117
-209.718293
-210.039381
-210.028411
-209.885992
-209.750512
-210.045155
-210.034771
-209.905883
-209.780051
-210.050008
-210.040296
-209.923034
-209.806804
-210.054096
-210.045068
-209.938014
-209.831049
-210.057537
-210.04918
-209.951317
-209.853072
-210.060428
-210.052717
-209.963292
-209.873139
-210.062854
-210.055756
-209.974154
-209.891477
-210.064887
-210.05836
-209.984178
-209.908168
-210.066591
-210.060582
-209.993575
-209.923128
-210.068025
-210.062457
-210.002485
-209.936081
-210.069237
-210.06401
-210.010909
-209.946669
-210.070258
-210.065274
-210.018626
-209.954871
-210.071087
-210.066338
-210.025129
-209.962117
-210.071681
-210.067446
-210.029365
-209.973235
-210.071856
-210.069132
-210.031196
-209.99674
-210.071797
-210.072278
-210.030446
-210.036811
-210.071517
-210.052598
-210.029692
-210.072694
-210.071433
-210.030405
-210.030176
-210.071822
-210.071442
-210.023462
-210.031918
-210.071663
-210.071642
-210.02317
-210.034287
-210.071664
-210.071891
-210.02566
-210.037947
-210.07183
-210.072137
-210.029082
-210.041405
-210.072012
-210.072348
-210.032776
-210.044471
-210.072182
-210.072532
-210.036292
-210.047622
-210.072336
-210.072692
-210.039698
-210.050126
-210.072489
-210.07282
-210.042943
-210.052561
-210.072618
-210.072947
-210.045899
-210.05483
-210.072734
-210.073054
-210.048631
-210.056705
-210.072832
-210.073116
-210.050985
-210.058397
-210.07292
-210.0732
-210.053325
-210.060108
-210.073008
-210.073274
-210.055471
-210.061658
-210.073087
-210.073338
-210.057438
-210.063064
-210.073159
-210.073395
-210.05924
-210.064343
-210.073226
-210.073445
-210.060895
-210.065505
-210.073287
-210.07349
-210.06242
-210.066561
-210.073344
-210.07353
-210.06383
-210.067522
-210.073397
-210.073566
-210.065139
-210.068394
-210.073448
-210.073598
-210.066359
-210.069187
-210.073496
-210.073628
-210.067496
-210.06991
-210.073542
-210.073655
-210.068556
-210.070576
-210.073586
-210.073681
-210.069544
-210.071195
-210.073628
-210.073705
-210.07046
-210.071774
-210.073667
-210.073729
-210.071307
-210.072323
-210.073705
-210.073752
-210.072088
-210.072846
-210.07374
-210.073774
-210.072801
-210.073339
-210.073771
-210.073793
-210.073432
-210.073761
-210.073789
-210.073784
-210.07379
-210.073767
-210.073762
-210.073749
-210.073745
-210.073734
-210.07373
-210.073721
-210.073717
-210.07371
-210.073706
-210.073699
-210.073696
-210.073691
-210.073688
-210.073683
-210.07368
-210.073676
-210.073674
-210.07367
-210.073668
-210.073665
-210.073663
-210.07366
-210.073659
-210.073656
-210.073655
-210.073652
-210.073651
-210.073649
-210.073647
-210.073645
-210.073643
-210.073642
-210.07364
-210.073639
-210.073638
-210.073637
-210.073636
-210.073635
-210.073634
-210.073634
-210.073633
-210.073633
-210.073632
-210.073632
-210.073632
-210.073632
-210.073632
-210.073632
-210.073632
-210.073632
-210.073632
-210.073632
-210.073632
-210.073632
-210.073632
-210.073632
-210.073632
-210.073632
-210.073632
-210.073632
-210.073632
-210.073632
-210.073632
-210.073632
-210.073632
-210.073632
-210.073632
-210.073632
-210.073632
-210.073632
-210.073632
-210.073632
-210.073632
-210.073632
-210.073632
-210.073632
-210.073632
-210.073632
-210.073632
-210.073632
-210.073632
-210.073632
-210.073632
-210.073632
-210.073632
-210.073632
-210.073632
-210.073632
-210.073632
-210.073632
-210.073632
-210.073632
-210.073632
-210.073632
-210.073632
-210.073632
-210.073632
-210.073632
-210.073632
-210.073632
)
;

boundaryField
{
    closed
    {
        type            calculated;
        value           nonuniform List<scalar> 0();
    }
    open
    {
        type            calculated;
        value           uniform -210.073632;
    }
    sides
    {
        type            empty;
    }
    procBoundary5to4
    {
        type            processor;
        value           uniform -199.032533;
    }
}


// ************************************************************************* //
