/*--------------------------------*- C++ -*----------------------------------*\
| =========                 |                                                 |
| \\      /  F ield         | OpenFOAM: The Open Source CFD Toolbox           |
|  \\    /   O peration     | Version:  2306                                  |
|   \\  /    A nd           | Website:  www.openfoam.com                      |
|    \\/     M anipulation  |                                                 |
\*---------------------------------------------------------------------------*/
FoamFile
{
    version     2.0;
    format      ascii;
    arch        "LSB;label=32;scalar=64";
    class       volScalarField;
    location    "0.00058";
    object      prefDPV_T;
}
// * * * * * * * * * * * * * * * * * * * * * * * * * * * * * * * * * * * * * //

dimensions      [1 -1 -1 -1 0 0 0];

internalField   nonuniform List<scalar> 
530
(
-4.22813502e-11
-4.22694673e-11
-3.83803081e-11
-3.95034425e-11
-4.22633588e-11
-4.22467159e-11
-3.86092968e-11
-3.96582719e-11
-4.22356064e-11
-4.22240046e-11
-3.87391495e-11
-3.97668874e-11
-4.22077375e-11
-4.22006282e-11
-3.88798269e-11
-3.98479429e-11
-4.21833486e-11
-4.21785151e-11
-3.90090728e-11
-3.99088787e-11
-4.21622817e-11
-4.21598003e-11
-3.91197135e-11
-3.99809087e-11
-4.21465966e-11
-4.21461273e-11
-3.92410173e-11
-4.00596214e-11
-4.21368244e-11
-4.21378569e-11
-3.93820559e-11
-4.01581905e-11
-4.21351082e-11
-4.21357047e-11
-3.96001244e-11
-4.03029382e-11
-4.21481327e-11
-4.2142499e-11
-4.00381093e-11
-4.05123623e-11
-4.1646632e-11
-4.21603922e-11
-4.09258667e-11
-4.06705258e-11
-4.0186742e-11
-4.20352469e-11
-4.20462249e-11
-4.0973072e-11
-3.96332335e-11
-4.16931616e-11
-4.21545776e-11
-4.13987972e-11
-3.9683621e-11
-4.12471878e-11
-4.21752806e-11
-4.18248441e-11
-3.98576825e-11
-4.08764406e-11
-4.2205608e-11
-4.20519998e-11
-4.00400187e-11
-4.08172519e-11
-4.22444113e-11
-4.20525583e-11
-4.02355207e-11
-4.10044319e-11
-4.22828694e-11
-4.18813986e-11
-4.04348785e-11
-4.13836745e-11
-4.23224409e-11
-4.16009163e-11
-4.06043996e-11
-4.18092022e-11
-4.23598835e-11
-4.13457566e-11
-4.07398465e-11
-4.2128856e-11
-4.2401089e-11
-4.11773703e-11
-4.09014113e-11
-4.23828893e-11
-4.24454383e-11
-4.10954841e-11
-4.11091631e-11
-4.24982798e-11
-4.24884753e-11
-4.102166e-11
-4.13300379e-11
-4.25359793e-11
-4.25364254e-11
-4.10553144e-11
-4.14649591e-11
-4.25822346e-11
-4.25866983e-11
-4.12018928e-11
-4.15509128e-11
-4.26338476e-11
-4.26380043e-11
-4.13724477e-11
-4.16774152e-11
-4.26850937e-11
-4.26885215e-11
-4.15129778e-11
-4.18125721e-11
-4.27360569e-11
-4.27399735e-11
-4.16341578e-11
-4.19499786e-11
-4.27861479e-11
-4.27912111e-11
-4.17543533e-11
-4.20717131e-11
-4.28348156e-11
-4.28429385e-11
-4.18664656e-11
-4.21898955e-11
-4.28835938e-11
-4.28923052e-11
-4.19668002e-11
-4.2280454e-11
-4.29313836e-11
-4.29401989e-11
-4.20569088e-11
-4.23635358e-11
-4.29779138e-11
-4.29869692e-11
-4.21314196e-11
-4.2437653e-11
-4.3022804e-11
-4.30322591e-11
-4.21899541e-11
-4.2499269e-11
-4.30657828e-11
-4.30755069e-11
-4.22408021e-11
-4.25459479e-11
-4.31062698e-11
-4.31165277e-11
-4.22797491e-11
-4.25767114e-11
-4.31442999e-11
-4.31539845e-11
-4.23067161e-11
-4.25777276e-11
-4.31775656e-11
-4.3188493e-11
-4.22911262e-11
-4.25697501e-11
-4.32105098e-11
-4.32205317e-11
-4.22845232e-11
-4.25491208e-11
-4.32431859e-11
-4.32514156e-11
-4.22986058e-11
-4.25390397e-11
-4.32784176e-11
-4.32842371e-11
-4.23647739e-11
-4.26010066e-11
-4.33204724e-11
-4.33230491e-11
-4.25045862e-11
-4.27075027e-11
-4.3369357e-11
-4.33693257e-11
-4.28044425e-11
-4.29580892e-11
-4.33084384e-11
-4.3321928e-11
-4.33113316e-11
-4.34059543e-11
-4.31602879e-11
-4.3162023e-11
-4.34456096e-11
-4.34433339e-11
-4.3109366e-11
-4.30844708e-11
-4.34682416e-11
-4.34645427e-11
-4.31165682e-11
-4.30844741e-11
-4.34904376e-11
-4.34866693e-11
-4.31173577e-11
-4.30985294e-11
-4.35107319e-11
-4.3507546e-11
-4.30912947e-11
-4.31178043e-11
-4.35290374e-11
-4.35269515e-11
-4.30551337e-11
-4.31401266e-11
-4.3544352e-11
-4.3542827e-11
-4.29834707e-11
-4.3184363e-11
-4.35603863e-11
-4.35596287e-11
-4.29699356e-11
-4.31893227e-11
-4.35759114e-11
-4.3575744e-11
-4.30260375e-11
-4.31998954e-11
-4.35936045e-11
-4.35921757e-11
-4.31406877e-11
-4.3202381e-11
-4.36111008e-11
-4.36085125e-11
-4.32572727e-11
-4.3231398e-11
-4.36269538e-11
-4.36224455e-11
-4.334288e-11
-4.32704043e-11
-4.36406854e-11
-4.36351327e-11
-4.34050134e-11
-4.33112654e-11
-4.36527336e-11
-4.3646737e-11
-4.34519147e-11
-4.33504877e-11
-4.36633933e-11
-4.36572562e-11
-4.34896422e-11
-4.33858747e-11
-4.36728939e-11
-4.36667711e-11
-4.35201429e-11
-4.34183925e-11
-4.36815976e-11
-4.36751598e-11
-4.35472174e-11
-4.34466031e-11
-4.36892187e-11
-4.36828679e-11
-4.3569943e-11
-4.34724962e-11
-4.36960081e-11
-4.36898239e-11
-4.35886895e-11
-4.34968813e-11
-4.37020069e-11
-4.3696119e-11
-4.36046281e-11
-4.35193437e-11
-4.37073244e-11
-4.37017778e-11
-4.36185965e-11
-4.3539799e-11
-4.3712036e-11
-4.37068504e-11
-4.36309699e-11
-4.35584305e-11
-4.37162128e-11
-4.37113842e-11
-4.36420785e-11
-4.35754249e-11
-4.37199131e-11
-4.37154278e-11
-4.36521554e-11
-4.35909616e-11
-4.37231858e-11
-4.37190291e-11
-4.36613453e-11
-4.3605193e-11
-4.37260782e-11
-4.37222292e-11
-4.36698356e-11
-4.36181749e-11
-4.37286324e-11
-4.37250632e-11
-4.36777727e-11
-4.36298489e-11
-4.37308879e-11
-4.37275575e-11
-4.36852529e-11
-4.36400234e-11
-4.37328761e-11
-4.37297337e-11
-4.3692275e-11
-4.36484482e-11
-4.37346156e-11
-4.37316229e-11
-4.36986878e-11
-4.36551016e-11
-4.37361053e-11
-4.37332906e-11
-4.37041526e-11
-4.36609621e-11
-4.37373269e-11
-4.37349116e-11
-4.37079721e-11
-4.36693734e-11
-4.37381983e-11
-4.37368306e-11
-4.37100836e-11
-4.36862826e-11
-4.37388413e-11
-4.37393611e-11
-4.37103467e-11
-4.37146763e-11
-4.37392918e-11
-4.37262198e-11
-4.37104922e-11
-4.37407439e-11
-4.37398002e-11
-4.37114022e-11
-4.37114078e-11
-4.37406832e-11
-4.37402952e-11
-4.37071173e-11
-4.37130967e-11
-4.37410002e-11
-4.37408608e-11
-4.37073425e-11
-4.37151522e-11
-4.37413851e-11
-4.37414101e-11
-4.37094388e-11
-4.37180454e-11
-4.37418226e-11
-4.37419071e-11
-4.3712131e-11
-4.37207517e-11
-4.37422262e-11
-4.37423408e-11
-4.37149736e-11
-4.37231433e-11
-4.37425818e-11
-4.37427173e-11
-4.37176553e-11
-4.37255636e-11
-4.37428975e-11
-4.37430429e-11
-4.37202275e-11
-4.3727497e-11
-4.3743176e-11
-4.3743322e-11
-4.37226582e-11
-4.37293557e-11
-4.37434172e-11
-4.37435697e-11
-4.37248611e-11
-4.37310751e-11
-4.37436271e-11
-4.37437815e-11
-4.37268867e-11
-4.37324993e-11
-4.37438039e-11
-4.37439471e-11
-4.3728634e-11
-4.37337797e-11
-4.37439576e-11
-4.37441041e-11
-4.37303509e-11
-4.37350567e-11
-4.37440968e-11
-4.37442386e-11
-4.37319188e-11
-4.37362083e-11
-4.37442179e-11
-4.37443538e-11
-4.37333497e-11
-4.37372488e-11
-4.37443236e-11
-4.37444524e-11
-4.37346562e-11
-4.37381901e-11
-4.37444159e-11
-4.37445371e-11
-4.37358517e-11
-4.37390423e-11
-4.37444969e-11
-4.374461e-11
-4.37369489e-11
-4.3739814e-11
-4.37445683e-11
-4.37446728e-11
-4.37379599e-11
-4.37405127e-11
-4.37446317e-11
-4.37447268e-11
-4.37388951e-11
-4.37411451e-11
-4.37446883e-11
-4.37447737e-11
-4.37397631e-11
-4.37417179e-11
-4.3744739e-11
-4.37448144e-11
-4.37405702e-11
-4.37422391e-11
-4.37447847e-11
-4.37448499e-11
-4.37413208e-11
-4.37427169e-11
-4.37448261e-11
-4.37448813e-11
-4.37420177e-11
-4.37431588e-11
-4.37448637e-11
-4.37449092e-11
-4.37426629e-11
-4.37435714e-11
-4.37448978e-11
-4.37449344e-11
-4.37432585e-11
-4.37439606e-11
-4.37449289e-11
-4.37449572e-11
-4.3743806e-11
-4.37443302e-11
-4.37449569e-11
-4.37449778e-11
-4.37443064e-11
-4.37446787e-11
-4.37449815e-11
-4.37449945e-11
-4.3744749e-11
-4.37449774e-11
-4.37449983e-11
-4.37450001e-11
-4.37450086e-11
-4.37450001e-11
-4.37449985e-11
-4.37449954e-11
-4.37449967e-11
-4.37449928e-11
-4.37449926e-11
-4.37449898e-11
-4.37449899e-11
-4.37449872e-11
-4.3744987e-11
-4.37449848e-11
-4.37449846e-11
-4.37449825e-11
-4.37449823e-11
-4.37449805e-11
-4.37449802e-11
-4.37449786e-11
-4.37449783e-11
-4.37449769e-11
-4.37449766e-11
-4.37449754e-11
-4.3744975e-11
-4.3744974e-11
-4.37449736e-11
-4.37449726e-11
-4.37449723e-11
-4.37449713e-11
-4.37449709e-11
-4.37449699e-11
-4.37449695e-11
-4.37449686e-11
-4.37449681e-11
-4.37449672e-11
-4.37449668e-11
-4.3744966e-11
-4.37449655e-11
-4.37449649e-11
-4.37449644e-11
-4.37449639e-11
-4.37449635e-11
-4.37449631e-11
-4.37449628e-11
-4.37449625e-11
-4.37449622e-11
-4.3744962e-11
-4.37449618e-11
-4.37449617e-11
-4.37449616e-11
-4.37449615e-11
-4.37449615e-11
-4.37449614e-11
-4.37449614e-11
-4.37449614e-11
-4.37449614e-11
-4.37449614e-11
-4.37449614e-11
-4.37449614e-11
-4.37449614e-11
-4.37449614e-11
-4.37449614e-11
-4.37449614e-11
-4.37449614e-11
-4.37449614e-11
-4.37449614e-11
-4.37449614e-11
-4.37449614e-11
-4.37449614e-11
-4.37449614e-11
-4.37449614e-11
-4.37449614e-11
-4.37449614e-11
-4.37449614e-11
-4.37449614e-11
-4.37449614e-11
-4.37449614e-11
-4.37449614e-11
-4.37449614e-11
-4.37449614e-11
-4.37449614e-11
-4.37449614e-11
-4.37449614e-11
-4.37449614e-11
-4.37449614e-11
-4.37449614e-11
-4.37449614e-11
-4.37449614e-11
-4.37449614e-11
-4.37449614e-11
-4.37449614e-11
-4.37449614e-11
-4.37449614e-11
-4.37449614e-11
-4.37449614e-11
-4.37449614e-11
-4.37449614e-11
-4.37449614e-11
-4.37449614e-11
-4.37449614e-11
-4.37449614e-11
-4.37449614e-11
-4.37449614e-11
)
;

boundaryField
{
    closed
    {
        type            calculated;
        value           nonuniform List<scalar> 0();
    }
    open
    {
        type            calculated;
        value           uniform -4.37449614e-11;
    }
    sides
    {
        type            empty;
    }
    procBoundary5to4
    {
        type            processor;
        value           uniform -3.93465909e-11;
    }
}


// ************************************************************************* //
