/*--------------------------------*- C++ -*----------------------------------*\
| =========                 |                                                 |
| \\      /  F ield         | OpenFOAM: The Open Source CFD Toolbox           |
|  \\    /   O peration     | Version:  2306                                  |
|   \\  /    A nd           | Website:  www.openfoam.com                      |
|    \\/     M anipulation  |                                                 |
\*---------------------------------------------------------------------------*/
FoamFile
{
    version     2.0;
    format      ascii;
    arch        "LSB;label=32;scalar=64";
    class       surfaceScalarField;
    location    "0.00158";
    object      phi;
}
// * * * * * * * * * * * * * * * * * * * * * * * * * * * * * * * * * * * * * //

dimensions      [1 0 -1 0 0 0 0];

oriented        oriented;

internalField   nonuniform List<scalar> 
530
(
5.04396375e-07
5.19023305e-07
5.20625499e-07
5.13146421e-07
5.04669108e-07
5.12612032e-07
5.28885833e-07
5.34602653e-07
5.34192716e-07
5.35723796e-07
5.11386317e-07
5.05328294e-07
5.07684524e-07
5.08337266e-07
4.84847568e-07
4.7833457e-07
4.78690134e-07
4.83782143e-07
4.74841293e-07
4.7584013e-07
4.93007007e-07
4.95326423e-07
4.98543119e-07
4.65084166e-07
4.6544853e-07
4.66032755e-07
4.69563433e-07
4.83057834e-07
4.68230241e-07
4.70094643e-07
4.73312755e-07
4.73071625e-07
4.91550311e-07
4.94167829e-07
4.8336219e-07
5.31069103e-07
5.33972861e-07
5.40327782e-07
5.49710344e-07
5.16816397e-07
5.14018895e-07
5.20701351e-07
5.21611769e-07
5.3965769e-07
5.41433876e-07
5.40950099e-07
5.63304885e-07
5.67750783e-07
5.71599162e-07
5.66753828e-07
5.56197762e-07
5.69370306e-07
6.1363879e-07
6.04138381e-07
6.08600609e-07
6.23394226e-07
5.93026604e-07
5.8166264e-07
5.97282717e-07
5.99716618e-07
5.57462031e-07
5.5940257e-07
5.79948156e-07
5.82638294e-07
5.4257642e-07
5.41526837e-07
5.54590741e-07
5.51131908e-07
5.53961583e-07
5.75811579e-07
5.83428782e-07
5.38666368e-07
5.29801061e-07
5.53091075e-07
5.58819827e-07
5.52285247e-07
5.45407679e-07
5.80222426e-07
5.92822182e-07
5.99790123e-07
6.07359749e-07
5.75515471e-07
5.81014733e-07
6.05434868e-07
6.09058547e-07
6.04900223e-07
5.95659472e-07
6.01802884e-07
5.88996963e-07
6.04932982e-07
6.26586625e-07
6.33670173e-07
6.47854327e-07
6.53153986e-07
6.52466932e-07
6.57040093e-07
6.5561285e-07
6.7839892e-07
7.00301958e-07
7.06912265e-07
6.51776566e-07
6.54359651e-07
6.87488403e-07
6.9205354e-07
6.38255439e-07
6.34938188e-07
6.61824906e-07
6.62312614e-07
6.60197306e-07
6.97078032e-07
7.05873665e-07
6.43358134e-07
6.42308961e-07
6.78709143e-07
6.83621242e-07
6.17663523e-07
6.02977786e-07
6.46869032e-07
6.51593994e-07
6.6546349e-07
6.70149699e-07
6.57912726e-07
6.75223014e-07
7.06833732e-07
7.15147309e-07
7.12883621e-07
7.0378205e-07
7.28210092e-07
7.57374167e-07
7.65390431e-07
7.03579365e-07
7.03689073e-07
7.43004119e-07
7.50589751e-07
6.87683443e-07
6.91043236e-07
7.3182104e-07
7.39212217e-07
7.37923789e-07
7.34823192e-07
7.37188154e-07
7.31710394e-07
7.78327595e-07
7.86670755e-07
7.13881526e-07
7.22357356e-07
7.68713218e-07
7.73720088e-07
7.84073865e-07
7.3339659e-07
7.36521834e-07
7.84945427e-07
7.93974144e-07
7.18685842e-07
7.22683117e-07
7.71976915e-07
7.82207124e-07
6.99086042e-07
7.11436653e-07
7.59648077e-07
7.68235933e-07
7.77553552e-07
7.85508175e-07
7.82846354e-07
7.87381578e-07
7.71693063e-07
8.3600641e-07
8.47157653e-07
7.65925053e-07
7.70084282e-07
8.23317213e-07
8.35243675e-07
7.48118355e-07
7.62491892e-07
8.09402183e-07
8.20623502e-07
8.25814953e-07
8.36154723e-07
8.1395291e-07
8.39617729e-07
8.85062707e-07
8.98194922e-07
8.10800864e-07
8.12190601e-07
8.7011636e-07
8.82681455e-07
9.09124976e-07
9.2190597e-07
9.34128028e-07
9.46453715e-07
9.63194729e-07
9.70500239e-07
9.53237263e-07
9.45312123e-07
9.99033746e-07
1.01178476e-06
1.03990482e-06
1.05260677e-06
1.06405392e-06
1.06752219e-06
1.06820001e-06
1.06452935e-06
1.11781224e-06
1.12726234e-06
1.1568181e-06
1.10070977e-06
1.11082635e-06
1.15435345e-06
1.16737013e-06
1.17683096e-06
1.19149959e-06
1.18377952e-06
1.17715983e-06
1.22946526e-06
1.24101468e-06
1.24842079e-06
1.24123076e-06
1.2489444e-06
1.29306367e-06
1.30626231e-06
1.26462449e-06
1.27945006e-06
1.31813432e-06
1.33098938e-06
1.338378e-06
1.352659e-06
1.34596689e-06
1.35922631e-06
1.38809706e-06
1.39926052e-06
1.43060674e-06
1.44817875e-06
1.46137214e-06
1.49654583e-06
1.50985392e-06
1.50439203e-06
1.54338545e-06
1.55351922e-06
1.56530053e-06
1.57835136e-06
1.56996257e-06
1.60369533e-06
1.60220024e-06
1.61312901e-06
1.64558286e-06
1.66896478e-06
1.66892057e-06
1.67806652e-06
1.66488994e-06
1.71545198e-06
1.6981414e-06
1.70616268e-06
1.73489485e-06
1.75327608e-06
1.75975772e-06
1.78277998e-06
1.79041556e-06
1.79353194e-06
1.84370639e-06
1.83904562e-06
1.85845109e-06
1.87092885e-06
1.8795692e-06
1.89740922e-06
1.89503893e-06
1.86900808e-06
1.91173193e-06
1.92285041e-06
1.93258467e-06
1.94626103e-06
1.96382306e-06
1.97650677e-06
1.98204657e-06
2.0036992e-06
2.02943655e-06
2.04186094e-06
2.02955484e-06
1.97035529e-06
2.02143698e-06
2.03203702e-06
2.02920119e-06
2.03627757e-06
2.04614735e-06
2.05619061e-06
2.05674727e-06
2.11598305e-06
2.0862557e-06
2.09467842e-06
2.12131424e-06
2.13294879e-06
2.14033066e-06
2.1499293e-06
2.15123688e-06
2.16511053e-06
2.18769329e-06
2.19150844e-06
2.17529432e-06
2.21781266e-06
2.18849338e-06
2.19206943e-06
2.13841155e-06
2.2333624e-06
2.2457297e-06
2.24097308e-06
2.24568469e-06
2.24042079e-06
2.24582192e-06
2.30529274e-06
2.31939167e-06
2.31497133e-06
2.32076121e-06
2.31602974e-06
2.32150645e-06
2.34369512e-06
2.3720316e-06
2.38244375e-06
2.37284505e-06
2.28528603e-06
2.33476612e-06
2.33936391e-06
2.37782507e-06
2.37917381e-06
2.37036428e-06
2.37260954e-06
2.36589316e-06
2.38769294e-06
2.41560078e-06
2.40988113e-06
2.39137207e-06
2.43207915e-06
2.38041891e-06
2.38225642e-06
2.41132738e-06
2.40074483e-06
2.40737742e-06
2.39491005e-06
2.39590677e-06
2.38442213e-06
2.38646318e-06
2.38061896e-06
2.42812512e-06
2.37508874e-06
2.37397655e-06
2.42682454e-06
2.43029263e-06
2.41669522e-06
2.41793822e-06
2.410522e-06
2.4225316e-06
2.45052752e-06
2.44491866e-06
2.43116783e-06
2.46131468e-06
2.41092878e-06
2.41046005e-06
2.39442586e-06
2.39540847e-06
2.39106402e-06
2.38103502e-06
2.40206003e-06
2.42102313e-06
2.36891522e-06
2.35584968e-06
2.35786153e-06
2.41087086e-06
2.41871428e-06
2.4318878e-06
2.40256208e-06
2.40448835e-06
2.40334317e-06
2.42698427e-06
2.44453191e-06
2.42274061e-06
2.42218636e-06
2.48486695e-06
2.46122834e-06
2.42374532e-06
2.41310134e-06
2.40017381e-06
2.50488683e-06
2.52262768e-06
2.47054164e-06
2.46259706e-06
2.44490436e-06
2.43469968e-06
2.42441143e-06
2.41557474e-06
2.4073125e-06
2.39904081e-06
2.39108294e-06
2.38285627e-06
2.37429354e-06
2.36455316e-06
2.35577739e-06
2.3437898e-06
2.33359271e-06
2.32542801e-06
2.31160388e-06
2.2992258e-06
2.28396599e-06
2.2701692e-06
2.25394401e-06
2.23917944e-06
2.22252043e-06
2.20757104e-06
2.19101616e-06
2.17791708e-06
2.15897894e-06
2.14618158e-06
2.11945756e-06
2.10636949e-06
2.09562005e-06
2.0857711e-06
2.08138651e-06
2.07599709e-06
2.07694077e-06
2.07717733e-06
2.0851728e-06
2.091273e-06
2.10828922e-06
2.12844365e-06
2.15626047e-06
2.18417834e-06
2.22267486e-06
2.41580018e-06
2.4654197e-06
2.506521e-06
2.56468707e-06
2.62769564e-06
2.68943684e-06
2.75021795e-06
2.80449974e-06
2.84663104e-06
2.88245808e-06
2.88176472e-06
2.8609959e-06
2.81396292e-06
2.73837866e-06
2.63423193e-06
2.50249357e-06
2.35106362e-06
2.18977742e-06
2.04529054e-06
1.95458817e-06
1.47578922e-06
2.34080193e-06
3.68691587e-06
1.46816666e-05
-1.69496775e-06
-8.01239762e-07
-8.61561465e-08
3.66577289e-07
6.16580819e-07
8.23107478e-07
9.57565963e-07
1.04124247e-06
1.08972777e-06
1.11647429e-06
1.12799559e-06
1.13202629e-06
1.1319423e-06
1.13090288e-06
1.12953045e-06
1.12926894e-06
1.13014899e-06
1.1326186e-06
1.13630048e-06
1.141033e-06
1.14694091e-06
1.15343389e-06
1.16077746e-06
1.16841832e-06
1.17637162e-06
1.18426202e-06
1.19256769e-06
1.20072641e-06
1.20854266e-06
1.21655544e-06
1.22421767e-06
1.23335873e-06
1.24097692e-06
1.2358428e-06
1.23106531e-06
1.25855819e-06
1.28540717e-06
1.24106566e-06
1.16481778e-06
1.26808874e-06
1.4414306e-06
1.28059055e-06
1.00555422e-06
1.10311961e-06
1.24920818e-06
1.49002525e-06
1.3658275e-06
1.0287195e-06
1.49761476e-06
1.51860635e-06
9.77617421e-07
9.77865284e-07
1.33482919e-06
1.72191422e-06
1.58323545e-06
8.32710945e-07
1.02802244e-06
1.43321157e-06
1.28720584e-06
1.13079443e-06
1.16010592e-06
1.34906358e-06
1.29911859e-06
1.08030739e-06
1.1384477e-06
1.37474646e-06
1.3342685e-06
1.06270893e-06
1.06403192e-06
1.36354507e-06
1.3757195e-06
1.06467757e-06
1.02796025e-06
1.35353942e-06
1.3972793e-06
1.07112722e-06
1.00475545e-06
1.3158919e-06
1.38602753e-06
1.06337995e-06
9.65983043e-07
1.27613515e-06
)
;

boundaryField
{
    closed
    {
        type            calculated;
        value           nonuniform List<scalar> 0();
    }
    open
    {
        type            calculated;
        value           nonuniform List<scalar> 0();
    }
    sides
    {
        type            empty;
        value           nonuniform List<scalar> 0();
    }
    procBoundary4to3
    {
        type            processor;
        value           uniform -5.03587113e-07;
    }
    procBoundary4to5
    {
        type            processor;
        value           uniform 1.37009442e-06;
    }
}


// ************************************************************************* //
