/*--------------------------------*- C++ -*----------------------------------*\
| =========                 |                                                 |
| \\      /  F ield         | OpenFOAM: The Open Source CFD Toolbox           |
|  \\    /   O peration     | Version:  2306                                  |
|   \\  /    A nd           | Website:  www.openfoam.com                      |
|    \\/     M anipulation  |                                                 |
\*---------------------------------------------------------------------------*/
FoamFile
{
    version     2.0;
    format      ascii;
    arch        "LSB;label=32;scalar=64";
    class       volScalarField;
    location    "0.00158";
    object      prefDh_T;
}
// * * * * * * * * * * * * * * * * * * * * * * * * * * * * * * * * * * * * * //

dimensions      [1 1 -3 -1 0 0 0];

internalField   nonuniform List<scalar> 
531
(
-0.000741134968
-0.000744668617
-0.000740264108
-0.000596220631
-0.000506051146
-0.000525648426
-0.000439827574
-0.000443012954
-0.000742549337
-0.000742332916
-0.000545684859
-0.000510603196
-0.000743765101
-0.000739530775
-0.000570663864
-0.000532152416
-0.000746898194
-0.000734626264
-0.00059668476
-0.000488340668
-0.000501021523
-0.000739448212
-0.000740695796
-0.000534093821
-0.000511015576
-0.000744273909
-0.000738066906
-0.00073905964
-0.000514543917
-0.000495141389
-0.00074496636
-0.000740495678
-0.000737771801
-0.000605973859
-0.00038661881
-0.000420441393
-0.000738774908
-0.000737665583
-0.000737505192
-0.000554322648
-0.000510867717
-0.000744023938
-0.000739278575
-0.000736660074
-0.00060147676
-0.000462552814
-0.000473203754
-0.000741716161
-0.000739223208
-0.000608460603
-0.000512493167
-0.000445877767
-0.000447636252
-0.0007422449
-0.000736335806
-0.000738590356
-0.000591652598
-0.00048984696
-0.000742886502
-0.000740588886
-0.000552190891
-0.000525188072
-0.000741759544
-0.000741443999
-0.000549024105
-0.000556389197
-0.000744222403
-0.000596907027
-0.000467361425
-0.000746596476
-0.000736557679
-0.000583400752
-0.000520394257
-0.000745987064
-0.000735460701
-0.000598679345
-0.000468228708
-0.00047882134
-0.000741065804
-0.00073897223
-0.000738352547
-0.00056381347
-0.000501753138
-0.000747955127
-0.000737302206
-0.000597470843
-0.000504171886
-0.000528039526
-0.000425515251
-0.000433004597
-0.000735235216
-0.000741854129
-0.000731223465
-0.000744287358
-0.000730279903
-0.000596879815
-0.000457238584
-0.00046360302
-0.000737790121
-0.000745200839
-0.000549833663
-0.000510812236
-0.000738792532
-0.000742627481
-0.000542496054
-0.000547822769
-0.000742951539
-0.000600756538
-0.000453813707
-0.000742285318
-0.000737956446
-0.000554704784
-0.000516262841
-0.000739090803
-0.000742078124
-0.000532486955
-0.000535831579
-0.000741243423
-0.000743174726
-0.000734029777
-0.000595647563
-0.000466538693
-0.000471447362
-0.000743805013
-0.00073836952
-0.000598324271
-0.000464833932
-0.000470888698
-0.000738427291
-0.000744558507
-0.000588128657
-0.000536167226
-0.000739568188
-0.00074469011
-0.000595952811
-0.000558934405
-0.000741145754
-0.000743053264
-0.000602700976
-0.000567340682
-0.000499638769
-0.000500413258
-0.000738275608
-0.000741884649
-0.000536045282
-0.000521819713
-0.000740962087
-0.000739911272
-0.000738855989
-0.000575785412
-0.000490301107
-0.000739254928
-0.000741457978
-0.000552794867
-0.000517342053
-0.000736040192
-0.0007414133
-0.000545844696
-0.000542304126
-0.000737561263
-0.00073928042
-0.000734079249
-0.000601314051
-0.000517523496
-0.000462705205
-0.000463926437
-0.000734090701
-0.000739389395
-0.000539827874
-0.00050104711
-0.000731675563
-0.000740631011
-0.000530302778
-0.000523353821
-0.00073210229
-0.000741223557
-0.000725926964
-0.000599536634
-0.00043208779
-0.000442315515
-0.000729848003
-0.000740300056
-0.000547763978
-0.000495380474
-0.000731472856
-0.000739306198
-0.000730831504
-0.00073981378
-0.000599456797
-0.000536797601
-0.000537347435
-0.000518219102
-0.000434830028
-0.000437718199
-0.000733424766
-0.000736416306
-0.000731257407
-0.000737768287
-0.000599876469
-0.000549119657
-0.000481272658
-0.000482417623
-0.000740051205
-0.000738980062
-0.000739437231
-0.000594699869
-0.000535275744
-0.000739694575
-0.000741823119
-0.000735447856
-0.000595254066
-0.000476498975
-0.000477657317
-0.000740745711
-0.000738474017
-0.000599977525
-0.00044362994
-0.000448827814
-0.000734213074
-0.000744703726
-0.000548786458
-0.000520118464
-0.000736048119
-0.000744783736
-0.000735110427
-0.000594980689
-0.000463372091
-0.000466276803
-0.000738715322
-0.000740824247
-0.000741644631
-0.000607494883
-0.000581402049
-0.000738535351
-0.000595085485
-0.000496234487
-0.000739489893
-0.000741679172
-0.000597920763
-0.000554628428
-0.000514452825
-0.000515160937
-0.00073652331
-0.000742811033
-0.000616863622
-0.000590396584
-0.00053866842
-0.000538941943
-0.000473896697
-0.000475708905
-0.000737271489
-0.000741015799
-0.000741409453
-0.000607964752
-0.000552940361
-0.000735899199
-0.000739649629
-0.000735772067
-0.000609280577
-0.00050248585
-0.000502604638
-0.000736906181
-0.000739698857
-0.000598411385
-0.000469778624
-0.000472585505
-0.000731184834
-0.000745270891
-0.000572351001
-0.000543431994
-0.00073222221
-0.000743954496
-0.000735090428
-0.000593275154
-0.00051001006
-0.000527149872
-0.000426753624
-0.000430342377
-0.000725906642
-0.000741955197
-0.000730006493
-0.000744022358
-0.000735052444
-0.000598767211
-0.00045733615
-0.000461290159
-0.000726378607
-0.000743169362
-0.000552173229
-0.000529232631
-0.000728736464
-0.000740964371
-0.00073372824
-0.000598006977
-0.000505316429
-0.000527767861
-0.000432780374
-0.000435361945
-0.000725486988
-0.000735035256
-0.000733511694
-0.000539544211
-0.000464442756
-0.000725479052
-0.000736417397
-0.000731002779
-0.000738606494
-0.000563082135
-0.000480160755
-0.000729326022
-0.000737685451
-0.000736311641
-0.00073790428
-0.000595359239
-0.000496477048
-0.000519561525
-0.00043933837
-0.000441240849
-0.000726140473
-0.000742562907
-0.000548952906
-0.000533710503
-0.000728939154
-0.000741902597
-0.000736502424
-0.000594650232
-0.00051718058
-0.000535727442
-0.000453825026
-0.000455358665
-0.000731253097
-0.000743139314
-0.000742706153
-0.000589617153
-0.000525662318
-0.000737444766
-0.000745610171
-0.000745373735
-0.000595358036
-0.000466124201
-0.000468303183
-0.000733367519
-0.000750696481
-0.00054985817
-0.000525990597
-0.000739261085
-0.000752798554
-0.000749193901
-0.000584631363
-0.000466863673
-0.000491668638
-0.000379476593
-0.000384238957
-0.000742175573
-0.000762111487
-0.000758548467
-0.00076772731
-0.000771237075
-0.000774040469
-0.000560284661
-0.000354677156
-0.000371562314
-0.000781499612
-0.000799701773
-0.000798467301
-0.000467035115
-0.000400979464
-0.000781404699
-0.000803815093
-0.000802187204
-0.000799622271
-0.000489121833
-0.000770767624
-0.000803589531
-0.000428056646
-0.000385665453
-0.000752136617
-0.000750456777
-0.000762957627
-0.000697040829
-0.000343295304
-0.000682943709
-0.000752228812
-0.000720250959
-0.000746838783
-0.000732910995
-0.000745971891
-0.000738813755
-0.000747042129
-0.00074365462
-0.000751304601
-0.000751647483
-0.000761229587
-0.000770188767
-0.000786374383
-0.00081823068
-0.000870235715
-0.000855856904
-0.000824869215
-0.0007878029
-0.000758600475
-0.000728829705
-0.000703677503
-0.000681159658
-0.000661846363
-0.000647122236
-0.000624192619
-0.000602081
-0.000586370797
-0.000603150436
-0.000578937913
-0.000559587384
-0.000544920274
-0.000524297692
-0.000519127037
-0.000499130182
-0.000502086545
-0.000448355867
-0.00043332825
-0.000374537002
-0.00036267181
-0.000300934869
-0.000293071146
-0.000241257274
-0.000729071942
-0.000614809543
-0.000593954366
-0.000498452318
-0.00046433003
-0.000376419088
-0.000332506248
-0.000245945026
-0.000189892019
-0.000100351368
-3.06728569e-05
-2.38765788e-05
-1.83077297e-05
-1.09999807e-05
-5.48779107e-06
2.58580463e-06
8.29774916e-06
1.7249588e-05
1.42432794e-05
1.63326335e-05
3.60493635e-06
-8.97638342e-05
-0.000211838681
-0.000334840684
-0.000224013504
-0.000433402637
-0.00048800414
-0.000471583831
-0.000492351591
-0.00043018719
-0.000417416324
-0.000322106795
-0.000273666937
-0.000147255399
-5.29490259e-05
0.000101403926
0.000232902826
0.000402110964
0.000555365984
0.000727683795
0.000890607487
0.00105497169
0.00120140692
0.00135311989
0.00149126695
0.00163231124
0.0017602876
0.0018919988
0.00200303162
0.00212657579
0.00223371904
0.00235519542
0.00246423491
0.00258652548
0.00270109681
0.00282595391
0.0029472973
0.00307631382
0.0032042065
0.00333045284
0.00345628628
0.00361575233
0.00376202033
0.00385150147
0.00395692726
0.0042569765
0.00444483277
0.00424352099
0.00419156998
0.00509247103
0.00543483831
0.00424472716
0.0038554153
0.00646178116
0.00728410832
0.00420702464
0.00390621174
0.00806175489
0.00846066873
0.00524295276
0.00490782041
0.00852177299
0.00852415396
0.00641267602
0.0055672997
0.00853032149
0.00853256333
0.00704421942
0.0062127717
0.00853472994
0.00853529191
0.00743315221
0.00665860751
0.00853560467
0.00853559282
0.00766056216
0.00698107724
0.00853504105
0.00853409089
0.00778590516
0.0072251309
0.00852758618
0.00853186694
0.00784501448
0.00741283491
0.00852922892
0.00852923628
)
;

boundaryField
{
    closed
    {
        type            calculated;
        value           nonuniform List<scalar> 0();
    }
    open
    {
        type            calculated;
        value           nonuniform List<scalar> 0();
    }
    sides
    {
        type            empty;
    }
    procBoundary4to3
    {
        type            processor;
        value           uniform -0.000747253926;
    }
    procBoundary4to5
    {
        type            processor;
        value           uniform 0.00788748897;
    }
}


// ************************************************************************* //
