/*--------------------------------*- C++ -*----------------------------------*\
| =========                 |                                                 |
| \\      /  F ield         | OpenFOAM: The Open Source CFD Toolbox           |
|  \\    /   O peration     | Version:  2306                                  |
|   \\  /    A nd           | Website:  www.openfoam.com                      |
|    \\/     M anipulation  |                                                 |
\*---------------------------------------------------------------------------*/
FoamFile
{
    version     2.0;
    format      ascii;
    arch        "LSB;label=32;scalar=64";
    class       volScalarField;
    location    "0.00076";
    object      H2;
}
// * * * * * * * * * * * * * * * * * * * * * * * * * * * * * * * * * * * * * //

dimensions      [0 0 0 0 0 0 0];

internalField   nonuniform List<scalar> 
530
(
0.0110029807
0.0106876505
0.0106798046
0.0107448839
0.0106907432
0.0107081007
0.0110077073
0.0110062286
0.0106666194
0.0106709961
0.0110184646
0.0110182436
0.0106675787
0.0106852948
0.0110149479
0.0110152263
0.0106558557
0.0106514264
0.0108568622
0.0110146622
0.0110061101
0.0108820985
0.0106698755
0.0106881087
0.0107528419
0.0106876577
0.0107029478
0.0110301775
0.0110020953
0.0110303637
0.0106550613
0.0106487209
0.0108068628
0.0110180318
0.0110132777
0.0106638275
0.01065657
0.0107544421
0.0110230727
0.0110046825
0.0110270535
0.0106479297
0.010641008
0.0107508621
0.0110151102
0.0110123767
0.0106705634
0.0106693791
0.0106975389
0.0106828354
0.0107462695
0.0110159537
0.0110033102
0.0110275078
0.0106498493
0.0106464506
0.0108466267
0.0110145654
0.0110189895
0.0106693058
0.0106654136
0.0107876853
0.0110108041
0.0110177084
0.0106645076
0.0106626003
0.010782853
0.0110111202
0.0110171364
0.0106621026
0.0106593806
0.0107582328
0.0110047381
0.0110148111
0.0106784658
0.0106800502
0.0107271901
0.0106900289
0.0107422635
0.0110069682
0.0110215162
0.0106565274
0.0106789338
0.0110265561
0.011010451
0.0110412214
0.0106485797
0.0106462762
0.010794357
0.0110117124
0.011019713
0.0106756788
0.0106543641
0.0107541619
0.0110123601
0.01099994
0.0110232559
0.0108281859
0.0106414654
0.0106497915
0.010662919
0.0107052287
0.0110124041
0.0110318219
0.0106671222
0.0106891135
0.0110081263
0.0110354083
0.0106677264
0.0106974438
0.0110091418
0.011028157
0.0106550199
0.0106572429
0.0107434344
0.0110253566
0.0110050849
0.0110544686
0.0106553969
0.0106570442
0.0109691691
0.0110206835
0.0110492217
0.0106443534
0.0106446349
0.0107135725
0.0110184346
0.0110355975
0.0106629345
0.0106953578
0.0110138128
0.0110336546
0.0106549922
0.0106577572
0.0107339019
0.0110172058
0.0110397099
0.0106608581
0.0106874691
0.0110175576
0.0110537082
0.0106481276
0.010669448
0.0110167009
0.0110545806
0.0106545147
0.0106824523
0.0110121045
0.0110491004
0.0106597981
0.0106841152
0.0110069207
0.0110423973
0.010666986
0.0106996141
0.011005543
0.0110374913
0.0106625373
0.010669538
0.0107740677
0.0110067292
0.0109991619
0.0110293908
0.010667474
0.0106614954
0.010676955
0.0106670027
0.0107237426
0.0110107198
0.0110381229
0.0106645064
0.0106856585
0.0110087347
0.011044097
0.0106633961
0.0106859937
0.0110061378
0.0110407632
0.0106642783
0.0107008103
0.0109975269
0.0110243635
0.010684747
0.0106578044
0.0107532146
0.0110172627
0.0110202278
0.0110192546
0.0110515871
0.0106428596
0.0106455516
0.0106719299
0.0106658603
0.0107306523
0.0110132126
0.0110319273
0.0106681196
0.0106700512
0.0108052412
0.0110124493
0.011038725
0.0106701323
0.0106813587
0.011016073
0.0110488995
0.0106476798
0.0106747519
0.0110293103
0.0110172205
0.0110656036
0.0106381174
0.0106492089
0.011020412
0.0110448883
0.0106470919
0.0107210586
0.0110374749
0.0106901402
0.0107010077
0.0109933925
0.0110178117
0.0106826952
0.0106742713
0.0106919042
0.0108953402
0.0109982611
0.011029106
0.0106627656
0.010661645
0.0107314512
0.0110108864
0.0110269186
0.0106661132
0.0106871194
0.0110090484
0.0110267445
0.0106597077
0.0106616904
0.010742221
0.011008984
0.0110185023
0.0106674397
0.0106618054
0.0107219573
0.0110139518
0.0110035438
0.0110380856
0.0106458916
0.0106220009
0.0108267996
0.0110431994
0.0106733754
0.0106913282
0.0110179797
0.0110034079
0.0110318711
0.01066921
0.0106691197
0.0107354728
0.0107195798
0.0106852655
0.0108003253
0.0110074644
0.0110026609
0.0110257927
0.0106588781
0.0106498555
0.010722976
0.0110069848
0.0110159077
0.0106800908
0.010660477
0.0107246211
0.0110151174
0.0110050681
0.0110365568
0.0106426472
0.0106253806
0.0106731423
0.0110216985
0.0110302109
0.010666082
0.010692977
0.0110102825
0.0110196095
0.0106682844
0.0106682199
0.0107266915
0.0110095022
0.0110234824
0.0106615744
0.0106828902
0.0109972318
0.0110138969
0.0106977958
0.0106652182
0.0107309963
0.0110006423
0.0110105375
0.0106808687
0.0106832141
0.010706871
0.0106818943
0.010710486
0.0109998687
0.0110221976
0.0106627593
0.0106775028
0.0110017624
0.0110276222
0.0106652986
0.0106865079
0.0110018192
0.0110226527
0.0106657138
0.0106595173
0.0107018584
0.0110203519
0.0109976262
0.0110404815
0.0106709297
0.01067767
0.0110003167
0.0110195794
0.010678603
0.0106773997
0.0106796836
0.0107015438
0.0110043465
0.011016881
0.010658396
0.010654945
0.010889148
0.0110321328
0.0106731627
0.0106815587
0.0110047082
0.0110252287
0.0106618558
0.0107055556
0.0110246955
0.01068417
0.0106851412
0.0109968952
0.0110137198
0.0106807798
0.0106732767
0.010719299
0.0110018578
0.0110159968
0.0106784657
0.0106542497
0.0106904179
0.0110168023
0.011004063
0.0110440776
0.0106478502
0.0106578227
0.0110101279
0.0110389186
0.0106598911
0.0106761228
0.0110054433
0.0110242475
0.0106679309
0.010658907
0.0106864841
0.0110091641
0.0110230629
0.0106698779
0.0106812196
0.0110002634
0.0110150627
0.0106781183
0.0106698048
0.0107061851
0.0110030353
0.0110089818
0.010674631
0.0106730869
0.0107008175
0.0110011121
0.0110096292
0.0106761877
0.0106678259
0.0106908088
0.0109966131
0.0110125352
0.0106921662
0.0106576909
0.0107303769
0.011015477
0.010690501
0.0106775986
0.0109904892
0.011014217
0.0106804592
0.0106673419
0.0106927009
0.0109983212
0.0110027939
0.0107515058
0.0106672669
0.0106835729
0.0109959021
0.0110085153
0.0106839907
0.0106669029
0.0106831119
0.0109977981
0.0110063148
0.010689145
0.0106668219
0.0106834212
0.0109974637
0.0110059543
0.0106916482
0.010668644
0.0106823249
0.0109999939
0.0110085625
0.0106780998
0.0106608925
0.0106747509
0.0110046264
0.0110113341
0.0106702817
0.0106733997
0.0109996333
0.0110118565
0.0106769514
0.0106606792
0.0106731214
0.011005051
0.0110096552
0.0106718741
0.0106733651
0.010999797
0.0110113455
0.0106786958
0.0106608503
0.0106723633
0.0110049444
0.0110070952
0.0106722825
0.0106728706
0.0109992601
0.0110110013
0.0106810681
0.0106610296
0.0106718585
0.0110051607
0.0110062283
0.0106723848
0.0106717628
0.0109999319
0.0110111572
0.0106809554
0.0106596874
0.0106703153
0.0110058194
0.011007005
0.0106723924
0.010671049
0.0110009782
0.0110126558
0.0106814024
0.0106574429
0.0106681518
0.0110098611
0.0110113828
0.0106681187
0.0106570425
0.0110097832
0.0110156057
0.0106601668
0.0106608275
0.01100809
0.0110106712
0.0106716523
0.0106734446
0.010999386
0.011010297
0.0106971631
0.010664983
0.0106733128
0.0110051518
0.0110062742
0.0106777934
0.0106560048
0.0108785982
0.0110068507
0.0106830049
0.0106763615
0.0109974532
0.0110003854
0.0107499937
0.0106861052
0.0106709401
0.0106962095
0.0110081643
0.0107091162
0.010664025
0.0110059718
0.011009011
0.0106618189
0.0106570402
0.0110155648
0.0110119588
0.0106625333
0.0106659509
0.0110243891
0.0110012979
0.010952911
0.010686362
0.0106541408
0.0107033383
0.0110158895
0.0106891793
0.0106745079
0.0110128948
0.0109992224
0.0110181805
0.0106944311
0.0106479191
0.0106642014
0.0110092486
0.0110085433
0.0107062323
0.0106682766
)
;

boundaryField
{
    closed
    {
        type            calculated;
        value           nonuniform List<scalar> 0();
    }
    open
    {
        type            calculated;
        value           nonuniform List<scalar> 0();
    }
    sides
    {
        type            empty;
    }
    procBoundary2to1
    {
        type            processor;
        value           uniform 0.0110112124;
    }
    procBoundary2to3
    {
        type            processor;
        value           uniform 0.0106730901;
    }
}


// ************************************************************************* //
