/*--------------------------------*- C++ -*----------------------------------*\
| =========                 |                                                 |
| \\      /  F ield         | OpenFOAM: The Open Source CFD Toolbox           |
|  \\    /   O peration     | Version:  2306                                  |
|   \\  /    A nd           | Website:  www.openfoam.com                      |
|    \\/     M anipulation  |                                                 |
\*---------------------------------------------------------------------------*/
FoamFile
{
    version     2.0;
    format      ascii;
    arch        "LSB;label=32;scalar=64";
    class       volVectorField;
    location    "0.00076";
    object      U;
}
// * * * * * * * * * * * * * * * * * * * * * * * * * * * * * * * * * * * * * //

dimensions      [0 1 -1 0 0 0 0];

internalField   nonuniform List<vector> 
530
(
(0.361275187 0 0)
(0.355696397 0 0)
(0.359342065 0 0)
(0.354539109 0 0)
(0.346443015 0 0)
(0.340711572 0 0)
(0.342618746 0 0)
(0.336325389 0 0)
(0.328594427 0 0)
(0.328281341 0 0)
(0.324106382 0 0)
(0.315795266 0 0)
(0.309060337 0 0)
(0.298427121 0 0)
(0.285969354 0 0)
(0.279052564 0 0)
(0.273884268 0 0)
(0.279247312 0 0)
(0.275241097 0 0)
(0.268918637 0 0)
(0.262295951 0 0)
(0.256397913 0 0)
(0.255497353 0 0)
(0.251130003 0 0)
(0.241068891 0 0)
(0.230988294 0 0)
(0.225442436 0 0)
(0.228204015 0 0)
(0.224368137 0 0)
(0.222480975 0 0)
(0.219257234 0 0)
(0.219484854 0 0)
(0.211927063 0 0)
(0.20581653 0 0)
(0.201211373 0 0)
(0.19945053 0 0)
(0.203858032 0 0)
(0.199138662 0 0)
(0.196950701 0 0)
(0.191229268 0 0)
(0.186453056 0 0)
(0.185566277 0 0)
(0.193584603 0 0)
(0.188968289 0 0)
(0.185280894 0 0)
(0.180966647 0 0)
(0.176370114 0 0)
(0.17900089 0 0)
(0.175499361 0 0)
(0.165783009 0 0)
(0.158373955 0 0)
(0.157643819 0 0)
(0.151884132 0 0)
(0.148694337 0 0)
(0.145766814 0 0)
(0.149007643 0 0)
(0.140874849 0 0)
(0.133623515 0 0)
(0.131584059 0 0)
(0.129762734 0 0)
(0.130514047 0 0)
(0.121371355 0 0)
(0.115966962 0 0)
(0.113504021 0 0)
(0.111816688 0 0)
(0.112854606 0 0)
(0.104079196 0 0)
(0.0989458031 0 0)
(0.097035488 0 0)
(0.0950900991 0 0)
(0.0966987633 0 0)
(0.0889715381 0 0)
(0.0835528568 0 0)
(0.0812724962 0 0)
(0.078746965 0 0)
(0.076375977 0 0)
(0.069427136 0 0)
(0.0612024559 0 0)
(0.0513785515 0 0)
(0.04673295 0 0)
(0.0480704518 0 0)
(0.0456758179 0 0)
(0.0364893694 0 0)
(0.0264673377 0 0)
(0.0204689742 0 0)
(0.0229887114 0 0)
(0.0235318424 0 0)
(0.0230318806 0 0)
(0.013179465 0 0)
(0.00731320185 0 0)
(0.00592325391 0 0)
(0.00225723792 0 0)
(-0.000667565779 0 0)
(-0.00499524515 0 0)
(-0.00977863454 0 0)
(-0.0167131211 0 0)
(-0.0184677833 0 0)
(-0.0229999778 0 0)
(-0.0282511095 0 0)
(-0.0245840133 0 0)
(-0.0254695115 0 0)
(-0.0325547316 0 0)
(-0.0358589587 0 0)
(-0.0325559838 0 0)
(-0.0351722738 0 0)
(-0.0475715231 0 0)
(-0.0584263932 0 0)
(-0.0568487506 0 0)
(-0.0591886407 0 0)
(-0.0698762197 0 0)
(-0.0803184174 0 0)
(-0.0810570384 0 0)
(-0.0820124803 0 0)
(-0.0833535764 0 0)
(-0.0902610238 0 0)
(-0.096369156 0 0)
(-0.102706302 0 0)
(-0.0967933442 0 0)
(-0.0997239182 0 0)
(-0.109858779 0 0)
(-0.114271188 0 0)
(-0.11538409 0 0)
(-0.111564528 0 0)
(-0.110897912 0 0)
(-0.112770345 0 0)
(-0.121448132 0 0)
(-0.127053933 0 0)
(-0.124304473 0 0)
(-0.125155698 0 0)
(-0.133990365 0 0)
(-0.144157202 0 0)
(-0.142051901 0 0)
(-0.140233988 0 0)
(-0.142027593 0 0)
(-0.15036345 0 0)
(-0.155895151 0 0)
(-0.152362937 0 0)
(-0.151773239 0 0)
(-0.161522748 0 0)
(-0.172380185 0 0)
(-0.168787225 0 0)
(-0.16569762 0 0)
(-0.172960263 0 0)
(-0.182349561 0 0)
(-0.18043089 0 0)
(-0.177839511 0 0)
(-0.185885493 0 0)
(-0.196273903 0 0)
(-0.194483446 0 0)
(-0.191450822 0 0)
(-0.197900522 0 0)
(-0.207216583 0 0)
(-0.206318023 0 0)
(-0.203785577 0 0)
(-0.210194146 0 0)
(-0.219714861 0 0)
(-0.219628081 0 0)
(-0.214451576 0 0)
(-0.212661442 0 0)
(-0.21900586 0 0)
(-0.225940725 0 0)
(-0.23121458 0 0)
(-0.228452209 0 0)
(-0.228075181 0 0)
(-0.230431515 0 0)
(-0.232517979 0 0)
(-0.234514364 0 0)
(-0.239146232 0 0)
(-0.244436809 0 0)
(-0.241549668 0 0)
(-0.236696852 0 0)
(-0.241026087 0 0)
(-0.249255005 0 0)
(-0.247210309 0 0)
(-0.241979026 0 0)
(-0.24589846 0 0)
(-0.253995328 0 0)
(-0.252351911 0 0)
(-0.24634106 0 0)
(-0.24716889 0 0)
(-0.253610462 0 0)
(-0.25460551 0 0)
(-0.256143197 0 0)
(-0.259741626 0 0)
(-0.262601246 0 0)
(-0.268844498 0 0)
(-0.273505173 0 0)
(-0.274117504 0 0)
(-0.27118175 0 0)
(-0.263783346 0 0)
(-0.261100881 0 0)
(-0.265134055 0 0)
(-0.267838196 0 0)
(-0.272758225 0 0)
(-0.279080689 0 0)
(-0.274838517 0 0)
(-0.269353 0 0)
(-0.272413028 0 0)
(-0.278629627 0 0)
(-0.284395655 0 0)
(-0.281919098 0 0)
(-0.275390638 0 0)
(-0.276903498 0 0)
(-0.283657757 0 0)
(-0.281398087 0 0)
(-0.272691502 0 0)
(-0.274525864 0 0)
(-0.282528243 0 0)
(-0.284301431 0 0)
(-0.277062208 0 0)
(-0.265674808 0 0)
(-0.2637727 0 0)
(-0.270638004 0 0)
(-0.270350445 0 0)
(-0.264043556 0 0)
(-0.266171013 0 0)
(-0.269691689 0 0)
(-0.266046954 0 0)
(-0.264884491 0 0)
(-0.269367892 0 0)
(-0.269382763 0 0)
(-0.268359153 0 0)
(-0.270974237 0 0)
(-0.272732142 0 0)
(-0.272168545 0 0)
(-0.271632247 0 0)
(-0.268612821 0 0)
(-0.262628781 0 0)
(-0.262072357 0 0)
(-0.266662969 0 0)
(-0.272171758 0 0)
(-0.270313853 0 0)
(-0.262401148 0 0)
(-0.260647797 0 0)
(-0.264489209 0 0)
(-0.265651623 0 0)
(-0.25609999 0 0)
(-0.249409614 0 0)
(-0.252885109 0 0)
(-0.257570991 0 0)
(-0.255708515 0 0)
(-0.250554735 0 0)
(-0.249202637 0 0)
(-0.25098078 0 0)
(-0.254730168 0 0)
(-0.254433113 0 0)
(-0.248636895 0 0)
(-0.241363055 0 0)
(-0.240333228 0 0)
(-0.242460148 0 0)
(-0.242108905 0 0)
(-0.237378333 0 0)
(-0.235540518 0 0)
(-0.237671056 0 0)
(-0.237535777 0 0)
(-0.235042441 0 0)
(-0.226390799 0 0)
(-0.21927384 0 0)
(-0.218686208 0 0)
(-0.21756671 0 0)
(-0.214435311 0 0)
(-0.211374102 0 0)
(-0.211597061 0 0)
(-0.211265932 0 0)
(-0.205627022 0 0)
(-0.197636803 0 0)
(-0.193421601 0 0)
(-0.194425879 0 0)
(-0.196944797 0 0)
(-0.194841813 0 0)
(-0.191846606 0 0)
(-0.190795181 0 0)
(-0.190727426 0 0)
(-0.192227364 0 0)
(-0.191115444 0 0)
(-0.184884021 0 0)
(-0.17732622 0 0)
(-0.173476055 0 0)
(-0.173297012 0 0)
(-0.173921758 0 0)
(-0.170353428 0 0)
(-0.165080587 0 0)
(-0.166047132 0 0)
(-0.168914213 0 0)
(-0.165757939 0 0)
(-0.160523775 0 0)
(-0.158566564 0 0)
(-0.160957015 0 0)
(-0.162309334 0 0)
(-0.157428902 0 0)
(-0.150150898 0 0)
(-0.147946133 0 0)
(-0.149903235 0 0)
(-0.148136419 0 0)
(-0.142806565 0 0)
(-0.138662435 0 0)
(-0.138318281 0 0)
(-0.138947767 0 0)
(-0.137399253 0 0)
(-0.133767023 0 0)
(-0.131386722 0 0)
(-0.131119425 0 0)
(-0.130642523 0 0)
(-0.132094112 0 0)
(-0.132428386 0 0)
(-0.128044308 0 0)
(-0.122842132 0 0)
(-0.124103039 0 0)
(-0.127585478 0 0)
(-0.124640149 0 0)
(-0.120323721 0 0)
(-0.121802795 0 0)
(-0.12489867 0 0)
(-0.12291168 0 0)
(-0.119906186 0 0)
(-0.119244626 0 0)
(-0.121444915 0 0)
(-0.123140852 0 0)
(-0.123827913 0 0)
(-0.117726403 0 0)
(-0.11259373 0 0)
(-0.11411917 0 0)
(-0.117466105 0 0)
(-0.116606103 0 0)
(-0.116059589 0 0)
(-0.115933587 0 0)
(-0.116523636 0 0)
(-0.1184107 0 0)
(-0.118712281 0 0)
(-0.116866342 0 0)
(-0.117367738 0 0)
(-0.120870248 0 0)
(-0.120862247 0 0)
(-0.113678004 0 0)
(-0.113247732 0 0)
(-0.118984548 0 0)
(-0.123952257 0 0)
(-0.121576555 0 0)
(-0.120720368 0 0)
(-0.12196961 0 0)
(-0.118840285 0 0)
(-0.117110831 0 0)
(-0.118721818 0 0)
(-0.121813691 0 0)
(-0.121449917 0 0)
(-0.120779315 0 0)
(-0.120996126 0 0)
(-0.123982311 0 0)
(-0.125614793 0 0)
(-0.12490386 0 0)
(-0.124664297 0 0)
(-0.125398501 0 0)
(-0.127366226 0 0)
(-0.131215499 0 0)
(-0.134765096 0 0)
(-0.128210974 0 0)
(-0.122521977 0 0)
(-0.124903349 0 0)
(-0.129970866 0 0)
(-0.1280773 0 0)
(-0.124723418 0 0)
(-0.127223909 0 0)
(-0.131523098 0 0)
(-0.131750953 0 0)
(-0.131513149 0 0)
(-0.132318908 0 0)
(-0.136134786 0 0)
(-0.139345661 0 0)
(-0.136841348 0 0)
(-0.133569807 0 0)
(-0.134816499 0 0)
(-0.138217526 0 0)
(-0.138785352 0 0)
(-0.138847981 0 0)
(-0.14023559 0 0)
(-0.143627033 0 0)
(-0.146658729 0 0)
(-0.146678191 0 0)
(-0.14605839 0 0)
(-0.146806197 0 0)
(-0.150258102 0 0)
(-0.153429229 0 0)
(-0.153587029 0 0)
(-0.153280668 0 0)
(-0.153627082 0 0)
(-0.156336444 0 0)
(-0.15975236 0 0)
(-0.159285511 0 0)
(-0.155950382 0 0)
(-0.155011031 0 0)
(-0.157384448 0 0)
(-0.158074385 0 0)
(-0.157157577 0 0)
(-0.155899788 0 0)
(-0.157482365 0 0)
(-0.158035744 0 0)
(-0.157867254 0 0)
(-0.158994542 0 0)
(-0.161496508 0 0)
(-0.165243058 0 0)
(-0.165758953 0 0)
(-0.16405502 0 0)
(-0.162490041 0 0)
(-0.159996975 0 0)
(-0.159849026 0 0)
(-0.159826336 0 0)
(-0.161093397 0 0)
(-0.16295125 0 0)
(-0.160758771 0 0)
(-0.161089724 0 0)
(-0.161113157 0 0)
(-0.157875442 0 0)
(-0.155105212 0 0)
(-0.152090579 0 0)
(-0.152107441 0 0)
(-0.152169306 0 0)
(-0.14910659 0 0)
(-0.146822752 0 0)
(-0.144075706 0 0)
(-0.144074187 0 0)
(-0.144580156 0 0)
(-0.145422187 0 0)
(-0.146936115 0 0)
(-0.143952562 0 0)
(-0.143901936 0 0)
(-0.144616614 0 0)
(-0.14161321 0 0)
(-0.139251769 0 0)
(-0.140708089 0 0)
(-0.141517428 0 0)
(-0.142316332 0 0)
(-0.143918557 0 0)
(-0.140399759 0 0)
(-0.140100387 0 0)
(-0.141551033 0 0)
(-0.13895549 0 0)
(-0.136236194 0 0)
(-0.13744602 0 0)
(-0.138246174 0 0)
(-0.139300932 0 0)
(-0.14102327 0 0)
(-0.136719945 0 0)
(-0.136020232 0 0)
(-0.138484972 0 0)
(-0.136662409 0 0)
(-0.133623115 0 0)
(-0.134664281 0 0)
(-0.135509215 0 0)
(-0.137001903 0 0)
(-0.139041665 0 0)
(-0.134160731 0 0)
(-0.133032722 0 0)
(-0.133577676 0 0)
(-0.132850575 0 0)
(-0.132358935 0 0)
(-0.133085862 0 0)
(-0.133654767 0 0)
(-0.135233221 0 0)
(-0.137315542 0 0)
(-0.131838751 0 0)
(-0.130464114 0 0)
(-0.130936392 0 0)
(-0.130383602 0 0)
(-0.129986156 0 0)
(-0.1306436 0 0)
(-0.131134038 0 0)
(-0.13308584 0 0)
(-0.135464729 0 0)
(-0.129794571 0 0)
(-0.128296118 0 0)
(-0.128270456 0 0)
(-0.128296318 0 0)
(-0.127803779 0 0)
(-0.127731907 0 0)
(-0.129314583 0 0)
(-0.126695889 0 0)
(-0.123009043 0 0)
(-0.122935598 0 0)
(-0.122237404 0 0)
(-0.12173231 0 0)
(-0.121929881 0 0)
(-0.122232135 0 0)
(-0.121780471 0 0)
(-0.118841918 0 0)
(-0.116595998 0 0)
(-0.111622676 0 0)
(-0.110473429 0 0)
(-0.110658528 0 0)
(-0.112744758 0 0)
(-0.115348488 0 0)
(-0.110398432 0 0)
(-0.107070761 0 0)
(-0.10918705 0 0)
(-0.110716794 0 0)
(-0.110312695 0 0)
(-0.109605789 0 0)
(-0.107683342 0 0)
(-0.108718344 0 0)
(-0.107407381 0 0)
(-0.107238733 0 0)
(-0.110316698 0 0)
(-0.107085705 0 0)
(-0.102666171 0 0)
(-0.10261721 0 0)
(-0.101758893 0 0)
(-0.101824918 0 0)
(-0.101800933 0 0)
(-0.100841496 0 0)
(-0.100481989 0 0)
(-0.101217621 0 0)
(-0.103572407 0 0)
(-0.103544847 0 0)
(-0.101220723 0 0)
(-0.0961439551 0 0)
(-0.0935842527 0 0)
(-0.0955668205 0 0)
(-0.0991305884 0 0)
(-0.102355528 0 0)
(-0.103928024 0 0)
(-0.104767681 0 0)
(-0.104918331 0 0)
(-0.103794488 0 0)
(-0.102452905 0 0)
(-0.0975294783 0 0)
(-0.0933334056 0 0)
(-0.0864777443 0 0)
(-0.0833279794 0 0)
(-0.081834318 0 0)
(-0.07874848 0 0)
(-0.0774818593 0 0)
)
;

boundaryField
{
    closed
    {
        type            noSlip;
    }
    open
    {
        type            inletOutlet;
        inletValue      nonuniform List<vector> 0();
        value           nonuniform List<vector> 0();
    }
    sides
    {
        type            empty;
    }
    procBoundary2to1
    {
        type            processor;
        value           uniform (0.36755399 0 0);
    }
    procBoundary2to3
    {
        type            processor;
        value           uniform (-0.0721922465 0 0);
    }
}


// ************************************************************************* //
