/*--------------------------------*- C++ -*----------------------------------*\
| =========                 |                                                 |
| \\      /  F ield         | OpenFOAM: The Open Source CFD Toolbox           |
|  \\    /   O peration     | Version:  2306                                  |
|   \\  /    A nd           | Website:  www.openfoam.com                      |
|    \\/     M anipulation  |                                                 |
\*---------------------------------------------------------------------------*/
FoamFile
{
    version     2.0;
    format      ascii;
    arch        "LSB;label=32;scalar=64";
    class       volScalarField;
    location    "0.00056";
    object      prefDPV_H2;
}
// * * * * * * * * * * * * * * * * * * * * * * * * * * * * * * * * * * * * * //

dimensions      [1 -1 -1 0 0 0 0];

internalField   nonuniform List<scalar> 
530
(
-3.08862003e-05
-3.14776285e-05
-3.15472132e-05
-3.08680996e-05
-3.04657797e-05
-3.08769478e-05
-3.14414669e-05
-3.15675482e-05
-3.15662149e-05
-3.08976616e-05
-3.06516793e-05
-3.0587491e-05
-3.09217555e-05
-3.14790334e-05
-3.155627e-05
-3.08732499e-05
-3.05279627e-05
-3.08770473e-05
-3.14425885e-05
-3.15771363e-05
-3.09811617e-05
-3.07775802e-05
-3.05678287e-05
-3.08698354e-05
-3.14621911e-05
-3.15532083e-05
-3.08778755e-05
-3.05331942e-05
-3.08628366e-05
-3.13724815e-05
-3.15638484e-05
-3.1439416e-05
-3.08913092e-05
-3.06481008e-05
-3.05649892e-05
-3.08117126e-05
-3.1437971e-05
-3.153878e-05
-3.08826633e-05
-3.05276657e-05
-3.0899358e-05
-3.14267452e-05
-3.12756171e-05
-3.08012914e-05
-3.0905678e-05
-3.14463781e-05
-3.12294548e-05
-3.07592231e-05
-3.08951838e-05
-3.14395819e-05
-3.11993431e-05
-3.07706119e-05
-3.09291853e-05
-3.1432811e-05
-3.15137725e-05
-3.08660742e-05
-3.04928383e-05
-3.08840098e-05
-3.14137726e-05
-3.11687226e-05
-3.08266938e-05
-3.09070385e-05
-3.14418945e-05
-3.14670223e-05
-3.08721059e-05
-3.04929652e-05
-3.08764184e-05
-3.14193768e-05
-3.11261361e-05
-3.07777739e-05
-3.08734393e-05
-3.14447004e-05
-3.10779041e-05
-3.07935277e-05
-3.08829895e-05
-3.14480815e-05
-3.13684904e-05
-3.0852825e-05
-3.05290242e-05
-3.08701158e-05
-3.14396786e-05
-3.10141764e-05
-3.0824097e-05
-3.0909166e-05
-3.14716443e-05
-3.12218787e-05
-3.07919356e-05
-3.05403409e-05
-3.08843382e-05
-3.14647064e-05
-3.09542559e-05
-3.07952475e-05
-3.097691e-05
-3.14791843e-05
-3.11400311e-05
-3.06583074e-05
-3.04933363e-05
-3.10630531e-05
-3.14785403e-05
-3.10670193e-05
-3.06064084e-05
-3.04879091e-05
-3.10802588e-05
-3.15119603e-05
-3.09204832e-05
-3.07515319e-05
-3.12039352e-05
-3.15081003e-05
-3.10235069e-05
-3.06072109e-05
-3.05335251e-05
-3.11884944e-05
-3.14956446e-05
-3.10275465e-05
-3.05886363e-05
-3.05443023e-05
-3.12473664e-05
-3.15042955e-05
-3.10010634e-05
-3.05987392e-05
-3.0592129e-05
-3.13507444e-05
-3.15096502e-05
-3.10118192e-05
-3.05949866e-05
-3.05980715e-05
-3.14304181e-05
-3.15115395e-05
-3.09735971e-05
-3.05647708e-05
-3.0570202e-05
-3.14457867e-05
-3.15420428e-05
-3.09630728e-05
-3.06907757e-05
-3.14826679e-05
-3.15205447e-05
-3.09507567e-05
-3.05215349e-05
-3.0545066e-05
-3.15027618e-05
-3.1508378e-05
-3.09401941e-05
-3.0503149e-05
-3.05423161e-05
-3.14972988e-05
-3.1540455e-05
-3.08985462e-05
-3.07225284e-05
-3.15076131e-05
-3.15136634e-05
-3.09280958e-05
-3.05181564e-05
-3.05972529e-05
-3.15372928e-05
-3.15243103e-05
-3.09042486e-05
-3.06133197e-05
-3.09019414e-05
-3.15034592e-05
-3.15279212e-05
-3.05850467e-05
-3.05515955e-05
-3.14788903e-05
-3.14878702e-05
-3.09321776e-05
-3.05150901e-05
-3.0639228e-05
-3.15339657e-05
-3.14982417e-05
-3.09106586e-05
-3.05343981e-05
-3.09032657e-05
-3.14864621e-05
-3.10337169e-05
-3.05793315e-05
-3.09360109e-05
-3.14776572e-05
-3.14548318e-05
-3.05046805e-05
-3.04809583e-05
-3.14537218e-05
-3.15046307e-05
-3.07766952e-05
-3.05715576e-05
-3.14359971e-05
-3.1522891e-05
-3.07712657e-05
-3.06267039e-05
-3.15273197e-05
-3.15014491e-05
-3.0923048e-05
-3.05011418e-05
-3.06448231e-05
-3.15278873e-05
-3.15361953e-05
-3.07850472e-05
-3.05651012e-05
-3.1499678e-05
-3.15351462e-05
-3.07574536e-05
-3.06435285e-05
-3.15431977e-05
-3.15033651e-05
-3.09245576e-05
-3.04732383e-05
-3.05228413e-05
-3.15246992e-05
-3.15335799e-05
-3.07915849e-05
-3.05910251e-05
-3.15245539e-05
-3.15391647e-05
-3.07710138e-05
-3.06597569e-05
-3.15468462e-05
-3.15114013e-05
-3.09205889e-05
-3.04635562e-05
-3.04907511e-05
-3.15288788e-05
-3.15386642e-05
-3.08381834e-05
-3.06712927e-05
-3.15537418e-05
-3.15203392e-05
-3.09171069e-05
-3.04925736e-05
-3.05124472e-05
-3.15310889e-05
-3.15464981e-05
-3.08533775e-05
-3.06808784e-05
-3.15521674e-05
-3.15327136e-05
-3.09175212e-05
-3.05640912e-05
-3.06293382e-05
-3.15489987e-05
-3.15234722e-05
-3.090844e-05
-3.05062065e-05
-3.06086217e-05
-3.15249174e-05
-3.15586314e-05
-3.0826311e-05
-3.06725128e-05
-3.15423597e-05
-3.15321335e-05
-3.09280928e-05
-3.0567339e-05
-3.05896772e-05
-3.15503189e-05
-3.15266869e-05
-3.09195033e-05
-3.05532203e-05
-3.06332413e-05
-3.15505824e-05
-3.15329729e-05
-3.09114274e-05
-3.055158e-05
-3.06743227e-05
-3.15495325e-05
-3.15342402e-05
-3.09127527e-05
-3.05620417e-05
-3.06918562e-05
-3.15511149e-05
-3.15298731e-05
-3.09082272e-05
-3.05258855e-05
-3.06535824e-05
-3.1523739e-05
-3.15548607e-05
-3.0762568e-05
-3.06597203e-05
-3.1541594e-05
-3.15192261e-05
-3.09194345e-05
-3.04855478e-05
-3.06040564e-05
-3.15567157e-05
-3.15385393e-05
-3.0925839e-05
-3.07114643e-05
-3.07356817e-05
-3.12053911e-05
-3.14860578e-05
-3.09038546e-05
-3.09460336e-05
-3.09127138e-05
-3.10047154e-05
-3.09511142e-05
-3.09019008e-05
-3.09056514e-05
-3.09328652e-05
-3.09318958e-05
-3.09175566e-05
-3.09154143e-05
-3.09193585e-05
-3.09208304e-05
-3.09195841e-05
-3.09186116e-05
-3.09187325e-05
-3.09190078e-05
-3.09189721e-05
-3.09188546e-05
-3.09188251e-05
-3.09188294e-05
-3.09188291e-05
-3.09188211e-05
-3.09188155e-05
-3.09188128e-05
-3.09188107e-05
-3.09188095e-05
-3.0918809e-05
-3.09188085e-05
-3.09188079e-05
-3.09188073e-05
-3.09188072e-05
-3.09188073e-05
-3.09188074e-05
-3.09188071e-05
-3.09188069e-05
-3.0918807e-05
-3.09188072e-05
-3.0918807e-05
-3.09188068e-05
-3.09188069e-05
-3.09188074e-05
-3.09188074e-05
-3.09188064e-05
-3.09188063e-05
-3.09188076e-05
-3.09188082e-05
-3.09188068e-05
-3.09188054e-05
-3.09188064e-05
-3.09188088e-05
-3.09188086e-05
-3.09188053e-05
-3.0918805e-05
-3.09188077e-05
-3.0918809e-05
-3.09188073e-05
-3.09188054e-05
-3.09188061e-05
-3.0918808e-05
-3.09188079e-05
-3.09188068e-05
-3.09188071e-05
-3.0918808e-05
-3.09188064e-05
-3.09188047e-05
-3.09188124e-05
-3.09188257e-05
-3.09188057e-05
-3.09187611e-05
-3.09188063e-05
-3.09190258e-05
-3.09189497e-05
-3.09182894e-05
-3.0918304e-05
-3.0920722e-05
-3.09208856e-05
-3.09153253e-05
-3.09141155e-05
-3.09289197e-05
-3.09356743e-05
-3.09072969e-05
-3.0898981e-05
-3.09467312e-05
-3.10096519e-05
-3.09071661e-05
-3.09425498e-05
-3.0921149e-05
-3.13331145e-05
-3.09314126e-05
-3.06362461e-05
-3.08958456e-05
-3.15106218e-05
-3.1204461e-05
-3.05745187e-05
-3.08069425e-05
-3.15231505e-05
-3.15406673e-05
-3.07087225e-05
-3.05063967e-05
-3.12025364e-05
-3.15150913e-05
-3.09351415e-05
-3.05773941e-05
-3.12161845e-05
-3.15265675e-05
-3.09356672e-05
-3.05823984e-05
-3.12505202e-05
-3.15070251e-05
-3.0942938e-05
-3.05423842e-05
-3.07903979e-05
-3.15000168e-05
-3.1544513e-05
-3.07520858e-05
-3.05191558e-05
-3.12249122e-05
-3.15121916e-05
-3.09173084e-05
-3.05612746e-05
-3.10654203e-05
-3.15207739e-05
-3.09042787e-05
-3.05712284e-05
-3.1154358e-05
-3.15250681e-05
-3.09026307e-05
-3.06311729e-05
-3.10136913e-05
-3.14971709e-05
-3.12765737e-05
-3.06616435e-05
-3.04703239e-05
-3.10813979e-05
-3.15151368e-05
-3.09043108e-05
-3.06421059e-05
-3.10648143e-05
-3.1495633e-05
-3.11935577e-05
-3.06492514e-05
-3.04881686e-05
-3.10920214e-05
-3.1518258e-05
-3.0909186e-05
-3.06554661e-05
-3.11079478e-05
-3.14988807e-05
-3.11671915e-05
-3.0668647e-05
-3.05118491e-05
-3.11079097e-05
-3.15203926e-05
-3.0909099e-05
-3.06613844e-05
-3.11044131e-05
-3.14993771e-05
-3.11701955e-05
-3.06793332e-05
-3.05426808e-05
-3.10639302e-05
-3.14906524e-05
-3.11402261e-05
-3.06841497e-05
-3.05543892e-05
-3.10561491e-05
-3.14873319e-05
-3.11395692e-05
-3.07122045e-05
-3.0569589e-05
-3.10525366e-05
-3.1484226e-05
-3.11030162e-05
-3.06825028e-05
-3.05340113e-05
-3.10231029e-05
-3.14779973e-05
-3.11034521e-05
-3.06895749e-05
-3.05131006e-05
-3.1005806e-05
-3.14951823e-05
-3.09052642e-05
-3.06652975e-05
-3.10425822e-05
-3.14831438e-05
-3.10668169e-05
-3.06852043e-05
-3.05557813e-05
-3.10694561e-05
-3.15032483e-05
-3.09082518e-05
-3.06196219e-05
-3.10099609e-05
-3.1502249e-05
-3.0901878e-05
-3.06357768e-05
-3.10237297e-05
-3.14948505e-05
-3.09515509e-05
-3.06375802e-05
-3.09027185e-05
-3.14387906e-05
-3.15251572e-05
-3.09009607e-05
-3.05967466e-05
-3.09471812e-05
-3.14925497e-05
-3.13207323e-05
-3.09053193e-05
-3.05469376e-05
-3.05291471e-05
-3.09785145e-05
-3.1494539e-05
-3.09754879e-05
-3.07076893e-05
-3.09109538e-05
-3.13859377e-05
-3.15433967e-05
-3.11949545e-05
-3.07576184e-05
-3.04179952e-05
-3.0860634e-05
-3.14554714e-05
-3.09207273e-05
-3.06514734e-05
-3.09245681e-05
-3.14763022e-05
-3.12895754e-05
-3.08534922e-05
-3.06277227e-05
-3.09242974e-05
-3.14697816e-05
-3.1433449e-05
-3.09010307e-05
-3.0593226e-05
-3.09092557e-05
-3.1461553e-05
-3.13160133e-05
-3.08207314e-05
-3.04952542e-05
)
;

boundaryField
{
    closed
    {
        type            calculated;
        value           nonuniform List<scalar> 0();
    }
    open
    {
        type            calculated;
        value           nonuniform List<scalar> 0();
    }
    sides
    {
        type            empty;
    }
    procBoundary2to1
    {
        type            processor;
        value           uniform -3.05392054e-05;
    }
    procBoundary2to3
    {
        type            processor;
        value           uniform -3.08820324e-05;
    }
}


// ************************************************************************* //
