/*--------------------------------*- C++ -*----------------------------------*\
| =========                 |                                                 |
| \\      /  F ield         | OpenFOAM: The Open Source CFD Toolbox           |
|  \\    /   O peration     | Version:  2306                                  |
|   \\  /    A nd           | Website:  www.openfoam.com                      |
|    \\/     M anipulation  |                                                 |
\*---------------------------------------------------------------------------*/
FoamFile
{
    version     2.0;
    format      ascii;
    arch        "LSB;label=32;scalar=64";
    class       volScalarField;
    location    "0.00056";
    object      prefDh_H2;
}
// * * * * * * * * * * * * * * * * * * * * * * * * * * * * * * * * * * * * * //

dimensions      [1 1 -3 0 0 0 0];

internalField   nonuniform List<scalar> 
530
(
28.6019642
37.5817618
38.6152406
28.3066952
22.4275649
28.2788689
37.0535073
38.8897547
38.873587
28.7169185
25.1929043
24.2212184
29.2760823
37.6104277
38.7461405
28.3347379
23.3449027
28.4791514
37.063172
39.0345255
29.893597
27.0419806
23.9316438
28.485045
37.366535
38.6909562
28.3771245
23.4386612
28.1492687
36.0292431
38.8292917
37.0217186
28.6987237
25.1868254
23.8938142
27.6598898
37.0069974
38.4854504
28.4769658
23.3517579
28.8513046
36.8304938
34.4836178
27.467698
28.9535205
37.1252535
33.7477033
26.8164684
28.7831634
37.0278362
33.270373
26.9991919
29.3994194
36.9275895
38.1297824
28.23901
22.830594
28.5775093
36.6413091
32.7880159
27.8612323
28.9497688
37.0563212
37.4378949
28.4008754
22.8331616
28.4355616
36.7296141
32.1145447
27.1126725
28.323944
37.1012133
31.3574011
27.3555082
28.471951
37.1475391
35.9690885
28.1837151
23.3709998
28.2458712
37.0245919
30.3746247
27.8302177
28.7600184
37.4871947
33.634148
27.2855097
23.530133
28.3939953
37.3902683
29.474748
27.398389
29.7669238
37.5905443
32.3454247
25.3097303
22.8279157
31.1026836
37.5788263
31.2060793
24.5386427
22.7232454
31.3735837
38.0770971
29.1110045
26.7235822
33.3315928
38.0104026
30.5415335
24.5451671
23.4237138
33.0878702
37.8265221
30.5997143
24.2735295
23.5807461
34.0243582
37.9537694
30.1968016
24.4335163
24.3035188
35.6790604
38.0280341
30.3602383
24.3743387
24.3922342
36.932877
38.0564187
29.7880501
23.9159533
23.9525894
37.1445324
38.5160772
29.9743372
25.7840207
37.7040256
38.1911029
29.4625449
23.248573
23.5910556
37.9869802
38.0116322
29.3049378
22.9764695
23.5281344
37.8971645
38.498205
28.9904089
26.2686403
38.0579018
38.0900447
29.143991
23.1940639
24.3629126
38.4842147
38.2555095
28.8867493
24.6318085
28.7586786
37.9489835
38.3384973
24.2301048
23.7089182
37.6357685
37.7069719
29.2260959
23.1656567
25.0162645
38.432462
37.8630082
28.9507354
23.4672187
28.865973
37.7043613
30.6723059
24.1679722
29.462697
37.5644804
37.2671309
23.0437221
22.6572588
37.2504104
37.963825
27.1963465
23.9873037
37.0006662
38.2364398
27.0938472
24.8300702
38.3475894
37.9083596
29.154111
22.9502414
25.0899595
38.3229445
38.4318081
27.2832754
23.8659389
37.9421389
38.4182911
26.871975
25.0801716
38.5778593
37.9351876
29.1400172
22.5219581
23.2393177
38.2828556
38.3944498
27.3768369
24.2618275
38.304111
38.4759148
27.0620207
25.3230137
38.6287618
38.055605
29.0758984
22.3637689
22.7468806
38.3469154
38.4690479
28.0476062
25.4944891
38.7300744
38.188817
29.0024109
22.7951882
23.072637
38.3769904
38.5853536
28.2622328
25.6298531
38.7063072
38.3729798
28.9930165
23.8645074
24.8649384
38.6389595
38.235895
28.845684
22.9976693
24.5193575
38.2821831
38.7656867
27.8490081
25.4967562
38.5641538
38.3641604
29.1228326
23.9101101
24.2621513
38.6612584
38.2847142
28.9842964
23.6957554
24.9122569
38.6618295
38.3785739
28.8760434
23.6707181
25.5326744
38.643878
38.3960055
28.8997118
23.8306713
25.8031166
38.6654982
38.3311776
28.8415574
23.2946839
25.2063415
38.2564837
38.7110702
26.9002948
25.3161354
38.5565365
38.1721377
29.0098777
22.6802542
24.4594141
38.7601851
38.4580673
29.0911176
26.1260426
26.5218023
33.3638727
37.7344776
28.817786
29.7037227
28.8632799
30.2243138
29.4026624
28.7176603
28.7483278
29.1284859
29.1117375
28.9037032
28.872048
28.9268748
28.9472705
28.9289118
28.9146296
28.9161298
28.9198549
28.9192427
28.917459
28.9169862
28.9170012
28.9169691
28.9168333
28.9167397
28.9166909
28.9166552
28.9166329
28.9166229
28.916613
28.9166036
28.9165939
28.916591
28.9165928
28.9165926
28.9165885
28.916586
28.9165876
28.9165895
28.9165873
28.9165834
28.9165853
28.9165926
28.9165919
28.9165781
28.9165762
28.9165948
28.9166036
28.9165843
28.9165635
28.9165779
28.9166128
28.9166093
28.9165629
28.9165576
28.9165969
28.9166157
28.9165916
28.9165643
28.9165741
28.9166009
28.9166
28.9165844
28.9165899
28.9166024
28.9165801
28.9165589
28.91667
28.9168674
28.9165833
28.9159676
28.9166126
28.9198182
28.9187185
28.9094694
28.9096489
28.9447376
28.9470943
28.8689052
28.8522858
29.0661028
29.1665423
28.7649653
28.6730272
29.3346387
30.2965848
28.7790102
29.6117332
28.9715766
35.4005788
29.1153298
25.0219326
28.7146303
38.0551519
33.3476977
24.0482702
27.5683137
38.2494902
38.5112405
26.089798
23.006074
33.3181842
38.1228506
29.4744314
24.0832717
33.5326439
38.2947804
29.5034408
24.1604897
34.075125
37.9941522
29.3178744
23.5727098
27.3073294
37.9128716
38.569988
26.7522957
23.205018
33.6718796
38.0772967
29.1220166
23.8379725
31.1492718
38.2125179
28.893714
23.9813429
32.5464644
38.2743345
28.8623228
24.9046801
30.3461238
37.8476418
34.5017033
25.3526843
22.4755793
31.396468
38.1291985
28.8885076
25.0720629
31.1378377
37.8251607
33.1856855
25.1723161
22.7378584
31.5629844
38.1768251
28.9768337
25.2713225
31.8128394
37.8731862
32.7705991
25.469666
23.096037
31.8127797
38.209154
28.9719527
25.3600176
31.7562455
37.8812566
32.8189293
25.622731
23.5797819
31.1185416
37.7544742
32.3476608
25.7022464
23.7581483
30.9992076
37.7039578
32.3386933
26.1319126
23.9938817
30.944766
37.658816
31.7677971
25.6798841
23.4502954
30.4857904
37.5684294
31.7740678
25.7939796
23.123386
30.2204427
37.8354253
28.8233107
25.4347934
30.7839586
37.6447758
31.2043168
25.740791
23.7709705
31.2152916
37.9531706
28.8786682
24.7265796
30.27846
37.9426389
28.7664265
24.9729661
30.4833698
37.8264711
29.4313323
25.0246304
28.9218075
37.0137273
38.2952484
28.8823434
24.3978645
29.3209327
37.7827352
35.2087699
28.8905609
23.6642919
23.3365803
29.7871111
37.824424
29.7882551
26.0890495
29.0920727
36.2396974
38.5299813
33.2142136
26.7360762
21.6729016
28.0517788
37.2665927
28.9572495
25.2138282
28.9574202
37.553494
34.7108606
28.23914
24.8812853
28.9815617
37.4516713
36.9295027
28.9258046
24.3671137
28.7469574
37.3367079
35.1324021
27.7158991
22.8500677
)
;

boundaryField
{
    closed
    {
        type            calculated;
        value           nonuniform List<scalar> 0();
    }
    open
    {
        type            calculated;
        value           nonuniform List<scalar> 0();
    }
    sides
    {
        type            empty;
    }
    procBoundary2to1
    {
        type            processor;
        value           uniform 23.5215525;
    }
    procBoundary2to3
    {
        type            processor;
        value           uniform 28.3311521;
    }
}


// ************************************************************************* //
