/*--------------------------------*- C++ -*----------------------------------*\
| =========                 |                                                 |
| \\      /  F ield         | OpenFOAM: The Open Source CFD Toolbox           |
|  \\    /   O peration     | Version:  2306                                  |
|   \\  /    A nd           | Website:  www.openfoam.com                      |
|    \\/     M anipulation  |                                                 |
\*---------------------------------------------------------------------------*/
FoamFile
{
    version     2.0;
    format      ascii;
    arch        "LSB;label=32;scalar=64";
    class       volScalarField;
    location    "0.00082";
    object      alpha;
}
// * * * * * * * * * * * * * * * * * * * * * * * * * * * * * * * * * * * * * //

dimensions      [1 -1 -1 0 0 0 0];

internalField   nonuniform List<scalar> 
530
(
3.52957378e-05
3.52183185e-05
3.59160225e-05
3.68268824e-05
3.68461215e-05
3.56731187e-05
3.52316645e-05
3.56073909e-05
3.61669292e-05
3.68289176e-05
3.61808272e-05
3.52701859e-05
3.52872934e-05
3.61280459e-05
3.68071507e-05
3.60208034e-05
3.51179771e-05
3.52212595e-05
3.6045939e-05
3.68125973e-05
3.67699991e-05
3.68050342e-05
3.66737518e-05
3.51832984e-05
3.50634989e-05
3.56473504e-05
3.64313062e-05
3.68205009e-05
3.58799717e-05
3.52483543e-05
3.53629506e-05
3.59425392e-05
3.68117884e-05
3.6843959e-05
3.50849024e-05
3.49510425e-05
3.57264657e-05
3.68492203e-05
3.68399933e-05
3.56980346e-05
3.51812153e-05
3.57225888e-05
3.68259654e-05
3.68403519e-05
3.68180266e-05
3.62210264e-05
3.52385784e-05
3.52244358e-05
3.56815521e-05
3.6029193e-05
3.68158258e-05
3.6789984e-05
3.52361572e-05
3.51691498e-05
3.54467924e-05
3.55722606e-05
3.62350481e-05
3.68088499e-05
3.60607058e-05
3.53249808e-05
3.57039715e-05
3.68664783e-05
3.68397737e-05
3.571556e-05
3.55083938e-05
3.60470076e-05
3.68060652e-05
3.60590242e-05
3.50345629e-05
3.52688567e-05
3.68236344e-05
3.6819147e-05
3.56238705e-05
3.53616695e-05
3.67836842e-05
3.68229362e-05
3.56602724e-05
3.53925067e-05
3.63307529e-05
3.68011454e-05
3.5829417e-05
3.50835115e-05
3.55171044e-05
3.68433863e-05
3.68382801e-05
3.56180812e-05
3.53964809e-05
3.61073036e-05
3.67913096e-05
3.60575134e-05
3.50234746e-05
3.52552613e-05
3.68259003e-05
3.68207974e-05
3.54490091e-05
3.5395961e-05
3.68407852e-05
3.68211986e-05
3.55137313e-05
3.54066329e-05
3.61630706e-05
3.67900628e-05
3.60861858e-05
3.50572973e-05
3.52986786e-05
3.68457494e-05
3.68026048e-05
3.57379107e-05
3.51481107e-05
3.57121462e-05
3.68136661e-05
3.68617915e-05
3.53514202e-05
3.53065186e-05
3.58867504e-05
3.67962822e-05
3.68145091e-05
3.5049875e-05
3.5236645e-05
3.68541238e-05
3.68046882e-05
3.57047464e-05
3.51996448e-05
3.57468338e-05
3.68136734e-05
3.68643362e-05
3.53602048e-05
3.5248418e-05
3.5821695e-05
3.68137968e-05
3.68527652e-05
3.52651888e-05
3.52166274e-05
3.58468661e-05
3.68099364e-05
3.68417026e-05
3.52391066e-05
3.51890781e-05
3.58219215e-05
3.67968202e-05
3.68437756e-05
3.51270164e-05
3.53346141e-05
3.68572441e-05
3.68124885e-05
3.56844823e-05
3.53488804e-05
3.58464828e-05
3.68110798e-05
3.68320526e-05
3.52478648e-05
3.52348682e-05
3.58520143e-05
3.68104365e-05
3.68000046e-05
3.51979711e-05
3.51986831e-05
3.62281025e-05
3.68042115e-05
3.57868145e-05
3.53720413e-05
3.57957361e-05
3.68206117e-05
3.6809274e-05
3.52318417e-05
3.52294546e-05
3.58596926e-05
3.68098092e-05
3.67748916e-05
3.52125218e-05
3.52099573e-05
3.60790252e-05
3.67964984e-05
3.58478039e-05
3.5381415e-05
3.57909864e-05
3.68161727e-05
3.67825808e-05
3.52197886e-05
3.52175399e-05
3.5840798e-05
3.68099241e-05
3.67518921e-05
3.51173291e-05
3.51178706e-05
3.60980854e-05
3.67840959e-05
3.5726251e-05
3.5285725e-05
3.61383516e-05
3.67913389e-05
3.57106246e-05
3.53185242e-05
3.62502023e-05
3.67931928e-05
3.57196521e-05
3.53697984e-05
3.61779509e-05
3.67936229e-05
3.57819461e-05
3.52035089e-05
3.56965275e-05
3.68339215e-05
3.68138064e-05
3.53161923e-05
3.5220524e-05
3.62933286e-05
3.67899422e-05
3.57264103e-05
3.53437393e-05
3.62453583e-05
3.67908519e-05
3.57874853e-05
3.51592712e-05
3.56830646e-05
3.68498993e-05
3.68237866e-05
3.55217974e-05
3.52596574e-05
3.62951911e-05
3.68062881e-05
3.57386681e-05
3.53365656e-05
3.65025299e-05
3.67991638e-05
3.57606614e-05
3.51454367e-05
3.56485442e-05
3.68385004e-05
3.68454781e-05
3.54841238e-05
3.53133622e-05
3.67500258e-05
3.68240034e-05
3.57034946e-05
3.53105663e-05
3.61750467e-05
3.67992951e-05
3.59188952e-05
3.50402372e-05
3.53382326e-05
3.68430169e-05
3.68407082e-05
3.56355627e-05
3.54208275e-05
3.64541524e-05
3.6804612e-05
3.58966554e-05
3.51477773e-05
3.53526338e-05
3.68527412e-05
3.68209854e-05
3.57277021e-05
3.50613038e-05
3.53511348e-05
3.68164729e-05
3.68485182e-05
3.56533967e-05
3.55589964e-05
3.6835209e-05
3.68258334e-05
3.57661788e-05
3.51838485e-05
3.53800057e-05
3.68339344e-05
3.68207251e-05
3.5796702e-05
3.519134e-05
3.53583557e-05
3.6833157e-05
3.68207739e-05
3.58028786e-05
3.5192836e-05
3.534417e-05
3.6836197e-05
3.68199796e-05
3.57969244e-05
3.51830605e-05
3.53432955e-05
3.68439494e-05
3.68145728e-05
3.57552798e-05
3.5133755e-05
3.53232831e-05
3.68437167e-05
3.68307277e-05
3.56464256e-05
3.55978479e-05
3.68548123e-05
3.68053226e-05
3.57217089e-05
3.51906877e-05
3.55505218e-05
3.68470513e-05
3.67967266e-05
3.57392251e-05
3.52279787e-05
3.56203679e-05
3.6851649e-05
3.67867309e-05
3.57257036e-05
3.52322126e-05
3.56617836e-05
3.68519406e-05
3.67779771e-05
3.57186602e-05
3.5229634e-05
3.56635285e-05
3.68517595e-05
3.67748106e-05
3.57307867e-05
3.52622342e-05
3.56657511e-05
3.68509151e-05
3.67668361e-05
3.57266483e-05
3.52524788e-05
3.56818853e-05
3.6842317e-05
3.67351815e-05
3.57289587e-05
3.51023107e-05
3.55922601e-05
3.68446115e-05
3.68218151e-05
3.66898713e-05
3.5291594e-05
3.49920803e-05
3.56752778e-05
3.68199664e-05
3.67460766e-05
3.57386612e-05
3.52931481e-05
3.56976559e-05
3.68387513e-05
3.67522337e-05
3.57151475e-05
3.52141765e-05
3.5668073e-05
3.68377895e-05
3.67317148e-05
3.56703116e-05
3.56977136e-05
3.68654361e-05
3.67684454e-05
3.56486137e-05
3.52422221e-05
3.56827735e-05
3.68345268e-05
3.67537337e-05
3.57378882e-05
3.57125836e-05
3.68622384e-05
3.67847619e-05
3.57289267e-05
3.54534162e-05
3.55627333e-05
3.54145522e-05
3.56976857e-05
3.68356305e-05
3.67808231e-05
3.57279403e-05
3.57153088e-05
3.68670797e-05
3.67919055e-05
3.57096457e-05
3.51827393e-05
3.55603184e-05
3.68238051e-05
3.68047318e-05
3.54672608e-05
3.54415131e-05
3.68412032e-05
3.68052415e-05
3.53100155e-05
3.53245742e-05
3.68298124e-05
3.68064271e-05
3.53064685e-05
3.53149016e-05
3.68264007e-05
3.68119761e-05
3.53129326e-05
3.53120283e-05
3.68291698e-05
3.68176924e-05
3.53499875e-05
3.5347138e-05
3.68326719e-05
3.68205529e-05
3.54633326e-05
3.54888127e-05
3.68432188e-05
3.68005768e-05
3.56147883e-05
3.51167854e-05
3.54710568e-05
3.68031068e-05
3.68441159e-05
3.54255393e-05
3.53106495e-05
3.68159851e-05
3.68441716e-05
3.53407812e-05
3.52723076e-05
3.68117817e-05
3.6840664e-05
3.54865639e-05
3.5445341e-05
3.68138139e-05
3.68149194e-05
3.567308e-05
3.51690213e-05
3.55254621e-05
3.67741349e-05
3.6839753e-05
3.53508914e-05
3.51094945e-05
3.67811886e-05
3.68452333e-05
3.54285086e-05
3.5296697e-05
3.67663419e-05
3.68418524e-05
3.56060236e-05
3.55210031e-05
3.67920684e-05
3.68235765e-05
3.56727366e-05
3.51942315e-05
3.5618979e-05
3.67836095e-05
3.68461057e-05
3.68488368e-05
3.56677554e-05
3.52583459e-05
3.54269747e-05
3.51860098e-05
3.55468708e-05
3.67505394e-05
3.68394141e-05
3.6862416e-05
3.56823146e-05
3.5568908e-05
3.67796962e-05
3.6821643e-05
3.56913922e-05
3.51233935e-05
3.54495963e-05
3.6792495e-05
3.68791373e-05
3.57116169e-05
3.56382429e-05
3.67837027e-05
3.68451782e-05
3.57033357e-05
3.52387726e-05
3.56621182e-05
3.68001228e-05
3.68545775e-05
3.57174093e-05
3.52879173e-05
3.56953478e-05
3.68011599e-05
3.68520109e-05
3.57188279e-05
3.52850698e-05
3.56799105e-05
3.67970756e-05
3.68496599e-05
3.57212612e-05
3.52744903e-05
3.56547273e-05
3.67929519e-05
3.68455307e-05
3.57206896e-05
3.52279196e-05
3.55896688e-05
3.67885904e-05
3.68400837e-05
3.57116226e-05
3.51284143e-05
3.53951665e-05
3.67773589e-05
3.68630312e-05
3.5721372e-05
3.56403819e-05
3.67673925e-05
3.6831127e-05
3.56963195e-05
3.50303889e-05
3.53039089e-05
3.67699847e-05
3.68574125e-05
3.57148862e-05
3.54678063e-05
3.67595426e-05
3.6860476e-05
3.5670665e-05
3.55667215e-05
3.67752163e-05
3.68340367e-05
3.5693496e-05
3.51747872e-05
3.55891684e-05
3.67950574e-05
3.68418228e-05
3.57192814e-05
3.5260812e-05
3.56713939e-05
3.68078665e-05
3.68493167e-05
3.57059565e-05
3.52111543e-05
3.56229831e-05
3.68175647e-05
3.6854047e-05
3.56976616e-05
3.52224224e-05
3.56727392e-05
3.68225166e-05
3.68535195e-05
3.57073808e-05
3.52999863e-05
3.56981822e-05
3.68289425e-05
3.68524158e-05
3.57005025e-05
3.52589656e-05
3.56944288e-05
)
;

boundaryField
{
    closed
    {
        type            calculated;
        value           nonuniform List<scalar> 0();
    }
    open
    {
        type            calculated;
        value           nonuniform List<scalar> 0();
    }
    sides
    {
        type            empty;
    }
    procBoundary2to1
    {
        type            processor;
        value           uniform 3.68658441e-05;
    }
    procBoundary2to3
    {
        type            processor;
        value           uniform 3.68330814e-05;
    }
}


// ************************************************************************* //
