/*--------------------------------*- C++ -*----------------------------------*\
| =========                 |                                                 |
| \\      /  F ield         | OpenFOAM: The Open Source CFD Toolbox           |
|  \\    /   O peration     | Version:  2306                                  |
|   \\  /    A nd           | Website:  www.openfoam.com                      |
|    \\/     M anipulation  |                                                 |
\*---------------------------------------------------------------------------*/
FoamFile
{
    version     2.0;
    format      ascii;
    arch        "LSB;label=32;scalar=64";
    class       volScalarField;
    location    "0.00082";
    object      h;
}
// * * * * * * * * * * * * * * * * * * * * * * * * * * * * * * * * * * * * * //

dimensions      [0 2 -2 0 0 0 0];

internalField   nonuniform List<scalar> 
530
(
-4597.29115
-5022.4314
3291.33812
10349.8419
9669.49246
-2443.59797
-4934.24704
-2825.40956
5516.0006
10213.55
5329.36803
-4737.33859
-4641.66409
5129.91365
9903.05566
4135.17594
-5559.61333
-5008.54342
4633.61384
9902.69203
9424.64285
9866.69355
7632.19727
-5205.88749
-5768.74573
-2631.32903
6994.99627
10116.4946
2845.7528
-4855.8111
-4223.42786
3637.85918
10026.4589
8704.37254
-5742.07804
-6398.55609
-1407.98267
9869.26119
9901.38742
-878.652014
-5219.92105
-57.8857185
9829.11579
9977.66303
9728.82693
5409.57086
-4908.52291
-4973.0247
-2428.55024
4610.13377
10346.8831
8238.84745
-4921.45847
-5250.84054
-3768.42679
-3067.68759
5853.94882
10192.2056
4423.33546
-4435.80856
-2069.66873
10084.004
9967.91979
-1133.64677
-3414.44917
4488.2119
10051.9809
4354.66025
-5979.68342
-4745.98808
9036.03931
9594.25667
-2809.10607
-4233.87861
8386.0204
9678.49256
-2589.71978
-4063.87403
6203.7805
9890.91014
2203.16268
-5736.36248
-3335.7094
9802.07694
9692.98289
-2809.02578
-4043.27171
5001.38206
9998.83579
4384.06934
-6039.96842
-4820.4721
9511.69317
9606.49101
-3760.34336
-4045.60476
9602.53597
9722.77747
-3401.15003
-3987.77535
5414.0209
10077.9203
4602.77944
-5861.54986
-4580.64924
9428.66477
9801.18612
-56.8746862
-5386.46502
-832.822748
10073.1106
9723.29188
-4290.71556
-4536.48192
2897.7276
10075.9069
8120.15684
-5929.05602
-4903.42404
9920.69343
9669.13448
-2021.09166
-5110.45355
355.445619
10192.5371
9712.09449
-4240.22161
-4857.43686
1908.58142
10204.7408
9403.12492
-4765.59023
-5028.84442
2321.66642
10184.4676
9279.73428
-4907.52521
-5170.56451
1732.46195
10106.2438
8790.0029
-5510.64004
-4382.6747
9734.79626
9638.08355
-2408.41968
-4304.60636
2336.08471
10270.5273
9235.77332
-4859.93258
-4928.55724
2360.72862
10164.3447
8739.86397
-5130.57027
-5117.80681
5781.08878
9802.57153
1482.10669
-4175.2458
1452.57586
10233.8367
8946.28736
-4948.89145
-4955.81008
2488.8444
10146.2767
8624.27241
-5052.4351
-5054.32587
4826.43423
9795.95587
2443.27796
-4124.07579
1270.80449
10218.1848
8852.48429
-5013.19265
-5018.04171
2119.97914
10064.8898
8469.28947
-5570.12512
-5540.30419
4928.17644
9454.59148
32.8263238
-4648.99943
5055.92581
9513.86864
-597.001313
-4471.07446
5754.22979
9575.69366
-734.691455
-4189.79839
5383.36902
9727.34772
1459.75657
-5100.66245
-1508.5743
10155.5385
9346.53279
-4483.92651
-5004.29784
6131.46309
9498.05425
-1362.27229
-4332.70036
5783.8648
9753.96499
1556.42741
-5341.5957
-1973.59672
10164.3053
9582.90111
-3336.30973
-4794.20006
6093.09411
9607.87095
-1872.70512
-4372.16976
7013.20481
9836.1448
842.231968
-5414.36737
-2560.77945
10140.6373
9858.26475
-3563.67204
-4499.59922
8103.33538
9853.66822
-2336.47553
-4514.6674
5319.43423
9969.89581
3261.47485
-5980.5166
-4357.02879
9845.38921
9968.86624
-2710.66082
-3905.35081
6832.49257
10102.5482
3059.28094
-5409.40993
-4282.3776
9854.83789
9979.23097
8.67519532
-5862.03616
-4285.51339
9743.18378
10067.3859
-2566.09992
-3118.24872
9374.60794
10131.6933
841.900375
-5211.2859
-4130.26509
9705.1543
10102.5479
1537.33784
-5170.07122
-4250.25787
9707.20951
10118.3779
1646.69511
-5162.34969
-4328.73917
9725.37521
10097.7477
1532.27308
-5217.23119
-4332.85203
9763.95948
10012.4701
726.229816
-5482.36788
-4439.48863
9897.44687
10023.1813
-2617.89595
-2865.85195
9642.07522
9956.695
-597.874681
-5174.62649
-3135.79136
9869.92949
9891.66847
183.723622
-4971.64058
-2716.28188
9874.45304
9781.3606
-216.399641
-4947.84868
-2371.39549
9861.07992
9671.33057
-565.782334
-4961.24562
-2143.98908
9833.71678
9656.01102
-24.0870524
-4781.89926
-2027.38285
9825.52521
9549.52559
-400.500733
-4833.89771
-1861.27889
9753.38322
9479.87007
-416.538182
-5610.75441
-2856.35499
9218.19754
10246.7829
8560.37952
-4619.28271
-6182.63299
-2072.85525
9766.48805
9290.36771
-1650.74201
-4607.36153
-1405.10058
9856.29027
9298.48153
-1945.24696
-5034.99319
-2344.75147
9820.79541
8615.61093
-2500.8412
-1677.03683
9521.49119
9335.83643
-2616.80441
-4882.63887
-2078.49839
9976.21288
9016.43981
-1892.59105
-1256.92511
9760.87311
9663.47628
-2078.67005
-3728.79772
-3096.74547
-3942.95428
-2042.13783
10109.6024
9355.40914
-2166.08515
-1781.84156
9763.27806
9694.02149
-2259.64069
-5199.23423
-3096.91694
9896.35281
9386.91899
-3655.17808
-3786.00952
9450.74329
9291.66261
-4514.01902
-4438.0934
9363.45533
9380.94534
-4531.50668
-4490.66898
9410.33105
9505.07868
-4497.1011
-4506.18728
9456.79023
9567.82896
-4298.10005
-4314.16829
9530.26317
9682.91157
-3674.10949
-3534.16588
9734.43429
9915.83859
-2806.89008
-5542.21621
-3619.5223
9817.38217
9931.59984
-3881.16328
-4514.73414
9401.32696
9786.06563
-4348.17698
-4726.8674
9378.72754
9926.6487
-3526.88664
-3768.08073
9612.85693
10104.8727
-2434.37434
-5272.63804
-3308.79438
9701.73307
10150.7511
-4293.60607
-5623.1426
8632.45772
9727.32003
-3860.84987
-4591.84251
9133.18336
10002.1724
-2830.99392
-3343.0181
9246.1894
10151.4015
-1935.7828
-5143.9158
-2744.56017
9511.46152
10690.5323
10520.6032
-2151.61927
-4799.02383
-3851.13563
-5172.07381
-3178.68279
8837.32642
10592.2974
9540.48123
-2378.93807
-3086.03465
8725.40029
10002.6428
-1858.19025
-5520.8893
-3735.71619
9300.04401
9815.80797
-1630.6577
-2660.5621
8840.43798
10071.5994
-1118.11136
-4906.65679
-2507.73756
9427.46693
10086.8943
-463.237745
-4639.4167
-2315.5748
9449.67287
10102.2035
-407.609398
-4654.58706
-2410.44569
9431.38133
10094.0096
-403.67723
-4711.793
-2564.98478
9409.38717
10059.717
-524.735671
-4963.17811
-2948.79416
9338.49898
9973.78772
-1043.4903
-5492.81003
-4047.30568
9264.70875
9825.87994
-1520.00398
-2667.02943
8731.48839
9972.11953
-2185.66391
-6006.1058
-4551.53488
9220.59246
9732.94444
-2210.77172
-3641.13472
8623.0203
9822.39519
-2462.62779
-3086.0222
8947.60278
10031.5348
-1860.86355
-5251.12637
-2952.8744
9636.7193
10138.2065
-698.660136
-4788.36671
-2467.61124
9746.56615
10139.7379
-987.32078
-5061.87097
-2740.84519
9753.28549
10122.7538
-1222.90412
-5001.4911
-2442.21348
9861.56897
10207.4798
-821.015187
-4573.74678
-1940.01268
9988.49797
10209.3705
-1062.06253
-4801.07961
-2220.15018
)
;

boundaryField
{
    closed
    {
        type            lookUpEnthalpy;
        h0              nonuniform List<scalar> 0();
        value           nonuniform List<scalar> 0();
    }
    open
    {
        type            zeroGradient;
    }
    sides
    {
        type            empty;
    }
    procBoundary2to1
    {
        type            processor;
        value           uniform 9307.20602;
    }
    procBoundary2to3
    {
        type            processor;
        value           uniform 9987.58418;
    }
}


// ************************************************************************* //
