/*--------------------------------*- C++ -*----------------------------------*\
| =========                 |                                                 |
| \\      /  F ield         | OpenFOAM: The Open Source CFD Toolbox           |
|  \\    /   O peration     | Version:  2306                                  |
|   \\  /    A nd           | Website:  www.openfoam.com                      |
|    \\/     M anipulation  |                                                 |
\*---------------------------------------------------------------------------*/
FoamFile
{
    version     2.0;
    format      ascii;
    arch        "LSB;label=32;scalar=64";
    class       volScalarField;
    location    "0.00082";
    object      prefDZ_H2;
}
// * * * * * * * * * * * * * * * * * * * * * * * * * * * * * * * * * * * * * //

dimensions      [1 -1 -1 0 0 0 0];

internalField   nonuniform List<scalar> 
530
(
6.17218701e-05
6.16082777e-05
6.24136539e-05
6.35819143e-05
6.35896524e-05
6.22768463e-05
6.1621551e-05
6.21806397e-05
6.26657548e-05
6.35801747e-05
6.26803047e-05
6.16834926e-05
6.17065776e-05
6.26240253e-05
6.35278746e-05
6.25101905e-05
6.14595071e-05
6.16138417e-05
6.25403014e-05
6.35378024e-05
6.34408288e-05
6.35225423e-05
6.3241795e-05
6.15544833e-05
6.13677358e-05
6.22344417e-05
6.29582388e-05
6.35608721e-05
6.23780366e-05
6.16508186e-05
6.18210869e-05
6.24421106e-05
6.35413235e-05
6.35458059e-05
6.14121685e-05
6.12095004e-05
6.23262163e-05
6.36034676e-05
6.35878583e-05
6.22637061e-05
6.15522997e-05
6.22695617e-05
6.35592499e-05
6.35916051e-05
6.35406669e-05
6.27243128e-05
6.16361976e-05
6.16110187e-05
6.22854147e-05
6.25261193e-05
6.35615676e-05
6.34279098e-05
6.16325333e-05
6.15266352e-05
6.19377468e-05
6.21225609e-05
6.27394107e-05
6.35426242e-05
6.25514464e-05
6.17636584e-05
6.23148154e-05
6.36438614e-05
6.35901515e-05
6.23000528e-05
6.20317108e-05
6.25391884e-05
6.35319032e-05
6.25491175e-05
6.13336026e-05
6.16831666e-05
6.35224769e-05
6.35372321e-05
6.21919542e-05
6.18161259e-05
6.34226678e-05
6.35475889e-05
6.22486448e-05
6.18609635e-05
6.28461182e-05
6.35164292e-05
6.23292033e-05
6.14076201e-05
6.20501036e-05
6.35900422e-05
6.3576247e-05
6.21898218e-05
6.18656226e-05
6.26022525e-05
6.35028577e-05
6.25479365e-05
6.13176914e-05
6.1662763e-05
6.35461967e-05
6.35407459e-05
6.19379825e-05
6.18653491e-05
6.35771421e-05
6.3546216e-05
6.20349294e-05
6.18801271e-05
6.26614757e-05
6.35037679e-05
6.25782865e-05
6.13670383e-05
6.17248895e-05
6.35791097e-05
6.35154586e-05
6.22940227e-05
6.1500923e-05
6.22838192e-05
6.35466333e-05
6.36205937e-05
6.17998392e-05
6.17344434e-05
6.23978532e-05
6.3515021e-05
6.34674755e-05
6.13608087e-05
6.16275305e-05
6.36145516e-05
6.35138962e-05
6.23143511e-05
6.15761638e-05
6.22909798e-05
6.35514488e-05
6.36248097e-05
6.18159452e-05
6.16522284e-05
6.23402151e-05
6.35521643e-05
6.35909159e-05
6.16770117e-05
6.16044871e-05
6.23604358e-05
6.3544298e-05
6.35655723e-05
6.16380085e-05
6.15616925e-05
6.23517184e-05
6.35172212e-05
6.35490492e-05
6.14726297e-05
6.17749957e-05
6.36127151e-05
6.35268622e-05
6.22900908e-05
6.17964644e-05
6.23581553e-05
6.35498375e-05
6.35461086e-05
6.16510332e-05
6.16306898e-05
6.23685136e-05
6.35444033e-05
6.3467114e-05
6.15773219e-05
6.15754009e-05
6.27318483e-05
6.35184448e-05
6.23014459e-05
6.18326196e-05
6.23200562e-05
6.35657906e-05
6.34925683e-05
6.16283494e-05
6.16218051e-05
6.23743661e-05
6.35425318e-05
6.34166867e-05
6.15990218e-05
6.15909942e-05
6.25730961e-05
6.3504116e-05
6.23457706e-05
6.18456789e-05
6.23216651e-05
6.3557046e-05
6.34401276e-05
6.16098288e-05
6.16035433e-05
6.23634575e-05
6.35394676e-05
6.33685814e-05
6.14601812e-05
6.14553266e-05
6.25925575e-05
6.34676584e-05
6.22715869e-05
6.17033332e-05
6.26344366e-05
6.34832531e-05
6.22724661e-05
6.17524173e-05
6.27563602e-05
6.34891479e-05
6.22917574e-05
6.18268848e-05
6.26772748e-05
6.34960964e-05
6.22935025e-05
6.15854936e-05
6.22844126e-05
6.35870044e-05
6.35173446e-05
6.17491859e-05
6.16087916e-05
6.28038376e-05
6.34800661e-05
6.23245602e-05
6.17879541e-05
6.27509211e-05
6.349213e-05
6.22973862e-05
6.15210819e-05
6.22802622e-05
6.3616651e-05
6.35452446e-05
6.2051909e-05
6.1667434e-05
6.28060621e-05
6.35143197e-05
6.23600859e-05
6.1778937e-05
6.3041825e-05
6.35106011e-05
6.2291198e-05
6.15002839e-05
6.22436448e-05
6.35947934e-05
6.35961595e-05
6.19919419e-05
6.17485143e-05
6.33498502e-05
6.35566582e-05
6.23133926e-05
6.17408208e-05
6.26740668e-05
6.35162447e-05
6.24104442e-05
6.13467069e-05
6.17879981e-05
6.35911257e-05
6.35919019e-05
6.22153632e-05
6.19032644e-05
6.29859993e-05
6.35312858e-05
6.23968296e-05
6.15058955e-05
6.18047684e-05
6.36093402e-05
6.35562225e-05
6.22749605e-05
6.13764663e-05
6.18062338e-05
6.35384126e-05
6.36102058e-05
6.22471152e-05
6.21076575e-05
6.35575953e-05
6.35712377e-05
6.2300636e-05
6.15581175e-05
6.18447804e-05
6.35687882e-05
6.35607205e-05
6.23166843e-05
6.15689385e-05
6.18134507e-05
6.35674493e-05
6.3561447e-05
6.23213454e-05
6.15713065e-05
6.17930814e-05
6.35737533e-05
6.35591642e-05
6.23174225e-05
6.15576071e-05
6.179253e-05
6.3589523e-05
6.35458453e-05
6.2287806e-05
6.14844792e-05
6.17672183e-05
6.35945214e-05
6.35758194e-05
6.22355347e-05
6.21685345e-05
6.36044672e-05
6.3526706e-05
6.22897867e-05
6.15683884e-05
6.20999739e-05
6.35995175e-05
6.35084044e-05
6.22860805e-05
6.1623707e-05
6.22034814e-05
6.36081334e-05
6.34857385e-05
6.22811026e-05
6.16295478e-05
6.22619596e-05
6.36081249e-05
6.34653578e-05
6.22838081e-05
6.16252734e-05
6.22567936e-05
6.36066805e-05
6.34589822e-05
6.22812963e-05
6.16727492e-05
6.22560953e-05
6.36047985e-05
6.34401767e-05
6.22899021e-05
6.16572463e-05
6.22746158e-05
6.35861015e-05
6.33800202e-05
6.22941441e-05
6.14305688e-05
6.21650724e-05
6.3568358e-05
6.35685113e-05
6.32606958e-05
6.17140883e-05
6.12690614e-05
6.22719777e-05
6.35457413e-05
6.33919974e-05
6.23527553e-05
6.17132497e-05
6.22824616e-05
6.35837534e-05
6.34034719e-05
6.23273659e-05
6.1598221e-05
6.22704492e-05
6.35805504e-05
6.3338248e-05
6.22679831e-05
6.22920915e-05
6.36190264e-05
6.34343808e-05
6.22372735e-05
6.16387801e-05
6.22834078e-05
6.35808763e-05
6.33946116e-05
6.23595738e-05
6.22999059e-05
6.36229475e-05
6.34773757e-05
6.23523043e-05
6.19489626e-05
6.21131578e-05
6.18925574e-05
6.23045e-05
6.35882842e-05
6.34576551e-05
6.23528293e-05
6.23221359e-05
6.36319388e-05
6.34916164e-05
6.23273321e-05
6.15509886e-05
6.21117668e-05
6.35580254e-05
6.35024541e-05
6.19679238e-05
6.19350036e-05
6.3571691e-05
6.34994748e-05
6.17364941e-05
6.17621507e-05
6.35472691e-05
6.35052993e-05
6.17303113e-05
6.17466875e-05
6.35429582e-05
6.35204999e-05
6.17399879e-05
6.17422254e-05
6.35499245e-05
6.35334969e-05
6.17955664e-05
6.17938896e-05
6.35593377e-05
6.35434138e-05
6.19633619e-05
6.20001436e-05
6.35869819e-05
6.35163997e-05
6.21882195e-05
6.1453039e-05
6.19783594e-05
6.35170303e-05
6.3596638e-05
6.19091836e-05
6.17443117e-05
6.3523568e-05
6.35908299e-05
6.17873537e-05
6.1688099e-05
6.35149722e-05
6.3590111e-05
6.20022788e-05
6.19393864e-05
6.35282533e-05
6.35502019e-05
6.22777675e-05
6.15309718e-05
6.20586414e-05
6.34596089e-05
6.35974963e-05
6.17991501e-05
6.14513911e-05
6.34284502e-05
6.35903834e-05
6.19152317e-05
6.17226984e-05
6.3422255e-05
6.35953466e-05
6.21789346e-05
6.20502624e-05
6.3473622e-05
6.35679017e-05
6.22634244e-05
6.15695454e-05
6.21992352e-05
6.34690944e-05
6.36307462e-05
6.36289932e-05
6.22633972e-05
6.16640581e-05
6.19185817e-05
6.1553413e-05
6.20913782e-05
6.33814376e-05
6.36145581e-05
6.36142606e-05
6.22914165e-05
6.21177459e-05
6.34296133e-05
6.35583703e-05
6.22888163e-05
6.14653429e-05
6.19482803e-05
6.34766091e-05
6.3656254e-05
6.23114532e-05
6.22241143e-05
6.34416652e-05
6.36042501e-05
6.22807936e-05
6.16360752e-05
6.22607404e-05
6.34957166e-05
6.36221142e-05
6.22778627e-05
6.17086805e-05
6.23092088e-05
6.34985144e-05
6.36180211e-05
6.22778976e-05
6.1704054e-05
6.22861103e-05
6.34903269e-05
6.36133759e-05
6.22815691e-05
6.1688092e-05
6.22482952e-05
6.34819203e-05
6.36044165e-05
6.22853942e-05
6.16191753e-05
6.21516706e-05
6.34710828e-05
6.3590957e-05
6.22907779e-05
6.14724109e-05
6.18661102e-05
6.34476464e-05
6.36270521e-05
6.23223676e-05
6.22247978e-05
6.34075565e-05
6.35744866e-05
6.23072614e-05
6.13281494e-05
6.17317711e-05
6.34324519e-05
6.36129487e-05
6.23357373e-05
6.19726582e-05
6.33888301e-05
6.36222175e-05
6.22727489e-05
6.21169311e-05
6.34306995e-05
6.35822151e-05
6.22920705e-05
6.15418464e-05
6.21507457e-05
6.34950272e-05
6.36007852e-05
6.2289831e-05
6.16694815e-05
6.22728014e-05
6.35228401e-05
6.36145915e-05
6.22800158e-05
6.15979284e-05
6.22027529e-05
6.35408173e-05
6.36225883e-05
6.22759215e-05
6.16151345e-05
6.22766675e-05
6.35542604e-05
6.36250358e-05
6.22760032e-05
6.17293936e-05
6.23017987e-05
6.35711508e-05
6.36230856e-05
6.22743881e-05
6.16693773e-05
6.23055903e-05
)
;

boundaryField
{
    closed
    {
        type            calculated;
        value           nonuniform List<scalar> 0();
    }
    open
    {
        type            calculated;
        value           nonuniform List<scalar> 0();
    }
    sides
    {
        type            empty;
    }
    procBoundary2to1
    {
        type            processor;
        value           uniform 6.36109561e-05;
    }
    procBoundary2to3
    {
        type            processor;
        value           uniform 6.35786896e-05;
    }
}


// ************************************************************************* //
