/*--------------------------------*- C++ -*----------------------------------*\
| =========                 |                                                 |
| \\      /  F ield         | OpenFOAM: The Open Source CFD Toolbox           |
|  \\    /   O peration     | Version:  2306                                  |
|   \\  /    A nd           | Website:  www.openfoam.com                      |
|    \\/     M anipulation  |                                                 |
\*---------------------------------------------------------------------------*/
FoamFile
{
    version     2.0;
    format      ascii;
    arch        "LSB;label=32;scalar=64";
    class       surfaceScalarField;
    location    "0.00064";
    object      phi;
}
// * * * * * * * * * * * * * * * * * * * * * * * * * * * * * * * * * * * * * //

dimensions      [1 0 -1 0 0 0 0];

oriented        oriented;

internalField   nonuniform List<scalar> 
530
(
1.38056622e-06
1.30424658e-06
1.37408773e-06
1.23715505e-06
1.03461506e-06
9.13392297e-07
8.6986217e-07
7.68536454e-07
5.4085934e-07
4.51811324e-07
4.07790966e-07
2.94925088e-07
7.39681568e-08
-5.72588855e-08
-8.55224906e-08
-5.93313335e-08
-2.2144732e-07
-4.33360098e-07
-5.3309162e-07
-5.28621188e-07
-5.72120107e-07
-6.50341199e-07
-7.22899772e-07
-8.3124672e-07
-9.49106486e-07
-1.02825209e-06
-1.09839384e-06
-1.1892193e-06
-1.25656587e-06
-1.29159984e-06
-1.28324644e-06
-1.27594878e-06
-1.31108847e-06
-1.41718574e-06
-1.4248373e-06
-1.35017432e-06
-1.33941592e-06
-1.40112906e-06
-1.45761991e-06
-1.46409807e-06
-1.43232555e-06
-1.34721033e-06
-1.15153963e-06
-1.26241763e-06
-1.36543903e-06
-1.34111798e-06
-1.27287411e-06
-1.13956914e-06
-1.26253081e-06
-1.38325856e-06
-1.36688649e-06
-1.27255598e-06
-1.23970877e-06
-1.2070548e-06
-1.16467166e-06
-1.17784558e-06
-1.28279656e-06
-1.22819484e-06
-1.24936598e-06
-1.23950913e-06
-1.15153222e-06
-1.12739303e-06
-1.08843154e-06
-1.09989238e-06
-1.25304117e-06
-1.22641331e-06
-1.05893149e-06
-1.05797337e-06
-1.21256438e-06
-1.1981501e-06
-1.12664703e-06
-1.05839689e-06
-1.03504857e-06
-1.03016441e-06
-9.86707598e-07
-9.44934042e-07
-8.18802229e-07
-7.17480291e-07
-6.67601436e-07
-7.30867954e-07
-6.60311834e-07
-4.94136532e-07
-3.68918385e-07
-4.79117969e-07
-4.54621492e-07
-2.28949799e-07
-1.22774002e-07
-8.93922985e-08
-4.59062224e-08
-5.3081169e-09
4.87885536e-08
1.98740553e-07
4.1100809e-07
3.81015834e-07
4.76060726e-07
5.9917462e-07
7.66174213e-07
8.41228076e-07
9.15179945e-07
9.9071812e-07
1.08604215e-06
1.17808018e-06
1.25891925e-06
1.3405269e-06
1.42760049e-06
1.51527318e-06
1.60129115e-06
1.6863706e-06
1.77125766e-06
1.85591505e-06
1.94019995e-06
2.02415471e-06
2.10795593e-06
2.1916862e-06
2.27510008e-06
2.35770304e-06
2.43978539e-06
2.52246523e-06
2.60530901e-06
2.68640637e-06
2.76686946e-06
2.84850631e-06
2.93240699e-06
3.0157518e-06
3.09594275e-06
3.17610312e-06
3.26274307e-06
3.35185011e-06
3.43329468e-06
3.51133378e-06
3.5986251e-06
3.69183066e-06
3.78252925e-06
3.86530042e-06
3.94727884e-06
4.04381039e-06
4.14572124e-06
4.23532228e-06
4.32006773e-06
4.41490209e-06
4.51715178e-06
4.61804449e-06
4.71012468e-06
4.79987009e-06
4.89814585e-06
4.9998944e-06
5.09497719e-06
5.18779077e-06
5.28063185e-06
5.37775447e-06
5.47577527e-06
5.57180827e-06
5.66819034e-06
5.76781368e-06
5.87005118e-06
5.97494664e-06
6.08244937e-06
6.19376183e-06
6.30965567e-06
6.43040238e-06
6.55649875e-06
6.68838354e-06
6.8264049e-06
6.97047845e-06
7.12090966e-06
7.27843373e-06
7.44288767e-06
7.6132423e-06
7.78947994e-06
7.97262423e-06
8.16247317e-06
8.35765851e-06
8.55802505e-06
8.76355937e-06
8.97540908e-06
9.19325379e-06
9.41595129e-06
9.64385258e-06
9.87828244e-06
1.01194167e-05
1.03676506e-05
1.06227037e-05
1.08854018e-05
1.11568819e-05
1.14375393e-05
1.17274443e-05
1.20270474e-05
1.23368968e-05
1.26572164e-05
1.298805e-05
1.33291865e-05
1.36804256e-05
1.40414406e-05
1.44116501e-05
1.47902835e-05
1.51764436e-05
1.55690893e-05
1.59670537e-05
1.63690278e-05
1.6773597e-05
1.71792711e-05
1.75844998e-05
1.79876911e-05
1.8387237e-05
1.87815349e-05
1.91690099e-05
1.95481312e-05
1.99174263e-05
2.02754918e-05
2.06209996e-05
2.09526987e-05
2.12694133e-05
2.15700377e-05
2.18535289e-05
2.2118898e-05
2.23652022e-05
2.25915372e-05
2.27970332e-05
2.29808521e-05
2.31421904e-05
2.32802836e-05
2.33944159e-05
2.34839312e-05
2.35482474e-05
2.3586871e-05
2.3599412e-05
2.35855981e-05
2.35452863e-05
2.34784724e-05
2.3385297e-05
2.32660478e-05
2.31211582e-05
2.2951203e-05
2.27568901e-05
2.25390505e-05
2.22986258e-05
2.20366553e-05
2.17542618e-05
2.14526378e-05
2.11330324e-05
2.07967395e-05
2.04450865e-05
2.00794255e-05
1.97011248e-05
1.93115621e-05
1.89121193e-05
1.85041789e-05
1.80891186e-05
1.76683045e-05
1.72430918e-05
1.68148263e-05
1.6384832e-05
1.59543935e-05
1.55247709e-05
1.50972159e-05
1.46729205e-05
1.4253038e-05
1.38386126e-05
1.3430679e-05
1.30302945e-05
1.26383687e-05
1.22555932e-05
1.18827085e-05
1.15205985e-05
1.11698864e-05
1.08308096e-05
1.05037559e-05
1.01893726e-05
9.88794581e-06
9.59965594e-06
9.32423204e-06
9.06181309e-06
8.81283892e-06
8.57715999e-06
8.35416238e-06
8.14369321e-06
7.94590317e-06
7.76048448e-06
7.5870395e-06
7.42492059e-06
7.27387146e-06
7.133762e-06
7.0040928e-06
6.88422593e-06
6.7737718e-06
6.67232157e-06
6.57952612e-06
6.49487889e-06
6.41784635e-06
6.34801922e-06
6.28503873e-06
6.22847624e-06
6.17790538e-06
6.1328668e-06
6.09299765e-06
6.0580182e-06
6.02755273e-06
6.00113922e-06
5.97847531e-06
5.9592666e-06
5.94330148e-06
5.93021679e-06
5.91958882e-06
5.91119677e-06
5.90493937e-06
5.9005153e-06
5.89751889e-06
5.89576447e-06
5.89506294e-06
5.89528665e-06
5.89616288e-06
5.89740594e-06
5.89886759e-06
5.90043992e-06
5.90192557e-06
5.9031117e-06
5.90385098e-06
5.90400906e-06
5.90346383e-06
5.90207397e-06
5.89970682e-06
5.89625922e-06
5.89164082e-06
5.88576429e-06
5.87855541e-06
5.86995379e-06
5.85991561e-06
5.84841077e-06
5.83542183e-06
5.82094528e-06
5.80499157e-06
5.78758371e-06
5.7687564e-06
5.74855478e-06
5.72703331e-06
5.70425439e-06
5.68028697e-06
5.65520488e-06
5.6290854e-06
5.6020083e-06
5.57405497e-06
5.54530623e-06
5.51584052e-06
5.48573639e-06
5.4550702e-06
5.42391632e-06
5.39234188e-06
5.36040729e-06
5.32817694e-06
5.29571914e-06
5.26308032e-06
5.23028043e-06
5.19736389e-06
5.16440989e-06
5.13143406e-06
5.09837232e-06
5.065247e-06
5.03207504e-06
4.99889991e-06
4.96561593e-06
4.93203226e-06
4.89814105e-06
4.86404715e-06
4.8295713e-06
4.7943366e-06
4.75832032e-06
4.72146227e-06
4.6837603e-06
4.64491534e-06
4.60459527e-06
4.56280403e-06
4.51967036e-06
4.47501214e-06
4.42855239e-06
4.38029456e-06
4.33032222e-06
4.27888944e-06
4.22598051e-06
4.17132801e-06
4.11529657e-06
4.05838353e-06
4.00110712e-06
3.94296005e-06
3.88324821e-06
3.82334748e-06
3.76579798e-06
3.70792116e-06
3.64363605e-06
3.57595118e-06
3.51888822e-06
3.4657302e-06
3.39008827e-06
3.30304344e-06
3.24951173e-06
3.2081436e-06
3.13519498e-06
3.05757274e-06
2.96149832e-06
2.98884386e-06
2.94737478e-06
2.79986437e-06
2.69547686e-06
2.61518316e-06
2.83856291e-06
2.77235858e-06
2.6215573e-06
2.43519041e-06
2.36070535e-06
2.30970226e-06
2.25824282e-06
2.11125199e-06
2.04539501e-06
2.21277088e-06
2.19790876e-06
1.98801418e-06
1.91816627e-06
1.85631653e-06
1.81854343e-06
1.7939044e-06
1.7313315e-06
1.67769401e-06
1.62959376e-06
1.60277446e-06
1.54500394e-06
1.49681163e-06
1.54402624e-06
1.71598875e-06
1.71498729e-06
1.6710826e-06
1.66357143e-06
1.59749519e-06
1.55771701e-06
1.67609236e-06
1.68529243e-06
1.39245624e-06
1.34536635e-06
1.77188484e-06
1.76872244e-06
1.52539594e-06
1.49192059e-06
1.4520387e-06
1.51133699e-06
1.49262275e-06
1.40468407e-06
1.36632817e-06
1.31689888e-06
1.26505817e-06
1.20000364e-06
1.12247706e-06
1.28907127e-06
1.23685532e-06
1.17413142e-06
1.09479248e-06
1.19703226e-06
1.13225661e-06
9.32569697e-07
8.48942944e-07
7.69906276e-07
6.38490304e-07
5.78632055e-07
6.96025792e-07
6.30388349e-07
4.72187467e-07
3.83539612e-07
3.25487324e-07
2.6312207e-07
1.50308412e-07
8.50796253e-08
4.62834946e-08
-5.27162709e-09
-8.10412531e-08
-1.41221282e-07
-1.74139355e-07
-2.11949366e-07
-2.59229261e-07
-3.24124589e-07
-3.6869056e-07
-3.6043738e-07
-3.94528693e-07
-4.27221349e-07
-4.56227116e-07
-5.03999478e-07
-5.66028524e-07
-5.94815746e-07
-6.00909027e-07
-5.56674865e-07
-5.66626423e-07
-5.88275799e-07
-6.27244811e-07
-6.43273613e-07
-5.95300014e-07
-5.95967369e-07
-6.06753251e-07
-6.34189433e-07
-6.33115747e-07
-5.85326747e-07
-5.74062437e-07
-5.72406771e-07
-5.87965172e-07
-5.70977102e-07
-5.0800433e-07
-4.91216874e-07
-4.82460368e-07
-4.90614206e-07
-4.70040578e-07
-4.09438933e-07
-3.89719115e-07
-3.75711607e-07
-3.81795897e-07
-3.68690883e-07
-3.09440812e-07
-2.88636676e-07
-2.69953548e-07
-2.80044881e-07
-2.80222528e-07
-2.30213714e-07
-2.17722901e-07
-2.01015797e-07
-1.7551036e-07
-1.68358154e-07
-1.69473493e-07
-1.25381885e-07
-1.88291509e-07
-1.66631278e-07
5.63156702e-08
3.88701302e-08
-1.27902827e-07
-1.08667205e-07
-4.86590826e-09
-3.39044469e-08
)
;

boundaryField
{
    closed
    {
        type            calculated;
        value           nonuniform List<scalar> 0();
    }
    open
    {
        type            calculated;
        value           nonuniform List<scalar> 0();
    }
    sides
    {
        type            empty;
        value           nonuniform List<scalar> 0();
    }
    procBoundary3to2
    {
        type            processor;
        value           uniform -1.61204225e-06;
    }
    procBoundary3to4
    {
        type            processor;
        value           uniform -2.27054084e-07;
    }
}


// ************************************************************************* //
