/*--------------------------------*- C++ -*----------------------------------*\
| =========                 |                                                 |
| \\      /  F ield         | OpenFOAM: The Open Source CFD Toolbox           |
|  \\    /   O peration     | Version:  2306                                  |
|   \\  /    A nd           | Website:  www.openfoam.com                      |
|    \\/     M anipulation  |                                                 |
\*---------------------------------------------------------------------------*/
FoamFile
{
    version     2.0;
    format      ascii;
    arch        "LSB;label=32;scalar=64";
    class       volScalarField;
    location    "0.00064";
    object      prefDPV_T;
}
// * * * * * * * * * * * * * * * * * * * * * * * * * * * * * * * * * * * * * //

dimensions      [1 -1 -1 -1 0 0 0];

internalField   nonuniform List<scalar> 
531
(
5.99850565e-10
6.09916843e-10
6.07352878e-10
5.90569688e-10
5.89727074e-10
5.99738755e-10
6.10478466e-10
5.95991581e-10
5.9035901e-10
6.0016883e-10
6.10215694e-10
5.96096387e-10
5.90350233e-10
5.9810706e-10
6.098604e-10
6.06987515e-10
5.9031e-10
5.89412455e-10
5.93392567e-10
6.10882433e-10
6.09211585e-10
6.09415756e-10
6.0916693e-10
5.96325329e-10
5.90843449e-10
5.912428e-10
5.92162127e-10
5.91042058e-10
5.90720176e-10
5.99060077e-10
6.09008753e-10
6.10033202e-10
5.9155319e-10
5.90019697e-10
5.94032758e-10
6.1025936e-10
6.08445749e-10
6.0340244e-10
5.9030134e-10
5.89570493e-10
5.93997595e-10
6.10171461e-10
6.11879815e-10
5.90905595e-10
5.8999252e-10
5.94409705e-10
6.10047852e-10
6.11305467e-10
5.90856418e-10
5.89745112e-10
5.93000399e-10
6.10915078e-10
6.0949297e-10
6.09673174e-10
6.10351557e-10
5.94011306e-10
5.90492589e-10
5.89537833e-10
5.89194878e-10
5.92566756e-10
6.11305275e-10
6.08235944e-10
6.09615794e-10
5.91263746e-10
5.9012064e-10
5.96075488e-10
6.12065321e-10
5.99427278e-10
5.91181467e-10
5.95396951e-10
6.09495302e-10
6.09478078e-10
5.93962542e-10
5.90397897e-10
5.90061818e-10
5.94144325e-10
6.0995927e-10
6.10093355e-10
5.91583577e-10
5.90253066e-10
5.95987045e-10
6.11201694e-10
6.02822093e-10
5.90922628e-10
5.9120943e-10
6.10942651e-10
6.08947594e-10
5.99799002e-10
5.90385429e-10
5.90028275e-10
5.97692745e-10
6.10087994e-10
6.05330259e-10
5.91278447e-10
5.91417228e-10
6.02296644e-10
6.03909763e-10
5.95627752e-10
5.93951154e-10
5.96684559e-10
5.98928847e-10
5.98212986e-10
5.96994528e-10
5.97110068e-10
5.97648425e-10
5.97688609e-10
5.97566981e-10
5.97523991e-10
5.97540448e-10
5.97551285e-10
5.97548375e-10
5.97546758e-10
5.97555958e-10
5.9756619e-10
5.97548437e-10
5.97512113e-10
5.97530886e-10
5.97619672e-10
5.9761594e-10
5.9744073e-10
5.97422183e-10
5.97669447e-10
5.97765831e-10
5.97467881e-10
5.97227943e-10
5.9751548e-10
5.97999279e-10
5.97796402e-10
5.9701379e-10
5.97016701e-10
5.98132897e-10
5.98287593e-10
5.97233303e-10
5.96729642e-10
5.97497849e-10
5.98442724e-10
5.98005667e-10
5.96799344e-10
5.96813879e-10
5.98132205e-10
5.98325479e-10
5.97399163e-10
5.96915778e-10
5.97376576e-10
5.9802641e-10
5.97888181e-10
5.97268261e-10
5.97233081e-10
5.9764333e-10
5.97776609e-10
5.97583794e-10
5.97419464e-10
5.97476487e-10
5.97609007e-10
5.97609552e-10
5.97533491e-10
5.97522441e-10
5.97543951e-10
5.97554664e-10
5.97554623e-10
5.97557904e-10
5.97558272e-10
5.9753428e-10
5.97528915e-10
5.97560784e-10
5.97580332e-10
5.9755163e-10
5.97513608e-10
5.97530235e-10
5.97586843e-10
5.97586922e-10
5.97518706e-10
5.97508921e-10
5.9756014e-10
5.97589007e-10
5.97558712e-10
5.97517849e-10
5.97528208e-10
5.97571702e-10
5.9757363e-10
5.97540247e-10
5.97531367e-10
5.97548204e-10
5.97561705e-10
5.97555934e-10
5.97543424e-10
5.97543495e-10
5.97552336e-10
5.97553645e-10
5.97549998e-10
5.97547766e-10
5.97548845e-10
5.97550603e-10
5.9755054e-10
5.97549524e-10
5.97549395e-10
5.97549746e-10
5.9754993e-10
5.97549844e-10
5.97549724e-10
5.97549731e-10
5.97549786e-10
5.97549791e-10
5.97549776e-10
5.97549769e-10
5.97549772e-10
5.97549776e-10
5.97549776e-10
5.97549774e-10
5.97549774e-10
5.97549775e-10
5.97549775e-10
5.97549775e-10
5.97549775e-10
5.97549775e-10
5.97549775e-10
5.97549775e-10
5.97549775e-10
5.97549775e-10
5.97549775e-10
5.97549775e-10
5.97549775e-10
5.97549775e-10
5.97549775e-10
5.97549775e-10
5.97549775e-10
5.97549775e-10
5.97549775e-10
5.97549775e-10
5.97549775e-10
5.97549775e-10
5.97549775e-10
5.97549775e-10
5.97549775e-10
5.97549775e-10
5.97549774e-10
5.97549774e-10
5.97549775e-10
5.97549775e-10
5.97549774e-10
5.97549774e-10
5.97549776e-10
5.97549777e-10
5.97549771e-10
5.97549768e-10
5.97549781e-10
5.97549794e-10
5.97549766e-10
5.97549723e-10
5.97549773e-10
5.97549895e-10
5.97549829e-10
5.97549513e-10
5.97549551e-10
5.97550286e-10
5.97550332e-10
5.97548975e-10
5.97548639e-10
5.97550705e-10
5.97551899e-10
5.97549137e-10
5.97546191e-10
5.97549252e-10
5.97555098e-10
5.97552813e-10
5.97542822e-10
5.97542799e-10
5.97557456e-10
5.97559491e-10
5.97545278e-10
5.97537481e-10
5.97549196e-10
5.97563205e-10
5.9755636e-10
5.97537459e-10
5.97538094e-10
5.97558813e-10
5.97561737e-10
5.97547621e-10
5.97539127e-10
5.9754682e-10
5.9755759e-10
5.97555409e-10
5.97545218e-10
5.97544399e-10
5.97550833e-10
5.9755385e-10
5.97551082e-10
5.97546955e-10
5.97547277e-10
5.97551623e-10
5.9755241e-10
5.9754939e-10
5.97546653e-10
5.97548799e-10
5.97553482e-10
5.97552641e-10
5.97545644e-10
5.97545142e-10
5.97553013e-10
5.97555714e-10
5.975489e-10
5.97543098e-10
5.97547776e-10
5.97556053e-10
5.97554368e-10
5.97544957e-10
5.97544364e-10
5.97551913e-10
5.97554533e-10
5.97550204e-10
5.97546294e-10
5.97548037e-10
5.97551813e-10
5.9755172e-10
5.97548903e-10
5.97548503e-10
5.97549708e-10
5.97550493e-10
5.9755008e-10
5.97549455e-10
5.97549505e-10
5.97549877e-10
5.97549912e-10
5.97549784e-10
5.97549715e-10
5.97549751e-10
5.97549794e-10
5.97549789e-10
5.97549771e-10
5.97549769e-10
5.97549774e-10
5.97549777e-10
5.97549775e-10
5.97549773e-10
5.97549775e-10
5.97549778e-10
5.97549774e-10
5.97549764e-10
5.9754977e-10
5.97549802e-10
5.97549797e-10
5.97549712e-10
5.97549708e-10
5.97549893e-10
5.97549939e-10
5.97549597e-10
5.97549404e-10
5.97549963e-10
5.97550521e-10
5.9754976e-10
5.97548413e-10
5.97549189e-10
5.97552008e-10
5.97551692e-10
5.97546566e-10
5.97546129e-10
5.97553001e-10
5.97555672e-10
5.9754798e-10
5.97541562e-10
5.97548299e-10
5.97559654e-10
5.97556005e-10
5.97539659e-10
5.97539248e-10
5.97557287e-10
5.9756206e-10
5.97548176e-10
5.97537504e-10
5.97545331e-10
5.97560044e-10
5.97558898e-10
5.97543225e-10
5.97539136e-10
5.97549711e-10
5.97562647e-10
5.97557781e-10
5.97531271e-10
5.97530075e-10
5.97579035e-10
5.97593481e-10
5.97504647e-10
5.97450782e-10
5.9760911e-10
5.97766149e-10
5.97509743e-10
5.97108988e-10
5.97460123e-10
5.98400333e-10
5.98033999e-10
5.96092704e-10
5.96173505e-10
6.00097303e-10
6.00292263e-10
5.94834674e-10
5.9341595e-10
6.00980351e-10
6.05652169e-10
5.96395218e-10
5.90857412e-10
5.94392526e-10
6.09880819e-10
6.07319287e-10
5.89843057e-10
5.89938423e-10
6.09219209e-10
6.08703962e-10
5.91137379e-10
5.89495587e-10
5.97671929e-10
6.09079255e-10
6.05949864e-10
5.89643695e-10
5.89984176e-10
6.08848944e-10
6.08504837e-10
5.92130168e-10
5.89479832e-10
5.9234767e-10
6.08684058e-10
6.08181895e-10
5.91821757e-10
5.90210407e-10
5.94791505e-10
6.04831436e-10
6.07339874e-10
5.97784157e-10
5.90963796e-10
5.90499288e-10
5.97234519e-10
6.08774221e-10
6.03590493e-10
5.89687069e-10
5.91356303e-10
6.09198962e-10
6.12215733e-10
5.89686656e-10
5.90268357e-10
6.09356325e-10
6.08697689e-10
5.89705798e-10
5.89116077e-10
6.09376567e-10
6.09001564e-10
5.93599756e-10
5.8960183e-10
5.92762905e-10
6.0921887e-10
6.06468094e-10
5.8961495e-10
5.9276131e-10
6.09154985e-10
6.05339902e-10
5.89819346e-10
5.90673024e-10
6.09066643e-10
6.08603496e-10
5.90592843e-10
5.8864124e-10
6.10128169e-10
6.09171769e-10
5.90386721e-10
5.89576967e-10
6.09502307e-10
6.08871105e-10
5.90036416e-10
5.89529026e-10
6.08990094e-10
6.08809632e-10
5.94151775e-10
5.89695252e-10
5.90652788e-10
6.08591529e-10
6.08568973e-10
5.95645366e-10
5.89200025e-10
5.90336515e-10
6.09187482e-10
6.08095685e-10
6.08864004e-10
5.97604965e-10
5.9029073e-10
5.90152605e-10
5.89189521e-10
5.89628321e-10
6.08750409e-10
6.08765755e-10
5.94626085e-10
5.89710111e-10
5.90563367e-10
6.08581966e-10
6.08400248e-10
5.95411068e-10
5.89880063e-10
5.90714897e-10
6.08456059e-10
6.08465187e-10
5.94503734e-10
5.89429079e-10
5.90216868e-10
6.08547155e-10
6.08673378e-10
5.93624952e-10
5.89229261e-10
5.90166208e-10
6.08640836e-10
6.08610894e-10
5.93987988e-10
5.89339043e-10
5.90157664e-10
6.08740319e-10
6.08673216e-10
5.97638974e-10
5.89346358e-10
5.90343018e-10
6.09087745e-10
6.08041524e-10
6.08829794e-10
5.94533021e-10
5.90222222e-10
5.89299085e-10
5.90601483e-10
6.09314415e-10
6.09507354e-10
5.89290887e-10
5.9086002e-10
6.09115395e-10
6.10826324e-10
5.8991338e-10
5.91418671e-10
)
;

boundaryField
{
    closed
    {
        type            calculated;
        value           nonuniform List<scalar> 0();
    }
    open
    {
        type            calculated;
        value           nonuniform List<scalar> 0();
    }
    sides
    {
        type            empty;
    }
    procBoundary3to2
    {
        type            processor;
        value           uniform 5.90119162e-10;
    }
    procBoundary3to4
    {
        type            processor;
        value           uniform 6.08864631e-10;
    }
}


// ************************************************************************* //
