/*--------------------------------*- C++ -*----------------------------------*\
| =========                 |                                                 |
| \\      /  F ield         | OpenFOAM: The Open Source CFD Toolbox           |
|  \\    /   O peration     | Version:  2306                                  |
|   \\  /    A nd           | Website:  www.openfoam.com                      |
|    \\/     M anipulation  |                                                 |
\*---------------------------------------------------------------------------*/
FoamFile
{
    version     2.0;
    format      ascii;
    arch        "LSB;label=32;scalar=64";
    class       volScalarField;
    location    "0";
    object      PV;
}
// * * * * * * * * * * * * * * * * * * * * * * * * * * * * * * * * * * * * * //

dimensions      [0 0 0 0 0 0 0];

internalField   nonuniform List<scalar> 
531
(
-0.00717367922
-0.00717367922
-0.00717367922
-0.00717367922
-0.00717367922
-0.00717367922
-0.00717367922
-0.00717367922
-0.00717367922
-0.00717367922
-0.00717367922
-0.00717367922
-0.00717367922
-0.00717367922
-0.00717367922
-0.00717367922
-0.00717367922
-0.00717367922
-0.00717367922
-0.00717367922
-0.00717367922
-0.00717367922
-0.00717367922
-0.00717367922
-0.00717367922
-0.00717367922
-0.00717367922
-0.00717367922
-0.00717367922
-0.00717367922
-0.00717367922
-0.00717367922
-0.00717367922
-0.00717367922
-0.00717367922
-0.00717367922
-0.00717367922
-0.00717367922
-0.00717367922
-0.00717367922
-0.00717367922
-0.00717367922
-0.00717367922
-0.00717367922
-0.00717367922
-0.00717367922
-0.00717367922
-0.00717367922
-0.00717367922
-0.00717367922
-0.00717367922
-0.00717367922
-0.00717367922
-0.00717367922
-0.00717367922
-0.00717367922
-0.00717367922
-0.00717367922
-0.00717367922
-0.00717367922
-0.00717367922
-0.00717367922
-0.00717367922
-0.00717367922
-0.00717367922
-0.00717367922
-0.00717367922
-0.00717367922
-0.00717367922
-0.00717367922
-0.00717367922
-0.00717367922
-0.00717367922
-0.00717367922
-0.00717367922
-0.00717367922
-0.00717367922
-0.00717367922
-0.00717367922
-0.00717367922
-0.00717367922
-0.00717367922
-0.00717367922
-0.00717367922
-0.00717367922
-0.00717367922
-0.00717367922
-0.00717367922
-0.00717367922
-0.00717367922
-0.00717367922
-0.00717367922
-0.00717367922
-0.00717367922
-0.00717367922
-0.00717367922
-0.00717367922
-0.00717367922
-0.00717367922
-0.00717367922
-0.00717367922
-0.00717367922
-0.00717367922
-0.00717367922
-0.00717367922
-0.00717367922
-0.00717367922
-0.00717367922
-0.00717367922
-0.00717367922
-0.00717367922
-0.00717367922
-0.00717367922
-0.00717367922
-0.00717367922
-0.00717367922
-0.00717367922
-0.00717367922
-0.00717367922
-0.00717367922
-0.00717367922
-0.00717367922
-0.00717367922
-0.00717367922
-0.00717367922
-0.00717367922
-0.00717367922
-0.00717367922
-0.00717367922
-0.00717367922
-0.00717367922
-0.00717367922
-0.00717367922
-0.00717367922
-0.00717367922
-0.00717367922
-0.00717367922
-0.00717367922
-0.00717367922
-0.00717367922
-0.00717367922
-0.00717367922
-0.00717367922
-0.00717367922
-0.00717367922
-0.00717367922
-0.00717367922
-0.00717367922
-0.00717367922
-0.00717367922
-0.00717367922
-0.00717367922
-0.00717367922
-0.00717367922
-0.00717367922
-0.00717367922
-0.00717367922
-0.00717367922
-0.00717367922
-0.00717367922
-0.00717367922
-0.00717367922
-0.00717367922
-0.00717367922
-0.00717367922
-0.00717367922
-0.00717367922
-0.00717367922
-0.00717367922
-0.00717367922
-0.00717367922
-0.00717367922
-0.00717367922
-0.00717367922
-0.00717367922
-0.00717367922
-0.00717367922
-0.00717367922
-0.00717367922
-0.00717367922
-0.00717367922
-0.00717367922
-0.00717367922
-0.00717367922
-0.00717367922
-0.00717367922
-0.00717367922
-0.00717367922
-0.00717367922
-0.00717367922
-0.00717367922
-0.00717367922
-0.00717367922
-0.00717367922
-0.00717367922
-0.00717367922
-0.00717367922
-0.00717367922
-0.00717367922
-0.00717367922
-0.00717367922
-0.00717367922
-0.00717367922
-0.00717367922
-0.00717367922
-0.00717367922
-0.00717367922
-0.00717367922
-0.00717367922
-0.00717367922
-0.00717367922
-0.00717367922
-0.00717367922
-0.00717367922
-0.00717367922
-0.00717367922
-0.00717367922
-0.00717367922
-0.00717367922
-0.00717367922
-0.00717367922
-0.00717367922
-0.00717367922
-0.00717367922
-0.00717367922
-0.00717367922
-0.00717367922
-0.00717367922
-0.00717367922
-0.00717367922
-0.00717367922
-0.00717367922
-0.00717367922
-0.00717367922
-0.00717367922
-0.00717367922
-0.00717367922
-0.00717367922
-0.00717367922
-0.00717367922
-0.00717367922
-0.00717367922
-0.00717367922
-0.00717367922
-0.00717367922
-0.00717367922
-0.00717367922
-0.00717367922
-0.00717367922
-0.00717367922
-0.00717367922
-0.00717367922
-0.00717367922
-0.00717367922
-0.00717367922
-0.00717367922
-0.00717367922
-0.00717367922
-0.00717367922
-0.00717367922
-0.00717367922
-0.00717367922
-0.00717367922
-0.00717367922
-0.00717367922
-0.00717367922
-0.00717367922
-0.00717367922
-0.00717367922
-0.00717367922
-0.00717367922
-0.00717367922
-0.00717367922
-0.00717367922
-0.00717367922
-0.00717367922
-0.00717367922
-0.00717367922
-0.00717367922
-0.00717367922
-0.00717367922
-0.00717367922
-0.00717367922
-0.00717367922
-0.00717367922
-0.00717367922
-0.00717367922
-0.00717367922
-0.00717367922
-0.00717367922
-0.00717367922
-0.00717367922
-0.00717367922
-0.00717367922
-0.00717367922
-0.00717367922
-0.00717367922
-0.00717367922
-0.00717367922
-0.00717367922
-0.00717367922
-0.00717367922
-0.00717367922
-0.00717367922
-0.00717367922
-0.00717367922
-0.00717367922
-0.00717367922
-0.00717367922
-0.00717367922
-0.00717367922
-0.00717367922
-0.00717367922
-0.00717367922
-0.00717367922
-0.00717367922
-0.00717367922
-0.00717367922
-0.00717367922
-0.00717367922
-0.00717367922
-0.00717367922
-0.00717367922
-0.00717367922
-0.00717367922
-0.00717367922
-0.00717367922
-0.00717367922
-0.00717367922
-0.00717367922
-0.00717367922
-0.00717367922
-0.00717367922
-0.00717367922
-0.00717367922
-0.00717367922
-0.00717367922
-0.00717367922
-0.00717367922
-0.00717367922
-0.00717367922
-0.00717367922
-0.00717367922
-0.00717367922
-0.00717367922
-0.00717367922
-0.00717367922
-0.00717367922
-0.00717367922
-0.00717367922
-0.00717367922
-0.00717367922
-0.00717367922
-0.00717367922
-0.00717367922
-0.00717367922
-0.00717367922
-0.00717367922
-0.00717367922
-0.00717367922
-0.00717367922
-0.00717367922
-0.00717367922
-0.00717367922
-0.00717367922
-0.00717367922
-0.00717367922
-0.00717367922
-0.00717367922
-0.00717367922
-0.00717367922
-0.00717367922
-0.00717367922
-0.00717367922
-0.00717367922
-0.00717367922
-0.00717367922
-0.00717367922
-0.00717367922
-0.00717367922
-0.00717367922
-0.00717367922
-0.00717367922
-0.00717367922
-0.00717367922
-0.00717367922
-0.00717367922
-0.00717367922
-0.00717367922
-0.00717367922
-0.00717367922
-0.00717367922
-0.00717367922
-0.00717367922
-0.00717367922
-0.00717367922
-0.00717367922
-0.00717367922
-0.00717367922
-0.00717367922
-0.00717367922
-0.00717367922
-0.00717367922
-0.00717367922
-0.00717367922
-0.00717367922
-0.00717367922
-0.00717367922
-0.00717367922
-0.00717367922
-0.00717367922
-0.00717367922
-0.00717367922
-0.00717367922
-0.00717367922
-0.00717367922
-0.00717367922
-0.00717367922
-0.00717367922
-0.00717367922
-0.00717367922
-0.00717367922
-0.00717367922
-0.00717367922
-0.00717367922
-0.00717367922
-0.00717367922
-0.00717367922
-0.00717367922
-0.00717367922
-0.00717367922
-0.00717367922
-0.00717367922
-0.00710197631
-0.0069585705
-0.00681516469
-0.00667175887
-0.00652835306
-0.00638494725
-0.00624154143
-0.00609813562
-0.00595472981
-0.00581132399
-0.00566791818
-0.00552451237
-0.00538110655
-0.00523770074
-0.00509429492
-0.00495088911
-0.0048074833
-0.00466407748
-0.00452067167
-0.00437726586
-0.00423386004
-0.00409045423
-0.00394704842
-0.0038036426
-0.00366023679
-0.00351683098
-0.00337342516
-0.00323001935
-0.00308661353
-0.00294320772
-0.00279980191
-0.00265639609
-0.00251299028
-0.00236958447
-0.00222617865
-0.00208277284
-0.00193936703
-0.00179596121
-0.0016525554
-0.00150914959
-0.00136574377
-0.00122233796
-0.00107893214
-0.000935526331
-0.000792120517
-0.000648714704
-0.00050530889
-0.000361903077
-0.000218497263
-7.50914494e-05
6.83143642e-05
0.000211720178
0.000355125991
0.000498531805
0.000641937619
0.000785343432
0.000928749246
0.00107215506
0.00121556087
0.00135896669
0.0015023725
0.00164577831
0.00178918413
0.00193258994
0.00207599575
0.00221940157
0.00236280738
0.0025062132
0.00264961901
0.00279302482
0.00293643064
0.00307983645
0.00322324226
0.00336664808
0.00351005389
0.0036534597
0.00379686552
0.00394027133
0.00408367714
0.00422708296
0.00437048877
0.00451389459
0.0046573004
0.00480070621
0.00494411203
0.00508751784
0.00523092365
0.00537432947
0.00551773528
0.00566114109
0.00580454691
0.00594795272
0.00609135853
0.00623476435
0.00637817016
0.00652157598
0.00666498179
0.0068083876
)
;

boundaryField
{
    closed
    {
        type            zeroGradient;
    }
    open
    {
        type            zeroGradient;
    }
    sides
    {
        type            empty;
    }
    procBoundary4to3
    {
        type            processor;
        value           uniform -0.00717367922;
    }
    procBoundary4to5
    {
        type            processor;
        value           uniform 0.00695179342;
    }
}


// ************************************************************************* //
