/*--------------------------------*- C++ -*----------------------------------*\
| =========                 |                                                 |
| \\      /  F ield         | OpenFOAM: The Open Source CFD Toolbox           |
|  \\    /   O peration     | Version:  2306                                  |
|   \\  /    A nd           | Website:  www.openfoam.com                      |
|    \\/     M anipulation  |                                                 |
\*---------------------------------------------------------------------------*/
FoamFile
{
    version     2.0;
    format      ascii;
    arch        "LSB;label=32;scalar=64";
    class       volScalarField;
    location    "0.0018";
    object      h;
}
// * * * * * * * * * * * * * * * * * * * * * * * * * * * * * * * * * * * * * //

dimensions      [0 2 -2 0 0 0 0];

internalField   nonuniform List<scalar> 
530
(
-220484.318
-209694.835
-235124.417
-234531.135
-215905.252
-208752.414
-230824.014
-230520.808
-211952.557
-207846.171
-227123.383
-226728.784
-207904.564
-207138.878
-223708.288
-223444.364
-203906.254
-206341.381
-220628.015
-220048.065
-200294.399
-204598.296
-217233.723
-216815.638
-197471.928
-202019.079
-213835.185
-213606.497
-195052.329
-199325.304
-210391.433
-210370.872
-192391.079
-196648.538
-207035.016
-207039.541
-189648.234
-193910.58
-203703.971
-203694.763
-186762.422
-191056.003
-200369.698
-200277.649
-183984.177
-188167.978
-196993.919
-196947.836
-180874.385
-185356.571
-193733.281
-193661.492
-178075.211
-182096.051
-190720.497
-190400.063
-175524.321
-178689.974
-187669.68
-187267.075
-173025.381
-175464.343
-184616.071
-184349.169
-170429.252
-172352.405
-181578.972
-181429.226
-167761.422
-169303.569
-178607.67
-178508.707
-165019.098
-166349.05
-175648.674
-175597.965
-162262.781
-163464.71
-172731.821
-172672.559
-159487.468
-160624.078
-169848.359
-169758.803
-156707.118
-157824.34
-166986.883
-166859.357
-153928.695
-155049.63
-164119.247
-163976.26
-151066.443
-152302.892
-161168.391
-161049.088
-148184.076
-149482.815
-158184.163
-158062.492
-145282.879
-146653.347
-155195.296
-155045.159
-142409.3
-143813.661
-152174.829
-151995.45
-139556.489
-140955.235
-149142.534
-148945.975
-136716.652
-138078.888
-146103.806
-145914.03
-133883.106
-135186.398
-143050.489
-142884.998
-131055.222
-132286.782
-139990.802
-139836.93
-128224.293
-129387.738
-136921.92
-136782.762
-125384.989
-126480.71
-133909.738
-133758.618
-122532.708
-123577.868
-130935.605
-130760.192
-119660.831
-120686.266
-127957.479
-127764.284
-116787.958
-117806.149
-124986.504
-124792.888
-113914.176
-114926.172
-122021.198
-121820.108
-111044.514
-112048.205
-119064.169
-118846.963
-108183.086
-109174.024
-116111.872
-115878.578
-105328.823
-106302.936
-113157.807
-112917.528
-102479.913
-103429.835
-110206.727
-109961.325
-99639.2218
-100555.281
-107187.188
-107014.429
-96736.6551
-97665.6927
-104076.297
-103963.521
-93837.6672
-94754.6117
-100938.117
-100824.795
-90920.3875
-91939.8121
-97782.5911
-97665.4909
-87878.335
-89003.1263
-94754.5998
-94527.8209
-84909.9951
-86048.7354
-91688.3581
-91420.3446
-81945.4166
-83099.0976
-88588.563
-88327.0042
-79032.2242
-80143.8803
-85479.4507
-85237.2241
-76146.6641
-77202.2836
-82358.8597
-82170.6654
-73316.8885
-74269.474
-79383.7686
-79172.949
-70586.613
-71419.6932
-76537.5474
-76349.7044
-67893.3312
-68709.7456
-73786.9001
-73571.725
-65192.8161
-66067.7207
-71101.3271
-70872.173
-62562.5588
-63456.2699
-68482.935
-68221.4098
-59941.3083
-60875.5433
-65931.6283
-65637.2892
-57403.7694
-58320.4869
-63440.7218
-63115.1206
-54926.9322
-55827.8149
-60968.4008
-60654.8941
-52548.7655
-53403.2996
-58564.0401
-58239.1036
-50202.2248
-51063.1486
-56249.4338
-55879.7091
-47889.7896
-48786.1285
-53927.1077
-53569.1176
-45654.2629
-46532.083
-51602.6148
-51289.1061
-43514.9958
-44313.8933
-49281.3521
-49057.6918
-41453.6771
-42151.8829
-46995.2939
-46866.7061
-39457.4895
-40055.8889
-44782.2335
-44704.1345
-37506.3608
-38109.4684
-42625.7728
-42578.3893
-35558.0464
-36191.7868
-40571.6316
-40517.9761
-33698.2946
-34316.3426
-38558.6473
-38497.9642
-31890.2461
-32530.176
-36604.1157
-36504.4503
-30107.9951
-30789.2778
-34750.2792
-34560.0749
-28372.8169
-29096.4926
-32893.1653
-32708.3557
-26751.6633
-27386.4103
-31089.41
-30926.6976
-25183.9319
-25736.9285
-29404.8923
-29193.9685
-23550.9265
-24194.387
-27843.0114
-27530.7711
-21940.759
-22710.4776
-26366.8818
-25946.1256
-20393.9653
-21263.493
-24931.3366
-24437.5542
-18950.3144
-19848.3885
-23485.2998
-23002.5089
-17624.75
-18465.8315
-22021.2187
-21626.8546
-16393.7569
-17129.4587
-20580.0091
-20295.2072
-15216.2316
-15854.8741
-19190.2507
-19014.4073
-14090.3423
-14634.4448
-17909.4778
-17776.9467
-12987.8237
-13484.6687
-16701.8607
-16578.6829
-11908.423
-12402.2038
-15554.5535
-15414.1536
-10864.8134
-11372.8045
-14460.6953
-14283.6242
-9876.99436
-10390.9644
-13400.8461
-13203.1817
-8956.00486
-9482.12228
-12371.8741
-12191.6106
-8103.13032
-8619.10037
-11385.0937
-11217.3319
-7300.67831
-7802.35841
-10437.3855
-10286.8343
-6536.81231
-7027.29888
-9521.68937
-9398.54126
-5803.5914
-6293.15638
-8665.51789
-8553.93014
-5147.45372
-5599.39558
-7871.86501
-7755.65734
-4531.55375
-4947.33732
-7109.02694
-6996.67681
-3948.35895
-4334.32303
-6380.14255
-6275.15205
-3400.11716
-3758.49725
-5689.71709
-5590.38157
-2883.02596
-3217.07868
-5038.00405
-4942.59571
-2396.34425
-2709.14541
-4423.20339
-4331.53789
-1940.1273
-2233.34325
-3843.93173
-3756.34568
-1513.30793
-1787.48194
-3298.98956
-3215.95532
-1114.05866
-1370.34813
-2787.31323
-2709.21382
-742.506843
-980.912692
-2307.91719
-2234.72761
-397.406207
-618.261679
-1859.81775
-1791.75086
-77.5933737
-281.562509
-1441.92944
-1379.20126
218.22153
29.9618563
-1053.22239
-995.653714
491.076806
317.552595
-692.787373
-639.571853
741.543986
582.375753
-359.24991
-310.180657
970.316155
825.576296
-50.8252397
-6.58198056
1178.88566
1047.17472
233.648107
275.029935
1370.27422
1241.84025
492.056776
535.50549
1555.0312
1417.37589
727.858689
771.963123
1714.6767
1587.14854
943.587177
985.013418
1850.49685
1741.84151
1139.77567
1178.528
1978.1855
1880.44742
1328.17802
1361.60853
2078.74879
2003.28329
1538.29525
1558.30451
2182.00404
2120.18145
1996.4935
1988.87443
2160.72517
2146.93547
2193.67898
2191.06419
2266.22324
2268.01328
2339.43099
2341.14133
2412.81216
2414.50159
2483.56971
2485.14478
2548.9619
2550.27637
2605.85345
2606.67962
2651.03662
2651.04128
2676.50098
2676.20252
2687.03363
2680.34814
2680.72989
2666.89049
2655.28644
2632.56734
2611.05041
2580.92598
2552.57753
2518.16792
2486.86408
2452.40497
2422.30014
2391.95463
2366.65931
2343.36067
2324.98062
2309.69317
2298.37001
2289.23646
2282.95856
2278.87038
2276.47763
2275.12764
2274.4457
2274.11895
2273.98337
2273.92379
2273.90291
2273.89664
2273.89502
2273.89467
2273.89461
2273.89461
2273.89461
2273.89461
2273.89461
2273.89461
2273.89461
2273.89461
2273.89461
2273.89461
2273.89461
2273.89461
2273.89461
2273.89461
2273.89461
2273.89461
2273.89461
2273.89461
2273.89461
2273.89461
2273.89461
2273.89461
)
;

boundaryField
{
    closed
    {
        type            lookUpEnthalpy;
        h0              nonuniform List<scalar> 0();
        value           nonuniform List<scalar> 0();
    }
    open
    {
        type            zeroGradient;
    }
    sides
    {
        type            empty;
    }
    procBoundary5to4
    {
        type            processor;
        value           uniform -238802.717;
    }
}


// ************************************************************************* //
