/*--------------------------------*- C++ -*----------------------------------*\
| =========                 |                                                 |
| \\      /  F ield         | OpenFOAM: The Open Source CFD Toolbox           |
|  \\    /   O peration     | Version:  2306                                  |
|   \\  /    A nd           | Website:  www.openfoam.com                      |
|    \\/     M anipulation  |                                                 |
\*---------------------------------------------------------------------------*/
FoamFile
{
    version     2.0;
    format      ascii;
    arch        "LSB;label=32;scalar=64";
    class       volScalarField;
    location    "0.0018";
    object      p;
}
// * * * * * * * * * * * * * * * * * * * * * * * * * * * * * * * * * * * * * //

dimensions      [1 -1 -2 0 0 0 0];

internalField   nonuniform List<scalar> 
530
(
101544.009
101540.832
101540.452
101532.85
101522.556
101519.717
101520.458
101514.362
101505.114
101502.966
101504.789
101500.28
101492.064
101490.195
101492.537
101489.121
101482.018
101480.228
101482.28
101479.22
101472.31
101470.388
101472.425
101469.671
101463.008
101461.037
101463.246
101461.099
101454.843
101452.95
101455.282
101453.323
101447.309
101445.662
101448.155
101446.309
101440.409
101438.79
101441.322
101439.527
101433.768
101432.406
101435.34
101434.174
101428.894
101427.743
101430.946
101430.48
101426.019
101425.26
101428.809
101429.12
101425.486
101425.256
101429.276
101430.2
101427.306
101427.716
101432.021
101433.008
101430.44
101431.382
101435.921
101437.024
101434.68
101435.757
101440.249
101441.281
101438.881
101439.808
101444.058
101444.892
101442.37
101443.143
101447.124
101447.715
101445.055
101445.632
101449.31
101449.656
101446.864
101447.269
101450.694
101450.874
101448.034
101448.294
101451.447
101451.476
101448.612
101448.704
101451.555
101451.366
101448.396
101448.363
101450.95
101450.472
101447.282
101447.008
101449.385
101448.807
101445.563
101445.162
101447.36
101446.705
101443.475
101443.022
101445.121
101444.418
101441.17
101440.68
101442.745
101442.03
101438.772
101438.266
101440.325
101439.632
101436.406
101435.927
101438.01
101437.384
101434.267
101433.857
101435.992
101435.489
101432.556
101432.326
101434.633
101434.356
101431.686
101431.652
101434.082
101433.987
101431.523
101431.545
101433.933
101433.861
101431.5
101431.588
101434.003
101433.989
101431.676
101431.754
101434.125
101434.101
101431.797
101431.83
101434.123
101434.059
101431.74
101431.714
101433.92
101433.803
101431.455
101431.34
101433.408
101433.232
101430.895
101430.702
101432.614
101432.344
101429.968
101429.647
101431.338
101430.889
101428.374
101427.837
101429.217
101428.405
101425.595
101424.868
101426.033
101424.956
101421.854
101420.888
101421.881
101420.628
101417.362
101416.355
101417.362
101416.052
101412.74
101411.861
101413.07
101411.939
101408.709
101407.792
101409.043
101408.049
101404.969
101404.156
101405.501
101404.641
101401.681
101400.925
101402.324
101401.544
101398.695
101398.11
101399.72
101399.179
101396.614
101396.3
101398.169
101398.011
101395.87
101395.868
101397.89
101397.837
101395.832
101395.938
101397.992
101397.915
101395.918
101396.155
101398.326
101398.44
101396.677
101397.115
101399.426
101399.713
101398.181
101398.77
101401.166
101401.609
101400.271
101400.831
101403.101
101403.493
101402.181
101402.658
101404.77
101405.151
101403.907
101404.295
101406.209
101406.51
101405.292
101405.556
101407.235
101407.417
101406.165
101406.271
101407.69
101407.665
101406.281
101406.202
101407.384
101407.157
101405.636
101405.436
101406.455
101406.045
101404.394
101404.127
101405.05
101404.487
101402.714
101402.388
101403.222
101402.52
101400.62
101400.174
101400.805
101399.894
101397.873
101397.373
101397.901
101396.925
101394.858
101394.281
101394.713
101393.67
101391.553
101390.954
101391.395
101390.39
101388.308
101387.769
101388.312
101387.388
101385.361
101384.936
101385.66
101384.912
101383.013
101382.73
101383.715
101383.304
101381.666
101381.55
101382.755
101382.565
101381.135
101381.16
101382.493
101382.495
101381.279
101381.418
101382.785
101382.875
101381.773
101381.902
101383.182
101383.241
101382.137
101382.173
101383.301
101383.237
101382.051
101381.997
101383.006
101382.817
101381.559
101381.471
101382.418
101382.147
101380.875
101380.845
101381.803
101381.511
101380.28
101380.299
101381.255
101380.993
101379.839
101379.892
101380.831
101380.59
101379.491
101379.542
101380.435
101380.187
101379.101
101379.111
101379.929
101379.636
101378.519
101378.456
101379.19
101378.846
101377.7
101377.573
101378.189
101377.758
101376.595
101376.43
101376.941
101376.428
101375.255
101375.069
101375.493
101374.907
101373.724
101373.521
101373.871
101373.212
101372.012
101371.795
101372.09
101371.424
101370.272
101370.033
101370.266
101369.628
101368.546
101368.294
101368.465
101367.834
101366.798
101366.523
101366.632
101366.01
101365.028
101364.748
101364.819
101364.223
101363.307
101363.036
101363.081
101362.516
101361.664
101361.403
101361.425
101360.888
101360.098
101359.851
101359.858
101359.359
101358.637
101358.412
101358.415
101357.953
101357.292
101357.083
101357.077
101356.644
101356.031
101355.834
101355.818
101355.405
101354.829
101354.64
101354.617
101354.224
101353.677
101353.491
101353.462
101353.087
101352.566
101352.384
101352.351
101351.995
101351.502
101351.326
101351.293
101350.96
101350.5
101350.333
101350.297
101349.987
101349.562
101349.405
101349.365
101349.072
101348.67
101348.509
101348.45
101348.156
101347.756
101347.576
101347.484
101347.179
101346.791
101346.621
101346.518
101346.204
101345.811
101345.611
101345.47
101345.132
101344.7
101344.412
101344.15
101343.669
101343.072
101342.578
101342.08
101341.34
101340.457
101339.669
101338.907
101337.919
101336.853
101336.265
101336.1
101335.84
101335.478
101335.277
101335.217
101335.194
101335.192
101335.214
101335.253
101335.296
101335.34
101335.38
101335.416
101335.446
101335.471
101335.489
101335.502
101335.508
101335.508
101335.501
101335.487
101335.468
101335.441
101335.406
101335.364
101335.314
101335.258
101335.196
101335.126
101335.049
101334.962
101334.862
101334.745
101334.605
101334.44
101334.251
101334.044
101333.837
101333.656
101333.534
101333.511
101333.625
101333.908
101334.385
101335.065
101335.939
101336.961
101338.035
101339.007
101339.689
101339.914
101339.597
101338.756
101337.497
101336.027
101334.73
101334.119
101334.505
101335.643
101336.878
101337.75
101338.401
101339.304
101340.623
101341.84
101342.169
101341.661
101341.175
101340.12
101337.093
101333.429
101332.094
101333.261
101335.618
101334.584
101333.79
)
;

boundaryField
{
    closed
    {
        type            zeroGradient;
    }
    open
    {
        type            waveTransmissive;
        gamma           1.25;
        fieldInf        101325;
        lInf            1;
        value           uniform 101336.672;
    }
    sides
    {
        type            empty;
    }
    procBoundary5to4
    {
        type            processor;
        value           uniform 101553.926;
    }
}


// ************************************************************************* //
