/*--------------------------------*- C++ -*----------------------------------*\
| =========                 |                                                 |
| \\      /  F ield         | OpenFOAM: The Open Source CFD Toolbox           |
|  \\    /   O peration     | Version:  2306                                  |
|   \\  /    A nd           | Website:  www.openfoam.com                      |
|    \\/     M anipulation  |                                                 |
\*---------------------------------------------------------------------------*/
FoamFile
{
    version     2.0;
    format      ascii;
    arch        "LSB;label=32;scalar=64";
    class       volScalarField;
    location    "0.0018";
    object      prefDZ_T;
}
// * * * * * * * * * * * * * * * * * * * * * * * * * * * * * * * * * * * * * //

dimensions      [1 -1 -1 -1 0 0 0];

internalField   nonuniform List<scalar> 
530
(
-9.28891916e-11
-9.56601029e-11
-8.76880438e-11
-8.76721595e-11
-9.29372473e-11
-9.4709856e-11
-8.77795893e-11
-8.77479832e-11
-9.29668324e-11
-9.38397147e-11
-8.78400299e-11
-8.78150109e-11
-9.31048297e-11
-9.2971955e-11
-8.78887104e-11
-8.78634913e-11
-9.33536757e-11
-9.22014393e-11
-8.79229463e-11
-8.79110223e-11
-9.34856331e-11
-9.17506863e-11
-8.79621142e-11
-8.79519792e-11
-9.32822372e-11
-9.16374402e-11
-8.79932333e-11
-8.79863745e-11
-9.29584534e-11
-9.15348005e-11
-8.80233756e-11
-8.80131734e-11
-9.27640485e-11
-9.13627398e-11
-8.804851e-11
-8.80373252e-11
-9.26050615e-11
-9.11990136e-11
-8.80685846e-11
-8.80569014e-11
-9.24944785e-11
-9.10763042e-11
-8.80868378e-11
-8.80752299e-11
-9.2331606e-11
-9.09452247e-11
-8.81234126e-11
-8.80849411e-11
-9.22894421e-11
-9.07819308e-11
-8.81505928e-11
-8.80907132e-11
-9.21410059e-11
-9.07983596e-11
-8.81231821e-11
-8.81027708e-11
-9.19028378e-11
-9.08650109e-11
-8.80908912e-11
-8.81033182e-11
-9.17137135e-11
-9.08780071e-11
-8.80749683e-11
-8.80778843e-11
-9.15553498e-11
-9.0902592e-11
-8.80612789e-11
-8.80628746e-11
-9.14264258e-11
-9.09172116e-11
-8.80449275e-11
-8.80453842e-11
-9.13285614e-11
-9.08923343e-11
-8.80274335e-11
-8.80261031e-11
-9.1241948e-11
-9.08424084e-11
-8.80075634e-11
-8.8005356e-11
-9.11717041e-11
-9.0779406e-11
-8.79857214e-11
-8.79833209e-11
-9.11084824e-11
-9.071133e-11
-8.79617974e-11
-8.79598883e-11
-9.10484448e-11
-9.06395733e-11
-8.79365919e-11
-8.79353453e-11
-9.10159693e-11
-9.05625038e-11
-8.791156e-11
-8.79105757e-11
-9.09747625e-11
-9.05037959e-11
-8.78868244e-11
-8.7885672e-11
-9.09119878e-11
-9.04226016e-11
-8.78617871e-11
-8.78613386e-11
-9.08376225e-11
-9.03337233e-11
-8.78375385e-11
-8.78376911e-11
-9.07535861e-11
-9.02511469e-11
-8.78133897e-11
-8.78138751e-11
-9.06692866e-11
-9.01778944e-11
-8.7789078e-11
-8.77894867e-11
-9.05791467e-11
-9.01113168e-11
-8.77644813e-11
-8.77644972e-11
-9.04844189e-11
-9.00457559e-11
-8.77398192e-11
-8.77397538e-11
-9.03904364e-11
-8.9975629e-11
-8.77157147e-11
-8.77151068e-11
-9.03011749e-11
-8.99088399e-11
-8.76902977e-11
-8.76896505e-11
-9.02207944e-11
-8.98461608e-11
-8.76638986e-11
-8.76641052e-11
-9.01591129e-11
-8.97834656e-11
-8.76379366e-11
-8.76392097e-11
-9.00974956e-11
-8.97236326e-11
-8.76123603e-11
-8.76143517e-11
-9.00381841e-11
-8.9664008e-11
-8.75876254e-11
-8.75903299e-11
-8.99810421e-11
-8.96043802e-11
-8.75638699e-11
-8.75672423e-11
-8.99251518e-11
-8.95454574e-11
-8.75406131e-11
-8.75444559e-11
-8.98692868e-11
-8.94886426e-11
-8.75185897e-11
-8.75225984e-11
-8.9813188e-11
-8.94355622e-11
-8.74977664e-11
-8.75016647e-11
-8.97568832e-11
-8.93851591e-11
-8.74793881e-11
-8.74816088e-11
-8.97154268e-11
-8.93394627e-11
-8.74645058e-11
-8.74650611e-11
-8.96294613e-11
-8.92758489e-11
-8.74523964e-11
-8.74525419e-11
-8.95529602e-11
-8.91656248e-11
-8.74428583e-11
-8.74411144e-11
-8.95342048e-11
-8.91069716e-11
-8.74277941e-11
-8.7430785e-11
-8.94881063e-11
-8.90575629e-11
-8.74150602e-11
-8.74198828e-11
-8.94428246e-11
-8.90098271e-11
-8.7405126e-11
-8.7410468e-11
-8.93744907e-11
-8.89688591e-11
-8.73975984e-11
-8.74025618e-11
-8.9300672e-11
-8.89290839e-11
-8.73926956e-11
-8.73959626e-11
-8.92265978e-11
-8.88967571e-11
-8.73868095e-11
-8.73896119e-11
-8.91550382e-11
-8.88627484e-11
-8.73795792e-11
-8.73825168e-11
-8.91154357e-11
-8.88286848e-11
-8.73729861e-11
-8.73761153e-11
-8.91016135e-11
-8.87929205e-11
-8.73672695e-11
-8.73705151e-11
-8.90784437e-11
-8.87616058e-11
-8.73613733e-11
-8.73653764e-11
-8.90764908e-11
-8.87376305e-11
-8.73553996e-11
-8.73612081e-11
-8.90649137e-11
-8.87244734e-11
-8.73506227e-11
-8.73577714e-11
-8.90540584e-11
-8.87160325e-11
-8.73485471e-11
-8.73558513e-11
-8.90255929e-11
-8.87015863e-11
-8.73474742e-11
-8.73551355e-11
-8.90150833e-11
-8.86772911e-11
-8.73467245e-11
-8.73560992e-11
-8.90118327e-11
-8.8654948e-11
-8.73485316e-11
-8.7358369e-11
-8.89902084e-11
-8.86436422e-11
-8.73539594e-11
-8.73621794e-11
-8.89453783e-11
-8.86299439e-11
-8.73625769e-11
-8.7367502e-11
-8.88889703e-11
-8.86175516e-11
-8.73731586e-11
-8.73742453e-11
-8.88326551e-11
-8.85989498e-11
-8.7384416e-11
-8.73830179e-11
-8.8781195e-11
-8.8536114e-11
-8.73975025e-11
-8.73930292e-11
-8.87524502e-11
-8.84926679e-11
-8.74090238e-11
-8.74043387e-11
-8.87087101e-11
-8.84559336e-11
-8.74215864e-11
-8.74174806e-11
-8.86655113e-11
-8.8404105e-11
-8.74349321e-11
-8.74328857e-11
-8.86351322e-11
-8.83560871e-11
-8.7447168e-11
-8.74493017e-11
-8.86091584e-11
-8.83094744e-11
-8.74623213e-11
-8.7465423e-11
-8.85560878e-11
-8.82962992e-11
-8.74775951e-11
-8.74811739e-11
-8.85103685e-11
-8.82768767e-11
-8.74907638e-11
-8.74969324e-11
-8.85231186e-11
-8.82580825e-11
-8.75016832e-11
-8.75124629e-11
-8.855628e-11
-8.82510238e-11
-8.75117304e-11
-8.75271038e-11
-8.85907729e-11
-8.82533563e-11
-8.75230027e-11
-8.75412992e-11
-8.86012382e-11
-8.82626572e-11
-8.75376188e-11
-8.75554064e-11
-8.85756541e-11
-8.82777801e-11
-8.75558369e-11
-8.75696882e-11
-8.85257453e-11
-8.82943242e-11
-8.75756463e-11
-8.75844611e-11
-8.8473485e-11
-8.8308164e-11
-8.759583e-11
-8.75994114e-11
-8.84447667e-11
-8.83205687e-11
-8.76138552e-11
-8.76150042e-11
-8.84411716e-11
-8.83284305e-11
-8.76307264e-11
-8.76314618e-11
-8.84438155e-11
-8.83315577e-11
-8.76471073e-11
-8.76486762e-11
-8.84499183e-11
-8.8331537e-11
-8.76635205e-11
-8.76664676e-11
-8.84542589e-11
-8.8331016e-11
-8.76805498e-11
-8.76843195e-11
-8.84521899e-11
-8.83266387e-11
-8.76983698e-11
-8.77012237e-11
-8.84452769e-11
-8.83203365e-11
-8.77166638e-11
-8.77182752e-11
-8.84369617e-11
-8.83129892e-11
-8.77351647e-11
-8.77354869e-11
-8.84283596e-11
-8.83060509e-11
-8.77539119e-11
-8.77529271e-11
-8.84196369e-11
-8.8299108e-11
-8.7771752e-11
-8.77703516e-11
-8.84052906e-11
-8.82929779e-11
-8.77886715e-11
-8.77875767e-11
-8.83900541e-11
-8.82863321e-11
-8.78056576e-11
-8.78047045e-11
-8.83753141e-11
-8.82792787e-11
-8.78226527e-11
-8.78217342e-11
-8.8360975e-11
-8.82717921e-11
-8.78395115e-11
-8.78386101e-11
-8.83478592e-11
-8.82644604e-11
-8.78561552e-11
-8.78552979e-11
-8.83358428e-11
-8.82574177e-11
-8.7872572e-11
-8.78717817e-11
-8.83245828e-11
-8.82508811e-11
-8.78887411e-11
-8.78880291e-11
-8.83140283e-11
-8.82449508e-11
-8.79046709e-11
-8.79040106e-11
-8.83043145e-11
-8.82397046e-11
-8.79203423e-11
-8.79197177e-11
-8.82950881e-11
-8.82350739e-11
-8.7935727e-11
-8.79351337e-11
-8.82862412e-11
-8.823082e-11
-8.79507929e-11
-8.79502208e-11
-8.82781411e-11
-8.82270521e-11
-8.79655089e-11
-8.79649578e-11
-8.82708146e-11
-8.82238344e-11
-8.7979852e-11
-8.79793237e-11
-8.82642763e-11
-8.82210931e-11
-8.79937982e-11
-8.79932745e-11
-8.82584373e-11
-8.8218802e-11
-8.80073116e-11
-8.80067854e-11
-8.82530874e-11
-8.82170776e-11
-8.8020447e-11
-8.80199105e-11
-8.82481555e-11
-8.82155956e-11
-8.80331918e-11
-8.80327422e-11
-8.82440315e-11
-8.82126171e-11
-8.80454896e-11
-8.80451391e-11
-8.8243584e-11
-8.82095426e-11
-8.80573354e-11
-8.80571382e-11
-8.82416442e-11
-8.8210163e-11
-8.8068633e-11
-8.80686642e-11
-8.82383675e-11
-8.82109244e-11
-8.80796278e-11
-8.80798172e-11
-8.82364987e-11
-8.82113468e-11
-8.80907782e-11
-8.80911496e-11
-8.82283917e-11
-8.82081802e-11
-8.81035921e-11
-8.81039736e-11
-8.82130003e-11
-8.81951207e-11
-8.81498614e-11
-8.8141839e-11
-8.81787766e-11
-8.81692455e-11
-8.81747663e-11
-8.81671765e-11
-8.81799981e-11
-8.81729221e-11
-8.8184827e-11
-8.81780628e-11
-8.81901949e-11
-8.81840429e-11
-8.8195975e-11
-8.81907501e-11
-8.82021555e-11
-8.81981974e-11
-8.8208695e-11
-8.82063488e-11
-8.82155245e-11
-8.82151197e-11
-8.82223743e-11
-8.82236789e-11
-8.82297913e-11
-8.82318692e-11
-8.82376016e-11
-8.82399553e-11
-8.82453057e-11
-8.82477629e-11
-8.82523613e-11
-8.82546905e-11
-8.82584944e-11
-8.82605076e-11
-8.8263454e-11
-8.82650375e-11
-8.82671163e-11
-8.82682317e-11
-8.82695189e-11
-8.82701964e-11
-8.82708504e-11
-8.82711763e-11
-8.82714051e-11
-8.82715856e-11
-8.82717537e-11
-8.82718493e-11
-8.8271899e-11
-8.82719228e-11
-8.82719327e-11
-8.82719363e-11
-8.82719372e-11
-8.82719373e-11
-8.82719373e-11
-8.82719372e-11
-8.82719371e-11
-8.82719371e-11
-8.82719371e-11
-8.82719371e-11
-8.82719371e-11
-8.82719371e-11
-8.82719371e-11
-8.82719371e-11
-8.82719371e-11
-8.82719371e-11
-8.82719371e-11
-8.82719371e-11
-8.82719371e-11
-8.82719371e-11
-8.82719371e-11
-8.82719371e-11
-8.82719371e-11
-8.82719371e-11
-8.82719371e-11
-8.82719371e-11
-8.82719371e-11
-8.82719371e-11
-8.82719371e-11
-8.82719371e-11
)
;

boundaryField
{
    closed
    {
        type            calculated;
        value           nonuniform List<scalar> 0();
    }
    open
    {
        type            calculated;
        value           uniform -8.82719371e-11;
    }
    sides
    {
        type            empty;
    }
    procBoundary5to4
    {
        type            processor;
        value           uniform -8.75877351e-11;
    }
}


// ************************************************************************* //
