/*--------------------------------*- C++ -*----------------------------------*\
| =========                 |                                                 |
| \\      /  F ield         | OpenFOAM: The Open Source CFD Toolbox           |
|  \\    /   O peration     | Version:  2306                                  |
|   \\  /    A nd           | Website:  www.openfoam.com                      |
|    \\/     M anipulation  |                                                 |
\*---------------------------------------------------------------------------*/
FoamFile
{
    version     2.0;
    format      ascii;
    arch        "LSB;label=32;scalar=64";
    class       volScalarField;
    location    "0.00048";
    object      prefDh_H;
}
// * * * * * * * * * * * * * * * * * * * * * * * * * * * * * * * * * * * * * //

dimensions      [1 1 -3 0 0 0 0];

internalField   nonuniform List<scalar> 
531
(
23939.0745
23942.5981
23374.5411
23023.2214
23422.1171
23911.0989
23792.7994
23149.276
23051.9772
23594.8582
23924.6731
23381.9459
23148.6657
23696.7329
23938.7761
23386.4247
23150.6866
23356.6301
23907.9125
23995.0007
23678.0884
23359.776
23259.4835
23328.2494
23419.8323
23432.5119
23298.3438
23204.8035
23682.7912
23949.8762
23926.5277
23462.8985
23288.2457
23044.7278
23105.2811
23721.9931
23943.4258
23438.8774
23199.9813
23340.1229
23970.2789
23988.8424
23349.5733
23067.8304
23385.3921
23928.992
23992.1756
23562.5757
23377.9995
23367.1788
23390.5452
23383.851
23424.3561
23395.5266
23897.9942
23995.4199
23387.5439
23387.2072
23375.9018
23426.4504
23440.7773
23396.2636
23383.5953
23390.7245
23399.6601
23398.3437
23393.6599
23393.145
23393.8199
23394.0179
23393.8039
23393.5499
23393.4167
23393.342
23393.3063
23393.3467
23393.3472
23393.1866
23392.9354
23393.0783
23393.6282
23393.5459
23392.4136
23392.32
23393.9416
23394.4854
23392.5898
23391.2213
23392.9508
23395.6618
23394.4241
23390.3972
23390.5116
23395.8944
23396.4747
23391.7132
23389.7749
23393.1174
23396.3193
23394.232
23390.8283
23391.7223
23394.7212
23394.0625
23391.63
23392.9369
23397.0405
23393.9166
23385.0621
23388.243
23416.236
23416.3297
23372.1544
23372.2617
23452.9923
23498.9912
23373.4387
23386.8769
23392.5739
23889.6614
23456.4527
23152.3991
23381.5094
23882.2643
23955.3118
23366.0152
23050.1053
23492.3992
23918.0785
23402.0253
23117.1566
23358.0624
23897.6435
23651.0387
23167.145
23122.6739
23817.8713
23954.3974
23381.581
23117.1426
23365.2827
23896.9427
23925.9736
23366.6469
23057.0116
23397.4448
23898.7742
23590.2966
23199.6969
23174.1788
23818.3461
23953.2637
23377.1043
23121.5238
23386.0871
23865.1504
23689.4511
23400.8803
23398.757
23427.9551
23478.3371
23396.7636
23373.9634
23385.6174
23408.3187
23402.1659
23389.797
23390.1138
23393.9578
23393.9312
23393.1685
23393.5209
23393.6498
23392.7432
23392.4321
23393.2622
23393.6998
23393.2446
23392.8461
23392.9815
23393.0399
23393.0269
23393.5354
23393.8323
23392.5368
23391.2369
23393.1841
23397.6933
23396.0258
23385.4592
23385.1717
23407.0846
23416.3436
23385.0821
23372.2314
23387.2052
23481.4843
23468.1064
23381.1161
23420.5861
23486.8697
23887.7293
23432.167
23168.3551
23173.2986
23854.5491
23949.72
23386.5685
23080.7549
23387.4938
23888.6142
23956.3388
23367.1536
23063.8776
23367.2167
23881.747
23919.7841
23350.5704
23058.8482
23510.3593
23917.8235
23360.4241
23009.7698
23362.7682
23902.6547
23579.004
23218.0342
23374.5032
23916.2834
23963.1976
23364.3971
23039.786
23366.9092
23912.81
23541.5383
23180.758
23392.3115
23915.7665
23958.209
23368.9331
23029.186
23376.3084
23912.2993
23531.7743
23172.6594
23341.2056
23915.1582
23971.0211
23357.5353
23051.2698
23338.6283
23861.2711
23997.6682
23635.7042
23368.2879
23343.8048
23384.5055
23395.6392
23392.2059
23364.4391
23266.5726
23497.6917
23935.1213
23566.2219
23286.274
23297.8039
23886.337
23969.4621
23370.0648
23087.1435
23351.6284
23886.5968
23628.8574
23212.7722
23183.7213
23811.8387
23950.6265
23375.6758
23082.8919
23355.5261
23875.7322
23643.0976
23201.5244
23136.3175
23721.3521
23939.81
23383.5753
23089.8001
23352.6382
23861.834
23690.8388
23238.1404
23133.0475
23626.1406
23924.4742
23455.0249
23150.98
23174.6454
23809.7491
23947.7467
23378.4278
23081.49
23365.2126
23839.8496
23932.4195
23357.9603
23062.9726
23360.8606
23849.4789
23915.3357
23359.7951
23064.7905
23358.531
23870.4168
23888.6925
23371.4476
23064.3401
23360.4902
23884.1772
23894.6099
23367.6868
23036.3993
23354.5281
23875.6363
23890.9846
23361.5679
23101.1006
23437.22
23894.4505
23589.2652
23200.0733
23087.0059
23498.6728
23925.7281
23377.493
23208.1761
23507.0757
23923.7968
23485.285
23145.1985
23144.5183
23701.8257
23926.8732
23444.7623
23158.7555
23192.3723
23767.3618
23950.2315
23835.7814
23384.0136
23275.0425
23091.4046
23088.0031
23644.1136
23925.3805
23389.5343
23237.0908
23609.9703
23922.5641
23467.3671
23170.554
23156.9561
23803.5115
23957.8801
23433.3976
23355.0318
23370.5502
23447.2069
23384.565
23297.3318
23740.2369
23981.3647
23368.1033
23175.687
23348.167
23955.1228
24004.8222
23291.9259
22956.8609
23283.1234
23993.5089
24081.5165
23357.4772
22770.7037
22762.026
24004.4382
24115.2256
23067.1392
22759.6512
23687.2499
24055.4779
23997.554
24038.413
24027.5861
24039.4697
24041.0784
24049.3374
24067.654
24083.3354
24130.6972
24170.7838
24288.35
24445.2848
24632.1346
24434.8137
24264.3175
24109.6112
23993.2205
23905.0948
23848.0757
23754.3927
23744.9648
23609.1071
23551.499
23517.2163
23523.6206
23396.9017
23265.7135
23503.1758
24681.1321
23911.7957
25267.8985
26041.8063
26037.229
27706.9172
27159.8749
28668.9766
27023.6732
26201.592
27566.2122
30745.5806
33490.7927
35396.916
37825.5809
40110.1314
42908.1452
49235.2749
51192.5494
53341.7681
55367.4308
57543.0963
59535.6406
61421.6002
63023.1533
64708.2469
66236.4072
67776.1318
69121.9215
70480.5554
71659.9612
72819.6726
73773.9682
74664.8334
75458.6595
76217.8515
76926.2836
77575.0315
78200.9027
78754.3288
79387.5288
79914.5895
80549.7197
80981.8846
81580.3324
81999.8013
82543.1526
82929.3654
83402.4996
83795.7221
84297.8778
84626.8309
84970.9287
85253.9267
85556.6421
85814.4751
86093.3552
86350.2134
86615.1456
86857.5098
87099.4857
87344.2263
87633.4519
87934.1079
88188.1599
88415.7082
88616.6382
88819.3304
88997.1437
89183.8618
89350.1921
89525.6587
89669.8651
89828.3163
89963.1723
90133.3285
90302.6502
90498.5409
90647.9123
90824.4119
90957.6376
91114.287
91220.1645
91354.0498
91452.2559
91579.0589
91670.7135
91789.7981
91873.8018
91982.5162
92061.6105
92162.2063
92238.888
92330.9493
92405.4331
92485.1066
92552.7407
92623.583
92689.9648
92759.1714
92832.5461
92896.3012
92967.6606
93025.5232
93093.0167
93141.9355
93204.584
93248.655
93308.6948
93348.3525
93405.7346
93441.4084
)
;

boundaryField
{
    closed
    {
        type            calculated;
        value           nonuniform List<scalar> 0();
    }
    open
    {
        type            calculated;
        value           nonuniform List<scalar> 0();
    }
    sides
    {
        type            empty;
    }
    procBoundary4to3
    {
        type            processor;
        value           uniform 23358.7608;
    }
    procBoundary4to5
    {
        type            processor;
        value           uniform 93496.0812;
    }
}


// ************************************************************************* //
