/*--------------------------------*- C++ -*----------------------------------*\
| =========                 |                                                 |
| \\      /  F ield         | OpenFOAM: The Open Source CFD Toolbox           |
|  \\    /   O peration     | Version:  2306                                  |
|   \\  /    A nd           | Website:  www.openfoam.com                      |
|    \\/     M anipulation  |                                                 |
\*---------------------------------------------------------------------------*/
FoamFile
{
    version     2.0;
    format      ascii;
    arch        "LSB;label=32;scalar=64";
    class       volScalarField;
    location    "0.0014";
    object      prefDZ_H2O;
}
// * * * * * * * * * * * * * * * * * * * * * * * * * * * * * * * * * * * * * //

dimensions      [1 -1 -1 0 0 0 0];

internalField   nonuniform List<scalar> 
531
(
-7.74495599e-07
-7.74903482e-07
-7.44748405e-07
-7.34677379e-07
-7.37336493e-07
-7.74479872e-07
-7.74978071e-07
-7.43905189e-07
-7.34343795e-07
-7.3712979e-07
-7.74515473e-07
-7.75175085e-07
-7.42508799e-07
-7.33723629e-07
-7.359642e-07
-7.74757807e-07
-7.75139e-07
-7.38151558e-07
-7.37847832e-07
-7.74596067e-07
-7.75053341e-07
-7.38402452e-07
-7.38812999e-07
-7.74334683e-07
-7.74972391e-07
-7.41103707e-07
-7.3362159e-07
-7.36649774e-07
-7.74751429e-07
-7.75055793e-07
-7.39228019e-07
-7.33721559e-07
-7.34043423e-07
-7.55276809e-07
-7.75258967e-07
-7.74959757e-07
-7.75495184e-07
-7.76636214e-07
-7.75016833e-07
-7.79403609e-07
-7.36498367e-07
-7.34503703e-07
-7.33247382e-07
-7.35460293e-07
-7.75084734e-07
-7.75783432e-07
-7.40025205e-07
-7.32655626e-07
-7.35365459e-07
-7.76923087e-07
-7.73386549e-07
-7.76198929e-07
-7.44050757e-07
-7.34558024e-07
-7.36175933e-07
-7.75048072e-07
-7.74417379e-07
-7.38905061e-07
-7.3876638e-07
-7.74370424e-07
-7.74106065e-07
-7.45290866e-07
-7.36409781e-07
-7.36346395e-07
-7.34107704e-07
-7.34133241e-07
-7.73334249e-07
-7.74702668e-07
-7.76189421e-07
-7.74045494e-07
-7.74952226e-07
-7.49351031e-07
-7.35183657e-07
-7.36634371e-07
-7.7496662e-07
-7.74900423e-07
-7.43172752e-07
-7.34048764e-07
-7.3679655e-07
-7.75257056e-07
-7.74820845e-07
-7.44661755e-07
-7.3455162e-07
-7.3715219e-07
-7.75281454e-07
-7.74688536e-07
-7.45948521e-07
-7.34929808e-07
-7.37422926e-07
-7.75352411e-07
-7.74541505e-07
-7.47716752e-07
-7.356498e-07
-7.37858875e-07
-7.75451117e-07
-7.74168306e-07
-7.49418612e-07
-7.36570926e-07
-7.35351422e-07
-7.36870087e-07
-7.76015899e-07
-7.74855613e-07
-7.39953762e-07
-7.39298277e-07
-7.76225701e-07
-7.74669535e-07
-7.45351101e-07
-7.35259683e-07
-7.3767615e-07
-7.76208691e-07
-7.74879176e-07
-7.45964301e-07
-7.3490035e-07
-7.37264433e-07
-7.76411405e-07
-7.75041972e-07
-7.46656608e-07
-7.34828801e-07
-7.37139802e-07
-7.77737889e-07
-7.73273439e-07
-7.74709815e-07
-7.47513346e-07
-7.36130103e-07
-7.34482537e-07
-7.35947633e-07
-7.77325222e-07
-7.75774787e-07
-7.39013026e-07
-7.38426386e-07
-7.77924195e-07
-7.75153364e-07
-7.44552459e-07
-7.34926427e-07
-7.3734657e-07
-7.77044585e-07
-7.75044383e-07
-7.47099891e-07
-7.35270258e-07
-7.37553301e-07
-7.77064321e-07
-7.75028166e-07
-7.4759736e-07
-7.3517913e-07
-7.37123453e-07
-7.77186307e-07
-7.74817177e-07
-7.44742391e-07
-7.37624148e-07
-7.4650767e-07
-7.75558351e-07
-7.74236231e-07
-7.50918875e-07
-7.35382218e-07
-7.36946584e-07
-7.77136161e-07
-7.75354469e-07
-7.4549123e-07
-7.34909459e-07
-7.37394436e-07
-7.77017021e-07
-7.75364996e-07
-7.46411336e-07
-7.34920488e-07
-7.3696551e-07
-7.77178797e-07
-7.75961978e-07
-7.40272999e-07
-7.39530491e-07
-7.76755641e-07
-7.74843341e-07
-7.46470299e-07
-7.36360889e-07
-7.35077738e-07
-7.37444624e-07
-7.76260253e-07
-7.75237019e-07
-7.46385095e-07
-7.3599185e-07
-7.38950699e-07
-7.75762726e-07
-7.75182816e-07
-7.46292001e-07
-7.35253805e-07
-7.38035344e-07
-7.76379391e-07
-7.77021798e-07
-7.3892966e-07
-7.39826672e-07
-7.75697951e-07
-7.76022248e-07
-7.42487921e-07
-7.34654115e-07
-7.38060882e-07
-7.76839554e-07
-7.78899403e-07
-7.39097684e-07
-7.4066564e-07
-7.75970427e-07
-7.76437898e-07
-7.43408266e-07
-7.35841726e-07
-7.39902981e-07
-7.76132442e-07
-7.76913817e-07
-7.42207912e-07
-7.35355779e-07
-7.39330868e-07
-7.76365305e-07
-7.77069666e-07
-7.42440017e-07
-7.35278383e-07
-7.385999e-07
-7.76879472e-07
-7.79465031e-07
-7.39723684e-07
-7.40690394e-07
-7.76666447e-07
-7.7626814e-07
-7.44553307e-07
-7.36069132e-07
-7.38797945e-07
-7.76386392e-07
-7.76262249e-07
-7.43884621e-07
-7.35449705e-07
-7.38037468e-07
-7.76857892e-07
-7.76168288e-07
-7.43681902e-07
-7.34767131e-07
-7.3691187e-07
-7.75746081e-07
-7.74936766e-07
-7.77140537e-07
-7.74697491e-07
-7.7705625e-07
-7.38864273e-07
-7.35441454e-07
-7.35710342e-07
-7.35367671e-07
-7.33576611e-07
-7.35726431e-07
-7.72394941e-07
-7.74514581e-07
-7.77195547e-07
-7.39595589e-07
-7.38957389e-07
-7.78857878e-07
-7.75773239e-07
-7.44700914e-07
-7.34846195e-07
-7.36342222e-07
-7.79960535e-07
-7.77836339e-07
-7.40700687e-07
-7.38872847e-07
-7.789206e-07
-7.77452601e-07
-7.41808627e-07
-7.39983144e-07
-7.79378609e-07
-7.75834848e-07
-7.47703793e-07
-7.38968598e-07
-7.4753686e-07
-7.76954475e-07
-7.74826113e-07
-7.50243455e-07
-7.36954394e-07
-7.35930822e-07
-7.34865281e-07
-7.3650489e-07
-7.73622827e-07
-7.75398725e-07
-7.75695399e-07
-7.74873536e-07
-7.62039115e-07
-7.38555582e-07
-7.36771126e-07
-7.36076837e-07
-7.37769195e-07
-7.76755986e-07
-7.76039012e-07
-7.53490533e-07
-7.37701938e-07
-7.38562857e-07
-7.77341588e-07
-7.76628654e-07
-7.48333872e-07
-7.3637091e-07
-7.37708887e-07
-7.75985366e-07
-7.80041141e-07
-7.43761118e-07
-7.41532423e-07
-7.74402613e-07
-7.77210709e-07
-7.46666805e-07
-7.36424606e-07
-7.38031655e-07
-7.75752668e-07
-7.77552152e-07
-7.46436943e-07
-7.36106928e-07
-7.37917815e-07
-7.75298999e-07
-7.7796334e-07
-7.43609067e-07
-7.42119764e-07
-7.75004228e-07
-7.77543073e-07
-7.45233994e-07
-7.36525995e-07
-7.38747042e-07
-7.76571638e-07
-7.77724076e-07
-7.44988504e-07
-7.36315538e-07
-7.39052069e-07
-7.77632537e-07
-7.77426315e-07
-7.45022279e-07
-7.36675758e-07
-7.40693514e-07
-7.7885714e-07
-7.76571268e-07
-7.42766839e-07
-7.45082533e-07
-7.77995557e-07
-7.76894808e-07
-7.41505461e-07
-7.36290827e-07
-7.35970843e-07
-7.43681698e-07
-7.78576969e-07
-7.67612205e-07
-7.38204407e-07
-7.45525327e-07
-7.77750863e-07
-7.64172741e-07
-7.37866731e-07
-7.49110525e-07
-7.75790614e-07
-7.74077106e-07
-7.7576765e-07
-7.37969992e-07
-7.36033543e-07
-7.35915755e-07
-7.35311967e-07
-7.47779929e-07
-7.75434669e-07
-7.69377202e-07
-7.35113106e-07
-7.35028238e-07
-7.48775964e-07
-7.76127985e-07
-7.61124331e-07
-7.38185824e-07
-7.4954056e-07
-7.75901833e-07
-7.62786965e-07
-7.3828292e-07
-7.48680229e-07
-7.74853143e-07
-7.75371359e-07
-7.36640376e-07
-7.35328473e-07
-7.43678499e-07
-7.7513535e-07
-7.70802503e-07
-7.38146656e-07
-7.42920528e-07
-7.74638336e-07
-7.78516374e-07
-7.38082102e-07
-7.34605995e-07
-7.37656945e-07
-7.74784867e-07
-7.79100647e-07
-7.37894705e-07
-7.38329352e-07
-7.74802081e-07
-7.76180845e-07
-7.3936587e-07
-7.34182845e-07
-7.35712933e-07
-7.7488183e-07
-7.75982925e-07
-7.37863312e-07
-7.37167131e-07
-7.75156302e-07
-7.75408072e-07
-7.39713271e-07
-7.33679721e-07
-7.34384622e-07
-7.751177e-07
-7.74976932e-07
-7.37667615e-07
-7.36121315e-07
-7.75539342e-07
-7.7472082e-07
-7.37810485e-07
-7.36537817e-07
-7.75618168e-07
-7.7438368e-07
-7.38155463e-07
-7.36854768e-07
-7.75595533e-07
-7.74780276e-07
-7.41264567e-07
-7.3393623e-07
-7.34207244e-07
-7.75397932e-07
-7.74399275e-07
-7.38482231e-07
-7.36360386e-07
-7.75643182e-07
-7.73997638e-07
-7.38636241e-07
-7.37013384e-07
-7.75560013e-07
-7.743145e-07
-7.43323442e-07
-7.34739991e-07
-7.34938917e-07
-7.75397039e-07
-7.73885476e-07
-7.39614344e-07
-7.37525036e-07
-7.75438341e-07
-7.73785571e-07
-7.48098174e-07
-7.36069624e-07
-7.36201238e-07
-7.75292984e-07
-7.7373295e-07
-7.45956585e-07
-7.3696497e-07
-7.35318888e-07
-7.35204613e-07
-7.75909429e-07
-7.74607842e-07
-7.41254057e-07
-7.33363386e-07
-7.3334637e-07
-7.75893069e-07
-7.74179216e-07
-7.3819743e-07
-7.35519386e-07
-7.76516933e-07
-7.73786319e-07
-7.38070605e-07
-7.35783281e-07
-7.76500808e-07
-7.73626655e-07
-7.38102259e-07
-7.36691206e-07
-7.7653218e-07
-7.73116381e-07
-7.74618446e-07
-7.48431184e-07
-7.36813397e-07
-7.36951033e-07
-7.3454123e-07
-7.34487116e-07
-7.75774007e-07
-7.74209312e-07
-7.54015694e-07
-7.3585099e-07
-7.35799561e-07
-7.75321313e-07
-7.73563036e-07
-7.3926035e-07
-7.37260872e-07
-7.75324691e-07
-7.73333094e-07
-7.39029706e-07
-7.37496375e-07
-7.75065573e-07
-7.73733424e-07
-7.45715035e-07
-7.35398642e-07
-7.35639696e-07
-7.74587086e-07
-7.74110581e-07
-7.46240114e-07
-7.35357756e-07
-7.35534579e-07
-7.74476006e-07
-7.74019886e-07
-7.4142793e-07
-7.3600992e-07
-7.34029436e-07
-7.3419233e-07
-7.76053641e-07
-7.74605565e-07
-7.74628649e-07
-7.74658765e-07
-7.43642599e-07
-7.34192496e-07
-7.35249569e-07
-7.74861581e-07
-7.73933743e-07
-7.37653375e-07
-7.36093608e-07
-7.74634711e-07
-7.74201092e-07
-7.40278747e-07
-7.34323929e-07
-7.35814178e-07
-7.74230374e-07
-7.74055926e-07
-7.41678828e-07
-7.34857225e-07
-7.36702946e-07
-7.73983844e-07
-7.73783695e-07
-7.41754156e-07
-7.35103412e-07
-7.37065368e-07
-7.73840183e-07
-7.73786954e-07
-7.4218212e-07
-7.34828131e-07
-7.37166348e-07
-7.74307638e-07
-7.73588628e-07
-7.55110791e-07
-7.36959967e-07
-7.36127199e-07
)
;

boundaryField
{
    closed
    {
        type            calculated;
        value           nonuniform List<scalar> 0();
    }
    open
    {
        type            calculated;
        value           nonuniform List<scalar> 0();
    }
    sides
    {
        type            empty;
    }
    procBoundary3to2
    {
        type            processor;
        value           uniform -7.37380658e-07;
    }
    procBoundary3to4
    {
        type            processor;
        value           uniform -7.32453547e-07;
    }
}


// ************************************************************************* //
