/*--------------------------------*- C++ -*----------------------------------*\
| =========                 |                                                 |
| \\      /  F ield         | OpenFOAM: The Open Source CFD Toolbox           |
|  \\    /   O peration     | Version:  2306                                  |
|   \\  /    A nd           | Website:  www.openfoam.com                      |
|    \\/     M anipulation  |                                                 |
\*---------------------------------------------------------------------------*/
FoamFile
{
    version     2.0;
    format      ascii;
    arch        "LSB;label=32;scalar=64";
    class       volScalarField;
    location    "0.0014";
    object      prefDh_T;
}
// * * * * * * * * * * * * * * * * * * * * * * * * * * * * * * * * * * * * * //

dimensions      [1 1 -3 -1 0 0 0];

internalField   nonuniform List<scalar> 
531
(
-0.00075184156
-0.000740564138
-0.000592924909
-0.000501610368
-0.000564227769
-0.000751904324
-0.000740872264
-0.000593703206
-0.000494417471
-0.00055953465
-0.000752259104
-0.000740173812
-0.000594828336
-0.000478862162
-0.000535518663
-0.000748339599
-0.000746117068
-0.000577943674
-0.000574495858
-0.000751995277
-0.000744077309
-0.000584335468
-0.000593995713
-0.000754946312
-0.00074057477
-0.00059723176
-0.000477213363
-0.000550570521
-0.000752766359
-0.000747784287
-0.00060160142
-0.000484080021
-0.000490561062
-0.000600660232
-0.000741957012
-0.000740881258
-0.000738460832
-0.000728017599
-0.000736674996
-0.000710607592
-0.000539643114
-0.000487885206
-0.000469067317
-0.000515553193
-0.000752948578
-0.000738090085
-0.000596499204
-0.000447115323
-0.000523884937
-0.000737135062
-0.000748851177
-0.00072941963
-0.00059140651
-0.000492244464
-0.000539435241
-0.000747456347
-0.000753696548
-0.000595843178
-0.000592749027
-0.000752645833
-0.000744470176
-0.000593055783
-0.000537769542
-0.000540587528
-0.000483478015
-0.000491962775
-0.000676227299
-0.000744032223
-0.000733146851
-0.000746501548
-0.000736608111
-0.000592322778
-0.000511496407
-0.000547266811
-0.000751553523
-0.000745467872
-0.0005938703
-0.000485559252
-0.00055035154
-0.000749098881
-0.000744895109
-0.000593238452
-0.000496716497
-0.000557848124
-0.000748539999
-0.00074505243
-0.000592340408
-0.000505573991
-0.000563807742
-0.000748321135
-0.000745359762
-0.000591170912
-0.000521262044
-0.000574599711
-0.000743976558
-0.000748252108
-0.000596316262
-0.000544586663
-0.000514535933
-0.000549199334
-0.000743322692
-0.000751485326
-0.000603609016
-0.000602281854
-0.000742043208
-0.000742659037
-0.000592747153
-0.000510815654
-0.000568732473
-0.000743379593
-0.000745482244
-0.000592009618
-0.000503527542
-0.000559346578
-0.00074354724
-0.000744390613
-0.000589844633
-0.000499208439
-0.000559976808
-0.000733044779
-0.000748185517
-0.000741586139
-0.000593387695
-0.000531616633
-0.000495597362
-0.000525664405
-0.000737776909
-0.00074839113
-0.00059903218
-0.000581301623
-0.000731474225
-0.000740583576
-0.000593223512
-0.00050220116
-0.000560515902
-0.000736613639
-0.000743967388
-0.000591982296
-0.000511477232
-0.000565101075
-0.000737106622
-0.000744293171
-0.000590851785
-0.000510232337
-0.000557277418
-0.000736440448
-0.000748576559
-0.000591130567
-0.000565691224
-0.000591753197
-0.000736942435
-0.000745453266
-0.000594151649
-0.000516715107
-0.000552817819
-0.000738622698
-0.000743896317
-0.000591009979
-0.000502843946
-0.000561733258
-0.000737326594
-0.000741390947
-0.000591938059
-0.000501636195
-0.000551980253
-0.00073513687
-0.000746886937
-0.000604680704
-0.00060665668
-0.000735609762
-0.000742701365
-0.000595733773
-0.000539206463
-0.000509623586
-0.000563138612
-0.000745408151
-0.000742370273
-0.000591268803
-0.000527005105
-0.000598080418
-0.000745627731
-0.000741331116
-0.000591764782
-0.000509458465
-0.000577077732
-0.00074227803
-0.000740827335
-0.000593087794
-0.000610001409
-0.000748579493
-0.000735520797
-0.000594687696
-0.000494145691
-0.000579193441
-0.000741390554
-0.00072909713
-0.000595367598
-0.000606590076
-0.000747331762
-0.000732223334
-0.000594713596
-0.000521363891
-0.000594674045
-0.000746120137
-0.000732422367
-0.000596940985
-0.000510109451
-0.00059495475
-0.000744983766
-0.000731090033
-0.000596832657
-0.000507355162
-0.000592933749
-0.000740386862
-0.000721637255
-0.000608252986
-0.000605063727
-0.000743047042
-0.000732953382
-0.000594126447
-0.000526328122
-0.000597604356
-0.000744085059
-0.000735837256
-0.000595296982
-0.000511455821
-0.000578574046
-0.000741255143
-0.000736526572
-0.000594427085
-0.000495331006
-0.000554628954
-0.000688567024
-0.000740853455
-0.000723249791
-0.000741773728
-0.0007312506
-0.000595420024
-0.000511379118
-0.000523450245
-0.000514718578
-0.000472543415
-0.000524463405
-0.000670950257
-0.000743676462
-0.000733687082
-0.000606778394
-0.000590940602
-0.000708225811
-0.000738663044
-0.000590844981
-0.000496587137
-0.000537163317
-0.000717508116
-0.000735981384
-0.000605568245
-0.000589670163
-0.000708719279
-0.000736620171
-0.00060137345
-0.00060918818
-0.000710861291
-0.000742118246
-0.000591049343
-0.000593059167
-0.000591097724
-0.000728189151
-0.000743586637
-0.000592449989
-0.00055241158
-0.000535572642
-0.000504579454
-0.00054460914
-0.00067803124
-0.000739297043
-0.000734384165
-0.000741755171
-0.000623120238
-0.000589715395
-0.000550497618
-0.000530270464
-0.000568338231
-0.000695157191
-0.000738970372
-0.000596987994
-0.000565748453
-0.000587481727
-0.000698304396
-0.000737140411
-0.000586715208
-0.000535931754
-0.000569235913
-0.000690752421
-0.000714851268
-0.000591882702
-0.000603221212
-0.000681419168
-0.000732849096
-0.000584458966
-0.000537852057
-0.000577185435
-0.000689061265
-0.000732377516
-0.000583103443
-0.000530749992
-0.000575698829
-0.0006865334
-0.000702119788
-0.000590951385
-0.000600267022
-0.000684158208
-0.000728964771
-0.000583550802
-0.000540898696
-0.000595016102
-0.00069287556
-0.000729705106
-0.000583403211
-0.000536898239
-0.000599084717
-0.000698635838
-0.000730721776
-0.000583420009
-0.000544934664
-0.000592082477
-0.000705231035
-0.000693114206
-0.000592622553
-0.000595005013
-0.000716261416
-0.00072936714
-0.000591386965
-0.000538998016
-0.000533048969
-0.000583641816
-0.000718858016
-0.000646743265
-0.000585149
-0.000585653263
-0.000723701237
-0.000631090371
-0.000578167145
-0.000587799075
-0.000732496586
-0.000741587835
-0.000688211338
-0.000574649941
-0.000530410589
-0.000533758856
-0.000519902649
-0.000584402921
-0.00073942076
-0.000655166841
-0.000508432573
-0.000510535646
-0.000585333881
-0.000732767534
-0.000618718345
-0.000581977707
-0.000588285219
-0.000736416787
-0.000625741009
-0.000584646479
-0.000588330298
-0.000744017542
-0.000685040173
-0.000543821764
-0.00051735641
-0.000580328845
-0.000740974293
-0.000661860827
-0.000580125009
-0.000585885474
-0.000747723015
-0.000711863975
-0.000578050783
-0.000500847686
-0.00058045348
-0.000745224432
-0.000709369848
-0.000573245488
-0.000590588945
-0.000749042066
-0.00072951529
-0.000601774486
-0.000491207484
-0.000534173188
-0.000745908522
-0.000732388971
-0.000571408461
-0.000562976832
-0.000748767701
-0.000735606992
-0.000601111287
-0.000478786495
-0.000503468422
-0.000745294689
-0.000741632123
-0.000564949096
-0.000540947388
-0.000747385843
-0.00074185894
-0.000567577308
-0.000549474415
-0.000746959132
-0.000742857016
-0.000575670816
-0.00055460812
-0.00074767926
-0.000739438526
-0.000598642859
-0.000483779192
-0.000498124455
-0.000744638662
-0.000745143417
-0.000582619105
-0.000544900386
-0.00074773338
-0.00074552403
-0.000586099976
-0.00055748707
-0.000748095675
-0.000741537968
-0.000595790832
-0.000502167538
-0.000513354332
-0.000744213559
-0.000746040352
-0.000608616915
-0.000568276998
-0.000747785624
-0.000742935403
-0.000594167315
-0.000532274255
-0.000539121433
-0.000745062802
-0.000744681883
-0.000595935982
-0.000555392402
-0.000515659337
-0.000516704269
-0.000747620037
-0.000741969295
-0.000598990945
-0.000470942469
-0.000477813203
-0.000740675397
-0.000747469267
-0.000576429944
-0.00052687717
-0.000741994542
-0.000749730048
-0.000572052886
-0.000533384766
-0.000741585607
-0.000750102058
-0.000573198746
-0.000552432601
-0.000743032861
-0.000747441383
-0.000735369087
-0.000590797795
-0.000548936707
-0.000556311833
-0.000498201198
-0.000501532552
-0.000744644965
-0.000741346607
-0.000599571828
-0.00052791688
-0.000531671051
-0.000745636642
-0.000748821297
-0.000601388722
-0.000565168535
-0.000747934512
-0.000749698202
-0.000597088384
-0.000569295499
-0.000750076359
-0.000745879499
-0.000592804125
-0.000521203682
-0.000527439917
-0.000749322623
-0.000743341394
-0.000590839486
-0.000518972185
-0.000526127215
-0.00074762882
-0.000745005184
-0.000598986188
-0.000533278347
-0.000489228581
-0.000493401561
-0.000746098468
-0.000740836461
-0.000742623133
-0.000740386003
-0.000593405126
-0.000490612208
-0.000520228999
-0.000745228458
-0.000747109685
-0.000568604716
-0.000537647583
-0.000751465716
-0.000744967731
-0.000598838757
-0.000496511653
-0.000531682215
-0.000749545494
-0.000745674122
-0.000594459701
-0.000509429636
-0.000551773198
-0.000750760484
-0.000746974491
-0.000593712863
-0.000515660507
-0.000559449867
-0.000751169176
-0.000746288775
-0.000593323177
-0.00050889564
-0.000560542992
-0.000749618273
-0.000741939964
-0.000599989882
-0.000552412006
-0.000538789919
)
;

boundaryField
{
    closed
    {
        type            calculated;
        value           nonuniform List<scalar> 0();
    }
    open
    {
        type            calculated;
        value           nonuniform List<scalar> 0();
    }
    sides
    {
        type            empty;
    }
    procBoundary3to2
    {
        type            processor;
        value           uniform -0.000564977608;
    }
    procBoundary3to4
    {
        type            processor;
        value           uniform -0.000452039059;
    }
}


// ************************************************************************* //
