/*--------------------------------*- C++ -*----------------------------------*\
| =========                 |                                                 |
| \\      /  F ield         | OpenFOAM: The Open Source CFD Toolbox           |
|  \\    /   O peration     | Version:  2306                                  |
|   \\  /    A nd           | Website:  www.openfoam.com                      |
|    \\/     M anipulation  |                                                 |
\*---------------------------------------------------------------------------*/
FoamFile
{
    version     2.0;
    format      ascii;
    arch        "LSB;label=32;scalar=64";
    class       volScalarField;
    location    "0.00058";
    object      prefDh_H2O;
}
// * * * * * * * * * * * * * * * * * * * * * * * * * * * * * * * * * * * * * //

dimensions      [1 1 -3 0 0 0 0];

internalField   nonuniform List<scalar> 
531
(
87.9003114
87.8056523
92.0103445
92.5000758
88.5136636
88.0444738
92.5380929
92.4434152
90.1598029
87.8893997
87.8203399
92.489124
92.4970918
88.4064064
88.0460723
92.7257453
92.4240916
90.2164296
87.9020682
87.8747337
93.0000774
92.437229
89.8796072
87.8613159
87.8440025
92.8435025
92.4245368
89.4613953
87.9146668
88.1052169
92.8014429
92.4519617
88.2807888
87.959342
92.9595109
92.4341581
89.8958085
87.8677508
87.8734589
92.8033653
92.4258765
89.4027587
87.9093177
88.148955
92.7148422
92.3664677
89.3207491
87.8947898
88.1729636
92.7628522
92.5675392
88.129193
87.9163411
93.111299
92.456851
89.4893091
87.8748174
88.0274536
92.7586416
92.3834442
89.6067355
87.9141054
88.0804243
92.7159765
92.3971675
89.2941846
87.846131
88.0739898
92.7606796
92.5971285
88.1563081
88.086686
92.7975904
92.431119
89.2117984
87.8351905
88.0553595
92.7305621
92.4245012
88.5416974
87.9276389
90.784888
92.678614
88.3399963
88.2346177
92.7204287
92.3842808
89.2377932
87.8762668
88.1220208
92.6862946
92.4070339
89.1467378
87.8912677
88.2551571
92.7105611
92.757238
88.0621726
88.0794258
92.719647
92.491551
88.8340197
87.8510247
88.3389026
92.7263258
92.9360761
88.063396
88.1331093
92.7486858
92.8648004
88.0918648
88.1418026
92.6950476
92.4663954
89.1030319
87.9161583
88.3626539
92.7228071
92.9243636
88.1935404
88.2002107
92.7964427
92.2826807
90.7905797
88.443593
88.0713388
87.8487991
88.1553681
92.8667431
92.870634
88.0831506
88.2041161
92.810408
92.8335402
88.1845667
88.3002344
92.7481535
92.4829419
89.1833742
87.8968872
88.2136144
92.8865869
92.6935032
88.188184
88.3647162
92.7751736
92.5432252
89.0116136
87.9018436
88.2056523
92.9320285
92.4936237
89.3600148
87.9076874
88.2137991
92.9802592
92.437804
88.0779649
88.2423655
92.9432571
92.1101811
88.0799935
88.3455332
92.9235569
91.9179735
88.1927496
88.5564223
92.8674405
92.5117427
89.1086113
87.8895243
88.2891155
93.0115101
91.7066839
88.1958389
88.7288872
92.8462995
92.6695448
88.7520152
87.8365041
88.3142119
93.036413
91.482975
88.1782349
88.8445011
92.8520326
92.6690628
88.613792
87.8544743
88.4752427
93.0122745
91.2464449
88.1865799
89.0232957
92.8305438
92.7307589
88.618924
87.8718975
88.6686272
92.9705524
90.998463
88.1909887
89.145342
92.810366
92.5944692
88.8948677
87.9999861
88.9651192
92.832643
92.9450618
89.1070023
87.9757616
87.7964025
88.8256515
92.9379695
90.5413289
88.1356012
89.4116342
92.7633123
92.662291
88.4478497
87.9592238
89.2379556
92.8300407
92.9014599
88.2636095
87.862269
89.2603733
92.8368994
90.2589015
88.1277637
89.8852089
92.6873077
92.5857539
88.2120303
87.9030912
89.5660713
92.7761163
92.3891732
88.1218185
87.7888658
89.5104138
92.7836834
89.8900344
88.0045341
90.1463511
92.6534233
89.6828226
88.0410476
90.444815
92.5987701
89.5489496
88.0720539
90.7070244
92.5821033
91.5220698
88.0249413
87.7742497
90.2354272
92.6420932
89.3091804
87.9364913
90.7893776
92.5593122
89.1574912
88.0094649
91.1127752
92.5338969
91.2457541
87.9838007
87.7775175
90.8250235
92.5561868
88.9664033
87.9082998
91.1505176
92.5032769
88.8561011
87.9610941
90.8109152
92.4147241
92.8577841
88.5390992
87.9274132
88.3386008
92.9269351
92.215879
91.6686067
88.404915
88.1203736
87.8398533
87.8431665
92.9777792
92.3570499
89.9596317
87.9846282
88.0699879
92.8495518
92.3352394
89.6967509
87.9118112
88.098456
92.8756357
92.3821654
88.5921236
87.7743143
91.5762294
92.5249463
89.7513443
87.9561939
88.0681406
92.8662498
92.3557115
88.626937
87.863228
92.1224546
92.4625258
89.917541
87.942567
87.9381191
92.8396082
92.3442935
89.9776658
87.9493868
87.9690115
92.7801131
92.3582307
89.6422165
87.8205882
87.8536626
92.8083616
92.3667992
89.6339932
87.8607122
87.9442874
92.7613072
92.3312329
89.7878919
87.9220091
88.0082782
92.7211129
92.3077547
89.8769826
87.9674288
88.0662401
92.6754532
92.2756547
89.6220951
88.031737
87.849241
88.1534909
92.7015027
92.6056305
88.0813057
87.948774
92.9807008
92.3608149
89.9150976
87.9719496
88.0863577
92.6236741
92.338191
89.178446
87.8467034
88.7968032
92.6253235
91.4058749
87.9987406
88.2439522
92.6064846
92.3563823
88.421344
87.7277118
91.0288119
92.6602467
88.2556768
88.0524892
92.8934833
92.3886784
90.1577641
87.8388647
87.8032916
92.9499822
92.5196299
88.1397611
88.0277026
92.8133862
92.3945685
89.6931012
87.8201338
87.8373903
92.7162542
92.5270589
88.1340731
88.0632038
92.7311072
92.4060953
89.4928146
87.75299
87.7653507
92.7347477
92.5533423
88.0612283
87.9839981
92.7558082
92.563339
88.095245
88.0733811
92.6058702
92.402218
88.6680714
87.8556749
89.6174827
92.5441308
89.845204
87.9710199
90.435569
92.9061354
88.3248378
88.096899
92.6583242
92.5420192
88.0767969
88.0716482
92.5843086
92.3922611
89.2365713
87.8367201
88.0433476
92.5682674
92.3557438
88.6976256
87.9109025
89.9211367
91.6142045
88.2473189
88.1482676
92.6162168
92.5267078
88.0819889
88.0731115
92.569165
92.4047199
89.1534641
87.8410175
88.0938588
92.6184676
92.5280278
88.1126906
88.0923246
92.5612155
92.4325243
89.0169908
87.7816687
88.0289631
92.6497151
92.575269
88.1274337
88.1310859
92.5461133
92.4403636
89.0287945
87.7291761
87.9017505
92.7098877
92.6154192
88.0819119
88.0722599
92.6376234
92.6331891
88.1217088
88.1547212
92.5254143
92.432989
89.0706447
87.7660507
87.9987776
92.7063693
92.6470908
88.0842566
88.1047502
92.6326334
92.778275
88.1165229
88.270337
92.5690506
92.977806
88.2113389
88.311801
92.5607492
92.3148152
89.7011833
88.1069013
87.8676955
88.062709
92.7079343
92.4785773
89.1093681
87.7940639
88.0739792
92.7892796
93.0085001
88.1531981
88.2606676
92.6437226
92.4459169
89.1430121
87.8136284
88.0790787
92.843015
92.9983242
88.1153302
88.279314
92.7581413
92.3685649
88.1087912
88.6598501
92.7133174
91.1975593
88.1423189
88.9561162
92.5928457
92.5506686
88.6165966
87.7618496
88.1320517
92.9361254
92.412135
88.0779452
88.3240589
92.8569602
)
;

boundaryField
{
    closed
    {
        type            calculated;
        value           nonuniform List<scalar> 0();
    }
    open
    {
        type            calculated;
        value           nonuniform List<scalar> 0();
    }
    sides
    {
        type            empty;
    }
    procBoundary1to0
    {
        type            processor;
        value           uniform 90.4055425;
    }
    procBoundary1to2
    {
        type            processor;
        value           uniform 92.0089104;
    }
}


// ************************************************************************* //
