/*--------------------------------*- C++ -*----------------------------------*\
| =========                 |                                                 |
| \\      /  F ield         | OpenFOAM: The Open Source CFD Toolbox           |
|  \\    /   O peration     | Version:  2306                                  |
|   \\  /    A nd           | Website:  www.openfoam.com                      |
|    \\/     M anipulation  |                                                 |
\*---------------------------------------------------------------------------*/
FoamFile
{
    version     2.0;
    format      ascii;
    arch        "LSB;label=32;scalar=64";
    class       volScalarField;
    location    "0.00058";
    object      T;
}
// * * * * * * * * * * * * * * * * * * * * * * * * * * * * * * * * * * * * * //

dimensions      [0 0 0 1 0 0 0];

internalField   nonuniform List<scalar> 
531
(
323.562368
322.619354
334.705718
339.910799
329.525683
325.852521
336.38898
339.465722
330.508094
323.31885
322.767252
336.192161
339.963145
329.69999
325.857844
337.009599
339.539719
330.573414
323.614417
323.516427
337.922436
339.647819
330.055364
323.169062
322.97315
339.083137
339.785453
329.527392
323.725595
326.689772
338.67674
340.126746
329.057978
324.682121
337.836355
339.62896
330.0837
323.311319
323.438361
339.250852
339.885445
329.401901
323.783374
327.439626
339.176484
340.000487
329.362694
323.525218
327.682298
338.865963
339.949231
327.020372
323.956746
338.41947
339.666905
329.589993
323.236556
325.660272
339.237763
339.866609
329.667495
323.867324
326.411287
339.356352
339.912221
329.370074
322.807378
326.222745
339.016386
339.914573
327.472942
326.287167
339.163577
339.82061
329.219604
322.620093
326.207285
339.285946
340.079047
329.190946
323.908218
331.415739
336.766469
329.130598
328.409067
339.488126
340.011973
329.193415
323.287869
327.180507
339.478595
339.997529
329.227435
323.384948
328.878074
339.113313
339.41675
326.051849
326.100997
339.480388
339.851057
328.985454
322.695286
329.40041
339.015626
338.677709
325.859382
326.564749
339.149667
338.979157
326.324742
326.966319
339.476104
339.915063
329.118676
323.683083
329.326868
338.974924
338.722866
327.632209
328.051126
339.003821
340.307507
331.545071
329.573715
326.496199
322.699293
327.370806
338.718846
337.388334
326.015787
327.911375
338.898179
337.27017
327.551862
329.443877
339.152981
339.819697
329.102604
323.275496
328.522695
338.559599
336.799916
327.593409
329.417262
339.044172
339.648409
328.977124
323.200181
328.407578
338.441424
339.719965
329.326212
323.389008
328.556887
338.277123
335.980228
326.053993
329.066961
338.541998
334.983914
326.230607
328.842814
338.474289
334.398229
327.704431
328.960354
338.541881
339.678669
328.984144
323.222458
328.732603
338.067692
333.788049
327.743578
328.845889
338.561663
339.143644
328.738272
322.437283
328.560816
337.994595
333.17316
327.564505
328.702601
338.48834
339.120437
328.744936
322.749729
328.42818
338.013566
332.556267
327.73639
328.686017
338.489113
338.830564
328.749378
323.065854
328.344422
338.106225
331.952145
327.859983
328.681941
338.464005
339.340961
328.880998
324.896376
328.635429
338.275959
337.83762
329.382074
324.852368
322.466302
328.289249
338.230265
330.941817
327.113642
328.875027
338.553782
338.931374
328.923251
324.198647
328.726291
338.271572
337.962848
328.993511
323.092591
328.591883
338.478349
330.440311
327.076217
329.493037
338.79801
336.2793
328.712497
323.614617
329.017978
338.497741
335.697947
327.406144
322.276055
328.866798
338.737439
329.844334
325.531402
329.911051
339.14648
329.632781
326.035623
330.553823
339.245774
329.527975
326.312695
331.159495
339.082706
333.269289
325.838789
322.205243
330.122
339.21744
329.23676
324.592939
331.337093
339.439446
329.205186
325.445038
332.165794
339.210125
332.59156
325.121512
322.317853
331.449145
339.531906
329.120452
324.260056
332.266137
339.662637
329.093722
324.988695
331.418283
339.761384
338.369454
328.575962
323.518314
328.815351
338.025881
340.306963
333.654134
329.086205
327.030305
322.998483
323.029795
338.475014
339.884807
330.095395
325.134323
326.373996
338.771188
340.066448
329.692292
323.934627
326.856937
338.456478
340.238885
329.173952
322.367873
333.438909
339.437267
329.7861
324.234653
326.219188
338.466716
340.149375
329.413972
323.6717
335.111323
339.645743
330.06423
324.324935
324.322825
338.904212
339.874064
330.147962
324.686703
324.874026
339.146777
339.976694
329.668509
322.894069
323.374831
339.146928
339.963722
329.650669
323.4546
324.677323
339.220882
340.023181
329.83082
324.325212
325.580818
339.263434
340.071122
329.969404
324.962936
326.385219
339.285092
340.314601
329.752816
326.254428
323.173177
327.342089
339.11245
339.84489
326.517713
324.453133
338.551166
339.756466
330.052679
324.968545
326.587538
339.608093
340.092311
329.090812
323.197032
328.801143
339.2359
332.966635
325.114527
328.920241
339.344966
340.175568
329.136545
321.370813
331.977219
339.611094
329.12191
325.72415
338.93939
339.508922
330.459789
322.790555
322.532723
338.544003
339.984189
327.105418
325.513766
338.980653
339.555374
329.841689
322.541397
322.90233
339.225619
339.964303
327.110478
325.915505
339.196847
339.504551
329.641352
321.538958
321.92848
339.247965
339.894197
326.001778
324.70106
338.970219
339.860154
326.617234
326.088301
339.617122
339.881195
328.92644
323.142907
329.331127
339.447811
329.697583
324.333559
330.674701
338.764125
329.123696
326.055684
339.578613
340.001036
326.473783
326.114815
339.782276
339.72329
329.267205
322.798474
326.141239
339.875097
340.120134
329.049472
324.060789
329.792779
333.529857
329.064521
327.224343
339.717664
340.140418
326.485778
326.151206
339.850178
339.763934
329.250645
322.740519
326.638448
339.476117
340.058986
326.758829
326.331232
339.880514
339.709399
329.190774
321.822432
325.696331
339.426669
339.913294
326.876162
326.754072
339.887728
339.618724
329.236991
321.013612
323.886758
339.373746
339.800971
326.114815
325.791469
339.462228
339.678359
326.807701
327.05098
340.00483
339.703233
329.186118
321.563309
325.282665
339.371079
339.762542
326.181423
326.179285
339.564043
339.261315
326.726091
328.44464
339.698972
338.463669
328.032632
329.415549
339.593011
340.217997
329.871212
326.953622
323.179074
326.054865
339.565798
339.717969
329.220652
321.840317
326.184974
339.050969
338.408813
327.025264
328.572477
339.514624
339.779713
329.169034
322.105111
326.318205
338.86085
338.477065
326.455596
328.936792
339.059473
335.766856
326.545353
329.036173
339.236944
332.42466
327.123326
328.982512
339.453407
339.632373
328.760854
321.250113
327.438718
338.531666
335.921957
326.019691
329.223411
338.725532
)
;

boundaryField
{
    closed
    {
        type            fixedValue;
        value           nonuniform List<scalar> 0();
    }
    open
    {
        type            zeroGradient;
    }
    sides
    {
        type            empty;
    }
    procBoundary1to0
    {
        type            processor;
        value           uniform 330.887552;
    }
    procBoundary1to2
    {
        type            processor;
        value           uniform 334.671907;
    }
}


// ************************************************************************* //
