/*--------------------------------*- C++ -*----------------------------------*\
| =========                 |                                                 |
| \\      /  F ield         | OpenFOAM: The Open Source CFD Toolbox           |
|  \\    /   O peration     | Version:  2306                                  |
|   \\  /    A nd           | Website:  www.openfoam.com                      |
|    \\/     M anipulation  |                                                 |
\*---------------------------------------------------------------------------*/
FoamFile
{
    version     2.0;
    format      ascii;
    arch        "LSB;label=32;scalar=64";
    class       volScalarField;
    location    "0.00054";
    object      H;
}
// * * * * * * * * * * * * * * * * * * * * * * * * * * * * * * * * * * * * * //

dimensions      [0 0 0 0 0 0 0];

internalField   nonuniform List<scalar> 
530
(
4.53216466e-05
4.43628946e-05
4.33717741e-05
4.24755317e-05
4.15004116e-05
4.06634626e-05
3.97688334e-05
3.90612537e-05
3.82039697e-05
3.75449214e-05
3.67003066e-05
3.60866139e-05
3.52548639e-05
3.46828561e-05
3.38649604e-05
3.33304282e-05
3.25284213e-05
3.20266684e-05
3.12596067e-05
3.0779544e-05
3.00286947e-05
2.95831126e-05
2.89474127e-05
2.85383195e-05
2.79274476e-05
2.75216729e-05
2.69391848e-05
2.65391659e-05
2.59836835e-05
2.55894817e-05
2.50594204e-05
2.4671246e-05
2.41650058e-05
2.37830942e-05
2.32991604e-05
2.29237045e-05
2.24606859e-05
2.20918072e-05
2.16484415e-05
2.12861835e-05
2.08613268e-05
2.05056606e-05
2.01313732e-05
1.98287092e-05
1.9490472e-05
1.91930835e-05
1.88682772e-05
1.85761357e-05
1.82641658e-05
1.79772232e-05
1.76775309e-05
1.73957271e-05
1.71077828e-05
1.68310494e-05
1.65543478e-05
1.6282611e-05
1.60166692e-05
1.57498497e-05
1.5494206e-05
1.5232218e-05
1.49864327e-05
1.47291826e-05
1.44928384e-05
1.42402223e-05
1.40129262e-05
1.37648277e-05
1.35462117e-05
1.33025007e-05
1.30922227e-05
1.28527535e-05
1.26504971e-05
1.2415109e-05
1.22367642e-05
1.20455851e-05
1.18912358e-05
1.17029889e-05
1.15544444e-05
1.13690441e-05
1.12261914e-05
1.10398121e-05
1.08992901e-05
1.07133996e-05
1.0578606e-05
1.03948004e-05
1.02656488e-05
1.00837823e-05
9.96019944e-06
9.7801268e-06
9.6620462e-06
9.48820001e-06
9.37319943e-06
9.20105146e-06
9.08685068e-06
8.92052136e-06
8.80721967e-06
8.64638954e-06
8.53411064e-06
8.37844839e-06
8.26732329e-06
8.11650767e-06
8.00665961e-06
7.86039318e-06
7.75192594e-06
7.60994156e-06
7.50293263e-06
7.3649943e-06
7.25949303e-06
7.12539293e-06
7.02142263e-06
6.89099688e-06
6.78884752e-06
6.66246661e-06
6.56249122e-06
6.44000934e-06
6.34212664e-06
6.22333366e-06
6.12745877e-06
6.01215041e-06
5.91975055e-06
5.83676238e-06
5.76841056e-06
5.68787944e-06
5.62102564e-06
5.54283709e-06
5.47745224e-06
5.401493e-06
5.33755192e-06
5.26371153e-06
5.20017343e-06
5.1262907e-06
5.06282243e-06
4.99047604e-06
4.92786872e-06
4.85700608e-06
4.79528131e-06
4.72585718e-06
4.6650299e-06
4.59700502e-06
4.53708464e-06
4.4704237e-06
4.4114157e-06
4.34608554e-06
4.2879928e-06
4.22396146e-06
4.1667851e-06
4.10402128e-06
4.04776096e-06
3.98623399e-06
3.93088798e-06
3.87056786e-06
3.81613301e-06
3.75699039e-06
3.7034621e-06
3.6454684e-06
3.59284062e-06
3.5359679e-06
3.48423322e-06
3.4284542e-06
3.37760387e-06
3.3228918e-06
3.27291587e-06
3.21924445e-06
3.17013188e-06
3.11747513e-06
3.06921392e-06
3.01754606e-06
2.97012335e-06
2.9194187e-06
2.87282091e-06
2.82305377e-06
2.77726665e-06
2.72841126e-06
2.68341995e-06
2.63545041e-06
2.59123945e-06
2.54412981e-06
2.50068304e-06
2.45440733e-06
2.41170782e-06
2.36624018e-06
2.32427014e-06
2.27958485e-06
2.2383256e-06
2.19439689e-06
2.15382912e-06
2.11063066e-06
2.07073489e-06
2.02823923e-06
1.98899619e-06
1.94717519e-06
1.90856519e-06
1.86739282e-06
1.82930879e-06
1.78876665e-06
1.75130443e-06
1.7116314e-06
1.67480257e-06
1.63596521e-06
1.61005262e-06
1.58967702e-06
1.57065732e-06
1.55056536e-06
1.53186275e-06
1.51228682e-06
1.49430639e-06
1.4752878e-06
1.45755072e-06
1.4388486e-06
1.42135647e-06
1.40296379e-06
1.38571862e-06
1.36762879e-06
1.35063228e-06
1.3328399e-06
1.3160934e-06
1.29859412e-06
1.28209864e-06
1.26488886e-06
1.2486452e-06
1.23172184e-06
1.21573055e-06
1.19909096e-06
1.18335244e-06
1.16699428e-06
1.15150878e-06
1.13543002e-06
1.12019769e-06
1.10439652e-06
1.08941746e-06
1.07389224e-06
1.05916649e-06
1.04391574e-06
1.02944331e-06
1.01446566e-06
1.00024653e-06
9.85540729e-07
9.71574829e-07
9.57139684e-07
9.43426897e-07
9.29261303e-07
9.15801445e-07
9.01904358e-07
8.88697164e-07
8.75067601e-07
8.62112709e-07
8.48749739e-07
8.36046677e-07
8.22949418e-07
8.1049759e-07
7.976652e-07
7.85463877e-07
7.72895547e-07
7.60943857e-07
7.48638805e-07
7.36935725e-07
7.24893188e-07
7.13437537e-07
7.0165676e-07
6.90447197e-07
6.78927426e-07
6.67962449e-07
6.56702919e-07
6.45980861e-07
6.34980784e-07
6.24499818e-07
6.13758375e-07
6.03516513e-07
5.93032842e-07
5.8302794e-07
5.7280112e-07
5.63030886e-07
5.53059931e-07
5.43521928e-07
5.33805768e-07
5.24497422e-07
5.15034899e-07
5.05953506e-07
4.96743356e-07
4.87886096e-07
4.78926938e-07
4.70290878e-07
4.61581208e-07
4.53163315e-07
4.44701491e-07
4.36498641e-07
4.28282877e-07
4.20291866e-07
4.1232022e-07
4.04537775e-07
3.96808144e-07
3.89230932e-07
3.81741047e-07
3.74365686e-07
3.67113104e-07
3.59936172e-07
3.52918275e-07
3.45936322e-07
3.39150313e-07
3.32359868e-07
3.25802773e-07
3.19200353e-07
3.1286902e-07
3.06451141e-07
3.0034224e-07
2.94105426e-07
2.88215452e-07
2.82156241e-07
2.76481521e-07
2.70596475e-07
2.65133168e-07
2.59418885e-07
2.54162985e-07
2.48616106e-07
2.43563448e-07
2.38180671e-07
2.33326926e-07
2.28105019e-07
2.23445699e-07
2.18381518e-07
2.13911968e-07
2.09002474e-07
2.04717865e-07
1.99960152e-07
1.95855469e-07
1.91246784e-07
1.87316813e-07
1.82854591e-07
1.79093897e-07
1.74775793e-07
1.71178699e-07
1.6700262e-07
1.63563188e-07
1.59527327e-07
1.56239334e-07
1.523422e-07
1.49199123e-07
1.45439563e-07
1.42434571e-07
1.38811782e-07
1.35937743e-07
1.32451267e-07
1.29700767e-07
1.26350473e-07
1.23715857e-07
1.20501894e-07
1.17975331e-07
1.14898064e-07
1.1247163e-07
1.09531548e-07
1.07197337e-07
1.04394946e-07
1.02145194e-07
9.94808889e-08
9.73081124e-08
9.47820432e-08
9.26791773e-08
9.02911255e-08
8.82516371e-08
8.60009187e-08
8.40188604e-08
8.19042892e-08
7.99742453e-08
7.79941863e-08
7.61110671e-08
7.42635914e-08
7.24222993e-08
7.07053848e-08
6.89005777e-08
6.73121451e-08
6.55388991e-08
6.40761043e-08
6.23349144e-08
6.09904751e-08
5.93716562e-08
5.80762867e-08
5.65411015e-08
5.53284374e-08
5.38217343e-08
5.2623485e-08
5.12303755e-08
5.0056076e-08
4.87636544e-08
4.76222325e-08
4.64175278e-08
4.53153051e-08
4.41876882e-08
4.31286298e-08
4.20697593e-08
4.10560857e-08
4.00593823e-08
3.90920786e-08
3.81522498e-08
3.72314275e-08
3.6344121e-08
3.54692696e-08
3.46308325e-08
3.38009973e-08
3.30083073e-08
3.2222219e-08
3.1472563e-08
3.07287353e-08
3.00197177e-08
2.93165236e-08
2.86459967e-08
2.79817264e-08
2.7347736e-08
2.6720643e-08
2.61213867e-08
2.55297212e-08
2.49635165e-08
2.44055512e-08
2.38708118e-08
2.33448591e-08
2.28400779e-08
2.2344502e-08
2.18682385e-08
2.1401463e-08
2.09523352e-08
2.05128471e-08
2.00895257e-08
1.96758771e-08
1.92770819e-08
1.88878899e-08
1.85123876e-08
1.81463334e-08
1.7792936e-08
1.74487628e-08
1.71163269e-08
1.67928375e-08
1.64802642e-08
1.61763184e-08
1.58825523e-08
1.55970648e-08
1.53210935e-08
1.50530313e-08
1.47938851e-08
1.45422654e-08
1.42990158e-08
1.40629042e-08
1.38346628e-08
1.36131721e-08
1.33990887e-08
1.31913779e-08
1.29906382e-08
1.27959122e-08
1.26077354e-08
1.2425244e-08
1.22488807e-08
1.20779183e-08
1.19126491e-08
1.17525526e-08
1.15976879e-08
1.1447675e-08
1.12970842e-08
1.11416191e-08
1.0980869e-08
1.08161638e-08
1.0646412e-08
1.04740047e-08
1.02970965e-08
1.01188326e-08
9.93774461e-09
9.75504514e-09
9.57484189e-09
9.38672095e-09
9.21580044e-09
9.02847568e-09
9.02831065e-09
9.02814965e-09
9.02801189e-09
9.02789158e-09
9.02778964e-09
9.02770479e-09
9.02763577e-09
9.02758088e-09
9.02753844e-09
9.02750648e-09
9.02748318e-09
9.02746673e-09
9.02745557e-09
9.02744815e-09
9.02744374e-09
9.02744128e-09
9.02743966e-09
9.02743866e-09
9.02743817e-09
9.02743793e-09
9.02743782e-09
9.02743777e-09
9.02743776e-09
9.02743775e-09
9.02743775e-09
9.02743775e-09
9.02743774e-09
9.02743774e-09
9.02743774e-09
9.02743774e-09
9.02743774e-09
9.02743774e-09
9.02743774e-09
9.02743774e-09
9.02743774e-09
9.02743774e-09
9.02743774e-09
9.02743774e-09
9.02743774e-09
9.02743774e-09
9.02743774e-09
9.02743774e-09
9.02743774e-09
9.02743774e-09
9.02743774e-09
9.02743774e-09
9.02743774e-09
9.02743774e-09
9.02743774e-09
9.02743774e-09
9.02743774e-09
9.02743774e-09
9.02743774e-09
9.02743774e-09
9.02743774e-09
9.02743774e-09
9.02743774e-09
9.02743774e-09
9.02743774e-09
9.02743774e-09
9.02743774e-09
9.02743774e-09
9.02743774e-09
)
;

boundaryField
{
    closed
    {
        type            calculated;
        value           nonuniform List<scalar> 0();
    }
    open
    {
        type            calculated;
        value           uniform 9.02743774e-09;
    }
    sides
    {
        type            empty;
    }
    procBoundary5to4
    {
        type            processor;
        value           uniform 4.63302307e-05;
    }
}


// ************************************************************************* //
