/*--------------------------------*- C++ -*----------------------------------*\
| =========                 |                                                 |
| \\      /  F ield         | OpenFOAM: The Open Source CFD Toolbox           |
|  \\    /   O peration     | Version:  2306                                  |
|   \\  /    A nd           | Website:  www.openfoam.com                      |
|    \\/     M anipulation  |                                                 |
\*---------------------------------------------------------------------------*/
FoamFile
{
    version     2.0;
    format      ascii;
    arch        "LSB;label=32;scalar=64";
    class       volScalarField;
    location    "0.00054";
    object      H2O;
}
// * * * * * * * * * * * * * * * * * * * * * * * * * * * * * * * * * * * * * //

dimensions      [0 0 0 0 0 0 0];

internalField   nonuniform List<scalar> 
530
(
0.141648564
0.14168765
0.141714605
0.141747124
0.141769529
0.141795809
0.141813301
0.141832988
0.141845772
0.141859642
0.141868008
0.1418763
0.141880372
0.141883278
0.141883218
0.141880872
0.141876897
0.141869399
0.141862833
0.141849522
0.141840581
0.141819766
0.141809044
0.141781338
0.141769486
0.141735908
0.141722372
0.141683246
0.141667814
0.141623558
0.141606093
0.141557071
0.141537491
0.141484029
0.141462287
0.141404684
0.141380759
0.141319289
0.141293183
0.141228102
0.141199835
0.141131383
0.141100862
0.141029028
0.140996273
0.140921406
0.140886535
0.140808823
0.140771873
0.140691496
0.140652514
0.140569643
0.140528683
0.140443484
0.140400604
0.140313239
0.140268501
0.140179126
0.140132595
0.140041367
0.139993109
0.139900182
0.139850262
0.139755791
0.139704274
0.139608414
0.139555364
0.139458269
0.13940375
0.139305572
0.139249651
0.139150535
0.139093322
0.13899346
0.138934973
0.138834353
0.138774647
0.138673347
0.138612556
0.138511253
0.138450152
0.138348531
0.138286805
0.138184464
0.13812247
0.138019225
0.137957357
0.137852998
0.137791602
0.137692178
0.137629696
0.137527279
0.137461083
0.137361465
0.137292209
0.137194919
0.137123218
0.137027882
0.136954265
0.136860608
0.13678551
0.136693336
0.136617106
0.136526275
0.136449193
0.13635961
0.136281906
0.136193504
0.136115375
0.136028106
0.135949692
0.135863436
0.13578482
0.135699539
0.13562087
0.135536558
0.135457975
0.135374632
0.135296287
0.135214336
0.135136608
0.135055574
0.134978234
0.134898123
0.134821258
0.134742081
0.134665771
0.134587542
0.134511992
0.134435018
0.134360377
0.134284488
0.134210713
0.134135921
0.134063062
0.133989379
0.13391748
0.13384492
0.133774022
0.133702596
0.133632736
0.133562459
0.133493669
0.133424553
0.133356863
0.133288922
0.133222359
0.133155605
0.133090192
0.133024637
0.132960395
0.13289605
0.132832996
0.132769872
0.132708023
0.132646128
0.132585497
0.132524841
0.132465439
0.132406029
0.132347865
0.132289707
0.132232789
0.132175889
0.132120222
0.132064583
0.132010173
0.131955798
0.131902646
0.131849538
0.131797644
0.131745804
0.131695169
0.131644596
0.131595217
0.131545911
0.131497786
0.131449744
0.131402869
0.131356088
0.131310459
0.131264934
0.131220545
0.131176271
0.131133116
0.131090086
0.131048158
0.131006366
0.130965658
0.130925097
0.130885598
0.130846261
0.13080809
0.130770158
0.130733226
0.130696476
0.130660704
0.130625135
0.130590984
0.130557399
0.130524667
0.130492218
0.130460578
0.130429116
0.130398293
0.130367803
0.130338073
0.130308683
0.130280023
0.130251709
0.130224095
0.130196834
0.130170243
0.130144011
0.130118421
0.130093194
0.130068581
0.130044334
0.130020674
0.129997383
0.129974652
0.129952293
0.129930468
0.129909015
0.129888073
0.129867502
0.129847418
0.129827704
0.129808456
0.129789575
0.129771139
0.129753065
0.129735418
0.129718127
0.129701246
0.129684715
0.129668576
0.12965278
0.129637363
0.129622278
0.129607559
0.129593162
0.129579119
0.129565387
0.129551997
0.129538908
0.129526151
0.129513681
0.129501536
0.129489663
0.129478109
0.129466812
0.129455827
0.129445086
0.12943465
0.129424444
0.129414537
0.129404844
0.129395447
0.12938625
0.129377342
0.12936862
0.129360184
0.129351919
0.129343934
0.129336108
0.129328558
0.129321152
0.129314018
0.129307017
0.129300281
0.129293667
0.129287312
0.129281069
0.129275079
0.129269191
0.12926355
0.129258002
0.129252693
0.12924747
0.129242478
0.129237566
0.129232876
0.129228261
0.129223858
0.129219527
0.129215398
0.129211337
0.129207467
0.129203665
0.129200042
0.129196485
0.129193095
0.129189772
0.129186604
0.129183503
0.129180545
0.129177655
0.129174896
0.129172206
0.129169635
0.129167135
0.129164741
0.129162421
0.129160194
0.129158045
0.129155976
0.129153987
0.129152067
0.12915023
0.129148451
0.129146756
0.129145109
0.12914355
0.129142027
0.129140593
0.129139187
0.129137873
0.129136577
0.129135374
0.129134181
0.129133082
0.129131985
0.129130985
0.129129978
0.129129069
0.129128147
0.129127323
0.12912648
0.129125735
0.129124966
0.129124295
0.129123595
0.129122993
0.129122357
0.129121818
0.129121242
0.129120763
0.129120241
0.129119817
0.129119347
0.129118973
0.129118551
0.129118223
0.129117846
0.12911756
0.129117224
0.129116977
0.12911668
0.129116467
0.129116207
0.129116024
0.129115799
0.129115643
0.129115451
0.129115319
0.129115158
0.129115046
0.129114914
0.12911482
0.129114715
0.129114636
0.129114557
0.129114492
0.129114435
0.129114383
0.129114347
0.129114306
0.129114288
0.129114257
0.129114255
0.129114232
0.129114243
0.129114245
0.129114258
0.129114271
0.129114296
0.12911431
0.129114337
0.129114363
0.129114394
0.129114429
0.129114465
0.129114507
0.129114549
0.129114594
0.129114641
0.129114691
0.129114742
0.129114794
0.129114849
0.129114903
0.129114961
0.129115017
0.129115077
0.129115135
0.129115197
0.129115256
0.129115318
0.129115378
0.129115441
0.129115501
0.129115565
0.129115625
0.129115689
0.129115749
0.129115812
0.129115872
0.129115934
0.129115993
0.129116054
0.129116113
0.129116173
0.129116231
0.12911629
0.129116347
0.129116404
0.12911646
0.129116516
0.12911657
0.129116624
0.129116677
0.12911673
0.129116781
0.129116833
0.129116882
0.129116932
0.12911698
0.129117028
0.129117075
0.129117121
0.129117166
0.12911721
0.129117254
0.129117296
0.129117338
0.129117379
0.129117419
0.129117459
0.129117497
0.129117535
0.129117572
0.129117608
0.129117644
0.129117679
0.129117712
0.129117746
0.129117778
0.12911781
0.129117841
0.129117871
0.129117901
0.129117929
0.129117959
0.129117989
0.129118021
0.129118054
0.129118089
0.129118124
0.129118162
0.129118199
0.129118238
0.129118278
0.129118318
0.129118362
0.1291184
0.129118443
0.129118382
0.129118322
0.129118268
0.12911822
0.129118177
0.12911814
0.129118108
0.129118081
0.12911806
0.129118042
0.129118029
0.129118019
0.129118011
0.129118006
0.129118002
0.129118
0.129117998
0.129117997
0.129117997
0.129117996
0.129117996
0.129117996
0.129117996
0.129117996
0.129117996
0.129117996
0.129117996
0.129117996
0.129117996
0.129117996
0.129117996
0.129117996
0.129117996
0.129117996
0.129117996
0.129117996
0.129117996
0.129117996
0.129117996
0.129117996
0.129117996
0.129117996
0.129117996
0.129117996
0.129117996
0.129117996
0.129117996
0.129117996
0.129117996
0.129117996
0.129117996
0.129117996
0.129117996
0.129117996
0.129117996
0.129117996
0.129117996
0.129117996
0.129117996
0.129117996
0.129117996
0.129117996
0.129117996
)
;

boundaryField
{
    closed
    {
        type            calculated;
        value           nonuniform List<scalar> 0();
    }
    open
    {
        type            calculated;
        value           uniform 0.129117996;
    }
    sides
    {
        type            empty;
    }
    procBoundary5to4
    {
        type            processor;
        value           uniform 0.141616956;
    }
}


// ************************************************************************* //
