/*--------------------------------*- C++ -*----------------------------------*\
| =========                 |                                                 |
| \\      /  F ield         | OpenFOAM: The Open Source CFD Toolbox           |
|  \\    /   O peration     | Version:  2306                                  |
|   \\  /    A nd           | Website:  www.openfoam.com                      |
|    \\/     M anipulation  |                                                 |
\*---------------------------------------------------------------------------*/
FoamFile
{
    version     2.0;
    format      ascii;
    arch        "LSB;label=32;scalar=64";
    class       volScalarField;
    location    "0.00024";
    object      prefDPV_H2;
}
// * * * * * * * * * * * * * * * * * * * * * * * * * * * * * * * * * * * * * //

dimensions      [1 -1 -1 0 0 0 0];

internalField   nonuniform List<scalar> 
3810
(
-3.05254319e-05
-3.09188214e-05
-3.15304076e-05
-3.15254987e-05
-3.15298164e-05
-3.15177307e-05
-3.15284692e-05
-3.15089607e-05
-3.15260164e-05
-3.14990612e-05
-3.04762681e-05
-3.02895195e-05
-3.06512087e-05
-3.046058e-05
-3.08533514e-05
-3.15158921e-05
-3.15411103e-05
-3.15153419e-05
-3.15325066e-05
-3.06273623e-05
-3.07277134e-05
-3.15316864e-05
-3.1559651e-05
-3.15211928e-05
-3.08856473e-05
-3.04683515e-05
-3.07330196e-05
-3.05635677e-05
-3.08872098e-05
-3.15412348e-05
-3.15448668e-05
-3.15354971e-05
-3.15304011e-05
-3.0624564e-05
-3.05755596e-05
-3.07248991e-05
-3.0737503e-05
-3.07730553e-05
-3.09109581e-05
-3.15546688e-05
-3.15022171e-05
-3.08115552e-05
-3.15165904e-05
-3.15247913e-05
-3.0307527e-05
-3.05874633e-05
-3.15394015e-05
-3.15209673e-05
-3.04457848e-05
-3.0508834e-05
-3.06553626e-05
-3.09014233e-05
-3.15488975e-05
-3.15356688e-05
-3.15467366e-05
-3.15185657e-05
-3.07495547e-05
-3.04808085e-05
-3.09047922e-05
-3.15209207e-05
-3.15143254e-05
-3.03814589e-05
-3.06158724e-05
-3.15214265e-05
-3.14883063e-05
-3.03240186e-05
-3.03176147e-05
-3.06481101e-05
-3.05082873e-05
-3.09320813e-05
-3.14912487e-05
-3.14794821e-05
-3.03904441e-05
-3.07031116e-05
-3.14962766e-05
-3.14956654e-05
-3.149313e-05
-3.14740727e-05
-3.14867361e-05
-3.14465001e-05
-3.01347373e-05
-2.98679326e-05
-3.09498099e-05
-3.14689159e-05
-3.14806151e-05
-3.14352706e-05
-3.01844259e-05
-3.02311305e-05
-3.14785286e-05
-3.1462019e-05
-3.14740725e-05
-3.14457868e-05
-3.02789519e-05
-3.07033765e-05
-3.14861546e-05
-3.1495509e-05
-3.14739467e-05
-3.03480091e-05
-3.03455157e-05
-3.06142999e-05
-3.09305532e-05
-3.15201973e-05
-3.15268061e-05
-3.15074794e-05
-3.04583925e-05
-3.03779562e-05
-3.09123209e-05
-3.15211862e-05
-3.15126897e-05
-3.06335167e-05
-3.06351463e-05
-3.09306383e-05
-3.0922075e-05
-3.15207708e-05
-3.15193717e-05
-3.07827625e-05
-3.08522094e-05
-3.15201537e-05
-3.15162654e-05
-3.055636e-05
-3.09276799e-05
-3.15160827e-05
-3.15236006e-05
-3.15060401e-05
-3.04606971e-05
-3.04581493e-05
-3.06528587e-05
-3.09194522e-05
-3.15134587e-05
-3.15101862e-05
-3.15071549e-05
-3.14990779e-05
-3.0146462e-05
-3.01442849e-05
-3.05478223e-05
-3.0549618e-05
-3.06913466e-05
-3.07603776e-05
-3.10680474e-05
-3.15177534e-05
-3.1497835e-05
-3.03004735e-05
-3.0272875e-05
-3.09124516e-05
-3.14950695e-05
-3.15285924e-05
-3.14793268e-05
-3.0397538e-05
-3.01599029e-05
-3.09087189e-05
-3.14941969e-05
-3.1528542e-05
-3.14895717e-05
-3.07534687e-05
-3.09363137e-05
-3.15274084e-05
-3.15201054e-05
-3.15235126e-05
-3.04252271e-05
-3.03779637e-05
-3.09151159e-05
-3.10326685e-05
-3.15378538e-05
-3.15245826e-05
-3.08631425e-05
-3.09233691e-05
-3.15345231e-05
-3.15160795e-05
-3.15216835e-05
-3.15070739e-05
-3.01202864e-05
-3.00988381e-05
-3.05676903e-05
-3.04288129e-05
-3.09255844e-05
-3.15288735e-05
-3.15250705e-05
-3.15499522e-05
-3.15179024e-05
-3.08983463e-05
-3.0383913e-05
-3.0562257e-05
-3.06453541e-05
-3.06467666e-05
-3.09591755e-05
-3.15219567e-05
-3.15262017e-05
-3.15076549e-05
-3.15320516e-05
-3.0518162e-05
-3.07877414e-05
-3.14993581e-05
-3.14892693e-05
-3.15070571e-05
-3.01448553e-05
-3.01157072e-05
-3.05711962e-05
-3.06113188e-05
-3.06339632e-05
-3.09273827e-05
-3.15426079e-05
-3.1520097e-05
-3.15549075e-05
-3.15196918e-05
-3.08227204e-05
-3.04359232e-05
-3.07111768e-05
-3.06563789e-05
-3.08882943e-05
-3.15230141e-05
-3.15879162e-05
-3.15378609e-05
-3.08834896e-05
-3.05275252e-05
-3.09436621e-05
-3.09442639e-05
-3.0462795e-05
-3.07196879e-05
-3.15396009e-05
-3.15176888e-05
-3.151901e-05
-3.15154908e-05
-3.05859285e-05
-3.02706672e-05
-3.05680443e-05
-3.06118878e-05
-3.04995911e-05
-3.09111377e-05
-3.15118435e-05
-3.15633008e-05
-3.14930353e-05
-3.15664839e-05
-3.14972211e-05
-3.07793925e-05
-3.05473562e-05
-3.1010476e-05
-3.15091225e-05
-3.15500546e-05
-3.15325443e-05
-3.07369946e-05
-3.05503444e-05
-3.10632481e-05
-3.1512059e-05
-3.15329261e-05
-3.15236771e-05
-3.0757632e-05
-3.04797019e-05
-3.06211721e-05
-3.09175914e-05
-3.15221074e-05
-3.1527915e-05
-3.01383438e-05
-3.01344377e-05
-3.05565028e-05
-3.05855945e-05
-3.05939222e-05
-3.0937818e-05
-3.15328841e-05
-3.15144513e-05
-3.15503409e-05
-3.15111824e-05
-3.08994165e-05
-3.04361714e-05
-3.05589253e-05
-3.07753871e-05
-3.11344992e-05
-3.15149458e-05
-3.15402508e-05
-3.15289291e-05
-3.09032102e-05
-3.04738998e-05
-3.0886254e-05
-3.15754138e-05
-3.15523511e-05
-3.08785364e-05
-3.03874663e-05
-3.06239505e-05
-3.05718953e-05
-3.0893183e-05
-3.15071619e-05
-3.15333011e-05
-3.15404213e-05
-3.05825679e-05
-3.07563133e-05
-3.15103687e-05
-3.15059948e-05
-3.15274254e-05
-3.03821708e-05
-3.03761968e-05
-3.0762511e-05
-3.09237079e-05
-3.15137617e-05
-3.1536973e-05
-3.07407615e-05
-3.09296257e-05
-3.15084007e-05
-3.15101394e-05
-3.15242478e-05
-3.06073747e-05
-3.07916805e-05
-3.14984708e-05
-3.15047001e-05
-3.15034485e-05
-3.02012942e-05
-3.01861153e-05
-3.06190949e-05
-3.0552754e-05
-3.09114201e-05
-3.14849533e-05
-3.1540448e-05
-3.14914184e-05
-3.06053202e-05
-3.06101207e-05
-3.15355488e-05
-3.14900782e-05
-3.02814468e-05
-3.02651141e-05
-3.06221466e-05
-3.06321057e-05
-3.08409296e-05
-3.10561424e-05
-3.15083386e-05
-3.1504509e-05
-3.1493837e-05
-3.15145976e-05
-3.14810502e-05
-3.15141606e-05
-3.14820623e-05
-3.0386175e-05
-3.03794412e-05
-3.07056776e-05
-3.09294882e-05
-3.15282442e-05
-3.15122762e-05
-3.07297146e-05
-3.09377464e-05
-3.15363492e-05
-3.15036843e-05
-3.15294052e-05
-3.14947164e-05
-3.03647152e-05
-3.03565998e-05
-3.06813683e-05
-3.06018668e-05
-3.0910174e-05
-3.15256173e-05
-3.15285466e-05
-3.06626568e-05
-3.07515641e-05
-3.15388405e-05
-3.1533609e-05
-3.06752986e-05
-3.09105855e-05
-3.15264015e-05
-3.15287741e-05
-3.15152002e-05
-3.04720715e-05
-3.04190858e-05
-3.06302709e-05
-3.06759608e-05
-3.06597135e-05
-3.09358655e-05
-3.15577676e-05
-3.15075257e-05
-3.07578607e-05
-3.04394654e-05
-3.08968432e-05
-3.15320434e-05
-3.15493983e-05
-3.15177853e-05
-3.06266877e-05
-3.04300331e-05
-3.05307394e-05
-3.07850613e-05
-3.1549417e-05
-3.15193147e-05
-3.1533807e-05
-3.15127021e-05
-3.05252485e-05
-3.04112219e-05
-3.05790885e-05
-3.06238366e-05
-3.04533009e-05
-3.07895421e-05
-3.15084723e-05
-3.15154073e-05
-3.14748769e-05
-3.10716192e-05
-3.01832073e-05
-3.0596701e-05
-3.1504316e-05
-3.15266825e-05
-3.14790285e-05
-3.07015728e-05
-3.08005951e-05
-3.15501353e-05
-3.15571769e-05
-3.15464283e-05
-3.15671933e-05
-3.06114245e-05
-3.08328469e-05
-3.15570129e-05
-3.15792652e-05
-3.15432718e-05
-3.15830836e-05
-3.15288652e-05
-3.08824725e-05
-3.0472969e-05
-3.06560124e-05
-3.06068622e-05
-3.07483397e-05
-3.05872169e-05
-3.08985054e-05
-3.14630071e-05
-3.15366463e-05
-3.14632658e-05
-3.06741666e-05
-3.05263898e-05
-3.1538883e-05
-3.15167674e-05
-3.04857324e-05
-3.05095518e-05
-3.05777223e-05
-3.07896261e-05
-3.15312093e-05
-3.15507464e-05
-3.04659056e-05
-3.05379426e-05
-3.06008244e-05
-3.08917043e-05
-3.1521073e-05
-3.15516355e-05
-3.15180854e-05
-3.15463995e-05
-3.15082046e-05
-3.05583727e-05
-3.02245677e-05
-3.09052972e-05
-3.15161694e-05
-3.15336773e-05
-3.15052138e-05
-3.04195184e-05
-3.0303942e-05
-3.06357522e-05
-3.06887919e-05
-3.07590252e-05
-3.09301276e-05
-3.15263311e-05
-3.15289336e-05
-3.15275711e-05
-3.15156796e-05
-3.05398369e-05
-3.03963032e-05
-3.09102056e-05
-3.15197994e-05
-3.15109592e-05
-3.04147729e-05
-3.04165353e-05
-3.06672195e-05
-3.06326281e-05
-3.09144063e-05
-3.1522797e-05
-3.15403281e-05
-3.15155047e-05
-3.15316566e-05
-3.15065846e-05
-3.04134479e-05
-3.04092136e-05
-3.07256503e-05
-3.0761363e-05
-3.08234314e-05
-3.09152235e-05
-3.15463708e-05
-3.15211703e-05
-3.06913531e-05
-3.0845587e-05
-3.15509192e-05
-3.1507964e-05
-3.04820217e-05
-3.04762784e-05
-3.07419261e-05
-3.09311248e-05
-3.15379591e-05
-3.15023063e-05
-3.15263958e-05
-3.14926586e-05
-3.04749684e-05
-3.04679563e-05
-3.09185896e-05
-3.151587e-05
-3.15101312e-05
-3.06520104e-05
-3.09163081e-05
-3.15382519e-05
-3.14814852e-05
-3.04616653e-05
-3.0443703e-05
-3.09302812e-05
-3.14517067e-05
-3.1525663e-05
-3.14548402e-05
-3.0465942e-05
-3.04581279e-05
-3.07814935e-05
-3.08699501e-05
-3.11184294e-05
-3.15090537e-05
-3.14988407e-05
-3.10529048e-05
-3.07529495e-05
-3.09285027e-05
-3.15738191e-05
-3.1501236e-05
-3.08742696e-05
-3.0601633e-05
-3.09072939e-05
-3.14891925e-05
-3.08754084e-05
-3.03076579e-05
-3.0398984e-05
-3.05418644e-05
-3.06628456e-05
-3.10509227e-05
-3.15235015e-05
-3.15219917e-05
-3.15041441e-05
-3.15483479e-05
-3.1466896e-05
-3.08942483e-05
-3.05918108e-05
-3.06803762e-05
-3.09233439e-05
-3.100381e-05
-3.14971085e-05
-3.09625462e-05
-3.07446484e-05
-3.10290943e-05
-3.12310281e-05
-3.05237596e-05
-3.05253917e-05
-3.09093005e-05
-3.10162995e-05
-3.15340562e-05
-3.15133305e-05
-3.0998926e-05
-3.08161021e-05
-3.091815e-05
-3.15021321e-05
-3.09309899e-05
-3.05266495e-05
-3.05722236e-05
-3.08379184e-05
-3.09566304e-05
-3.15386846e-05
-3.11269789e-05
-3.08505139e-05
-3.0957485e-05
-3.15031439e-05
-3.15011988e-05
-3.11627364e-05
-3.05798575e-05
-3.06357651e-05
-3.10379889e-05
-3.15180152e-05
-3.14361096e-05
-3.06256133e-05
-3.06288569e-05
-3.07411194e-05
-3.0706232e-05
-3.06998662e-05
-3.06827899e-05
-3.06684555e-05
-3.07076435e-05
-3.07376039e-05
-3.09086887e-05
-3.1520575e-05
-3.15625791e-05
-3.14404916e-05
-3.08969783e-05
-3.09333495e-05
-3.15656053e-05
-3.14965102e-05
-3.15618457e-05
-3.1463702e-05
-3.07289157e-05
-3.05841989e-05
-3.09033973e-05
-3.15056951e-05
-3.15435264e-05
-3.14426788e-05
-3.04982599e-05
-3.04939654e-05
-3.0647317e-05
-3.09080564e-05
-3.15410314e-05
-3.15009442e-05
-3.15331734e-05
-3.14422732e-05
-3.04712535e-05
-3.04685874e-05
-3.06104147e-05
-3.09053182e-05
-3.15454257e-05
-3.15233636e-05
-3.15303537e-05
-3.14917497e-05
-3.0499228e-05
-3.04997948e-05
-3.06498344e-05
-3.05747265e-05
-3.05866028e-05
-3.06197835e-05
-3.05667852e-05
-3.09015166e-05
-3.15533217e-05
-3.1556263e-05
-3.15205728e-05
-3.15503397e-05
-3.14855243e-05
-3.07623644e-05
-3.09069348e-05
-3.15547875e-05
-3.15143601e-05
-3.15453214e-05
-3.15006469e-05
-3.06882444e-05
-3.06094097e-05
-3.07430702e-05
-3.06716491e-05
-3.07023148e-05
-3.07200707e-05
-3.06918401e-05
-3.09100249e-05
-3.15328693e-05
-3.15162692e-05
-3.05745247e-05
-3.03839866e-05
-3.08115525e-05
-3.15331419e-05
-3.15298709e-05
-3.15278245e-05
-3.15121772e-05
-3.15199917e-05
-3.14852456e-05
-3.04573591e-05
-3.05383648e-05
-3.15133896e-05
-3.14830749e-05
-3.05322069e-05
-3.05324372e-05
-3.05749698e-05
-3.07532628e-05
-3.15222479e-05
-3.14940984e-05
-3.04900241e-05
-3.04907174e-05
-3.04835904e-05
-3.07169888e-05
-3.15431583e-05
-3.1524728e-05
-3.15436821e-05
-3.1499674e-05
-3.06990741e-05
-3.08069402e-05
-3.1552845e-05
-3.15123996e-05
-3.15463934e-05
-3.14947631e-05
-3.07530935e-05
-3.05436385e-05
-3.06894548e-05
-3.04633804e-05
-3.05809955e-05
-3.02593422e-05
-3.06712386e-05
-3.15247259e-05
-3.1532215e-05
-3.15057383e-05
-3.15184117e-05
-3.14674958e-05
-3.04955405e-05
-3.05162704e-05
-3.15143578e-05
-3.14611452e-05
-3.05004446e-05
-3.05777173e-05
-3.15128407e-05
-3.14670299e-05
-3.04134423e-05
-3.04109206e-05
-3.03646167e-05
-3.06630104e-05
-3.1511015e-05
-3.15198253e-05
-3.1508232e-05
-3.15166312e-05
-3.15028361e-05
-3.15158394e-05
-3.14917666e-05
-3.15142655e-05
-3.14818798e-05
-3.02739462e-05
-3.01896433e-05
-3.04916931e-05
-3.0400635e-05
-3.06827298e-05
-3.05321115e-05
-3.0915466e-05
-3.15273914e-05
-3.15286321e-05
-3.15269391e-05
-3.15196992e-05
-3.05278007e-05
-3.04545441e-05
-3.07448925e-05
-3.15312227e-05
-3.15270564e-05
-3.05434278e-05
-3.06734023e-05
-3.15368626e-05
-3.15279246e-05
-3.05953659e-05
-3.06600526e-05
-3.15367111e-05
-3.1533442e-05
-3.065623e-05
-3.06887176e-05
-3.06686336e-05
-3.09243425e-05
-3.15334089e-05
-3.15332763e-05
-3.15275599e-05
-3.15382602e-05
-3.05787743e-05
-3.07692709e-05
-3.15346241e-05
-3.1518013e-05
-3.15361648e-05
-3.05494632e-05
-3.04328966e-05
-3.05558133e-05
-3.06117255e-05
-3.05178518e-05
-3.07929346e-05
-3.15226111e-05
-3.15214311e-05
-3.1525916e-05
-3.15176124e-05
-3.1530536e-05
-3.05521401e-05
-3.04713445e-05
-3.05069705e-05
-3.06762929e-05
-3.15273642e-05
-3.15268842e-05
-3.15272986e-05
-3.15339432e-05
-3.0445573e-05
-3.036143e-05
-3.05374043e-05
-3.06160861e-05
-3.06311759e-05
-3.09104431e-05
-3.15407631e-05
-3.15383774e-05
-3.15410528e-05
-3.15335726e-05
-3.09094999e-05
-3.05585193e-05
-3.06680579e-05
-3.15336323e-05
-3.15298446e-05
-3.04629271e-05
-3.02432887e-05
-3.05597244e-05
-3.0317628e-05
-3.06564653e-05
-3.15099241e-05
-3.15227213e-05
-3.15091598e-05
-3.15245949e-05
-3.15053066e-05
-3.05632585e-05
-3.04313082e-05
-3.15396766e-05
-3.14893107e-05
-3.05641064e-05
-3.03615393e-05
-3.06088785e-05
-3.03452307e-05
-3.06521337e-05
-3.15109126e-05
-3.15214731e-05
-3.15092717e-05
-3.15189584e-05
-3.15054292e-05
-3.15186528e-05
-3.14949324e-05
-3.04168941e-05
-3.04476437e-05
-3.15315681e-05
-3.15024433e-05
-3.15225582e-05
-3.05205528e-05
-3.03946577e-05
-3.04431634e-05
-3.05685293e-05
-3.15190623e-05
-3.15173035e-05
-3.15163567e-05
-3.15174194e-05
-3.04849919e-05
-3.04645226e-05
-3.04874982e-05
-3.05849006e-05
-3.15217502e-05
-3.15217443e-05
-3.06187236e-05
-3.06249997e-05
-3.05563968e-05
-3.07761489e-05
-3.15366342e-05
-3.15418865e-05
-3.1529929e-05
-3.15446103e-05
-3.15215882e-05
-3.06863993e-05
-3.04609559e-05
-3.07589526e-05
-3.05536217e-05
-3.09045705e-05
-3.15330884e-05
-3.15449021e-05
-3.15283645e-05
-3.1535287e-05
-3.06754534e-05
-3.0463652e-05
-3.06491297e-05
-3.04191068e-05
-3.05966586e-05
-3.15299314e-05
-3.15439865e-05
-3.15281696e-05
-3.15518745e-05
-3.04631099e-05
-3.04456389e-05
-3.06365743e-05
-3.08927096e-05
-3.15312413e-05
-3.15558283e-05
-3.15369294e-05
-3.15502386e-05
-3.07990261e-05
-3.06489374e-05
-3.07010989e-05
-3.06945343e-05
-3.15728214e-05
-3.15193249e-05
-3.08416177e-05
-3.04588294e-05
-3.08051264e-05
-3.15298802e-05
-3.15614636e-05
-3.15342832e-05
-3.07012802e-05
-3.04337529e-05
-3.06478017e-05
-3.0681613e-05
-3.06460925e-05
-3.09133686e-05
-3.15326504e-05
-3.15330317e-05
-3.15300654e-05
-3.15345548e-05
-3.15323043e-05
-3.15357407e-05
-3.15365326e-05
-3.15322809e-05
-3.0501569e-05
-3.02526619e-05
-3.05302039e-05
-3.05020198e-05
-3.07178879e-05
-3.06181657e-05
-3.089694e-05
-3.15005725e-05
-3.15664516e-05
-3.15084997e-05
-3.15692915e-05
-3.06533884e-05
-3.05080834e-05
-3.04813686e-05
-3.07702476e-05
-3.15121882e-05
-3.1545007e-05
-3.15226418e-05
-3.08381122e-05
-3.03653585e-05
-3.09104579e-05
-3.15015746e-05
-3.1537841e-05
-3.15303049e-05
-3.06721841e-05
-3.05352093e-05
-3.14910835e-05
-3.15232668e-05
-3.05718042e-05
-3.03872854e-05
-3.05501001e-05
-3.06550617e-05
-3.06061343e-05
-3.08871554e-05
-3.14851826e-05
-3.15286052e-05
-3.15119354e-05
-3.1539068e-05
-3.15370674e-05
-3.06977578e-05
-3.04479454e-05
-3.05017659e-05
-3.07859182e-05
-3.14991201e-05
-3.15304904e-05
-3.15223906e-05
-3.15387696e-05
-3.07591622e-05
-3.05199858e-05
-3.07539554e-05
-3.06659381e-05
-3.08976827e-05
-3.14985261e-05
-3.154956e-05
-3.0545998e-05
-3.01629079e-05
-3.08073751e-05
-3.14792313e-05
-3.15090496e-05
-3.14857186e-05
-3.15194738e-05
-3.15011279e-05
-3.1522509e-05
-3.05440982e-05
-3.02413123e-05
-3.05123714e-05
-3.05327235e-05
-3.06390673e-05
-3.07520908e-05
-3.07124701e-05
-3.09214803e-05
-3.15043056e-05
-3.1518215e-05
-3.15189537e-05
-3.15149696e-05
-3.15228872e-05
-3.15198834e-05
-3.15196329e-05
-3.15241197e-05
-3.05303909e-05
-3.03094178e-05
-3.04607637e-05
-3.06267893e-05
-3.15495851e-05
-3.15194219e-05
-3.09222468e-05
-3.052804e-05
-3.11801448e-05
-3.15346902e-05
-3.06743278e-05
-3.05221737e-05
-3.05470753e-05
-3.08622053e-05
-3.1530117e-05
-3.1551912e-05
-3.15250543e-05
-3.15649946e-05
-3.05819954e-05
-3.05054331e-05
-3.05048922e-05
-3.08934402e-05
-3.15128205e-05
-3.15632318e-05
-3.15322886e-05
-3.08840335e-05
-3.04733425e-05
-3.08849898e-05
-3.15285194e-05
-3.15639868e-05
-3.09106683e-05
-3.06437423e-05
-3.07782441e-05
-3.07643337e-05
-3.08233016e-05
-3.07399869e-05
-3.09011727e-05
-3.1137859e-05
-3.15335258e-05
-3.1497743e-05
-3.04081226e-05
-3.00991393e-05
-3.08305322e-05
-3.15362138e-05
-3.15338934e-05
-3.15554541e-05
-3.15383369e-05
-3.09064935e-05
-3.04277427e-05
-3.11469857e-05
-3.15552259e-05
-3.08483994e-05
-3.09122233e-05
-3.15598262e-05
-3.15286758e-05
-3.15781802e-05
-3.15241027e-05
-3.15804378e-05
-3.1523055e-05
-3.07813891e-05
-3.02606081e-05
-3.05584656e-05
-3.05831319e-05
-3.07041811e-05
-3.07086515e-05
-3.08946551e-05
-3.15250334e-05
-3.15382259e-05
-3.04755047e-05
-3.04762535e-05
-3.07553245e-05
-3.09355322e-05
-3.15348221e-05
-3.15213746e-05
-3.15343896e-05
-3.15127018e-05
-3.05415581e-05
-3.05433162e-05
-3.15350145e-05
-3.14981761e-05
-3.05784268e-05
-3.06743707e-05
-3.15351749e-05
-3.1503438e-05
-3.05605403e-05
-3.06858987e-05
-3.15327557e-05
-3.15021578e-05
-3.04563285e-05
-3.045141e-05
-3.07706149e-05
-3.09188132e-05
-3.15246217e-05
-3.15326592e-05
-3.07030703e-05
-3.09183999e-05
-3.15097548e-05
-3.151581e-05
-3.15175006e-05
-3.02850539e-05
-3.0281683e-05
-3.06063929e-05
-3.06188679e-05
-3.07596178e-05
-3.07647793e-05
-3.08688246e-05
-3.10549721e-05
-3.14851182e-05
-3.15009763e-05
-3.1470119e-05
-3.15052014e-05
-3.14814601e-05
-3.02536399e-05
-3.01997949e-05
-3.09248636e-05
-3.14973211e-05
-3.15232074e-05
-3.05396702e-05
-3.08262522e-05
-3.15167495e-05
-3.15064629e-05
-3.04978052e-05
-3.04947264e-05
-3.07515113e-05
-3.0921942e-05
-3.14868865e-05
-3.15319412e-05
-3.14870171e-05
-3.06670219e-05
-3.08123351e-05
-3.15362617e-05
-3.14789284e-05
-3.03698905e-05
-3.0350944e-05
-3.09097401e-05
-3.15074996e-05
-3.15107048e-05
-3.0600054e-05
-3.09316095e-05
-3.15169014e-05
-3.1530443e-05
-3.14772403e-05
-3.0472626e-05
-3.04666989e-05
-3.07352472e-05
-3.07389885e-05
-3.09710997e-05
-3.15382843e-05
-3.15342064e-05
-3.15392033e-05
-3.15165926e-05
-3.15311021e-05
-3.14700628e-05
-3.15209446e-05
-3.14121418e-05
-3.03639022e-05
-3.03530375e-05
-3.05959102e-05
-3.05669465e-05
-3.0708544e-05
-3.06422186e-05
-3.09013719e-05
-3.15251175e-05
-3.14925273e-05
-3.15182702e-05
-3.1418571e-05
-3.03632999e-05
-3.03598905e-05
-3.05602755e-05
-3.06077342e-05
-3.0600991e-05
-3.08945155e-05
-3.15365737e-05
-3.15014916e-05
-3.15287018e-05
-3.1419014e-05
-3.04714703e-05
-3.04700917e-05
-3.06765859e-05
-3.07183156e-05
-3.0781575e-05
-3.09510869e-05
-3.15415519e-05
-3.14980287e-05
-3.1530486e-05
-3.14436936e-05
-3.06130288e-05
-3.05227141e-05
-3.08953202e-05
-3.14288306e-05
-3.15320256e-05
-3.14119548e-05
-3.15173416e-05
-3.1372734e-05
-3.04573329e-05
-3.04575323e-05
-3.05379381e-05
-3.09149252e-05
-3.15346296e-05
-3.14743397e-05
-3.15296016e-05
-3.13663199e-05
-3.05834332e-05
-3.08337342e-05
-3.15259227e-05
-3.14359615e-05
-3.04552009e-05
-3.04471354e-05
-3.09011101e-05
-3.15120286e-05
-3.15018729e-05
-3.15049778e-05
-3.14327614e-05
-3.05005212e-05
-3.05039552e-05
-3.06486888e-05
-3.05516635e-05
-3.0626691e-05
-3.05394337e-05
-3.0903872e-05
-3.15258552e-05
-3.14450721e-05
-3.05236529e-05
-3.05210652e-05
-3.06937437e-05
-3.0779654e-05
-3.11326538e-05
-3.15525159e-05
-3.14763067e-05
-3.15535704e-05
-3.14665165e-05
-3.07049316e-05
-3.04044726e-05
-3.08905589e-05
-3.15516269e-05
-3.15373746e-05
-3.15591628e-05
-3.14912124e-05
-3.0823058e-05
-3.0612762e-05
-3.07438246e-05
-3.06664795e-05
-3.07362906e-05
-3.06605092e-05
-3.09001789e-05
-3.1554501e-05
-3.15415325e-05
-3.15557076e-05
-3.15041849e-05
-3.15515261e-05
-3.14717432e-05
-3.07493682e-05
-3.05200116e-05
-3.07076808e-05
-3.05304852e-05
-3.08921275e-05
-3.15525802e-05
-3.15290683e-05
-3.15529499e-05
-3.14896785e-05
-3.07554674e-05
-3.0598652e-05
-3.08035776e-05
-3.0708545e-05
-3.0907381e-05
-3.15148644e-05
-3.14907467e-05
-3.04667532e-05
-3.09085004e-05
-3.14658093e-05
-3.03813072e-05
-3.03687679e-05
-3.06255563e-05
-3.04901744e-05
-3.08954773e-05
-3.1531394e-05
-3.15318612e-05
-3.15215283e-05
-3.15028367e-05
-3.15086917e-05
-3.14921195e-05
-3.06602271e-05
-3.05302278e-05
-3.07150003e-05
-3.0671912e-05
-3.07327499e-05
-3.07887026e-05
-3.07969053e-05
-3.09194948e-05
-3.15684924e-05
-3.15452165e-05
-3.07740257e-05
-3.09036207e-05
-3.15551562e-05
-3.15394499e-05
-3.08081416e-05
-3.08329192e-05
-3.14364487e-05
-3.1537693e-05
-3.1472898e-05
-3.08014955e-05
-3.07568027e-05
-3.12868381e-05
-3.15196929e-05
-3.14822812e-05
-3.05527732e-05
-3.04463058e-05
-3.05283088e-05
-3.07950699e-05
-3.15516544e-05
-3.15157769e-05
-3.04744762e-05
-3.03060213e-05
-3.08867201e-05
-3.1520965e-05
-3.15218502e-05
-3.15141831e-05
-3.15131883e-05
-3.15060862e-05
-3.15019294e-05
-3.03937439e-05
-3.02272201e-05
-3.05931838e-05
-3.03382231e-05
-3.08735137e-05
-3.15104629e-05
-3.15295616e-05
-3.15108111e-05
-3.06279927e-05
-3.06883972e-05
-3.15277428e-05
-3.15047481e-05
-3.15179922e-05
-3.04952719e-05
-3.02784575e-05
-3.06437039e-05
-3.04737654e-05
-3.09061415e-05
-3.1525417e-05
-3.15456265e-05
-3.05015975e-05
-3.04601462e-05
-3.09091832e-05
-3.15353531e-05
-3.15353619e-05
-3.15347836e-05
-3.15311594e-05
-3.1530008e-05
-3.15258235e-05
-3.07032781e-05
-3.06294398e-05
-3.07775982e-05
-3.09142055e-05
-3.15472245e-05
-3.15281362e-05
-3.0674906e-05
-3.05891812e-05
-3.09158207e-05
-3.15315842e-05
-3.15317553e-05
-3.15289097e-05
-3.15182173e-05
-3.05803508e-05
-3.04697584e-05
-3.07384847e-05
-3.06286685e-05
-3.09026324e-05
-3.15251537e-05
-3.15164236e-05
-3.04811274e-05
-3.04790709e-05
-3.06972503e-05
-3.06399429e-05
-3.09099843e-05
-3.15413364e-05
-3.15234936e-05
-3.15414019e-05
-3.15096016e-05
-3.05595109e-05
-3.041078e-05
-3.08940845e-05
-3.15021259e-05
-3.15662288e-05
-3.15036329e-05
-3.08950791e-05
-3.09405484e-05
-3.15810028e-05
-3.15127878e-05
-3.07979924e-05
-3.07638826e-05
-3.08981059e-05
-3.08722995e-05
-3.09218743e-05
-3.15413931e-05
-3.15225459e-05
-3.04808374e-05
-3.04238815e-05
-3.06456558e-05
-3.0577839e-05
-3.08985853e-05
-3.15302196e-05
-3.15112858e-05
-3.15206059e-05
-3.14767768e-05
-3.06071634e-05
-3.07081546e-05
-3.15322475e-05
-3.14857547e-05
-3.04352238e-05
-3.03693136e-05
-3.05600056e-05
-3.05485706e-05
-3.05933282e-05
-3.06639653e-05
-3.06276825e-05
-3.09042955e-05
-3.15270474e-05
-3.15258992e-05
-3.15301801e-05
-3.14982953e-05
-3.15201765e-05
-3.14792624e-05
-3.07018071e-05
-3.07442171e-05
-3.15536868e-05
-3.14964107e-05
-3.07806258e-05
-3.0553258e-05
-3.07420449e-05
-3.07549495e-05
-3.07636427e-05
-3.0900455e-05
-3.15466532e-05
-3.15731641e-05
-3.15218902e-05
-3.15777823e-05
-3.15058218e-05
-3.09112523e-05
-3.07770611e-05
-3.14998041e-05
-3.15171045e-05
-3.09102613e-05
-3.06677622e-05
-3.06726863e-05
-3.08941318e-05
-3.14994463e-05
-3.15520688e-05
-3.09344905e-05
-3.0898023e-05
-3.13561036e-05
-3.15721172e-05
-3.14307918e-05
-3.08824267e-05
-3.05478686e-05
-3.06580788e-05
-3.07569681e-05
-3.07309807e-05
-3.09232532e-05
-3.12584604e-05
-3.15061724e-05
-3.08870532e-05
-3.06830377e-05
-3.10492228e-05
-3.14672069e-05
-3.08809793e-05
-3.02846687e-05
-3.04844011e-05
-3.05807476e-05
-3.07858935e-05
-3.11468012e-05
-3.15142005e-05
-3.15040052e-05
-3.1494951e-05
-3.15573832e-05
-3.14501053e-05
-3.08584973e-05
-3.05480851e-05
-3.09329831e-05
-3.15266103e-05
-3.15074968e-05
-3.09586873e-05
-3.07015909e-05
-3.09295672e-05
-3.1519081e-05
-3.14913905e-05
-3.09756025e-05
-3.04444876e-05
-3.04651148e-05
-3.06836133e-05
-3.06875359e-05
-3.07930207e-05
-3.09877209e-05
-3.15283001e-05
-3.15266565e-05
-3.15019931e-05
-3.15069472e-05
-3.1100916e-05
-3.03749295e-05
-3.03855557e-05
-3.0605975e-05
-3.06111753e-05
-3.07124369e-05
-3.07690032e-05
-3.07871965e-05
-3.09226764e-05
-3.15456036e-05
-3.13930403e-05
-3.07813782e-05
-3.09248125e-05
-3.15694339e-05
-3.15231375e-05
-3.15776071e-05
-3.14815444e-05
-3.08770574e-05
-3.06102078e-05
-3.07225164e-05
-3.06531986e-05
-3.07674767e-05
-3.07189794e-05
-3.09018944e-05
-3.15325532e-05
-3.15059566e-05
-3.15141319e-05
-3.14368491e-05
-3.04914497e-05
-3.07493902e-05
-3.15266164e-05
-3.14941359e-05
-3.15014018e-05
-3.14383316e-05
-3.04907403e-05
-3.06916351e-05
-3.15139319e-05
-3.14852761e-05
-3.04233594e-05
-3.03903534e-05
-3.05347112e-05
-3.03897066e-05
-3.05398197e-05
-3.03488656e-05
-3.0736801e-05
-3.15328141e-05
-3.15354966e-05
-3.15288007e-05
-3.15215002e-05
-3.15230158e-05
-3.15088207e-05
-3.15164642e-05
-3.1499365e-05
-3.06131475e-05
-3.04362958e-05
-3.06956284e-05
-3.04243134e-05
-3.08153374e-05
-3.15201114e-05
-3.15258257e-05
-3.15169863e-05
-3.06179568e-05
-3.07047168e-05
-3.1529574e-05
-3.15235262e-05
-3.15278642e-05
-3.06797327e-05
-3.02895459e-05
-3.06670577e-05
-3.15273027e-05
-3.15306264e-05
-3.1523352e-05
-3.15297804e-05
-3.06316957e-05
-3.04642975e-05
-3.06335372e-05
-3.04805342e-05
-3.06024771e-05
-3.04756297e-05
-3.05768296e-05
-3.15223385e-05
-3.15336364e-05
-3.15287849e-05
-3.15399691e-05
-3.05932841e-05
-3.05448703e-05
-3.15322921e-05
-3.15419797e-05
-3.06244235e-05
-3.05894078e-05
-3.15441309e-05
-3.15383378e-05
-3.08733078e-05
-3.07778293e-05
-3.08922439e-05
-3.08099386e-05
-3.08592573e-05
-3.0662717e-05
-3.07646132e-05
-3.1529489e-05
-3.15384245e-05
-3.15350892e-05
-3.08716576e-05
-3.05964611e-05
-3.15159514e-05
-3.15202141e-05
-3.06328804e-05
-3.06224643e-05
-3.15114895e-05
-3.15143312e-05
-3.15213856e-05
-3.07033157e-05
-3.05071112e-05
-3.14948612e-05
-3.15240061e-05
-3.15056607e-05
-3.15299462e-05
-3.15235833e-05
-3.07347768e-05
-3.03200569e-05
-3.03301041e-05
-3.03289916e-05
-3.14976142e-05
-3.15121951e-05
-3.0582018e-05
-3.04286034e-05
-3.15062612e-05
-3.151037e-05
-3.07276246e-05
-3.04707891e-05
-3.03912571e-05
-3.03938932e-05
-3.15054361e-05
-3.15180829e-05
-3.15155385e-05
-3.15287255e-05
-3.15335609e-05
-3.15333327e-05
-3.09080302e-05
-3.05876242e-05
-3.07249532e-05
-3.06001409e-05
-3.06649147e-05
-3.05642776e-05
-3.05689036e-05
-3.15105205e-05
-3.15370955e-05
-3.08567755e-05
-3.07141975e-05
-3.1524371e-05
-3.15327746e-05
-3.15350796e-05
-3.15361182e-05
-3.09041229e-05
-3.04921239e-05
-3.05083836e-05
-3.15308361e-05
-3.15456312e-05
-3.07962101e-05
-3.05787906e-05
-3.15470571e-05
-3.1548973e-05
-3.08989656e-05
-3.07983394e-05
-3.09015253e-05
-3.07962572e-05
-3.07777835e-05
-3.05561478e-05
-3.0559411e-05
-3.15077239e-05
-3.15354935e-05
-3.15123156e-05
-3.15401594e-05
-3.09342949e-05
-3.06972066e-05
-3.1524028e-05
-3.15353418e-05
-3.15306684e-05
-3.15378568e-05
-3.09099189e-05
-3.06255092e-05
-3.05276315e-05
-3.05260213e-05
-3.15208069e-05
-3.15243795e-05
-3.0920359e-05
-3.06308789e-05
-3.06820931e-05
-3.06309091e-05
-3.04362198e-05
-3.04362952e-05
-3.1496604e-05
-3.15092846e-05
-3.15089964e-05
-3.15209422e-05
-3.15256649e-05
-3.15282371e-05
-3.09113328e-05
-3.06213122e-05
-3.05346039e-05
-3.05349199e-05
-3.1528546e-05
-3.15405251e-05
-3.09073611e-05
-3.08597174e-05
-3.09943935e-05
-3.08992368e-05
-3.06548152e-05
-3.155056e-05
-3.15313132e-05
-3.08930701e-05
-3.05610998e-05
-3.06853761e-05
-3.03897115e-05
-3.04198786e-05
-3.14959474e-05
-3.15295617e-05
-3.15021233e-05
-3.15402764e-05
-3.15081092e-05
-3.09147511e-05
-3.05321018e-05
-3.05363847e-05
-3.14996176e-05
-3.15493529e-05
-3.0914002e-05
-3.06893832e-05
-3.15258764e-05
-3.15555876e-05
-3.08333649e-05
-3.0684973e-05
-3.15535347e-05
-3.15602073e-05
-3.08987668e-05
-3.08362886e-05
-3.0892859e-05
-3.09000634e-05
-3.09078105e-05
-3.07141584e-05
-3.07007837e-05
-3.04319528e-05
-3.04348006e-05
-3.15030324e-05
-3.1528986e-05
-3.15134446e-05
-3.15421404e-05
-3.15316066e-05
-3.15542022e-05
-3.09269292e-05
-3.06582622e-05
-3.05440281e-05
-3.09161957e-05
-3.15344616e-05
-3.12887933e-05
-3.06868912e-05
-3.05683459e-05
-3.06704736e-05
-3.05457618e-05
-3.05482696e-05
-3.1501415e-05
-3.15070182e-05
-3.10105939e-05
-3.05888461e-05
-3.09114221e-05
-3.15274217e-05
-3.08858889e-05
-3.04468804e-05
-3.14934455e-05
-3.1502969e-05
-3.14747704e-05
-3.15196066e-05
-3.15052222e-05
-3.15356131e-05
-3.1541136e-05
-3.15424009e-05
-3.09036669e-05
-3.05547106e-05
-3.062346e-05
-3.05558579e-05
-3.063794e-05
-3.05523499e-05
-3.06668613e-05
-3.15226958e-05
-3.15442509e-05
-3.10317606e-05
-3.08318856e-05
-3.09043588e-05
-3.15373782e-05
-3.15520119e-05
-3.10292113e-05
-3.07512602e-05
-3.06835397e-05
-3.07154407e-05
-3.07294056e-05
-3.07340043e-05
-3.07696687e-05
-3.06138511e-05
-3.0686705e-05
-3.15638918e-05
-3.15381334e-05
-3.09094169e-05
-3.07157968e-05
-3.09021713e-05
-3.15650888e-05
-3.15738911e-05
-3.15743361e-05
-3.15742968e-05
-3.08823039e-05
-3.05841577e-05
-3.08950095e-05
-3.15680549e-05
-3.15681406e-05
-3.15727759e-05
-3.15584004e-05
-3.08861787e-05
-3.03214121e-05
-3.05327916e-05
-3.05271434e-05
-3.04960906e-05
-3.09510765e-05
-3.15284558e-05
-3.08981073e-05
-3.04575594e-05
-3.0641124e-05
-3.06247498e-05
-3.07037111e-05
-3.09935922e-05
-3.15635887e-05
-3.15100813e-05
-3.08925453e-05
-3.04762574e-05
-3.07163979e-05
-3.12782086e-05
-3.1512422e-05
-3.09106964e-05
-3.03921446e-05
-3.08497248e-05
-3.14793602e-05
-3.15229109e-05
-3.14736756e-05
-3.15132016e-05
-3.15153345e-05
-3.15272386e-05
-3.08527613e-05
-3.04659994e-05
-3.05646762e-05
-3.08710168e-05
-3.15145511e-05
-3.15116303e-05
-3.14978428e-05
-3.15293465e-05
-3.09342163e-05
-3.05563744e-05
-3.06239689e-05
-3.08633788e-05
-3.15314812e-05
-3.15514169e-05
-3.08420999e-05
-3.07444367e-05
-3.15304177e-05
-3.15203673e-05
-3.08925344e-05
-3.04447162e-05
-3.08579717e-05
-3.15325595e-05
-3.15333705e-05
-3.09155894e-05
-3.04911636e-05
-3.08937631e-05
-3.15207702e-05
-3.15514501e-05
-3.0917662e-05
-3.06474097e-05
-3.07699863e-05
-3.09067054e-05
-3.10465218e-05
-3.15441159e-05