/*--------------------------------*- C++ -*----------------------------------*\
| =========                 |                                                 |
| \\      /  F ield         | OpenFOAM: The Open Source CFD Toolbox           |
|  \\    /   O peration     | Version:  2306                                  |
|   \\  /    A nd           | Website:  www.openfoam.com                      |
|    \\/     M anipulation  |                                                 |
\*---------------------------------------------------------------------------*/
FoamFile
{
    version     2.0;
    format      ascii;
    arch        "LSB;label=32;scalar=64";
    class       volScalarField;
    location    "0.0017";
    object      H;
}
// * * * * * * * * * * * * * * * * * * * * * * * * * * * * * * * * * * * * * //

dimensions      [0 0 0 0 0 0 0];

internalField   nonuniform List<scalar> 
530
(
4.93345982e-08
4.62175998e-08
9.37773907e-10
1.32896316e-09
1.19110519e-09
3.00266762e-08
5.01706288e-08
4.95209213e-08
8.26657376e-10
1.19716236e-09
4.17630847e-08
4.71113867e-08
7.74671046e-10
1.22523858e-09
4.39951583e-08
4.44281062e-08
7.56148906e-10
1.29883738e-09
1.17302435e-09
3.43255404e-08
4.51108667e-08
5.08693276e-08
5.07713191e-08
7.00270518e-10
1.09048695e-09
1.09052084e-09
1.09908749e-09
2.95729706e-08
5.00172287e-08
4.95370083e-08
8.78354538e-10
1.19696538e-09
4.06662806e-08
4.3682658e-08
8.09125545e-10
1.30021029e-09
1.2031239e-09
3.50050809e-08
4.53480663e-08
5.21746874e-08
5.22012744e-08
7.11711135e-10
1.18396478e-09
1.00951522e-09
3.88591655e-08
4.96850887e-08
7.59578675e-10
1.15859375e-09
1.11469619e-09
1.21337277e-09
2.62582745e-08
4.12735819e-08
4.52970985e-08
4.52453131e-08
8.96791387e-10
1.16734086e-09
3.4111008e-08
4.90693504e-08
4.87639377e-08
9.33001903e-10
1.13139082e-09
3.22345729e-08
5.08312865e-08
4.94383701e-08
9.37398753e-10
1.28538942e-09
1.21297153e-09
3.15971487e-08
4.78683612e-08
4.73650802e-08
9.12338621e-10
1.24455126e-09
3.90355434e-08
4.09047132e-08
8.70480749e-10
1.33838859e-09
1.21871103e-09
2.47382724e-08
4.08319156e-08
4.56217707e-08
4.56059401e-08
8.90071894e-10
1.12156208e-09
3.50626126e-08
5.23596784e-08
5.19688228e-08
8.34561375e-10
1.12814825e-09
4.40478599e-08
4.9561796e-08
7.06607242e-10
1.12195519e-09
1.06963999e-09
1.12782063e-09
3.43233666e-08
4.82860112e-08
5.42626923e-08
5.42383549e-08
6.86776189e-10
1.15403873e-09
1.0416112e-09
4.0237069e-08
4.6214477e-08
7.98288876e-10
1.24806892e-09
1.12292055e-09
3.61747555e-08
4.02057867e-08
9.09167623e-10
3.32746376e-08
4.74264915e-08
8.71837128e-10
1.28068114e-09
1.15321415e-09
3.10957558e-08
4.44128132e-08
4.91604571e-08
4.9217769e-08
8.3627984e-10
1.26327159e-09
1.10465517e-09
3.49014808e-08
4.72425865e-08
1.04426399e-09
1.14566361e-09
3.07378252e-08
4.95192576e-08
4.6537859e-08
9.77622011e-10
3.64326298e-08
4.7138248e-08
8.92670819e-10
1.28365082e-09
1.16435699e-09
3.23323619e-08
4.99695848e-08
4.97422282e-08
1.01319026e-09
1.22281668e-09
4.0580608e-08
4.05757605e-08
8.78378834e-10
3.22234982e-08
5.18180575e-08
9.6930863e-10
1.13552209e-09
4.03210422e-08
4.63144006e-08
9.12575074e-10
1.18786938e-09
4.19958523e-08
4.57703306e-08
8.81210575e-10
1.18603289e-09
4.42945165e-08
4.69214268e-08
8.31407652e-10
1.15380053e-09
1.1373855e-09
1.1545022e-09
2.86379214e-08
4.61538296e-08
4.27301495e-08
5.24194758e-08
5.21047078e-08
8.1970992e-10
1.14680151e-09
1.04982075e-09
1.2098518e-09
4.03743759e-08
4.11454995e-08
8.52248804e-10
3.50995965e-08
5.53332169e-08
9.45028185e-10
1.05858245e-09
4.42029932e-08
4.98266808e-08
8.44020201e-10
1.10547859e-09
4.772511e-08
5.04951468e-08
7.6505648e-10
1.08228782e-09
1.04743454e-09
1.0856017e-09
3.6086951e-08
4.99213778e-08
5.50242588e-08
5.58349241e-08
1.15269002e-08
1.0606064e-09
1.04164821e-09
1.16927126e-09
1.11576654e-09
3.98997361e-08
4.980671e-08
1.05161106e-09
1.06630461e-09
3.60342258e-08
5.33202398e-08
5.20451114e-08
9.87716957e-10
1.1886948e-09
4.25944309e-08
4.24604568e-08
9.43616795e-10
3.66355031e-08
5.07716246e-08
9.63472056e-10
1.23130173e-09
1.11207937e-09
3.44575422e-08
5.29822491e-08
5.09829364e-08
9.74542861e-10
1.1725628e-09
1.17253508e-09
1.22545077e-09
3.27923259e-08
4.16939389e-08
1.18317962e-09
1.27001964e-09
3.26826432e-08
4.15183404e-08
4.79235729e-08
4.79251551e-08
9.48709108e-10
1.19528533e-09
1.07729836e-09
1.58290044e-08
4.96832689e-08
4.65038785e-08
9.98396379e-10
3.18321968e-08
5.10356797e-08
1.17249563e-09
1.10345174e-09
3.39877093e-08
5.26735222e-08
5.11432945e-08
9.79560383e-10
1.10166177e-09
1.16661241e-09
1.13749738e-09
3.0598965e-08
5.25126754e-08
4.58205709e-08
9.58293917e-10
3.28616528e-08
5.00950833e-08
1.14368743e-09
1.1067964e-09
3.60577598e-08
4.59755878e-08
5.39362256e-08
5.37692119e-08
8.05004783e-10
1.05528331e-09
9.50146164e-10
1.09365093e-09
1.15206616e-09
1.14785633e-09
3.44237917e-08
5.25165706e-08
5.17098866e-08
1.04456615e-09
1.15285417e-09
4.130337e-08
4.71694513e-08
1.08555912e-09
1.1761599e-09
3.75935246e-08
4.64082675e-08
5.39206792e-08
5.38562693e-08
8.96745003e-10
1.1252234e-09
1.0324016e-09
1.19852415e-09
4.10685094e-08
4.17287758e-08
1.00979996e-09
3.76936996e-08
5.11886286e-08
1.01275067e-09
1.21171253e-09
1.04371912e-09
3.61050372e-08
4.78949241e-08
1.15715942e-09
1.17169202e-09
4.01288251e-08
4.54093416e-08
1.1586573e-09
1.17736293e-09
3.75799169e-08
4.61119303e-08
5.50854031e-08
5.49284574e-08
8.75718609e-10
1.05260277e-09
9.46700299e-10
1.08688056e-09
1.14639452e-09
1.12959974e-09
3.11992098e-08
4.59028129e-08
4.97124603e-08
5.02026883e-08
1.08050991e-09
1.06610638e-09
3.75234428e-08
5.24469324e-08
5.0871339e-08
1.06754801e-09
1.11572551e-09
3.96931908e-08
4.78809872e-08
1.17063113e-09
1.05769163e-09
3.52444737e-08
5.56955653e-08
5.30018827e-08
8.72774939e-10
1.06352592e-09
9.67093792e-10
1.0836914e-09
1.15869748e-09
1.11571122e-09
3.1949928e-08
4.80552848e-08
5.36951586e-08
5.36384463e-08
9.21638599e-10
1.1078788e-09
4.89339287e-08
4.98756022e-08
9.05337218e-10
1.15564053e-09
1.07785807e-09
1.19531555e-09
2.9572155e-08
4.25649016e-08
4.62539719e-08
4.63936943e-08
1.09728196e-09
1.12111387e-09
3.60210671e-08
5.31371334e-08
5.09746141e-08
1.00767781e-09
1.18969436e-09
1.1352791e-09
3.93763509e-08
3.98590797e-08
1.01243253e-09
2.92805373e-08
5.39570008e-08
1.22298999e-09
1.035988e-09
3.51223796e-08
5.63613808e-08
5.35023375e-08
8.9567826e-10
1.18163427e-09
1.02756657e-09
1.28885848e-09
1.20291278e-09
3.25883084e-08
4.21297095e-08
4.89362453e-08
4.86911588e-08
9.94232802e-10
1.24959905e-09
1.08955097e-09
3.47245215e-08
4.69494093e-08
1.17279737e-09
1.13412624e-09
3.19820686e-08
4.9453524e-08
4.77466291e-08
1.03564321e-09
1.28310289e-09
1.17307141e-09
3.01061881e-08
4.53519596e-08
4.36455374e-08
5.43382772e-08
5.40108437e-08
9.12149246e-10
1.1147206e-09
1.08384249e-09
4.61577008e-08
4.79074513e-08
8.58885991e-10
1.20461046e-09
1.03741092e-09
4.06262639e-08
4.60374613e-08
9.26538859e-10
1.28261991e-09
1.08044832e-09
3.37226687e-08
5.0184355e-08
4.96795243e-08
1.08646064e-09
1.10117072e-09
3.40936234e-08
5.14539404e-08
5.07696368e-08
1.0159228e-09
1.13882803e-09
3.91756741e-08
4.86828495e-08
1.0468239e-09
1.09454523e-09
3.45667111e-08
5.40107107e-08
5.23262215e-08
9.16425808e-10
1.2128152e-09
1.09068456e-09
3.66539177e-08
4.63913969e-08
1.01560496e-09
1.2067534e-09
3.93717136e-08
4.44281963e-08
1.00890596e-09
1.22695202e-09
3.78718815e-08
4.35991821e-08
1.07774641e-09
1.19076201e-09
3.19190736e-08
4.66297121e-08
4.64279224e-08
1.10352552e-09
1.15987593e-09
3.19979178e-08
4.82869378e-08
4.77289726e-08
1.02320114e-09
1.19981832e-09
3.8002793e-08
4.46983951e-08
9.82645174e-10
1.189859e-09
3.821544e-08
4.63143447e-08
1.01795381e-09
1.07849975e-09
3.42793265e-08
5.49208421e-08
5.37727312e-08
7.7262165e-10
1.12843975e-09
9.52905561e-10
1.20944477e-09
1.16100696e-09
3.88007906e-08
5.05529975e-08
5.92299777e-08
5.91432007e-08
6.3246572e-10
1.09178966e-09
8.75013196e-10
1.22755132e-09
1.15672447e-09
3.1669731e-08
4.47015022e-08
4.91242136e-08
4.89420819e-08
8.18380516e-10
1.160771e-09
4.40335235e-08
4.74260969e-08
7.90763624e-10
1.18609633e-09
4.47685522e-08
4.69212288e-08
7.28204074e-10
1.19854362e-09
1.05412279e-09
1.22836277e-09
2.99244328e-08
4.17259654e-08
4.64808726e-08
4.61738127e-08
8.78442673e-10
1.23835209e-09
4.19615454e-08
4.22047662e-08
8.31100103e-10
1.33217779e-09
1.1665821e-09
2.58254122e-08
4.22601507e-08
4.56431667e-08
4.5468702e-08
9.18761343e-10
1.27021174e-09
3.93146852e-08
3.90520309e-08
8.86723945e-10
3.17714959e-08
4.40381592e-08
9.0555146e-10
3.45968141e-08
4.59257515e-08
8.38588715e-10
1.29111832e-09
1.1399297e-09
2.74736106e-08
4.40069243e-08
4.81532486e-08
4.79918027e-08
8.08963284e-10
1.20155245e-09
4.51763054e-08
4.61219599e-08
7.21394105e-10
1.26306424e-09
1.1295816e-09
3.8445457e-08
4.45929843e-08
8.23501619e-10
1.31082834e-09
)
;

boundaryField
{
    closed
    {
        type            calculated;
        value           nonuniform List<scalar> 0();
    }
    open
    {
        type            calculated;
        value           nonuniform List<scalar> 0();
    }
    sides
    {
        type            empty;
    }
    procBoundary2to1
    {
        type            processor;
        value           uniform 3.06546077e-08;
    }
    procBoundary2to3
    {
        type            processor;
        value           uniform 1.16185499e-09;
    }
}


// ************************************************************************* //
