/*--------------------------------*- C++ -*----------------------------------*\
| =========                 |                                                 |
| \\      /  F ield         | OpenFOAM: The Open Source CFD Toolbox           |
|  \\    /   O peration     | Version:  2306                                  |
|   \\  /    A nd           | Website:  www.openfoam.com                      |
|    \\/     M anipulation  |                                                 |
\*---------------------------------------------------------------------------*/
FoamFile
{
    version     2.0;
    format      ascii;
    arch        "LSB;label=32;scalar=64";
    class       surfaceScalarField;
    location    "0.0017";
    object      phi;
}
// * * * * * * * * * * * * * * * * * * * * * * * * * * * * * * * * * * * * * //

dimensions      [1 0 -1 0 0 0 0];

oriented        oriented;

internalField   nonuniform List<scalar> 
529
(
1.74068258e-06
1.70760699e-06
1.70866385e-06
1.70807171e-06
1.70478828e-06
1.70812663e-06
1.70771038e-06
1.7551246e-06
1.72374287e-06
1.72382343e-06
1.73797416e-06
1.7431926e-06
1.74382207e-06
1.7445448e-06
1.75556178e-06
1.76206662e-06
1.76328339e-06
1.76478212e-06
1.76230748e-06
1.76490933e-06
1.77611368e-06
1.76383373e-06
1.77942164e-06
1.75963937e-06
1.75956384e-06
1.75942454e-06
1.75959352e-06
1.76816682e-06
1.7645318e-06
1.73420493e-06
1.75629057e-06
1.75778569e-06
1.77300289e-06
1.77881528e-06
1.77836882e-06
1.77964316e-06
1.77641278e-06
1.77985285e-06
1.79307686e-06
1.77967616e-06
1.71580165e-06
1.75409277e-06
1.75430477e-06
1.72288474e-06
1.76906603e-06
1.77219057e-06
1.7684182e-06
1.76735954e-06
1.76028399e-06
1.75808075e-06
1.7642441e-06
1.77318441e-06
1.7597893e-06
1.75622551e-06
1.74523681e-06
1.74088318e-06
1.74114087e-06
1.73194616e-06
1.76546139e-06
1.73343766e-06
1.73034485e-06
1.73251388e-06
1.73065106e-06
1.70710039e-06
1.70504699e-06
1.70236466e-06
1.69636552e-06
1.6951697e-06
1.69016375e-06
1.73504937e-06
1.69788613e-06
1.69546415e-06
1.70572515e-06
1.70544136e-06
1.70233028e-06
1.70099589e-06
1.69535378e-06
1.70082405e-06
1.71180068e-06
1.70116495e-06
1.6995836e-06
1.69720749e-06
1.69573192e-06
1.70167324e-06
1.68988335e-06
1.64419296e-06
1.6680953e-06
1.66814725e-06
1.67915e-06
1.67609385e-06
1.66941709e-06
1.66724281e-06
1.65884094e-06
1.65524438e-06
1.65310131e-06
1.66041559e-06
1.65311936e-06
1.6825313e-06
1.65323433e-06
1.64788275e-06
1.61542113e-06
1.65296283e-06
1.64539006e-06
1.63775573e-06
1.63403204e-06
1.65988715e-06
1.6306994e-06
1.62553776e-06
1.62014573e-06
1.62053844e-06
1.61281682e-06
1.60449501e-06
1.6003068e-06
1.61156527e-06
1.60924745e-06
1.60457069e-06
1.59338455e-06
1.62144823e-06
1.58907217e-06
1.58662558e-06
1.55530982e-06
1.55470426e-06
1.55478466e-06
1.54652558e-06
1.54351735e-06
1.54474964e-06
1.54019767e-06
1.52663298e-06
1.52020255e-06
1.52959752e-06
1.52450634e-06
1.5180905e-06
1.51387134e-06
1.50825716e-06
1.50545644e-06
1.50825997e-06
1.48583286e-06
1.47916949e-06
1.47544501e-06
1.4851349e-06
1.48993813e-06
1.4797094e-06
1.47779516e-06
1.46904138e-06
1.4586981e-06
1.45437751e-06
1.46145592e-06
1.45499368e-06
1.4456863e-06
1.44106125e-06
1.44861012e-06
1.44352823e-06
1.43442943e-06
1.42964635e-06
1.43682013e-06
1.43073977e-06
1.41993418e-06
1.41547986e-06
1.40681097e-06
1.4033013e-06
1.40268878e-06
1.40360987e-06
1.39741832e-06
1.38559113e-06
1.33989543e-06
1.35430958e-06
1.35137484e-06
1.34048872e-06
1.33649121e-06
1.3422658e-06
1.34567325e-06
1.33318708e-06
1.34002657e-06
1.33723024e-06
1.32253167e-06
1.31849159e-06
1.32781592e-06
1.31825401e-06
1.30689446e-06
1.30152827e-06
1.30746159e-06
1.2984127e-06
1.28535636e-06
1.28057118e-06
1.2752585e-06
1.27048464e-06
1.27180092e-06
1.27144227e-06
1.3176459e-06
1.3310025e-06
1.22580861e-06
1.22001813e-06
1.2256333e-06
1.22179006e-06
1.20528927e-06
1.24487204e-06
1.24332057e-06
1.22428303e-06
1.21980763e-06
1.21862201e-06
1.21899031e-06
1.20408914e-06
1.19273529e-06
1.18713729e-06
1.19012917e-06
1.18732885e-06
1.16573634e-06
1.16564529e-06
1.16621973e-06
1.14666612e-06
1.14224395e-06
1.14258655e-06
1.13482449e-06
1.12938094e-06
1.11330419e-06
1.10305398e-06
1.09637135e-06
1.09335343e-06
1.08673192e-06
1.07548437e-06
1.06670388e-06
1.04874993e-06
1.04081662e-06
1.03192521e-06
1.02295314e-06
1.0225131e-06
9.91012952e-07
9.97249693e-07
9.90648579e-07
9.85230316e-07
9.97614181e-07
9.85387756e-07
9.77817162e-07
9.66983617e-07
9.58077359e-07
9.54803071e-07
9.35713366e-07
9.1828846e-07
9.08257939e-07
9.07327027e-07
8.99722172e-07
8.91508963e-07
8.90535578e-07
8.8828379e-07
8.87831512e-07
8.7495827e-07
8.78619975e-07
8.96298295e-07
8.88465154e-07
8.77707008e-07
8.64872192e-07
8.49671924e-07
8.44336306e-07
8.1418989e-07
7.96391247e-07
7.95353826e-07
7.64679128e-07
7.80105753e-07
7.75743056e-07
7.7524805e-07
7.70729875e-07
7.69228306e-07
7.68890118e-07
7.61855196e-07
7.71364427e-07
7.76735742e-07
7.68953663e-07
7.63004929e-07
7.44199382e-07
7.33328415e-07
7.22909691e-07
7.16809361e-07
6.76433361e-07
6.59900949e-07
6.65789093e-07
6.49502499e-07
6.53328367e-07
6.49724322e-07
6.54907937e-07
6.5000825e-07
6.0513734e-07
5.98082632e-07
5.90643413e-07
5.51544669e-07
5.55223906e-07
5.47511702e-07
5.47350115e-07
5.56680567e-07
5.26522437e-07
5.08094746e-07
5.01966817e-07
4.97754216e-07
4.69619711e-07
4.60947694e-07
4.54653563e-07
4.49836061e-07
3.93418401e-07
3.74230521e-07
3.85401955e-07
3.87226866e-07
3.91317058e-07
3.90429747e-07
4.06770286e-07
4.04972382e-07
4.126349e-07
4.11089826e-07
4.02713783e-07
3.89153786e-07
4.18449844e-07
4.236108e-07
4.21000349e-07
4.23822476e-07
3.64964895e-07
3.66705696e-07
3.86519618e-07
3.88092e-07
3.88263357e-07
3.48014574e-07
3.34568386e-07
3.33077918e-07
3.40455052e-07
2.6150757e-07
2.48968129e-07
2.84030742e-07
2.9179443e-07
2.95385279e-07
3.09989893e-07
3.11785582e-07
3.17183309e-07
3.18775014e-07
3.16626965e-07
3.05629775e-07
3.34819632e-07
3.57916221e-07
3.65062985e-07
3.67067704e-07
3.09971732e-07
3.06402085e-07
3.24489423e-07
3.27441989e-07
3.49511744e-07
3.52066637e-07
3.40774228e-07
3.28375017e-07
3.4938677e-07
3.50452447e-07
3.5829435e-07
3.63120138e-07
2.96838762e-07
2.92748435e-07
3.38426115e-07
3.45043144e-07
3.4913177e-07
3.62319878e-07
3.18137224e-07
3.14637236e-07
3.28109684e-07
3.1916513e-07
3.14889767e-07
3.30261723e-07
3.40749136e-07
3.30942851e-07
3.18996369e-07
3.72290537e-07
3.85319225e-07
3.92687708e-07
4.04658228e-07
4.08690101e-07
4.09458789e-07
4.10197798e-07
3.99860145e-07
4.15316925e-07
4.37914614e-07
4.52133195e-07
4.59135536e-07
4.68492239e-07
4.62725973e-07
4.54581818e-07
4.7506575e-07
4.80661315e-07
4.73875084e-07
4.69493216e-07
5.14175036e-07
5.23431989e-07
5.30842135e-07
5.37258939e-07
5.40641792e-07
5.30427632e-07
5.40207754e-07
5.45751479e-07
5.61775232e-07
5.74245537e-07
5.81936235e-07
6.07365312e-07
5.61542618e-07
5.63014985e-07
5.83536245e-07
5.90122043e-07
6.03652251e-07
5.8003391e-07
5.79909393e-07
6.01147471e-07
6.05220538e-07
6.22242334e-07
6.30526249e-07
6.29852305e-07
6.44198972e-07
6.60144267e-07
6.69440613e-07
6.70090782e-07
6.71414546e-07
6.91256729e-07
7.09066852e-07
7.16254821e-07
6.77452248e-07
6.77201432e-07
7.0219405e-07
7.10102049e-07
7.09951765e-07
7.04513643e-07
7.45573478e-07
7.60506691e-07
7.67816413e-07
7.70573236e-07
7.52918848e-07
7.52589365e-07
7.77248781e-07
7.83436861e-07
7.43448609e-07
7.48416115e-07
7.75198017e-07
7.81847672e-07
7.40646531e-07
7.43271539e-07
7.6917349e-07
7.78621626e-07
7.80097215e-07
7.81691516e-07
7.85936136e-07
8.07829957e-07
8.15794937e-07
8.16965861e-07
8.14774344e-07
8.25867483e-07
8.46496793e-07
8.54088925e-07
8.17208503e-07
8.20495695e-07
8.47969909e-07
8.54947579e-07
8.16052963e-07
8.16812718e-07
8.44891394e-07
8.53057631e-07
8.55269223e-07
8.42375768e-07
8.67146908e-07
8.90205907e-07
8.9884014e-07
9.14379829e-07
9.18825869e-07
9.19737107e-07
8.98731789e-07
9.13998342e-07
9.16977547e-07
9.69742355e-07
9.68576616e-07
9.75979666e-07
9.98106661e-07
1.00457206e-06
1.00703225e-06
1.01474031e-06
1.0241338e-06
1.02853103e-06
1.05034759e-06
1.06192507e-06
1.06936516e-06
1.03504391e-06
1.04016466e-06
1.06814425e-06
1.07632164e-06
1.03166235e-06
1.03691377e-06
1.06796359e-06
1.07649075e-06
1.09241932e-06
1.10064962e-06
1.10978792e-06
1.11397049e-06
1.11469458e-06
1.1383254e-06
1.14632348e-06
1.15443689e-06
1.12281423e-06
1.13488511e-06
1.16331014e-06
1.1714087e-06
1.17978247e-06
1.18932868e-06
1.19821055e-06
1.1966097e-06
1.16457885e-06
1.21369626e-06
1.22186798e-06
1.19211472e-06
1.20810382e-06
1.23551861e-06
1.24271459e-06
1.2374854e-06
1.26781989e-06
1.27723169e-06
1.26522789e-06
1.29503074e-06
1.30147441e-06
1.31697737e-06
1.32767695e-06
1.33918276e-06
1.33430402e-06
1.28895498e-06
1.34590812e-06
1.35460053e-06
1.33320099e-06
1.34497263e-06
1.37456636e-06
1.38059893e-06
1.39551754e-06
1.3631732e-06
1.37495978e-06
1.40006411e-06
)
;

boundaryField
{
    closed
    {
        type            calculated;
        value           nonuniform List<scalar> 0();
    }
    open
    {
        type            calculated;
        value           nonuniform List<scalar> 0();
    }
    sides
    {
        type            empty;
        value           nonuniform List<scalar> 0();
    }
    procBoundary2to1
    {
        type            processor;
        value           uniform -1.73558431e-06;
    }
    procBoundary2to3
    {
        type            processor;
        value           uniform 1.40800222e-06;
    }
}


// ************************************************************************* //
