/*--------------------------------*- C++ -*----------------------------------*\
| =========                 |                                                 |
| \\      /  F ield         | OpenFOAM: The Open Source CFD Toolbox           |
|  \\    /   O peration     | Version:  2306                                  |
|   \\  /    A nd           | Website:  www.openfoam.com                      |
|    \\/     M anipulation  |                                                 |
\*---------------------------------------------------------------------------*/
FoamFile
{
    version     2.0;
    format      ascii;
    arch        "LSB;label=32;scalar=64";
    class       volScalarField;
    location    "0.0017";
    object      sourcePV;
}
// * * * * * * * * * * * * * * * * * * * * * * * * * * * * * * * * * * * * * //

dimensions      [1 -3 -1 0 0 0 0];

internalField   nonuniform List<scalar> 
530
(
0.172731067
0.162958844
0.00451768895
0.00626094044
0.00567566924
0.109519841
0.175368241
0.173494175
0.00404670877
0.00563870551
0.148661913
0.165813851
0.00379301022
0.00578061281
0.15576766
0.157263653
0.0036898322
0.00614215358
0.00558803067
0.124893555
0.159292369
0.177639619
0.177315728
0.00344935051
0.00522923829
0.00522029069
0.00526653807
0.107898733
0.174863343
0.173475202
0.00428510723
0.00566872054
0.145202535
0.154869478
0.0039248013
0.00614906568
0.00571309908
0.127320863
0.160070596
0.181814902
0.181885353
0.00348093527
0.0056408525
0.00483782711
0.139533985
0.173881904
0.00370795985
0.00551842987
0.00532922152
0.0057588455
0.0960170663
0.147186761
0.159922116
0.159812272
0.00432770722
0.00554639718
0.124128164
0.171894778
0.171011242
0.00450584088
0.00538020492
0.117423202
0.177508062
0.173161086
0.00451266473
0.00607555062
0.00576538833
0.115143555
0.168058005
0.166606906
0.00442973851
0.00587437281
0.140039929
0.146060263
0.00420515265
0.00632718863
0.00579180919
0.0905528892
0.145766213
0.160969021
0.160933063
0.00429998835
0.00535470291
0.127526084
0.182314097
0.181197662
0.00409211708
0.00536730563
0.155916087
0.173518174
0.00347889391
0.0053458609
0.00512401764
0.00536623657
0.124884982
0.169404458
0.188453812
0.188373471
0.00338046956
0.0055082416
0.0049916617
0.143884374
0.162833152
0.00388307131
0.00593756872
0.00534995584
0.131017878
0.143773173
0.00437045487
0.121140356
0.166708974
0.00420053391
0.00606997798
0.00547644287
0.113349862
0.157127173
0.17225576
0.172430598
0.00402588007
0.00597852784
0.005249377
0.12695346
0.166126504
0.00497003092
0.00545463331
0.112067872
0.173345363
0.163963544
0.00467632218
0.131918721
0.16580388
0.00427530886
0.00608030316
0.00551914667
0.117772981
0.174779517
0.174130342
0.00485666696
0.00578658006
0.144979255
0.145001206
0.00423332475
0.117383766
0.180661757
0.00465122832
0.0054128408
0.144153852
0.163171145
0.00440859824
0.00564990462
0.14942641
0.161455656
0.00427164428
0.00564231068
0.156736951
0.165107142
0.00402114336
0.00550367794
0.00541305493
0.00551204102
0.104549448
0.162586022
0.151812724
0.182511342
0.181605922
0.00401427406
0.00546160478
0.00506130992
0.00573629375
0.144248761
0.146796396
0.00412538852
0.127658941
0.191804994
0.00454594445
0.0050937724
0.156448636
0.174280228
0.00411385961
0.00530861888
0.167592171
0.176425453
0.00374367318
0.00519573225
0.00503504077
0.00520020375
0.130683545
0.17456543
0.19089894
0.193444232
0.0426897114
0.00509105613
0.00496248471
0.00557282202
0.00533230996
0.142861229
0.174225096
0.00500161467
0.0051201845
0.13064531
0.185374357
0.18145716
0.00476377401
0.00563422014
0.151337669
0.150976431
0.00451650362
0.13254866
0.177333934
0.00458846961
0.0058581478
0.00528355718
0.125364048
0.184340281
0.178067811
0.00466591824
0.00555761271
0.005570266
0.00579051705
0.119416665
0.148551401
0.00558911785
0.00600701698
0.119025253
0.147943149
0.168310203
0.168297865
0.00454145746
0.00570274876
0.00515520125
0.0584205661
0.173866052
0.163790218
0.00477579558
0.115984395
0.178137612
0.0055353673
0.00528626385
0.123687941
0.18331657
0.178535144
0.00469930249
0.00527038424
0.00555672133
0.00543213328
0.111573598
0.18280975
0.161626093
0.00461736381
0.119664267
0.175097569
0.00542153491
0.00532876263
0.130614533
0.161961584
0.187387247
0.186823004
0.00389313029
0.00507761599
0.00456833648
0.00523886169
0.00550033594
0.00547917287
0.125242659
0.182851821
0.180385591
0.00498469873
0.00546586514
0.147266004
0.165919596
0.00515364233
0.00558811017
0.135472764
0.163447534
0.187351064
0.187172433
0.00428952858
0.00535422313
0.00494680827
0.00567258317
0.146475982
0.148661228
0.00478884971
0.135901393
0.17865425
0.00476972043
0.00578041546
0.00495951049
0.130793173
0.168173724
0.00545347605
0.00558050464
0.143586669
0.160283767
0.00546456132
0.00560977499
0.135433353
0.162465292
0.191057124
0.190548101
0.00418583151
0.00505282037
0.00454896925
0.00520030484
0.00548726748
0.00539626791
0.113720644
0.161805952
0.174003549
0.175496474
0.00509927754
0.00512509663
0.135293213
0.182578991
0.17767003
0.00510788948
0.0053384535
0.142100322
0.168061816
0.00553606903
0.00510895321
0.128016885
0.192894384
0.1844255
0.00422777344
0.00510801653
0.00467650339
0.00519052
0.00555962901
0.0053297466
0.116403927
0.168672569
0.186635307
0.186479424
0.0044086524
0.00528292713
0.171444301
0.174513618
0.00432639408
0.00550191419
0.00516545794
0.0056782179
0.107901628
0.151254963
0.162949446
0.163436455
0.00518217821
0.00534433309
0.130527069
0.184844926
0.17800832
0.00478692581
0.00567579349
0.00540162399
0.141119861
0.142698243
0.00479717973
0.106848267
0.187450976
0.00571005426
0.00497750905
0.127743516
0.195065794
0.186111598
0.00431005786
0.00559788916
0.00493342199
0.00608852498
0.00574244216
0.118687958
0.149840705
0.171557611
0.170730397
0.00469985508
0.00593919059
0.00519199582
0.126317416
0.165158518
0.00551422693
0.00541982962
0.116520328
0.173097822
0.167763582
0.0049460868
0.0060855928
0.00561289307
0.109808932
0.160037685
0.154719747
0.18865876
0.18766224
0.00435742027
0.0053330193
0.0051887793
0.162664168
0.168230583
0.00409637081
0.00573787152
0.00496711856
0.145119387
0.16229068
0.00441020087
0.00608361945
0.0051783969
0.122740195
0.175420608
0.173887419
0.00514995554
0.00526324771
0.124065806
0.179449187
0.177380098
0.00485580546
0.0054104256
0.140491563
0.17070576
0.00496579129
0.00522373002
0.125753997
0.187614119
0.182318702
0.00439254342
0.00576974251
0.00520346791
0.132526654
0.163430035
0.00482516728
0.00571758495
0.141123744
0.157222884
0.00480040332
0.00581009521
0.136376747
0.154558386
0.00509973094
0.00566714576
0.116295045
0.164140396
0.163560689
0.00522479891
0.0055272687
0.116577061
0.169382931
0.16772717
0.00489203512
0.00568208807
0.136735512
0.158062147
0.00470175734
0.00565721563
0.137423149
0.163131777
0.00485300131
0.00518453394
0.124726715
0.190434421
0.186912907
0.0037908073
0.00537776537
0.00462291211
0.00574040539
0.00555425273
0.139341767
0.176598975
0.204266409
0.203992231
0.00311767572
0.00522733828
0.00426003359
0.00583969316
0.00553248073
0.115402958
0.158007285
0.172049545
0.171530175
0.00397656272
0.00552000347
0.155829618
0.1667466
0.00385760921
0.00562293138
0.158150203
0.165158635
0.00356794865
0.00567983557
0.00507768101
0.0058107112
0.109160597
0.148639255
0.163653031
0.162783959
0.00423664935
0.00585390419
0.149306168
0.150193198
0.00399867468
0.0062918282
0.00555175414
0.0944585611
0.150341501
0.16102763
0.160555141
0.00440991913
0.00599432388
0.140906333
0.140183567
0.00427107003
0.115767292
0.155901007
0.00433574238
0.125859928
0.161917135
0.00403598849
0.00612694564
0.00543009923
0.100376003
0.155869665
0.169001645
0.16856181
0.0039143919
0.00568150558
0.159533584
0.16265221
0.00349932342
0.0059684642
0.00536573798
0.138245591
0.157755677
0.00396261008
0.0061906409
)
;

boundaryField
{
    closed
    {
        type            calculated;
        value           nonuniform List<scalar> 0();
    }
    open
    {
        type            calculated;
        value           nonuniform List<scalar> 0();
    }
    sides
    {
        type            empty;
    }
    procBoundary2to1
    {
        type            processor;
        value           uniform 0;
    }
    procBoundary2to3
    {
        type            processor;
        value           uniform 0;
    }
}


// ************************************************************************* //
