/*--------------------------------*- C++ -*----------------------------------*\
| =========                 |                                                 |
| \\      /  F ield         | OpenFOAM: The Open Source CFD Toolbox           |
|  \\    /   O peration     | Version:  2306                                  |
|   \\  /    A nd           | Website:  www.openfoam.com                      |
|    \\/     M anipulation  |                                                 |
\*---------------------------------------------------------------------------*/
FoamFile
{
    version     2.0;
    format      ascii;
    arch        "LSB;label=32;scalar=64";
    class       volScalarField;
    location    "0.0017";
    object      T;
}
// * * * * * * * * * * * * * * * * * * * * * * * * * * * * * * * * * * * * * //

dimensions      [0 0 0 1 0 0 0];

internalField   nonuniform List<scalar> 
530
(
321.106869
322.885674
339.394754
339.96037
339.542362
329.120818
320.597075
320.841016
339.049977
340.03818
325.769344
322.327847
339.137417
339.950514
324.395718
323.975784
339.263883
339.799235
339.570137
329.495223
323.739419
320.121246
320.191395
339.116601
339.383304
339.452094
339.403443
329.372757
320.706636
320.894706
339.066067
339.802211
326.392857
324.458495
339.351301
339.795111
339.682128
329.464695
323.564518
319.283408
319.274302
339.278399
339.554914
339.496615
327.356474
320.857475
339.247769
339.58961
339.477886
339.696231
329.599142
325.945322
323.579437
323.543868
339.389602
339.685816
329.444899
321.266914
321.376818
339.316976
339.679412
329.3688
320.152468
320.95602
339.419412
339.831169
339.632266
329.235279
322.033341
322.188709
339.166827
339.919488
327.340746
326.096127
339.390512
339.787918
339.634035
329.660199
326.236187
323.362801
323.355283
339.362969
339.526496
329.47446
319.210039
319.390961
338.985616
339.662954
324.388252
320.910501
339.116375
339.607332
339.446255
339.659514
329.540166
321.755413
317.956625
317.973015
339.161489
339.506401
339.461859
326.579624
323.022376
339.28604
339.56215
339.610296
328.923982
326.616849
339.501141
329.425859
322.251026
339.472592
339.706793
339.718652
329.331536
324.099649
321.147181
321.118352
339.541313
339.787914
339.729315
329.339043
322.362055
339.71865
339.617871
329.199598
320.968698
322.70709
339.596057
328.625927
322.416564
339.639486
339.733203
339.787613
329.339557
320.685262
320.765695
339.483405
339.819103
326.368926
326.313715
339.454964
329.328793
319.519531
339.493696
339.577465
326.525233
322.937854
339.333625
339.623904
325.592553
323.254791
339.266301
339.616791
324.190038
322.557943
339.406638
339.532607
339.64151
339.493924
329.426964
323.12087
325.073744
319.168435
319.319855
339.050736
339.60509
339.224518
339.743431
326.608886
325.996812
339.352357
329.437237
317.271851
339.436046
339.286716
324.24248
320.809969
339.151955
339.309914
322.132761
320.373973
339.17155
339.34861
339.338844
339.431133
329.074874
320.762237
317.463539
316.943619
332.81883
339.37812
339.683697
339.553254
339.492151
326.703598
320.816075
339.73818
339.358173
328.873389
318.587744
319.332853
339.290935
339.772363
325.217528
325.206341
339.608349
328.533019
320.179206
339.762433
339.574134
339.731793
329.545185
318.790673
320.002723
339.566494
339.785021
339.687805
339.882409
329.429994
325.650123
339.920787
339.809609
329.347243
325.830385
321.923152
321.939655
339.598828
339.484176
339.479586
331.34207
320.866856
322.802659
339.574535
329.326773
320.03684
339.952109
339.407627
329.431326
319.006021
319.932483
339.490738
339.464793
339.581709
339.500814
329.557962
319.107619
323.211335
339.362966
329.449471
320.666848
339.799537
339.204149
329.049754
323.295545
318.174021
318.29098
339.444863
339.292917
339.446696
339.421676
339.49687
339.509041
329.59093
319.091852
319.545589
339.618273
339.786351
325.950665
322.379585
339.782197
339.680165
328.176071
322.90496
318.180089
318.212761
339.675213
339.659091
339.477238
339.827951
326.157687
325.630573
339.877001
327.926906
319.9206
340.126429
339.473661
339.779156
328.970864
321.986229
340.033124
339.580287
326.571221
323.50483
340.001667
339.558055
328.17762
323.132888
317.429883
317.532754
339.719165
339.385922
339.471822
339.475286
339.396327
339.494548
329.604265
323.255974
320.811583
320.557518
340.01692
339.314179
328.143651
319.159207
320.103229
339.494641
339.444227
326.993697
322.060267
339.880724
339.141274
329.555481
317.02892
318.768615
339.300919
339.352541
339.226095
339.437221
339.281245
339.509608
329.729257
321.897376
318.324034
318.351502
339.650501
339.588534
321.368901
320.71741
339.698751
339.610827
339.421748
339.671587
329.760158
325.219663
323.00853
322.874154
339.9795
339.589279
329.019195
318.686707
320.031583
339.816787
339.491693
339.65398
327.141691
326.781859
339.906686
329.240321
318.161321
340.41097
339.37143
329.283855
316.593607
318.410313
339.483304
339.799244
339.408647
339.855103
339.451751
329.355832
325.527501
321.272057
321.468282
340.002716
339.603871
339.632091
329.54415
322.581215
340.124193
339.475382
329.360446
321.041583
322.015691
339.59653
339.673422
339.383313
329.426826
323.616013
324.524057
317.916669
318.114822
339.703846
339.450013
339.45568
323.044158
321.961582
339.802861
339.54629
339.499727
326.349233
323.107863
339.810924
339.671374
339.414945
329.494256
320.582042
320.841652
339.842002
339.501514
329.460775
319.782308
320.14244
339.585827
339.712355
327.246616
321.471781
339.841
339.567557
329.539456
318.128807
319.175736
339.589102
339.593635
339.585112
328.665101
322.874558
339.806404
339.776319
327.114455
324.029661
339.757996
339.786243
327.977263
324.571098
339.915762
339.594988
329.362676
322.780678
322.835605
339.876103
339.56774
329.337984
321.7777
322.005948
339.567809
339.801334
327.995877
323.891016
339.580428
339.638574
327.848819
322.982065
339.678413
339.300291
329.594696
317.544811
318.263753
339.082679
339.593897
339.133144
339.697733
339.403054
327.402332
320.344785
314.71224
314.771458
339.234238
339.443394
339.137318
339.582051
339.417292
329.599929
323.970835
321.249377
321.310763
339.286327
339.654451
324.44949
322.210255
339.21448
339.766408
324.015837
322.500527
339.202294
339.773389
339.251798
339.831514
329.620438
325.651679
322.88821
322.954592
339.432223
339.855932
325.629514
325.316991
339.564541
339.837991
339.618347
329.558872
325.324286
323.360888
323.367602
339.540088
339.913442
327.206912
327.181177
339.463154
329.31912
324.373793
339.6358
329.618299
323.197803
339.54612
339.641767
339.601887
329.495108
324.303547
321.819513
321.845874
339.423633
339.867174
323.658964
322.946742
339.478076
339.857423
339.725415
327.558459
323.918163
339.569718
339.854084
)
;

boundaryField
{
    closed
    {
        type            fixedValue;
        value           nonuniform List<scalar> 0();
    }
    open
    {
        type            zeroGradient;
    }
    sides
    {
        type            empty;
    }
    procBoundary2to1
    {
        type            processor;
        value           uniform 329.154835;
    }
    procBoundary2to3
    {
        type            processor;
        value           uniform 339.579775;
    }
}


// ************************************************************************* //
