/*--------------------------------*- C++ -*----------------------------------*\
| =========                 |                                                 |
| \\      /  F ield         | OpenFOAM: The Open Source CFD Toolbox           |
|  \\    /   O peration     | Version:  2306                                  |
|   \\  /    A nd           | Website:  www.openfoam.com                      |
|    \\/     M anipulation  |                                                 |
\*---------------------------------------------------------------------------*/
FoamFile
{
    version     2.0;
    format      ascii;
    arch        "LSB;label=32;scalar=64";
    class       volScalarField;
    location    "0.00124";
    object      H2O;
}
// * * * * * * * * * * * * * * * * * * * * * * * * * * * * * * * * * * * * * //

dimensions      [0 0 0 0 0 0 0];

internalField   nonuniform List<scalar> 
531
(
0.00552410609
0.00730615289
0.00731005736
0.000895485183
0.00105539667
0.00511115102
0.00729248905
0.00719937801
0.000921301706
0.00601110237
0.00722350429
0.000809509106
0.00110327241
0.00101982545
0.00628317284
0.00722777617
0.000886277134
0.00107295407
0.00580933132
0.00688492685
0.00718052136
0.00718668059
0.000896226617
0.00108243221
0.00565635757
0.00684814124
0.00734450094
0.00734635366
0.000844853136
0.0010483966
0.00700700304
0.00735787393
0.000783505803
0.00104090674
0.00100654471
0.00104455146
0.00525824437
0.00734316006
0.00734510535
0.000917860069
0.00103721301
0.00558324734
0.00757958653
0.00752369246
0.000906623902
0.00109958073
0.00106069497
0.0054911376
0.00758165584
0.00719227503
0.000919484239
0.00555337307
0.00735829629
0.000908558015
0.00106922223
0.0065854219
0.00687527843
0.000911538238
0.00111928432
0.00421905786
0.00659513094
0.00733131793
0.00733486444
0.000894836545
0.001104594
0.0010634742
0.00608559948
0.00751420578
0.00751787185
0.000923265127
0.00102911399
0.00598065755
0.00750401618
0.00750070989
0.00093449628
0.00105208366
0.00669161432
0.00711101812
0.000893082095
0.0010815445
0.00690366958
0.00694228969
0.000869629169
0.00112996724
0.00106959012
0.00554529876
0.00700514648
0.00732609964
0.00732528479
0.000880916423
0.00110830125
0.00105085357
0.00611533487
0.00754793936
0.00754899345
0.000932800456
0.00101296786
0.00633237624
0.00776502676
0.00775314391
0.000923307612
0.00103460331
0.00680717513
0.00720498787
0.000897001016
0.00107685956
0.00694765734
0.00697848732
0.000876524068
0.00112435108
0.0010558043
0.00614638326
0.00718936335
0.00753703566
0.00754341189
0.000873039475
0.00109760585
0.00103779171
0.00482630423
0.00732061688
0.00732140374
0.000951430028
0.00106441165
0.00107397263
0.0010693883
0.00570875284
0.00712046692
0.00749693047
0.00752012109
0.000888929397
0.00100164632
0.00655626589
0.00794958775
0.00775303391
0.000899824785
0.00107668802
0.00102010763
0.00652355818
0.00699584091
0.000922278837
0.0011285167
0.00107422186
0.00529114349
0.00708446268
0.00690765419
0.00756675673
0.0075418857
0.000859159776
0.00109189682
0.000884733792
0.00662762277
0.00791629666
0.00767565648
0.000949162576
0.00104551337
0.00106793116
0.00106566378
0.00552730833
0.00703685504
0.00741104675
0.00741396146
0.000885564372
0.00105046373
0.00103813694
0.00106019257
0.00513937893
0.00718134378
0.00700762312
0.00768415026
0.0076823098
0.000899398814
0.00103381372
0.00104492561
0.00105260765
0.00510457494
0.00721136583
0.00702285895
0.00773563703
0.00772628628
0.000892927841
0.00102258245
0.00103845058
0.00103504536
0.00614962806
0.00729539261
0.00768721218
0.00768223179
0.000848337825
0.00106639971
0.000952871134
0.00668975802
0.00749831318
0.000970388206
0.00106982273
0.00643102573
0.00679532616
0.000996271069
0.00111435992
0.00665322634
0.00671831648
0.000907932832
0.00113457162
0.00187583884
0.00661069576
0.00701861806
0.00715606241
0.0070912899
0.00097661107
0.00555853563
0.00726036568
0.000992095214
0.00106960092
0.00661813458
0.00698349239
0.00100065579
0.00109770055
0.00572660641
0.00679487774
0.00719704992
0.0071914491
0.000944464948
0.00111699504
0.00103118018
0.00546973835
0.00714286064
0.00734660993
0.00734201009
0.000923186993
0.00111026674
0.00104093465
0.00555671983
0.00744207048
0.00702408028
0.000979940305
0.0058729392
0.00720215282
0.000876019014
0.00110272821
0.00092295013
0.00661548815
0.0075221742
0.00749620019
0.00747748248
0.00091029112
0.00105639564
0.00104856499
0.0010715422
0.0056510701
0.00698831434
0.00727524662
0.00727269904
0.000940625495
0.00111088467
0.00105421045
0.00531544886
0.00723254676
0.00722877309
0.00101547934
0.00104831435
0.00565641947
0.00747938605
0.00704839907
0.000965404854
0.00583515623
0.00742491257
0.000993974537
0.00105452009
0.00676382351
0.00713286185
0.00097804771
0.00106702388
0.00678588972
0.0071863203
0.000989969141
0.00106266794
0.00458375532
0.00731837828
0.00731915414
0.0010088241
0.00109567341
0.00435077305
0.00666712193
0.00714623329
0.00709300779
0.000986719217
0.00649297805
0.00733632591
0.000929474285
0.00109023907
0.000987815041
0.00661455316
0.0075256292
0.000999942059
0.00104511759
0.00638287494
0.0071615767
0.00746421372
0.00745658456
0.000911571295
0.00103536558
0.0010375694
0.00103792655
0.00618637999
0.00764653757
0.00763982875
0.000991706952
0.0010332532
0.00675513118
0.00733420696
0.00100719388
0.00105095389
0.00583422711
0.00736033518
0.00713281377
0.000990552638
0.00108610643
0.00105927236
0.0070750632
0.00712558671
0.00088392852
0.0068518093
0.00833653384
0.000869677429
0.000979501029
0.000941924876
0.00100032103
0.00774239937
0.00773879247
0.000839809921
0.00704676634
0.00848392047
0.000866359732
0.000991356032
0.00095448823
0.00101779759
0.00748082614
0.00750988612
0.000859232659
0.00700593584
0.00849324691
0.000872636611
0.000988611749
0.000962777927
0.00102066838
0.00729734422
0.00735339151
0.000895901435
0.00683390302
0.00782666031
0.000909520612
0.00110018564
0.000996536577
0.00551613547
0.0075840908
0.00756496254
0.00102899668
0.00102755347
0.00600264997
0.00785684456
0.00762566021
0.000908318105
0.00103893138
0.000978643166
0.0074676513
0.00745366216
0.000875548722
0.00626562222
0.00779453746
0.00098967627
0.00103845714
0.00687407001
0.00724958821
0.000964824387
0.0010685511
0.00700419424
0.00718782499
0.000947164703
0.00106391278
0.00729828532
0.00742965176
0.000874256556
0.00102510771
0.000963561596
0.00101158716
0.00724634455
0.00774469598
0.000963541911
0.00103930496
0.00636079584
0.00708148183
0.00728411774
0.00727198587
0.000979299467
0.00106584566
0.00604546746
0.00706456665
0.00703582309
0.0010667687
0.00106708716
0.00539470534
0.00758159818
0.00756081181
0.000957836997
0.00103307997
0.00743971106
0.00759922634
0.000842598247
0.00103601263
0.000937579386
0.00104918818
0.00103860962
0.00718830991
0.00766235037
0.000933568899
0.00101765922
0.00707615629
0.00773896317
0.000974260038
0.000992619155
0.00654663799
0.00810349496
0.0079166234
0.000932008499
0.00104677058
0.00102936878
0.00701917693
0.00770747411
0.000981234715
0.000993200722
0.00647128725
0.00807793604
0.00788269206
0.000933618722
0.00104757416
0.00103634752
0.00697901312
0.00753486418
0.00098371779
0.00102700944
0.00637817706
0.00752419538
0.00751178025
0.00101436114
0.00104890369
0.00652532477
0.00715827225
0.00102320072
0.00106265096
0.00571150353
0.00732194628
0.00731687524
0.00101393617
0.00105820239
0.00655208703
0.00716094188
0.00101971552
0.00106140041
0.00574331935
0.0073342292
0.00731718896
0.00100856042
0.00105707941
0.00695022459
0.00731781244
0.000901439626
0.00105640996
0.000990092309
0.00726322971
0.00784078872
0.000913826499
0.00102628354
0.00708925728
0.00736315074
0.00097655952
0.00106432016
0.00651997116
0.00706472574
0.00766544371
0.00763975706
0.00088949187
0.0010664832
0.000964758137
0.00687694005
0.0075549767
0.000884648393
0.00107628885
0.000957227941
0.00676179023
0.00780671419
0.000952416604
0.00101762788
0.0070291695
0.00761042294
0.000978563249
0.00102602129
0.00493113004
0.00769907388
0.00767517906
0.000978596375
0.00103517521
0.00706503281
0.00739102297
0.000931057168
0.00105903448
0.00727302704
0.00729281269
0.00089807997
0.0010843645
0.0010084174
0.0068623303
0.00772105478
0.000983573132
0.000996427705
0.00650270238
0.00821597846
0.00799134981
0.000902334023
0.00104237703
0.000979098068
0.00704279387
0.00780892143
0.000910729552
0.00102796836
0.00756530824
0.00758396464
0.000858805189
0.0010671317
0.000975527768
0.00688885895
0.0076655117
0.00097396431
)
;

boundaryField
{
    closed
    {
        type            calculated;
        value           nonuniform List<scalar> 0();
    }
    open
    {
        type            calculated;
        value           nonuniform List<scalar> 0();
    }
    sides
    {
        type            empty;
    }
    procBoundary3to2
    {
        type            processor;
        value           uniform 0.00104985823;
    }
    procBoundary3to4
    {
        type            processor;
        value           uniform 0.00104341477;
    }
}


// ************************************************************************* //
