/*--------------------------------*- C++ -*----------------------------------*\
| =========                 |                                                 |
| \\      /  F ield         | OpenFOAM: The Open Source CFD Toolbox           |
|  \\    /   O peration     | Version:  2306                                  |
|   \\  /    A nd           | Website:  www.openfoam.com                      |
|    \\/     M anipulation  |                                                 |
\*---------------------------------------------------------------------------*/
FoamFile
{
    version     2.0;
    format      ascii;
    arch        "LSB;label=32;scalar=64";
    class       volScalarField;
    location    "0.00124";
    object      T;
}
// * * * * * * * * * * * * * * * * * * * * * * * * * * * * * * * * * * * * * //

dimensions      [0 0 0 1 0 0 0];

internalField   nonuniform List<scalar> 
531
(
329.390651
323.123142
323.106467
339.296567
339.722746
329.562845
323.229823
323.935534
339.525287
329.325899
323.754279
339.368312
339.842746
339.761387
329.344149
323.724479
339.461902
339.832844
329.339475
326.287017
324.074091
324.032568
339.337147
339.810008
329.499375
326.559775
322.826856
322.834842
339.131876
339.870138
325.376968
322.751178
339.073685
339.822812
339.453307
339.788841
329.460755
322.846837
322.842264
339.45175
339.714207
329.278066
321.050737
321.505356
339.559842
340.014686
339.811665
329.167033
321.042376
323.995349
339.62673
329.157835
322.742932
339.654896
339.904622
328.492171
326.355242
339.653715
339.902985
330.198206
328.415737
322.944817
322.926267
339.702072
339.971487
339.949301
329.177409
321.559727
321.549469
339.608879
339.796513
329.163499
321.618624
321.684603
339.338456
340.026172
327.726389
324.600849
339.429887
340.008056
326.147688
325.855366
339.531588
339.915578
339.824959
329.326006
325.390719
322.98117
322.990426
339.504676
339.774358
339.76437
329.344997
321.288446
321.303456
339.463295
339.690117
329.31303
319.609344
319.770247
339.216822
339.92854
326.870778
323.898054
339.346384
339.906598
325.82072
325.587886
339.481564
339.874684
339.80341
329.305763
324.009522
321.38769
321.339434
339.481688
339.744753
339.633501
329.691588
323.016834
323.019537
339.483646
339.764116
339.784572
339.877778
329.228265
324.529554
321.701882
321.533601
339.618706
339.904681
328.696266
318.233154
319.766061
339.653462
339.87252
339.916219
328.941427
325.459299
339.692135
339.915409
339.792349
329.322627
324.79464
326.113275
321.100007
321.359154
338.6487
339.750807
339.156221
328.171323
318.340649
320.348145
339.114475
339.792137
339.56827
339.855636
329.397207
325.153793
322.341448
322.326309
339.590138
339.772935
339.804661
339.760522
329.423019
324.069839
325.371218
320.255793
320.29256
339.466391
339.68883
339.72864
339.666332
329.469304
323.841684
325.257753
319.856776
319.965931
339.392058
339.804524
339.671468
339.842711
329.389436
323.211607
320.246343
320.289207
339.539304
339.82966
339.823428
327.714719
321.682439
339.772068
339.85421
329.413202
326.947289
339.702801
340.042573
328.00868
327.506828
339.248141
340.045542
334.840578
328.277198
325.288966
324.266077
324.746953
340.019035
329.198049
323.489652
340.02016
340.174684
328.225305
325.547763
340.107017
340.059042
329.019148
326.947561
323.960145
324.000587
339.950462
339.98434
339.975981
329.230913
324.363051
322.836633
322.874879
339.742162
339.977214
339.850719
329.22849
322.102487
325.248756
339.74263
329.442782
323.915013
339.551627
339.703141
339.755951
328.267977
321.465482
321.697409
321.826438
339.608352
339.740092
339.800151
339.942818
329.244256
325.51381
323.373032
323.395568
339.934944
340.068184
340.024922
329.22063
323.693323
323.723626
340.021824
339.969911
329.051216
321.832314
325.065171
339.960739
329.039055
322.248115
340.053669
339.952519
327.168285
324.437124
339.993415
339.910582
327.007448
324.036021
340.020124
339.807262
329.734912
323.046487
323.045133
339.958499
339.867295
330.025475
327.895384
324.336577
324.734474
339.958534
329.172604
322.909988
339.878316
339.876822
339.85905
328.267706
321.475276
339.971044
339.762857
329.35032
324.216319
321.939963
321.993094
339.694865
339.664663
339.753803
339.776173
329.350549
320.545014
320.620868
339.787391
339.803209
327.242872
322.917097
339.914481
339.581348
329.302937
322.704938
324.434787
339.522027
339.501161
339.527454
324.865951
324.485378
339.455208
326.539036
315.122533
339.195704
339.057821
339.019237
339.135983
319.745871
319.788273
338.998723
325.074651
313.873943
338.981608
338.822397
338.875082
339.044908
321.753593
321.548259
339.081536
325.384173
313.830603
339.171993
338.970488
339.081002
339.203876
323.174124
322.754463
339.386673
326.672978
319.113319
339.529573
339.27624
339.395427
329.713808
320.994316
321.143583
339.57423
339.266573
329.564542
318.842386
320.698193
339.283025
339.408264
339.425588
321.903557
321.999986
339.612787
329.688346
319.386146
339.604539
339.53183
326.371349
323.553907
339.609013
339.648934
325.398194
324.019904
339.488945
339.577725
323.176524
322.193241
339.485073
339.618774
339.491435
339.73187
323.583426
319.805832
339.857336
339.663781
329.415909
324.817663
323.301633
323.388113
339.902836
339.697293
329.335155
324.945398
325.161538
339.783428
339.534526
329.387529
321.019754
321.216508
339.478788
339.73632
322.105566
320.917471
339.443354
339.625988
339.386
339.631777
339.464652
324.017899
320.407624
339.635791
339.433412
324.859528
319.807323
339.594936
339.328734
328.800034
316.947269
318.474081
339.27939
339.47828
339.404566
325.28611
320.050034
339.652302
339.395048
329.345154
317.168303
318.755848
339.437584
339.648805
339.580388
325.585259
321.38773
339.845464
339.556164
329.331491
321.457748
321.590892
339.60708
339.805545
328.945468
324.24274
339.892867
339.664467
329.224627
323.008419
323.060617
339.820415
339.863006
328.734173
324.223182
339.994632
339.626727
329.161451
322.907931
323.058436
339.54892
339.849156
325.801695
323.048039
339.597699
339.760654
339.655563
323.461642
319.062956
339.655191
339.577447
324.761597
322.688852
339.511595
339.403112
329.000066
324.937613
320.383718
320.562716
339.363897
339.350568
339.432877
326.350289
321.226255
339.397611
339.523404
339.469717
327.198746
319.286164
339.646935
339.373114
325.210522
320.788187
339.762568
339.296305
329.543143
320.109465
320.349705
339.340395
339.716605
324.940891
322.487866
339.281711
339.5625
323.369585
323.225874
339.241799
339.507917
339.40607
326.457124
319.934804
339.38541
339.241924
329.126553
316.052617
317.88367
339.053674
339.350481
339.264892
325.108454
319.257015
339.199024
339.292887
321.149083
321.004122
339.14248
339.421412
339.329028
326.260283
320.353178
339.275957
)
;

boundaryField
{
    closed
    {
        type            fixedValue;
        value           nonuniform List<scalar> 0();
    }
    open
    {
        type            zeroGradient;
    }
    sides
    {
        type            empty;
    }
    procBoundary3to2
    {
        type            processor;
        value           uniform 339.830514;
    }
    procBoundary3to4
    {
        type            processor;
        value           uniform 339.166018;
    }
}


// ************************************************************************* //
