/*--------------------------------*- C++ -*----------------------------------*\
| =========                 |                                                 |
| \\      /  F ield         | OpenFOAM: The Open Source CFD Toolbox           |
|  \\    /   O peration     | Version:  2306                                  |
|   \\  /    A nd           | Website:  www.openfoam.com                      |
|    \\/     M anipulation  |                                                 |
\*---------------------------------------------------------------------------*/
FoamFile
{
    version     2.0;
    format      ascii;
    arch        "LSB;label=32;scalar=64";
    class       volVectorField;
    location    "0.00124";
    object      U;
}
// * * * * * * * * * * * * * * * * * * * * * * * * * * * * * * * * * * * * * //

dimensions      [0 1 -1 0 0 0 0];

internalField   nonuniform List<vector> 
531
(
(0.442847209 0 0)
(0.43178988 0 0)
(0.425850382 0 0)
(0.434713947 0 0)
(0.440200281 0 0)
(0.429195131 0 0)
(0.420487447 0 0)
(0.419319822 0 0)
(0.422119352 0 0)
(0.416379265 0 0)
(0.412904734 0 0)
(0.422147979 0 0)
(0.427623534 0 0)
(0.418152985 0 0)
(0.402849192 0 0)
(0.401633518 0 0)
(0.412474652 0 0)
(0.414006754 0 0)
(0.405033864 0 0)
(0.398732964 0 0)
(0.395052622 0 0)
(0.389587345 0 0)
(0.396626852 0 0)
(0.402799335 0 0)
(0.394001639 0 0)
(0.38730302 0 0)
(0.382547206 0 0)
(0.376844067 0 0)
(0.383756238 0 0)
(0.387994558 0 0)
(0.377734192 0 0)
(0.376912852 0 0)
(0.386472387 0 0)
(0.391457864 0 0)
(0.389991054 0 0)
(0.383901916 0 0)
(0.373754212 0 0)
(0.365747654 0 0)
(0.361331117 0 0)
(0.369537905 0 0)
(0.374786079 0 0)
(0.364458418 0 0)
(0.355435453 0 0)
(0.354463368 0 0)
(0.362707453 0 0)
(0.367534312 0 0)
(0.362571757 0 0)
(0.352092167 0 0)
(0.346084855 0 0)
(0.347387639 0 0)
(0.350320773 0 0)
(0.345677459 0 0)
(0.343080909 0 0)
(0.350292541 0 0)
(0.350522688 0 0)
(0.343311033 0 0)
(0.343256396 0 0)
(0.350441917 0 0)
(0.35107065 0 0)
(0.344778522 0 0)
(0.339975328 0 0)
(0.335651698 0 0)
(0.33294082 0 0)
(0.341103499 0 0)
(0.348712497 0 0)
(0.344380555 0 0)
(0.333747831 0 0)
(0.32635236 0 0)
(0.324395874 0 0)
(0.333899653 0 0)
(0.339168461 0 0)
(0.329626318 0 0)
(0.320975633 0 0)
(0.318104762 0 0)
(0.326080441 0 0)
(0.329559017 0 0)
(0.322734188 0 0)
(0.323148372 0 0)
(0.330666165 0 0)
(0.329934603 0 0)
(0.322922137 0 0)
(0.324452555 0 0)
(0.332819811 0 0)
(0.336338601 0 0)
(0.332440073 0 0)
(0.323849606 0 0)
(0.318562311 0 0)
(0.315779776 0 0)
(0.320073012 0 0)
(0.329608784 0 0)
(0.331438103 0 0)
(0.327697749 0 0)
(0.317829666 0 0)
(0.310384362 0 0)
(0.30798145 0 0)
(0.316964373 0 0)
(0.322084356 0 0)
(0.312744254 0 0)
(0.304396504 0 0)
(0.302968018 0 0)
(0.312387899 0 0)
(0.315867246 0 0)
(0.308729063 0 0)
(0.308968924 0 0)
(0.31627107 0 0)
(0.31541052 0 0)
(0.308390247 0 0)
(0.309816615 0 0)
(0.317913781 0 0)
(0.321241657 0 0)
(0.318047692 0 0)
(0.309811116 0 0)
(0.304369617 0 0)
(0.302238314 0 0)
(0.300399274 0 0)
(0.308496968 0 0)
(0.316000167 0 0)
(0.312476592 0 0)
(0.303951128 0 0)
(0.297348991 0 0)
(0.294643527 0 0)
(0.300977845 0 0)
(0.306549971 0 0)
(0.305049167 0 0)
(0.300146845 0 0)
(0.292545486 0 0)
(0.28798481 0 0)
(0.286457878 0 0)
(0.289880888 0 0)
(0.298965395 0 0)
(0.2992042 0 0)
(0.291732202 0 0)
(0.285647141 0 0)
(0.285535051 0 0)
(0.293550816 0 0)
(0.297759921 0 0)
(0.297673138 0 0)
(0.290538704 0 0)
(0.286806197 0 0)
(0.293256568 0 0)
(0.295797906 0 0)
(0.292239146 0 0)
(0.284969108 0 0)
(0.281297576 0 0)
(0.279376276 0 0)
(0.274191892 0 0)
(0.270923459 0 0)
(0.277590258 0 0)
(0.283977601 0 0)
(0.285423942 0 0)
(0.282123136 0 0)
(0.274127689 0 0)
(0.269081951 0 0)
(0.273523908 0 0)
(0.276881894 0 0)
(0.275698261 0 0)
(0.271272516 0 0)
(0.264114293 0 0)
(0.259288965 0 0)
(0.256546566 0 0)
(0.259158597 0 0)
(0.266306372 0 0)
(0.267986305 0 0)
(0.26682896 0 0)
(0.262946142 0 0)
(0.256823818 0 0)
(0.253216463 0 0)
(0.251479578 0 0)
(0.248518008 0 0)
(0.245918777 0 0)
(0.252218446 0 0)
(0.258691674 0 0)
(0.25727852 0 0)
(0.253006428 0 0)
(0.246797783 0 0)
(0.242619015 0 0)
(0.239964246 0 0)
(0.236331407 0 0)
(0.239957002 0 0)
(0.247734373 0 0)
(0.248562118 0 0)
(0.247584686 0 0)
(0.243576471 0 0)
(0.236238021 0 0)
(0.230479949 0 0)
(0.227809048 0 0)
(0.232687268 0 0)
(0.24135699 0 0)
(0.242356726 0 0)
(0.238335428 0 0)
(0.233128034 0 0)
(0.234068979 0 0)
(0.239750296 0 0)
(0.239598373 0 0)
(0.233821016 0 0)
(0.23214557 0 0)
(0.235270266 0 0)
(0.233485929 0 0)
(0.227005298 0 0)
(0.225746965 0 0)
(0.227933279 0 0)
(0.227947873 0 0)
(0.236498138 0 0)
(0.24470007 0 0)
(0.238504574 0 0)
(0.231407011 0 0)
(0.230597824 0 0)
(0.23288004 0 0)
(0.230308193 0 0)
(0.228392126 0 0)
(0.232822652 0 0)
(0.232231174 0 0)
(0.227573401 0 0)
(0.228283297 0 0)
(0.233434816 0 0)
(0.233037997 0 0)
(0.227184519 0 0)
(0.222843114 0 0)
(0.220294335 0 0)
(0.219077704 0 0)
(0.224174157 0 0)
(0.22849274 0 0)
(0.224223035 0 0)
(0.216811291 0 0)
(0.212573859 0 0)
(0.210928295 0 0)
(0.215361752 0 0)
(0.222269976 0 0)
(0.222714108 0 0)
(0.219654573 0 0)
(0.213092428 0 0)
(0.208925778 0 0)
(0.210238356 0 0)
(0.212654143 0 0)
(0.208558153 0 0)
(0.205593657 0 0)
(0.21037508 0 0)
(0.213832984 0 0)
(0.211897049 0 0)
(0.209702062 0 0)
(0.207577802 0 0)
(0.203110015 0 0)
(0.203826949 0 0)
(0.208958684 0 0)
(0.210200332 0 0)
(0.208905229 0 0)
(0.204974738 0 0)
(0.198835005 0 0)
(0.194325051 0 0)
(0.192296971 0 0)
(0.196135672 0 0)
(0.201704359 0 0)
(0.201637401 0 0)
(0.19870897 0 0)
(0.192531955 0 0)
(0.187854416 0 0)
(0.19105813 0 0)
(0.196313431 0 0)
(0.193963606 0 0)
(0.188033113 0 0)
(0.183855266 0 0)
(0.185111964 0 0)
(0.18740987 0 0)
(0.18433101 0 0)
(0.182182807 0 0)
(0.185446137 0 0)
(0.184919942 0 0)
(0.180008 0 0)
(0.178845647 0 0)
(0.182105068 0 0)
(0.181367869 0 0)
(0.176421478 0 0)
(0.1756796 0 0)
(0.17964106 0 0)
(0.179782961 0 0)
(0.174466422 0 0)
(0.170173843 0 0)
(0.170394309 0 0)
(0.17479464 0 0)
(0.176230737 0 0)
(0.171919846 0 0)
(0.167266813 0 0)
(0.164550811 0 0)
(0.165280269 0 0)
(0.16657981 0 0)
(0.162858461 0 0)
(0.160171466 0 0)
(0.163256728 0 0)
(0.165186905 0 0)
(0.162467682 0 0)
(0.158498375 0 0)
(0.158478788 0 0)
(0.162029093 0 0)
(0.162373987 0 0)
(0.157569992 0 0)
(0.152432077 0 0)
(0.149676081 0 0)
(0.151359149 0 0)
(0.155497491 0 0)
(0.157481317 0 0)
(0.157064014 0 0)
(0.155527224 0 0)
(0.151540807 0 0)
(0.14776902 0 0)
(0.149498237 0 0)
(0.154222636 0 0)
(0.154531955 0 0)
(0.149725658 0 0)
(0.147962907 0 0)
(0.150792534 0 0)
(0.151277418 0 0)
(0.146877265 0 0)
(0.142393591 0 0)
(0.141740123 0 0)
(0.144332801 0 0)
(0.1459984 0 0)
(0.14245619 0 0)
(0.138564902 0 0)
(0.139031817 0 0)
(0.139952249 0 0)
(0.135922237 0 0)
(0.13222397 0 0)
(0.135120999 0 0)
(0.139213374 0 0)
(0.139741894 0 0)
(0.136211594 0 0)
(0.131376619 0 0)
(0.131908184 0 0)
(0.134652093 0 0)
(0.130648232 0 0)
(0.12546879 0 0)
(0.127588212 0 0)
(0.1318996 0 0)
(0.132673856 0 0)
(0.129418701 0 0)
(0.123780228 0 0)
(0.122277063 0 0)
(0.12388355 0 0)
(0.120420468 0 0)
(0.116303496 0 0)
(0.118832235 0 0)
(0.123396502 0 0)
(0.124400686 0 0)
(0.121672667 0 0)
(0.11658495 0 0)
(0.114938436 0 0)
(0.116371915 0 0)
(0.114023716 0 0)
(0.111370659 0 0)
(0.113913012 0 0)
(0.117219511 0 0)
(0.116805083 0 0)
(0.113847412 0 0)
(0.110619703 0 0)
(0.112508831 0 0)
(0.116955801 0 0)
(0.11958422 0 0)
(0.116881495 0 0)
(0.112590865 0 0)
(0.113693159 0 0)
(0.119043671 0 0)
(0.122956299 0 0)
(0.120606818 0 0)
(0.118265306 0 0)
(0.120649181 0 0)
(0.124611923 0 0)
(0.12494446 0 0)
(0.122954394 0 0)
(0.124109367 0 0)
(0.12502598 0 0)
(0.120704017 0 0)
(0.118251264 0 0)
(0.120639313 0 0)
(0.121248319 0 0)
(0.116595163 0 0)
(0.114020383 0 0)
(0.116680764 0 0)
(0.117307859 0 0)
(0.112047208 0 0)
(0.108592042 0 0)
(0.111753034 0 0)
(0.1163317 0 0)
(0.117647874 0 0)
(0.11571822 0 0)
(0.112644408 0 0)
(0.113363386 0 0)
(0.118182166 0 0)
(0.121291752 0 0)
(0.11907396 0 0)
(0.115235129 0 0)
(0.114511073 0 0)
(0.118182168 0 0)
(0.122711331 0 0)
(0.124850821 0 0)
(0.122725841 0 0)
(0.120327594 0 0)
(0.120945103 0 0)
(0.123425591 0 0)
(0.124411154 0 0)
(0.121372258 0 0)
(0.118965668 0 0)
(0.121831038 0 0)
(0.12710726 0 0)
(0.128118533 0 0)
(0.123447498 0 0)
(0.121556075 0 0)
(0.125961754 0 0)
(0.130894845 0 0)
(0.132720102 0 0)
(0.133338389 0 0)
(0.131015126 0 0)
(0.126663671 0 0)
(0.126048786 0 0)
(0.130750307 0 0)
(0.132656713 0 0)
(0.12843174 0 0)
(0.126790125 0 0)
(0.130864194 0 0)
(0.13331937 0 0)
(0.127219958 0 0)
(0.121219576 0 0)
(0.124329647 0 0)
(0.131610421 0 0)
(0.136539614 0 0)
(0.134762747 0 0)
(0.130066294 0 0)
(0.129024248 0 0)
(0.133433407 0 0)
(0.135996726 0 0)
(0.129735616 0 0)
(0.123772142 0 0)
(0.127281998 0 0)
(0.134760853 0 0)
(0.139746119 0 0)
(0.138017898 0 0)
(0.13351141 0 0)
(0.132808289 0 0)
(0.137439954 0 0)
(0.140220951 0 0)
(0.137458691 0 0)
(0.13483938 0 0)
(0.137287743 0 0)
(0.142721271 0 0)
(0.14504765 0 0)
(0.141581638 0 0)
(0.140268042 0 0)
(0.143883484 0 0)
(0.146033941 0 0)
(0.143238775 0 0)
(0.140767917 0 0)
(0.142922656 0 0)
(0.148084669 0 0)
(0.150312238 0 0)
(0.147012013 0 0)
(0.14631802 0 0)
(0.150406508 0 0)
(0.152526522 0 0)
(0.149610291 0 0)
(0.146953699 0 0)
(0.14881112 0 0)
(0.15346157 0 0)
(0.154671018 0 0)
(0.150706824 0 0)
(0.150127296 0 0)
(0.155337958 0 0)
(0.159536874 0 0)
(0.159347515 0 0)
(0.15590339 0 0)
(0.1561682 0 0)
(0.162850265 0 0)
(0.165233457 0 0)
(0.16157295 0 0)
(0.161309398 0 0)
(0.166403313 0 0)
(0.168836149 0 0)
(0.164659113 0 0)
(0.159388279 0 0)
(0.157628204 0 0)
(0.159427973 0 0)
(0.165716365 0 0)
(0.171413994 0 0)
(0.169691569 0 0)
(0.165283265 0 0)
(0.164908804 0 0)
(0.170353492 0 0)
(0.174673947 0 0)
(0.172636325 0 0)
(0.168912698 0 0)
(0.169818866 0 0)
(0.175406155 0 0)
(0.177097086 0 0)
(0.173618913 0 0)
(0.174348677 0 0)
(0.180330448 0 0)
(0.182612675 0 0)
(0.177883327 0 0)
(0.17397756 0 0)
(0.176456015 0 0)
(0.182863656 0 0)
(0.184291805 0 0)
(0.18065413 0 0)
(0.181529534 0 0)
(0.187222755 0 0)
(0.187992698 0 0)
(0.183523873 0 0)
(0.184275716 0 0)
(0.190712161 0 0)
(0.194672523 0 0)
(0.193442425 0 0)
(0.188857607 0 0)
(0.188430859 0 0)
(0.194638184 0 0)
(0.196300463 0 0)
(0.190331886 0 0)
(0.18494219 0 0)
(0.187210683 0 0)
(0.195904148 0 0)
(0.201133527 0 0)
(0.197164515 0 0)
(0.192171911 0 0)
(0.19432903 0 0)
(0.200867221 0 0)
(0.201096025 0 0)
(0.195611678 0 0)
(0.19680165 0 0)
(0.203897847 0 0)
(0.207528442 0 0)
(0.207007902 0 0)
(0.202121045 0 0)
(0.200759636 0 0)
(0.20693376 0 0)
)
;

boundaryField
{
    closed
    {
        type            noSlip;
    }
    open
    {
        type            inletOutlet;
        inletValue      nonuniform List<vector> 0();
        value           nonuniform List<vector> 0();
    }
    sides
    {
        type            empty;
    }
    procBoundary3to2
    {
        type            processor;
        value           uniform (0.455202858 0 0);
    }
    procBoundary3to4
    {
        type            processor;
        value           uniform (0.208168372 0 0);
    }
}


// ************************************************************************* //
