/*--------------------------------*- C++ -*----------------------------------*\
| =========                 |                                                 |
| \\      /  F ield         | OpenFOAM: The Open Source CFD Toolbox           |
|  \\    /   O peration     | Version:  2306                                  |
|   \\  /    A nd           | Website:  www.openfoam.com                      |
|    \\/     M anipulation  |                                                 |
\*---------------------------------------------------------------------------*/
FoamFile
{
    version     2.0;
    format      ascii;
    arch        "LSB;label=32;scalar=64";
    class       surfaceScalarField;
    location    "0.00106";
    object      phi;
}
// * * * * * * * * * * * * * * * * * * * * * * * * * * * * * * * * * * * * * //

dimensions      [1 0 -1 0 0 0 0];

oriented        oriented;

internalField   nonuniform List<scalar> 
530
(
-2.24357414e-06
-2.32093882e-06
-2.44399077e-06
-2.56273114e-06
-2.65349729e-06
-2.50679511e-06
-2.59168363e-06
-2.71724827e-06
-2.9822194e-06
-2.86581246e-06
-2.94210352e-06
-3.07451947e-06
-3.18857981e-06
-3.25541827e-06
-3.08680202e-06
-3.16975434e-06
-3.29582939e-06
-3.39595596e-06
-3.52379789e-06
-3.58519245e-06
-3.3963297e-06
-3.46485999e-06
-3.58509739e-06
-3.68804376e-06
-3.76472201e-06
-3.52903816e-06
-3.60416915e-06
-3.81448871e-06
-3.93010848e-06
-3.7031967e-06
-3.76627143e-06
-3.84193502e-06
-3.90380635e-06
-4.02613333e-06
-4.41637348e-06
-4.45914354e-06
-4.14003384e-06
-4.19920754e-06
-4.3417761e-06
-4.42582564e-06
-4.16941678e-06
-4.25781843e-06
-4.30236501e-06
-4.37561459e-06
-4.41675679e-06
-4.48433578e-06
-4.48705835e-06
-4.2387433e-06
-4.27369427e-06
-4.38715712e-06
-4.45612951e-06
-4.28622791e-06
-4.32256884e-06
-4.42035748e-06
-4.48299557e-06
-4.29367847e-06
-4.32620548e-06
-4.60431507e-06
-4.60071437e-06
-4.23369126e-06
-4.29370397e-06
-4.29984059e-06
-4.3345682e-06
-4.34981862e-06
-4.39173303e-06
-4.35801461e-06
-4.1658295e-06
-4.18306529e-06
-4.19845135e-06
-4.47717794e-06
-4.47566657e-06
-4.19366099e-06
-4.20577434e-06
-4.22089146e-06
-4.2412698e-06
-4.16551494e-06
-4.12834606e-06
-4.12715722e-06
-4.15835803e-06
-4.16004876e-06
-3.98812163e-06
-4.00276371e-06
-4.00276916e-06
-4.22791295e-06
-4.19644522e-06
-4.00212646e-06
-3.97462972e-06
-3.96387284e-06
-3.95206571e-06
-4.17636653e-06
-4.1964647e-06
-4.13745822e-06
-3.87886976e-06
-3.88336605e-06
-3.86510049e-06
-4.07036504e-06
-4.08422675e-06
-4.0381791e-06
-3.98253991e-06
-3.9717962e-06
-3.96002889e-06
-3.97125998e-06
-3.90196348e-06
-3.89176348e-06
-3.8690855e-06
-3.86071116e-06
-3.79660923e-06
-3.79204568e-06
-3.76846341e-06
-3.94901789e-06
-3.97794367e-06
-3.90315464e-06
-3.62844571e-06
-3.60789677e-06
-3.60111225e-06
-3.56967127e-06
-3.51684119e-06
-3.52984843e-06
-3.46942728e-06
-3.41678832e-06
-3.4080351e-06
-3.36040823e-06
-3.52016628e-06
-3.53539551e-06
-3.49895541e-06
-3.42328872e-06
-3.24825781e-06
-3.22908221e-06
-3.15823915e-06
-3.30213542e-06
-3.25251475e-06
-3.19588211e-06
-3.17512388e-06
-3.13875931e-06
-3.08069559e-06
-3.05550883e-06
-3.02404655e-06
-2.94172648e-06
-2.92893014e-06
-2.88306534e-06
-3.02518297e-06
-3.02495383e-06
-2.94081187e-06
-2.81829086e-06
-2.7926221e-06
-2.75973738e-06
-2.69090899e-06
-2.80357263e-06
-2.78743114e-06
-2.72305993e-06
-2.70830715e-06
-2.68449738e-06
-2.66763627e-06
-2.61493452e-06
-2.76347856e-06
-2.75490177e-06
-2.69060113e-06
-2.63256344e-06
-2.61025332e-06
-2.58243623e-06
-2.55750509e-06
-2.50470639e-06
-2.63440753e-06
-2.6383728e-06
-2.59939308e-06
-2.53521645e-06
-2.4752114e-06
-2.44742749e-06
-2.41492066e-06
-2.38642305e-06
-2.32791808e-06
-2.44247301e-06
-2.44008628e-06
-2.39588302e-06
-2.332031e-06
-2.27099063e-06
-2.24275061e-06
-2.20884768e-06
-2.1797478e-06
-2.11821603e-06
-2.21737794e-06
-2.22045098e-06
-2.17661553e-06
-2.11085221e-06
-2.0158037e-06
-1.99972967e-06
-1.95790678e-06
-1.85987104e-06
-1.85474307e-06
-1.88307175e-06
-1.85427579e-06
-1.82442202e-06
-1.7300401e-06
-1.70902411e-06
-1.74818281e-06
-1.71959069e-06
-1.6339184e-06
-1.6154851e-06
-1.62752412e-06
-1.60423026e-06
-1.57680039e-06
-1.55497733e-06
-1.55008714e-06
-1.51043569e-06
-1.47797359e-06
-1.45355508e-06
-1.36354982e-06
-1.39624175e-06
-1.36732106e-06
-1.32029779e-06
-1.29443189e-06
-1.25622611e-06
-1.21848813e-06
-1.195183e-06
-1.12975859e-06
-1.16206081e-06
-1.13076129e-06
-1.08870066e-06
-1.07650702e-06
-1.05108235e-06
-9.85378751e-07
-1.00928731e-06
-9.90008088e-07
-9.41725021e-07
-8.98902876e-07
-8.82567596e-07
-8.5563416e-07
-7.87510016e-07
-7.82211566e-07
-7.69968941e-07
-7.7148435e-07
-7.45238503e-07
-6.53209377e-07
-6.5006183e-07
-7.00842324e-07
-6.77634826e-07
-6.19411959e-07
-5.99048661e-07
-5.82939516e-07
-5.45486943e-07
-5.12101205e-07
-4.73723396e-07
-4.49336857e-07
-3.81637093e-07
-3.80513706e-07
-3.57104626e-07
-3.3291309e-07
-2.95076945e-07
-2.73501059e-07
-2.37802298e-07
-2.11417158e-07
-1.47823615e-07
-1.13944146e-07
-1.09972636e-07
-1.5546629e-07
-1.39492104e-07
-8.42939646e-08
-6.15927542e-08
-4.42083192e-08
-1.01516637e-07
-8.20730796e-08
-4.13036036e-09
-1.00750675e-08
-1.04936943e-07
-8.9434445e-08
-1.73719739e-08
-1.29437625e-08
-1.05621673e-07
-8.98378726e-08
-2.33993975e-08
-2.13192457e-08
-1.02958651e-07
-8.95268257e-08
-5.19933422e-08
-2.05984776e-08
-7.57530663e-09
2.2038647e-09
1.14497067e-08
4.92119564e-08
6.66176696e-08
8.26829835e-08
8.71958108e-08
9.69296937e-08
1.47049901e-07
1.50683212e-07
7.38744421e-08
7.95037474e-08
1.10283218e-07
1.46416422e-07
1.61417626e-07
1.67437094e-07
1.70696619e-07
1.96568127e-07
2.38601257e-07
2.45845133e-07
2.48421893e-07
2.55318617e-07
2.99186299e-07
3.12904706e-07
3.64851226e-07
4.17621002e-07
4.03973031e-07
4.06407481e-07
3.40081788e-07
3.37408106e-07
3.60978311e-07
3.5785241e-07
3.09125237e-07
2.93441757e-07
3.02084512e-07
4.7188028e-07
4.9704234e-07
3.73439351e-07
3.71415962e-07
3.88979484e-07
4.3723251e-07
4.61248424e-07
4.0546736e-07
4.13580285e-07
4.33222734e-07
4.6659364e-07
4.20743603e-07
4.27327819e-07
4.52103899e-07
5.02368256e-07
5.34323709e-07
4.81124523e-07
4.91323012e-07
5.0765978e-07
5.46603359e-07
5.06383692e-07
5.13723998e-07
5.37418904e-07
5.87081906e-07
6.21556894e-07
5.69977099e-07
5.80839045e-07
5.9407155e-07
6.3760089e-07
6.2663824e-07
6.17632682e-07
6.41453056e-07
6.93447606e-07
7.31232332e-07
6.77615152e-07
6.90374637e-07
7.0321432e-07
7.50735913e-07
7.43017074e-07
7.37428758e-07
7.45916841e-07
8.31025628e-07
8.69182845e-07
8.0302909e-07
8.1788661e-07
8.2953801e-07
9.0147196e-07
9.39182562e-07
8.75561201e-07
8.91029217e-07
9.00259427e-07
9.73222384e-07
1.00850103e-06
9.51649162e-07
9.64460401e-07
9.73968971e-07
1.02002367e-06
1.02440682e-06
1.02818829e-06
1.0338164e-06
1.10023216e-06
1.03179818e-06
1.04012195e-06
1.0756719e-06
1.0734666e-06
1.09128189e-06
1.1071567e-06
1.114336e-06
1.17194061e-06
1.1403827e-06
1.15369986e-06
1.15859175e-06
1.24874079e-06
1.27769892e-06
1.19661951e-06
1.207658e-06
1.20793573e-06
1.2206244e-06
1.22683089e-06
1.22916279e-06
1.23146901e-06
1.22819435e-06
1.23465171e-06
1.23174255e-06
1.27006599e-06
1.25098632e-06
1.26916743e-06
1.26725548e-06
1.35423068e-06
1.35975727e-06
1.26341216e-06
1.28977048e-06
1.28488639e-06
1.25767764e-06
1.2803891e-06
1.25198943e-06
1.28289735e-06
1.2862212e-06
1.27293051e-06
1.31435909e-06
1.31874152e-06
1.2215167e-06
1.2387339e-06
1.22345498e-06
1.26583475e-06
1.27071874e-06
1.17833435e-06
1.19630717e-06
1.17977201e-06
1.18296447e-06
1.18468304e-06
1.09541591e-06
1.11511174e-06
1.09851543e-06
1.09921188e-06
1.09775074e-06
1.01166847e-06
1.03316994e-06
1.0152877e-06
1.0142972e-06
1.00963219e-06
9.28469518e-07
9.51748853e-07
9.31784253e-07
9.26019322e-07
9.15827957e-07
8.5359818e-07
8.72347626e-07
8.50402216e-07
8.4018583e-07
7.94044302e-07
8.45778895e-07
8.28770253e-07
8.00737268e-07
7.83663414e-07
7.25929495e-07
7.45631521e-07
7.20454614e-07
7.06237138e-07
6.54597977e-07
7.11218599e-07
6.90590496e-07
6.43479825e-07
6.20374787e-07
5.68906778e-07
5.90101888e-07
5.62413515e-07
5.43610665e-07
4.88171782e-07
5.49579684e-07
5.27387442e-07
5.15391477e-07
4.90802598e-07
4.31853948e-07
4.58381193e-07
4.28410796e-07
4.10226618e-07
3.81669775e-07
3.41588965e-07
3.64096681e-07
3.38116307e-07
2.82967735e-07
2.3136189e-07
2.99062487e-07
2.79962201e-07
1.80903414e-07
1.84980771e-07
1.46977217e-07
8.34290712e-08
1.17854791e-07
9.0679803e-08
4.58073907e-08
1.89761286e-08
-4.34458887e-08
4.05937553e-08
1.42950463e-08
-1.0179865e-07
-1.34479974e-07
-1.46241326e-07
-1.15635761e-07
-1.48707697e-07
-3.14271166e-07
-3.57163115e-07
-2.81168862e-07
-3.15549748e-07
-4.46908674e-07
-4.74475682e-07
-4.74198671e-07
-4.42532532e-07
-4.81533346e-07
-6.54469991e-07
-6.77000084e-07
-6.07280646e-07
-6.47487108e-07
-8.28654826e-07
-8.17371739e-07
-7.66525494e-07
-8.08393627e-07
-9.4954315e-07
-9.63148301e-07
-9.56652535e-07
-9.13557106e-07
-9.59493112e-07
-9.77369638e-07
-9.86450857e-07
-9.7382781e-07
-9.31889524e-07
-9.7599556e-07
-9.95855678e-07
-1.0038659e-06
-9.81487611e-07
-9.46071131e-07
-9.87087926e-07
-1.14221454e-06
-1.09925253e-06
-1.06553047e-06
-1.10515896e-06
-1.24209259e-06
-1.24239797e-06
-1.16919305e-06
)
;

boundaryField
{
    closed
    {
        type            calculated;
        value           nonuniform List<scalar> 0();
    }
    open
    {
        type            calculated;
        value           nonuniform List<scalar> 0();
    }
    sides
    {
        type            empty;
        value           nonuniform List<scalar> 0();
    }
    procBoundary3to2
    {
        type            processor;
        value           uniform 2.39258712e-06;
    }
    procBoundary3to4
    {
        type            processor;
        value           uniform -1.160941e-06;
    }
}


// ************************************************************************* //
