/*--------------------------------*- C++ -*----------------------------------*\
| =========                 |                                                 |
| \\      /  F ield         | OpenFOAM: The Open Source CFD Toolbox           |
|  \\    /   O peration     | Version:  2306                                  |
|   \\  /    A nd           | Website:  www.openfoam.com                      |
|    \\/     M anipulation  |                                                 |
\*---------------------------------------------------------------------------*/
FoamFile
{
    version     2.0;
    format      ascii;
    arch        "LSB;label=32;scalar=64";
    class       volScalarField;
    location    "0.00106";
    object      prefDZ_H2;
}
// * * * * * * * * * * * * * * * * * * * * * * * * * * * * * * * * * * * * * //

dimensions      [1 -1 -1 0 0 0 0];

internalField   nonuniform List<scalar> 
531
(
6.17101999e-05
6.36120014e-05
6.35275923e-05
6.2288195e-05
6.16459366e-05
6.19405214e-05
6.35968306e-05
6.35613506e-05
6.22267803e-05
6.20665516e-05
6.36599119e-05
6.35410651e-05
6.22792556e-05
6.1659918e-05
6.2197038e-05
6.36024512e-05
6.35500587e-05
6.232506e-05
6.1971624e-05
6.18512349e-05
6.20172314e-05
6.3600219e-05
6.34757923e-05
6.23338891e-05
6.15150407e-05
6.18792414e-05
6.35317448e-05
6.34344886e-05
6.15772474e-05
6.16317554e-05
6.35921368e-05
6.35168053e-05
6.35583619e-05
6.34320947e-05
6.19103757e-05
6.08609745e-05
6.16064968e-05
6.35268401e-05
6.33747715e-05
6.16302372e-05
6.19624848e-05
6.35743956e-05
6.35882852e-05
6.34644863e-05
6.23421754e-05
6.17693429e-05
6.18141555e-05
6.21483563e-05
6.36021825e-05
6.34065994e-05
6.21086676e-05
6.22938816e-05
6.36025267e-05
6.33531578e-05
6.18494689e-05
6.21820753e-05
6.35504229e-05
6.27301331e-05
6.1026704e-05
6.17265746e-05
6.35544481e-05
6.35600692e-05
6.34253568e-05
6.23398842e-05
6.18946739e-05
6.18660997e-05
6.23272587e-05
6.36351882e-05
6.342609e-05
6.21261825e-05
6.13576286e-05
6.20286898e-05
6.35529894e-05
6.3342711e-05
6.16915615e-05
6.21111842e-05
6.35553144e-05
6.35709843e-05
6.33043118e-05
6.18695372e-05
6.21435486e-05
6.36209884e-05
6.33871617e-05
6.18857278e-05
6.12836367e-05
6.21737265e-05
6.35698137e-05
6.35815732e-05
6.34169628e-05
6.20928913e-05
6.16391826e-05
6.16345335e-05
6.22521503e-05
6.36377777e-05
6.34681667e-05
6.21925597e-05
6.19226909e-05
6.19504609e-05
6.23011047e-05
6.36264461e-05
6.33797692e-05
6.22095538e-05
6.23421815e-05
6.36563827e-05
6.33640355e-05
6.21100402e-05
6.23346087e-05
6.36233157e-05
6.34475602e-05
6.18087765e-05
6.15781197e-05
6.13271656e-05
6.21675099e-05
6.3590666e-05
6.34923364e-05
6.35618287e-05
6.33088644e-05
6.20822471e-05
6.23333328e-05
6.35914042e-05
6.35834051e-05
6.34314937e-05
6.20385386e-05
6.15142432e-05
6.17740842e-05
6.14511272e-05
6.22883818e-05
6.3596359e-05
6.34535429e-05
6.18770135e-05
6.13486353e-05
6.22483126e-05
6.36334187e-05
6.36475821e-05
6.34848892e-05
6.22868593e-05
6.19840739e-05
6.23488749e-05
6.35780244e-05
6.35028247e-05
6.21502417e-05
6.15365474e-05
6.15196238e-05
6.22162472e-05
6.35829359e-05
6.35961456e-05
6.34207951e-05
6.17941663e-05
6.10496623e-05
6.22604909e-05
6.35505663e-05
6.35346989e-05
6.35358427e-05
6.34276656e-05
6.18654798e-05
6.14550699e-05
6.15198199e-05
6.2298888e-05
6.3589392e-05
6.35061267e-05
6.3559139e-05
6.34028877e-05
6.19467272e-05
6.14905719e-05
6.1834946e-05
6.14912858e-05
6.22831923e-05
6.35670814e-05
6.35159606e-05
6.35531699e-05
6.34226091e-05
6.20093573e-05
6.15149304e-05
6.18608885e-05
6.15050382e-05
6.22821712e-05
6.35715808e-05
6.35161552e-05
6.35505403e-05
6.34255622e-05
6.18092886e-05
6.13589135e-05
6.17123249e-05
6.13159603e-05
6.22885505e-05
6.35159945e-05
6.35726891e-05
6.34107613e-05
6.19509447e-05
6.23274331e-05
6.35366773e-05
6.35530167e-05
6.3407883e-05
6.18207996e-05
6.19865875e-05
6.36186364e-05
6.34288902e-05
6.17691077e-05
6.22585528e-05
6.36151925e-05
6.34780716e-05
6.17871771e-05
6.17911222e-05
6.19266907e-05
6.23331854e-05
6.35913251e-05
6.35044147e-05
6.22290194e-05
6.23122389e-05
6.3553575e-05
6.22856881e-05
6.13683274e-05
6.22928159e-05
6.35824173e-05
6.35399467e-05
6.19521177e-05
6.13917157e-05
6.22902858e-05
6.35480108e-05
6.35802578e-05
6.35177729e-05
6.19077942e-05
6.15614253e-05
6.16505229e-05
6.23244472e-05
6.35579655e-05
6.35757754e-05
6.35061032e-05
6.18935012e-05
6.12102977e-05
6.22792706e-05
6.35489351e-05
6.35291527e-05
6.18534375e-05
6.21487747e-05
6.35990457e-05
6.35020452e-05
6.16426999e-05
6.11691662e-05
6.23070155e-05
6.35403581e-05
6.35424839e-05
6.35222007e-05
6.35187988e-05
6.14902217e-05
6.13823591e-05
6.15366857e-05
6.23529894e-05
6.35722401e-05
6.35119161e-05
6.35517631e-05
6.35004493e-05
6.15789696e-05
6.10181894e-05
6.22152931e-05
6.35363181e-05
6.35611539e-05
6.16740509e-05
6.12531501e-05
6.2176081e-05
6.35457458e-05
6.35659548e-05
6.19047145e-05
6.20766436e-05
6.35959325e-05
6.35354213e-05
6.18392494e-05
6.20761241e-05
6.36060191e-05
6.35418509e-05
6.18574296e-05
6.21660136e-05
6.35997853e-05
6.35372804e-05
6.1779883e-05
6.14227279e-05
6.23365637e-05
6.35573988e-05
6.35716364e-05
6.19942862e-05
6.15164368e-05
6.23392724e-05
6.35592973e-05
6.36013781e-05
6.20128405e-05
6.22107663e-05
6.36043267e-05
6.35693241e-05
6.18232766e-05
6.14201949e-05
6.23246484e-05
6.35694221e-05
6.35907627e-05
6.18960514e-05
6.14306054e-05
6.23364971e-05
6.3527787e-05
6.34914515e-05
6.35164492e-05
6.35375969e-05
6.14376163e-05
6.12470635e-05
6.16512849e-05
6.2035201e-05
6.35560507e-05
6.3609824e-05
6.19037051e-05
6.2166719e-05
6.34645578e-05
6.35687082e-05
6.33975931e-05
6.17699066e-05
6.16709368e-05
6.35929939e-05
6.35386714e-05
6.16601491e-05
6.13018941e-05
6.20917066e-05
6.35513877e-05
6.3629829e-05
6.189823e-05
6.19559988e-05
6.35968075e-05
6.35892614e-05
6.18025254e-05
6.13625837e-05
6.21527153e-05
6.355518e-05
6.36286808e-05
6.19575102e-05
6.19832318e-05
6.35936626e-05
6.35899967e-05
6.19119819e-05
6.14310251e-05
6.2188768e-05
6.35528403e-05
6.36334503e-05
6.20044577e-05
6.20154076e-05
6.35910145e-05
6.35944795e-05
6.1968851e-05
6.14761412e-05
6.22214831e-05
6.3548532e-05
6.36392356e-05
6.20606851e-05
6.20442474e-05
6.35820574e-05
6.35965861e-05
6.20143711e-05
6.1486788e-05
6.22496243e-05
6.35546552e-05
6.36162376e-05
6.21330491e-05
6.14991833e-05
6.22130507e-05
6.35670725e-05
6.35989548e-05
6.20950247e-05
6.14259204e-05
6.2074621e-05
6.35365971e-05
6.36506312e-05
6.19797898e-05
6.1870361e-05
6.35424526e-05
6.36368669e-05
6.17970057e-05
6.22924287e-05
6.3609061e-05
6.21668856e-05
6.18184816e-05
6.35184353e-05
6.35709213e-05
6.35697985e-05
6.20478007e-05
6.1712446e-05
6.35577947e-05
6.3569441e-05
6.19461968e-05
6.13082177e-05
6.21710044e-05
6.35648505e-05
6.36565132e-05
6.22936228e-05
6.22025271e-05
6.22795221e-05
6.21862301e-05
6.22741966e-05
6.35962586e-05
6.36782348e-05
6.21274559e-05
6.19615899e-05
6.35649331e-05
6.35788844e-05
6.19643348e-05
6.10490598e-05
6.21928816e-05
6.35037572e-05
6.35819021e-05
6.35802193e-05
6.21507395e-05
6.19283612e-05
6.34815388e-05
6.35703997e-05
6.35576355e-05
6.22448304e-05
6.10768966e-05
6.20309279e-05
6.35067878e-05
6.36017776e-05
6.22607377e-05
6.14106155e-05
6.21220094e-05
6.35396384e-05
6.35939795e-05
6.23092701e-05
6.14951423e-05
6.22051215e-05
6.35358023e-05
6.36030216e-05
6.23090383e-05
6.15332534e-05
6.22294637e-05
6.35395664e-05
6.36041517e-05
6.23065615e-05
6.15202224e-05
6.22041955e-05
6.3540598e-05
6.36001495e-05
6.23065363e-05
6.15122754e-05
6.2067199e-05
6.35209231e-05
6.36503999e-05
6.23612103e-05
6.21003535e-05
6.35335279e-05
6.35857047e-05
6.22727366e-05
6.14202712e-05
6.19742679e-05
6.35137364e-05
6.36462031e-05
6.23675202e-05
6.20906228e-05
6.35337303e-05
6.35851611e-05
6.22849575e-05
6.14271534e-05
6.19774601e-05
6.35127332e-05
6.36421938e-05
6.23675933e-05
6.20981372e-05
6.35388287e-05
6.35859257e-05
6.23191816e-05
6.14155269e-05
6.20861279e-05
6.35394844e-05
6.3590205e-05
6.23108226e-05
6.14874109e-05
6.20135079e-05
6.35152346e-05
6.36466639e-05
6.23808886e-05
6.20196144e-05
6.3519015e-05
6.36221048e-05
6.21758102e-05
6.16645658e-05
6.15423607e-05
6.23308261e-05
6.3523787e-05
6.35927807e-05
6.35794745e-05
6.23280432e-05
6.19473918e-05
6.35708636e-05
6.3564359e-05
6.21594783e-05
6.12443587e-05
6.18102659e-05
6.35134771e-05
6.36312626e-05
6.22543891e-05
6.19430571e-05
6.35544724e-05
6.35759361e-05
6.21627111e-05
6.12943475e-05
6.18712551e-05
6.35219177e-05
6.36239614e-05
6.23134109e-05
6.19838277e-05
6.35365219e-05
6.36193047e-05
6.21660073e-05
6.19932015e-05
6.35616272e-05
6.35619012e-05
6.21909449e-05
6.14077979e-05
6.21115312e-05
6.35604034e-05
6.35816815e-05
6.23293421e-05
6.14873013e-05
6.21663263e-05
6.35769655e-05
6.35768575e-05
6.23201146e-05
6.15330216e-05
6.21336593e-05
6.35501718e-05
6.3620371e-05
6.22581979e-05
6.20589005e-05
6.35830636e-05
6.3570779e-05
6.21114756e-05
6.1352791e-05
6.20334621e-05
6.35877872e-05
)
;

boundaryField
{
    closed
    {
        type            calculated;
        value           nonuniform List<scalar> 0();
    }
    open
    {
        type            calculated;
        value           nonuniform List<scalar> 0();
    }
    sides
    {
        type            empty;
    }
    procBoundary3to2
    {
        type            processor;
        value           uniform 6.15247782e-05;
    }
    procBoundary3to4
    {
        type            processor;
        value           uniform 6.35796343e-05;
    }
}


// ************************************************************************* //
