/*--------------------------------*- C++ -*----------------------------------*\
| =========                 |                                                 |
| \\      /  F ield         | OpenFOAM: The Open Source CFD Toolbox           |
|  \\    /   O peration     | Version:  2306                                  |
|   \\  /    A nd           | Website:  www.openfoam.com                      |
|    \\/     M anipulation  |                                                 |
\*---------------------------------------------------------------------------*/
FoamFile
{
    version     2.0;
    format      ascii;
    arch        "LSB;label=32;scalar=64";
    class       volScalarField;
    location    "0.0012";
    object      p;
}
// * * * * * * * * * * * * * * * * * * * * * * * * * * * * * * * * * * * * * //

dimensions      [1 -1 -2 0 0 0 0];

internalField   nonuniform List<scalar> 
531
(
101409.962
101410.073
101410.221
101410.414
101410.654
101410.076
101410.038
101410.011
101409.944
101409.861
101409.779
101409.751
101410.607
101410.741
101410.889
101411.101
101411.267
101411.354
101411.471
101411.631
101411.753
101411.864
101411.95
101411.428
101411.791
101412.126
101412.365
101412.632
101412.911
101413.155
101413.372
101413.607
101413.886
101414.217
101414.575
101414
101414.018
101414.077
101414.156
101414.24
101414.288
101414.262
101414.213
101414.166
101414.12
101414.108
101414.953
101415.041
101415.122
101415.173
101415.174
101415.183
101415.968
101416.061
101416.142
101416.295
101416.451
101416.599
101416.728
101416.839
101416.995
101417.135
101417.215
101417.338
101417.513
101417.659
101417.744
101417.873
101418.056
101418.21
101418.298
101418.425
101418.61
101418.759
101418.832
101418.935
101419.093
101419.202
101419.207
101419.206
101419.201
101419.204
101420.049
101420.126
101420.201
101420.244
101420.253
101420.289
101421.239
101421.445
101421.675
101422.017
101422.384
101422.355
101422.407
101422.487
101422.593
101422.622
101422.6
101422.646
101422.758
101422.842
101422.867
101422.941
101423.068
101423.162
101423.195
101423.267
101423.381
101423.46
101423.48
101423.538
101423.634
101423.697
101423.71
101423.767
101423.874
101423.966
101424.03
101424.157
101424.355
101424.566
101423.786
101423.675
101423.62
101423.634
101423.71
101423.818
101423.838
101423.857
101423.891
101424.003
101424.09
101424.103
101424.141
101424.211
101424.223
101424.131
101424.016
101423.879
101423.707
101424.495
101424.47
101424.403
101423.698
101423.92
101424.043
101424.05
101424.076
101424.098
101424.055
101423.976
101423.871
101423.144
101423.225
101423.232
101423.125
101423.028
101422.931
101422.764
101422.515
101422.266
101421.999
101421.692
101421.417
101422.106
101421.98
101421.87
101421.804
101421.686
101421.511
101421.327
101421.169
101421.034
101420.836
101420.551
101420.27
101419.998
101419.754
101420.533
101420.485
101420.479
101420.561
101420.689
101419.817
101419.622
101419.46
101419.296
101419.085
101418.898
101419.707
101419.673
101419.634
101419.668
101419.671
101419.618
101419.563
101419.497
101419.437
101419.395
101419.367
101419.288
101419.218
101419.164
101419.115
101418.974
101418.873
101418.756
101418.539
101418.321
101418.101
101417.893
101418.686
101418.634
101418.592
101418.595
101418.617
101418.663
101418.802
101418.931
101419.072
101419.256
101419.367
101419.362
101419.405
101419.496
101419.534
101419.516
101419.469
101419.412
101419.347
101419.312
101420.27
101420.41
101420.589
101420.792
101420.988
101421.16
101421.404
101421.715
101422.084
101422.519
101421.98
101422.134
101422.353
101422.648
101423.025
101423.452
101423.796
101424.186
101424.635
101425.108
101425.653
101426.281
101426.987
101426.74
101427.208
101427.782
101428.469
101429.196
101428.791
101429.118
101429.519
101430.004
101430.562
101431.137
101431.594
101432.069
101432.629
101433.233
101433.807
101434.307
101434.844
101435.396
101435.923
101436.427
101436.836
101437.215
101437.631
101438.028
101438.463
101438.929
101439.392
101439.862
101440.377
101440.909
101441.456
101442.048
101442.164
101442.414
101442.694
101442.895
101443.134
101443.391
101443.625
101443.906
101445.128
101445.533
101445.955
101446.498
101447.08
101447.701
101447.315
101447.615
101447.926
101448.18
101448.421
101448.693
101449.923
101450.267
101450.617
101450.987
101451.31
101451.569
101451.821
101453.042
101453.408
101453.77
101454.145
101454.514
101454.885
101455.34
101456.868
101457.547
101458.281
101459.054
101459.875
101460.751
101460.54
101461.092
101461.714
101462.344
101463.031
101463.796
101464.627
101464.34
101464.815
101465.403
101466.097
101466.855
101466.553
101466.906
101467.306
101468.379
101468.665
101468.878
101468.963
101469.059
101469.137
101469.169
101469.242
101470.357
101470.489
101470.552
101470.677
101470.685
101469.935
101469.93
101469.834
101469.707
101470.81
101470.795
101470.675
101470.527
101470.278
101469.902
101469.499
101470.126
101469.624
101469.026
101469.175
101469.199
101469.067
101468.861
101468.723
101468.572
101468.381
101468.15
101467.95
101468.262
101467.791
101467.27
101466.715
101466.211
101466.278
101465.854
101465.417
101464.968
101464.589
101464.264
101463.965
101463.688
101463.427
101463.18
101462.943
101462.712
101462.486
101462.26
101462.033
101461.804
101461.57
101461.331
101461.085
101460.815
101460.445
101460.231
101459.929
101459.625
101459.31
101458.992
101458.674
101458.363
101458.063
101457.785
101457.53
101457.309
101457.128
101456.995
101456.912
101456.879
101456.889
101456.937
101457.021
101457.107
101457.148
101457.091
101456.863
101456.41
101455.416
101453.335
101450.704
101447.567
101443.646
101438.768
101432.721
101425.287
101416.261
101405.472
101392.788
101378.155
101361.639
101343.445
101323.955
101303.706
101282.362
101267.327
101288.974
101307.248
101323.033
101336.661
101348.567
101358.956
101368.006
101375.878
101382.727
101388.686
101393.874
101398.401
101402.36
101405.828
101408.873
101411.553
101413.919
101416.004
101417.849
101419.476
101420.918
101422.192
101423.318
101424.304
101425.173
101425.937
101426.609
101427.173
101427.644
101428.044
101428.362
101428.579
101428.719
101428.734
101428.638
101428.428
101428.163
101427.948
101427.21
101425.104
101424.041
101427.346
101427.217
101416.551
101412.626
101427.028
101439.43
101438.657
101439.303
101454.163
101473.138
101491.112
101512.984
101541.182
101580.254
101612.25
101625.297
101644.223
101669.35
101683.158
101687.84
101693.248
101701.446
101705.879
101702.593
101699.01
101701.084
101701.692
101693.766
101684.833
101683.356
101682.348
101672.691
101661.595
101658.595
101657.216
101647.851
101636.696
101633.636
101633.078
101624.889
101614.403
101611.843
101612.446
101605.689
)
;

boundaryField
{
    closed
    {
        type            zeroGradient;
    }
    open
    {
        type            waveTransmissive;
        gamma           1.25;
        fieldInf        101325;
        lInf            1;
        value           nonuniform List<scalar> 0();
    }
    sides
    {
        type            empty;
    }
    procBoundary4to3
    {
        type            processor;
        value           uniform 101409.893;
    }
    procBoundary4to5
    {
        type            processor;
        value           uniform 101595.7;
    }
}


// ************************************************************************* //
