/*--------------------------------*- C++ -*----------------------------------*\
| =========                 |                                                 |
| \\      /  F ield         | OpenFOAM: The Open Source CFD Toolbox           |
|  \\    /   O peration     | Version:  2306                                  |
|   \\  /    A nd           | Website:  www.openfoam.com                      |
|    \\/     M anipulation  |                                                 |
\*---------------------------------------------------------------------------*/
FoamFile
{
    version     2.0;
    format      ascii;
    arch        "LSB;label=32;scalar=64";
    class       volScalarField;
    location    "0.00144";
    object      prefDh_H2O;
}
// * * * * * * * * * * * * * * * * * * * * * * * * * * * * * * * * * * * * * //

dimensions      [1 1 -3 0 0 0 0];

internalField   nonuniform List<scalar> 
531
(
88.0407844
87.7353132
87.8049402
92.6252045
92.2789846
92.4356579
92.2243938
92.2370982
88.4567725
87.91197
87.8228047
87.8209535
92.6816886
92.334838
88.1181377
87.9695915
92.7477996
92.35067
92.3934275
92.3679627
88.8080068
87.8570816
88.0126842
87.7605475
87.8326828
92.8278411
92.325737
92.9353917
88.0097122
87.8731163
92.807816
92.3193015
88.0800652
87.9803355
93.0163932
92.2720059
92.5357385
88.1650739
87.9379059
92.7223108
92.3362
88.9990018
88.0894332
88.0455089
88.0214304
87.7035138
87.7014165
92.8522261
92.4397623
92.5074992
92.4378967
92.3323758
92.4096754
88.52292
87.7801377
87.7652163
87.7596934
92.8124069
92.3405299
88.3157586
88.05038
92.7232091
92.3120611
88.8730514
87.9443122
87.9592657
92.5036534
92.3236432
88.8610654
87.9316362
88.0045596
87.7205288
87.7420102
92.734343
92.2883256
92.4426103
92.2138503
92.2417357
88.8608535
87.8297538
87.8465305
92.5570199
92.3317132
88.884688
87.8086519
87.8279679
92.5468142
92.3705707
88.7827395
87.7680909
87.9072754
92.6877271
92.2669157
91.2448916
88.1423754
88.0907381
92.7631248
92.2942328
88.674688
87.9356594
87.7907589
87.7645257
92.9059607
92.3426298
88.2401376
87.8800802
92.9505065
92.2813786
88.2285096
88.0892664
93.0948523
92.217732
92.5081858
88.6624021
87.7488803
87.8732379
92.6356815
92.3463083
89.089404
87.8328048
87.9592737
92.6135373
92.2553282
88.2896263
88.1151663
92.8060149
92.1982402
92.2648613
89.0845431
87.9800607
87.98481
87.9858344
87.8342541
87.8416006
92.7105763
92.3540372
89.4031592
87.9481543
88.1271506
92.5483561
92.3018785
88.2871959
88.1063758
92.7656
92.3400029
88.2464592
88.0195031
92.9634165
92.3590427
92.5084257
92.3560265
89.5544755
87.8880798
87.9832404
87.8524462
87.8430782
92.6010457
92.2669257
89.4717166
88.0964281
87.9252759
87.9619034
92.6178759
92.255484
90.6316041
88.0907173
88.1488823
92.5305268
92.3276069
88.189931
87.9632284
93.003779
92.3604832
92.5463721
92.3521616
89.7898677
87.9465811
88.0233577
87.8763356
87.8812493
92.6479312
92.4268401
89.3444331
87.5639659
87.538601
93.0085113
92.3700084
92.4589641
90.2196302
88.2017725
88.3368033
92.542826
92.2192374
89.8269203
88.0708902
87.777161
87.7572196
91.4994722
92.6187134
92.4688622
92.5447515
88.3943931
87.8971414
87.837853
87.9934127
92.6372402
92.2844363
89.5301642
88.1293772
88.3885735
88.1609621
88.09866
92.8347022
92.2236138
88.8891358
88.0775966
93.0081582
92.263351
88.6916328
88.1234224
93.1007757
92.3538495
89.8129278
87.8901318
87.8689033
93.0786287
92.4363318
89.6898067
87.7710421
87.7306208
92.6918474
92.3899608
88.6953244
88.0264032
92.5525102
92.4382749
89.4841748
87.7383347
87.7012769
92.1014873
92.4241942
88.7689127
87.9107013
91.5933444
92.3928838
88.8095757
87.9918737
92.1041044
92.3456685
88.7552041
88.1110733
93.0542281
92.389436
89.5348832
87.8388699
87.7886474
92.9644391
92.3282408
88.8086657
88.1354248
92.9394193
92.2836194
89.6379054
88.1254343
87.8184799
87.7819892
92.1937662
92.3361618
92.3821759
89.7334042
88.0778042
88.4835143
92.6283385
92.1981275
90.5162593
88.1190243
88.0233407
87.9841615
87.7300321
87.7166467
92.165074
92.5025153
92.6129786
92.4701673
92.3787535
92.4177255
89.5012931
87.6055506
87.5878348
92.2070401
92.5591918
89.1527227
87.5242463
87.4917798
92.7237779
92.3652805
92.4255094
89.0004919
87.8851506
87.9031827
87.7053771
87.6730421
92.2498055
92.3978714
92.5493911
92.2934233
92.3075986
89.7825307
88.0169797
87.7899643
87.7584849
92.2553162
92.3797332
88.5395714
88.0509889
92.5888099
92.3339102
92.4175792
90.7373494
87.9766632
87.9150298
93.057878
92.3846557
89.3105827
87.8270871
87.797424
92.9685261
92.3777258
89.5121127
87.8785076
87.8481478
92.9490301
92.3484626
89.7185348
87.9161872
87.8832605
92.9566334
92.3370543
89.5565038
87.8602328
87.8288252
92.9654019
92.3670149
89.1571932
87.6581994
87.6042886
93.062428
92.3107296
88.1666599
87.6294186
93.1980182
92.2717567
87.9425033
87.4858803
92.9004424
92.2947363
92.6166076
92.3670484
92.2667034
91.9298365
87.3897456
86.9762324
86.9103514
92.7172864
91.8346789
91.8817134
87.624148
86.9338527
92.4087645
91.2500833
91.6899463
90.9624417
88.8234724
87.1907088
91.4180118
90.2058302
90.3942412
89.7637591
89.6675696
89.2616575
89.0845271
88.7185554
88.5202966
88.1659866
87.9544934
87.617655
87.3998598
87.1596328
87.0461396
86.9411892
86.6078576
86.2226568
85.8467552
85.3359854
84.9272201
84.3121398
83.8392968
83.1490924
82.6593088
82.174263
82.2585847
81.6051545
81.2643382
80.2867308
79.7245803
78.549676
77.7631172
76.3515716
75.2879994
73.9136777
72.7310205
71.7536186
73.9959521
72.2302426
70.823539
69.103403
67.4156078
65.8412416
63.922876
62.4283931
60.2598106
58.7949935
57.1348297
56.9021835
54.8002322
53.1492197
49.5768941
46.4967555
43.3620303
34.2170702
22.7988743
19.8139436
14.2565789
9.77947795
3.32725462
-2.96279264
-12.0555161
-23.2091836
-36.2270719
-49.9008026
-59.1964635
-72.9744377
-83.0660532
-93.0979942
-100.454213
-106.923352
-113.200411
-118.831625
-125.34783
-130.24663
-135.257509
-138.824576
-142.522971
-145.394
-148.586408
-151.056558
-153.796899
-155.873695
-158.121561
-159.836646
-161.664619
-163.121829
-164.755912
-166.167765
-167.728108
-169.041408
-170.551994
-171.891583
-173.367407
-174.624909
-175.940319
-176.890352
-177.806211
-178.586108
-179.461978
-180.182362
-181.001541
-181.691143
-182.531715
-183.222217
-184.012197
-184.660792
-185.514255
-186.131141
-186.823495
-187.330793
-187.939599
-188.416249
-188.995184
-189.419738
-189.935079
-190.333583
-190.818239
-191.210699
-191.688182
-192.082018
-192.595409
-193.009167
-193.452475
-193.809009
-194.216081
-194.550818
-194.930505
-195.237311
-195.57933
-195.865474
-196.185954
-196.457424
-196.760158
-197.015205
-197.296755
-197.541929
-197.811053
-198.047664
-198.305214
-198.533685
-198.791612
-199.037643
-199.306166
-199.544886
-199.793958
-200.016925
-200.248648
-200.45752
-200.673728
-200.869932
-201.072229
-201.244286
-201.418377
-201.579294
-201.745185
)
;

boundaryField
{
    closed
    {
        type            calculated;
        value           nonuniform List<scalar> 0();
    }
    open
    {
        type            calculated;
        value           nonuniform List<scalar> 0();
    }
    sides
    {
        type            empty;
    }
    procBoundary4to3
    {
        type            processor;
        value           uniform 88.0052459;
    }
    procBoundary4to5
    {
        type            processor;
        value           uniform -201.899197;
    }
}


// ************************************************************************* //
