/*--------------------------------*- C++ -*----------------------------------*\
| =========                 |                                                 |
| \\      /  F ield         | OpenFOAM: The Open Source CFD Toolbox           |
|  \\    /   O peration     | Version:  2306                                  |
|   \\  /    A nd           | Website:  www.openfoam.com                      |
|    \\/     M anipulation  |                                                 |
\*---------------------------------------------------------------------------*/
FoamFile
{
    version     2.0;
    format      ascii;
    arch        "LSB;label=32;scalar=64";
    class       volScalarField;
    location    "0.00024";
    object      prefDZ_T;
}
// * * * * * * * * * * * * * * * * * * * * * * * * * * * * * * * * * * * * * //

dimensions      [1 -1 -1 -1 0 0 0];

internalField   nonuniform List<scalar> 
530
(
-8.3854185e-11
-8.29819335e-11
-8.35505906e-11
-8.84018665e-11
-8.44237301e-11
-8.32314237e-11
-8.36804671e-11
-8.81773228e-11
-8.49464313e-11
-8.34930869e-11
-8.38249595e-11
-8.80156454e-11
-8.53918881e-11
-8.37666523e-11
-8.40147478e-11
-8.79765439e-11
-8.56793151e-11
-8.40613012e-11
-8.42822418e-11
-8.78192927e-11
-8.58748564e-11
-8.43604366e-11
-8.4616669e-11
-8.76961623e-11
-8.59954508e-11
-8.46287085e-11
-8.4922684e-11
-8.78337873e-11
-8.61354864e-11
-8.48823459e-11
-8.51177358e-11
-8.79950714e-11
-8.63710671e-11
-8.51323051e-11
-8.5307373e-11
-8.81113436e-11
-8.6573122e-11
-8.53750083e-11
-8.55410293e-11
-8.81898133e-11
-8.67573755e-11
-8.5604392e-11
-8.57712982e-11
-8.82976427e-11
-8.69549405e-11
-8.58227551e-11
-8.59865313e-11
-8.84047261e-11
-8.71642027e-11
-8.60353628e-11
-8.61891499e-11
-8.84379002e-11
-8.73834331e-11
-8.62447267e-11
-8.63788076e-11
-8.84364788e-11
-8.76138309e-11
-8.64480171e-11
-8.65552365e-11
-8.83838632e-11
-8.78333964e-11
-8.66442373e-11
-8.6721129e-11
-8.82940339e-11
-8.80089066e-11
-8.68261479e-11
-8.68761715e-11
-8.82173519e-11
-8.8146217e-11
-8.69942953e-11
-8.70244801e-11
-8.81400978e-11
-8.8221741e-11
-8.71462354e-11
-8.71651284e-11
-8.80955761e-11
-8.82381356e-11
-8.72749314e-11
-8.72938651e-11
-8.81642085e-11
-8.82587471e-11
-8.73907674e-11
-8.74103791e-11
-8.82315111e-11
-8.83125965e-11
-8.74967736e-11
-8.75157246e-11
-8.82867843e-11
-8.8360675e-11
-8.7593695e-11
-8.76111879e-11
-8.83283859e-11
-8.84012323e-11
-8.76796339e-11
-8.76977784e-11
-8.8365042e-11
-8.84317481e-11
-8.77569282e-11
-8.77737954e-11
-8.83918639e-11
-8.84477957e-11
-8.78263176e-11
-8.78410247e-11
-8.84088623e-11
-8.84601595e-11
-8.78882298e-11
-8.79009167e-11
-8.84190405e-11
-8.84674439e-11
-8.79431179e-11
-8.79538614e-11
-8.84239973e-11
-8.84701009e-11
-8.7991405e-11
-8.80004111e-11
-8.84251073e-11
-8.84688495e-11
-8.8033742e-11
-8.80411968e-11
-8.8423506e-11
-8.84645404e-11
-8.80706181e-11
-8.80767212e-11
-8.8420012e-11
-8.84579747e-11
-8.8102524e-11
-8.81074777e-11
-8.84151847e-11
-8.84498216e-11
-8.81299577e-11
-8.81339442e-11
-8.84094044e-11
-8.84405957e-11
-8.8153409e-11
-8.81565839e-11
-8.84029255e-11
-8.84306854e-11
-8.81733469e-11
-8.8175841e-11
-8.83958141e-11
-8.84204953e-11
-8.81901922e-11
-8.81921535e-11
-8.83884079e-11
-8.84100538e-11
-8.82043734e-11
-8.82058857e-11
-8.83807837e-11
-8.83995839e-11
-8.82162467e-11
-8.82174038e-11
-8.8373088e-11
-8.83891963e-11
-8.82261572e-11
-8.82270114e-11
-8.8365419e-11
-8.83790167e-11
-8.82343905e-11
-8.82349997e-11
-8.83578355e-11
-8.83691811e-11
-8.82412021e-11
-8.82416211e-11
-8.83504136e-11
-8.83597788e-11
-8.82468184e-11
-8.82470922e-11
-8.83432303e-11
-8.83508678e-11
-8.82514356e-11
-8.82516003e-11
-8.83363471e-11
-8.83424909e-11
-8.82552243e-11
-8.82553039e-11
-8.83297996e-11
-8.83346865e-11
-8.82583253e-11
-8.82583424e-11
-8.83236083e-11
-8.83274822e-11
-8.826086e-11
-8.82608319e-11
-8.83177978e-11
-8.83208783e-11
-8.82629307e-11
-8.82628689e-11
-8.83123913e-11
-8.83148551e-11
-8.82646224e-11
-8.82645345e-11
-8.83074036e-11
-8.83093839e-11
-8.82660039e-11
-8.82658975e-11
-8.83028336e-11
-8.83044382e-11
-8.8267132e-11
-8.82670147e-11
-8.82986795e-11
-8.82999813e-11
-8.82680537e-11
-8.82679322e-11
-8.82949231e-11
-8.82959836e-11
-8.8268808e-11
-8.82686873e-11
-8.8291549e-11
-8.82924071e-11
-8.82694262e-11
-8.82693106e-11
-8.82885281e-11
-8.82892237e-11
-8.82699345e-11
-8.82698262e-11
-8.82858398e-11
-8.82863947e-11
-8.82703526e-11
-8.82702553e-11
-8.82834573e-11
-8.82838881e-11
-8.8270698e-11
-8.82706131e-11
-8.82813516e-11
-8.82816744e-11
-8.82709841e-11
-8.82709129e-11
-8.82794965e-11
-8.8279724e-11
-8.82712223e-11
-8.82711647e-11
-8.82778657e-11
-8.82780099e-11
-8.82714213e-11
-8.82713772e-11
-8.82764335e-11
-8.8276508e-11
-8.82715883e-11
-8.82715568e-11
-8.82751784e-11
-8.82751957e-11
-8.82717287e-11
-8.82717082e-11
-8.82740873e-11
-8.82740603e-11
-8.8271845e-11
-8.8271836e-11
-8.82731299e-11
-8.82730748e-11
-8.82719399e-11
-8.82719371e-11
-8.82723322e-11
-8.82722645e-11
-8.8271996e-11
-8.82719908e-11
-8.82720093e-11
-8.82720033e-11
-8.82719861e-11
-8.82719813e-11
-8.82719795e-11
-8.8271976e-11
-8.82719698e-11
-8.8271967e-11
-8.82719633e-11
-8.82719613e-11
-8.82719576e-11
-8.8271956e-11
-8.82719532e-11
-8.8271952e-11
-8.82719496e-11
-8.82719488e-11
-8.82719469e-11
-8.82719462e-11
-8.82719447e-11
-8.82719442e-11
-8.82719429e-11
-8.82719426e-11
-8.82719416e-11
-8.82719413e-11
-8.82719405e-11
-8.82719403e-11
-8.82719397e-11
-8.82719396e-11
-8.82719391e-11
-8.8271939e-11
-8.82719386e-11
-8.82719385e-11
-8.82719382e-11
-8.82719382e-11
-8.8271938e-11
-8.82719379e-11
-8.82719377e-11
-8.82719377e-11
-8.82719376e-11
-8.82719375e-11
-8.82719374e-11
-8.82719374e-11
-8.82719374e-11
-8.82719373e-11
-8.82719373e-11
-8.82719373e-11
-8.82719372e-11
-8.82719372e-11
-8.82719372e-11
-8.82719372e-11
-8.82719372e-11
-8.82719372e-11
-8.82719371e-11
-8.82719371e-11
-8.82719371e-11
-8.82719371e-11
-8.82719371e-11
-8.82719371e-11
-8.82719371e-11
-8.82719371e-11
-8.82719371e-11
-8.82719371e-11
-8.82719371e-11
-8.82719371e-11
-8.82719371e-11
-8.82719371e-11
-8.82719371e-11
-8.82719371e-11
-8.82719371e-11
-8.82719371e-11
-8.82719371e-11
-8.82719371e-11
-8.82719371e-11
-8.82719371e-11
-8.82719371e-11
-8.82719371e-11
-8.82719371e-11
-8.82719371e-11
-8.82719371e-11
-8.82719371e-11
-8.82719371e-11
-8.82719371e-11
-8.82719371e-11
-8.82719371e-11
-8.82719371e-11
-8.82719371e-11
-8.82719371e-11
-8.82719371e-11
-8.82719371e-11
-8.82719371e-11
-8.82719371e-11
-8.82719371e-11
-8.82719371e-11
-8.82719371e-11
-8.82719371e-11
-8.82719371e-11
-8.82719371e-11
-8.82719371e-11
-8.82719371e-11
-8.82719371e-11
-8.82719371e-11
-8.82719371e-11
-8.82719371e-11
-8.82719371e-11
-8.82719371e-11
-8.82719371e-11
-8.82719371e-11
-8.82719371e-11
-8.82719371e-11
-8.82719371e-11
-8.82719371e-11
-8.82719371e-11
-8.82719371e-11
-8.82719371e-11
-8.82719371e-11
-8.82719371e-11
-8.82719371e-11
-8.82719371e-11
-8.82719371e-11
-8.82719371e-11
-8.82719371e-11
-8.82719371e-11
-8.82719371e-11
-8.82719371e-11
-8.82719371e-11
-8.82719371e-11
-8.82719371e-11
-8.82719371e-11
-8.82719371e-11
-8.82719371e-11
-8.82719371e-11
-8.82719371e-11
-8.82719371e-11
-8.82719371e-11
-8.82719371e-11
-8.82719371e-11
-8.82719371e-11
-8.82719371e-11
-8.82719371e-11
-8.82719371e-11
-8.82719371e-11
-8.82719371e-11
-8.82719371e-11
-8.82719371e-11
-8.82719371e-11
-8.82719371e-11
-8.82719371e-11
-8.82719371e-11
-8.82719371e-11
-8.82719371e-11
-8.82719371e-11
-8.82719371e-11
-8.82719371e-11
-8.82719371e-11
-8.82719371e-11
-8.82719371e-11
-8.82719371e-11
-8.82719371e-11
-8.82719371e-11
-8.82719371e-11
-8.82719371e-11
-8.82719371e-11
-8.82719371e-11
-8.82719371e-11
-8.82719371e-11
-8.82719371e-11
-8.82719371e-11
-8.82719371e-11
-8.82719371e-11
-8.82719371e-11
-8.82719371e-11
-8.82719371e-11
-8.82719371e-11
-8.82719371e-11
-8.82719371e-11
-8.82719371e-11
-8.82719371e-11
-8.82719371e-11
-8.82719371e-11
-8.82719371e-11
-8.82719371e-11
-8.82719371e-11
-8.82719371e-11
-8.82719371e-11
-8.82719371e-11
-8.82719371e-11
-8.82719371e-11
-8.82719371e-11
-8.82719371e-11
-8.82719371e-11
-8.82719371e-11
-8.82719371e-11
-8.82719371e-11
-8.82719371e-11
-8.82719371e-11
-8.82719371e-11
-8.82719371e-11
-8.82719371e-11
-8.82719371e-11
-8.82719371e-11
-8.82719371e-11
-8.82719371e-11
-8.82719371e-11
-8.82719371e-11
-8.82719371e-11
-8.82719371e-11
-8.82719371e-11
-8.82719371e-11
-8.82719371e-11
-8.82719371e-11
-8.82719371e-11
-8.82719371e-11
-8.82719371e-11
-8.82719371e-11
-8.82719371e-11
-8.82719371e-11
-8.82719371e-11
-8.82719371e-11
-8.82719371e-11
-8.82719371e-11
-8.82719371e-11
-8.82719371e-11
-8.82719371e-11
-8.82719371e-11
-8.82719371e-11
-8.82719371e-11
-8.82719371e-11
-8.82719371e-11
-8.82719371e-11
-8.82719371e-11
-8.82719371e-11
-8.82719371e-11
-8.82719371e-11
-8.82719371e-11
-8.82719371e-11
-8.82719371e-11
-8.82719371e-11
-8.82719371e-11
-8.82719371e-11
-8.82719371e-11
-8.82719371e-11
-8.82719371e-11
-8.82719371e-11
-8.82719371e-11
-8.82719371e-11
-8.82719371e-11
-8.82719371e-11
-8.82719371e-11
-8.82719371e-11
-8.82719371e-11
-8.82719371e-11
-8.82719371e-11
-8.82719371e-11
-8.82719371e-11
-8.82719371e-11
-8.82719371e-11
-8.82719371e-11
-8.82719371e-11
-8.82719371e-11
-8.82719371e-11
-8.82719371e-11
-8.82719371e-11
-8.82719371e-11
-8.82719371e-11
-8.82719371e-11
-8.82719371e-11
-8.82719371e-11
-8.82719371e-11
-8.82719371e-11
-8.82719371e-11
-8.82719371e-11
-8.82719371e-11
-8.82719371e-11
-8.82719371e-11
-8.82719371e-11
)
;

boundaryField
{
    closed
    {
        type            calculated;
        value           nonuniform List<scalar> 0();
    }
    open
    {
        type            calculated;
        value           uniform -8.82719371e-11;
    }
    sides
    {
        type            empty;
    }
    procBoundary5to4
    {
        type            processor;
        value           uniform -8.87931017e-11;
    }
}


// ************************************************************************* //
