/*--------------------------------*- C++ -*----------------------------------*\
| =========                 |                                                 |
| \\      /  F ield         | OpenFOAM: The Open Source CFD Toolbox           |
|  \\    /   O peration     | Version:  2306                                  |
|   \\  /    A nd           | Website:  www.openfoam.com                      |
|    \\/     M anipulation  |                                                 |
\*---------------------------------------------------------------------------*/
FoamFile
{
    version     2.0;
    format      ascii;
    arch        "LSB;label=32;scalar=64";
    class       volScalarField;
    location    "0.00024";
    object      T;
}
// * * * * * * * * * * * * * * * * * * * * * * * * * * * * * * * * * * * * * //

dimensions      [0 0 0 1 0 0 0];

internalField   nonuniform List<scalar> 
530
(
1436.60471
1443.7589
1443.26987
1442.90569
1447.01444
1454.28846
1455.36528
1454.22248
1457.87269
1465.22046
1467.78644
1465.85793
1469.30436
1476.60296
1480.17736
1477.95901
1481.15249
1488.95714
1492.23105
1490.71161
1493.47826
1501.43328
1503.84534
1503.12966
1505.83292
1512.22419
1515.40611
1513.68478
1517.45744
1522.33787
1527.04553
1524.11498
1528.0762
1532.40801
1538.19083
1534.53529
1538.54329
1542.45553
1548.36646
1544.5489
1548.66544
1551.85128
1557.79339
1553.89414
1558.15992
1560.69724
1566.51995
1562.67565
1566.96498
1569.22185
1574.6627
1571.17796
1575.21375
1577.46249
1582.21469
1579.21746
1582.77839
1585.34883
1589.141
1586.76418
1589.70465
1592.79549
1595.53074
1593.75915
1596.09752
1599.5278
1601.34969
1600.12072
1601.8971
1605.63812
1606.78272
1605.90552
1607.24953
1611.10043
1611.87417
1611.10311
1612.17913
1615.79991
1616.55112
1615.69423
1616.66844
1619.94647
1620.69222
1619.76199
1620.6753
1623.65623
1624.35
1623.39306
1624.20409
1626.97304
1627.58099
1626.61814
1627.30421
1629.82881
1630.43716
1629.44933
1630.02889
1632.32106
1632.85767
1631.92413
1632.42336
1634.49067
1634.93689
1634.08345
1634.50624
1636.36845
1636.73466
1635.95899
1636.3074
1637.98337
1638.27649
1637.57859
1637.8572
1639.36199
1639.59084
1638.96755
1639.18362
1640.53168
1640.7051
1640.14959
1640.31195
1641.51644
1641.64344
1641.14788
1641.26597
1642.33912
1642.42852
1641.98523
1642.06789
1643.02162
1643.08114
1642.68347
1642.73834
1643.58422
1643.62038
1643.26287
1643.29628
1644.04534
1644.06351
1643.74172
1643.75888
1644.42097
1644.42637
1644.13626
1644.14142
1644.72602
1644.72192
1644.46038
1644.45744
1644.97256
1644.96218
1644.72642
1644.7182
1645.17145
1645.15686
1644.94465
1644.93344
1645.33148
1645.31451
1645.1238
1645.11124
1645.46006
1645.44216
1645.27108
1645.25839
1645.56338
1645.54557
1645.39245
1645.38047
1645.64648
1645.62951
1645.4928
1645.48207
1645.71352
1645.69777
1645.57613
1645.56688
1645.76779
1645.75345
1645.64579
1645.63784
1645.81197
1645.79905
1645.70431
1645.69744
1645.84814
1645.83654
1645.75372
1645.74771
1645.87793
1645.86753
1645.79561
1645.79034
1645.90264
1645.89328
1645.8313
1645.82662
1645.92319
1645.91487
1645.86178
1645.85767
1645.9404
1645.93306
1645.88792
1645.88432
1645.95491
1645.94847
1645.91039
1645.90729
1645.96719
1645.9616
1645.92977
1645.92712
1645.97765
1645.97282
1645.9465
1645.9443
1645.98656
1645.98249
1645.96097
1645.95922
1645.9942
1645.99083
1645.97352
1645.97219
1646.00077
1645.99805
1645.98441
1645.98348
1646.00643
1646.00431
1645.99387
1645.99331
1646.01134
1646.00975
1646.00212
1646.00188
1646.01559
1646.01449
1646.00932
1646.00934
1646.01928
1646.01859
1646.01556
1646.0158
1646.02242
1646.02213
1646.02106
1646.02142
1646.02506
1646.02499
1646.0257
1646.02611
1646.02632
1646.02597
1646.02557
1646.02514
1646.02431
1646.02399
1646.02353
1646.02328
1646.02289
1646.0227
1646.02241
1646.02227
1646.02205
1646.02194
1646.02177
1646.0217
1646.02157
1646.02152
1646.02142
1646.02138
1646.02131
1646.02128
1646.02123
1646.02121
1646.02117
1646.02115
1646.02113
1646.02111
1646.02109
1646.02108
1646.02107
1646.02106
1646.02105
1646.02105
1646.02104
1646.02103
1646.02103
1646.02103
1646.02102
1646.02102
1646.02102
1646.02102
1646.02101
1646.02101
1646.02101
1646.02101
1646.02101
1646.02101
1646.02101
1646.02101
1646.02101
1646.02101
1646.02101
1646.02101
1646.02101
1646.02101
1646.02101
1646.02101
1646.02101
1646.02101
1646.02101
1646.021
1646.021
1646.021
1646.021
1646.021
1646.021
1646.021
1646.021
1646.021
1646.021
1646.021
1646.021
1646.021
1646.021
1646.021
1646.021
1646.021
1646.021
1646.021
1646.021
1646.021
1646.021
1646.021
1646.021
1646.021
1646.021
1646.021
1646.021
1646.021
1646.021
1646.021
1646.021
1646.021
1646.021
1646.021
1646.021
1646.021
1646.021
1646.021
1646.021
1646.021
1646.021
1646.021
1646.021
1646.021
1646.021
1646.021
1646.021
1646.021
1646.021
1646.021
1646.021
1646.021
1646.021
1646.021
1646.021
1646.021
1646.021
1646.021
1646.021
1646.021
1646.021
1646.021
1646.021
1646.021
1646.021
1646.021
1646.021
1646.021
1646.021
1646.021
1646.021
1646.021
1646.021
1646.021
1646.021
1646.021
1646.021
1646.021
1646.021
1646.021
1646.021
1646.021
1646.021
1646.021
1646.021
1646.021
1646.021
1646.021
1646.021
1646.021
1646.021
1646.021
1646.021
1646.021
1646.021
1646.021
1646.021
1646.021
1646.021
1646.021
1646.021
1646.021
1646.021
1646.021
1646.021
1646.021
1646.021
1646.021
1646.021
1646.021
1646.021
1646.021
1646.021
1646.021
1646.021
1646.021
1646.021
1646.021
1646.021
1646.021
1646.021
1646.021
1646.021
1646.021
1646.021
1646.021
1646.021
1646.021
1646.021
1646.021
1646.021
1646.021
1646.021
1646.021
1646.021
1646.021
1646.021
1646.021
1646.021
1646.021
1646.021
1646.021
1646.021
1646.021
1646.021
1646.021
1646.021
1646.021
1646.021
1646.021
1646.021
1646.021
1646.021
1646.021
1646.021
1646.021
1646.021
1646.021
1646.021
1646.021
1646.021
1646.021
1646.021
1646.021
1646.021
1646.021
1646.021
1646.021
1646.021
1646.021
1646.021
1646.021
1646.021
1646.021
1646.021
1646.021
1646.021
1646.021
1646.021
1646.021
1646.021
1646.021
1646.021
1646.021
1646.021
1646.021
1646.021
1646.021
1646.021
1646.021
1646.021
1646.021
1646.021
1646.021
1646.021
1646.021
1646.021
1646.021
1646.021
1646.021
1646.021
1646.021
1646.021
1646.021
1646.021
1646.021
1646.021
1646.021
1646.021
1646.021
1646.021
1646.021
1646.021
1646.021
1646.021
)
;

boundaryField
{
    closed
    {
        type            fixedValue;
        value           nonuniform List<scalar> 0();
    }
    open
    {
        type            zeroGradient;
    }
    sides
    {
        type            empty;
    }
    procBoundary5to4
    {
        type            processor;
        value           uniform 1431.99684;
    }
}


// ************************************************************************* //
