/*--------------------------------*- C++ -*----------------------------------*\
| =========                 |                                                 |
| \\      /  F ield         | OpenFOAM: The Open Source CFD Toolbox           |
|  \\    /   O peration     | Version:  2306                                  |
|   \\  /    A nd           | Website:  www.openfoam.com                      |
|    \\/     M anipulation  |                                                 |
\*---------------------------------------------------------------------------*/
FoamFile
{
    version     2.0;
    format      ascii;
    arch        "LSB;label=32;scalar=64";
    class       volVectorField;
    location    "6e-05";
    object      U;
}
// * * * * * * * * * * * * * * * * * * * * * * * * * * * * * * * * * * * * * //

dimensions      [0 1 -1 0 0 0 0];

internalField   nonuniform List<vector> 
530
(
(-0.984859208 0 0)
(-0.986913173 0 0)
(-0.989470754 0 0)
(-0.992534686 0 0)
(-0.99610633 0 0)
(-1.00018556 0 0)
(-1.00477067 0 0)
(-1.00985829 0 0)
(-1.01544332 0 0)
(-1.0215188 0 0)
(-1.02807593 0 0)
(-1.0351039 0 0)
(-1.04258994 0 0)
(-1.05051924 0 0)
(-1.05887493 0 0)
(-1.06763807 0 0)
(-1.07678762 0 0)
(-1.08630052 0 0)
(-1.09615164 0 0)
(-1.10631387 0 0)
(-1.11675814 0 0)
(-1.1274535 0 0)
(-1.1383672 0 0)
(-1.14946477 0 0)
(-1.16071013 0 0)
(-1.17206574 0 0)
(-1.18349269 0 0)
(-1.19495084 0 0)
(-1.20639894 0 0)
(-1.21779481 0 0)
(-1.22909557 0 0)
(-1.24025773 0 0)
(-1.25123742 0 0)
(-1.26199053 0 0)
(-1.27247295 0 0)
(-1.2826407 0 0)
(-1.29245016 0 0)
(-1.30185828 0 0)
(-1.3108227 0 0)
(-1.31930202 0 0)
(-1.32725595 0 0)
(-1.33464547 0 0)
(-1.34143304 0 0)
(-1.34758277 0 0)
(-1.35306054 0 0)
(-1.35783422 0 0)
(-1.36187377 0 0)
(-1.36515136 0 0)
(-1.36764158 0 0)
(-1.36932146 0 0)
(-1.37017064 0 0)
(-1.37017146 0 0)
(-1.36930901 0 0)
(-1.36757122 0 0)
(-1.36494895 0 0)
(-1.361436 0 0)
(-1.35702922 0 0)
(-1.35172845 0 0)
(-1.3455366 0 0)
(-1.33845962 0 0)
(-1.3305065 0 0)
(-1.3216893 0 0)
(-1.3120231 0 0)
(-1.30152598 0 0)
(-1.29021896 0 0)
(-1.27812595 0 0)
(-1.26527372 0 0)
(-1.25169181 0 0)
(-1.23741243 0 0)
(-1.22247044 0 0)
(-1.20690321 0 0)
(-1.19075051 0 0)
(-1.17405446 0 0)
(-1.15685934 0 0)
(-1.13921154 0 0)
(-1.12115938 0 0)
(-1.10275298 0 0)
(-1.08404412 0 0)
(-1.06508612 0 0)
(-1.0459336 0 0)
(-1.0266424 0 0)
(-1.00726934 0 0)
(-0.987872074 0 0)
(-0.968508871 0 0)
(-0.949238447 0 0)
(-0.93011974 0 0)
(-0.911211716 0 0)
(-0.892573152 0 0)
(-0.874262411 0 0)
(-0.856337205 0 0)
(-0.838854355 0 0)
(-0.821869567 0 0)
(-0.805437202 0 0)
(-0.789610033 0 0)
(-0.774438993 0 0)
(-0.759972932 0 0)
(-0.746258376 0 0)
(-0.73333929 0 0)
(-0.721256842 0 0)
(-0.710049176 0 0)
(-0.699751193 0 0)
(-0.690394335 0 0)
(-0.682006389 0 0)
(-0.674611306 0 0)
(-0.668229021 0 0)
(-0.662875315 0 0)
(-0.658561672 0 0)
(-0.655295178 0 0)
(-0.653078433 0 0)
(-0.651909494 0 0)
(-0.651781843 0 0)
(-0.652684386 0 0)
(-0.654601482 0 0)
(-0.657513007 0 0)
(-0.661394445 0 0)
(-0.666217015 0 0)
(-0.671947828 0 0)
(-0.678550089 0 0)
(-0.685983323 0 0)
(-0.694203633 0 0)
(-0.703163979 0 0)
(-0.712814488 0 0)
(-0.723102802 0 0)
(-0.73397445 0 0)
(-0.745373237 0 0)
(-0.757241636 0 0)
(-0.769521204 0 0)
(-0.782153011 0 0)
(-0.795078071 0 0)
(-0.808237772 0 0)
(-0.821574311 0 0)
(-0.835031115 0 0)
(-0.848553253 0 0)
(-0.862087836 0 0)
(-0.87558439 0 0)
(-0.888995213 0 0)
(-0.902275703 0 0)
(-0.915384652 0 0)
(-0.928284515 0 0)
(-0.940941637 0 0)
(-0.953326449 0 0)
(-0.96541362 0 0)
(-0.977182171 0 0)
(-0.98861555 0 0)
(-0.999701664 0 0)
(-1.01043287 0 0)
(-1.02080591 0 0)
(-1.03082186 0 0)
(-1.04048595 0 0)
(-1.04980744 0 0)
(-1.0587994 0 0)
(-1.06747849 0 0)
(-1.07586468 0 0)
(-1.08398092 0 0)
(-1.09185292 0 0)
(-1.09950872 0 0)
(-1.10697837 0 0)
(-1.11429356 0 0)
(-1.1214872 0 0)
(-1.12859305 0 0)
(-1.13564532 0 0)
(-1.14267825 0 0)
(-1.14972571 0 0)
(-1.15682083 0 0)
(-1.16399556 0 0)
(-1.17128033 0 0)
(-1.17870368 0 0)
(-1.18629193 0 0)
(-1.1940688 0 0)
(-1.20205519 0 0)
(-1.21026885 0 0)
(-1.21872416 0 0)
(-1.22743191 0 0)
(-1.23639913 0 0)
(-1.24562892 0 0)
(-1.25512038 0 0)
(-1.26486852 0 0)
(-1.27486422 0 0)
(-1.28509427 0 0)
(-1.29554136 0 0)
(-1.30618423 0 0)
(-1.31699773 0 0)
(-1.32795304 0 0)
(-1.33901782 0 0)
(-1.35015645 0 0)
(-1.36133029 0 0)
(-1.37249797 0 0)
(-1.38361571 0 0)
(-1.39463766 0 0)
(-1.40551624 0 0)
(-1.41620252 0 0)
(-1.42664661 0 0)
(-1.43679806 0 0)
(-1.44660622 0 0)
(-1.45602071 0 0)
(-1.46499174 0 0)
(-1.47347054 0 0)
(-1.48140974 0 0)
(-1.48876372 0 0)
(-1.49548896 0 0)
(-1.50154437 0 0)
(-1.50689158 0 0)
(-1.51149526 0 0)
(-1.51532333 0 0)
(-1.5183472 0 0)
(-1.52054196 0 0)
(-1.52188654 0 0)
(-1.52236387 0 0)
(-1.52196092 0 0)
(-1.52066885 0 0)
(-1.51848295 0 0)
(-1.51540274 0 0)
(-1.51143189 0 0)
(-1.50657818 0 0)
(-1.50085344 0 0)
(-1.49427342 0 0)
(-1.48685768 0 0)
(-1.47862942 0 0)
(-1.46961536 0 0)
(-1.4598455 0 0)
(-1.44935294 0 0)
(-1.43817368 0 0)
(-1.42634636 0 0)
(-1.41391202 0 0)
(-1.40091391 0 0)
(-1.38739715 0 0)
(-1.37340854 0 0)
(-1.35899629 0 0)
(-1.34420971 0 0)
(-1.329099 0 0)
(-1.31371499 0 0)
(-1.29810882 0 0)
(-1.28233177 0 0)
(-1.26643495 0 0)
(-1.25046907 0 0)
(-1.23448423 0 0)
(-1.21852966 0 0)
(-1.20265351 0 0)
(-1.18690266 0 0)
(-1.17132248 0 0)
(-1.1559567 0 0)
(-1.14084716 0 0)
(-1.12603372 0 0)
(-1.11155404 0 0)
(-1.09744347 0 0)
(-1.08373493 0 0)
(-1.07045878 0 0)
(-1.05764273 0 0)
(-1.04531173 0 0)
(-1.03348792 0 0)
(-1.02219057 0 0)
(-1.01143602 0 0)
(-1.00123768 0 0)
(-0.991605976 0 0)
(-0.982548387 0 0)
(-0.974069437 0 0)
(-0.966170739 0 0)
(-0.958851035 0 0)
(-0.952106255 0 0)
(-0.945929595 0 0)
(-0.940311605 0 0)
(-0.935240291 0 0)
(-0.93070123 0 0)
(-0.926677703 0 0)
(-0.923150837 0 0)
(-0.920099755 0 0)
(-0.917501743 0 0)
(-0.915332431 0 0)
(-0.913565967 0 0)
(-0.912175224 0 0)
(-0.911131991 0 0)
(-0.910407187 0 0)
(-0.909971074 0 0)
(-0.909793472 0 0)
(-0.909843983 0 0)
(-0.910092212 0 0)
(-0.910507991 0 0)
(-0.911061602 0 0)
(-0.911723994 0 0)
(-0.912466995 0 0)
(-0.913263523 0 0)
(-0.914087794 0 0)
(-0.914915511 0 0)
(-0.91572405 0 0)
(-0.916492636 0 0)
(-0.917202494 0 0)
(-0.917837004 0 0)
(-0.918381828 0 0)
(-0.918825025 0 0)
(-0.919157148 0 0)
(-0.91937132 0 0)
(-0.919463297 0 0)
(-0.919431502 0 0)
(-0.919277045 0 0)
(-0.919003719 0 0)
(-0.918617975 0 0)
(-0.918128874 0 0)
(-0.917548014 0 0)
(-0.916889446 0 0)
(-0.916169555 0 0)
(-0.915406927 0 0)
(-0.914622198 0 0)
(-0.913837874 0 0)
(-0.913078144 0 0)
(-0.912368667 0 0)
(-0.911736348 0 0)
(-0.911209095 0 0)
(-0.910815573 0 0)
(-0.910584938 0 0)
(-0.910546571 0 0)
(-0.910729797 0 0)
(-0.911163612 0 0)
(-0.911876399 0 0)
(-0.912895656 0 0)
(-0.914247726 0 0)
(-0.915957532 0 0)
(-0.918048323 0 0)
(-0.920541444 0 0)
(-0.92345611 0 0)
(-0.926809206 0 0)
(-0.930615116 0 0)
(-0.934885562 0 0)
(-0.93962949 0 0)
(-0.944852967 0 0)
(-0.950559124 0 0)
(-0.956748126 0 0)
(-0.963417175 0 0)
(-0.970560554 0 0)
(-0.978169702 0 0)
(-0.986233325 0 0)
(-0.994737544 0 0)
(-1.00366607 0 0)
(-1.01300043 0 0)
(-1.02272019 0 0)
(-1.03280324 0 0)
(-1.04322608 0 0)
(-1.05396414 0 0)
(-1.06499211 0 0)
(-1.07628427 0 0)
(-1.08781486 0 0)
(-1.09955846 0 0)
(-1.11149029 0 0)
(-1.12358659 0 0)
(-1.13582496 0 0)
(-1.14818467 0 0)
(-1.16064696 0 0)
(-1.17319534 0 0)
(-1.1858158 0 0)
(-1.19849703 0 0)
(-1.2112306 0 0)
(-1.2240111 0 0)
(-1.2368362 0 0)
(-1.24970674 0 0)
(-1.26262668 0 0)
(-1.27560307 0 0)
(-1.28864595 0 0)
(-1.30176822 0 0)
(-1.31498541 0 0)
(-1.32831547 0 0)
(-1.34177849 0 0)
(-1.35539636 0 0)
(-1.36919241 0 0)
(-1.38319104 0 0)
(-1.39741728 0 0)
(-1.41189636 0 0)
(-1.42665321 0 0)
(-1.44171203 0 0)
(-1.45709576 0 0)
(-1.4728256 0 0)
(-1.48892055 0 0)
(-1.5053969 0 0)
(-1.52226778 0 0)
(-1.53954272 0 0)
(-1.55722726 0 0)
(-1.57532252 0 0)
(-1.59382494 0 0)
(-1.61272591 0 0)
(-1.63201158 0 0)
(-1.65166263 0 0)
(-1.67165418 0 0)
(-1.69195566 0 0)
(-1.71253085 0 0)
(-1.73333791 0 0)
(-1.75432948 0 0)
(-1.77545287 0 0)
(-1.79665032 0 0)
(-1.81785926 0 0)
(-1.83901271 0 0)
(-1.86003966 0 0)
(-1.88086558 0 0)
(-1.90141284 0 0)
(-1.92160136 0 0)
(-1.94134911 0 0)
(-1.96057273 0 0)
(-1.97918818 0 0)
(-1.99711133 0 0)
(-2.01425862 0 0)
(-2.03054768 0 0)
(-2.04589797 0 0)
(-2.06023136 0 0)
(-2.0734727 0 0)
(-2.08555039 0 0)
(-2.09639689 0 0)
(-2.10594918 0 0)
(-2.11414917 0 0)
(-2.12094412 0 0)
(-2.12628693 0 0)
(-2.13013642 0 0)
(-2.13245756 0 0)
(-2.13322163 0 0)
(-2.13240633 0 0)
(-2.12999584 0 0)
(-2.12598085 0 0)
(-2.12035848 0 0)
(-2.11313221 0 0)
(-2.10431178 0 0)
(-2.09391299 0 0)
(-2.08195748 0 0)
(-2.06847254 0 0)
(-2.05349082 0 0)
(-2.03705002 0 0)
(-2.01919264 0 0)
(-1.99996556 0 0)
(-1.9794198 0 0)
(-1.95761011 0 0)
(-1.93459462 0 0)
(-1.91043448 0 0)
(-1.88519354 0 0)
(-1.85893793 0 0)
(-1.83173576 0 0)
(-1.80365673 0 0)
(-1.77477182 0 0)
(-1.74515294 0 0)
(-1.71487264 0 0)
(-1.68400375 0 0)
(-1.65261915 0 0)
(-1.62079142 0 0)
(-1.58859262 0 0)
(-1.55609401 0 0)
(-1.5233658 0 0)
(-1.49047693 0 0)
(-1.45749485 0 0)
(-1.42448533 0 0)
(-1.39151222 0 0)
(-1.35863733 0 0)
(-1.32592021 0 0)
(-1.29341802 0 0)
(-1.26118536 0 0)
(-1.22927417 0 0)
(-1.19773354 0 0)
(-1.16660964 0 0)
(-1.1359456 0 0)
(-1.10578141 0 0)
(-1.0761538 0 0)
(-1.04709621 0 0)
(-1.01863865 0 0)
(-0.990807709 0 0)
(-0.96362645 0 0)
(-0.937114384 0 0)
(-0.911287435 0 0)
(-0.886157922 0 0)
(-0.861734548 0 0)
(-0.838022402 0 0)
(-0.815022979 0 0)
(-0.792734212 0 0)
(-0.771150516 0 0)
(-0.750262856 0 0)
(-0.730058821 0 0)
(-0.710522728 0 0)
(-0.691635733 0 0)
(-0.673375966 0 0)
(-0.655718687 0 0)
(-0.63863646 0 0)
(-0.622099342 0 0)
(-0.6060751 0 0)
(-0.590529439 0 0)
(-0.575426259 0 0)
(-0.560727921 0 0)
(-0.546395536 0 0)
(-0.532389269 0 0)
(-0.518668656 0 0)
(-0.505192942 0 0)
(-0.491921419 0 0)
(-0.478813787 0 0)
(-0.465830508 0 0)
(-0.452933182 0 0)
(-0.440084908 0 0)
(-0.427250657 0 0)
(-0.414397638 0 0)
(-0.401495655 0 0)
(-0.38851746 0 0)
(-0.375439086 0 0)
(-0.362240175 0 0)
(-0.348904277 0 0)
(-0.335419131 0 0)
(-0.321776926 0 0)
(-0.307974525 0 0)
(-0.294013666 0 0)
(-0.279901128 0 0)
(-0.265648858 0 0)
(-0.251274065 0 0)
(-0.236799273 0 0)
(-0.222252329 0 0)
(-0.207666371 0 0)
(-0.193079752 0 0)
(-0.178535916 0 0)
(-0.164083227 0 0)
(-0.149774758 0 0)
(-0.135668022 0 0)
(-0.121824667 0 0)
(-0.108310118 0 0)
(-0.0951931751 0 0)
(-0.0825455658 0 0)
(-0.0704414559 0 0)
(-0.0589569104 0 0)
(-0.048169308 0 0)
(-0.0381566942 0 0)
(-0.0289970415 0 0)
(-0.0207673297 0 0)
(-0.0135421867 0 0)
(-0.00739119462 0 0)
(-0.00237007254 0 0)
(0.00150299635 0 0)
(0.00413132494 0 0)
(0.00547361493 0 0)
(0.00531913313 0 0)
(0.00357033147 0 0)
(0.000444454627 0 0)
(-0.00421268027 0 0)
(-0.0105178652 0 0)
)
;

boundaryField
{
    closed
    {
        type            noSlip;
    }
    open
    {
        type            inletOutlet;
        inletValue      nonuniform List<vector> 0();
        value           nonuniform List<vector> 0();
    }
    sides
    {
        type            empty;
    }
    procBoundary2to1
    {
        type            processor;
        value           uniform (-0.983304822 0 0);
    }
    procBoundary2to3
    {
        type            processor;
        value           uniform (-0.0183169962 0 0);
    }
}


// ************************************************************************* //
