/*--------------------------------*- C++ -*----------------------------------*\
| =========                 |                                                 |
| \\      /  F ield         | OpenFOAM: The Open Source CFD Toolbox           |
|  \\    /   O peration     | Version:  2306                                  |
|   \\  /    A nd           | Website:  www.openfoam.com                      |
|    \\/     M anipulation  |                                                 |
\*---------------------------------------------------------------------------*/
FoamFile
{
    version     2.0;
    format      ascii;
    arch        "LSB;label=32;scalar=64";
    class       volScalarField;
    location    "0.00112";
    object      H2O;
}
// * * * * * * * * * * * * * * * * * * * * * * * * * * * * * * * * * * * * * //

dimensions      [0 0 0 0 0 0 0];

internalField   nonuniform List<scalar> 
531
(
0.000900656551
0.00678992201
0.00773280553
0.00702683673
0.00100480391
0.000936076527
0.00668506264
0.00669700478
0.000954337183
0.000889715463
0.00678784883
0.00658493776
0.000956310844
0.00093178033
0.00672168518
0.00757804437
0.00661352875
0.00100859232
0.000826979233
0.00661013965
0.00625437877
0.000975370578
0.000903237403
0.00674967641
0.0073889173
0.00607324284
0.00102102786
0.00105333129
0.00655357214
0.00591158607
0.00098752267
0.000863920004
0.00681967025
0.00724648465
0.00520892792
0.000999128884
0.000955919336
0.00719037766
0.00727280749
0.00701493165
0.00446779811
0.00105283737
0.00107297475
0.00101390317
0.000983048289
0.00403124524
0.00698592762
0.00696467318
0.00690967025
0.00691304209
0.00440830764
0.00104148231
0.000938473422
0.00523589398
0.00726719297
0.00608644891
0.000890087099
0.000862079596
0.0060572663
0.0073478887
0.00591063088
0.000923582042
0.000873352503
0.0060677361
0.00717390816
0.00719807002
0.00677089876
0.00163671161
0.0010507742
0.00100867801
0.00106102343
0.000876370932
0.0055101916
0.00731235563
0.00732851271
0.0057563193
0.000947974864
0.000847962181
0.00650123458
0.00738885598
0.00559578637
0.000963484002
0.000865517511
0.00645879659
0.00731647703
0.00556409698
0.000987256735
0.000887757228
0.00635834067
0.00725764542
0.00563812453
0.000994132949
0.000857181756
0.00678557389
0.00741674141
0.00707064488
0.00388341559
0.000998208166
0.00234497035
0.00714107062
0.00624676385
0.000955771555
0.00152134156
0.00659747533
0.00562209102
0.00102523346
0.000864707799
0.00711334152
0.00717725097
0.00385652622
0.00104090632
0.000857185264
0.00712082242
0.00720874566
0.00472270403
0.00106260879
0.000941049037
0.0065827826
0.0072627246
0.00563957403
0.00105122508
0.000965616152
0.00647338966
0.00731104443
0.00731148677
0.00655818002
0.000963786597
0.000841240215
0.00686452395
0.00669452564
0.000966763511
0.000855885303
0.0069034947
0.00669237265
0.000977301347
0.000854170817
0.00688106387
0.00662733289
0.000991159808
0.000846863874
0.00680557706
0.00642264278
0.000998459038
0.00099098837
0.00683209814
0.00757251888
0.00655490544
0.000965339285
0.000856466634
0.00660545397
0.00635563327
0.000990455504
0.0010199557
0.00623823585
0.00750321516
0.00710234023
0.000760424334
0.00100692932
0.00411099046
0.00728030723
0.00717628542
0.000844696487
0.000968119924
0.00624061562
0.00666219217
0.000754036215
0.00103571909
0.00389773575
0.00704217119
0.00709752073
0.00297862596
0.00099590464
0.00215707136
0.00715709976
0.00724963761
0.00137319498
0.000999439869
0.00379778203
0.00700934217
0.00740314341
0.00715507657
0.00100647603
0.00108407244
0.000970532852
0.00621999571
0.00653012269
0.000772231705
0.00103898896
0.00430351794
0.00693382703
0.00731401633
0.00712874093
0.000809957841
0.00109919182
0.00106923393
0.00547869657
0.00700150876
0.00696508776
0.00737842532
0.00737542014
0.000805866783
0.00102468791
0.00479662691
0.00680801437
0.00511892623
0.000970354994
0.00289027675
0.00673844153
0.00457859208
0.000986548626
0.00406975412
0.006757875
0.00397024808
0.000994991015
0.00284334733
0.00723475422
0.0072348912
0.000834784284
0.00102548285
0.00486513767
0.00733609351
0.0070907265
0.000898605413
0.00102317449
0.00548689475
0.00749897081
0.00722297792
0.00090195381
0.00103825145
0.00653161709
0.0069947472
0.000783288679
0.00101634867
0.00568484568
0.007515716
0.0072572203
0.000915110099
0.00101832255
0.00662669861
0.00706575102
0.000829780815
0.00102320917
0.00668202039
0.00700647987
0.000852571564
0.00102864225
0.00665385072
0.00688237949
0.000873874267
0.00103326754
0.00655338726
0.00743981726
0.00584569656
0.000982873833
0.000764157396
0.00677018747
0.0066173372
0.000991517881
0.00102665077
0.00648509762
0.00737446218
0.00481795751
0.00100032584
0.00081036492
0.00704263187
0.00737329087
0.00352583209
0.00103794159
0.00164057049
0.00680416369
0.00706437539
0.00733401247
0.00694437364
0.000874695914
0.00104711338
0.000967192253
0.00100679395
0.00105924776
0.00101364388
0.00559673051
0.00708836634
0.00693763384
0.00704220273
0.00705320126
0.00723954072
0.00551269725
0.000991039927
0.000745141686
0.00709640757
0.00745244908
0.00356225115
0.00102464155
0.00369418329
0.00679492446
0.00493148367
0.00102647413
0.00464741064
0.006690522
0.000761596267
0.0010556257
0.00418191613
0.0072556291
0.00724935604
0.00200857787
0.00103765485
0.00593527892
0.00672868395
0.000814768232
0.00106219279
0.00441699968
0.00735942254
0.00723758528
0.000757948851
0.00104173214
0.00415074914
0.00734465876
0.00724075541
0.000744981638
0.00104438966
0.0040580285
0.0073104645
0.00722993569
0.000735879031
0.00104610473
0.00399752625
0.00728528934
0.00722691312
0.000726658985
0.0010463369
0.00398074766
0.00726808691
0.00722838647
0.000717480843
0.00104489149
0.00399774516
0.00726921616
0.00724325743
0.000705355514
0.00104013033
0.00406648272
0.00730878382
0.0072929431
0.000692045978
0.0010316266
0.00414945438
0.00737529961
0.00736007048
0.000687772802
0.00105122195
0.00594822854
0.00671159961
0.000731954457
0.00105836335
0.00422637709
0.00738620072
0.00738170641
0.000643717589
0.00101619233
0.00363845463
0.00749808634
0.00752974487
0.00058812449
0.000973835129
0.00416264154
0.00797383071
0.00797005376
0.00045452321
0.000927521519
0.000876858281
0.000965111635
0.00634138244
0.00763506426
0.00057076369
0.00108641578
0.00243525752
0.00863080681
0.00880789033
0.0017235816
0.00161796333
0.00160303585
0.0019335196
0.002004045
0.00225591824
0.00236958568
0.0025897271
0.00273186264
0.00292022464
0.00308314776
0.00324739291
0.00342182282
0.00355489581
0.00370888213
0.00377824097
0.00378977408
0.00361733698
0.00330359698
0.00355871364
0.00379683384
0.00410256622
0.0044147535
0.00476277116
0.00514188563
0.0055446034
0.00592180374
0.00610204138
0.00556347804
0.00571112356
0.00587324445
0.00636513778
0.00675190405
0.00748753789
0.00808715453
0.00900684314
0.00967535343
0.0105251351
0.0105030816
0.00461667522
0.00555160101
0.00659285388
0.00776652406
0.00880408158
0.0100044407
0.0110153483
0.0122764642
0.0133033294
0.0136686979
0.0108250917
0.0116986405
0.012877031
0.0112369412
0.0110567838
0.0172131699
0.0165269754
0.0172211382
0.0193483587
0.0198564218
0.0216577512
0.0243481793
0.0283950118
0.0337250844
0.0384770303
0.0445550984
0.0494959359
0.055043381
0.0596764047
0.065213053
0.069241595
0.0735453249
0.0781915952
0.0827421457
0.0867293881
0.0904064791
0.0937669861
0.0969484356
0.0999308075
0.102660635
0.105254569
0.107548984
0.10975902
0.111618982
0.113394228
0.114822191
0.116281562
0.117547025
0.118835782
0.11995117
0.121064141
0.122072793
0.123083973
0.123901998
0.124767193
0.125385181
0.126071148
0.126615031
0.127262787
0.127791546
0.12841343
0.128916843
0.129547579
0.130026483
0.130443972
0.130759824
0.131112795
0.131394143
0.131704641
0.131951581
0.13222804
0.132466677
0.132737788
0.132968147
0.133227113
0.133447959
0.133684386
0.13392091
0.134177643
0.134403195
0.134642913
0.134856675
0.135079406
0.135280838
0.135487144
0.135671039
0.135860206
0.136035745
0.1362152
0.13638353
0.136558022
0.136722987
0.136891132
0.137051092
0.137219771
0.137385289
0.137546663
0.137696793
0.137845289
0.137988324
0.138129851
0.138266258
0.13840133
0.138531545
0.138660637
0.138785025
0.138908195
0.139026675
0.139144208
0.139257226
0.139369542
0.139477496
0.139584968
0.139688211
0.139791175
)
;

boundaryField
{
    closed
    {
        type            calculated;
        value           nonuniform List<scalar> 0();
    }
    open
    {
        type            calculated;
        value           nonuniform List<scalar> 0();
    }
    sides
    {
        type            empty;
    }
    procBoundary4to3
    {
        type            processor;
        value           uniform 0.00102549369;
    }
    procBoundary4to5
    {
        type            processor;
        value           uniform 0.139889132;
    }
}


// ************************************************************************* //
