/*--------------------------------*- C++ -*----------------------------------*\
| =========                 |                                                 |
| \\      /  F ield         | OpenFOAM: The Open Source CFD Toolbox           |
|  \\    /   O peration     | Version:  2306                                  |
|   \\  /    A nd           | Website:  www.openfoam.com                      |
|    \\/     M anipulation  |                                                 |
\*---------------------------------------------------------------------------*/
FoamFile
{
    version     2.0;
    format      ascii;
    arch        "LSB;label=32;scalar=64";
    class       volScalarField;
    location    "0.00112";
    object      prefDPV_T;
}
// * * * * * * * * * * * * * * * * * * * * * * * * * * * * * * * * * * * * * //

dimensions      [1 -1 -1 -1 0 0 0];

internalField   nonuniform List<scalar> 
531
(
6.10479232e-10
5.90595865e-10
5.88768303e-10
5.89785856e-10
6.09115443e-10
6.10197521e-10
5.90895741e-10
5.9042845e-10
6.09346694e-10
6.10890393e-10
5.90662445e-10
5.90691463e-10
6.09271201e-10
6.10396511e-10
5.90734896e-10
5.88993844e-10
5.90559168e-10
6.09082706e-10
6.11766417e-10
5.90981451e-10
5.91685127e-10
6.09101006e-10
6.10842489e-10
5.9068106e-10
5.89396467e-10
5.92253332e-10
6.08998657e-10
6.11069132e-10
5.91048978e-10
5.92810536e-10
6.09020392e-10
6.11393462e-10
5.90548148e-10
5.8970894e-10
5.95172375e-10
6.09267113e-10
6.1149513e-10
5.89931701e-10
5.89536084e-10
5.90029048e-10
5.97742261e-10
6.08658968e-10
6.08518234e-10
6.09256317e-10
6.09735659e-10
5.99304916e-10
5.9016551e-10
5.90257789e-10
5.9018416e-10
5.90298578e-10
5.97976991e-10
6.08807275e-10
6.10488528e-10
5.94997389e-10
5.89686979e-10
5.92126211e-10
6.10186613e-10
6.11325988e-10
5.92370934e-10
5.89599757e-10
5.92670781e-10
6.09866943e-10
6.11121998e-10
5.92489086e-10
5.89862509e-10
5.89691292e-10
5.90303572e-10
6.08670308e-10
6.08734346e-10
6.09569807e-10
6.08764463e-10
6.11212783e-10
5.94241205e-10
5.89643126e-10
5.8945383e-10
5.9329882e-10
6.09518557e-10
6.1141697e-10
5.91120598e-10
5.89582722e-10
5.93821349e-10
6.09432188e-10
6.11160208e-10
5.91225767e-10
5.89713912e-10
5.93960794e-10
6.09202064e-10
6.10878951e-10
5.91503818e-10
5.89826381e-10
5.93717925e-10
6.09208106e-10
6.10974165e-10
5.90710423e-10
5.89398117e-10
5.89996182e-10
5.99917504e-10
6.09490557e-10
6.05807201e-10
5.90006679e-10
5.9183324e-10
6.09636312e-10
6.09144048e-10
5.91047963e-10
5.93977425e-10
6.08964738e-10
6.10787515e-10
5.89901716e-10
5.89890118e-10
6.00019449e-10
6.09006451e-10
6.1067405e-10
5.89913243e-10
5.8982146e-10
5.96923449e-10
6.08719023e-10
6.09856753e-10
5.90862759e-10
5.89706546e-10
5.93758793e-10
6.088731e-10
6.09524776e-10
5.91301089e-10
5.8953791e-10
5.89546113e-10
5.91055977e-10
6.09576613e-10
6.1075838e-10
5.90491465e-10
5.91079675e-10
6.09509596e-10
6.10626929e-10
5.90372305e-10
5.91087561e-10
6.0938305e-10
6.10614254e-10
5.90354269e-10
5.9123299e-10
6.09227323e-10
6.10678999e-10
5.90440357e-10
5.91534602e-10
6.09171642e-10
6.09219165e-10
5.90307404e-10
5.89098415e-10
5.91068508e-10
6.09733212e-10
6.1044527e-10
5.90870892e-10
5.91682073e-10
6.09310172e-10
6.0902842e-10
5.9182239e-10
5.89428226e-10
5.89982967e-10
6.11893037e-10
6.09326025e-10
5.99084417e-10
5.8975662e-10
5.89875327e-10
6.11029675e-10
6.09445192e-10
5.92046524e-10
5.90969929e-10
6.12069559e-10
6.0903068e-10
5.99866104e-10
5.9012442e-10
5.90016477e-10
6.03308457e-10
6.09609419e-10
6.06564785e-10
5.90027236e-10
5.8977499e-10
6.09772564e-10
6.09451811e-10
6.00274199e-10
5.90163324e-10
5.89625915e-10
5.89964437e-10
6.11291607e-10
6.08620853e-10
6.09564824e-10
5.92020628e-10
5.91315043e-10
6.12057563e-10
6.08945682e-10
5.98438121e-10
5.9022841e-10
5.89673427e-10
5.89892199e-10
6.11566608e-10
6.0831828e-10
6.08588312e-10
5.94271277e-10
5.90310134e-10
5.90163123e-10
5.895368e-10
5.89432041e-10
6.11309824e-10
6.08958119e-10
5.96611587e-10
5.90512101e-10
5.95439396e-10
6.09710918e-10
6.03654977e-10
5.90563374e-10
5.97295777e-10
6.09520811e-10
5.99190952e-10
5.90634611e-10
5.9951119e-10
6.09586883e-10
6.03850003e-10
5.8965338e-10
5.89727959e-10
6.11252424e-10
6.09119518e-10
5.96411809e-10
5.89508173e-10
5.90027495e-10
6.10463261e-10
6.09079888e-10
5.94280709e-10
5.89193886e-10
5.8964894e-10
6.10591815e-10
6.08805978e-10
5.91091082e-10
5.90141277e-10
6.1168443e-10
6.09187885e-10
5.93678209e-10
5.89199577e-10
5.89581544e-10
6.10438756e-10
6.08900144e-10
5.9091673e-10
5.89939564e-10
6.11300934e-10
6.08913986e-10
5.90849925e-10
5.90101974e-10
6.11032552e-10
6.08842647e-10
5.90857312e-10
5.90371634e-10
6.1056989e-10
6.08923525e-10
5.90800234e-10
5.89277608e-10
5.93137179e-10
6.09640039e-10
6.12299664e-10
5.90634056e-10
5.91149605e-10
6.09314236e-10
6.0884839e-10
5.90962077e-10
5.89417836e-10
5.96514787e-10
6.09511697e-10
6.12100838e-10
5.90037053e-10
5.89576952e-10
6.01204101e-10
6.09137904e-10
6.08658809e-10
5.90623546e-10
5.90170067e-10
5.8964952e-10
5.90359954e-10
6.10544947e-10
6.08986493e-10
6.09833486e-10
6.09258277e-10
6.08834846e-10
6.09190959e-10
5.93914088e-10
5.90060437e-10
5.9016742e-10
5.90187772e-10
5.89910321e-10
5.89769563e-10
5.94241732e-10
6.09428612e-10
6.12377211e-10
5.89864125e-10
5.89368319e-10
6.01048812e-10
6.09087815e-10
6.00579957e-10
5.90537815e-10
5.96128937e-10
6.08913076e-10
5.971687e-10
5.90695125e-10
6.12353024e-10
6.08776736e-10
5.98830335e-10
5.89648749e-10
5.89512062e-10
6.07166954e-10
6.08844138e-10
5.93018901e-10
5.90657724e-10
6.10702431e-10
6.08813451e-10
5.98026973e-10
5.89596125e-10
5.89677983e-10
6.11581686e-10
6.09122727e-10
5.98984325e-10
5.89675733e-10
5.89696539e-10
6.11803922e-10
6.09111443e-10
5.99322843e-10
5.89753433e-10
5.89728328e-10
6.11955016e-10
6.09089696e-10
5.99542624e-10
5.89800036e-10
5.89730873e-10
6.12099934e-10
6.09073412e-10
5.99602728e-10
5.89824172e-10
5.89715474e-10
6.12230742e-10
6.09063436e-10
5.99538553e-10
5.89800195e-10
5.89659009e-10
6.12384196e-10
6.09066071e-10
5.99284023e-10
5.89676141e-10
5.89513748e-10
6.12481e-10
6.09090843e-10
5.98958047e-10
5.89496487e-10
5.89192784e-10
6.12570277e-10
6.08562717e-10
5.92950848e-10
5.90473578e-10
6.11832598e-10
6.08513661e-10
5.98646151e-10
5.89216937e-10
5.89042082e-10
6.12746929e-10
6.087992e-10
6.00776432e-10
5.88755294e-10
5.88501181e-10
6.12908684e-10
6.08808509e-10
5.98720299e-10
5.87381453e-10
5.8701753e-10
6.135788e-10
6.08302988e-10
6.090844e-10
6.07595677e-10
5.90510647e-10
5.86615033e-10
6.12355271e-10
6.06757272e-10
6.05340835e-10
5.83704798e-10
5.83106278e-10
6.07043834e-10
6.040253e-10
6.04851201e-10
6.01917365e-10
6.01648528e-10
5.9956578e-10
5.98808197e-10
5.96988501e-10
5.95875027e-10
5.94256486e-10
5.92831345e-10
5.91343712e-10
5.89655062e-10
5.88291536e-10
5.86425428e-10
5.85272883e-10
5.83722125e-10
5.82967704e-10
5.82426194e-10
5.80038053e-10
5.77860464e-10
5.75122638e-10
5.72385827e-10
5.69386003e-10
5.66182035e-10
5.62821514e-10
5.59519466e-10
5.56752885e-10
5.56614769e-10
5.52964235e-10
5.5040153e-10
5.45005297e-10
5.41124179e-10
5.34600326e-10
5.2931662e-10
5.2104221e-10
5.14797777e-10
5.06388544e-10
5.01903946e-10
5.11267381e-10
5.02044519e-10
4.93031271e-10
4.82831611e-10
4.73614547e-10
4.62728885e-10
4.53493363e-10
4.41558324e-10
4.32256037e-10
4.21752345e-10
4.21514974e-10
4.08726374e-10
3.97945076e-10
3.90868108e-10
3.79623105e-10
3.47782098e-10
3.39976563e-10
3.2023063e-10
3.0446332e-10
2.87940853e-10
2.73158299e-10
2.5570253e-10
2.37283881e-10
2.15513703e-10
1.97889143e-10
1.76669083e-10
1.60933317e-10
1.43863718e-10
1.29989199e-10
1.14535444e-10
1.03430722e-10
9.18608789e-11
8.01322821e-11
6.89223539e-11
5.93248275e-11
5.068144e-11
4.29417303e-11
3.57889024e-11
2.91690183e-11
2.32726167e-11
1.77197343e-11
1.29439948e-11
8.35463172e-12
4.58657102e-12
9.85163129e-13
-1.85403335e-12
-4.72515963e-12
-7.15909679e-12
-9.56874983e-12
-1.15916598e-11
-1.3571435e-11
-1.53064773e-11
-1.7008719e-11
-1.83729653e-11
-1.97422908e-11
-2.0717704e-11
-2.17263749e-11
-2.25233425e-11
-2.34180696e-11
-2.41594389e-11
-2.49524202e-11
-2.55741637e-11
-2.63230561e-11
-2.69172577e-11
-2.74576235e-11
-2.78385872e-11
-2.82577185e-11
-2.85835449e-11
-2.89509423e-11
-2.92303323e-11
-2.95585206e-11
-2.9835841e-11
-3.01709293e-11
-3.04380364e-11
-3.07603947e-11
-3.1013867e-11
-3.13061807e-11
-3.1569058e-11
-3.1877679e-11
-3.21216504e-11
-3.24150756e-11
-3.26485687e-11
-3.29196025e-11
-3.31351205e-11
-3.33859779e-11
-3.35838271e-11
-3.3817088e-11
-3.40035284e-11
-3.42234622e-11
-3.44014706e-11
-3.46229956e-11
-3.48034636e-11
-3.50159456e-11
-3.51902238e-11
-3.54031888e-11
-3.5586162e-11
-3.57903823e-11
-3.59577977e-11
-3.61472966e-11
-3.6305897e-11
-3.64850288e-11
-3.66354761e-11
-3.6804893e-11
-3.69477902e-11
-3.71086879e-11
-3.72489187e-11
-3.7405237e-11
-3.75382697e-11
-3.76859489e-11
-3.78124338e-11
-3.79521332e-11
-3.80726313e-11
-3.8204944e-11
-3.83199418e-11
-3.84454052e-11
)
;

boundaryField
{
    closed
    {
        type            calculated;
        value           nonuniform List<scalar> 0();
    }
    open
    {
        type            calculated;
        value           nonuniform List<scalar> 0();
    }
    sides
    {
        type            empty;
    }
    procBoundary4to3
    {
        type            processor;
        value           uniform 6.09202623e-10;
    }
    procBoundary4to5
    {
        type            processor;
        value           uniform -3.85572358e-11;
    }
}


// ************************************************************************* //
