/*--------------------------------*- C++ -*----------------------------------*\
| =========                 |                                                 |
| \\      /  F ield         | OpenFOAM: The Open Source CFD Toolbox           |
|  \\    /   O peration     | Version:  2306                                  |
|   \\  /    A nd           | Website:  www.openfoam.com                      |
|    \\/     M anipulation  |                                                 |
\*---------------------------------------------------------------------------*/
FoamFile
{
    version     2.0;
    format      ascii;
    arch        "LSB;label=32;scalar=64";
    class       volScalarField;
    location    "0.00128";
    object      H2O;
}
// * * * * * * * * * * * * * * * * * * * * * * * * * * * * * * * * * * * * * //

dimensions      [0 0 0 0 0 0 0];

internalField   nonuniform List<scalar> 
531
(
0.00640242334
0.00720472631
0.00542776908
0.000891358872
0.000827987419
0.00644898871
0.00723577126
0.00545303042
0.000875872606
0.0010234287
0.0065574979
0.0073378812
0.00566436049
0.000861173422
0.00187155397
0.00646315496
0.00579130646
0.00085378304
0.00188899476
0.00641846479
0.00545576883
0.000860782217
0.00133415822
0.00661274087
0.0073093063
0.00527544047
0.000854509768
0.00213670033
0.00662814956
0.00739543544
0.00684387459
0.00163133029
0.00100531702
0.00097531248
0.00100420562
0.0010457299
0.00111556743
0.00635140243
0.00700469852
0.00720850513
0.0074004107
0.00548679736
0.000832037106
0.00211493541
0.00673728685
0.00732454364
0.00589423482
0.000805674375
0.00105655089
0.00171341446
0.00656898445
0.00721983453
0.00473446329
0.000912309587
0.0030221248
0.00637870059
0.00476139689
0.000911721767
0.00183857971
0.00646492883
0.00687535096
0.00711272761
0.00720895793
0.00480849771
0.00090597764
0.000981643829
0.00102957099
0.00103832926
0.00335720362
0.00708684917
0.00745365998
0.00390542585
0.000921807816
0.00325902056
0.00699596719
0.00721704198
0.00287466912
0.000975701165
0.00357415816
0.00698996602
0.00713548871
0.00219974804
0.000999709933
0.00382739879
0.00701722768
0.00709765072
0.00164115664
0.00101704438
0.00404277585
0.00701372009
0.00705099555
0.00119667685
0.00103352128
0.00426016194
0.00677993013
0.00706509348
0.00613265362
0.000875608582
0.00101951645
0.00526753914
0.00709903494
0.00462284225
0.000922200129
0.00243983414
0.00702804129
0.00716169901
0.001519367
0.00101458752
0.00453523698
0.00715490684
0.00707458816
0.000796577339
0.00103371902
0.00476239884
0.00732764711
0.00732782456
0.000933958457
0.00108200121
0.00108208456
0.0042328757
0.00697909906
0.00731119298
0.00724087727
0.000810030364
0.000996897473
0.00630830374
0.0073099393
0.00235241086
0.000966437607
0.00548201933
0.00703299807
0.00557303152
0.000967414111
0.00103666516
0.00555518951
0.00722084312
0.00670590472
0.000891249925
0.00103641239
0.00606512887
0.00715021053
0.00382698354
0.00096103749
0.00363592224
0.00717693378
0.00678455146
0.000857100119
0.00108422879
0.00257456209
0.00669915551
0.00707725625
0.0064157116
0.000946101106
0.00104198626
0.00562410064
0.00713202297
0.00649140858
0.000934335728
0.00102907851
0.00581583289
0.0072168913
0.00654866527
0.000927292728
0.00101074878
0.00636058148
0.00709905029
0.00250548701
0.000977229208
0.00492200741
0.00707022196
0.00713896296
0.00594069432
0.000945633189
0.000901955637
0.00685193375
0.00724218245
0.00148586073
0.00105023026
0.000807386249
0.00698569177
0.00742504585
0.00484462279
0.000971723193
0.00082856722
0.00705985227
0.00713399432
0.000844024017
0.000997657937
0.00610205017
0.00727656179
0.00657829392
0.000962259083
0.000964842356
0.00650159128
0.00677836488
0.000810219376
0.001009947
0.00535451113
0.00716066845
0.00654412941
0.000989522943
0.000998295222
0.00627388531
0.00738996585
0.00657855516
0.000983033237
0.000994011671
0.00646061209
0.00726077347
0.0038499203
0.000955511111
0.00565818178
0.00686900846
0.00370728275
0.00105949916
0.000929097257
0.00701654672
0.0072627995
0.00418037535
0.00104124836
0.000934172518
0.00707800505
0.00753102058
0.00607206111
0.00103383121
0.000987296944
0.00661723775
0.00732063459
0.00582360693
0.00102665968
0.0010723393
0.00108173392
0.000980552975
0.00615554176
0.00703588493
0.00687474011
0.00705909967
0.0070009643
0.0072789051
0.00636126725
0.00102828375
0.00108515131
0.00151895412
0.00698799824
0.00652133413
0.00106175988
0.000935907046
0.00673530803
0.00738190422
0.00631949636
0.00104871424
0.00079585416
0.00687598855
0.00650140641
0.00104347199
0.000790858232
0.00686374181
0.00639243349
0.00105506239
0.000796449498
0.00681319949
0.00611633961
0.00107790648
0.00103075235
0.00526973386
0.00670975271
0.00667106319
0.00664740062
0.00677444096
0.00473595832
0.00109158438
0.00111102348
0.0010084264
0.00469767592
0.00667965753
0.00641013576
0.00619955336
0.00661777277
0.00565411863
0.00108632771
0.00102513587
0.00501360321
0.00708044472
0.00633728571
0.00105496951
0.00094405894
0.00655212017
0.00741100001
0.00660064041
0.00104354611
0.000861914465
0.00684475109
0.0065367757
0.00104028407
0.000993803875
0.00615992646
0.00718196415
0.00662010192
0.00106961977
0.000988644028
0.00628575837
0.00737897306
0.00682109675
0.00105169441
0.000952051658
0.00679729922
0.00665280057
0.00104850979
0.00102999225
0.00600962801
0.00714180312
0.00681620291
0.00106921422
0.00101748799
0.00612285484
0.0073865225
0.00703558426
0.00104433852
0.00102082199
0.00654266716
0.00704886017
0.00425868239
0.00107632432
0.00101475788
0.00686882845
0.00690078444
0.000984933941
0.00107023069
0.00475565115
0.00689773351
0.00723686413
0.00710825149
0.00100483113
0.00102287423
0.00678005912
0.00692158149
0.000972362409
0.00101519661
0.00679968435
0.00675713355
0.000978814726
0.00112985776
0.00100327107
0.00531443687
0.00725907322
0.00707312932
0.00763833645
0.00748619108
0.000943629518
0.00103825397
0.00440062902
0.00729265401
0.0071709197
0.000951086171
0.00105433813
0.00673452609
0.00698310758
0.000942539288
0.00107570836
0.00663220171
0.0068319505
0.000957572599
0.00107876852
0.00558934741
0.00722337364
0.00716844528
0.000959646573
0.00107536991
0.00646394753
0.00694501156
0.000926468967
0.0010637209
0.0059226841
0.00738330567
0.00737363731
0.000933032864
0.00106277202
0.00642135753
0.00698436613
0.000885049469
0.00105997148
0.0058421871
0.00739143209
0.00738507448
0.000889067161
0.00105776859
0.00639218842
0.00703039244
0.000849289927
0.00105112673
0.00589002794
0.00748320982
0.00747134083
0.000844668838
0.00104688465
0.00651965126
0.00710369203
0.000794286909
0.00106197339
0.00655761525
0.00701312077
0.000796455845
0.00107144716
0.0064316276
0.00696086006
0.000814206379
0.00105642996
0.00573889733
0.00741361654
0.00740371081
0.000819239813
0.00105114066
0.00643628525
0.00703216373
0.000794684024
0.00107112038
0.00641098496
0.00693235135
0.000819881463
0.00106653522
0.00548569827
0.00727894942
0.00727196861
0.000839471563
0.00106999684
0.00631751544
0.00686558437
0.000823961665
0.00109351192
0.00408893763
0.00694769145
0.00695025616
0.000829924525
0.00108272509
0.00553250033
0.00695233788
0.00719738098
0.00721119823
0.000797157221
0.00104070049
0.00587883574
0.00749561749
0.00748419606
0.000851594355
0.0010499465
0.00650501872
0.00710967318
0.000805829015
0.0010695631
0.00651139847
0.00696952321
0.000813103455
0.00108781074
0.00642439534
0.00677382775
0.000801895092
0.00112304329
0.00326002207
0.00633194155
0.00673380125
0.006535654
0.00686999854
0.00687045385
0.000846033015
0.0011061406
0.00355344119
0.00676259195
0.00679873768
0.000897009147
0.00109748201
0.00620314761
0.00678228701
0.000864618839
0.00088727137
0.00661884825
0.00671049735
0.000896797555
0.001088786
0.00510697598
0.00729201387
0.00716852032
0.000917503854
0.00107144583
0.00562148165
0.00722012792
0.00676253636
0.000949447162
0.00109681771
0.00578037868
0.00703513407
0.00734160476
0.00733902141
0.000748820102
0.00104303238
0.00102671765
0.00104161035
0.00596894778
0.00747648785
0.00438331543
0.000974468867
0.0031377809
0.00756305669
0.00762463823
0.000771095226
0.00102821178
0.00416663817
0.00742599274
0.00744909918
0.000787215754
0.0010395622
0.00399709427
0.00738567934
0.00741549661
0.000797375763
0.00103923725
0.00417978118
0.00742581141
0.00744211407
0.000798585006
0.00104127054
0.00378182631
0.00737530042
0.00739177698
0.000807868425
0.00107031788
0.00393380411
0.00684921149
0.0068152765
0.00722984348
0.0069086163
0.000929916718
)
;

boundaryField
{
    closed
    {
        type            calculated;
        value           nonuniform List<scalar> 0();
    }
    open
    {
        type            calculated;
        value           nonuniform List<scalar> 0();
    }
    sides
    {
        type            empty;
    }
    procBoundary3to2
    {
        type            processor;
        value           uniform 0.000816884573;
    }
    procBoundary3to4
    {
        type            processor;
        value           uniform 0.00111489987;
    }
}


// ************************************************************************* //
