/*--------------------------------*- C++ -*----------------------------------*\
| =========                 |                                                 |
| \\      /  F ield         | OpenFOAM: The Open Source CFD Toolbox           |
|  \\    /   O peration     | Version:  2306                                  |
|   \\  /    A nd           | Website:  www.openfoam.com                      |
|    \\/     M anipulation  |                                                 |
\*---------------------------------------------------------------------------*/
FoamFile
{
    version     2.0;
    format      ascii;
    arch        "LSB;label=32;scalar=64";
    class       volScalarField;
    location    "0.00128";
    object      rho;
}
// * * * * * * * * * * * * * * * * * * * * * * * * * * * * * * * * * * * * * //

dimensions      [1 -3 0 0 0 0 0];

internalField   nonuniform List<scalar> 
531
(
0.942881406
0.958224638
0.941791049
0.908706761
0.911795526
0.943271302
0.959137396
0.942196782
0.909011726
0.913684079
0.944331594
0.961484189
0.943272036
0.909183893
0.921112383
0.942477626
0.942559291
0.909424287
0.921476742
0.942238814
0.94227061
0.909611216
0.917035565
0.946114336
0.961460706
0.942828859
0.909431539
0.923965663
0.946697911
0.963650054
0.951445198
0.919792186
0.907783737
0.90918077
0.908922537
0.907828912
0.915821268
0.944790851
0.955374975
0.959776384
0.96421021
0.944430946
0.91084684
0.924442181
0.949693999
0.962673049
0.945066734
0.913166062
0.907623493
0.9214361
0.946202437
0.960429555
0.941892151
0.91016529
0.931432519
0.9438203
0.941694328
0.910393356
0.922539709
0.944214858
0.953005716
0.958215527
0.960382571
0.942134496
0.911349632
0.908543407
0.90881825
0.908796789
0.933677734
0.957619519
0.965755372
0.937741998
0.91015463
0.933066072
0.955718584
0.960597138
0.930696233
0.909503039
0.934991289
0.95561132
0.958794168
0.925383327
0.908981385
0.936395516
0.95619764
0.957949043
0.920661356
0.908674976
0.937517628
0.956099065
0.956878675
0.916746539
0.907909962
0.938464592
0.950851997
0.957081465
0.944213794
0.911469735
0.907180425
0.943025268
0.957660569
0.941138843
0.910659635
0.926946476
0.955980731
0.958843502
0.919079638
0.908222546
0.939104574
0.958507807
0.956685438
0.91121435
0.907966497
0.939870451
0.962108331
0.961876963
0.913061726
0.907303358
0.907492801
0.93727647
0.953916994
0.961213447
0.959707853
0.910699697
0.906671025
0.943050554
0.960981828
0.925024539
0.907178018
0.941696331
0.954832616
0.942223057
0.908990382
0.905621437
0.94219604
0.958848485
0.947596227
0.909625389
0.905794513
0.943101395
0.95726734
0.935331138
0.908443781
0.933764218
0.957869611
0.949221354
0.910195748
0.906045992
0.926528717
0.947335268
0.955567635
0.942571419
0.909061151
0.905530771
0.941999658
0.956580826
0.942815055
0.90855063
0.905140092
0.942570931
0.95832612
0.943812155
0.909227854
0.905212343
0.94261368
0.955802904
0.925803872
0.907193993
0.939353487
0.955337111
0.956890608
0.941200023
0.909638253
0.906422625
0.950762759
0.959452052
0.917866835
0.908430286
0.910348109
0.953800764
0.963766687
0.939464847
0.909943022
0.907548383
0.955374095
0.957130093
0.9101515
0.906813657
0.94316323
0.960168027
0.944833535
0.909246958
0.905927029
0.943092958
0.949005777
0.909296547
0.906663249
0.940963779
0.95711593
0.943694461
0.907325161
0.905289802
0.943252575
0.961952955
0.944271032
0.906882257
0.905044559
0.94319543
0.95905638
0.934568362
0.906847409
0.941539537
0.950512207
0.933700298
0.906756046
0.905635761
0.953611594
0.95899269
0.935920646
0.906625589
0.9055559
0.954681179
0.96463312
0.9410541
0.90604419
0.905462432
0.94430777
0.959541532
0.941077995
0.905102875
0.905294874
0.904367829
0.905459128
0.940397847
0.952498761
0.948805079
0.952753261
0.951300109
0.957363323
0.940373599
0.904972072
0.90375678
0.914661048
0.950358902
0.940175877
0.90217675
0.905625937
0.944472301
0.958567577
0.93935566
0.902751315
0.904770274
0.946985041
0.938819425
0.901155525
0.90510303
0.946309513
0.937065514
0.900906555
0.90472172
0.94482332
0.937340773
0.89996062
0.902090342
0.936200401
0.942096022
0.941167634
0.940564527
0.943157867
0.933776849
0.899325721
0.899229719
0.900641046
0.933601655
0.940545734
0.93705188
0.936827493
0.938949482
0.935664849
0.898421458
0.900688563
0.934080948
0.94843571
0.93698901
0.897822699
0.90104348
0.93687575
0.95535939
0.93789509
0.898882363
0.902308315
0.94304988
0.93650209
0.897454814
0.900699506
0.935532725
0.950408876
0.938368986
0.898526117
0.901083174
0.936036896
0.954912189
0.942836385
0.899281498
0.901712449
0.942471957
0.939436537
0.898271081
0.900835119
0.935774482
0.950114894
0.943121463
0.899207712
0.901136437
0.936281404
0.955615842
0.947976794
0.899098269
0.900788071
0.937572284
0.948462445
0.931164868
0.900625414
0.900764412
0.94481083
0.945508485
0.899276084
0.900952776
0.93303729
0.945607955
0.953070412
0.950188875
0.900790192
0.901499993
0.943276614
0.946284242
0.900938565
0.902227331
0.943791263
0.942827787
0.90742139
0.901264209
0.903971057
0.935004954
0.953863744
0.949708111
0.962233193
0.958704956
0.901464026
0.902327651
0.931845017
0.954605827
0.951792876
0.901502699
0.901107409
0.942414207
0.947723607
0.900592337
0.900993434
0.940165276
0.944444231
0.900643113
0.901427799
0.935570283
0.952968072
0.95166594
0.901413278
0.900681203
0.936535371
0.946876887
0.900891113
0.901080737
0.936415729
0.956538373
0.956223621
0.902049492
0.900850792
0.936240252
0.94795331
0.902134742
0.901452291
0.936517597
0.957085761
0.95685858
0.903469329
0.901374864
0.936606168
0.949428593
0.903357616
0.902123409
0.937209797
0.959724617
0.959297472
0.905220013
0.90166975
0.938981752
0.951629119
0.905148346
0.901955726
0.940111023
0.949996239
0.905439754
0.902546693
0.937702855
0.949181952
0.905481053
0.903393878
0.938022594
0.959456521
0.959064643
0.906698661
0.902857275
0.938312788
0.951191899
0.906041113
0.903145119
0.938184194
0.949160284
0.905864203
0.90381046
0.937884619
0.956856672
0.956552039
0.906460043
0.903220728
0.938049203
0.94772336
0.905866045
0.903762465
0.932689566
0.949464319
0.949438363
0.906113762
0.903383184
0.937414752
0.949366866
0.954718087
0.954907731
0.905669811
0.903595149
0.938216024
0.961133372
0.960607883
0.905802212
0.902318541
0.939323777
0.952287125
0.905450185
0.901948734
0.939317004
0.949122556
0.90532825
0.901734954
0.937319122
0.944806451
0.905533436
0.901788036
0.927094514
0.939460699
0.943822742
0.93958347
0.946733047
0.94669641
0.904962929
0.901780383
0.928836673
0.944315463
0.945076569
0.904046981
0.90098446
0.938437926
0.944705331
0.90466757
0.902045372
0.941201361
0.943162275
0.904668958
0.902206731
0.936022993
0.955730357
0.95307209
0.902962059
0.90206192
0.937842222
0.954270405
0.944362401
0.903811832
0.901697061
0.937327031
0.95031739
0.957140897
0.957030488
0.906748876
0.903510121
0.903985632
0.903399469
0.93855157
0.960314282
0.934065635
0.904979158
0.926557786
0.962405208
0.963685936
0.907507398
0.904108312
0.932261996
0.959530342
0.959998877
0.907293644
0.904300872
0.931693468
0.958825679
0.959440665
0.907097806
0.904294924
0.932777338
0.959882389
0.960196982
0.906873312
0.904233093
0.931097924
0.958883831
0.959215516
0.906023012
0.903744237
0.932279969
0.947516799
0.946805361
0.955829914
0.948855063
0.904103323
)
;

boundaryField
{
    closed
    {
        type            calculated;
        value           nonuniform List<scalar> 0();
    }
    open
    {
        type            calculated;
        value           nonuniform List<scalar> 0();
    }
    sides
    {
        type            empty;
    }
    procBoundary3to2
    {
        type            processor;
        value           uniform 0.910336443;
    }
    procBoundary3to4
    {
        type            processor;
        value           uniform 0.902716847;
    }
}


// ************************************************************************* //
