/*--------------------------------*- C++ -*----------------------------------*\
| =========                 |                                                 |
| \\      /  F ield         | OpenFOAM: The Open Source CFD Toolbox           |
|  \\    /   O peration     | Version:  2306                                  |
|   \\  /    A nd           | Website:  www.openfoam.com                      |
|    \\/     M anipulation  |                                                 |
\*---------------------------------------------------------------------------*/
FoamFile
{
    version     2.0;
    format      ascii;
    arch        "LSB;label=32;scalar=64";
    class       volScalarField;
    location    "0.00074";
    object      prefDPV_H2O;
}
// * * * * * * * * * * * * * * * * * * * * * * * * * * * * * * * * * * * * * //

dimensions      [1 -1 -1 0 0 0 0];

internalField   nonuniform List<scalar> 
531
(
-3.64829356e-07
-3.64579591e-07
-3.73226256e-07
-3.84164744e-07
-3.85243037e-07
-3.64728557e-07
-3.64415035e-07
-3.72591451e-07
-3.84210307e-07
-3.85329655e-07
-3.64380885e-07
-3.64166827e-07
-3.74800339e-07
-3.84403105e-07
-3.77383965e-07
-3.65932363e-07
-3.71359397e-07
-3.83788904e-07
-3.85288762e-07
-3.64643002e-07
-3.64501653e-07
-3.75269503e-07
-3.84212532e-07
-3.78739504e-07
-3.66528493e-07
-3.72755822e-07
-3.83482401e-07
-3.85077734e-07
-3.65695017e-07
-3.65230787e-07
-3.65431926e-07
-3.65081492e-07
-3.75023219e-07
-3.84451493e-07
-3.75099001e-07
-3.65705931e-07
-3.71375176e-07
-3.83858712e-07
-3.85487658e-07
-3.64416702e-07
-3.64196967e-07
-3.7635096e-07
-3.84805634e-07
-3.72578644e-07
-3.65613991e-07
-3.77349644e-07
-3.84507387e-07
-3.72095954e-07
-3.65602706e-07
-3.71540186e-07
-3.83912449e-07
-3.85471037e-07
-3.6431843e-07
-3.63940028e-07
-3.75345825e-07
-3.84835693e-07
-3.73360732e-07
-3.65330133e-07
-3.70529137e-07
-3.8401804e-07
-3.85399952e-07
-3.64299964e-07
-3.63795867e-07
-3.75218529e-07
-3.84949608e-07
-3.71486858e-07
-3.65129287e-07
-3.77613615e-07
-3.84736542e-07
-3.69588773e-07
-3.65041706e-07
-3.7918631e-07
-3.84732787e-07
-3.68937663e-07
-3.64800068e-07
-3.78739956e-07
-3.84691351e-07
-3.6900584e-07
-3.64795028e-07
-3.78308776e-07
-3.84488054e-07
-3.70926088e-07
-3.6507928e-07
-3.69988924e-07
-3.84027166e-07
-3.84492526e-07
-3.64895792e-07
-3.63752296e-07
-3.75493056e-07
-3.84650405e-07
-3.71088781e-07
-3.64836169e-07
-3.75909773e-07
-3.84281014e-07
-3.73272185e-07
-3.65161857e-07
-3.68997088e-07
-3.84033885e-07
-3.84105905e-07
-3.65463545e-07
-3.63865504e-07
-3.74338643e-07
-3.84436885e-07
-3.74317108e-07
-3.65202391e-07
-3.68462262e-07
-3.84150621e-07
-3.84046013e-07
-3.65771058e-07
-3.63937445e-07
-3.74030742e-07
-3.84487889e-07
-3.74928212e-07
-3.65394887e-07
-3.68480446e-07
-3.84123141e-07
-3.8406901e-07
-3.66603891e-07
-3.64327293e-07
-3.68266325e-07
-3.84264398e-07
-3.84245423e-07
-3.66514924e-07
-3.64253535e-07
-3.68055482e-07
-3.84335202e-07
-3.84428191e-07
-3.66478188e-07
-3.642034e-07
-3.68014314e-07
-3.84363194e-07
-3.84684593e-07
-3.66213471e-07
-3.64027518e-07
-3.69562497e-07
-3.84776322e-07
-3.83515112e-07
-3.65828205e-07
-3.67369544e-07
-3.84174934e-07
-3.85045099e-07
-3.66252758e-07
-3.64273157e-07
-3.706086e-07
-3.84858206e-07
-3.81724202e-07
-3.6610961e-07
-3.68284294e-07
-3.84073316e-07
-3.85169098e-07
-3.66995644e-07
-3.64879876e-07
-3.70079984e-07
-3.84169623e-07
-3.85128537e-07
-3.67507954e-07
-3.64949127e-07
-3.65069663e-07
-3.69511986e-07
-3.84402421e-07
-3.85996325e-07
-3.65673512e-07
-3.64441732e-07
-3.72191284e-07
-3.85272345e-07
-3.77729394e-07
-3.66122696e-07
-3.70031687e-07
-3.84288355e-07
-3.86116381e-07
-3.65648971e-07
-3.6459136e-07
-3.74595767e-07
-3.85435296e-07
-3.74593995e-07
-3.66024635e-07
-3.71115789e-07
-3.84398908e-07
-3.86331088e-07
-3.6520783e-07
-3.64535438e-07
-3.75705163e-07
-3.85493887e-07
-3.73160048e-07
-3.65983183e-07
-3.71198386e-07
-3.8422186e-07
-3.85929253e-07
-3.65908119e-07
-3.64588092e-07
-3.71016567e-07
-3.84521002e-07
-3.85978374e-07
-3.65733588e-07
-3.64483557e-07
-3.70615198e-07
-3.84638627e-07
-3.86030164e-07
-3.65116977e-07
-3.64297074e-07
-3.74767958e-07
-3.85504413e-07
-3.71096246e-07
-3.6557014e-07
-3.78443062e-07
-3.85110965e-07
-3.69402143e-07
-3.65624604e-07
-3.81302413e-07
-3.84830715e-07
-3.70786463e-07
-3.65539983e-07
-3.69883491e-07
-3.84143194e-07
-3.8481645e-07
-3.65653496e-07
-3.6414707e-07
-3.74680462e-07
-3.85098828e-07
-3.73133939e-07
-3.65308713e-07
-3.68421201e-07
-3.84315004e-07
-3.84433699e-07
-3.66004924e-07
-3.64248798e-07
-3.74142821e-07
-3.85050358e-07
-3.73962927e-07
-3.65475781e-07
-3.68291181e-07
-3.84459213e-07
-3.84308946e-07
-3.66997464e-07
-3.64560173e-07
-3.68104736e-07
-3.8485894e-07
-3.84435715e-07
-3.6683356e-07
-3.65003058e-07
-3.72102875e-07
-3.8504929e-07
-3.85600967e-07
-3.65411046e-07
-3.64852065e-07
-3.86880132e-07
-3.84559439e-07
-3.73966576e-07
-3.64807759e-07
-3.64430994e-07
-3.69059544e-07
-3.85843618e-07
-3.74224063e-07
-3.651665e-07
-3.7376616e-07
-3.85380403e-07
-3.72086971e-07
-3.65343777e-07
-3.75704378e-07
-3.85193425e-07
-3.71246495e-07
-3.65387801e-07
-3.76827961e-07
-3.85054688e-07
-3.70574058e-07
-3.65530834e-07
-3.78495642e-07
-3.84821527e-07
-3.73175249e-07
-3.65849848e-07
-3.68061145e-07
-3.85345055e-07
-3.84278457e-07
-3.68560921e-07
-3.64351785e-07
-3.66570774e-07
-3.8597575e-07
-3.84446516e-07
-3.6772441e-07
-3.64218181e-07
-3.71466711e-07
-3.85666043e-07
-3.76085399e-07
-3.66019267e-07
-3.6774397e-07
-3.85733424e-07
-3.84366811e-07
-3.67743688e-07
-3.64296817e-07
-3.73356301e-07
-3.85438802e-07
-3.74748896e-07
-3.6609442e-07
-3.68231919e-07
-3.85571979e-07
-3.8428505e-07
-3.69255185e-07
-3.64557377e-07
-3.66883393e-07
-3.86019181e-07
-3.84343825e-07
-3.69030359e-07
-3.64545112e-07
-3.68576779e-07
-3.85871379e-07
-3.85708207e-07
-3.65846966e-07
-3.6418748e-07
-3.74501833e-07
-3.85325865e-07
-3.72819064e-07
-3.657942e-07
-3.70753863e-07
-3.85431213e-07
-3.86830638e-07
-3.65188604e-07
-3.6453067e-07
-3.84341496e-07
-3.84478945e-07
-3.70165856e-07
-3.6566484e-07
-3.70971989e-07
-3.85299801e-07
-3.8662384e-07
-3.65070211e-07
-3.64269181e-07
-3.82870638e-07
-3.84775613e-07
-3.74208809e-07
-3.64691545e-07
-3.64574883e-07
-3.86838579e-07
-3.84334739e-07
-3.67993051e-07
-3.65668246e-07
-3.84357326e-07
-3.84529951e-07
-3.74450629e-07
-3.64620983e-07
-3.64491238e-07
-3.86935654e-07
-3.84344969e-07
-3.67626532e-07
-3.65685411e-07
-3.8635304e-07
-3.84374286e-07
-3.74496034e-07
-3.64809247e-07
-3.64735551e-07
-3.86542978e-07
-3.84429032e-07
-3.72418198e-07
-3.64282201e-07
-3.64139858e-07
-3.86811521e-07
-3.8434959e-07
-3.67512984e-07
-3.65549875e-07
-3.86442805e-07
-3.84460244e-07
-3.7312512e-07
-3.64398495e-07
-3.6416187e-07
-3.85561302e-07
-3.84382539e-07
-3.68164601e-07
-3.65771622e-07
-3.84814325e-07
-3.84401378e-07
-3.75107429e-07
-3.64920441e-07
-3.64648532e-07
-3.83600638e-07
-3.84536461e-07
-3.76133331e-07
-3.64905529e-07
-3.64388748e-07
-3.81504569e-07
-3.84400955e-07
-3.73813819e-07
-3.66293466e-07
-3.67627766e-07
-3.86442166e-07
-3.84156306e-07
-3.7654863e-07
-3.65101973e-07
-3.64261285e-07
-3.76760822e-07
-3.8489201e-07
-3.82058664e-07
-3.67947144e-07
-3.64650872e-07
-3.64117831e-07
-3.72799794e-07
-3.85882019e-07
-3.8428034e-07
-3.84447237e-07
-3.66157337e-07
-3.64425502e-07
-3.7223258e-07
-3.86004388e-07
-3.82450817e-07
-3.66110748e-07
-3.64451808e-07
-3.71745751e-07
-3.8600106e-07
-3.75791356e-07
-3.6615255e-07
-3.72533103e-07
-3.85887834e-07
-3.83421572e-07
-3.66263098e-07
-3.6441572e-07
-3.70766488e-07
-3.86107494e-07
-3.76186371e-07
-3.65962106e-07
-3.72052893e-07
-3.85794447e-07
-3.75700469e-07
-3.659807e-07
-3.71933762e-07
-3.85644238e-07
-3.85048063e-07
-3.66410539e-07
-3.64558881e-07
-3.70969717e-07
-3.8576798e-07
-3.76350485e-07
-3.66153232e-07
-3.72261752e-07
-3.8533824e-07
-3.85332911e-07
-3.66300363e-07
-3.64452438e-07
-3.70938232e-07
-3.8557152e-07
-3.76097298e-07
-3.6604733e-07
-3.72117864e-07
-3.85087571e-07
-3.86605293e-07
-3.6640865e-07
-3.64610781e-07
-3.70628651e-07
-3.85279725e-07
-3.85039977e-07
-3.67691732e-07
-3.64939522e-07
-3.70744274e-07
-3.85088005e-07
-3.856977e-07
-3.69592496e-07
-3.65067958e-07
-3.64308365e-07
-3.70453188e-07
-3.85409689e-07
-3.75561369e-07
-3.65742426e-07
-3.71850509e-07
-3.84926598e-07
-3.85678938e-07
-3.66034716e-07
-3.64260392e-07
-3.71219177e-07
-3.85292819e-07
-3.75383334e-07
-3.65588086e-07
-3.72903403e-07
-3.849781e-07
-3.74288476e-07
-3.65536984e-07
-3.73428124e-07
-3.84924377e-07
-3.73765417e-07
-3.65717293e-07
-3.73180278e-07
-3.84679129e-07
-3.8471241e-07
-3.655465e-07
-3.64106387e-07
-3.72754427e-07
-3.85111544e-07
-3.7317755e-07
-3.65326327e-07
-3.7467321e-07
-3.84821916e-07
-3.72333199e-07
-3.65584519e-07
-3.74174405e-07
-3.84508484e-07
-3.84932834e-07
-3.65466233e-07
-3.64296338e-07
-3.74372909e-07
-3.85029632e-07
-3.71760914e-07
-3.65186928e-07
-3.75682159e-07
-3.84864702e-07
-3.71108257e-07
-3.65323465e-07
-3.74285532e-07
-3.84405511e-07
-3.86779138e-07
-3.65448755e-07
-3.64548244e-07
-3.74178764e-07
-3.84543204e-07
-3.85248464e-07
-3.65557483e-07
-3.64891488e-07
-3.75200116e-07
-3.84499093e-07
-3.83138486e-07
-3.65381696e-07
-3.64857399e-07
-3.75015164e-07
-3.84483092e-07
-3.83449384e-07
-3.6532123e-07
-3.64863522e-07
-3.74736401e-07
-3.84452596e-07
-3.84862254e-07
-3.65333709e-07
-3.64861512e-07
-3.74286651e-07
-3.84426428e-07
-3.86732376e-07
-3.65326446e-07
)
;

boundaryField
{
    closed
    {
        type            calculated;
        value           nonuniform List<scalar> 0();
    }
    open
    {
        type            calculated;
        value           nonuniform List<scalar> 0();
    }
    sides
    {
        type            empty;
    }
    procBoundary1to0
    {
        type            processor;
        value           uniform -3.85169263e-07;
    }
    procBoundary1to2
    {
        type            processor;
        value           uniform -3.64797127e-07;
    }
}


// ************************************************************************* //
