/*--------------------------------*- C++ -*----------------------------------*\
| =========                 |                                                 |
| \\      /  F ield         | OpenFOAM: The Open Source CFD Toolbox           |
|  \\    /   O peration     | Version:  2306                                  |
|   \\  /    A nd           | Website:  www.openfoam.com                      |
|    \\/     M anipulation  |                                                 |
\*---------------------------------------------------------------------------*/
FoamFile
{
    version     2.0;
    format      ascii;
    arch        "LSB;label=32;scalar=64";
    class       volScalarField;
    location    "0.00074";
    object      prefDZ_H;
}
// * * * * * * * * * * * * * * * * * * * * * * * * * * * * * * * * * * * * * //

dimensions      [1 -1 -1 0 0 0 0];

internalField   nonuniform List<scalar> 
531
(
0.00010657128
0.000106354425
0.000107917393
0.000110279616
0.000110250215
0.00010646346
0.000106242752
0.000107885114
0.000110290573
0.000110239998
0.000106236804
0.000106078182
0.000108017371
0.000110281339
0.00010825651
0.000107392133
0.000107824677
0.000110398906
0.000110217196
0.000106446916
0.000106330454
0.000108063302
0.000110311843
0.000108430369
0.000107796925
0.000107900378
0.000110422072
0.000110158557
0.000107188899
0.000106796141
0.000107047487
0.000106747527
0.000108030333
0.000110264635
0.000108010497
0.000107227002
0.000107827975
0.000110378214
0.000110135995
0.000106287191
0.000106071206
0.000108159629
0.000110155403
0.000107807708
0.000107116369
0.000108266294
0.000110225273
0.00010779892
0.000107140359
0.00010782617
0.000110369989
0.000110148154
0.000106222515
0.00010587237
0.000108064152
0.000110143725
0.000107873978
0.000106898844
0.00010780198
0.000110337151
0.00011015799
0.000106209437
0.000105749348
0.000108047391
0.000110116628
0.000107754989
0.000106722466
0.000108293534
0.000110169445
0.000107715938
0.000106686069
0.000108492879
0.000110186239
0.000107714214
0.000106521447
0.000108432724
0.000110202809
0.000107712644
0.000106530746
0.000108377158
0.000110235676
0.000107753786
0.000106747924
0.000107753151
0.000110331453
0.000110361955
0.000106677869
0.000105784813
0.000108062404
0.00011019506
0.000107752936
0.00010655301
0.000108096586
0.000110267785
0.000107873397
0.000106822938
0.00010773269
0.000110338227
0.000110437187
0.000107112339
0.000105901583
0.000107953178
0.000110233721
0.000107960817
0.000106828829
0.000107742551
0.000110312633
0.000110440788
0.000107337322
0.000105956441
0.000107924287
0.000110215569
0.000108015079
0.000106964136
0.000107738497
0.000110311893
0.000110405341
0.000107762359
0.000106222991
0.000107735849
0.000110292324
0.00011035988
0.000107795121
0.000106152673
0.000107748006
0.000110278718
0.000110312009
0.000107785678
0.000106113331
0.000107749299
0.000110299988
0.000110262069
0.000107614627
0.000105978166
0.000107770407
0.000110158512
0.000109144203
0.000107265325
0.000107861873
0.000110368783
0.00011014032
0.000107669224
0.000106153048
0.000107763387
0.000110142317
0.000108860598
0.000107448825
0.000107804611
0.000110373721
0.000110071374
0.000107763376
0.000106590166
0.000107721844
0.000110318025
0.000110093441
0.000107848389
0.00010667103
0.000106747915
0.00010777961
0.000110347288
0.00010992871
0.000107205306
0.000106213148
0.000107816895
0.000110046052
0.000108303861
0.000107429436
0.000107789082
0.000110349289
0.000109911951
0.000107184236
0.000106340825
0.000107980363
0.000110002665
0.000107971437
0.000107351035
0.000107803144
0.000110322811
0.000109905437
0.000106843419
0.000106285215
0.000108084417
0.000109989522
0.000107862632
0.000107316471
0.000107800601
0.000110345861
0.000109975869
0.000107336218
0.000106305749
0.000107789346
0.000110267561
0.000109988975
0.000107163322
0.000106197011
0.000107794733
0.000110253224
0.000110005348
0.000106752839
0.000106058007
0.000107992301
0.000110038334
0.000107746893
0.000107016915
0.000108394783
0.000110140047
0.000107742625
0.000107095643
0.000108796222
0.000110181571
0.000107766841
0.000107025069
0.00010775685
0.000110378005
0.000110299807
0.000107225231
0.000106017501
0.000107977352
0.000110128695
0.000107860811
0.000106840004
0.000107742771
0.000110320873
0.000110365924
0.000107494407
0.000106124241
0.000107927011
0.000110147496
0.000107924771
0.000106975143
0.000107753524
0.000110252854
0.000110373094
0.00010775257
0.000106324246
0.000107774862
0.000110139318
0.000110346478
0.000107807264
0.00010657874
0.000107866795
0.00010998651
0.000110142607
0.000106930932
0.00010644247
0.000109727567
0.000110212135
0.000107996719
0.000106611269
0.000106213254
0.000107710386
0.000109994114
0.000107941433
0.000106727027
0.000107877553
0.000110075013
0.000107798958
0.000106864423
0.000108059047
0.000110124848
0.000107773962
0.000106909934
0.000108185798
0.000110162106
0.000107772056
0.000107019404
0.000108394481
0.000110182997
0.000107897289
0.000107228899
0.000107785486
0.000110034074
0.000110396533
0.000107687594
0.000106151991
0.00010782255
0.000109910477
0.000110382206
0.000107667297
0.000106062209
0.000107733939
0.000109965999
0.000108134346
0.000107287688
0.000107812105
0.000109931603
0.000110401496
0.000107661378
0.000106145102
0.000107834569
0.000110027574
0.000108011854
0.00010734327
0.00010779806
0.000109957154
0.00011038605
0.000107699584
0.000106280752
0.000107814221
0.000109883177
0.000110375271
0.000107710956
0.000106263944
0.000107776521
0.000109900577
0.000110077541
0.000107364375
0.00010597047
0.000107938486
0.000110063895
0.000107862733
0.000107109581
0.000107775031
0.000109976183
0.000109734717
0.000106757618
0.000106267401
0.000109289217
0.000110273565
0.000107788391
0.000107053204
0.000107801135
0.000109995971
0.000109757816
0.000106663012
0.000106023707
0.000109049193
0.000110152966
0.000108000711
0.00010631461
0.000106337839
0.000109758034
0.00011031173
0.000107928347
0.000107094608
0.000109297692
0.000110186768
0.000108027898
0.000106279522
0.000106292383
0.000109749047
0.000110323953
0.000107967069
0.000107113685
0.000109645428
0.00011021569
0.000108043953
0.00010646613
0.000106420208
0.000109850312
0.000110224276
0.00010789138
0.000106071806
0.000106048927
0.000109753659
0.000110326792
0.000107914454
0.000107025855
0.000109662003
0.000110210556
0.000107950858
0.000106145932
0.000106058818
0.000109481742
0.000110325493
0.00010785977
0.0001071954
0.000109373247
0.000110224848
0.000108086223
0.000106573089
0.000106366549
0.000109160659
0.000110211952
0.000108160026
0.000106591391
0.000106251735
0.000108830161
0.000110287902
0.000107948566
0.000107600694
0.000107799057
0.000109589673
0.000110296121
0.000108201687
0.000106737515
0.000106128192
0.000108179797
0.000110102879
0.000108879868
0.000107762157
0.000106326062
0.000106005129
0.000107732184
0.000109824907
0.000110233473
0.000109245821
0.000107577909
0.000106184589
0.000107721752
0.000109845849
0.000108946096
0.000107503436
0.000106214243
0.000107691866
0.000109881465
0.000108106075
0.000107463058
0.000107748199
0.000109888358
0.000109093173
0.000107618608
0.000106179161
0.000107643136
0.000109886309
0.000108142003
0.000107347708
0.000107709587
0.000109974244
0.000108087696
0.000107334103
0.000107721434
0.00010997185
0.000109358091
0.000107749252
0.000106256982
0.000107657077
0.000109966429
0.0001081553
0.000107444944
0.000107764188
0.000110052638
0.000109408383
0.000107677437
0.000106171988
0.000107656857
0.000110019923
0.000108126468
0.000107360697
0.000107774676
0.000110121705
0.000109663605
0.000107758401
0.000106221687
0.000107689363
0.000110067248
0.000110135333
0.00010776201
0.000106489843
0.00010773235
0.000110063504
0.000109953791
0.000107852823
0.000106653611
0.000106129095
0.000107674708
0.000110073277
0.000108065682
0.0001071095
0.000107776254
0.000110169122
0.000109477385
0.000107450291
0.000105984528
0.000107712413
0.000110092212
0.000108050952
0.000107020726
0.000107811497
0.000110174319
0.000107947336
0.00010699926
0.000107847087
0.000110177854
0.000107905339
0.000107109112
0.000107865268
0.000110216668
0.000109319072
0.000107095307
0.000105889275
0.000107800528
0.000110136964
0.00010785409
0.000106848666
0.000107954394
0.000110195869
0.000107804335
0.000107026679
0.000107941344
0.000110234956
0.000109359168
0.000107017672
0.000106012636
0.000107939611
0.000110131015
0.000107775734
0.000106741389
0.000108059851
0.000110174958
0.00010775133
0.00010684294
0.000107958508
0.000110251315
0.000109748408
0.000106994476
0.000106165479
0.000107956411
0.000110193966
0.00010942027
0.000107047215
0.000106450977
0.000108047625
0.000110204896
0.000109071445
0.000106932618
0.000106468029
0.000108031217
0.000110226894
0.000109123919
0.0001068929
0.000106475824
0.000108011765
0.000110237367
0.000109360728
0.00010689696
0.000106455063
0.000107983371
0.000110242634
0.000109689109
0.000106889809
)
;

boundaryField
{
    closed
    {
        type            calculated;
        value           nonuniform List<scalar> 0();
    }
    open
    {
        type            calculated;
        value           nonuniform List<scalar> 0();
    }
    sides
    {
        type            empty;
    }
    procBoundary1to0
    {
        type            processor;
        value           uniform 0.000110259538;
    }
    procBoundary1to2
    {
        type            processor;
        value           uniform 0.00010637369;
    }
}


// ************************************************************************* //
