/*--------------------------------*- C++ -*----------------------------------*\
| =========                 |                                                 |
| \\      /  F ield         | OpenFOAM: The Open Source CFD Toolbox           |
|  \\    /   O peration     | Version:  2306                                  |
|   \\  /    A nd           | Website:  www.openfoam.com                      |
|    \\/     M anipulation  |                                                 |
\*---------------------------------------------------------------------------*/
FoamFile
{
    version     2.0;
    format      ascii;
    arch        "LSB;label=32;scalar=64";
    class       volScalarField;
    location    "0.00074";
    object      prefDh_H2;
}
// * * * * * * * * * * * * * * * * * * * * * * * * * * * * * * * * * * * * * //

dimensions      [1 1 -3 0 0 0 0];

internalField   nonuniform List<scalar> 
531
(
24.4620892
23.6646747
29.2546786
38.2745158
38.2418906
24.073303
23.242277
29.1446746
38.3190786
38.2096685
23.2120534
22.6179248
29.6103297
38.2983487
30.5078372
27.5185146
28.937875
38.6961894
38.1209543
23.9913826
23.5608283
29.7880718
38.3993076
31.1934241
29.019415
29.2041411
38.760964
37.8852069
26.7765731
25.334508
26.2241024
25.1249931
29.6540704
38.2389985
29.5569267
26.9034749
28.951718
38.6233748
37.8298177
23.3907328
22.60343
30.1497795
37.8536942
28.7993842
26.5125378
30.5608709
38.0949342
28.7864559
26.5861567
28.9357451
38.5963286
37.8743504
23.1453751
21.8607
29.7862866
37.8119423
29.0516043
25.7048071
28.8763749
38.4804009
37.9062416
23.0961915
21.404727
29.7183525
37.7182675
28.622675
25.0584445
30.6631144
37.9015129
28.5400801
24.9097762
31.4461549
37.9644189
28.5609665
24.2880574
31.2069314
38.0237551
28.5511522
24.3171913
30.9883857
38.1326778
28.6450998
25.1255533
28.6857981
38.4596126
38.6082889
24.8342868
21.5124918
29.7667135
37.991633
28.6334392
24.403991
29.8916485
38.2384587
29.0542704
25.3991137
28.6393766
38.4856085
38.8634951
26.4448691
21.937712
29.3484444
38.1216038
29.3847038
25.4321961
28.7050909
38.3977676
38.8726958
27.2815236
22.1426483
29.2373481
38.0570045
29.5907601
25.9403111
28.6866052
38.3929802
38.740876
28.866131
23.1496775
28.6839191
38.3296098
38.5825428
29.0120931
22.8928513
28.7457037
38.2835505
38.4156099
28.9839013
22.7463888
28.7530311
38.3656429
38.2462394
28.3364615
22.2417779
28.7804185
37.8632658
34.0466357
27.07206
29.2694699
38.610934
37.814265
28.5246997
22.8999996
28.7025547
37.8082757
32.9085835
27.7674957
28.9835857
38.622125
37.5639385
28.8552069
24.5407914
28.543885
38.4194516
37.643987
29.2053604
24.8297189
25.1222929
28.8229853
38.5465393
37.0870754
26.8216334
23.1514022
28.8615215
37.4761737
30.6992914
27.7100446
28.8418971
38.5457913
37.0326755
26.7446956
23.6230298
29.4550393
37.324805
29.4143058
27.4208757
28.854261
38.4541451
37.0234809
25.481771
23.420496
29.8520731
37.2796153
29.0124374
27.293958
28.8390634
38.5280464
37.2594801
27.3300318
23.5050136
28.7979777
38.2550558
37.312232
26.7075975
23.10971
28.8405025
38.2096286
37.3774553
25.1542974
22.5880999
29.4976289
37.4638403
28.6063166
26.1732447
31.0584443
37.8179854
28.6654684
26.4489895
32.6513061
37.9539412
28.7094531
26.1894555
28.706774
38.643346
38.3977864
26.878264
22.4085782
29.4352934
37.7744192
29.0057793
25.5046686
28.7077634
38.440752
38.6189686
27.8724625
22.7964011
29.2423572
37.841633
29.2439254
26.0042216
28.7601398
38.1952233
38.6369088
28.8080771
23.5582267
28.8609681
37.7970508
38.5459077
29.0525801
24.5423827
29.088197
37.2362612
37.8627948
25.8374349
24.0418315
36.3945223
38.0492796
29.5693702
24.5865264
23.1485493
28.5389311
37.321926
29.3026032
25.0856654
29.0424498
37.5928246
28.7871008
25.5966247
29.7333812
37.7667652
28.7188105
25.7607621
30.2269257
37.8968969
28.742403
26.1677963
31.0459523
37.9586417
29.1673003
26.9620206
28.9091146
37.4363771
38.7229479
28.4604843
22.9198602
29.1381178
37.0171066
38.6811963
28.4068391
22.5794381
28.5302285
37.2035649
30.0540323
27.2135065
29.0379437
37.0791477
38.7480467
28.3801863
22.8804938
28.874072
37.4186826
29.5886083
27.4210176
28.9571012
37.1635825
38.6839536
28.4830167
23.4122051
29.0809172
36.9176535
38.6476362
28.5426932
23.3523001
28.8488825
36.9724563
37.6258266
27.3970791
22.2616319
29.2699287
37.5471063
29.0323312
26.553459
28.7471482
37.2249787
36.4178623
25.193766
23.359533
34.6273697
38.2745999
28.8329003
26.3244943
28.852183
37.2898947
36.4899249
24.8429871
22.4644872
33.6593271
37.8423553
29.5729099
23.565714
23.6080218
36.5059446
38.4077732
29.5348242
26.4609464
34.6594641
37.9516971
29.6813576
23.4271061
23.4309566
36.4790669
38.4545244
29.71749
26.529125
36.0640487
38.0492
29.7515052
24.1074618
23.9318028
36.8314797
38.0854909
29.1816014
22.6302708
22.5119684
36.4876088
38.4655472
29.4928367
26.1954536
36.1309913
38.0361326
29.4102138
22.9132545
22.5515927
35.4079748
38.4630506
29.2291288
26.8252999
34.9650758
38.0856325
29.9050701
24.4974234
23.7262847
34.1117288
38.0469238
30.1708658
24.5531442
23.2641917
32.7825247
38.3228971
29.3609227
28.3239134
28.9856725
35.8504315
38.3360255
30.3316946
25.0989536
22.8133362
30.2052476
37.6623998
33.0096062
28.8118975
23.5918606
22.3585316
28.4471024
36.6889921
38.1092788
34.4697078
28.1977447
23.0509194
28.4342862
36.7763922
33.2682781
27.9426982
23.1580738
28.3281419
36.9099304
29.9462029
27.8293936
28.535306
36.9277307
33.8559591
28.3689079
23.0298313
28.1632359
36.9357192
30.081246
27.3871004
28.390122
37.2437406
29.8677792
27.3500696
28.449685
37.2239888
34.9175433
28.8414033
23.3331003
28.2146531
37.2124814
30.1292459
27.7713709
28.6224464
37.5056773
35.1192629
28.5700232
23.0165578
28.2152941
37.3994491
30.0158221
27.4604133
28.6771821
37.7473203
36.1350149
28.8693979
23.2298477
28.3746764
37.5563936
37.7951391
28.8215654
24.2267193
28.5590847
37.5285018
37.1599594
29.1405936
24.8111787
22.8302966
28.3184323
37.5884021
29.7764591
26.5353606
28.698438
37.9140412
35.395196
27.7436711
22.3296362
28.4473557
37.6511957
29.7222028
26.191874
28.7976716
37.9373096
29.3251873
26.1041084
28.9261178
37.9467272
29.1683958
26.5253645
29.0231094
38.0750123
34.7570444
26.4200938
21.9643093
28.7571467
37.8064333
28.9729793
25.5390189
29.3304413
38.0070935
28.7978761
26.2101167
29.305486
38.1314494
34.917566
26.139579
22.4347758
29.2841785
37.7781523
28.700782
25.1397257
29.7390807
37.931524
28.6253748
25.5192441
29.3762794
38.1855313
36.4656086
26.0579482
23.0224237
29.3737114
37.9797414
35.1618541
26.2677595
24.082268
29.7208076
38.0176611
33.7599963
25.8328945
24.1287093
29.6587214
38.0992704
33.9692987
25.6823234
24.156566
29.5890634
38.1364629
34.9205174
25.6998688
24.0867486
29.4893192
38.1543821
36.2450014
25.6739906
)
;

boundaryField
{
    closed
    {
        type            calculated;
        value           nonuniform List<scalar> 0();
    }
    open
    {
        type            calculated;
        value           nonuniform List<scalar> 0();
    }
    sides
    {
        type            empty;
    }
    procBoundary1to0
    {
        type            processor;
        value           uniform 38.2716657;
    }
    procBoundary1to2
    {
        type            processor;
        value           uniform 23.7952181;
    }
}


// ************************************************************************* //
