/*--------------------------------*- C++ -*----------------------------------*\
| =========                 |                                                 |
| \\      /  F ield         | OpenFOAM: The Open Source CFD Toolbox           |
|  \\    /   O peration     | Version:  2306                                  |
|   \\  /    A nd           | Website:  www.openfoam.com                      |
|    \\/     M anipulation  |                                                 |
\*---------------------------------------------------------------------------*/
FoamFile
{
    version     2.0;
    format      ascii;
    arch        "LSB;label=32;scalar=64";
    class       volScalarField;
    location    "0.00034";
    object      mu;
}
// * * * * * * * * * * * * * * * * * * * * * * * * * * * * * * * * * * * * * //

dimensions      [1 -1 -1 0 0 0 0];

internalField   nonuniform List<scalar> 
531
(
2.03089999e-05
2.02958331e-05
1.97592877e-05
1.95814485e-05
2.00001131e-05
2.02767245e-05
1.97574305e-05
1.94728226e-05
1.97560615e-05
2.03040676e-05
2.02943898e-05
1.96748197e-05
1.94813973e-05
1.97847397e-05
2.02836411e-05
2.02839714e-05
1.94998518e-05
1.94984106e-05
1.99517053e-05
2.02673578e-05
1.98312023e-05
1.94860716e-05
1.97548713e-05
2.03057959e-05
2.02950112e-05
1.96617439e-05
1.95330799e-05
1.98618767e-05
2.02747729e-05
1.99514816e-05
1.94725003e-05
1.96944825e-05
2.03132674e-05
2.02759819e-05
1.97530755e-05
1.94257499e-05
1.9750611e-05
2.03090005e-05
2.02969394e-05
1.97560266e-05
1.95054835e-05
1.97636192e-05
2.02915142e-05
2.03003349e-05
1.9506032e-05
1.95086462e-05
1.9984899e-05
2.02787359e-05
1.98325436e-05
1.95337641e-05
1.9767424e-05
2.02931338e-05
2.03007243e-05
1.9483829e-05
1.94707604e-05
1.99066424e-05
2.02670323e-05
2.00537764e-05
1.94819325e-05
1.95207617e-05
2.00022121e-05
2.02675984e-05
1.98866959e-05
1.94269193e-05
1.95876541e-05
2.02796357e-05
2.028475e-05
1.97753595e-05
1.95325957e-05
1.97829938e-05
2.02849558e-05
1.98756342e-05
1.94626489e-05
1.97651473e-05
2.02846818e-05
2.03020324e-05
1.94633392e-05
1.94999896e-05
2.02179642e-05
2.02778798e-05
1.97701024e-05
1.95331239e-05
1.98003845e-05
2.02789727e-05
1.99043334e-05
1.94054541e-05
1.95844961e-05
2.02504578e-05
2.02905404e-05
1.9795183e-05
1.95660822e-05
1.97802239e-05
2.02837649e-05
1.98709303e-05
1.93879845e-05
1.95923134e-05
2.02709562e-05
2.02942323e-05
1.97830577e-05
1.95500447e-05
1.97980504e-05
2.02968803e-05
1.98092487e-05
1.95115578e-05
1.97681752e-05
2.02884856e-05
2.01213798e-05
1.94816594e-05
1.95997706e-05
2.03115742e-05
2.02997743e-05
1.97617258e-05
1.97188556e-05
1.97631015e-05
1.97680401e-05
1.97754139e-05
2.03166888e-05
2.03168948e-05
1.96224174e-05
1.95301963e-05
1.98761745e-05
2.02844695e-05
1.98857733e-05
1.95067915e-05
1.9772983e-05
2.02873328e-05
2.02089601e-05
1.94709402e-05
1.94966168e-05
2.0071449e-05
2.02766322e-05
1.98253449e-05
1.95365575e-05
1.97738484e-05
2.02888373e-05
2.02629904e-05
1.94987921e-05
1.94559985e-05
1.99135739e-05
2.02726584e-05
1.9934579e-05
1.95222681e-05
1.97703233e-05
2.02923648e-05
2.03025018e-05
1.95063482e-05
1.94647772e-05
1.98259334e-05
2.02766862e-05
2.01181687e-05
1.95538802e-05
1.97890538e-05
2.02912382e-05
2.01466029e-05
1.94882018e-05
1.94761217e-05
1.99057083e-05
2.02729279e-05
1.99631939e-05
1.95287687e-05
1.97625798e-05
2.02883755e-05
1.99658528e-05
1.94954874e-05
1.97777548e-05
2.02912462e-05
2.02854549e-05
1.95107399e-05
1.94858366e-05
1.98290724e-05
2.02645499e-05
2.02136268e-05
1.94439588e-05
1.94932067e-05
2.02482074e-05
2.02675482e-05
1.97739152e-05
1.95117418e-05
1.97717152e-05
2.0291186e-05
2.02824146e-05
1.95234932e-05
1.97424264e-05
2.02974504e-05
2.02691573e-05
1.94783868e-05
1.94654601e-05
1.98116846e-05
2.02884369e-05
2.0296166e-05
1.95968889e-05
1.97870085e-05
2.03124428e-05
2.02729154e-05
1.96194459e-05
1.96181406e-05
1.9838152e-05
1.99144747e-05
1.98221269e-05
1.97693727e-05
1.9769014e-05
1.97553705e-05
1.98505833e-05
2.03128543e-05
2.02778142e-05
1.95624644e-05
1.97547056e-05
2.03093742e-05
2.02500549e-05
1.95114352e-05
1.95090887e-05
1.98369137e-05
2.02768157e-05
2.02523568e-05
1.9488582e-05
1.94878712e-05
1.98259243e-05
2.02778712e-05
2.02509856e-05
1.94681897e-05
1.96972337e-05
2.03061136e-05
2.0255334e-05
1.96310649e-05
1.95075883e-05
1.97944908e-05
2.02801236e-05
2.02397793e-05
1.95179337e-05
1.95181849e-05
1.98254196e-05
2.02813648e-05
2.02373037e-05
1.94864087e-05
1.97089075e-05
2.0289398e-05
2.01994742e-05
1.95177777e-05
1.97162393e-05
2.02880311e-05
2.01894543e-05
1.94729522e-05
1.96804442e-05
2.03046693e-05
2.02432574e-05
1.96459235e-05
1.94718982e-05
1.97813256e-05
2.02789873e-05
2.02247244e-05
1.95566167e-05
1.97183937e-05
2.02984346e-05
2.02085151e-05
1.95123173e-05
1.97227924e-05
2.03034097e-05
2.02461527e-05
1.95383325e-05
1.94607645e-05
1.97813175e-05
2.02799401e-05
2.02230333e-05
1.95748747e-05
1.97186749e-05
2.0303494e-05
2.02137769e-05
1.95183176e-05
1.97049692e-05
2.03070314e-05
2.02334817e-05
1.95605343e-05
1.95793805e-05
1.9980912e-05
2.0279889e-05
1.98535883e-05
1.96932686e-05
1.97642251e-05
1.97889888e-05
1.97536717e-05
1.97632621e-05
2.03315003e-05
2.02702674e-05
1.96683072e-05
1.95527553e-05
1.97827071e-05
2.03040199e-05
2.02721002e-05
1.95417272e-05
1.95453742e-05
1.98144318e-05
2.02980579e-05
2.02611351e-05
1.95042961e-05
1.94657503e-05
1.97662201e-05
2.02966793e-05
2.02335364e-05
1.96661716e-05
1.96930987e-05
2.02952067e-05
2.02562333e-05
1.96850291e-05
1.94474631e-05
1.97538399e-05
2.03022448e-05
2.02473085e-05
1.96609284e-05
1.96499779e-05
2.02954133e-05
2.02635249e-05
1.97304353e-05
1.95335716e-05
1.97898354e-05
2.02966528e-05
2.02610423e-05
1.95832225e-05
1.95851232e-05
1.97240086e-05
1.98333115e-05
2.02889919e-05
2.02140786e-05
1.94609272e-05
1.96475132e-05
2.03234002e-05
2.02582793e-05
1.97550595e-05
1.95569042e-05
1.98321082e-05
2.02789454e-05
1.98743844e-05
1.95076078e-05
1.97464619e-05
2.03097276e-05
2.0274942e-05
1.97080985e-05
1.97024455e-05
1.97710595e-05
1.97651644e-05
1.98792919e-05
2.0286079e-05
2.01512131e-05
1.94357513e-05
1.96238298e-05
2.03242182e-05
2.02512945e-05
1.9755977e-05
1.95540638e-05
1.97831941e-05
2.02702803e-05
2.0005626e-05
1.93898365e-05
1.96037521e-05
2.02957388e-05
2.02543268e-05
1.97681473e-05
1.95626762e-05
1.98036933e-05
2.02576494e-05
1.98228117e-05
1.93838265e-05
1.97141664e-05
2.03069407e-05
2.02688341e-05
1.97690844e-05
1.95870859e-05
1.981735e-05
2.02562317e-05
1.97849437e-05
1.93882082e-05
1.97280749e-05
2.03110634e-05
2.02702866e-05
1.97646802e-05
1.95663538e-05
1.97906935e-05
2.02696154e-05
1.99238218e-05
1.9420565e-05
1.95898324e-05
2.02510099e-05
2.02576695e-05
1.97802715e-05
1.95701544e-05
1.98069324e-05
2.02556062e-05
1.98004963e-05
1.94074983e-05
1.96821193e-05
2.02872171e-05
2.02626896e-05
1.97669589e-05
1.9564773e-05
1.98222638e-05
2.02638426e-05
1.97739518e-05
1.95395285e-05
1.9849674e-05
2.02549232e-05
1.97519037e-05
1.95376282e-05
2.00658538e-05
2.02395882e-05
1.95814987e-05
1.95573321e-05
2.0050592e-05
2.02517214e-05
1.97624817e-05
1.9555447e-05
1.98519254e-05
2.02580497e-05
1.97567432e-05
1.95594224e-05
1.99004739e-05
2.02509083e-05
1.97503556e-05
1.95243227e-05
1.98323142e-05
2.02566883e-05
1.98270153e-05
1.94949062e-05
1.97696616e-05
2.02779986e-05
2.00865828e-05
1.94800014e-05
1.95887701e-05
2.01711964e-05
2.02424274e-05
1.97552976e-05
1.95877661e-05
1.98902073e-05
2.02552372e-05
1.97481681e-05
1.95944176e-05
1.99298542e-05
2.02439172e-05
1.97499226e-05
1.94450073e-05
1.97357531e-05
2.0289509e-05
2.02573908e-05
1.97602526e-05
1.96426278e-05
1.99786704e-05
2.02401273e-05
1.9745429e-05
1.94597709e-05
1.975051e-05
2.02999123e-05
2.02390316e-05
1.97614551e-05
1.9465983e-05
1.97530887e-05
2.03016591e-05
2.02546002e-05
1.97655855e-05
1.96227421e-05
2.00400312e-05
2.02487926e-05
1.97583248e-05
1.95977641e-05
2.00333984e-05
2.02419903e-05
1.97511103e-05
1.94532571e-05
1.97454016e-05
2.02887459e-05
2.02556981e-05
1.97329761e-05
1.96170426e-05
2.0119098e-05
2.02535727e-05
1.97316976e-05
1.9600151e-05
2.01601261e-05
2.02652698e-05
1.975968e-05
1.96473225e-05
2.01711341e-05
2.02750455e-05
1.97634163e-05
1.96727457e-05
1.97570596e-05
1.9832333e-05
1.9834328e-05
1.98557532e-05
1.97691283e-05
1.97130928e-05
1.97585567e-05
2.03143196e-05
2.02814545e-05
1.97124508e-05
1.96452144e-05
2.01704588e-05
2.02649104e-05
1.97568069e-05
1.9464124e-05
1.97529645e-05
2.02841801e-05
2.02746529e-05
1.97106156e-05
1.96187618e-05
2.02205398e-05
2.02543553e-05
1.95358398e-05
1.95772091e-05
2.02733864e-05
2.02669333e-05
1.97375614e-05
1.96535043e-05
2.02353283e-05
2.02650254e-05
1.97653852e-05
1.94651521e-05
1.97633773e-05
2.02963783e-05
2.02815802e-05
1.97445262e-05
1.94517642e-05
1.9756263e-05
2.02887004e-05
2.02962141e-05
1.97379065e-05
1.96392129e-05
2.02223014e-05
2.02839896e-05
1.96879459e-05
1.95864626e-05
2.0223258e-05
2.02813198e-05
1.96749536e-05
)
;

boundaryField
{
    closed
    {
        type            calculated;
        value           nonuniform List<scalar> 0();
    }
    open
    {
        type            calculated;
        value           nonuniform List<scalar> 0();
    }
    sides
    {
        type            empty;
    }
    procBoundary1to0
    {
        type            processor;
        value           uniform 1.97453614e-05;
    }
    procBoundary1to2
    {
        type            processor;
        value           uniform 1.95721406e-05;
    }
}


// ************************************************************************* //
