/*--------------------------------*- C++ -*----------------------------------*\
| =========                 |                                                 |
| \\      /  F ield         | OpenFOAM: The Open Source CFD Toolbox           |
|  \\    /   O peration     | Version:  2306                                  |
|   \\  /    A nd           | Website:  www.openfoam.com                      |
|    \\/     M anipulation  |                                                 |
\*---------------------------------------------------------------------------*/
FoamFile
{
    version     2.0;
    format      ascii;
    arch        "LSB;label=32;scalar=64";
    class       volScalarField;
    location    "0.00034";
    object      Z;
}
// * * * * * * * * * * * * * * * * * * * * * * * * * * * * * * * * * * * * * //

dimensions      [0 0 0 0 0 0 0];

internalField   nonuniform List<scalar> 
531
(
0.014074899
0.0140872861
0.0146990904
0.0147848087
0.0142709156
0.0140955475
0.0145751091
0.0148319976
0.0146076471
0.0140754077
0.0140907474
0.0147380195
0.0148297675
0.0145290878
0.0140846897
0.0141047562
0.0148214773
0.0148244122
0.0143053029
0.0140951137
0.0144186438
0.0148274684
0.0146804007
0.0140768539
0.0140894394
0.0147454534
0.0148072534
0.0143897589
0.0140897398
0.0143053902
0.0148322689
0.0147300508
0.0140761777
0.0140949847
0.0146533935
0.0148554446
0.0146760041
0.0140762713
0.0140827322
0.0146325036
0.0148170623
0.0145820676
0.0140813126
0.0140912929
0.0148177678
0.0148156409
0.0142805335
0.0140879705
0.0144193622
0.0148051493
0.0146430021
0.0140814546
0.0140994629
0.0148268559
0.0148374561
0.0143455329
0.0140906809
0.0142385361
0.0148311477
0.0148135566
0.0142677867
0.0140913904
0.0143598302
0.0148583236
0.0147769867
0.0141069915
0.0140848848
0.0145356776
0.0148069615
0.0145016744
0.0140868964
0.0143691715
0.0148368127
0.0146853653
0.0140865875
0.0140903566
0.0148428845
0.0148229842
0.0141490741
0.0140891951
0.0145797296
0.0148077382
0.0144691823
0.0140878388
0.0143426485
0.0148672352
0.0147770663
0.0141279533
0.014080106
0.0144863309
0.0147907709
0.014507115
0.0140868848
0.0143732435
0.0148733104
0.0147720757
0.0141150221
0.0140793517
0.0145078215
0.0147961735
0.0144639714
0.014082034
0.0144436543
0.014812233
0.0145594782
0.0140835145
0.0142025125
0.0148250203
0.014776615
0.0140760341
0.014077593
0.0146208759
0.0147230358
0.0146411462
0.0146636092
0.0145423069
0.0140670519
0.01407419
0.0147596639
0.0148056085
0.0143721405
0.0140845684
0.0143593645
0.0148161445
0.0146574721
0.0140845652
0.0141580543
0.0148344456
0.0148279609
0.0142250215
0.0140877438
0.0144306185
0.0148038568
0.0146231349
0.0140822046
0.0141271651
0.0148180064
0.0148461373
0.0143376284
0.0140893528
0.014318214
0.0148097432
0.0146652545
0.0140812259
0.0140921556
0.0148145705
0.0148390716
0.0144466257
0.0140867113
0.0142045422
0.0147954976
0.014678301
0.0140820599
0.0141876933
0.014822954
0.014835951
0.0143454015
0.0140893917
0.0142970288
0.0148080859
0.0146167299
0.014085057
0.0142950568
0.0148196961
0.0146727427
0.0140820114
0.0141035868
0.0148152725
0.0148330839
0.014453483
0.014091859
0.014157975
0.0148510817
0.0148296231
0.0141266495
0.0140965046
0.0145598547
0.0148169491
0.0146056788
0.0140816891
0.014120882
0.0148055335
0.0147238195
0.0140793764
0.014115846
0.0148260938
0.0148393823
0.0144755471
0.0140802883
0.0141096451
0.0147699636
0.0146923506
0.014068466
0.0141112034
0.0147598056
0.0147738404
0.0144186046
0.0143372593
0.0144407796
0.0146580341
0.0146699919
0.0146473111
0.0144077543
0.0140651343
0.0141244252
0.0147809896
0.0147116708
0.0140727712
0.0141266868
0.014809807
0.0148200205
0.0144327008
0.0140855257
0.0141298889
0.0148252428
0.0148301215
0.0144582658
0.014087067
0.0141399894
0.014829628
0.0147357586
0.0140741825
0.0141133546
0.0147591569
0.0148205834
0.0145097749
0.0140842793
0.0141333534
0.0148119361
0.0148145282
0.0144601274
0.0140856231
0.014150393
0.0148235208
0.0147374044
0.0140828798
0.0141600421
0.0148094996
0.0147349395
0.0140844637
0.0141642969
0.0148301949
0.0147428684
0.0140815557
0.014118661
0.0147561061
0.0148369297
0.0145633045
0.0140855744
0.0141446196
0.0147936861
0.0147251232
0.0140810081
0.0141551799
0.0148095123
0.0147223983
0.0140760403
0.0141201317
0.0148012097
0.0148401155
0.0145582493
0.0140844785
0.0141440364
0.0147850435
0.0147214115
0.0140798038
0.0141527808
0.0148066773
0.0147253517
0.014077098
0.0141312773
0.0147930019
0.0147819781
0.0142828789
0.0140862036
0.014391312
0.014727692
0.0146226399
0.0144957278
0.0146680114
0.0145707635
0.0140576671
0.0141027771
0.0147340322
0.0147903342
0.0145120119
0.0140715489
0.0141053384
0.0147975163
0.0147934077
0.014458902
0.0140744795
0.0141126798
0.0148140491
0.014830803
0.0145844452
0.0140747287
0.014128343
0.0147475374
0.014723368
0.0140985368
0.0141114753
0.0147367746
0.014839946
0.0146099547
0.0140737856
0.0141189262
0.0147492944
0.0147420593
0.0141001222
0.0141055768
0.0147153035
0.0148008515
0.0144996834
0.0140742338
0.014108787
0.0147811488
0.0147795047
0.0147143856
0.0144360089
0.014077552
0.0141514544
0.0148320513
0.0147450338
0.01407587
0.0141057502
0.0146665023
0.0147934939
0.0144245679
0.0140900845
0.0143666455
0.0148090031
0.0146542627
0.0140676212
0.0140951621
0.01472383
0.0147262383
0.0146727157
0.0146511101
0.014374932
0.0140780959
0.0141913318
0.0148417252
0.0147628685
0.0140732496
0.0141057583
0.0145951006
0.0147975604
0.0145327387
0.0140927105
0.0142693709
0.0148690097
0.0147670522
0.0140966233
0.0141027233
0.0145584197
0.0147935236
0.0144700889
0.0141014468
0.0144229972
0.0148718989
0.0147043151
0.0140876692
0.0140945417
0.0145425615
0.0147805672
0.0144461094
0.0141031247
0.0144794158
0.0148694247
0.0146849995
0.0140837495
0.0140952685
0.0145705408
0.0147891776
0.0145075954
0.0140936075
0.0143259543
0.0148572646
0.0147737342
0.0141250467
0.0141003702
0.0145096102
0.0147891245
0.0144639597
0.0141033371
0.0144545574
0.0148641707
0.0147230223
0.0141010522
0.0140993636
0.0145474869
0.0147895861
0.0144348339
0.0141011677
0.0144918744
0.0148000746
0.0143984376
0.0141088993
0.0145809566
0.0148013146
0.014228152
0.0141242844
0.0147911625
0.0147953078
0.0142369799
0.0141077869
0.0145248206
0.0147947313
0.014395665
0.0141068363
0.0145323092
0.0147921318
0.0143476716
0.0141124878
0.0145751849
0.0148104168
0.0144246348
0.0141052748
0.0144177288
0.014824102
0.0146021671
0.0140914352
0.0142201392
0.0148324745
0.014784404
0.0141679217
0.0141151063
0.0145620267
0.0147811716
0.014356777
0.0141116117
0.0145650627
0.0147772593
0.0143227034
0.0141171062
0.0145647066
0.0148492824
0.0146613433
0.0140959476
0.0141095614
0.014624564
0.0147576333
0.0142851283
0.0141201534
0.014605984
0.0148418761
0.0145964862
0.0140853319
0.0141237844
0.0146950195
0.014840669
0.014588521
0.0140844282
0.0141151372
0.0146899354
0.0147660575
0.0142447616
0.0141199941
0.0146766952
0.0147788945
0.0142483506
0.0141190009
0.0145965737
0.0148472411
0.0146403389
0.0140944089
0.0141158435
0.0147188125
0.0147704726
0.0141995832
0.0141185218
0.0147154821
0.0147755634
0.0141795188
0.014111482
0.0147039411
0.014751992
0.014172438
0.0140979025
0.0145719742
0.0147423061
0.0146321708
0.0144296987
0.0144224918
0.0143970879
0.0145510673
0.0147245543
0.0145833152
0.0140786675
0.0141016907
0.0147263479
0.0147553591
0.0141731465
0.0141066134
0.0146196946
0.0148425483
0.0146558453
0.0140960259
0.0141041371
0.0147353483
0.0147751884
0.01414797
0.0141250871
0.0148147649
0.0147921431
0.0141085847
0.0141076302
0.0147240367
0.0147592206
0.0141384941
0.0141084486
0.0146981121
0.0148421116
0.0145972853
0.0140847212
0.0141003833
0.0147041295
0.0148484764
0.0146335537
0.0140903366
0.0140912419
0.0147200218
0.014761868
0.0141485359
0.0140997474
0.0147460154
0.0147865831
0.0141480933
0.0141019784
0.014752463
)
;

boundaryField
{
    closed
    {
        type            zeroGradient;
    }
    open
    {
        type            zeroGradient;
    }
    sides
    {
        type            empty;
    }
    procBoundary1to0
    {
        type            processor;
        value           uniform 0.0146381301;
    }
    procBoundary1to2
    {
        type            processor;
        value           uniform 0.0147940227;
    }
}


// ************************************************************************* //
