/*--------------------------------*- C++ -*----------------------------------*\
| =========                 |                                                 |
| \\      /  F ield         | OpenFOAM: The Open Source CFD Toolbox           |
|  \\    /   O peration     | Version:  2306                                  |
|   \\  /    A nd           | Website:  www.openfoam.com                      |
|    \\/     M anipulation  |                                                 |
\*---------------------------------------------------------------------------*/
FoamFile
{
    version     2.0;
    format      ascii;
    arch        "LSB;label=32;scalar=64";
    class       volScalarField;
    location    "0.00178";
    object      H;
}
// * * * * * * * * * * * * * * * * * * * * * * * * * * * * * * * * * * * * * //

dimensions      [0 0 0 0 0 0 0];

internalField   nonuniform List<scalar> 
530
(
1.19934806e-09
2.08496007e-08
4.21602112e-08
4.2248941e-08
5.3390291e-09
1.2072562e-09
2.1149578e-08
4.2170306e-08
4.21535227e-08
4.69698129e-09
1.21134684e-09
2.16683612e-08
4.23895009e-08
4.22755304e-08
4.2951797e-09
1.2093703e-09
2.2927364e-08
4.33264318e-08
4.31252754e-08
3.8339717e-09
1.17914056e-09
2.43693116e-08
4.61688966e-08
4.58729067e-08
1.84990263e-09
1.2946832e-09
1.26594198e-09
2.73388878e-08
4.23278343e-08
4.76657017e-08
4.7419037e-08
5.53914468e-09
1.18362107e-09
1.06978198e-09
1.28465217e-09
2.78443593e-08
3.67713794e-08
4.95423364e-10
1.31374105e-09
2.7502575e-08
3.87930365e-08
4.39267373e-08
4.36071654e-08
9.51960664e-10
1.17948931e-09
2.77795693e-08
4.62148018e-08
4.56752855e-08
1.79893285e-09
1.21018545e-09
2.96816514e-08
4.38587472e-08
4.97407464e-08
4.93968576e-08
3.83531204e-09
1.19362218e-09
9.65342514e-10
1.29333331e-09
1.26955018e-09
2.97204547e-08
3.902906e-08
5.00988149e-10
1.2841762e-09
3.00634729e-08
4.11781768e-08
4.55400526e-08
4.52887263e-08
4.64882976e-10
1.19149872e-09
2.91146549e-08
4.60981513e-08
4.58209135e-08
5.59513451e-10
1.21451335e-09
2.7580718e-08
4.46207649e-08
4.4274476e-08
6.18386341e-10
1.3206452e-09
3.02147842e-08
3.58244784e-08
6.89822468e-10
1.34014899e-09
2.60917443e-08
3.9656501e-08
3.89800764e-08
4.47917822e-08
4.45247229e-08
6.64223993e-10
1.33011219e-09
1.30612223e-09
2.3460992e-08
4.51688352e-08
4.05932936e-08
9.57205548e-10
2.95367808e-08
3.98897905e-08
6.6248481e-10
1.37779864e-09
1.22570667e-09
2.59385058e-08
4.76946671e-08
4.11342892e-08
9.53464032e-10
2.66828816e-08
4.15941796e-08
7.86615857e-10
1.35234097e-09
3.32628749e-08
3.69852564e-08
8.53486185e-10
1.38616836e-09
2.83404965e-08
3.77515773e-08
4.18715944e-08
4.15676654e-08
9.10661284e-10
1.29697235e-09
2.77063812e-08
4.31423496e-08
4.29425179e-08
9.88717019e-10
1.30605927e-09
2.48675387e-08
4.24754192e-08
3.81940329e-08
1.15229926e-09
2.19513695e-08
3.58912996e-08
9.72731011e-10
1.41367741e-09
2.90486236e-08
3.7800062e-08
4.17922825e-08
4.14398284e-08
1.01972728e-09
1.30322844e-09
2.74940905e-08
4.30694997e-08
4.25777841e-08
1.07039345e-09
1.29262284e-09
2.85200279e-08
4.36090974e-08
4.30764427e-08
1.08386221e-09
1.26341271e-09
2.87792533e-08
4.52970952e-08
4.51750732e-08
9.56667766e-10
8.92018785e-10
3.52570736e-08
7.72394986e-10
1.40735345e-09
3.05150831e-08
3.79784041e-08
4.133187e-08
4.0942266e-08
1.09017636e-09
1.57393537e-08
3.5249896e-08
1.01873027e-09
1.41859227e-09
2.652294e-08
3.73673111e-08
4.16341004e-08
4.09478615e-08
1.09726975e-09
1.2988078e-09
2.62494125e-08
4.26805163e-08
4.15732926e-08
1.10214937e-09
1.35820004e-09
3.38446084e-08
3.7861061e-08
1.1238404e-09
1.30576437e-09
3.32774898e-08
4.56631419e-08
4.50112859e-08
1.17837392e-09
1.26627329e-09
2.66354271e-08
4.22769281e-08
4.1379312e-08
1.2302181e-09
1.30887086e-09
2.60337436e-08
4.15506887e-08
4.05796077e-08
1.25427098e-09
1.31654628e-09
2.56965566e-08
4.11408092e-08
4.0118017e-08
4.61367051e-08
4.53167287e-08
1.09672614e-09
1.28593718e-09
3.82583332e-08
4.15259669e-08
1.12811805e-09
1.30630805e-09
3.84473627e-08
4.07887128e-08
1.16577191e-09
1.20336416e-09
3.82932367e-08
5.09296334e-08
4.91625971e-08
1.1240875e-09
1.23546337e-09
4.024201e-08
4.3612829e-08
1.15188098e-09
1.31042421e-09
4.03592656e-08
4.19974655e-08
1.17996349e-09
1.34559708e-09
4.01893366e-08
4.12155109e-08
1.24200828e-09
1.39904782e-09
3.78681878e-08
3.5285981e-08
1.31408511e-09
2.93660049e-08
4.13252463e-08
1.36048659e-09
1.26183026e-09
3.30311681e-08
4.69898584e-08
4.4852723e-08
1.23214356e-09
1.28559267e-09
3.85892639e-08
4.20419002e-08
1.28001879e-09
1.24297403e-09
3.36860182e-08
4.64841095e-08
4.29481749e-08
1.2284076e-09
1.30631235e-09
3.74819542e-08
4.02708366e-08
1.25365592e-09
1.27042857e-09
3.31222611e-08
4.46928672e-08
4.11742588e-08
1.26316082e-09
1.25789143e-09
3.36816422e-08
4.56638956e-08
4.2287935e-08
1.21903352e-09
1.3079357e-09
3.6863882e-08
3.92475472e-08
1.22395186e-09
1.24529808e-09
3.47184769e-08
4.67304624e-08
4.1152222e-08
1.12085741e-09
1.39748896e-09
1.25294676e-09
3.10428311e-08
4.51496558e-08
4.07910081e-08
1.20479202e-09
1.31132188e-09
3.46703745e-08
4.24146244e-08
4.42913692e-08
4.40910037e-08
1.09753464e-09
1.27224881e-09
3.89754231e-08
4.02403671e-08
1.03324566e-09
1.09694604e-08
4.64958075e-08
3.42287739e-08
1.12232553e-09
1.46846942e-09
1.30742567e-09
3.19926732e-08
4.6547712e-08
4.37314632e-08
1.15106856e-09
1.32565066e-09
3.76259684e-08
4.05721059e-08
1.0928747e-09
1.27694447e-09
3.46768803e-08
4.5176501e-08
4.17798836e-08
1.1939202e-09
1.28056709e-09
3.19936695e-08
4.36624169e-08
4.0306358e-08
1.21314236e-09
1.30082509e-09
3.19043708e-08
4.365756e-08
4.07927381e-08
1.22531179e-09
1.29232767e-09
3.29759826e-08
4.48017721e-08
4.18019546e-08
1.19218586e-09
1.36008613e-09
3.5584025e-08
3.8523559e-08
1.14971488e-09
1.32533089e-09
3.3361149e-08
4.35427986e-08
4.0917854e-08
1.23873226e-09
1.31468055e-09
3.17810502e-08
4.32325861e-08
3.95313929e-08
1.23362309e-09
1.37561388e-09
3.27281603e-08
3.95492921e-08
4.0393581e-08
4.02532899e-08
1.1442544e-09
1.381633e-09
3.43596971e-08
3.68369137e-08
1.18766031e-09
1.35256287e-09
3.17667555e-08
4.23327855e-08
4.06245349e-08
1.24998707e-09
1.31647903e-09
3.34146258e-08
4.48162404e-08
4.19712878e-08
1.2077056e-09
1.36423982e-09
3.55742908e-08
3.83377732e-08
1.17345577e-09
1.32916527e-09
3.19507538e-08
4.24241297e-08
3.99523885e-08
1.22424469e-09
1.35604034e-09
3.3993548e-08
4.12441827e-08
4.24559157e-08
4.21955029e-08
1.06526946e-09
1.34896201e-09
3.63625818e-08
3.86231556e-08
1.11114845e-09
1.36376e-09
3.57432278e-08
3.88228082e-08
4.40914973e-08
3.86219799e-08
1.14435667e-09
3.26940445e-08
4.34431993e-08
1.07755419e-09
1.31087781e-09
3.87981512e-08
4.19885289e-08
1.02375197e-09
1.32252218e-09
3.9486783e-08
4.20004821e-08
1.0061464e-09
1.32304512e-09
3.93445253e-08
4.18418234e-08
1.00130238e-09
1.32345289e-09
3.89127273e-08
4.1310405e-08
1.00523883e-09
1.31545626e-09
3.8378986e-08
4.1117371e-08
1.02403057e-09
1.23458582e-09
3.71112616e-08
4.89192103e-08
4.77937369e-08
1.04765547e-09
1.26918577e-09
3.92939683e-08
4.31960718e-08
9.43858921e-10
1.30489709e-09
3.90103036e-08
4.18918389e-08
9.59031712e-10
1.30576387e-09
3.84746893e-08
4.14091902e-08
9.89789458e-10
1.23208833e-09
3.71928627e-08
4.87286133e-08
4.79473858e-08
1.03909338e-09
1.27098807e-09
3.86872788e-08
4.28163355e-08
9.38830351e-10
1.31777137e-09
3.78934422e-08
4.09910121e-08
9.66022235e-10
1.3360103e-09
3.65576683e-08
3.9404726e-08
9.97484124e-10
1.30440161e-09
3.58576917e-08
4.23562575e-08
4.57782012e-08
4.57423308e-08
9.59220892e-10
1.23381943e-09
1.19286916e-09
1.26179674e-09
1.88294632e-08
4.33882794e-08
4.62206007e-08
4.60541587e-08
9.77252343e-10
1.26154584e-09
3.89154805e-08
4.26975177e-08
9.75317852e-10
1.2319621e-09
3.69915451e-08
4.79240675e-08
4.52543893e-08
1.07790969e-09
1.30650257e-09
3.6096137e-08
3.96972817e-08
1.03185494e-09
1.29408596e-09
3.37420373e-08
4.3304824e-08
4.11346027e-08
1.1598706e-09
1.29535923e-09
3.22903333e-08
4.3550272e-08
4.09262646e-08
1.17183737e-09
1.28435483e-09
3.363802e-08
4.48904839e-08
4.23221519e-08
1.1345832e-09
1.343336e-09
3.5297289e-08
3.90076074e-08
1.06214223e-09
1.30064761e-09
3.44710812e-08
4.44890294e-08
4.25241147e-08
1.15549472e-09
1.26818679e-09
3.44021849e-08
4.62358743e-08
4.34597109e-08
1.11007087e-09
1.3248114e-09
3.65731447e-08
4.0348375e-08
1.02574037e-09
1.27415967e-09
3.57744163e-08
4.63691038e-08
4.44526987e-08
1.09285217e-09
1.32678388e-09
3.60277908e-08
4.01341639e-08
9.93561862e-10
1.36178754e-09
3.54648925e-08
3.82451853e-08
1.03391842e-09
1.32126774e-09
3.33866406e-08
4.26460096e-08
4.08704333e-08
1.16871345e-09
1.32056289e-09
3.15543943e-08
4.28023197e-08
4.05381294e-08
1.1830443e-09
1.32366023e-09
3.2118492e-08
4.28851198e-08
4.07287297e-08
1.19205343e-09
1.32502678e-09
3.22428717e-08
4.28916206e-08
4.06781496e-08
1.205947e-09
1.32806953e-09
3.24145735e-08
)
;

boundaryField
{
    closed
    {
        type            calculated;
        value           nonuniform List<scalar> 0();
    }
    open
    {
        type            calculated;
        value           nonuniform List<scalar> 0();
    }
    sides
    {
        type            empty;
    }
    procBoundary2to1
    {
        type            processor;
        value           uniform 6.03271941e-09;
    }
    procBoundary2to3
    {
        type            processor;
        value           uniform 4.28913668e-08;
    }
}


// ************************************************************************* //
