/*--------------------------------*- C++ -*----------------------------------*\
| =========                 |                                                 |
| \\      /  F ield         | OpenFOAM: The Open Source CFD Toolbox           |
|  \\    /   O peration     | Version:  2306                                  |
|   \\  /    A nd           | Website:  www.openfoam.com                      |
|    \\/     M anipulation  |                                                 |
\*---------------------------------------------------------------------------*/
FoamFile
{
    version     2.0;
    format      ascii;
    arch        "LSB;label=32;scalar=64";
    class       volScalarField;
    location    "0.0004";
    object      prefDh_H2;
}
// * * * * * * * * * * * * * * * * * * * * * * * * * * * * * * * * * * * * * //

dimensions      [1 1 -3 0 0 0 0];

internalField   nonuniform List<scalar> 
530
(
2930.77519
2978.22213
2973.42533
2947.82637
2951.88487
2997.6485
2991.62705
2967.67041
2972.94974
3018.68707
3012.4717
2990.71114
2995.55019
3040.02732
3035.1221
3015.23629
3020.53667
3063.54997
3060.25283
3041.86586
3047.39174
3089.28001
3087.34976
3070.38259
3076.26428
3116.87556
3116.53377
3100.31593
3106.09955
3145.32256
3147.38069
3131.45131
3138.70882
3180.44902
3180.34522
3166.74524
3173.44289
3214.91169
3215.67719
3202.4738
3210.35606
3250.58268
3251.28356
3238.8683
3246.01631
3284.34499
3286.20024
3273.10698
3280.03919
3315.77602
3318.10525
3306.12365
3312.14842
3347.45407
3349.96686
3338.86653
3344.95994
3379.46603
3382.11018
3371.70985
3377.7686
3411.17684
3414.11149
3404.00087
3410.58509
3442.3134
3444.88053
3435.09899
3441.77414
3472.13387
3474.4599
3464.89912
3471.49194
3499.93324
3502.69567
3493.09255
3500.20229
3528.50843
3531.08589
3521.06352
3528.00007
3554.97443
3557.50526
3547.94029
3553.98936
3580.49373
3582.6641
3574.08616
3578.51056
3605.04537
3606.21931
3598.68759
3601.76844
3628.08992
3628.42114
3621.52429
3623.75083
3649.3596
3649.17568
3642.66046
3644.28559
3668.50828
3668.45129
3661.86397
3663.44751
3686.07076
3686.48917
3679.64928
3681.3391
3702.32033
3703.13031
3696.13841
3698.03437
3717.35433
3718.33853
3711.39711
3713.37146
3731.27559
3732.38046
3725.48079
3727.44544
3744.16348
3745.42953
3738.48448
3740.38897
3756.09941
3757.42274
3750.44843
3752.2339
3767.13891
3768.40938
3761.40969
3763.05524
3777.01515
3778.42777
3771.37843
3772.90221
3785.88392
3787.53981
3780.38086
3781.88097
3793.87027
3795.44423
3788.48869
3790.0067
3801.03012
3802.5185
3795.79761
3797.25136
3807.44333
3808.80973
3802.39583
3803.74148
3813.17707
3814.40684
3808.35239
3809.56068
3818.30411
3819.38953
3813.71338
3814.77119
3822.86353
3823.80124
3818.51718
3819.42385
3826.89838
3827.68952
3822.80272
3823.56168
3830.45029
3831.10597
3826.60603
3827.23244
3833.56511
3834.09589
3829.9731
3830.47461
3836.28729
3836.70245
3832.9428
3833.33198
3838.6565
3838.96861
3835.55631
3835.84201
3840.71384
3840.92983
3837.85075
3838.04066
3842.49256
3842.62297
3839.85703
3839.96398
3844.02502
3844.07946
3841.60893
3841.63916
3845.34028
3845.32794
3843.13199
3843.0962
3846.46405
3846.3948
3844.45164
3844.36011
3847.41938
3847.304
3845.59026
3845.45438
3848.22804
3848.07614
3846.56974
3846.39892
3848.90973
3848.72956
3847.40991
3847.21184
3849.48167
3849.28102
3848.12758
3847.91056
3849.9594
3849.74525
3848.73752
3848.51142
3850.3571
3850.13484
3849.25604
3849.02621
3850.6879
3850.4603
3849.7011
3849.4619
3850.96208
3850.73188
3850.07899
3849.83384
3851.18983
3850.95697
3850.39932
3850.1516
3851.37462
3851.14723
3850.66784
3850.42614
3851.52565
3851.30673
3850.89537
3850.6616
3851.64966
3851.44012
3851.08908
3850.86361
3851.75175
3851.55168
3851.25494
3851.03701
3851.83551
3851.64563
3851.39568
3851.18793
3851.90364
3851.72564
3851.51628
3851.31879
3851.95979
3851.79346
3851.62027
3851.43245
3852.00635
3851.85113
3851.71041
3851.53135
3852.04521
3851.9003
3851.78893
3851.61748
3852.0779
3851.94232
3851.85759
3851.69246
3852.10567
3851.97827
3851.91784
3851.7577
3852.12957
3852.00909
3851.97115
3851.8145
3852.15039
3852.03559
3852.01792
3851.86409
3852.16797
3852.05851
3852.0582
3851.90768
3852.18253
3852.07855
3852.09248
3851.94649
3852.19437
3852.09635
3852.12143
3851.98165
3852.20407
3852.11251
3852.14666
3852.01418
3852.21374
3852.1276
3852.17637
3852.0451
3852.20714
3852.14236
3852.21953
3852.07496
3852.16835
3852.15674
3852.19568
3852.10316
3852.16384
3852.16966
3852.19138
3852.12894
3852.17116
3852.18136
3852.19582
3852.15289
3852.18319
3852.19179
3852.20171
3852.17389
3852.19556
3852.20073
3852.20792
3852.19239
3852.20767
3852.20821
3852.21227
3852.20797
3852.21475
3852.21227
3852.20957
3852.21167
3852.20699
3852.20666
3852.20397
3852.2037
3852.20135
3852.20086
3852.19906
3852.19853
3852.19699
3852.1965
3852.19525
3852.19478
3852.19376
3852.19332
3852.19248
3852.19209
3852.1914
3852.19104
3852.19048
3852.19016
3852.18969
3852.18942
3852.18903
3852.18879
3852.18847
3852.18826
3852.188
3852.18782
3852.18761
3852.18745
3852.18728
3852.18715
3852.187
3852.18689
3852.18677
3852.18668
3852.18658
3852.1865
3852.18642
3852.18636
3852.18629
3852.18624
3852.18618
3852.18614
3852.18609
3852.18606
3852.18602
3852.18599
3852.18596
3852.18594
3852.18591
3852.18589
3852.18587
3852.18586
3852.18584
3852.18583
3852.18582
3852.18581
3852.1858
3852.18579
3852.18578
3852.18577
3852.18576
3852.18576
3852.18575
3852.18575
3852.18574
3852.18574
3852.18574
3852.18573
3852.18573
3852.18573
3852.18573
3852.18572
3852.18572
3852.18572
3852.18572
3852.18572
3852.18572
3852.18572
3852.18572
3852.18572
3852.18571
3852.18571
3852.18571
3852.18571
3852.18571
3852.18571
3852.18571
3852.18571
3852.18571
3852.18571
3852.18571
3852.18571
3852.18571
3852.18571
3852.18571
3852.18571
3852.18571
3852.18571
3852.18571
3852.18571
3852.18571
3852.18571
3852.18571
3852.18571
3852.18571
3852.18571
3852.18571
3852.18571
3852.18571
3852.18571
3852.18571
3852.18571
3852.18571
3852.18571
3852.18571
3852.18571
3852.18571
3852.18571
3852.18571
3852.18571
3852.18571
3852.18571
3852.18571
3852.18571
3852.18571
3852.18571
3852.18571
3852.18571
3852.18571
3852.18571
3852.18571
3852.18571
3852.18571
3852.18571
3852.18571
3852.18571
3852.18571
3852.18571
3852.18571
3852.18571
3852.18571
3852.18571
3852.18571
3852.18571
3852.18571
3852.18571
3852.18571
3852.18571
3852.18571
3852.18571
3852.18571
3852.18571
3852.18571
3852.18571
3852.18571
3852.18571
3852.18571
3852.18571
3852.18571
3852.18571
3852.18571
3852.18571
3852.18571
3852.18571
3852.18571
3852.18571
3852.18571
3852.18571
3852.18571
3852.18571
3852.18571
3852.18571
3852.18571
3852.18571
3852.18571
3852.18571
3852.18571
3852.18571
3852.18571
3852.18571
3852.18571
3852.18571
3852.18571
)
;

boundaryField
{
    closed
    {
        type            calculated;
        value           nonuniform List<scalar> 0();
    }
    open
    {
        type            calculated;
        value           uniform 3852.18571;
    }
    sides
    {
        type            empty;
    }
    procBoundary5to4
    {
        type            processor;
        value           uniform 2930.65281;
    }
}


// ************************************************************************* //
