/*--------------------------------*- C++ -*----------------------------------*\
| =========                 |                                                 |
| \\      /  F ield         | OpenFOAM: The Open Source CFD Toolbox           |
|  \\    /   O peration     | Version:  2306                                  |
|   \\  /    A nd           | Website:  www.openfoam.com                      |
|    \\/     M anipulation  |                                                 |
\*---------------------------------------------------------------------------*/
FoamFile
{
    version     2.0;
    format      ascii;
    arch        "LSB;label=32;scalar=64";
    class       volScalarField;
    location    "0.0015";
    object      p;
}
// * * * * * * * * * * * * * * * * * * * * * * * * * * * * * * * * * * * * * //

dimensions      [1 -1 -2 0 0 0 0];

internalField   nonuniform List<scalar> 
530
(
101302.806
101309.973
101328.104
101351.435
101369.724
101382.958
101400.393
101418.595
101430.746
101432.559
101432.625
101434.481
101433.883
101425.337
101408.406
101385.565
101360.834
101336.738
101316.486
101302.169
101293.903
101290.713
101290.649
101290.863
101289.169
101285.125
101281.114
101280.846
101286.042
101296.004
101308.509
101321.296
101333.183
101344.242
101354.981
101365.667
101376.276
101386.442
101395.798
101404.089
101411.231
101417.305
101422.172
101426.135
101429.428
101432.263
101434.807
101437.16
101439.355
101441.382
101443.219
101444.842
101446.228
101447.341
101448.134
101448.557
101448.571
101448.167
101447.374
101446.251
101444.877
101443.342
101441.726
101440.097
101438.504
101436.982
101435.552
101434.229
101433.023
101431.937
101430.973
101430.123
101429.377
101428.718
101428.131
101427.595
101427.097
101426.622
101426.162
101425.713
101425.277
101424.861
101424.471
101424.117
101423.815
101423.576
101423.4
101423.289
101423.229
101423.204
101423.389
101423.678
101423.004
101422.724
101422.449
101422.107
101422.667
101423.115
101423.516
101423.87
101424.102
101424.161
101424.436
101424.732
101425.076
101425.412
101425.016
101424.711
101424.391
101424.134
101425.261
101425.247
101425.206
101425.211
101425.227
101425.208
101425.088
101424.96
101424.871
101424.778
101424.642
101424.486
101424.311
101424.135
101423.993
101425.221
101425.107
101424.997
101424.863
101424.767
101424.706
101424.601
101424.414
101424.215
101424.041
101423.846
101423.584
101423.388
101424.515
101424.49
101424.474
101424.529
101424.51
101424.362
101424.212
101424.056
101423.932
101425.042
101425.086
101425.124
101425.242
101425.378
101425.498
101425.573
101425.631
101425.585
101425.56
101425.656
101425.875
101426.138
101425.132
101425.03
101425.03
101425.084
101425.118
101425.083
101425.113
101425.218
101425.29
101425.286
101425.349
101425.479
101425.572
101425.6
101425.633
101425.711
101425.833
101425.898
101425.885
101425.922
101425.988
101426.029
101426.068
101426.032
101425.911
101425.852
101425.852
101425.802
101425.65
101425.543
101425.496
101425.387
101425.156
101424.927
101424.7
101424.504
101425.57
101425.537
101425.546
101425.65
101425.715
101425.718
101425.724
101425.774
101425.866
101425.89
101425.814
101425.765
101425.702
101425.557
101425.379
101426.379
101426.364
101426.416
101426.476
101426.436
101426.443
101426.507
101426.522
101426.445
101426.417
101426.44
101426.397
101426.263
101426.087
101425.893
101425.666
101425.45
101426.53
101426.516
101426.477
101426.544
101426.651
101426.8
101427.007
101427.125
101427.301
101427.526
101427.694
101427.756
101427.851
101428.003
101428.088
101428.045
101427.999
101427.948
101427.919
101429.074
101429.17
101429.303
101429.438
101429.536
101429.55
101429.613
101429.72
101429.769
101429.705
101429.648
101429.592
101429.563
101430.73
101430.84
101430.994
101431.16
101431.292
101431.36
101431.467
101431.579
101431.649
101431.578
101431.471
101431.443
101431.505
101431.531
101431.484
101431.476
101431.477
101431.434
101431.398
101431.255
101431.029
101430.856
101430.754
101430.759
101430.87
101430.814
101430.728
101430.675
101430.611
101430.475
101431.609
101431.498
101431.376
101431.174
101430.954
101430.709
101430.499
101431.559
101431.531
101431.538
101431.636
101431.681
101431.633
101431.632
101431.676
101431.655
101431.514
101431.373
101431.232
101431.118
101432.244
101432.316
101432.426
101432.539
101432.618
101432.647
101432.72
101432.808
101432.869
101432.812
101432.766
101432.83
101432.994
101433.244
101432.427
101432.437
101432.537
101432.696
101432.867
101433.1
101433.389
101432.512
101432.502
101432.541
101432.514
101432.528
101432.57
101432.564
101432.546
101432.594
101432.635
101432.576
101432.566
101432.596
101432.574
101432.434
101432.303
101432.168
101432.055
101433.061
101433.064
101433.101
101433.134
101433.123
101433.033
101432.972
101432.913
101432.81
101432.765
101433.776
101433.846
101433.935
101434.011
101434.049
101434.026
101433.994
101433.992
101433.976
101433.906
101433.789
101433.624
101433.502
101434.505
101434.532
101434.595
101434.65
101434.69
101434.694
101434.715
101434.744
101434.802
101434.861
101434.906
101434.957
101435.031
101435.13
101435.226
101435.311
101435.477
101435.666
101435.877
101436.158
101435.919
101435.766
101435.647
101435.479
101435.379
101435.332
101435.249
101435.084
101434.946
101434.813
101434.635
101434.511
101435.47
101435.499
101435.545
101435.658
101435.727
101435.724
101435.771
101435.858
101435.908
101435.893
101435.916
101435.974
101436.044
101436.1
101436.091
101436.101
101436.096
101436.083
101436.129
101436.129
101436.095
101436.065
101436.038
101436.023
101435.947
101435.823
101435.745
101435.721
101435.659
101435.548
101435.468
101435.39
101435.272
101435.128
101434.892
101434.655
101434.487
101434.378
101434.278
101433.112
101432.583
101432.038
101432.085
101432.104
101432.001
101431.809
101431.609
101431.401
101431.221
101432.024
101432
101432.003
101432.013
101432.017
101430.997
101430.661
101430.353
101430.065
101429.788
101430.418
101430.223
101430.036
101429.81
101429.528
101429.266
101429.932
101429.812
101429.645
101429.459
101429.263
101429.032
101428.77
101428.519
101428.309
101428.122
101427.935
101427.773
101427.656
101427.58
101426.644
101426.358
101426.13
101425.984
101425.809
101425.603
101425.451
101425.328
101425.197
101425.059
101424.996
101424.997
101425.021
101424.072
101423.823
101423.653
101423.499
101423.326
101423.119
101422.971
101422.855
101422.725
101422.578
101422.502
101422.49
101422.502
101421.5
101421.208
101420.99
101420.783
101420.558
101420.299
101420.102
101419.941
101419.771
101419.589
101419.483
101419.45
101419.448
101418.408
101418.089
101417.847
101417.626
101417.38
101417.081
101416.832
101416.62
)
;

boundaryField
{
    closed
    {
        type            zeroGradient;
    }
    open
    {
        type            waveTransmissive;
        gamma           1.25;
        fieldInf        101325;
        lInf            1;
        value           nonuniform List<scalar> 0();
    }
    sides
    {
        type            empty;
    }
    procBoundary0to1
    {
        type            processor;
        value           uniform 101416.369;
    }
}


// ************************************************************************* //
