/*--------------------------------*- C++ -*----------------------------------*\
| =========                 |                                                 |
| \\      /  F ield         | OpenFOAM: The Open Source CFD Toolbox           |
|  \\    /   O peration     | Version:  2306                                  |
|   \\  /    A nd           | Website:  www.openfoam.com                      |
|    \\/     M anipulation  |                                                 |
\*---------------------------------------------------------------------------*/
FoamFile
{
    version     2.0;
    format      ascii;
    arch        "LSB;label=32;scalar=64";
    class       volScalarField;
    location    "0.0015";
    object      prefDh_T;
}
// * * * * * * * * * * * * * * * * * * * * * * * * * * * * * * * * * * * * * //

dimensions      [1 1 -3 -1 0 0 0];

internalField   nonuniform List<scalar> 
530
(
-0.00108096011
-0.000666461014
-0.000593223979
-0.000591368972
-0.000591202327
-0.00059119504
-0.000591194525
-0.000591194502
-0.000591194501
-0.000591194501
-0.000591194501
-0.000591194501
-0.000591194501
-0.000591194501
-0.000591194501
-0.000591194501
-0.000591194501
-0.000591194501
-0.000591194501
-0.000591194501
-0.000591194501
-0.000591194501
-0.000591194501
-0.000591194501
-0.000591194501
-0.000591194501
-0.000591194501
-0.000591194501
-0.000591194501
-0.000591194501
-0.000591194501
-0.000591194501
-0.000591194501
-0.000591194501
-0.000591194501
-0.000591194501
-0.000591194501
-0.000591194501
-0.000591194501
-0.000591194501
-0.000591194501
-0.000591194501
-0.000591194501
-0.000591194501
-0.000591194501
-0.000591194501
-0.000591194501
-0.000591194501
-0.000591194501
-0.000591194501
-0.000591194501
-0.000591194501
-0.000591194501
-0.000591194501
-0.000591194501
-0.000591194501
-0.000591194501
-0.000591194501
-0.000591194501
-0.000591194503
-0.000591194503
-0.000591194519
-0.00059119453
-0.000591194648
-0.00059119469
-0.000591195445
-0.000591195477
-0.000591199271
-0.000591199999
-0.000591212229
-0.000591218631
-0.00059124942
-0.000591292908
-0.000591314034
-0.00059138771
-0.000591436525
-0.000592175629
-0.000592265482
-0.00059021033
-0.000590223584
-0.000598091264
-0.00060258598
-0.000588745665
-0.000590316113
-0.000596149706
-0.000597314193
-0.000587703454
-0.000548485424
-0.000547326421
-0.000710550238
-0.000747815986
-0.000743083436
-0.000588265418
-0.000456842808
-0.000458113557
-0.000717101939
-0.000746643696
-0.000737776386
-0.000591283965
-0.000417169007
-0.00042074387
-0.00070291814
-0.000742587049
-0.000732391083
-0.000745512692
-0.000740628062
-0.000592832596
-0.000519164908
-0.000442360389
-0.000441465988
-0.000729384816
-0.000739222377
-0.000739047393
-0.000607345583
-0.000544071605
-0.000729914165
-0.000745011249
-0.000737466294
-0.000591397804
-0.000556011866
-0.000559387301
-0.000531352476
-0.000532998838
-0.000469441477
-0.00047124985
-0.000719024237
-0.000741437873
-0.000727221247
-0.000744059921
-0.000606301054
-0.00056243878
-0.000732965084
-0.000747017656
-0.000742431004
-0.000595546138
-0.000538118846
-0.000473698641
-0.000473945054
-0.000727850269
-0.000743639413
-0.000601660455
-0.0005244875
-0.000729722129
-0.000738858729
-0.000597730127
-0.000480928186
-0.000481725362
-0.000722237838
-0.000740678506
-0.000730031102
-0.000742341985
-0.000597372737
-0.000559134544
-0.000497298622
-0.000498146354
-0.000730465414
-0.000736878257
-0.000596417828
-0.000484815773
-0.000487734458
-0.000721740053
-0.000744592314
-0.000619192378
-0.000543651021
-0.000722779649
-0.000746295883
-0.000603823097
-0.000539829732
-0.000722874527
-0.000745470507
-0.000583503098
-0.000541020368
-0.000727782613
-0.000742174111
-0.000739813832
-0.000609938452
-0.000520000192
-0.000730429408
-0.00074395938
-0.000603819853
-0.000527021264
-0.00046536425
-0.000467681712
-0.000720845257
-0.00074178626
-0.00060252899
-0.00052805562
-0.000722684938
-0.000742037238
-0.00060823435
-0.000535643069
-0.000727714163
-0.00073560074
-0.000599462316
-0.000475414526
-0.000477327723
-0.000720904984
-0.000740359559
-0.000599871242
-0.000537626705
-0.000726887993
-0.000739753063
-0.000738091065
-0.000600683989
-0.000523731379
-0.000730087913
-0.000741396148
-0.000602188582
-0.00055762613
-0.000494112493
-0.000495332746
-0.000726797631
-0.000603003198
-0.000498905233
-0.00072236804
-0.000740946057
-0.00060448658
-0.000533600603
-0.000720480292
-0.000744516027
-0.000588384389
-0.000543309561
-0.000721462513
-0.000745273413
-0.000728686147
-0.000593103575
-0.000445669958
-0.000449210653
-0.000722669908
-0.000743897696
-0.000729664488
-0.0005928057
-0.00045458396
-0.000456158599
-0.000723369086
-0.000744253621
-0.000611875745
-0.000534089047
-0.00072425608
-0.000744473443
-0.000617573947
-0.000546276001
-0.000729656578
-0.000738077554
-0.00059724201
-0.000488894652
-0.000489829274
-0.00072431793
-0.000744741435
-0.000618095537
-0.000546056193
-0.000726699201
-0.000747169777
-0.00061507723
-0.000546417381
-0.000732058991
-0.000740913201
-0.000595878281
-0.00049006616
-0.000490443612
-0.000727503677
-0.0007438537
-0.000611249328
-0.000557684526
-0.000732023196
-0.000740237491
-0.000595882605
-0.00050978414
-0.00051129541
-0.00072431076
-0.000744096348
-0.000612335303
-0.000565138946
-0.000729466642
-0.000745414901
-0.000601379422
-0.000567330587
-0.000505481985
-0.00050597752
-0.000727874024
-0.000735275018
-0.000599360385
-0.000469673559
-0.000471263007
-0.000725265849
-0.000741191666
-0.000729622366
-0.000596845878
-0.000450044054
-0.00045202445
-0.000717942906
-0.000735412481
-0.000729431398
-0.000733785586
-0.000596047509
-0.000443845637
-0.000446753159
-0.000720818554
-0.000741749218
-0.000593530706
-0.000510385302
-0.000723520612
-0.000742742589
-0.000589055587
-0.000516444206
-0.000728736316
-0.000737121217
-0.000600996869
-0.000467077516
-0.000468831159
-0.000723897486
-0.000740814772
-0.000615963627
-0.000547896533
-0.000730481714
-0.00074014566
-0.000598345212
-0.00051039479
-0.000511462151
-0.000727972116
-0.000737725366
-0.000598313496
-0.000532942297
-0.000532440731
-0.000731938387
-0.000741365029
-0.00059405615
-0.000546895204
-0.00055194794
-0.000488481643
-0.000489910759
-0.000724805282
-0.000745198752
-0.00073228188
-0.000747549114
-0.000602309469
-0.00059056962
-0.000733065136
-0.000591936758
-0.000508021922
-0.0007337621
-0.000743988528
-0.000609708748
-0.000541105488
-0.000736164593
-0.000742650876
-0.000593808774
-0.000485824451
-0.000486605943
-0.000729187386
-0.000747486139
-0.00060849467
-0.000565944021
-0.000733342118
-0.000749713793
-0.000598505281
-0.000575029644
-0.00053284395
-0.000531946474
-0.000730355604
-0.000746939951
-0.000609072217
-0.000594135398
-0.000734423024
-0.000747884911
-0.000741965451
-0.000591211536
-0.000552784207
-0.000548141192
-0.000539889135
-0.000488879342
-0.000489053061
-0.000729711027
-0.00074513014
-0.000616627704
-0.000564193049
-0.000726006771
-0.000745916706
-0.000731576179
-0.000746570434
-0.000600368027
-0.000569954632
-0.000550773613
-0.000551673587
-0.000499227326
-0.000510331689
-0.000737796102
-0.00059684137
-0.00053471158
-0.00073573183
-0.000740559499
-0.00074054325
-0.000603297552
-0.000539224731
-0.000731349727
-0.000746033183
-0.000612976014
-0.000555448327
-0.000732481391
-0.000745928197
-0.000602211108
-0.000547262083
-0.000500432561
-0.000500081133
-0.000728831946
-0.000744910337
-0.000604008751
-0.000535600127
-0.000730756409
-0.000746155534
-0.000592958888
-0.000528868292
-0.000736034975
-0.00074137258
-0.000597502323
-0.000466372708
-0.000468486224
-0.000732952403
-0.000742287592
-0.000735604389
-0.000743811949
-0.00074063783
-0.000603831002
-0.000565449354
-0.000547528943
-0.000541516295
-0.000499677211
-0.000500792222
-0.000731688858
-0.000745758288
-0.00060729043
-0.000577104875
-0.000735687143
-0.000746715537
-0.000597519126
-0.000582630055
-0.000539092329
-0.000539000722
-0.00073557526
-0.000741532916
-0.000594982528
-0.000504578663
-0.000505382519
-0.000737195066
-0.00074333504
-0.000743307846
-0.000598163296
-0.00055353222
-0.000740748707
-0.00074437425
-0.000593685953
-0.000510230467
-0.000509769584
-0.000736169207
-0.000742440259
-0.000594750915
-0.000504013603
-0.000504616283
-0.000736487777
-0.000741050005
-0.000593482234
-0.00050406563
-0.000504086122
-0.00073649081
-0.000745228958
-0.000597731965
-0.000539574855
-0.000496638257
-0.000496541569
-0.000736576797
-0.000742713573
-0.000743580308
-0.00060040706
-0.000564731277
-0.000739981943
-0.000746584114
-0.000743959626
-0.000591328958
-0.000567594252
-0.000573099513
-0.000567055515
-0.000533488479
-0.000533386108
-0.000733557167
-0.000747702172
-0.000609273943
-0.000560142443
-0.000735111182
-0.000748683643
-0.000606004789
-0.000551950928
-0.000738921328
-0.000743753096
-0.000595531387
-0.000495904731
-0.000497403125
-0.000731011922
-0.000747416351
-0.000599959842
-0.000537429304
-0.000733479656
-0.000748176254
-0.000592719171
-0.00053713402
-0.000736715896
-0.000742838668
-0.000598543327
-0.000488738628
-0.000490045463
-0.000729975436
-0.000745549137
-0.00059955293
-0.000536505476
-0.000731882582
-0.000746557167
-0.000592771685
-0.000536887275
-0.000735599209
-0.000741609843
-0.00059965656
-0.000484245343
-0.000485613938
-0.000728959633
-0.000745558906
-0.000595402741
-0.000530581909
-0.000730185883
-0.000748390839
-0.000592224548
-0.000537724053
)
;

boundaryField
{
    closed
    {
        type            calculated;
        value           uniform -0.00452124623;
    }
    open
    {
        type            calculated;
        value           nonuniform List<scalar> 0();
    }
    sides
    {
        type            empty;
    }
    procBoundary0to1
    {
        type            processor;
        value           uniform -0.000729797069;
    }
}


// ************************************************************************* //
