/*--------------------------------*- C++ -*----------------------------------*\
| =========                 |                                                 |
| \\      /  F ield         | OpenFOAM: The Open Source CFD Toolbox           |
|  \\    /   O peration     | Version:  2306                                  |
|   \\  /    A nd           | Website:  www.openfoam.com                      |
|    \\/     M anipulation  |                                                 |
\*---------------------------------------------------------------------------*/
FoamFile
{
    version     2.0;
    format      ascii;
    arch        "LSB;label=32;scalar=64";
    class       volScalarField;
    location    "0.00198";
    object      Z;
}
// * * * * * * * * * * * * * * * * * * * * * * * * * * * * * * * * * * * * * //

dimensions      [0 0 0 0 0 0 0];

internalField   nonuniform List<scalar> 
531
(
0.0140866879
0.014067517
0.0140876065
0.0147160916
0.0148253411
0.0145529427
0.0140825443
0.0140678191
0.014777896
0.0147897761
0.0147717315
0.0146355299
0.0140736372
0.0140708866
0.0147667665
0.0148236273
0.0145779933
0.0140763942
0.0140676353
0.0147549893
0.0148025209
0.0145603614
0.0140750473
0.0140675524
0.0147506087
0.0148002029
0.0145580257
0.0140750871
0.0140670861
0.0147508654
0.0148027707
0.01456817
0.0140756067
0.0140674121
0.0147607599
0.0148195145
0.0146162719
0.0140782786
0.0140678145
0.0148035465
0.0148651237
0.0146039919
0.014078348
0.0140669431
0.0140709919
0.0140710867
0.0147128247
0.0148163496
0.0147821147
0.0147242378
0.0140729836
0.0140613105
0.0147582957
0.0147526844
0.0140747501
0.0140728713
0.0147879826
0.0148506549
0.0146858038
0.014082761
0.014056487
0.0147342743
0.0147144778
0.0140763435
0.0140693217
0.0147537213
0.0148188655
0.0146622364
0.0140845824
0.0140548169
0.0147382123
0.0147027014
0.0140856529
0.0140641137
0.0140772447
0.014715076
0.0148200224
0.0147423347
0.0147939205
0.0146517145
0.0140869942
0.0140669023
0.0147492743
0.0148240973
0.0146787321
0.0140887314
0.0140571715
0.0147280938
0.0147079075
0.0140872848
0.0140578368
0.0140691766
0.0146239266
0.0147989276
0.0147301065
0.0147823751
0.0146542371
0.0140878707
0.0140632595
0.014725358
0.0148050477
0.0146313056
0.0140862452
0.0140646757
0.0147073561
0.0147903924
0.0145790909
0.0140896338
0.0140562509
0.0140649612
0.0146415853
0.0147710761
0.0147528083
0.0146835788
0.0140841651
0.0140657551
0.0147103101
0.0148071895
0.0146407791
0.0140915913
0.0140626219
0.0146817676
0.014770219
0.0145337681
0.0143934098
0.0146780076
0.0146261536
0.014094804
0.0140630841
0.0140765762
0.0147009834
0.0148741737
0.0147463486
0.0141057137
0.0140676451
0.0147208692
0.0147602208
0.0141236194
0.0140775113
0.0147271644
0.0148536565
0.0147592157
0.014105209
0.0140689394
0.0147100569
0.0147509513
0.0141235405
0.0140776247
0.0147163967
0.0148495622
0.0147700281
0.0141079166
0.0140716113
0.0147329401
0.0147861216
0.0141303868
0.0140750868
0.0147312959
0.0147791829
0.0141268937
0.014072043
0.0147135259
0.0147365219
0.0141111051
0.0140737941
0.0144675337
0.014784684
0.0148001265
0.0143783494
0.0140782526
0.0146892257
0.0147204153
0.0141157775
0.0140640266
0.0140747663
0.0146518877
0.0148080204
0.01472914
0.014852535
0.0146503547
0.01415032
0.0146767119
0.0147495644
0.0141214409
0.0140696021
0.0140852507
0.0146849332
0.0149246416
0.0146005854
0.0140959145
0.0146774093
0.0147447888
0.0141161618
0.0140677151
0.0140843543
0.0146619817
0.0149100666
0.0146171089
0.0140947693
0.0146721311
0.0147535119
0.0141077752
0.0140678356
0.014082839
0.0146340869
0.0148367596
0.0146276957
0.0143213744
0.0146888828
0.014700928
0.0140922433
0.0140595682
0.0140728988
0.0146428318
0.0148428694
0.0147556431
0.0140832495
0.0140668209
0.0146207123
0.0147849839
0.0147265914
0.014077868
0.0140640573
0.0146132996
0.0147533448
0.0147579796
0.0147580813
0.0140836773
0.0140700034
0.0146360835
0.0148009412
0.0147612197
0.0140787757
0.0140675797
0.014613938
0.0147944164
0.014759986
0.0140778686
0.0140678919
0.0145989974
0.0147901851
0.0147640395
0.0140774587
0.0140701152
0.0145649861
0.0148102373
0.0146213932
0.0140799935
0.0146673665
0.0147332132
0.0140974469
0.0140623434
0.0140759365
0.0146309752
0.0148446099
0.0148045344
0.0140853126
0.0140735235
0.0146104663
0.014804704
0.0147911336
0.0140793679
0.0140765002
0.0145790566
0.0148366999
0.0147702366
0.0140875955
0.0140636297
0.014069882
0.0146090538
0.0147532516
0.0148201262
0.0147558276
0.014082309
0.0146312759
0.0148078728
0.0140829695
0.0140704315
0.014709764
0.0147483401
0.0140777931
0.0140704868
0.0145984815
0.0148004976
0.0147919846
0.0140771954
0.0140636272
0.0144806994
0.0147063281
0.0147745152
0.0146967019
0.014074714
0.0145328892
0.0147570064
0.0140765511
0.0140655761
0.0146987318
0.0147317244
0.0140767274
0.0140718148
0.0145558623
0.0147989156
0.0147844071
0.0140836829
0.0140763581
0.0145483018
0.0148179986
0.0148046435
0.0140846433
0.0140854615
0.0145595649
0.0148720142
0.0148258657
0.0140918689
0.0140658111
0.0140841125
0.0146097787
0.0147780365
0.0146478133
0.014774633
0.0147516786
0.0140812016
0.0140636783
0.0140746446
0.014693745
0.0147220926
0.0140839164
0.0145554925
0.0148009886
0.0140772698
0.0140724577
0.0145771967
0.0147201096
0.0148083377
0.0147777942
0.0140841374
0.0146070872
0.0148215512
0.0140815078
0.0140756508
0.0147517288
0.0147504396
0.0140871828
0.0140707893
0.0140824532
0.0144272218
0.0147364178
0.0148479279
0.014799276
0.0140851792
0.014641643
0.0148520941
0.0140751593
0.0140759581
0.0147468341
0.014773352
0.0140751495
0.0140671883
0.0147293391
0.0147373779
0.0140678887
0.0140652746
0.0145725054
0.0147138413
0.0148026717
0.0147793809
0.0140796155
0.0145384588
0.0148050426
0.0140681748
0.014076503
0.0147347904
0.0147602316
0.0140680395
0.0140818049
0.0144953477
0.0148342053
0.0147977186
0.0140765674
0.0140737981
0.014713876
0.0147320985
0.0140689995
0.0140707464
0.0145979403
0.0147402585
0.0148619859
0.014823173
0.0140940852
0.0140739748
0.0141047115
0.0144798671
0.0148871062
0.0148298357
0.0140774324
0.0140895593
0.0145520022
0.0148652368
0.0148105221
0.0140812172
0.0140787935
0.0147330999
0.0147309149
0.014079949
0.01407241
0.014340825
0.0147331629
0.0147681271
0.014867184
0.0148344386
0.0140806023
0.0140776797
0.0147407682
0.0147452567
0.0140718831
0.0140686937
0.0147094386
0.0147089987
0.0140665692
0.0140646931
0.0145440093
0.0147028208
0.0148250856
0.0147755181
0.014083003
0.0145616215
0.0148273463
0.0140688891
0.0140751491
0.0147604167
0.0147719565
0.0140739596
0.0140693709
0.0147415366
0.0147353892
0.0140710198
0.0140639453
0.0144768949
0.0146874462
0.0148228085
0.0147856923
0.0140911174
0.0140836455
0.0143075406
0.0148286912
0.0148132933
0.0140823342
0.0140900707
0.0144407852
0.0148570025
0.0148110024
0.0140882502
0.0140782446
0.0147414076
0.0147924359
0.0140698448
0.0140845336
0.0145196446
0.0148709372
0.0148373973
0.014078014
0.01408937
0.0144882784
0.0148705158
0.0148395394
0.0140776708
0.0140914964
0.0144968956
0.0148855732
0.014842791
0.014085366
0.0140797294
0.0147377581
0.0147821955
0.0140737845
0.0140857114
0.0144692254
0.0148765163
0.0148414888
0.0141001813
0.0140992613
0.0140982205
0.0142482188
0.0147229634
0.0149014637
0.0148685597
0.0140843289
0.0140893273
0.0144524596
0.0148408098
0.0148089667
0.0140909292
0.0145041221
0.0148308016
0.0140732847
0.0140911787
0.0145003494
0.0148906288
0.0148654271
0.0140919233
0.0140808671
0.0147467686
0.0147816929
0.0141001968
0.0141754691
0.0148646779
0.0145470785
0.0141037265
0.01406009
0.0140942336
0.0146506001
0.0149110864
0.0148987086
0.0140983499
0.0140929894
0.0144033696
0.0148499642
0.0148491451
0.0140957239
0.0140903029
0.0144209452
0.014849659
0.014849594
0.0140960371
0.0140913429
0.0144470954
0.0148678644
0.0148625611
0.0140988223
0.0140816914
0.0147127881
)
;

boundaryField
{
    closed
    {
        type            zeroGradient;
    }
    open
    {
        type            zeroGradient;
    }
    sides
    {
        type            empty;
    }
    procBoundary1to0
    {
        type            processor;
        value           uniform 0.0147340559;
    }
    procBoundary1to2
    {
        type            processor;
        value           uniform 0.0147815746;
    }
}


// ************************************************************************* //
