/*--------------------------------*- C++ -*----------------------------------*\
| =========                 |                                                 |
| \\      /  F ield         | OpenFOAM: The Open Source CFD Toolbox           |
|  \\    /   O peration     | Version:  2306                                  |
|   \\  /    A nd           | Website:  www.openfoam.com                      |
|    \\/     M anipulation  |                                                 |
\*---------------------------------------------------------------------------*/
FoamFile
{
    version     2.0;
    format      ascii;
    arch        "LSB;label=32;scalar=64";
    class       volScalarField;
    location    "0.00088";
    object      prefDPV_H2;
}
// * * * * * * * * * * * * * * * * * * * * * * * * * * * * * * * * * * * * * //

dimensions      [1 -1 -1 0 0 0 0];

internalField   nonuniform List<scalar> 
530
(
-9.43393079e-05
-9.44119458e-05
-9.44747875e-05
-9.45421659e-05
-9.46019054e-05
-9.4666232e-05
-9.47230333e-05
-9.47851371e-05
-9.48395505e-05
-9.48995679e-05
-9.4951757e-05
-9.50085516e-05
-9.50559178e-05
-9.51116817e-05
-9.51601682e-05
-9.52158259e-05
-9.52620548e-05
-9.53156723e-05
-9.53597614e-05
-9.54114279e-05
-9.54534848e-05
-9.55033054e-05
-9.55434147e-05
-9.5591523e-05
-9.56297383e-05
-9.56758676e-05
-9.57097213e-05
-9.57518053e-05
-9.5783715e-05
-9.58245867e-05
-9.58545342e-05
-9.58943264e-05
-9.59223229e-05
-9.59610973e-05
-9.5987213e-05
-9.60249067e-05
-9.60492917e-05
-9.60856979e-05
-9.61085553e-05
-9.61436015e-05
-9.61651006e-05
-9.61978071e-05
-9.6219595e-05
-9.62504579e-05
-9.627261e-05
-9.63005904e-05
-9.63214754e-05
-9.63462476e-05
-9.63668123e-05
-9.63897507e-05
-9.64098678e-05
-9.64311227e-05
-9.64507229e-05
-9.6470396e-05
-9.64894588e-05
-9.65076121e-05
-9.65261544e-05
-9.65428184e-05
-9.65608837e-05
-9.65760657e-05
-9.65937141e-05
-9.66074081e-05
-9.66247039e-05
-9.66369058e-05
-9.66539013e-05
-9.66646298e-05
-9.66813451e-05
-9.66906816e-05
-9.67070655e-05
-9.67152643e-05
-9.67305506e-05
-9.67381326e-05
-9.67527794e-05
-9.67598525e-05
-9.67730715e-05
-9.67787569e-05
-9.67902986e-05
-9.67953253e-05
-9.68060813e-05
-9.68103838e-05
-9.68203701e-05
-9.68239122e-05
-9.68331649e-05
-9.68359422e-05
-9.68444852e-05
-9.68465026e-05
-9.68543535e-05
-9.68556214e-05
-9.68627936e-05
-9.68633261e-05
-9.68698306e-05
-9.68696438e-05
-9.687549e-05
-9.68746016e-05
-9.6879798e-05
-9.68782267e-05
-9.68827813e-05
-9.68805459e-05
-9.68844668e-05
-9.68815864e-05
-9.68848821e-05
-9.68813758e-05
-9.68840552e-05
-9.68799419e-05
-9.68820145e-05
-9.68773133e-05
-9.68787886e-05
-9.68735196e-05
-9.68744068e-05
-9.68685912e-05
-9.68688982e-05
-9.68625597e-05
-9.68622928e-05
-9.68554578e-05
-9.68546209e-05
-9.68473192e-05
-9.68459134e-05
-9.68381778e-05
-9.68362019e-05
-9.68280681e-05
-9.68255171e-05
-9.68170242e-05
-9.68138873e-05
-9.68049488e-05
-9.68008641e-05
-9.67913634e-05
-9.67866177e-05
-9.67768287e-05
-9.67714428e-05
-9.67613627e-05
-9.67554021e-05
-9.67450061e-05
-9.67385839e-05
-9.67278132e-05
-9.67210815e-05
-9.67097955e-05
-9.6703058e-05
-9.66916721e-05
-9.66837469e-05
-9.66722383e-05
-9.66636513e-05
-9.66517859e-05
-9.66426987e-05
-9.66304817e-05
-9.66209379e-05
-9.66084221e-05
-9.65984315e-05
-9.65856601e-05
-9.65752242e-05
-9.65622228e-05
-9.65513432e-05
-9.6538126e-05
-9.6526808e-05
-9.65133827e-05
-9.65016363e-05
-9.64880071e-05
-9.6475847e-05
-9.64620162e-05
-9.64494602e-05
-9.64353547e-05
-9.6422283e-05
-9.64079005e-05
-9.63944751e-05
-9.63799059e-05
-9.63661492e-05
-9.63513956e-05
-9.63373293e-05
-9.63223948e-05
-9.63080397e-05
-9.62929288e-05
-9.62783047e-05
-9.6263023e-05
-9.62481489e-05
-9.62327029e-05
-9.62175968e-05
-9.6201994e-05
-9.61866732e-05
-9.61709215e-05
-9.61554029e-05
-9.61395109e-05
-9.61238105e-05
-9.61077875e-05
-9.60919208e-05
-9.60757764e-05
-9.60597586e-05
-9.60435029e-05
-9.60273487e-05
-9.60109918e-05
-9.59947158e-05
-9.5978268e-05
-9.59618848e-05
-9.5945356e-05
-9.59288806e-05
-9.59122929e-05
-9.58957412e-05
-9.5879067e-05
-9.5862406e-05
-9.58456433e-05
-9.58288885e-05
-9.58120498e-05
-9.57952159e-05
-9.57783141e-05
-9.57614152e-05
-9.57444634e-05
-9.57275136e-05
-9.5710525e-05
-9.56935382e-05
-9.56765259e-05
-9.56595159e-05
-9.56424928e-05
-9.56254735e-05
-9.56084523e-05
-9.55914379e-05
-9.55744307e-05
-9.55574359e-05
-9.55404546e-05
-9.55234939e-05
-9.5506551e-05
-9.54896379e-05
-9.54727472e-05
-9.54558929e-05
-9.54390713e-05
-9.54220982e-05
-9.5405188e-05
-9.53883192e-05
-9.53716816e-05
-9.53550899e-05
-9.53385733e-05
-9.53221068e-05
-9.53057165e-05
-9.5289376e-05
-9.52731208e-05
-9.52569118e-05
-9.52407964e-05
-9.52247257e-05
-9.5208754e-05
-9.51928281e-05
-9.51770043e-05
-9.51612288e-05
-9.51455575e-05
-9.51299375e-05
-9.51144233e-05
-9.50989634e-05
-9.50836108e-05
-9.50683154e-05
-9.5053129e-05
-9.50380022e-05
-9.5022986e-05
-9.50080319e-05
-9.49931898e-05
-9.49784122e-05
-9.4963748e-05
-9.49491506e-05
-9.49346678e-05
-9.4920254e-05
-9.4905956e-05
-9.4891729e-05
-9.48776188e-05
-9.48635819e-05
-9.48496624e-05
-9.48358184e-05
-9.48220924e-05
-9.4808444e-05
-9.4794914e-05
-9.47814637e-05
-9.4768132e-05
-9.47548822e-05
-9.47417511e-05
-9.47287037e-05
-9.47157753e-05
-9.47029321e-05
-9.46902085e-05
-9.46775709e-05
-9.4665054e-05
-9.46526234e-05
-9.46403144e-05
-9.46280929e-05
-9.46159922e-05
-9.46039826e-05
-9.45920891e-05
-9.45802947e-05
-9.45686446e-05
-9.45571561e-05
-9.45457712e-05
-9.45344781e-05
-9.45232934e-05
-9.45122006e-05
-9.45012163e-05
-9.44903262e-05
-9.44795435e-05
-9.44688575e-05
-9.44582779e-05
-9.44477969e-05
-9.44374217e-05
-9.44271466e-05
-9.44169766e-05
-9.4406908e-05
-9.43969439e-05
-9.43870824e-05
-9.43773246e-05
-9.43676705e-05
-9.43581191e-05
-9.43486725e-05
-9.43393274e-05
-9.43300884e-05
-9.4320949e-05
-9.43119176e-05
-9.43029833e-05
-9.42941592e-05
-9.42854293e-05
-9.42768106e-05
-9.42680766e-05
-9.42594188e-05
-9.42508593e-05
-9.42424151e-05
-9.42340691e-05
-9.42258369e-05
-9.42177023e-05
-9.42096803e-05
-9.42017548e-05
-9.41939413e-05
-9.41862227e-05
-9.41786154e-05
-9.41711016e-05
-9.41636982e-05
-9.41563867e-05
-9.41491848e-05
-9.41420732e-05
-9.41350703e-05
-9.41281561e-05
-9.41213495e-05
-9.41146302e-05
-9.41080172e-05
-9.410149e-05
-9.40950678e-05
-9.408873e-05
-9.40824956e-05
-9.40763443e-05
-9.4070295e-05
-9.40643272e-05
-9.40584598e-05
-9.40526727e-05
-9.40469842e-05
-9.40413746e-05
-9.40358618e-05
-9.40304267e-05
-9.40250865e-05
-9.40198226e-05
-9.40146519e-05
-9.40095561e-05
-9.40045515e-05
-9.39996206e-05
-9.39947788e-05
-9.39900096e-05
-9.39853274e-05
-9.39807165e-05
-9.39761905e-05
-9.39717347e-05
-9.39673616e-05
-9.39630576e-05
-9.3958834e-05
-9.39546783e-05
-9.3950601e-05
-9.39465904e-05
-9.39426559e-05
-9.3938787e-05
-9.39349921e-05
-9.39312616e-05
-9.39276028e-05
-9.39240073e-05
-9.39204814e-05
-9.39170177e-05
-9.39136213e-05
-9.3910286e-05
-9.39070158e-05
-9.39038056e-05
-9.39006584e-05
-9.38975701e-05
-9.38945427e-05
-9.38915729e-05
-9.3888662e-05
-9.38858076e-05
-9.388301e-05
-9.38802678e-05
-9.38775804e-05
-9.38749472e-05
-9.38723668e-05
-9.38698395e-05
-9.38673631e-05
-9.38649385e-05
-9.3862563e-05
-9.38602381e-05
-9.38579606e-05
-9.38557324e-05
-9.38535498e-05
-9.38514153e-05
-9.38493248e-05
-9.3847281e-05
-9.38452796e-05
-9.38433237e-05
-9.38414086e-05
-9.38395377e-05
-9.38377062e-05
-9.38359175e-05
-9.38341668e-05
-9.38324576e-05
-9.3830785e-05
-9.38291525e-05
-9.38275554e-05
-9.3825997e-05
-9.38244727e-05
-9.38229858e-05
-9.38215319e-05
-9.3820114e-05
-9.3818728e-05
-9.38173765e-05
-9.38160559e-05
-9.38147684e-05
-9.38135108e-05
-9.3812285e-05
-9.38110881e-05
-9.38099216e-05
-9.38087832e-05
-9.38076736e-05
-9.38065914e-05
-9.38055368e-05
-9.38045086e-05
-9.38035066e-05
-9.38025304e-05
-9.3801579e-05
-9.38006526e-05
-9.37997497e-05
-9.37988712e-05
-9.37980149e-05
-9.37971823e-05
-9.37963706e-05
-9.3795582e-05
-9.3794813e-05
-9.37940665e-05
-9.37933386e-05
-9.37926325e-05
-9.37919437e-05
-9.37912762e-05
-9.37906249e-05
-9.37899943e-05
-9.37893788e-05
-9.37887835e-05
-9.37882023e-05
-9.37876407e-05
-9.37870922e-05
-9.37865627e-05
-9.37860455e-05
-9.37855462e-05
-9.37850404e-05
-9.37845195e-05
-9.37839766e-05
-9.37834209e-05
-9.37828447e-05
-9.3782259e-05
-9.37816552e-05
-9.37810466e-05
-9.37804237e-05
-9.37798021e-05
-9.37791715e-05
-9.37785493e-05
-9.37779252e-05
-9.37773177e-05
-9.37767171e-05
-9.37761414e-05
-9.37755831e-05
-9.37750576e-05
-9.3774561e-05
-9.37741034e-05
-9.37736866e-05
-9.3773312e-05
-9.37729887e-05
-9.37727076e-05
-9.3772484e-05
-9.37723001e-05
-9.37721726e-05
-9.37720813e-05
-9.37720356e-05
-9.37720225e-05
-9.37720377e-05
-9.37720787e-05
-9.3772133e-05
-9.37722015e-05
-9.37722777e-05
-9.37723496e-05
-9.3772415e-05
-9.37724514e-05
-9.37723441e-05
-9.37722786e-05
-9.37722447e-05
-9.3772228e-05
-9.37722203e-05
-9.37722172e-05
-9.37722159e-05
-9.37722155e-05
-9.37722153e-05
-9.37722153e-05
-9.37722152e-05
-9.37722152e-05
-9.37722152e-05
-9.37722152e-05
-9.37722152e-05
-9.37722152e-05
-9.37722152e-05
-9.37722152e-05
-9.37722152e-05
-9.37722152e-05
-9.37722152e-05
-9.37722152e-05
-9.37722152e-05
-9.37722152e-05
-9.37722152e-05
-9.37722152e-05
-9.37722152e-05
-9.37722152e-05
-9.37722152e-05
-9.37722152e-05
-9.37722152e-05
-9.37722152e-05
-9.37722152e-05
-9.37722152e-05
-9.37722152e-05
-9.37722152e-05
-9.37722152e-05
-9.37722152e-05
-9.37722152e-05
)
;

boundaryField
{
    closed
    {
        type            calculated;
        value           nonuniform List<scalar> 0();
    }
    open
    {
        type            calculated;
        value           uniform -9.37722152e-05;
    }
    sides
    {
        type            empty;
    }
    procBoundary5to4
    {
        type            processor;
        value           uniform -9.42696223e-05;
    }
}


// ************************************************************************* //
