/*--------------------------------*- C++ -*----------------------------------*\
| =========                 |                                                 |
| \\      /  F ield         | OpenFOAM: The Open Source CFD Toolbox           |
|  \\    /   O peration     | Version:  2306                                  |
|   \\  /    A nd           | Website:  www.openfoam.com                      |
|    \\/     M anipulation  |                                                 |
\*---------------------------------------------------------------------------*/
FoamFile
{
    version     2.0;
    format      ascii;
    arch        "LSB;label=32;scalar=64";
    class       volScalarField;
    location    "0.00154";
    object      T;
}
// * * * * * * * * * * * * * * * * * * * * * * * * * * * * * * * * * * * * * //

dimensions      [0 0 0 1 0 0 0];

internalField   nonuniform List<scalar> 
531
(
339.810047
339.323775
339.800664
328.842402
321.506294
322.95467
320.531695
320.651916
338.790868
339.903901
327.959551
324.419357
338.863463
339.876211
328.919669
325.869471
339.025644
339.546389
329.470104
323.561265
323.664315
338.951063
339.961958
326.324498
323.406667
338.628738
339.715856
339.531317
323.566834
321.160356
338.604664
339.747556
339.405772
328.616474
316.0504
320.527851
338.971935
339.6093
339.533872
326.278122
323.336077
338.710577
339.732131
339.50889
329.327228
321.219617
323.09186
339.134494
339.748066
327.466127
323.071335
320.718322
321.112463
339.14189
339.655383
339.616575
328.305545
322.555515
338.61315
339.973368
327.397599
324.384072
338.708159
339.97037
327.109122
326.383248
338.997846
329.353235
323.766542
338.859384
340.030972
329.078518
324.90987
339.015353
339.822462
329.152199
323.591501
324.842737
338.956164
340.003864
333.002344
325.348893
324.495728
339.057452
339.707967
329.113845
322.754937
325.526212
321.220413
323.002227
339.023863
339.919316
339.624198
340.108746
340.021902
326.827634
319.288882
320.935299
339.073735
340.05801
325.711726
323.250001
338.677223
339.952797
326.065742
325.489634
339.034687
329.441033
323.233922
338.761707
339.962986
326.868785
323.931295
338.852823
339.904178
325.297474
324.46189
339.003478
339.928071
339.950001
329.063178
321.480493
323.44944
339.496119
339.933703
327.379633
322.217871
322.825319
339.441597
340.102826
327.391997
324.999697
339.094578
340.0836
328.805843
326.672285
339.226592
339.959008
329.17853
326.122003
325.331631
325.316808
339.18427
339.953927
324.230653
323.391688
339.16627
339.871919
339.836841
325.101123
321.108814
338.884063
339.928956
326.28768
324.436037
339.006111
339.701363
325.922456
325.606134
339.209516
339.644724
339.833614
327.750569
322.199844
322.932145
322.619669
338.75225
339.886735
324.521457
323.061197
338.831644
339.684779
323.901497
324.096244
339.331464
339.630977
339.663113
327.439621
318.878586
322.892227
339.18515
339.773503
324.213806
322.791626
338.806327
339.8056
339.458195
339.891896
325.751356
322.267805
323.285944
324.383122
323.115238
325.678783
339.605429
339.857857
339.884129
339.981593
327.538596
324.993447
323.694518
324.005812
339.914888
339.912145
340.209389
325.595532
324.585068
339.520629
340.047266
340.087962
329.166583
321.863691
324.758726
339.737011
339.919695
324.821163
320.667666
322.289179
339.572311
340.042824
322.661966
322.823686
339.796088
340.068784
340.044148
327.738657
320.210306
327.638311
339.961731
340.135819
340.1956
326.566444
326.790248
340.093019
329.145446
324.252948
339.887742
340.237024
328.805743
325.237708
326.136131
325.699714
340.113039
340.06195
329.447076
325.544069
325.150819
325.874316
323.652105
326.186942
340.212882
340.059
340.276516
327.403592
326.798982
340.011811
340.14946
340.205739
329.174959
322.885363
324.796506
340.140369
340.071717
325.538752
321.821007
323.562583
339.772797
340.15032
324.6314
324.959114
339.822222
339.96707
339.884654
329.239749
321.698121
325.610835
319.630391
322.486785
339.542256
339.899628
339.639481
339.911517
339.718687
324.320304
318.818726
322.177863
339.456594
339.868149
323.486729
324.119288
339.643155
339.695432
339.706792
328.337962
321.703667
325.436326
320.420284
322.723758
339.577585
339.726742
339.651365
322.570227
320.872536
339.698747
339.629341
339.761219
339.677118
322.240918
321.328239
339.74238
339.638301
339.815618
339.670379
324.176355
321.111378
322.895126
320.975618
321.916777
339.620726
339.986803
324.741308
325.091142
339.902432
339.95912
339.995033
329.123982
322.005658
326.104484
320.884215
323.590168
340.128815
340.073687
340.206541
325.492215
324.843981
340.172971
340.144842
340.277676
326.330417
320.198425
323.305804
340.128238
340.37264
323.183892
323.957742
340.322065
340.362181
340.420171
328.161059
319.55508
323.325208
317.464624
318.414168
340.739054
340.950405
341.066291
341.213007
341.445467
341.525069
320.791283
312.01142
317.291909
342.321894
343.031816
342.882505
318.347857
316.302289
344.209649
343.81409
344.274702
343.542778
321.146375
342.86937
343.798688
317.352941
317.365037
342.55434
342.232531
342.070396
315.648394
314.246564
341.001045
340.709945
340.551888
340.490036
340.243305
340.31735
340.077325
340.256218
340.103318
340.38981
340.408001
340.876257
341.207739
342.113562
343.116278
345.490293
348.950503
347.874639
345.902871
343.842763
341.975561
340.407832
338.800253
337.699877
336.498616
335.783661
334.014289
332.934245
332.192983
332.980715
331.36938
330.354069
329.40405
328.64632
328.35455
327.902271
327.114301
324.492304
322.452043
319.856283
317.688954
315.360535
312.752933
321.720837
341.046026
337.489136
333.224021
328.78881
324.913696
319.935707
315.998695
310.498391
306.019666
300
300
300
300
300
300
300
300
300
302.01625
308.37427
323.16306
343.514033
355.348813
382.784093
411.950111
437.886726
460.081293
489.396625
508.293062
532.946346
550.81846
579.001728
599.454466
632.507533
655.549628
692.539896
716.508718
755.188676
778.84862
817.82576
839.977126
877.372595
897.490166
932.928988
950.8775
983.841833
1000.29929
1032.12181
1046.03733
1074.7097
1085.97744
1111.76372
1120.80981
1144.10988
1151.35759
1173.99369
1180.26833
1200.95291
1206.78552
1225.47551
1230.1669
1246.39409
1252.1552
1267.93505
1268.85251
1282.74877
1288.45148
1303.3638
1308.78664
1321.04702
1320.83114
1342.43068
1342.86841
1355.5784
1352.63148
1366.49363
1372.84497
1383.2675
1363.23322
1379.96534
1385.02984
1394.02363
1384.54057
1394.44471
1400.46513
1407.73091
1400.07467
1407.90839
1414.39466
1418.98443
1411.91846
1418.86839
1425.33819
1428.91694
1421.01335
1427.51598
1433.86557
1436.61658
1428.51847
1434.21581
1440.95912
1442.63612
1434.86555
1439.54083
1446.61947
1447.647
)
;

boundaryField
{
    closed
    {
        type            fixedValue;
        value           nonuniform List<scalar> 0();
    }
    open
    {
        type            zeroGradient;
    }
    sides
    {
        type            empty;
    }
    procBoundary4to3
    {
        type            processor;
        value           uniform 338.839537;
    }
    procBoundary4to5
    {
        type            processor;
        value           uniform 1440.58505;
    }
}


// ************************************************************************* //
