/*--------------------------------*- C++ -*----------------------------------*\
| =========                 |                                                 |
| \\      /  F ield         | OpenFOAM: The Open Source CFD Toolbox           |
|  \\    /   O peration     | Version:  2306                                  |
|   \\  /    A nd           | Website:  www.openfoam.com                      |
|    \\/     M anipulation  |                                                 |
\*---------------------------------------------------------------------------*/
FoamFile
{
    version     2.0;
    format      ascii;
    arch        "LSB;label=32;scalar=64";
    class       volScalarField;
    location    "0.00024";
    object      prefDh_H2;
}
// * * * * * * * * * * * * * * * * * * * * * * * * * * * * * * * * * * * * * //

dimensions      [1 1 -3 0 0 0 0];

internalField   nonuniform List<scalar> 
530
(
28.9017628
29.0027455
28.9474243
28.864545
28.8849228
28.9504656
28.9443282
28.898023
28.8984454
28.9249765
28.9279019
28.9140086
28.9100102
28.9165889
28.9203922
28.9174782
28.9144937
28.9156348
28.917711
28.9172496
28.9159922
28.9162244
28.9169509
28.9167349
28.9162835
28.9166275
28.9169354
28.9162922
28.9160805
28.9172442
28.9173853
28.9154648
28.9153449
28.9182398
28.918455
28.9144355
28.9139007
28.9190478
28.9202768
28.9142747
28.9119097
28.91811
28.9220853
28.9165587
28.9108481
28.9146005
28.9219257
28.9207273
28.9124741
28.9120053
28.917678
28.9207025
28.9188509
28.913636
28.9130405
28.9166172
28.9202709
28.9193578
28.9136805
28.9127666
28.9173618
28.92047
28.9179425
28.9133981
28.914011
28.9186985
28.9190003
28.9157563
28.9147565
28.9168544
28.9179756
28.9162762
28.9151669
28.9171552
28.9185614
28.9159153
28.9137319
28.9169597
28.9204829
28.917047
28.9116997
28.9146996
28.9223703
28.9205809
28.9103014
28.9106509
28.9223231
28.9239809
28.9129559
28.9083364
28.9172382
28.9251389
28.9193127
28.9087991
28.9107985
28.9231525
28.9230454
28.9130337
28.9107911
28.917459
28.9211159
28.9173805
28.9137241
28.9153329
28.9177912
28.9173542
28.9166792
28.9168014
28.9157984
28.9151012
28.9176257
28.9194401
28.9157664
28.9122888
28.9166808
28.922518
28.9179671
28.9090254
28.9126907
28.92578
28.9242234
28.9065204
28.9064306
28.9250624
28.9289572
28.9115184
28.9034541
28.9174213
28.9295293
28.919837
28.9056107
28.9106103
28.9250132
28.9235423
28.911
28.9110655
28.9194198
28.9201879
28.9152664
28.9144938
28.9176089
28.9180933
28.9153446
28.9148511
28.9177798
28.9189357
28.9161897
28.9137814
28.9155888
28.9193943
28.918902
28.9143178
28.9140327
28.9177035
28.9187227
28.9162541
28.9152584
28.9168917
28.9172161
28.9155237
28.9159649
28.9190884
28.9181839
28.9125106
28.9129608
28.921916
28.9222656
28.9116476
28.9090779
28.9197275
28.9255874
28.9166263
28.9071616
28.9122486
28.9256059
28.9245848
28.9104302
28.9074272
28.9171547
28.9257451
28.9225157
28.9085974
28.9077894
28.9199743
28.9267799
28.9185066
28.9063232
28.9096944
28.9266373
28.9262351
28.908914
28.9059218
28.9211278
28.9278881
28.9153316
28.9056972
28.9148091
28.92665
28.9207319
28.9082173
28.9111861
28.9232339
28.9222804
28.9115009
28.9116112
28.9204079
28.9210827
28.9135725
28.9119437
28.9188326
28.9220384
28.915763
28.9102562
28.9150935
28.9235553
28.9210824
28.9097106
28.9100982
28.9219538
28.9238636
28.9138656
28.9095366
28.9167845
28.9226885
28.9182058
28.9121676
28.9143641
28.9190693
28.9181495
28.9157845
28.9163896
28.9169713
28.9149912
28.9151303
28.9200513
28.9200033
28.9120944
28.910937
28.9208399
28.9244223
28.9139299
28.9072761
28.9166622
28.9268042
28.9195502
28.9066872
28.9107517
28.9255649
28.9243789
28.9096032
28.9092399
28.9204501
28.9226125
28.9153278
28.9126527
28.916404
28.9183326
28.9169124
28.9165302
28.9172345
28.9159616
28.9143979
28.9167096
28.9199753
28.9181585
28.9128388
28.9132685
28.9194489
28.9205533
28.9159285
28.9127904
28.9150059
28.919749
28.9193613
28.9145946
28.9137795
28.9172449
28.9191758
28.9168101
28.9142062
28.9158124
28.9188939
28.9178446
28.9142862
28.9148084
28.9188325
28.9187021
28.9147117
28.9144762
28.9178623
28.9184423
28.9158341
28.915176
28.9170709
28.9175891
28.9160768
28.9157773
28.9173048
28.9174451
28.9156868
28.9155763
28.9174686
28.9176732
28.9159605
28.9156327
28.9168402
28.9171898
28.9166589
28.9164463
28.9164367
28.9162021
28.9166033
28.9174472
28.916825
28.9153008
28.9160296
28.9183166
28.9175794
28.9143646
28.9149005
28.9193118
28.9191563
28.9136989
28.9132902
28.9189885
28.9203855
28.9151561
28.9128058
28.9169221
28.9198302
28.9170342
28.9143105
28.9159545
28.9178876
28.916867
28.9157674
28.9169405
28.9177168
28.9157218
28.9145124
28.9172166
28.9198644
28.9174497
28.9124376
28.913226
28.9207212
28.9216921
28.914727
28.9105163
28.915061
28.9228085
28.9214241
28.9112733
28.9106628
28.9192932
28.9226396
28.9164854
28.9111339
28.9146623
28.9211962
28.9200975
28.9128277
28.9128587
28.9185189
28.9202917
28.91679
28.9132314
28.9141677
28.9190529
28.9199877
28.9166471
28.9128413
28.9137331
28.9200709
28.921001
28.9148784
28.9112778
28.9159871
28.9223735
28.9196472
28.910937
28.9116078
28.9213223
28.9223853
28.9140714
28.9105563
28.916489
28.9224691
28.9194091
28.9114047
28.9119833
28.920226
28.9216158
28.915438
28.9117963
28.9153876
28.9206803
28.9196488
28.9137099
28.9133664
28.9169708
28.9190105
28.9185615
28.915949
28.9136355
28.9141991
28.9198106
28.9214492
28.9147444
28.9095576
28.9157671
28.9254355
28.9210318
28.9070559
28.9084173
28.9258119
28.926616
28.9103722
28.9061424
28.9192338
28.9265907
28.9174247
28.908174
28.9129953
28.9230031
28.9217446
28.9126774
28.9121728
28.9171561
28.9195508
28.9183935
28.9152574
28.9144844
28.9158549
28.9183706
28.9182151
28.9154902
28.9150477
28.9171131
28.9177664
28.9161356
28.9155816
28.9173337
28.9178642
28.9155421
28.9146484
28.9174881
28.9193304
28.9165536
28.9132507
28.9150837
28.9200973
28.919655
28.9136657
28.9127804
28.9179335
28.9208094
28.9170426
28.9122375
28.9143737
28.9209462
28.9203086
28.912537
28.9121636
28.9195686
28.9215258
28.915028
28.9114629
28.9164541
28.9215795
28.918549
28.9122534
28.9130571
28.9198261
28.9204394
28.9155631
28.9128496
28.9153678
28.9200724
28.9195222
28.9137056
28.9128506
28.9182248
28.9209115
28.9163368
28.9120201
28.9154752
28.9209942
28.9187446
28.9128866
28.9141834
28.9191834
28.9183912
28.9149295
28.9160012
28.9187149
28.9155911
28.9111734
28.9185028
28.9306286
28.9190419
28.886754
28.8941292
28.978017
28.9818562
28.841619
28.7927286
28.9876177
29.2149864
28.9425938
28.6230951
28.7094781
29.7109447
29.6527512
28.5639972
28.5666928
29.3615994
30.9693752
28.9419247
28.7135396
28.570145
31.4227012
30.840882
28.6245538
28.6309745
29.7745174
30.7245808
28.7310629
28.5651074
28.8635696
)
;

boundaryField
{
    closed
    {
        type            calculated;
        value           nonuniform List<scalar> 0();
    }
    open
    {
        type            calculated;
        value           nonuniform List<scalar> 0();
    }
    sides
    {
        type            empty;
    }
    procBoundary2to1
    {
        type            processor;
        value           uniform 28.8134207;
    }
    procBoundary2to3
    {
        type            processor;
        value           uniform 29.7764572;
    }
}


// ************************************************************************* //
