/*--------------------------------*- C++ -*----------------------------------*\
| =========                 |                                                 |
| \\      /  F ield         | OpenFOAM: The Open Source CFD Toolbox           |
|  \\    /   O peration     | Version:  2306                                  |
|   \\  /    A nd           | Website:  www.openfoam.com                      |
|    \\/     M anipulation  |                                                 |
\*---------------------------------------------------------------------------*/
FoamFile
{
    version     2.0;
    format      ascii;
    arch        "LSB;label=32;scalar=64";
    class       volScalarField;
    location    "0.00024";
    object      prefDPV_H2;
}
// * * * * * * * * * * * * * * * * * * * * * * * * * * * * * * * * * * * * * //

dimensions      [1 -1 -1 0 0 0 0];

internalField   nonuniform List<scalar> 
530
(
-3.09177689e-05
-3.09247865e-05
-3.09209575e-05
-3.09151473e-05
-3.09165859e-05
-3.0921168e-05
-3.09207417e-05
-3.09175062e-05
-3.09175359e-05
-3.0919393e-05
-3.09195972e-05
-3.09186266e-05
-3.09183468e-05
-3.09188071e-05
-3.0919073e-05
-3.09188693e-05
-3.09186606e-05
-3.09187404e-05
-3.09188856e-05
-3.09188533e-05
-3.09187654e-05
-3.09187817e-05
-3.09188325e-05
-3.09188173e-05
-3.09187858e-05
-3.09188098e-05
-3.09188314e-05
-3.09187864e-05
-3.09187716e-05
-3.0918853e-05
-3.09188628e-05
-3.09187285e-05
-3.09187201e-05
-3.09189226e-05
-3.09189376e-05
-3.09186565e-05
-3.09186191e-05
-3.0918979e-05
-3.09190649e-05
-3.09186453e-05
-3.09184798e-05
-3.09189135e-05
-3.09191913e-05
-3.0918805e-05
-3.09184055e-05
-3.09186681e-05
-3.09191801e-05
-3.09190964e-05
-3.09185193e-05
-3.09184865e-05
-3.09188833e-05
-3.09190947e-05
-3.09189653e-05
-3.09186006e-05
-3.09185589e-05
-3.09188091e-05
-3.09190645e-05
-3.09190007e-05
-3.09186037e-05
-3.09185398e-05
-3.09188612e-05
-3.09190784e-05
-3.09189018e-05
-3.0918584e-05
-3.09186268e-05
-3.09189546e-05
-3.09189757e-05
-3.09187489e-05
-3.0918679e-05
-3.09188257e-05
-3.09189041e-05
-3.09187853e-05
-3.09187077e-05
-3.09188467e-05
-3.0918945e-05
-3.091876e-05
-3.09186073e-05
-3.09188331e-05
-3.09190793e-05
-3.09188392e-05
-3.09184651e-05
-3.0918675e-05
-3.09192112e-05
-3.09190862e-05
-3.09183672e-05
-3.09183917e-05
-3.09192079e-05
-3.09193237e-05
-3.0918553e-05
-3.09182296e-05
-3.09188525e-05
-3.09194045e-05
-3.09189976e-05
-3.0918262e-05
-3.0918402e-05
-3.09192658e-05
-3.09192583e-05
-3.09185585e-05
-3.09184015e-05
-3.0918868e-05
-3.09191236e-05
-3.09188625e-05
-3.09186068e-05
-3.09187193e-05
-3.09188912e-05
-3.09188607e-05
-3.09188135e-05
-3.0918822e-05
-3.09187519e-05
-3.09187031e-05
-3.09188796e-05
-3.09190065e-05
-3.09187496e-05
-3.09185063e-05
-3.09188136e-05
-3.09192215e-05
-3.09189035e-05
-3.09182779e-05
-3.09185345e-05
-3.09194493e-05
-3.09193406e-05
-3.09181024e-05
-3.09180961e-05
-3.09193992e-05
-3.0919671e-05
-3.09184524e-05
-3.09178875e-05
-3.09188653e-05
-3.09197109e-05
-3.09190342e-05
-3.09180387e-05
-3.09183889e-05
-3.09193957e-05
-3.09192931e-05
-3.09184161e-05
-3.09184207e-05
-3.0919005e-05
-3.09190587e-05
-3.09187147e-05
-3.09186606e-05
-3.09188785e-05
-3.09189123e-05
-3.09187201e-05
-3.09186856e-05
-3.09188904e-05
-3.09189712e-05
-3.09187792e-05
-3.09186108e-05
-3.09187372e-05
-3.09190033e-05
-3.09189689e-05
-3.09186483e-05
-3.09186284e-05
-3.09188851e-05
-3.09189563e-05
-3.09187837e-05
-3.09187141e-05
-3.09188283e-05
-3.0918851e-05
-3.09187326e-05
-3.09187635e-05
-3.09189819e-05
-3.09189187e-05
-3.09185219e-05
-3.09185534e-05
-3.09191795e-05
-3.09192039e-05
-3.09184615e-05
-3.09182816e-05
-3.09190265e-05
-3.09194358e-05
-3.09188097e-05
-3.09181473e-05
-3.09185035e-05
-3.09194371e-05
-3.09193659e-05
-3.09183762e-05
-3.0918166e-05
-3.09188467e-05
-3.09194469e-05
-3.09192213e-05
-3.09182479e-05
-3.09181913e-05
-3.09190438e-05
-3.09195191e-05
-3.09189412e-05
-3.09180886e-05
-3.09183247e-05
-3.09195091e-05
-3.09194811e-05
-3.09182701e-05
-3.09180605e-05
-3.09191244e-05
-3.09195964e-05
-3.09187192e-05
-3.09180447e-05
-3.09186827e-05
-3.091951e-05
-3.09190967e-05
-3.09182213e-05
-3.09184292e-05
-3.09192715e-05
-3.09192049e-05
-3.09184512e-05
-3.09184589e-05
-3.09190741e-05
-3.09191212e-05
-3.09185962e-05
-3.09184822e-05
-3.0918964e-05
-3.0919188e-05
-3.09187494e-05
-3.09183641e-05
-3.09187026e-05
-3.0919294e-05
-3.09191212e-05
-3.09183259e-05
-3.0918353e-05
-3.09191821e-05
-3.09193155e-05
-3.09186167e-05
-3.09183137e-05
-3.09188208e-05
-3.09192334e-05
-3.09189202e-05
-3.09184979e-05
-3.09186515e-05
-3.09189805e-05
-3.09189162e-05
-3.09187509e-05
-3.09187932e-05
-3.09188339e-05
-3.09186954e-05
-3.09187051e-05
-3.09190492e-05
-3.09190458e-05
-3.09184927e-05
-3.09184117e-05
-3.09191043e-05
-3.09193545e-05
-3.09186212e-05
-3.09181554e-05
-3.09188123e-05
-3.09195208e-05
-3.09190142e-05
-3.09181141e-05
-3.09183988e-05
-3.09194343e-05
-3.09193515e-05
-3.09183183e-05
-3.09182929e-05
-3.0919077e-05
-3.09192281e-05
-3.09187189e-05
-3.09185318e-05
-3.09187942e-05
-3.0918929e-05
-3.09188298e-05
-3.0918803e-05
-3.09188523e-05
-3.09187633e-05
-3.09186539e-05
-3.09188156e-05
-3.09190439e-05
-3.09189169e-05
-3.09185448e-05
-3.09185749e-05
-3.09190071e-05
-3.09190843e-05
-3.0918761e-05
-3.09185414e-05
-3.09186964e-05
-3.0919028e-05
-3.0919001e-05
-3.09186677e-05
-3.09186106e-05
-3.0918853e-05
-3.0918988e-05
-3.09188226e-05
-3.09186405e-05
-3.09187528e-05
-3.09189683e-05
-3.09188949e-05
-3.09186461e-05
-3.09186826e-05
-3.0918964e-05
-3.09189549e-05
-3.09186759e-05
-3.09186594e-05
-3.09188962e-05
-3.09189367e-05
-3.09187544e-05
-3.09187083e-05
-3.09188408e-05
-3.09188771e-05
-3.09187713e-05
-3.09187504e-05
-3.09188572e-05
-3.0918867e-05
-3.09187441e-05
-3.09187363e-05
-3.09188686e-05
-3.0918883e-05
-3.09187632e-05
-3.09187403e-05
-3.09188247e-05
-3.09188492e-05
-3.0918812e-05
-3.09187972e-05
-3.09187965e-05
-3.09187801e-05
-3.09188082e-05
-3.09188672e-05
-3.09188237e-05
-3.09187171e-05
-3.0918768e-05
-3.09189279e-05
-3.09188764e-05
-3.09186516e-05
-3.09186891e-05
-3.09189975e-05
-3.09189866e-05
-3.0918605e-05
-3.09185764e-05
-3.09189749e-05
-3.09190725e-05
-3.09187069e-05
-3.09185425e-05
-3.09188304e-05
-3.09190337e-05
-3.09188383e-05
-3.09186478e-05
-3.09187628e-05
-3.09188979e-05
-3.09188266e-05
-3.09187497e-05
-3.09188317e-05
-3.0918886e-05
-3.09187465e-05
-3.09186619e-05
-3.0918851e-05
-3.09190361e-05
-3.09188673e-05
-3.09185167e-05
-3.09185719e-05
-3.0919096e-05
-3.09191638e-05
-3.09186769e-05
-3.09183823e-05
-3.09187003e-05
-3.09192418e-05
-3.09191451e-05
-3.09184353e-05
-3.09183925e-05
-3.09189962e-05
-3.091923e-05
-3.09187999e-05
-3.09184255e-05
-3.09186724e-05
-3.09191292e-05
-3.09190524e-05
-3.0918544e-05
-3.09185462e-05
-3.09189421e-05
-3.0919066e-05
-3.09188212e-05
-3.09185723e-05
-3.09186378e-05
-3.09189794e-05
-3.09190447e-05
-3.09188112e-05
-3.0918545e-05
-3.09186074e-05
-3.09190505e-05
-3.09191155e-05
-3.09186875e-05
-3.09184356e-05
-3.09187651e-05
-3.09192114e-05
-3.09190209e-05
-3.09184117e-05
-3.09184587e-05
-3.0919138e-05
-3.09192122e-05
-3.09186311e-05
-3.09183851e-05
-3.09188001e-05
-3.09192181e-05
-3.09190043e-05
-3.09184445e-05
-3.0918485e-05
-3.09190614e-05
-3.09191585e-05
-3.09187267e-05
-3.09184719e-05
-3.09187231e-05
-3.09190931e-05
-3.0919021e-05
-3.09186058e-05
-3.09185817e-05
-3.09188338e-05
-3.09189764e-05
-3.0918945e-05
-3.09187624e-05
-3.09186006e-05
-3.091864e-05
-3.09190323e-05
-3.09191468e-05
-3.09186781e-05
-3.09183151e-05
-3.09187497e-05
-3.09194252e-05
-3.09191177e-05
-3.091814e-05
-3.09182353e-05
-3.09194515e-05
-3.09195077e-05
-3.09183722e-05
-3.09180759e-05
-3.0918992e-05
-3.09195059e-05
-3.09188656e-05
-3.09182183e-05
-3.09185558e-05
-3.09192554e-05
-3.09191675e-05
-3.09185335e-05
-3.09184982e-05
-3.09188468e-05
-3.09190142e-05
-3.09189333e-05
-3.0918714e-05
-3.091866e-05
-3.09187558e-05
-3.09189317e-05
-3.09189208e-05
-3.09187303e-05
-3.09186994e-05
-3.09188438e-05
-3.09188895e-05
-3.09187754e-05
-3.09187367e-05
-3.09188592e-05
-3.09188963e-05
-3.09187339e-05
-3.09186714e-05
-3.091887e-05
-3.09189988e-05
-3.09188047e-05
-3.09185736e-05
-3.09187019e-05
-3.09190524e-05
-3.09190215e-05
-3.09186027e-05
-3.09185407e-05
-3.09189012e-05
-3.09191021e-05
-3.09188389e-05
-3.09185027e-05
-3.09186522e-05
-3.09191117e-05
-3.09190672e-05
-3.09185237e-05
-3.09184976e-05
-3.09190154e-05
-3.09191522e-05
-3.0918698e-05
-3.09184485e-05
-3.09187977e-05
-3.0919156e-05
-3.09189442e-05
-3.09185039e-05
-3.09185601e-05
-3.09190334e-05
-3.09190763e-05
-3.09187354e-05
-3.09185456e-05
-3.09187217e-05
-3.09190506e-05
-3.09190122e-05
-3.09186055e-05
-3.09185456e-05
-3.09189215e-05
-3.09191093e-05
-3.09187895e-05
-3.09184875e-05
-3.09187293e-05
-3.09191151e-05
-3.09189579e-05
-3.09185482e-05
-3.09186389e-05
-3.09189885e-05
-3.09189331e-05
-3.09186911e-05
-3.0918766e-05
-3.09189557e-05
-3.09187372e-05
-3.09184279e-05
-3.09189404e-05
-3.09197867e-05
-3.09189769e-05
-3.09167125e-05
-3.09172282e-05
-3.09230758e-05
-3.09233341e-05
-3.09135141e-05
-3.09099928e-05
-3.09237233e-05
-3.09392208e-05
-3.09205648e-05
-3.08971352e-05
-3.09037853e-05
-3.097223e-05
-3.09683215e-05
-3.08920636e-05
-3.08894892e-05
-3.09490521e-05
-3.10536891e-05
-3.09204436e-05
-3.08946113e-05
-3.08925282e-05
-3.10826891e-05
-3.10455335e-05
-3.08907547e-05
-3.08909776e-05
-3.09763043e-05
-3.10379712e-05
-3.09053651e-05
-3.08894787e-05
-3.09150529e-05
)
;

boundaryField
{
    closed
    {
        type            calculated;
        value           nonuniform List<scalar> 0();
    }
    open
    {
        type            calculated;
        value           nonuniform List<scalar> 0();
    }
    sides
    {
        type            empty;
    }
    procBoundary2to1
    {
        type            processor;
        value           uniform -3.091151e-05;
    }
    procBoundary2to3
    {
        type            processor;
        value           uniform -3.09764581e-05;
    }
}


// ************************************************************************* //
