/*--------------------------------*- C++ -*----------------------------------*\
| =========                 |                                                 |
| \\      /  F ield         | OpenFOAM: The Open Source CFD Toolbox           |
|  \\    /   O peration     | Version:  2306                                  |
|   \\  /    A nd           | Website:  www.openfoam.com                      |
|    \\/     M anipulation  |                                                 |
\*---------------------------------------------------------------------------*/
FoamFile
{
    version     2.0;
    format      ascii;
    arch        "LSB;label=32;scalar=64";
    class       volScalarField;
    location    "0.00024";
    object      prefDZ_T;
}
// * * * * * * * * * * * * * * * * * * * * * * * * * * * * * * * * * * * * * //

dimensions      [1 -1 -1 -1 0 0 0];

internalField   nonuniform List<scalar> 
530
(
-1.20390621e-09
-1.20473269e-09
-1.20429088e-09
-1.20357665e-09
-1.20375935e-09
-1.20431525e-09
-1.2042651e-09
-1.20387363e-09
-1.20387734e-09
-1.204104e-09
-1.20412856e-09
-1.20401123e-09
-1.20397708e-09
-1.20403319e-09
-1.20406541e-09
-1.20404075e-09
-1.20401538e-09
-1.20402509e-09
-1.20404272e-09
-1.20403881e-09
-1.20402813e-09
-1.2040301e-09
-1.20403627e-09
-1.20403444e-09
-1.2040306e-09
-1.20403353e-09
-1.20403614e-09
-1.20403068e-09
-1.20402888e-09
-1.20403876e-09
-1.20403996e-09
-1.20402365e-09
-1.20402263e-09
-1.2040472e-09
-1.20404903e-09
-1.20401489e-09
-1.20401034e-09
-1.20405405e-09
-1.20406445e-09
-1.20401352e-09
-1.20399336e-09
-1.2040461e-09
-1.20407973e-09
-1.20403294e-09
-1.2039843e-09
-1.2040163e-09
-1.20407839e-09
-1.20406826e-09
-1.20399818e-09
-1.20399418e-09
-1.20404244e-09
-1.20406805e-09
-1.20405238e-09
-1.20400808e-09
-1.20400301e-09
-1.20403344e-09
-1.2040644e-09
-1.20405668e-09
-1.20400846e-09
-1.20400067e-09
-1.20403976e-09
-1.20406609e-09
-1.20404468e-09
-1.20400606e-09
-1.20401128e-09
-1.20405109e-09
-1.20405365e-09
-1.20402612e-09
-1.20401762e-09
-1.20403545e-09
-1.20404496e-09
-1.20403054e-09
-1.20402111e-09
-1.20403801e-09
-1.20404993e-09
-1.20402748e-09
-1.2040089e-09
-1.20403635e-09
-1.20406619e-09
-1.20403709e-09
-1.20399157e-09
-1.20401714e-09
-1.20408214e-09
-1.20406702e-09
-1.20397962e-09
-1.20398261e-09
-1.20408174e-09
-1.20409572e-09
-1.20400228e-09
-1.2039628e-09
-1.20403871e-09
-1.20410547e-09
-1.20405629e-09
-1.20396677e-09
-1.20398388e-09
-1.20408873e-09
-1.20408783e-09
-1.20400295e-09
-1.20398381e-09
-1.20404058e-09
-1.20407154e-09
-1.20403992e-09
-1.20400883e-09
-1.20402253e-09
-1.2040434e-09
-1.20403969e-09
-1.20403396e-09
-1.204035e-09
-1.20402648e-09
-1.20402055e-09
-1.204042e-09
-1.20405737e-09
-1.20402621e-09
-1.20399659e-09
-1.20403398e-09
-1.20408338e-09
-1.20404489e-09
-1.2039687e-09
-1.20400002e-09
-1.20411086e-09
-1.20409776e-09
-1.20394723e-09
-1.20394645e-09
-1.20410482e-09
-1.20413753e-09
-1.20399002e-09
-1.20392085e-09
-1.20404026e-09
-1.20414232e-09
-1.20406073e-09
-1.2039394e-09
-1.20398227e-09
-1.2041044e-09
-1.20409202e-09
-1.20398559e-09
-1.20398615e-09
-1.20405719e-09
-1.20406369e-09
-1.20402196e-09
-1.20401538e-09
-1.20404185e-09
-1.20404596e-09
-1.20402263e-09
-1.20401843e-09
-1.2040433e-09
-1.2040531e-09
-1.20402981e-09
-1.20400932e-09
-1.2040247e-09
-1.20405699e-09
-1.20405282e-09
-1.20401389e-09
-1.20401146e-09
-1.20404266e-09
-1.2040513e-09
-1.20403035e-09
-1.20402189e-09
-1.20403577e-09
-1.20403852e-09
-1.20402415e-09
-1.2040279e-09
-1.20405439e-09
-1.20404673e-09
-1.20399849e-09
-1.20400232e-09
-1.20407831e-09
-1.20408125e-09
-1.20399112e-09
-1.20396915e-09
-1.2040598e-09
-1.20410924e-09
-1.20403351e-09
-1.20395273e-09
-1.20399625e-09
-1.2041094e-09
-1.20410081e-09
-1.20398072e-09
-1.20395501e-09
-1.20403799e-09
-1.20411056e-09
-1.20408336e-09
-1.20396504e-09
-1.20395811e-09
-1.20406188e-09
-1.20411926e-09
-1.20404946e-09
-1.20394553e-09
-1.20397443e-09
-1.20411806e-09
-1.20411468e-09
-1.20396774e-09
-1.20394208e-09
-1.20407164e-09
-1.20412856e-09
-1.20402251e-09
-1.20394015e-09
-1.20401807e-09
-1.20411817e-09
-1.2040683e-09
-1.20396178e-09
-1.20398718e-09
-1.20408942e-09
-1.20408138e-09
-1.20398987e-09
-1.20399081e-09
-1.20406556e-09
-1.20407126e-09
-1.20400754e-09
-1.20399365e-09
-1.20405223e-09
-1.20407933e-09
-1.20402618e-09
-1.20397923e-09
-1.20402049e-09
-1.20409213e-09
-1.20407126e-09
-1.20397457e-09
-1.20397789e-09
-1.20407862e-09
-1.20409473e-09
-1.20401004e-09
-1.20397308e-09
-1.20403486e-09
-1.20408482e-09
-1.20404692e-09
-1.20399556e-09
-1.20401428e-09
-1.20405423e-09
-1.20404644e-09
-1.20402636e-09
-1.2040315e-09
-1.20403644e-09
-1.20401962e-09
-1.2040208e-09
-1.20406254e-09
-1.20406213e-09
-1.20399494e-09
-1.20398505e-09
-1.20406921e-09
-1.20409943e-09
-1.20401059e-09
-1.20395371e-09
-1.20403382e-09
-1.20411947e-09
-1.2040583e-09
-1.20394866e-09
-1.20398348e-09
-1.20410905e-09
-1.20409907e-09
-1.20397364e-09
-1.20397054e-09
-1.20406591e-09
-1.20408418e-09
-1.20402248e-09
-1.2039997e-09
-1.20403163e-09
-1.20404799e-09
-1.20403594e-09
-1.2040327e-09
-1.20403868e-09
-1.20402787e-09
-1.20401457e-09
-1.20403422e-09
-1.2040619e-09
-1.20404651e-09
-1.20400129e-09
-1.20400495e-09
-1.20405745e-09
-1.20406679e-09
-1.20402759e-09
-1.20400088e-09
-1.20401974e-09
-1.20405999e-09
-1.20405671e-09
-1.20401624e-09
-1.2040093e-09
-1.20403877e-09
-1.20405513e-09
-1.20403508e-09
-1.20401294e-09
-1.2040266e-09
-1.20405275e-09
-1.20404385e-09
-1.20401362e-09
-1.20401806e-09
-1.20405223e-09
-1.20405112e-09
-1.20401724e-09
-1.20401524e-09
-1.204044e-09
-1.20404892e-09
-1.20402679e-09
-1.20402119e-09
-1.20403729e-09
-1.20404169e-09
-1.20402885e-09
-1.2040263e-09
-1.20403928e-09
-1.20404047e-09
-1.20402553e-09
-1.2040246e-09
-1.20404067e-09
-1.2040424e-09
-1.20402786e-09
-1.20402507e-09
-1.20403533e-09
-1.2040383e-09
-1.20403379e-09
-1.20403199e-09
-1.20403191e-09
-1.20402991e-09
-1.20403332e-09
-1.20404048e-09
-1.2040352e-09
-1.20402225e-09
-1.20402845e-09
-1.20404786e-09
-1.2040416e-09
-1.20401429e-09
-1.20401885e-09
-1.20405629e-09
-1.20405497e-09
-1.20400862e-09
-1.20400514e-09
-1.20405355e-09
-1.20406537e-09
-1.20402102e-09
-1.20400101e-09
-1.20403603e-09
-1.20406067e-09
-1.20403698e-09
-1.20401383e-09
-1.20402781e-09
-1.20404422e-09
-1.20403556e-09
-1.20402622e-09
-1.20403618e-09
-1.20404277e-09
-1.20402583e-09
-1.20401554e-09
-1.20403853e-09
-1.20406096e-09
-1.2040405e-09
-1.20399787e-09
-1.20400459e-09
-1.20406821e-09
-1.20407641e-09
-1.20401737e-09
-1.20398146e-09
-1.20402021e-09
-1.20408584e-09
-1.20407415e-09
-1.20398793e-09
-1.20398271e-09
-1.20405613e-09
-1.20408441e-09
-1.20403232e-09
-1.20398674e-09
-1.20401682e-09
-1.20407222e-09
-1.20406294e-09
-1.20400119e-09
-1.20400146e-09
-1.20404957e-09
-1.20406458e-09
-1.2040349e-09
-1.20400463e-09
-1.20401261e-09
-1.20405409e-09
-1.20406201e-09
-1.20403369e-09
-1.20400131e-09
-1.20400891e-09
-1.20406271e-09
-1.20407057e-09
-1.20401866e-09
-1.20398797e-09
-1.20402808e-09
-1.20408217e-09
-1.20405913e-09
-1.20398506e-09
-1.20399078e-09
-1.20407329e-09
-1.20408226e-09
-1.20401179e-09
-1.2039818e-09
-1.20403235e-09
-1.20408297e-09
-1.20405711e-09
-1.20398905e-09
-1.20399399e-09
-1.20406402e-09
-1.20407577e-09
-1.20402342e-09
-1.20399239e-09
-1.20402299e-09
-1.20406786e-09
-1.20405914e-09
-1.20400871e-09
-1.20400579e-09
-1.20403644e-09
-1.20405373e-09
-1.20404993e-09
-1.20402776e-09
-1.20400808e-09
-1.20401287e-09
-1.20406051e-09
-1.20407436e-09
-1.20401752e-09
-1.20397326e-09
-1.20402621e-09
-1.20410796e-09
-1.20407083e-09
-1.20395182e-09
-1.2039635e-09
-1.20411113e-09
-1.20411789e-09
-1.20398022e-09
-1.20394398e-09
-1.20405562e-09
-1.20411767e-09
-1.20404029e-09
-1.20396141e-09
-1.20400262e-09
-1.20408747e-09
-1.20407686e-09
-1.20399991e-09
-1.20399561e-09
-1.20403801e-09
-1.20405831e-09
-1.20404851e-09
-1.20402188e-09
-1.20401531e-09
-1.20402696e-09
-1.20404831e-09
-1.204047e-09
-1.20402386e-09
-1.2040201e-09
-1.20403765e-09
-1.20404319e-09
-1.20402935e-09
-1.20402464e-09
-1.20403952e-09
-1.20404402e-09
-1.2040243e-09
-1.2040167e-09
-1.20404083e-09
-1.20405644e-09
-1.2040329e-09
-1.2040048e-09
-1.20402041e-09
-1.20406293e-09
-1.20405919e-09
-1.20400834e-09
-1.20400079e-09
-1.20404461e-09
-1.20406895e-09
-1.20403705e-09
-1.20399616e-09
-1.20401436e-09
-1.20407011e-09
-1.20406472e-09
-1.20399871e-09
-1.20399553e-09
-1.20405846e-09
-1.20407501e-09
-1.20401993e-09
-1.20398955e-09
-1.20403205e-09
-1.20407546e-09
-1.20404983e-09
-1.20399629e-09
-1.20400315e-09
-1.20406064e-09
-1.20406583e-09
-1.20402448e-09
-1.20400138e-09
-1.20402282e-09
-1.20406272e-09
-1.20405807e-09
-1.20400867e-09
-1.20400139e-09
-1.20404708e-09
-1.20406982e-09
-1.20403106e-09
-1.2039943e-09
-1.20402374e-09
-1.20407052e-09
-1.20405148e-09
-1.20400169e-09
-1.20401274e-09
-1.20405519e-09
-1.20404848e-09
-1.20401907e-09
-1.20402817e-09
-1.20405116e-09
-1.2040246e-09
-1.20398686e-09
-1.20404909e-09
-1.20415096e-09
-1.20405296e-09
-1.20377408e-09
-1.20383701e-09
-1.20453618e-09
-1.2045625e-09
-1.20336126e-09
-1.2028745e-09
-1.20460286e-09
-1.20624825e-09
-1.20421758e-09
-1.20072149e-09
-1.20189772e-09
-1.20925267e-09
-1.20889367e-09
-1.19953996e-09
-1.19759589e-09
-1.20719364e-09
-1.21524749e-09
-1.20416777e-09
-1.19514285e-09
-1.19962087e-09
-1.21713859e-09
-1.21471607e-09
-1.19608247e-09
-1.19597348e-09
-1.20955262e-09
-1.21417944e-09
-1.20213424e-09
-1.19765406e-09
-1.20355239e-09
)
;

boundaryField
{
    closed
    {
        type            calculated;
        value           nonuniform List<scalar> 0();
    }
    open
    {
        type            calculated;
        value           nonuniform List<scalar> 0();
    }
    sides
    {
        type            empty;
    }
    procBoundary2to1
    {
        type            processor;
        value           uniform -1.20309776e-09;
    }
    procBoundary2to3
    {
        type            processor;
        value           uniform -1.20957506e-09;
    }
}


// ************************************************************************* //
