/*--------------------------------*- C++ -*----------------------------------*\
| =========                 |                                                 |
| \\      /  F ield         | OpenFOAM: The Open Source CFD Toolbox           |
|  \\    /   O peration     | Version:  2306                                  |
|   \\  /    A nd           | Website:  www.openfoam.com                      |
|    \\/     M anipulation  |                                                 |
\*---------------------------------------------------------------------------*/
FoamFile
{
    version     2.0;
    format      ascii;
    arch        "LSB;label=32;scalar=64";
    class       volScalarField;
    location    "0.00058";
    object      prefDZ_T;
}
// * * * * * * * * * * * * * * * * * * * * * * * * * * * * * * * * * * * * * //

dimensions      [1 -1 -1 -1 0 0 0];

internalField   nonuniform List<scalar> 
530
(
-1.22425273e-09
-1.18942577e-09
-1.19309838e-09
-1.23215382e-09
-1.21297859e-09
-1.18975589e-09
-1.20473692e-09
-1.23193791e-09
-1.19909599e-09
-1.1905548e-09
-1.2181549e-09
-1.22778981e-09
-1.22377558e-09
-1.18969408e-09
-1.18759762e-09
-1.19539244e-09
-1.23130226e-09
-1.22963002e-09
-1.19373689e-09
-1.18745899e-09
-1.19870802e-09
-1.23290702e-09
-1.19790815e-09
-1.19077863e-09
-1.22250119e-09
-1.22866723e-09
-1.206617e-09
-1.18948676e-09
-1.19067897e-09
-1.23148323e-09
-1.22653198e-09
-1.22659925e-09
-1.19297797e-09
-1.1871472e-09
-1.18637428e-09
-1.20981957e-09
-1.22997603e-09
-1.21734156e-09
-1.18870815e-09
-1.18729456e-09
-1.21305936e-09
-1.23131764e-09
-1.19579783e-09
-1.19049346e-09
-1.22209382e-09
-1.23100002e-09
-1.19555678e-09
-1.1904147e-09
-1.22057543e-09
-1.22818584e-09
-1.21729337e-09
-1.18901311e-09
-1.18783198e-09
-1.21197049e-09
-1.22916992e-09
-1.22226823e-09
-1.18947183e-09
-1.18829803e-09
-1.21601008e-09
-1.229064e-09
-1.21525812e-09
-1.18865925e-09
-1.18768393e-09
-1.21658194e-09
-1.22908094e-09
-1.2149611e-09
-1.18853693e-09
-1.18757744e-09
-1.21860158e-09
-1.23064325e-09
-1.19388928e-09
-1.18979663e-09
-1.22348663e-09
-1.23116228e-09
-1.19278133e-09
-1.19013174e-09
-1.22532022e-09
-1.23128604e-09
-1.19278648e-09
-1.18991733e-09
-1.22586744e-09
-1.22809859e-09
-1.21073405e-09
-1.18832464e-09
-1.18746947e-09
-1.22168984e-09
-1.22814288e-09
-1.21061728e-09
-1.18933343e-09
-1.19484778e-09
-1.21499554e-09
-1.19539295e-09
-1.19073466e-09
-1.22525223e-09
-1.22788301e-09
-1.21084862e-09
-1.18798986e-09
-1.18771962e-09
-1.22568584e-09
-1.2318399e-09
-1.19132907e-09
-1.19081137e-09
-1.23131106e-09
-1.23333685e-09
-1.19160347e-09
-1.19030445e-09
-1.22984472e-09
-1.22741594e-09
-1.21167118e-09
-1.18912579e-09
-1.18834714e-09
-1.22551243e-09
-1.22778696e-09
-1.21306664e-09
-1.19014299e-09
-1.18783774e-09
-1.18802251e-09
-1.22955141e-09
-1.23375309e-09
-1.19101855e-09
-1.19065701e-09
-1.23110489e-09
-1.22789418e-09
-1.20657445e-09
-1.18815981e-09
-1.18812576e-09
-1.23096019e-09
-1.23316481e-09
-1.19090101e-09
-1.19136564e-09
-1.23319848e-09
-1.22821049e-09
-1.20350424e-09
-1.18779315e-09
-1.18775527e-09
-1.2274883e-09
-1.23405767e-09
-1.19057501e-09
-1.19076612e-09
-1.23205896e-09
-1.23140421e-09
-1.19027117e-09
-1.19081509e-09
-1.234004e-09
-1.227772e-09
-1.19035547e-09
-1.19284158e-09
-1.23354192e-09
-1.21950294e-09
-1.19025408e-09
-1.19733848e-09
-1.23160561e-09
-1.23047612e-09
-1.19656113e-09
-1.1878881e-09
-1.18757911e-09
-1.22704678e-09
-1.22923243e-09
-1.19046377e-09
-1.19054466e-09
-1.23278269e-09
-1.22781394e-09
-1.19011451e-09
-1.19076998e-09
-1.23293903e-09
-1.2255166e-09
-1.1901585e-09
-1.19233507e-09
-1.23374917e-09
-1.22002915e-09
-1.19019866e-09
-1.19632639e-09
-1.23275093e-09
-1.2139492e-09
-1.19074177e-09
-1.20203207e-09
-1.2305826e-09
-1.23116786e-09
-1.20018226e-09
-1.19031414e-09
-1.18798549e-09
-1.18971742e-09
-1.22970856e-09
-1.21693944e-09
-1.18995324e-09
-1.20005167e-09
-1.23196802e-09
-1.2121176e-09
-1.19007816e-09
-1.19926222e-09
-1.23175498e-09
-1.23105547e-09
-1.19409108e-09
-1.18797833e-09
-1.19000627e-09
-1.23073976e-09
-1.21706085e-09
-1.19045087e-09
-1.19867199e-09
-1.23191659e-09
-1.2303952e-09
-1.19500412e-09
-1.18795581e-09
-1.18960341e-09
-1.22962618e-09
-1.21777596e-09
-1.18986542e-09
-1.19779311e-09
-1.23243558e-09
-1.21389642e-09
-1.18988502e-09
-1.19837545e-09
-1.23224642e-09
-1.21423313e-09
-1.19033382e-09
-1.19734047e-09
-1.23237348e-09
-1.22975357e-09
-1.19665498e-09
-1.18768758e-09
-1.19189389e-09
-1.23338412e-09
-1.23008886e-09
-1.19492547e-09
-1.18741572e-09
-1.19231278e-09
-1.23372472e-09
-1.21636916e-09
-1.19065703e-09
-1.19612979e-09
-1.23272271e-09
-1.22830438e-09
-1.20026894e-09
-1.18869722e-09
-1.19277435e-09
-1.23312705e-09
-1.23124119e-09
-1.20507435e-09
-1.18922083e-09
-1.18696299e-09
-1.19134117e-09
-1.23407891e-09
-1.21773788e-09
-1.1902263e-09
-1.19482077e-09
-1.23268192e-09
-1.22915596e-09
-1.19810744e-09
-1.18767159e-09
-1.19183887e-09
-1.23369954e-09
-1.21812272e-09
-1.19008843e-09
-1.19607781e-09
-1.23170393e-09
-1.22962084e-09
-1.191731e-09
-1.19033004e-09
-1.21224465e-09
-1.22841788e-09
-1.22795264e-09
-1.19315082e-09
-1.1873266e-09
-1.19004559e-09
-1.23355864e-09
-1.23203239e-09
-1.20123212e-09
-1.18855171e-09
-1.18638799e-09
-1.18890702e-09
-1.23200103e-09
-1.22714208e-09
-1.21821041e-09
-1.1898478e-09
-1.1943683e-09
-1.23222658e-09
-1.22055515e-09
-1.19021962e-09
-1.1940488e-09
-1.23196028e-09
-1.22968793e-09
-1.19432582e-09
-1.18729862e-09
-1.1902773e-09
-1.23360387e-09
-1.22259554e-09
-1.19050632e-09
-1.19399564e-09
-1.2317523e-09
-1.22967033e-09
-1.19534963e-09
-1.18725906e-09
-1.19001613e-09
-1.23361994e-09
-1.22329292e-09
-1.18973984e-09
-1.19290173e-09
-1.23212972e-09
-1.22252735e-09
-1.18971165e-09
-1.19314388e-09
-1.23190633e-09
-1.22234447e-09
-1.18970972e-09
-1.19345919e-09
-1.23164241e-09
-1.22189728e-09
-1.18989561e-09
-1.19442981e-09
-1.23109443e-09
-1.22126984e-09
-1.19069018e-09
-1.19525574e-09
-1.23024337e-09
-1.22999541e-09
-1.19984751e-09
-1.188919e-09
-1.1870354e-09
-1.19013831e-09
-1.23277611e-09
-1.22231063e-09
-1.18973533e-09
-1.19265398e-09
-1.23112472e-09
-1.22847105e-09
-1.19641867e-09
-1.18761642e-09
-1.19074653e-09
-1.23229303e-09
-1.2251279e-09
-1.18978234e-09
-1.19332651e-09
-1.23105983e-09
-1.22368158e-09
-1.18948485e-09
-1.19292649e-09
-1.23103075e-09
-1.22312641e-09
-1.18942107e-09
-1.1934343e-09
-1.23074448e-09
-1.22247127e-09
-1.18993619e-09
-1.19412464e-09
-1.23000585e-09
-1.22909004e-09
-1.19216798e-09
-1.18697769e-09
-1.19036477e-09
-1.2317317e-09
-1.22542711e-09
-1.19004799e-09
-1.19396156e-09
-1.22969893e-09
-1.22897046e-09
-1.19269539e-09
-1.18710473e-09
-1.19057048e-09
-1.23131007e-09
-1.2266347e-09
-1.18997362e-09
-1.19365867e-09
-1.22941257e-09
-1.22857385e-09
-1.19297476e-09
-1.18730055e-09
-1.19093265e-09
-1.23073596e-09
-1.22770503e-09
-1.19034457e-09
-1.19364372e-09
-1.22907579e-09
-1.22710221e-09
-1.20271325e-09
-1.18930456e-09
-1.18797088e-09
-1.19099317e-09
-1.22983789e-09
-1.22816187e-09
-1.19398006e-09
-1.18721824e-09
-1.19080125e-09
-1.23050763e-09
-1.22980633e-09
-1.1892976e-09
-1.19279624e-09
-1.2293789e-09
-1.2261829e-09
-1.18945285e-09
-1.19272149e-09
-1.22873282e-09
-1.2278874e-09
-1.19361168e-09
-1.18767029e-09
-1.19116617e-09
-1.22955461e-09
-1.22786732e-09
-1.19449275e-09
-1.18757599e-09
-1.19089059e-09
-1.22949689e-09
-1.2273662e-09
-1.19611038e-09
-1.18791165e-09
-1.19136903e-09
-1.22919055e-09
-1.22752901e-09
-1.19516748e-09
-1.18771224e-09
-1.19091522e-09
-1.22918151e-09
-1.22782672e-09
-1.19391355e-09
-1.18719422e-09
-1.19062136e-09
-1.22979077e-09
-1.23342933e-09
-1.18960882e-09
-1.19161995e-09
-1.22838096e-09
-1.22802253e-09
-1.19272304e-09
-1.18699625e-09
-1.19040356e-09
-1.22996916e-09
-1.23344337e-09
-1.18957014e-09
-1.19143703e-09
-1.22852221e-09
-1.22801325e-09
-1.19317304e-09
-1.18721364e-09
-1.19054368e-09
-1.22998562e-09
-1.23315015e-09
-1.18978521e-09
-1.19157998e-09
-1.22860223e-09
-1.22800181e-09
-1.1932088e-09
-1.18710554e-09
-1.19035481e-09
-1.23023987e-09
-1.23364692e-09
-1.18960087e-09
-1.19134725e-09
-1.22885621e-09
-1.22806596e-09
-1.1931924e-09
-1.18714553e-09
-1.19042684e-09
-1.23037491e-09
-1.2338589e-09
-1.18969588e-09
-1.19141534e-09
-1.22904444e-09
-1.22829137e-09
-1.19313528e-09
-1.18695207e-09
-1.19017267e-09
-1.23083699e-09
-1.2337731e-09
-1.18922887e-09
-1.19110878e-09
-1.23009111e-09
-1.23060764e-09
-1.18926807e-09
-1.19128929e-09
-1.23010689e-09
-1.22981682e-09
-1.18963e-09
-1.19123158e-09
-1.22972543e-09
-1.2281838e-09
-1.19417887e-09
-1.18712461e-09
-1.19036185e-09
-1.23119083e-09
-1.23161886e-09
-1.18975292e-09
-1.19124009e-09
-1.2299293e-09
-1.22826308e-09
-1.19471078e-09
-1.18723121e-09
-1.19052063e-09
-1.23134737e-09
-1.2303345e-09
-1.18982446e-09
-1.19127822e-09
-1.23018231e-09
-1.22840111e-09
-1.19498108e-09
-1.18692894e-09
-1.19028579e-09
-1.23180614e-09
-1.22639076e-09
-1.1892882e-09
-1.19380435e-09
-1.23072189e-09
-1.21779057e-09
-1.18887952e-09
-1.19489801e-09
-1.23051575e-09
-1.21929643e-09
-1.18952849e-09
-1.19185746e-09
-1.23043205e-09
-1.22789621e-09
-1.19632984e-09
-1.18699283e-09
-1.19282089e-09
-1.23138123e-09
-1.21805239e-09
-1.18949934e-09
-1.19227562e-09
-1.23036705e-09
-1.22764062e-09
-1.19720587e-09
-1.18740566e-09
-1.18997411e-09
-1.23150008e-09
-1.22800832e-09
-1.19664072e-09
-1.18699906e-09
-1.19083712e-09
-1.23134498e-09
-1.22898367e-09
-1.18988107e-09
-1.19047211e-09
)
;

boundaryField
{
    closed
    {
        type            calculated;
        value           nonuniform List<scalar> 0();
    }
    open
    {
        type            calculated;
        value           nonuniform List<scalar> 0();
    }
    sides
    {
        type            empty;
    }
    procBoundary2to1
    {
        type            processor;
        value           uniform -1.23225786e-09;
    }
    procBoundary2to3
    {
        type            processor;
        value           uniform -1.23061729e-09;
    }
}


// ************************************************************************* //
