/*--------------------------------*- C++ -*----------------------------------*\
| =========                 |                                                 |
| \\      /  F ield         | OpenFOAM: The Open Source CFD Toolbox           |
|  \\    /   O peration     | Version:  2306                                  |
|   \\  /    A nd           | Website:  www.openfoam.com                      |
|    \\/     M anipulation  |                                                 |
\*---------------------------------------------------------------------------*/
FoamFile
{
    version     2.0;
    format      ascii;
    arch        "LSB;label=32;scalar=64";
    class       volScalarField;
    location    "0.00058";
    object      prefDh_T;
}
// * * * * * * * * * * * * * * * * * * * * * * * * * * * * * * * * * * * * * //

dimensions      [1 1 -3 -1 0 0 0];

internalField   nonuniform List<scalar> 
530
(
-0.000663276998
-0.00055093113
-0.000590961197
-0.000725703786
-0.000616271991
-0.000555736282
-0.000591377694
-0.00073291839
-0.000586477147
-0.00058425878
-0.000635887529
-0.000741657846
-0.000659810651
-0.000582531257
-0.000499055342
-0.00058451997
-0.000725791861
-0.000735537563
-0.000589041591
-0.000486208906
-0.000582635987
-0.000708246782
-0.000585355882
-0.00059006929
-0.000655239281
-0.000741725322
-0.000599199436
-0.000547693236
-0.000596614908
-0.000697781393
-0.000747838502
-0.000671959876
-0.000595679899
-0.000488397896
-0.000472290821
-0.000603084358
-0.000730539703
-0.000633350569
-0.000538529584
-0.000490956025
-0.000615671866
-0.000733130199
-0.000590546735
-0.000573817013
-0.000653125553
-0.000732983784
-0.000593955821
-0.000575407339
-0.000646394775
-0.000736694312
-0.000633319375
-0.000550108113
-0.000511494438
-0.000611265249
-0.000732757488
-0.000653189741
-0.000561140898
-0.000520302435
-0.000626636107
-0.000733648806
-0.000626040088
-0.000536253626
-0.000507155177
-0.000628943248
-0.000734030904
-0.000625075182
-0.000531659163
-0.000500158726
-0.00063771351
-0.000736981601
-0.000592863838
-0.000556619867
-0.00065968191
-0.000734273389
-0.000596338401
-0.000564961874
-0.000668376145
-0.000733352573
-0.000597166697
-0.000563125138
-0.000671474798
-0.000739158205
-0.00061169165
-0.000524303101
-0.000505394593
-0.000651591226
-0.000740459482
-0.000611147151
-0.000562476381
-0.000588830191
-0.000623643076
-0.00058993698
-0.000598496313
-0.000668798642
-0.000743141159
-0.000611874171
-0.000517529124
-0.000504178071
-0.000670526799
-0.000733291379
-0.000600517659
-0.000587327327
-0.000697901647
-0.000721265677
-0.00060231729
-0.00057598807
-0.000691171883
-0.000743800429
-0.000614239664
-0.000546549152
-0.00052777397
-0.000669273341
-0.000745050555
-0.000619500019
-0.000587170622
-0.000504168095
-0.0005035855
-0.000689623395
-0.000717513623
-0.000604174081
-0.000584603056
-0.00069734842
-0.000743251931
-0.000600416355
-0.000515602965
-0.000509662513
-0.00069661488
-0.000708170122
-0.000595663103
-0.000606624292
-0.000716153055
-0.000743714248
-0.000593941178
-0.00050292593
-0.000500257686
-0.000679163003
-0.000717147443
-0.000592037441
-0.000591377907
-0.000702009729
-0.000698980771
-0.000580412775
-0.000599167072
-0.00071231068
-0.000680140263
-0.000582899582
-0.000592361774
-0.00071412851
-0.000641735911
-0.00058167211
-0.000582563651
-0.00072466514
-0.000730857517
-0.000586922065
-0.000500479781
-0.00049344854
-0.000676934212
-0.000687771227
-0.000591219669
-0.0005932196
-0.000706074872
-0.000680435843
-0.000576695718
-0.000598948694
-0.000706924934
-0.000669043932
-0.000578868427
-0.00059074726
-0.000711069917
-0.00064396109
-0.000580962363
-0.000580442227
-0.000718564211
-0.000620552901
-0.000595801762
-0.000583616388
-0.00072575789
-0.000695562236
-0.000595564765
-0.000580924118
-0.000513895669
-0.000565011248
-0.000690158482
-0.000631350345
-0.000571728827
-0.000577784725
-0.000722621959
-0.000614354906
-0.000573914779
-0.000581159749
-0.000722746313
-0.000723530678
-0.000586053303
-0.000503181308
-0.000588254967
-0.000694893416
-0.000631834188
-0.000580837088
-0.000580821865
-0.000721803859
-0.000728574729
-0.000586628111
-0.000504191253
-0.000568331184
-0.00068970678
-0.00063460642
-0.000569223267
-0.000576879099
-0.000721668989
-0.00062003798
-0.000570763395
-0.000578395735
-0.000720716357
-0.000621454541
-0.000578155572
-0.000582689044
-0.000719290547
-0.000731323577
-0.000584533097
-0.000494788653
-0.000582796988
-0.000708742092
-0.000733211551
-0.000586411693
-0.000489836624
-0.000579759022
-0.00071040838
-0.000629065161
-0.000581809951
-0.000582908387
-0.000716482442
-0.000740690164
-0.000589078118
-0.000527130836
-0.000586425607
-0.000712180432
-0.000726013712
-0.000601642986
-0.000550346589
-0.000483812024
-0.000584807088
-0.000712893701
-0.000634376144
-0.000571293439
-0.000584210037
-0.000719231133
-0.000738356098
-0.000585978227
-0.00049936948
-0.00058213264
-0.000716108933
-0.000635913345
-0.000573358681
-0.000580675513
-0.000724591619
-0.000689040112
-0.000604639201
-0.000573977311
-0.00061430443
-0.000736054854
-0.000737762355
-0.000586526885
-0.000485336031
-0.000588741263
-0.000713423823
-0.000724999584
-0.000600099454
-0.000535638699
-0.000465252177
-0.000565914365
-0.000702601754
-0.000749527831
-0.000636619989
-0.000572250033
-0.000583766959
-0.000723611153
-0.000646254534
-0.000571503032
-0.0005904952
-0.000724491279
-0.000734944128
-0.000588162508
-0.0004820925
-0.000591969245
-0.00071561453
-0.000655366436
-0.000575215929
-0.000593511565
-0.000724989062
-0.000734850438
-0.000588069644
-0.000481401811
-0.00058867674
-0.000717851638
-0.000658675927
-0.000557972811
-0.000590541585
-0.000725218225
-0.000655102871
-0.000561135942
-0.000589870107
-0.000726767822
-0.000654272341
-0.000562200998
-0.000589106674
-0.000727937359
-0.000652237604
-0.000568231953
-0.000587643506
-0.000729264138
-0.000649361749
-0.00058889552
-0.000592957763
-0.000729342245
-0.000735802662
-0.000596851631
-0.000543627201
-0.000486081824
-0.000588962567
-0.000722720664
-0.00065417442
-0.000557095092
-0.000594769894
-0.000729609236
-0.000742841837
-0.000588397738
-0.000494711683
-0.000597169925
-0.000723101047
-0.000667340216
-0.000560125453
-0.000593429275
-0.00072962959
-0.000660488343
-0.000556248493
-0.000592546219
-0.000730850914
-0.000657971394
-0.000554869301
-0.000590323877
-0.000730858416
-0.000654844029
-0.000567764625
-0.000595495114
-0.000735154821
-0.000740715532
-0.000590452297
-0.000475339739
-0.000595500938
-0.000725811837
-0.000668842812
-0.000567884064
-0.000597127971
-0.000736419884
-0.000741411701
-0.000589969935
-0.000480156942
-0.000597290351
-0.000728181484
-0.000674856
-0.000567165643
-0.000597402816
-0.00073835753
-0.00074409448
-0.000590277154
-0.000488196336
-0.000597795299
-0.000731279625
-0.000680260898
-0.000578193699
-0.000595821465
-0.00073679495
-0.000750257963
-0.000596728644
-0.000559545677
-0.000515130986
-0.000603762115
-0.000739250654
-0.000744536708
-0.000591336143
-0.000487291959
-0.000600035942
-0.000733497492
-0.00069143099
-0.000551317383
-0.000597865237
-0.000738767538
-0.000672749237
-0.000559597116
-0.000598268082
-0.000743519319
-0.000747160367
-0.000591175024
-0.000501386075
-0.000598245052
-0.000739033833
-0.000746667693
-0.000592215812
-0.000499292246
-0.0005981712
-0.000739872985
-0.000747856893
-0.000591553927
-0.000511062318
-0.000598146257
-0.000741123964
-0.000747050429
-0.000592467775
-0.000504544947
-0.00060015895
-0.000742025432
-0.000746754477
-0.000592722905
-0.000488732494
-0.000592452438
-0.000736739396
-0.00072490986
-0.000560450205
-0.000609442426
-0.000745539321
-0.000745354682
-0.000592306552
-0.000482057114
-0.000586333501
-0.000735818343
-0.000724679388
-0.00055877669
-0.000607274808
-0.000744525729
-0.000745103006
-0.000592263225
-0.000487490776
-0.000589017792
-0.000734876222
-0.00072562816
-0.000564274013
-0.000610400427
-0.000743565255
-0.000744719326
-0.000592028425
-0.000484370922
-0.000583646827
-0.000734015914
-0.000722583879
-0.000559468768
-0.000603803068
-0.000742526481
-0.000744979324
-0.00059192451
-0.000485187836
-0.000585544729
-0.000732818989
-0.000720480547
-0.0005617865
-0.000604622984
-0.000741178337
-0.000743953148
-0.000591938211
-0.000478230367
-0.00057767875
-0.000730829028
-0.000721800807
-0.000547572571
-0.000596027981
-0.000734737818
-0.00069529965
-0.000551389517
-0.00060561406
-0.000733891848
-0.000690850538
-0.000561616825
-0.000602690846
-0.000737420478
-0.000744872662
-0.000589464312
-0.000484207554
-0.000586092586
-0.000727978842
-0.000700482544
-0.000562979536
-0.000602124392
-0.000735864875
-0.000744670994
-0.000588465831
-0.000486822816
-0.000592028068
-0.000726379086
-0.000693523902
-0.000564311166
-0.000603044502
-0.000734260912
-0.000743953203
-0.00058747797
-0.000478177946
-0.000588549957
-0.000724723758
-0.000673685157
-0.000549446812
-0.000592100265
-0.00073035777
-0.000634512948
-0.000540636972
-0.00058777586
-0.000730191116
-0.00064084385
-0.00055749364
-0.000601445121
-0.000731409594
-0.000746616152
-0.000585940556
-0.00048505817
-0.00058889486
-0.000725780181
-0.000635662223
-0.000555958361
-0.000598130479
-0.000730605638
-0.000747938828
-0.000588135041
-0.000495917847
-0.000576497722
-0.000726730689
-0.000747583597
-0.000586839667
-0.000487694859
-0.000597219184
-0.00072655149
-0.000686829216
-0.000571651993
-0.000592488483
)
;

boundaryField
{
    closed
    {
        type            calculated;
        value           nonuniform List<scalar> 0();
    }
    open
    {
        type            calculated;
        value           nonuniform List<scalar> 0();
    }
    sides
    {
        type            empty;
    }
    procBoundary2to1
    {
        type            processor;
        value           uniform -0.000725550791;
    }
    procBoundary2to3
    {
        type            processor;
        value           uniform -0.000729996153;
    }
}


// ************************************************************************* //
