/*--------------------------------*- C++ -*----------------------------------*\
| =========                 |                                                 |
| \\      /  F ield         | OpenFOAM: The Open Source CFD Toolbox           |
|  \\    /   O peration     | Version:  2306                                  |
|   \\  /    A nd           | Website:  www.openfoam.com                      |
|    \\/     M anipulation  |                                                 |
\*---------------------------------------------------------------------------*/
FoamFile
{
    version     2.0;
    format      ascii;
    arch        "LSB;label=32;scalar=64";
    class       volScalarField;
    location    "0.001";
    object      H;
}
// * * * * * * * * * * * * * * * * * * * * * * * * * * * * * * * * * * * * * //

dimensions      [0 0 0 0 0 0 0];

internalField   nonuniform List<scalar> 
531
(
1.26837333e-09
1.21116783e-09
4.51188427e-08
4.60599217e-08
3.00800716e-08
1.26674134e-09
1.29461322e-09
4.45777295e-08
4.47375284e-08
3.04735762e-08
1.25917537e-09
1.29029898e-09
4.30075626e-08
3.84739521e-08
1.21590685e-09
1.16880127e-09
4.75968701e-08
4.76864139e-08
4.36417345e-08
4.21577801e-08
1.31438309e-08
1.23642005e-09
1.10191483e-09
1.20300598e-09
1.04862302e-09
4.84077546e-08
5.19525238e-08
3.42044781e-08
1.20219851e-09
1.24860989e-09
4.77764925e-08
4.79413351e-08
3.47391542e-08
1.24763189e-09
1.3146416e-09
4.47974405e-08
3.88783776e-08
1.25015575e-09
1.30508953e-09
4.54827134e-08
3.53353469e-08
1.18210061e-09
1.31636634e-09
1.09894432e-09
4.69108617e-08
5.18520037e-08
3.38624221e-08
1.20921059e-09
1.27746119e-09
4.69796718e-08
4.71474302e-08
3.34681938e-08
1.26142102e-09
1.33089043e-09
4.27780112e-08
3.83320892e-08
1.27680813e-09
1.26992603e-09
4.21850289e-08
4.0099925e-08
1.27389904e-09
1.19601999e-09
4.44806093e-08
4.43794986e-08
4.1465644e-08
3.19619524e-08
1.28082954e-09
1.28614392e-09
4.5490647e-08
4.63272895e-08
3.24807881e-08
1.25385993e-09
1.36886167e-09
4.32248653e-08
3.7890511e-08
1.26646028e-09
1.34728096e-09
4.38917747e-08
3.36462296e-08
1.20195103e-09
1.3288137e-09
1.12862284e-09
4.56158887e-08
5.05612733e-08
3.32996046e-08
1.18101521e-09
1.24623117e-09
4.7854535e-08
4.78797343e-08
4.15858719e-08
4.36652668e-08
2.27393347e-08
1.224018e-09
1.34888389e-09
1.20782801e-09
4.08648492e-08
4.12237404e-08
1.28155459e-09
1.19864802e-09
4.61347343e-08
4.79202005e-08
3.26084208e-08
1.21493108e-09
1.35378635e-09
4.46905936e-08
3.86110717e-08
1.22403385e-09
1.24238179e-09
4.74804126e-08
4.85910634e-08
3.38194532e-08
1.21674011e-09
1.35913181e-09
4.45809772e-08
3.88602757e-08
1.23742074e-09
1.33480966e-09
4.4838267e-08
3.51722546e-08
1.17441531e-09
1.30857619e-09
1.11380367e-09
4.65241566e-08
5.11391673e-08
3.24799622e-08
1.1829862e-09
1.28284164e-09
4.74269836e-08
4.82202203e-08
3.34079385e-08
1.20950568e-09
1.29234566e-09
4.72504416e-08
4.79439317e-08
3.38029695e-08
1.23480634e-09
1.36249439e-09
4.36984697e-08
3.95016185e-08
1.2850859e-09
1.30437895e-09
4.19266549e-08
3.97897861e-08
1.30710153e-09
1.28597594e-09
4.19010702e-08
3.86748782e-08
1.28344839e-09
1.23163e-09
4.53663687e-08
4.6952319e-08
3.19209068e-08
1.20586118e-09
1.30708429e-09
4.43317426e-08
4.39056953e-08
4.08749541e-08
3.16550703e-08
1.25907802e-09
1.36923203e-09
4.63546532e-08
2.32071418e-08
1.26095879e-09
3.84838722e-08
3.93573351e-08
1.34688459e-09
1.27991637e-09
4.02965054e-08
3.80647292e-08
1.30007613e-09
1.24038208e-09
4.54132195e-08
4.68230279e-08
2.91870494e-08
1.22948772e-09
1.31329302e-09
4.53275221e-08
4.58219387e-08
3.01869424e-08
1.26931828e-09
1.34987752e-09
4.24704004e-08
3.72973372e-08
1.27001933e-09
1.26400981e-09
4.56437761e-08
4.65938221e-08
2.99528377e-08
1.25315065e-09
1.35282162e-09
4.26157696e-08
3.6999407e-08
1.2576097e-09
1.26467803e-09
4.5749575e-08
4.6686157e-08
2.89217697e-08
1.23964657e-09
1.29874947e-09
4.50339228e-08
4.53355256e-08
2.87941106e-08
1.26721066e-09
1.31939645e-09
4.12956353e-08
3.74397793e-08
1.28485498e-09
1.22101912e-09
4.36932127e-08
4.36966619e-08
3.84002564e-08
2.98239923e-08
1.34821472e-09
1.309383e-09
3.98168126e-08
3.61812891e-08
1.29362442e-09
1.23423823e-09
4.56111059e-08
4.66530736e-08
2.81434274e-08
1.21112046e-09
1.26745903e-09
4.63226887e-08
4.66857621e-08
2.95636719e-08
1.22513272e-09
1.25718533e-09
4.60473553e-08
4.62845606e-08
2.95665319e-08
1.23132567e-09
1.2837119e-09
4.26143753e-08
3.67153469e-08
1.23190686e-09
1.20701751e-09
4.70703815e-08
4.79733924e-08
3.02355752e-08
1.19853545e-09
1.2422222e-09
4.78889446e-08
4.80080139e-08
3.21642156e-08
1.21875739e-09
1.23817299e-09
4.40039938e-08
3.97458502e-08
1.2709025e-09
1.15806767e-09
4.33907215e-08
4.11107231e-08
1.2920748e-09
1.12067507e-09
4.33235806e-08
4.11575268e-08
1.29772786e-09
1.10720674e-09
4.30587468e-08
4.05356523e-08
1.29011216e-09
1.10911812e-09
4.34413382e-08
3.90512436e-08
1.24050829e-09
1.11706129e-09
4.8518067e-08
4.93363393e-08
3.05338316e-08
1.1562407e-09
1.18904063e-09
4.76413414e-08
4.76788438e-08
3.10510448e-08
1.22376385e-09
1.1912925e-09
4.28441063e-08
3.80488546e-08
1.27591258e-09
1.12955542e-09
4.276592e-08
3.82751963e-08
1.25181276e-09
1.12163953e-09
4.77536162e-08
4.82732566e-08
2.97698417e-08
1.16104123e-09
1.32555582e-09
1.0159537e-09
4.76440998e-08
4.99197038e-08
2.9611699e-08
1.1329674e-09
1.315723e-09
1.00004833e-09
4.78106702e-08
4.78839258e-08
4.06573438e-08
3.18740927e-08
1.30397849e-09
1.1702297e-09
4.16978298e-08
3.675782e-08
1.2605082e-09
1.13251635e-09
4.73330956e-08
4.76991547e-08
2.83897708e-08
1.19200954e-09
1.15987311e-09
4.61756339e-08
4.62074444e-08
2.81695147e-08
1.24846108e-09
1.17628124e-09
4.1466389e-08
3.53358377e-08
1.26018384e-09
1.14319159e-09
4.58105301e-08
4.60266911e-08
2.56365336e-08
1.20846791e-09
1.1471635e-09
4.53948092e-08
4.54462538e-08
2.53232395e-08
1.22010011e-09
1.13265662e-09
4.51358033e-08
4.52400674e-08
2.42750578e-08
1.217883e-09
1.12403977e-09
4.51410323e-08
4.52417146e-08
2.40397064e-08
1.2172088e-09
1.11761208e-09
4.52483236e-08
4.53425189e-08
2.38271344e-08
1.21372293e-09
1.11980587e-09
4.55010781e-08
4.55326025e-08
2.38696978e-08
1.20868871e-09
1.10881508e-09
4.58140906e-08
4.59022762e-08
2.43546533e-08
1.20157346e-09
1.1063856e-09
4.62940441e-08
4.63770061e-08
2.50015665e-08
1.19445765e-09
1.0989577e-09
4.66128247e-08
4.67198228e-08
2.56687601e-08
1.19487591e-09
1.09491274e-09
4.61747051e-08
4.62283969e-08
2.59455517e-08
1.23851565e-09
1.10675046e-09
4.13114527e-08
3.51438487e-08
1.24688377e-09
1.0763057e-09
4.7050425e-08
4.7488368e-08
2.53700418e-08
1.10045691e-09
1.28259398e-09
8.83598478e-10
5.0665071e-08
5.10937229e-08
4.22245694e-08
4.27341102e-08
2.05990064e-08
1.13257171e-09
1.34526622e-09
8.83261083e-10
4.04676103e-08
4.04925464e-08
1.31469215e-09
9.49974985e-10
4.26007218e-08
3.82488724e-08
1.23943035e-09
9.88777181e-10
4.93268416e-08
4.97671534e-08
2.84900904e-08
1.16782542e-09
1.05493758e-09
4.41175296e-08
3.67776955e-08
1.19894199e-09
1.00730859e-09
4.88383313e-08
4.90824902e-08
2.81229043e-08
1.19801386e-09
1.04962706e-09
4.23544028e-08
3.64176063e-08
1.27522546e-09
9.93559537e-10
4.18517708e-08
3.63352064e-08
1.23788303e-09
9.93938953e-10
4.85276542e-08
4.89549189e-08
2.84340951e-08
1.1480905e-09
9.67148488e-10
4.7047945e-08
4.70801054e-08
3.91154664e-08
2.5499938e-08
1.22299573e-09
1.37180445e-09
9.11340993e-10
3.96266002e-08
3.76158128e-08
1.27562138e-09
9.68924886e-10
4.71988345e-08
4.77647908e-08
2.45932423e-08
1.10445913e-09
1.30292272e-09
8.41390189e-10
4.70868441e-08
4.73895693e-08
3.86427922e-08
2.72772672e-08
1.26795374e-09
1.01534294e-09
4.68673702e-08
4.70994171e-08
2.49654187e-08
1.16948757e-09
9.8101081e-10
4.68082508e-08
4.69202712e-08
2.56983494e-08
1.22107272e-09
9.92815063e-10
4.18334464e-08
3.51708907e-08
1.23351639e-09
9.5627839e-10
4.76926143e-08
4.79882433e-08
2.6302233e-08
1.20153833e-09
9.86977518e-10
4.26488857e-08
3.57776948e-08
1.22944259e-09
9.41486774e-10
4.77427692e-08
4.79268362e-08
2.56089025e-08
1.23149784e-09
9.92530802e-10
4.0207858e-08
3.43175089e-08
1.32876011e-09
9.61754203e-10
3.89318184e-08
3.39481344e-08
1.29459123e-09
9.03250925e-10
4.5378419e-08
4.58468736e-08
3.87267008e-08
3.82136179e-08
3.44782977e-08
2.11688772e-08
1.40475794e-09
9.43466054e-10
3.80224071e-08
3.37487984e-08
1.31242039e-09
9.03388875e-10
4.55279821e-08
4.60872721e-08
2.06795955e-08
1.11743982e-09
1.26951902e-09
8.17011025e-10
4.88692684e-08
4.92041418e-08
2.52293796e-08
1.14456112e-09
8.97213439e-10
4.73850441e-08
4.74292425e-08
2.5135405e-08
1.22819094e-09
9.1094385e-10
4.13993092e-08
3.48093221e-08
1.23642704e-09
8.58779167e-10
4.81433733e-08
4.8337335e-08
3.94848604e-08
3.87459961e-08
2.13687887e-08
1.31929282e-09
9.17379273e-10
3.92343883e-08
3.04164549e-08
1.2172198e-09
1.29478973e-09
8.22916909e-10
4.66695967e-08
4.68613312e-08
2.15238499e-08
1.17103461e-09
)
;

boundaryField
{
    closed
    {
        type            calculated;
        value           nonuniform List<scalar> 0();
    }
    open
    {
        type            calculated;
        value           nonuniform List<scalar> 0();
    }
    sides
    {
        type            empty;
    }
    procBoundary1to0
    {
        type            processor;
        value           uniform 3.83046031e-08;
    }
    procBoundary1to2
    {
        type            processor;
        value           uniform 8.28810297e-10;
    }
}


// ************************************************************************* //
