/*--------------------------------*- C++ -*----------------------------------*\
| =========                 |                                                 |
| \\      /  F ield         | OpenFOAM: The Open Source CFD Toolbox           |
|  \\    /   O peration     | Version:  2306                                  |
|   \\  /    A nd           | Website:  www.openfoam.com                      |
|    \\/     M anipulation  |                                                 |
\*---------------------------------------------------------------------------*/
FoamFile
{
    version     2.0;
    format      ascii;
    arch        "LSB;label=32;scalar=64";
    class       volScalarField;
    location    "0.001";
    object      mu;
}
// * * * * * * * * * * * * * * * * * * * * * * * * * * * * * * * * * * * * * //

dimensions      [1 -1 -1 0 0 0 0];

internalField   nonuniform List<scalar> 
531
(
2.02977387e-05
2.02897389e-05
1.94987698e-05
1.94782987e-05
1.97612111e-05
2.0294084e-05
2.03027646e-05
1.95159577e-05
1.95126493e-05
1.97645648e-05
2.02911689e-05
2.03017833e-05
1.95629469e-05
1.96785443e-05
2.02878397e-05
2.02937617e-05
1.94359295e-05
1.94320929e-05
1.95488839e-05
1.95845448e-05
1.99288696e-05
2.02833428e-05
2.0279056e-05
2.0286433e-05
2.02845978e-05
1.94109198e-05
1.9312945e-05
1.97647515e-05
2.02953399e-05
2.02962894e-05
1.94266417e-05
1.94245722e-05
1.97543796e-05
2.02967481e-05
2.03126607e-05
1.95122072e-05
1.96607167e-05
2.02936723e-05
2.03120333e-05
1.94935992e-05
1.97562643e-05
2.02991745e-05
2.02991255e-05
2.0298515e-05
1.9449848e-05
1.93147588e-05
1.97594214e-05
2.029859e-05
2.03016106e-05
1.94484061e-05
1.94461511e-05
1.97563582e-05
2.02960064e-05
2.03100371e-05
1.95672459e-05
1.96788704e-05
2.0293383e-05
2.03058161e-05
1.95822045e-05
1.96357184e-05
2.02974675e-05
2.03003393e-05
1.95177048e-05
1.95217579e-05
1.96008254e-05
1.97646138e-05
2.03016264e-05
2.02997739e-05
1.94866198e-05
1.94693834e-05
1.97481395e-05
2.0294052e-05
2.03216365e-05
1.9555797e-05
1.96846755e-05
2.02932073e-05
2.03164613e-05
1.95369783e-05
1.97569449e-05
2.02982759e-05
2.02974535e-05
2.02987031e-05
1.94859299e-05
1.93520437e-05
1.97613391e-05
2.02929708e-05
2.03021531e-05
1.94265593e-05
1.94264266e-05
1.95983787e-05
1.95442239e-05
1.98060214e-05
2.02921747e-05
2.02927099e-05
2.03045977e-05
1.96168722e-05
1.9608419e-05
2.03017632e-05
2.02923373e-05
1.94694317e-05
1.94272504e-05
1.97512514e-05
2.02880174e-05
2.03171713e-05
1.95162961e-05
1.96709924e-05
2.02968228e-05
2.03026336e-05
1.94338293e-05
1.94067186e-05
1.97505395e-05
2.02921592e-05
2.03208917e-05
1.95194234e-05
1.9660473e-05
2.02896667e-05
2.03165837e-05
1.95123304e-05
1.97590201e-05
2.0296019e-05
2.0295068e-05
2.02979594e-05
1.94615273e-05
1.93356625e-05
1.97627512e-05
2.0292203e-05
2.03020801e-05
1.94374629e-05
1.94166494e-05
1.976121e-05
2.02978587e-05
2.03055396e-05
1.94409262e-05
1.94236461e-05
1.97543207e-05
2.02971317e-05
2.0318886e-05
1.95407411e-05
1.96457701e-05
2.02982738e-05
2.03158939e-05
1.95871576e-05
1.96413212e-05
2.03005001e-05
2.03091176e-05
1.95871425e-05
1.96751699e-05
2.03045212e-05
2.02954395e-05
1.94901619e-05
1.94544137e-05
1.97523111e-05
2.0286186e-05
2.03198448e-05
1.95265776e-05
1.95293825e-05
1.96219538e-05
1.97520558e-05
2.02922196e-05
2.03216624e-05
1.9466128e-05
1.97966794e-05
2.03102629e-05
1.9678496e-05
1.96540763e-05
2.0300234e-05
2.03095148e-05
1.96296286e-05
1.96899576e-05
2.03065055e-05
2.03002753e-05
1.9488176e-05
1.94559721e-05
1.97581535e-05
2.02945704e-05
2.03153309e-05
1.94945063e-05
1.94806357e-05
1.97596265e-05
2.0297807e-05
2.03187192e-05
1.95739031e-05
1.97043355e-05
2.03028661e-05
2.03087979e-05
1.94826801e-05
1.94609013e-05
1.97544829e-05
2.0294217e-05
2.03225801e-05
1.95715182e-05
1.97107391e-05
2.02990832e-05
2.03091843e-05
1.94814258e-05
1.94581531e-05
1.9762734e-05
2.02967685e-05
2.03123716e-05
1.95026877e-05
1.94948179e-05
1.97655878e-05
2.02936274e-05
2.03142431e-05
1.96068459e-05
1.97029605e-05
2.02986966e-05
2.03074066e-05
1.95384985e-05
1.95390548e-05
1.9681747e-05
1.9764046e-05
2.02982632e-05
2.03123578e-05
1.96436572e-05
1.9737354e-05
2.03036846e-05
2.03009896e-05
1.94844618e-05
1.94612548e-05
1.97661381e-05
2.02897657e-05
2.03077376e-05
1.94693763e-05
1.94588993e-05
1.97685282e-05
2.02943535e-05
2.03031945e-05
1.94758988e-05
1.94711533e-05
1.97655966e-05
2.02872358e-05
2.0309216e-05
1.95740056e-05
1.97239346e-05
2.02928005e-05
2.029814e-05
1.94471569e-05
1.94249308e-05
1.97637173e-05
2.02916855e-05
2.03047451e-05
1.94256358e-05
1.94225028e-05
1.97618062e-05
2.02938267e-05
2.03081869e-05
1.95328198e-05
1.96433595e-05
2.0298764e-05
2.03041876e-05
1.95465845e-05
1.9609994e-05
2.03038133e-05
2.02983751e-05
1.95469672e-05
1.96108562e-05
2.03048984e-05
2.0294569e-05
1.95544894e-05
1.96287766e-05
2.03022961e-05
2.02921431e-05
1.95456909e-05
1.96696345e-05
2.03009905e-05
2.02859062e-05
1.94058606e-05
1.93885342e-05
1.97615607e-05
2.0283656e-05
2.03016828e-05
1.94337693e-05
1.94324356e-05
1.97670001e-05
2.02908883e-05
2.03017885e-05
1.95655935e-05
1.96907409e-05
2.02956682e-05
2.02981051e-05
1.95651952e-05
1.96878933e-05
2.03010908e-05
2.02885787e-05
1.94268269e-05
1.94190158e-05
1.97637792e-05
2.02788794e-05
2.02988148e-05
2.02810066e-05
1.9430202e-05
1.93727024e-05
1.97663654e-05
2.02824817e-05
2.02953145e-05
2.02923139e-05
1.94274097e-05
1.94267625e-05
1.96239497e-05
1.97650288e-05
2.02965427e-05
2.03028848e-05
1.95939584e-05
1.97245179e-05
2.03013206e-05
2.02951936e-05
1.94385455e-05
1.94330122e-05
1.97674083e-05
2.02880474e-05
2.03024514e-05
1.94736321e-05
1.94729195e-05
1.97729413e-05
2.02908034e-05
2.03027406e-05
1.96033099e-05
1.97611374e-05
2.02958302e-05
2.02971802e-05
1.94818528e-05
1.94795574e-05
1.97831252e-05
2.02857639e-05
2.02992017e-05
1.94961499e-05
1.94948048e-05
1.97888425e-05
2.02875011e-05
2.02955415e-05
1.95028242e-05
1.95011566e-05
1.97948978e-05
2.02858758e-05
2.02955973e-05
1.95031077e-05
1.95010707e-05
1.97970465e-05
2.02858735e-05
2.02951941e-05
1.95001906e-05
1.94984829e-05
1.97986169e-05
2.02853944e-05
2.02963549e-05
1.94934703e-05
1.94933529e-05
1.97984952e-05
2.02852044e-05
2.02952252e-05
1.94847681e-05
1.94832377e-05
1.97952297e-05
2.02852148e-05
2.02955112e-05
1.94714452e-05
1.94701463e-05
1.97910742e-05
2.02853639e-05
2.02952104e-05
1.94625251e-05
1.94606167e-05
1.97871354e-05
2.02860105e-05
2.0296593e-05
1.94745885e-05
1.94740016e-05
1.97858825e-05
2.0287029e-05
2.02970287e-05
1.9608516e-05
1.97710091e-05
2.0293818e-05
2.02884558e-05
1.94484606e-05
1.94426021e-05
1.97863576e-05
2.02701722e-05
2.02933422e-05
2.02783705e-05
1.934783e-05
1.93395318e-05
1.95807108e-05
1.95759263e-05
1.98241987e-05
2.02716389e-05
2.02985705e-05
2.02823069e-05
1.96243058e-05
1.96348762e-05
2.03041291e-05
2.0283068e-05
1.95675119e-05
1.96948808e-05
2.03019574e-05
2.02832189e-05
1.93840315e-05
1.93770825e-05
1.97700808e-05
2.02806759e-05
2.02981682e-05
1.95337745e-05
1.9726903e-05
2.02905101e-05
2.02916381e-05
1.93993929e-05
1.93952668e-05
1.9774823e-05
2.02857448e-05
2.02954324e-05
1.95801515e-05
1.97385346e-05
2.02944999e-05
2.02888416e-05
1.95910728e-05
1.97440292e-05
2.02975212e-05
2.02835928e-05
1.94070458e-05
1.94002666e-05
1.97715131e-05
2.02817149e-05
2.02947406e-05
1.94518199e-05
1.94493821e-05
1.96704448e-05
1.97865385e-05
2.02820656e-05
2.02975865e-05
2.02878536e-05
1.96482953e-05
1.97107959e-05
2.03010916e-05
2.02810999e-05
1.94433708e-05
1.94358505e-05
1.97907303e-05
2.02663295e-05
2.02933211e-05
2.02759029e-05
1.94484347e-05
1.9444953e-05
1.96784989e-05
1.97862095e-05
2.02922859e-05
2.02896284e-05
1.9454481e-05
1.94517932e-05
1.97909945e-05
2.02809769e-05
2.02905098e-05
1.94582933e-05
1.94558762e-05
1.97898401e-05
2.02848139e-05
2.02916715e-05
1.95943781e-05
1.97714019e-05
2.02949903e-05
2.02873795e-05
1.943064e-05
1.94265684e-05
1.97813603e-05
2.02850538e-05
2.02954576e-05
1.95719195e-05
1.97533515e-05
2.02964658e-05
2.02905827e-05
1.9429007e-05
1.94273927e-05
1.97853215e-05
2.02888625e-05
2.02942161e-05
1.9635628e-05
1.97733106e-05
2.0300894e-05
2.02856929e-05
1.96662393e-05
1.97803683e-05
2.03021425e-05
2.02779222e-05
1.94926462e-05
1.94884387e-05
1.96705302e-05
1.96966128e-05
1.97537099e-05
1.9824699e-05
2.03077937e-05
2.02855531e-05
1.96866081e-05
1.9779374e-05
2.0306637e-05
2.02766642e-05
1.94882655e-05
1.94831135e-05
1.98232228e-05
2.02657803e-05
2.02938843e-05
2.0273775e-05
1.93984324e-05
1.93936288e-05
1.97881174e-05
2.02806757e-05
2.02871376e-05
1.94418779e-05
1.944119e-05
1.97930779e-05
2.02872171e-05
2.02859582e-05
1.96049857e-05
1.97766131e-05
2.02965254e-05
2.02820987e-05
1.94183801e-05
1.94168232e-05
1.96540346e-05
1.96767609e-05
1.98179125e-05
2.02929827e-05
2.0292389e-05
1.96619528e-05
1.97721076e-05
2.02877785e-05
2.02881485e-05
2.02836211e-05
1.94619805e-05
1.94582133e-05
1.9820238e-05
2.02800803e-05
)
;

boundaryField
{
    closed
    {
        type            calculated;
        value           nonuniform List<scalar> 0();
    }
    open
    {
        type            calculated;
        value           nonuniform List<scalar> 0();
    }
    sides
    {
        type            empty;
    }
    procBoundary1to0
    {
        type            processor;
        value           uniform 1.96865244e-05;
    }
    procBoundary1to2
    {
        type            processor;
        value           uniform 2.02798223e-05;
    }
}


// ************************************************************************* //
