/*--------------------------------*- C++ -*----------------------------------*\
| =========                 |                                                 |
| \\      /  F ield         | OpenFOAM: The Open Source CFD Toolbox           |
|  \\    /   O peration     | Version:  2306                                  |
|   \\  /    A nd           | Website:  www.openfoam.com                      |
|    \\/     M anipulation  |                                                 |
\*---------------------------------------------------------------------------*/
FoamFile
{
    version     2.0;
    format      ascii;
    arch        "LSB;label=32;scalar=64";
    class       surfaceScalarField;
    location    "0.001";
    object      phi;
}
// * * * * * * * * * * * * * * * * * * * * * * * * * * * * * * * * * * * * * //

dimensions      [1 0 -1 0 0 0 0];

oriented        oriented;

internalField   nonuniform List<scalar> 
530
(
-5.41318094e-07
-5.40452187e-07
-5.2872437e-07
-5.13832912e-07
-5.18080469e-07
-5.13737154e-07
-5.1489028e-07
-5.0102344e-07
-4.85003749e-07
-4.87703374e-07
-4.8838702e-07
-4.89542662e-07
-4.94011138e-07
-4.99170163e-07
-4.97714678e-07
-5.02722017e-07
-4.84143876e-07
-4.738508e-07
-4.95655532e-07
-5.04963745e-07
-4.78011209e-07
-4.75092893e-07
-4.75624359e-07
-4.72584215e-07
-4.72821076e-07
-4.51509984e-07
-4.42699976e-07
-4.43113607e-07
-4.38141695e-07
-4.36669569e-07
-4.17301384e-07
-3.93053701e-07
-3.94840681e-07
-3.90809242e-07
-3.90524579e-07
-3.84974664e-07
-3.98615694e-07
-3.89376246e-07
-3.88879912e-07
-3.90373e-07
-3.92006359e-07
-3.83049682e-07
-3.78695042e-07
-3.76311976e-07
-3.42046906e-07
-3.31750499e-07
-3.34750165e-07
-3.30074008e-07
-3.29261152e-07
-3.08235582e-07
-2.84956849e-07
-2.89133603e-07
-2.85545464e-07
-2.83630376e-07
-2.82964251e-07
-2.90629913e-07
-2.88042191e-07
-2.84634023e-07
-2.88002905e-07
-3.03358856e-07
-3.0153553e-07
-2.96353007e-07
-2.83302298e-07
-2.62977229e-07
-2.73050501e-07
-2.7739723e-07
-2.73135604e-07
-2.71524581e-07
-2.44212462e-07
-2.24959566e-07
-2.31171066e-07
-2.28561331e-07
-2.26111097e-07
-2.2499729e-07
-2.41258614e-07
-2.36670624e-07
-2.34474732e-07
-2.39855783e-07
-2.44656446e-07
-2.39780182e-07
-2.35400879e-07
-2.32786238e-07
-1.94131141e-07
-1.9181392e-07
-1.98252523e-07
-1.9493418e-07
-1.93588347e-07
-1.76608849e-07
-1.59682683e-07
-1.59884493e-07
-1.77514697e-07
-1.83107693e-07
-1.7543555e-07
-1.74706505e-07
-1.715351e-07
-1.79837974e-07
-2.03901823e-07
-2.01625288e-07
-2.00150993e-07
-1.6714517e-07
-1.57851686e-07
-1.66264798e-07
-1.64755694e-07
-1.62973828e-07
-1.68852534e-07
-1.97454185e-07
-1.89142212e-07
-1.87916512e-07
-1.55778388e-07
-1.41762621e-07
-1.50276633e-07
-1.49251681e-07
-1.47564994e-07
-1.50737566e-07
-1.70887304e-07
-1.68788145e-07
-1.67355704e-07
-1.7654562e-07
-1.83889619e-07
-1.795117e-07
-1.76029385e-07
-1.74809563e-07
-1.30913369e-07
-1.30612227e-07
-1.40007452e-07
-1.38523468e-07
-1.39160929e-07
-1.10509295e-07
-9.64333789e-08
-1.04679116e-07
-1.01785205e-07
-1.04070676e-07
-7.29651382e-08
-5.62317897e-08
-6.74974478e-08
-6.72552801e-08
-6.71125132e-08
-7.23817868e-08
-9.26401174e-08
-9.48684155e-08
-9.32922384e-08
-9.8194786e-08
-1.22228874e-07
-1.2506126e-07
-1.24909825e-07
-1.33091753e-07
-1.64040408e-07
-1.64012358e-07
-1.65707518e-07
-1.39035117e-07
-1.35105419e-07
-1.5028052e-07
-1.47823209e-07
-1.46497286e-07
-1.44076844e-07
-1.21905799e-07
-1.4162174e-07
-1.56354614e-07
-1.54780675e-07
-1.57799249e-07
-1.51287876e-07
-1.60644962e-07
-1.63162617e-07
-1.69449213e-07
-1.95558819e-07
-1.98369586e-07
-2.00463653e-07
-2.09692564e-07
-2.40549628e-07
-2.42162965e-07
-2.45315817e-07
-2.21206593e-07
-2.19138193e-07
-2.35316961e-07
-2.32916809e-07
-2.36933155e-07
-2.18445868e-07
-2.1047582e-07
-2.25915774e-07
-2.24944226e-07
-2.28782834e-07
-2.4122109e-07
-2.68396365e-07
-2.70174321e-07
-2.74611452e-07
-2.54640022e-07
-2.49363463e-07
-2.65684554e-07
-2.64985738e-07
-2.69046579e-07
-2.82242832e-07
-3.10097919e-07
-3.12684721e-07
-3.17114299e-07
-2.99181884e-07
-2.97004759e-07
-3.1406345e-07
-3.11314378e-07
-3.17108147e-07
-3.04839245e-07
-2.99515094e-07
-3.15658054e-07
-3.18816218e-07
-3.23279092e-07
-3.38044536e-07
-3.67411651e-07
-3.72589275e-07
-3.77956071e-07
-3.66317133e-07
-3.54120531e-07
-3.73099023e-07
-3.88922843e-07
-3.95755841e-07
-4.01106489e-07
-4.11910108e-07
-4.38153175e-07
-4.42441954e-07
-4.47925479e-07
-4.34384036e-07
-4.3414048e-07
-4.51635711e-07
-4.46129883e-07
-4.51850574e-07
-4.40615547e-07
-4.36808071e-07
-4.52346844e-07
-4.4673387e-07
-4.53601464e-07
-4.44029504e-07
-4.37858839e-07
-4.52517489e-07
-4.56057512e-07
-4.60880437e-07
-4.76805486e-07
-5.01796798e-07
-5.05318819e-07
-5.10248751e-07
-4.96915118e-07
-4.94739456e-07
-5.097634e-07
-5.05488092e-07
-5.11757461e-07
-4.99479258e-07
-4.91574731e-07
-5.04890848e-07
-5.07707811e-07
-5.11357941e-07
-5.22349371e-07
-5.42685916e-07
-5.48071114e-07
-5.49790375e-07
-5.57442154e-07
-5.81228561e-07
-5.87338274e-07
-5.88205906e-07
-5.94449841e-07
-6.18838955e-07
-6.24858538e-07
-6.25631725e-07
-6.32482217e-07
-6.56647725e-07
-6.62294108e-07
-6.63449382e-07
-6.74511965e-07
-6.99528082e-07
-7.02956909e-07
-7.06304011e-07
-6.97543302e-07
-6.98521074e-07
-7.09900722e-07
-7.11012252e-07
-7.08171152e-07
-7.10464651e-07
-7.06082373e-07
-7.16847778e-07
-7.19147762e-07
-7.20081733e-07
-7.30187771e-07
-7.49573111e-07
-7.54297768e-07
-7.53343836e-07
-7.63760301e-07
-7.8491736e-07
-7.89040297e-07
-7.91093027e-07
-7.87167327e-07
-7.88958479e-07
-7.96891056e-07
-7.97472808e-07
-8.00527055e-07
-8.01372587e-07
-7.84758336e-07
-7.9855727e-07
-8.05916762e-07
-8.06408844e-07
-8.09380337e-07
-8.00019541e-07
-8.0311891e-07
-7.97056698e-07
-8.09844998e-07
-8.18954082e-07
-8.22465274e-07
-8.19102662e-07
-8.26245462e-07
-8.47380458e-07
-8.49136927e-07
-8.44275887e-07
-8.41630031e-07
-8.43118354e-07
-8.51909571e-07
-8.50773018e-07
-8.38216318e-07
-8.47069341e-07
-8.46719207e-07
-8.55255024e-07
-8.56379623e-07
-8.5119658e-07
-8.62737775e-07
-8.87774612e-07
-8.89422581e-07
-8.81964787e-07
-8.88092524e-07
-8.91988263e-07
-9.00163298e-07
-8.99558735e-07
-8.86715213e-07
-8.97258937e-07
-9.01724616e-07
-9.09253495e-07
-9.08351946e-07
-8.93358604e-07
-9.06035041e-07
-9.11571516e-07
-9.19132569e-07
-9.1930017e-07
-9.37759685e-07
-9.08859158e-07
-9.16947324e-07
-9.26429349e-07
-9.27509324e-07
-9.12833443e-07
-9.27349297e-07
-9.34836689e-07
-9.42501431e-07
-9.41850737e-07
-9.25646424e-07
-9.42615513e-07
-9.51487556e-07
-9.59440097e-07
-9.58772804e-07
-9.43318091e-07
-9.57098965e-07
-9.65216886e-07
-9.73462598e-07
-9.7271035e-07
-9.58133605e-07
-9.69776678e-07
-9.76365929e-07
-9.84444965e-07
-9.82970945e-07
-9.66244504e-07
-9.77658259e-07
-9.83939318e-07
-9.92630351e-07
-9.91161588e-07
-9.72328118e-07
-9.85271223e-07
-9.87803908e-07
-9.95372751e-07
-9.95228564e-07
-9.83762457e-07
-9.95093807e-07
-1.02338268e-06
-1.02411887e-06
-1.01483366e-06
-1.02187164e-06
-1.03374173e-06
-1.03838299e-06
-1.03360215e-06
-1.03587834e-06
-1.02600364e-06
-1.03345628e-06
-1.04223733e-06
-1.05641544e-06
-1.07868349e-06
-1.06821201e-06
-1.06796638e-06
-1.07312169e-06
-1.06542445e-06
-1.0713745e-06
-1.11253479e-06
-1.11676208e-06
-1.10828816e-06
-1.11753067e-06
-1.15366206e-06
-1.15616793e-06
-1.14721456e-06
-1.15486117e-06
-1.15968214e-06
-1.16922938e-06
-1.17092515e-06
-1.16276541e-06
-1.17654954e-06
-1.20749623e-06
-1.20995177e-06
-1.19493513e-06
-1.20943188e-06
-1.21420347e-06
-1.22260799e-06
-1.22373919e-06
-1.21737806e-06
-1.22702438e-06
-1.2557944e-06
-1.25953785e-06
-1.25247629e-06
-1.26390017e-06
-1.29615082e-06
-1.2993161e-06
-1.28855709e-06
-1.30581324e-06
-1.31650082e-06
-1.32543492e-06
-1.32604845e-06
-1.28052995e-06
-1.33426662e-06
-1.33531129e-06
-1.34796417e-06
-1.34967518e-06
-1.34959359e-06
-1.35339219e-06
-1.3499677e-06
-1.35741721e-06
-1.39019509e-06
-1.39429497e-06
-1.38367027e-06
-1.41143166e-06
-1.42887533e-06
-1.42920235e-06
-1.42688869e-06
-1.43144451e-06
-1.41474773e-06
-1.4424987e-06
-1.44840444e-06
-1.4596969e-06
-1.46783613e-06
-1.47186229e-06
-1.45806132e-06
-1.48602427e-06
-1.49639964e-06
-1.50335263e-06
-1.50572432e-06
-1.53781933e-06
-1.50665445e-06
-1.51732907e-06
-1.52606352e-06
-1.53087076e-06
-1.53285545e-06
-1.54896836e-06
-1.57842723e-06
-1.58442252e-06
-1.56728255e-06
-1.60204577e-06
-1.60949569e-06
-1.61380187e-06
-1.61588601e-06
-1.61839833e-06
-1.63307189e-06
-1.65852539e-06
-1.66329287e-06
-1.63728413e-06
-1.68068763e-06
-1.68818051e-06
-1.6895943e-06
-1.69089522e-06
-1.6927253e-06
-1.70196622e-06
-1.71219525e-06
-1.71785883e-06
-1.71790296e-06
-1.73103356e-06
-1.74331451e-06
-1.74857676e-06
-1.7788939e-06
-1.7605345e-06
-1.77557703e-06
-1.78743326e-06
-1.80148095e-06
-1.80549511e-06
-1.80061535e-06
-1.80721233e-06
-1.81115881e-06
-1.81841877e-06
-1.82870063e-06
-1.83515737e-06
-1.8741276e-06
-1.85236753e-06
-1.87160395e-06
-1.85626857e-06
-1.86083711e-06
-1.86813278e-06
-1.85886249e-06
-1.90364479e-06
-1.92765211e-06
-1.92934957e-06
-1.93374719e-06
-1.9725077e-06
-1.9441972e-06
-1.9539616e-06
-1.95650802e-06
-1.96290449e-06
-1.96783841e-06
-1.98340327e-06
-1.99110153e-06
-1.99607948e-06
-1.96001152e-06
-2.03244705e-06
-2.05027547e-06
-2.04938315e-06
-2.04572328e-06
-2.03023516e-06
-2.03376541e-06
-2.03556367e-06
-2.03748652e-06
-2.03688435e-06
-2.07082686e-06
-2.07322629e-06
-2.12325587e-06
-2.07720588e-06
-2.09824076e-06
-2.09503392e-06
)
;

boundaryField
{
    closed
    {
        type            calculated;
        value           nonuniform List<scalar> 0();
    }
    open
    {
        type            calculated;
        value           nonuniform List<scalar> 0();
    }
    sides
    {
        type            empty;
        value           nonuniform List<scalar> 0();
    }
    procBoundary1to0
    {
        type            processor;
        value           uniform 5.43339631e-07;
    }
    procBoundary1to2
    {
        type            processor;
        value           uniform -2.10098067e-06;
    }
}


// ************************************************************************* //
