/*--------------------------------*- C++ -*----------------------------------*\
| =========                 |                                                 |
| \\      /  F ield         | OpenFOAM: The Open Source CFD Toolbox           |
|  \\    /   O peration     | Version:  2306                                  |
|   \\  /    A nd           | Website:  www.openfoam.com                      |
|    \\/     M anipulation  |                                                 |
\*---------------------------------------------------------------------------*/
FoamFile
{
    version     2.0;
    format      ascii;
    arch        "LSB;label=32;scalar=64";
    class       volScalarField;
    location    "0.00032";
    object      alpha;
}
// * * * * * * * * * * * * * * * * * * * * * * * * * * * * * * * * * * * * * //

dimensions      [1 -1 -1 0 0 0 0];

internalField   nonuniform List<scalar> 
531
(
3.53961707e-05
3.52766272e-05
3.59305206e-05
3.6805734e-05
3.68050626e-05
3.52163919e-05
3.58005524e-05
3.6800681e-05
3.57258571e-05
3.54443919e-05
3.59969171e-05
3.6396061e-05
3.58088621e-05
3.57376315e-05
3.58296943e-05
3.59852463e-05
3.58512417e-05
3.57767883e-05
3.58222327e-05
3.5877649e-05
3.58459579e-05
3.58107865e-05
3.58233843e-05
3.58512062e-05
3.58457095e-05
3.58227222e-05
3.58235552e-05
3.58410313e-05
3.58427296e-05
3.58308743e-05
3.58271355e-05
3.58341746e-05
3.58392083e-05
3.58353394e-05
3.58300717e-05
3.5831484e-05
3.5836609e-05
3.58363996e-05
3.58323027e-05
3.58317735e-05
3.58345623e-05
3.58357305e-05
3.5833767e-05
3.58321483e-05
3.58335702e-05
3.58357331e-05
3.58347622e-05
3.58318825e-05
3.58322348e-05
3.58360581e-05
3.58360754e-05
3.58321096e-05
3.58312758e-05
3.58350814e-05
3.58369577e-05
3.58334429e-05
3.58303162e-05
3.58332813e-05
3.58384255e-05
3.58365294e-05
3.58280184e-05
3.58284273e-05
3.58407915e-05
3.58435386e-05
3.58285053e-05
3.58193462e-05
3.58342928e-05
3.5856425e-05
3.58442659e-05
3.58079189e-05
3.58108648e-05
3.58655932e-05
3.58729165e-05
3.58133606e-05
3.57923049e-05
3.58400336e-05
3.58936622e-05
3.58476548e-05
3.57864835e-05
3.58028636e-05
3.58896757e-05
3.5884483e-05
3.57989801e-05
3.57926831e-05
3.58547546e-05
3.58794109e-05
3.58288623e-05
3.58023935e-05
3.5828893e-05
3.58607581e-05
3.58443123e-05
3.58170055e-05
3.58228467e-05
3.58453371e-05
3.58440206e-05
3.58274438e-05
3.5827133e-05
3.58366332e-05
3.58383599e-05
3.58332613e-05
3.58311529e-05
3.58333378e-05
3.58354014e-05
3.5835074e-05
3.58335346e-05
3.58328378e-05
3.58329694e-05
3.5834411e-05
3.5835578e-05
3.58345457e-05
3.58316263e-05
3.5831881e-05
3.5836219e-05
3.58369688e-05
3.58324733e-05
3.58300931e-05
3.58338163e-05
3.58380439e-05
3.58356625e-05
3.5830055e-05
3.58307542e-05
3.58370865e-05
3.58371905e-05
3.58321906e-05
3.58310444e-05
3.58343566e-05
3.58360504e-05
3.58341484e-05
3.58325312e-05
3.58334167e-05
3.5834535e-05
3.5834186e-05
3.58336992e-05
3.58339719e-05
3.58340419e-05
3.58332576e-05
3.58332834e-05
3.58350944e-05
3.58353738e-05
3.58324939e-05
3.58311032e-05
3.58346488e-05
3.58383499e-05
3.58350823e-05
3.58279405e-05
3.58292824e-05
3.5841201e-05
3.58415118e-05
3.58282085e-05
3.58241235e-05
3.58363832e-05
3.58458387e-05
3.5835892e-05
3.58221543e-05
3.5827241e-05
3.58454296e-05
3.5844131e-05
3.58252798e-05
3.58235124e-05
3.58383999e-05
3.58443809e-05
3.5833652e-05
3.58248788e-05
3.58301921e-05
3.58416709e-05
3.58404569e-05
3.58289198e-05
3.5827049e-05
3.58344893e-05
3.58405424e-05
3.58379317e-05
3.58282261e-05
3.58280867e-05
3.58363681e-05
3.58405508e-05
3.58351188e-05
3.58274449e-05
3.58291991e-05
3.58400305e-05
3.58400285e-05
3.58301938e-05
3.58275259e-05
3.58350567e-05
3.58401803e-05
3.58349569e-05
3.58285177e-05
3.58312844e-05
3.58382864e-05
3.58372177e-05
3.58306498e-05
3.583081e-05
3.58361863e-05
3.58365241e-05
3.58321383e-05
3.58313711e-05
3.58354953e-05
3.58369502e-05
3.58326374e-05
3.58298437e-05
3.58339648e-05
3.58392348e-05
3.58361172e-05
3.58278338e-05
3.58287804e-05
3.58400217e-05
3.58410118e-05
3.58300976e-05
3.58259442e-05
3.58345446e-05
3.58422808e-05
3.58365093e-05
3.58265758e-05
3.58287902e-05
3.583992e-05
3.58396456e-05
3.58304352e-05
3.58291269e-05
3.58350619e-05
3.58372998e-05
3.58340001e-05
3.58320336e-05
3.58335089e-05
3.58345892e-05
3.58338603e-05
3.5833656e-05
3.58345738e-05
3.5834308e-05
3.58326282e-05
3.58328781e-05
3.5835429e-05
3.58353829e-05
3.58325788e-05
3.58322358e-05
3.58346795e-05
3.58354415e-05
3.5833601e-05
3.58326306e-05
3.58338606e-05
3.58348351e-05
3.58339987e-05
3.58331096e-05
3.58337987e-05
3.58347913e-05
3.58340991e-05
3.58325243e-05
3.58330034e-05
3.58360073e-05
3.58359379e-05
3.58314353e-05
3.58302203e-05
3.58356938e-05
3.58397074e-05
3.58342884e-05
3.58262532e-05
3.58295657e-05
3.58432474e-05
3.58424919e-05
3.58256595e-05
3.58229836e-05
3.58388027e-05
3.58470522e-05
3.58337689e-05
3.58213549e-05
3.58293384e-05
3.58457949e-05
3.58422628e-05
3.58246864e-05
3.58251149e-05
3.58398181e-05
3.5841874e-05
3.583142e-05
3.58277912e-05
3.58341337e-05
3.58383785e-05
3.58347914e-05
3.58309387e-05
3.58326271e-05
3.58357328e-05
3.58350754e-05
3.58328215e-05
3.58329545e-05
3.58344775e-05
3.58344822e-05
3.5833648e-05
3.58335243e-05
3.58339397e-05
3.58341101e-05
3.58339561e-05
3.58337582e-05
3.58337605e-05
3.58338619e-05
3.583405e-05
3.58340868e-05
3.58337714e-05
3.58334594e-05
3.58337798e-05
3.58346192e-05
3.58344918e-05
3.58328669e-05
3.58326492e-05
3.58348009e-05
3.58359504e-05
3.58336706e-05
3.58310101e-05
3.58327111e-05
3.58374101e-05
3.5836858e-05
3.58304189e-05
3.58298581e-05
3.58361238e-05
3.5838633e-05
3.58334633e-05
3.58292177e-05
3.58325298e-05
3.58380878e-05
3.58365718e-05
3.58306651e-05
3.58309273e-05
3.58359068e-05
3.58363718e-05
3.58330826e-05
3.58321133e-05
3.58339791e-05
3.58350191e-05
3.58340866e-05
3.58332543e-05
3.58336491e-05
3.58342037e-05
3.58340726e-05
3.58337441e-05
3.58337615e-05
3.58339229e-05
3.58339548e-05
3.5833947e-05
3.5833876e-05
3.5833749e-05
3.58337784e-05
3.58341185e-05
3.58341565e-05
3.5833638e-05
3.58333948e-05
3.58340135e-05
3.58346379e-05
3.58340784e-05
3.58329156e-05
3.58331689e-05
3.58350139e-05
3.5835002e-05
3.58329753e-05
3.58324894e-05
3.58343762e-05
3.58354695e-05
3.58339214e-05
3.58322783e-05
3.5833326e-05
3.58354122e-05
3.5834894e-05
3.58325853e-05
3.58326956e-05
3.58348273e-05
3.58349433e-05
3.58333869e-05
3.58331271e-05
3.58341687e-05
3.58343555e-05
3.58335088e-05
3.58335191e-05
3.58346159e-05
3.58345598e-05
3.58327149e-05
3.58326553e-05
3.58351758e-05
3.5835816e-05
3.58330358e-05
3.58313922e-05
3.58337328e-05
3.58366819e-05
3.58355825e-05
3.58312306e-05
3.58313065e-05
3.58352032e-05
3.58368004e-05
3.583489e-05
3.58311666e-05
3.58312877e-05
3.58350057e-05
3.58372752e-05
3.5835609e-05
3.58301441e-05
3.58302157e-05
3.58364836e-05
3.58389825e-05
3.58335091e-05
3.58281215e-05
3.58315814e-05
3.58399969e-05
3.58388538e-05
3.58284203e-05
3.58281393e-05
3.58373844e-05
3.58399577e-05
3.58326297e-05
3.58284075e-05
3.58332806e-05
3.58386089e-05
3.58357714e-05
3.58303081e-05
3.58314288e-05
3.5836461e-05
3.58362556e-05
3.58323506e-05
3.58320999e-05
3.58345591e-05
3.58351348e-05
3.58337112e-05
3.58330912e-05
3.58338376e-05
3.58343599e-05
3.58340036e-05
3.58336276e-05
3.58337776e-05
3.58340193e-05
3.58339654e-05
3.58338243e-05
3.58338392e-05
3.58339146e-05
3.58339124e-05
3.58338757e-05
3.58338757e-05
3.58338916e-05
3.58338921e-05
3.58338825e-05
3.58338823e-05
3.58338953e-05
3.58338979e-05
3.58338744e-05
3.58338595e-05
3.58338965e-05
3.58339473e-05
3.58339075e-05
3.58337732e-05
3.58337893e-05
3.58340611e-05
3.58341065e-05
3.58337087e-05
3.58334819e-05
3.58339597e-05
3.58345293e-05
3.58340966e-05
3.5832999e-05
3.5833188e-05
3.58349994e-05
3.58350229e-05
3.58328633e-05
3.58323021e-05
3.58346237e-05
3.58359718e-05
3.58336544e-05
3.58313009e-05
3.58333369e-05
3.58370956e-05
3.58356312e-05
3.58301342e-05
3.58306114e-05
3.58380796e-05
3.58386115e-05
3.58304225e-05
3.58278046e-05
3.58358323e-05
3.58415638e-05
3.58344871e-05
3.58255857e-05
3.58300374e-05
3.58426846e-05
3.58411703e-05
3.58262523e-05
3.58258713e-05
3.58390139e-05
3.58425636e-05
3.58316543e-05
3.58253464e-05
3.58343002e-05
3.58472022e-05
3.58413213e-05
3.58129581e-05
3.5814155e-05
3.58779086e-05
3.58999146e-05
3.57957772e-05
3.57452531e-05
3.58502185e-05
3.61878158e-05
3.58985863e-05
3.55961752e-05
3.56952613e-05
3.67858636e-05
3.67997344e-05
3.5727859e-05
3.53617676e-05
3.56938725e-05
3.61219205e-05
3.68174971e-05
3.64576967e-05
3.51056867e-05
3.51702726e-05
3.64170652e-05
3.67664498e-05
3.63131796e-05
3.51630609e-05
3.52870182e-05
3.66479405e-05
3.67713168e-05
3.58383656e-05
3.51120374e-05
3.57095722e-05
3.68538037e-05
3.68007077e-05
3.56980259e-05
3.52981867e-05
3.58188483e-05
3.68016011e-05
3.67544401e-05
3.51897537e-05
3.5187135e-05
3.6003576e-05
3.67938319e-05
3.67704129e-05
3.52591333e-05
3.57469097e-05
3.68154713e-05
3.63790433e-05
)
;

boundaryField
{
    closed
    {
        type            calculated;
        value           nonuniform List<scalar> 0();
    }
    open
    {
        type            calculated;
        value           nonuniform List<scalar> 0();
    }
    sides
    {
        type            empty;
    }
    procBoundary1to0
    {
        type            processor;
        value           uniform 3.67934007e-05;
    }
    procBoundary1to2
    {
        type            processor;
        value           uniform 3.52594235e-05;
    }
}


// ************************************************************************* //
