/*--------------------------------*- C++ -*----------------------------------*\
| =========                 |                                                 |
| \\      /  F ield         | OpenFOAM: The Open Source CFD Toolbox           |
|  \\    /   O peration     | Version:  2306                                  |
|   \\  /    A nd           | Website:  www.openfoam.com                      |
|    \\/     M anipulation  |                                                 |
\*---------------------------------------------------------------------------*/
FoamFile
{
    version     2.0;
    format      ascii;
    arch        "LSB;label=32;scalar=64";
    class       volScalarField;
    location    "0.00032";
    object      mu;
}
// * * * * * * * * * * * * * * * * * * * * * * * * * * * * * * * * * * * * * //

dimensions      [1 -1 -1 0 0 0 0];

internalField   nonuniform List<scalar> 
531
(
1.95921806e-05
1.95280594e-05
1.98430695e-05
2.02818365e-05
2.02591738e-05
1.94964893e-05
1.97883923e-05
2.02734023e-05
1.9765829e-05
1.96179218e-05
1.98716275e-05
2.00580823e-05
1.97889685e-05
1.97693765e-05
1.9797232e-05
1.98661602e-05
1.98062356e-05
1.97754527e-05
1.97937094e-05
1.98176717e-05
1.98037894e-05
1.97887992e-05
1.97940851e-05
1.98060201e-05
1.98036358e-05
1.9793779e-05
1.97941329e-05
1.98016074e-05
1.98023402e-05
1.97972469e-05
1.97956515e-05
1.97986592e-05
1.98008214e-05
1.97991586e-05
1.97969035e-05
1.9797507e-05
1.97997037e-05
1.97996137e-05
1.97978574e-05
1.97976309e-05
1.97988253e-05
1.97993265e-05
1.97984844e-05
1.97977913e-05
1.97984001e-05
1.97993275e-05
1.9798911e-05
1.97976775e-05
1.97978283e-05
1.9799467e-05
1.97994745e-05
1.97977747e-05
1.9797418e-05
1.9799048e-05
1.97998534e-05
1.97983456e-05
1.97970079e-05
1.97982765e-05
1.98004844e-05
1.97996697e-05
1.97960272e-05
1.97962021e-05
1.98015031e-05
1.98026886e-05
1.97962356e-05
1.97923454e-05
1.9798712e-05
1.98082757e-05
1.98030043e-05
1.97875385e-05
1.97887761e-05
1.98122763e-05
1.98154906e-05
1.97898221e-05
1.97810879e-05
1.98011796e-05
1.98246473e-05
1.98044678e-05
1.97787169e-05
1.97854278e-05
1.98228801e-05
1.98205816e-05
1.97838332e-05
1.97812411e-05
1.9807552e-05
1.98183481e-05
1.9796389e-05
1.97852443e-05
1.97963999e-05
1.98101664e-05
1.98030211e-05
1.97913577e-05
1.97938269e-05
1.98034658e-05
1.98028963e-05
1.97957829e-05
1.97956504e-05
1.97997143e-05
1.98004565e-05
1.97982678e-05
1.97973657e-05
1.97983005e-05
1.97991853e-05
1.97990447e-05
1.97983849e-05
1.97980864e-05
1.97981428e-05
1.97987605e-05
1.9799261e-05
1.97988182e-05
1.97975679e-05
1.97976769e-05
1.97995361e-05
1.97998582e-05
1.97979304e-05
1.97969125e-05
1.97985056e-05
1.98003201e-05
1.97992972e-05
1.97968962e-05
1.9797195e-05
1.97999087e-05
1.97999534e-05
1.97978094e-05
1.97973191e-05
1.97987371e-05
1.97994638e-05
1.97986478e-05
1.97979551e-05
1.97983343e-05
1.97988136e-05
1.9798664e-05
1.97984553e-05
1.97985722e-05
1.97986022e-05
1.97982662e-05
1.97982772e-05
1.97990535e-05
1.97991734e-05
1.97979392e-05
1.97973443e-05
1.97988625e-05
1.98004518e-05
1.97990485e-05
1.97959938e-05
1.97965665e-05
1.98016791e-05
1.98018133e-05
1.97961081e-05
1.9794369e-05
1.97996068e-05
1.98036811e-05
1.97993959e-05
1.97935328e-05
1.97956954e-05
1.98035042e-05
1.9802943e-05
1.97948608e-05
1.97941094e-05
1.98004735e-05
1.98030512e-05
1.97984353e-05
1.97946902e-05
1.97969548e-05
1.98018818e-05
1.98013585e-05
1.97964118e-05
1.97956138e-05
1.97987943e-05
1.98013955e-05
1.98002719e-05
1.97961156e-05
1.97960561e-05
1.97996003e-05
1.9801399e-05
1.97990641e-05
1.97957825e-05
1.97965307e-05
1.98011749e-05
1.98011741e-05
1.97969556e-05
1.9795817e-05
1.97990374e-05
1.98012394e-05
1.97989945e-05
1.979624e-05
1.97974216e-05
1.98004245e-05
1.9799965e-05
1.97971504e-05
1.97972189e-05
1.97995221e-05
1.97996672e-05
1.9797787e-05
1.97974588e-05
1.97992255e-05
1.97998502e-05
1.97980006e-05
1.9796806e-05
1.97985692e-05
1.98008324e-05
1.97994925e-05
1.97959482e-05
1.97963521e-05
1.98011711e-05
1.98015976e-05
1.97969145e-05
1.97951433e-05
1.97988178e-05
1.98021447e-05
1.97996607e-05
1.97954122e-05
1.9796356e-05
1.98011274e-05
1.98010092e-05
1.97970588e-05
1.97964999e-05
1.97990396e-05
1.98000004e-05
1.97985843e-05
1.97977422e-05
1.97983738e-05
1.97988369e-05
1.97985244e-05
1.97984368e-05
1.97988303e-05
1.97987163e-05
1.97979966e-05
1.97981036e-05
1.9799197e-05
1.97991773e-05
1.97979755e-05
1.97978287e-05
1.97988756e-05
1.97992024e-05
1.97984133e-05
1.97979977e-05
1.97985245e-05
1.97989423e-05
1.97985837e-05
1.97982028e-05
1.9798498e-05
1.97989235e-05
1.97986267e-05
1.97979522e-05
1.97981573e-05
1.97994452e-05
1.97994156e-05
1.97974862e-05
1.9796967e-05
1.97993108e-05
1.9801036e-05
1.97987081e-05
1.97952749e-05
1.97966874e-05
1.98025615e-05
1.98022358e-05
1.97950221e-05
1.97938848e-05
1.98006467e-05
1.9804206e-05
1.97984854e-05
1.97931939e-05
1.97965901e-05
1.98036623e-05
1.98021366e-05
1.97946083e-05
1.97947903e-05
1.98010838e-05
1.98019694e-05
1.97974798e-05
1.97959303e-05
1.97986416e-05
1.98004642e-05
1.97989235e-05
1.9797274e-05
1.97979962e-05
1.97993275e-05
1.97990454e-05
1.97980794e-05
1.97981364e-05
1.97987889e-05
1.9798791e-05
1.97984334e-05
1.97983804e-05
1.97985584e-05
1.97986314e-05
1.97985654e-05
1.97984806e-05
1.97984816e-05
1.97985251e-05
1.97986057e-05
1.97986214e-05
1.97984863e-05
1.97983526e-05
1.97984899e-05
1.97988497e-05
1.97987951e-05
1.97980988e-05
1.97980057e-05
1.97989276e-05
1.97994208e-05
1.97984431e-05
1.97973044e-05
1.97980322e-05
1.98000477e-05
1.97998105e-05
1.97970517e-05
1.97968121e-05
1.97994953e-05
1.98005735e-05
1.97983543e-05
1.97965387e-05
1.97979545e-05
1.98003391e-05
1.97996876e-05
1.97971569e-05
1.9797269e-05
1.97994022e-05
1.97996017e-05
1.97981912e-05
1.97977763e-05
1.97985753e-05
1.97990212e-05
1.97986213e-05
1.97982648e-05
1.97984339e-05
1.97986716e-05
1.97986154e-05
1.97984746e-05
1.9798482e-05
1.97985512e-05
1.97985649e-05
1.97985615e-05
1.97985311e-05
1.97984767e-05
1.97984893e-05
1.9798635e-05
1.97986513e-05
1.97984291e-05
1.97983249e-05
1.979859e-05
1.97988577e-05
1.97986178e-05
1.97981197e-05
1.97982282e-05
1.9799019e-05
1.97990139e-05
1.97981452e-05
1.97979372e-05
1.97987455e-05
1.97992144e-05
1.97985505e-05
1.97978469e-05
1.97982955e-05
1.97991898e-05
1.97989675e-05
1.97979783e-05
1.97980255e-05
1.97989389e-05
1.97989887e-05
1.97983215e-05
1.97982103e-05
1.97986566e-05
1.97987366e-05
1.97983738e-05
1.97983782e-05
1.97988483e-05
1.97988242e-05
1.97980338e-05
1.97980082e-05
1.97990884e-05
1.97993631e-05
1.97981712e-05
1.97974678e-05
1.97984698e-05
1.97997349e-05
1.97992629e-05
1.97973987e-05
1.97974311e-05
1.97991002e-05
1.97997858e-05
1.97989659e-05
1.97973713e-05
1.97974231e-05
1.97990155e-05
1.97999898e-05
1.97992743e-05
1.97969343e-05
1.97969649e-05
1.97996498e-05
1.98007239e-05
1.9798374e-05
1.97960709e-05
1.97975487e-05
1.98011604e-05
1.98006684e-05
1.97961984e-05
1.97960785e-05
1.98000368e-05
1.98011436e-05
1.97979973e-05
1.9796193e-05
1.9798276e-05
1.98005632e-05
1.9799344e-05
1.97970044e-05
1.97974834e-05
1.97996401e-05
1.97995519e-05
1.97978778e-05
1.97977706e-05
1.9798824e-05
1.97990708e-05
1.97984605e-05
1.97981949e-05
1.97985146e-05
1.97987385e-05
1.97985858e-05
1.97984247e-05
1.9798489e-05
1.97985925e-05
1.97985694e-05
1.97985089e-05
1.97985154e-05
1.97985476e-05
1.97985467e-05
1.9798531e-05
1.9798531e-05
1.97985378e-05
1.9798538e-05
1.97985339e-05
1.97985338e-05
1.97985394e-05
1.97985405e-05
1.97985304e-05
1.97985241e-05
1.97985399e-05
1.97985617e-05
1.97985446e-05
1.97984871e-05
1.9798494e-05
1.97986104e-05
1.97986299e-05
1.97984594e-05
1.97983623e-05
1.9798567e-05
1.97988111e-05
1.97986257e-05
1.97981554e-05
1.97982364e-05
1.97990128e-05
1.97990228e-05
1.97980973e-05
1.9797857e-05
1.97988516e-05
1.979943e-05
1.97984362e-05
1.97974288e-05
1.97983002e-05
1.97999126e-05
1.97992839e-05
1.97969301e-05
1.9797134e-05
1.98003355e-05
1.98005644e-05
1.97970533e-05
1.9795936e-05
1.97993703e-05
1.98018357e-05
1.97987934e-05
1.97949911e-05
1.97968894e-05
1.98023198e-05
1.98016674e-05
1.97952776e-05
1.97951167e-05
1.98007447e-05
1.98022767e-05
1.97975987e-05
1.97949179e-05
1.97987568e-05
1.98043306e-05
1.98018269e-05
1.97898338e-05
1.97904246e-05
1.98179064e-05
1.98277299e-05
1.97832671e-05
1.97656092e-05
1.98062873e-05
1.99597599e-05
1.98273092e-05
1.96988308e-05
1.9753171e-05
2.02574656e-05
2.02751725e-05
1.97643416e-05
1.95736046e-05
1.97521069e-05
1.99292149e-05
2.02903193e-05
2.00883119e-05
1.94363562e-05
1.94708401e-05
2.00674633e-05
2.0257448e-05
2.0019053e-05
1.94661399e-05
1.95334136e-05
2.01783963e-05
2.02577498e-05
1.97993852e-05
1.94407504e-05
1.97518764e-05
2.03130241e-05
2.02727527e-05
1.97556267e-05
1.95396628e-05
1.97959549e-05
2.02794775e-05
2.0231189e-05
1.94816985e-05
1.94793969e-05
1.98756146e-05
2.02746689e-05
2.02391612e-05
1.95190957e-05
1.97788648e-05
2.02863311e-05
2.00506542e-05
)
;

boundaryField
{
    closed
    {
        type            calculated;
        value           nonuniform List<scalar> 0();
    }
    open
    {
        type            calculated;
        value           nonuniform List<scalar> 0();
    }
    sides
    {
        type            empty;
    }
    procBoundary1to0
    {
        type            processor;
        value           uniform 2.02664971e-05;
    }
    procBoundary1to2
    {
        type            processor;
        value           uniform 1.95194457e-05;
    }
}


// ************************************************************************* //
