/*--------------------------------*- C++ -*----------------------------------*\
| =========                 |                                                 |
| \\      /  F ield         | OpenFOAM: The Open Source CFD Toolbox           |
|  \\    /   O peration     | Version:  2306                                  |
|   \\  /    A nd           | Website:  www.openfoam.com                      |
|    \\/     M anipulation  |                                                 |
\*---------------------------------------------------------------------------*/
FoamFile
{
    version     2.0;
    format      ascii;
    arch        "LSB;label=32;scalar=64";
    class       volScalarField;
    location    "0.00032";
    object      prefDZ_H2;
}
// * * * * * * * * * * * * * * * * * * * * * * * * * * * * * * * * * * * * * //

dimensions      [1 -1 -1 0 0 0 0];

internalField   nonuniform List<scalar> 
531
(
6.18642427e-05
6.16892734e-05
6.24320903e-05
6.35291092e-05
6.34181319e-05
6.16043027e-05
6.23288101e-05
6.34935513e-05
6.232458e-05
6.19342741e-05
6.24880905e-05
6.2919414e-05
6.23168156e-05
6.23252587e-05
6.23301222e-05
6.24752397e-05
6.23467635e-05
6.22911518e-05
6.23217327e-05
6.23697068e-05
6.2341137e-05
6.23120494e-05
6.23219411e-05
6.23454274e-05
6.23406211e-05
6.2321239e-05
6.23219207e-05
6.23365346e-05
6.23379949e-05
6.23279377e-05
6.23248345e-05
6.23307028e-05
6.233497e-05
6.23316844e-05
6.23272661e-05
6.23284438e-05
6.23327588e-05
6.23325811e-05
6.23291296e-05
6.23286862e-05
6.23310287e-05
6.2332015e-05
6.23303588e-05
6.2329e-05
6.23301933e-05
6.2332017e-05
6.23311971e-05
6.23287773e-05
6.23290724e-05
6.23322919e-05
6.23323066e-05
6.23289675e-05
6.23282699e-05
6.23314666e-05
6.23330543e-05
6.23300867e-05
6.23274694e-05
6.23299515e-05
6.2334302e-05
6.2332693e-05
6.23255605e-05
6.23259029e-05
6.23363226e-05
6.23386862e-05
6.23259693e-05
6.2318479e-05
6.23308158e-05
6.23499348e-05
6.23393239e-05
6.23094258e-05
6.23117506e-05
6.23580965e-05
6.23647343e-05
6.23137031e-05
6.22977902e-05
6.23356936e-05
6.23838525e-05
6.23422454e-05
6.22936634e-05
6.23055184e-05
6.23801311e-05
6.23753039e-05
6.23026877e-05
6.22980528e-05
6.23484811e-05
6.23706633e-05
6.23262724e-05
6.23052368e-05
6.23262836e-05
6.23537927e-05
6.23393425e-05
6.23166057e-05
6.23213087e-05
6.23402404e-05
6.2339099e-05
6.23250895e-05
6.23248321e-05
6.2332781e-05
6.2334248e-05
6.23299341e-05
6.23281685e-05
6.2329998e-05
6.23317372e-05
6.23314602e-05
6.23301637e-05
6.2329578e-05
6.23296886e-05
6.23309012e-05
6.23318859e-05
6.23310148e-05
6.23285628e-05
6.23287761e-05
6.23324281e-05
6.23330635e-05
6.23292723e-05
6.23272828e-05
6.23304004e-05
6.23339762e-05
6.23319572e-05
6.23272509e-05
6.23278338e-05
6.23331632e-05
6.23332514e-05
6.23290355e-05
6.23280765e-05
6.23308553e-05
6.23322855e-05
6.23306798e-05
6.23293209e-05
6.23300642e-05
6.23310057e-05
6.23307115e-05
6.23303018e-05
6.23305313e-05
6.23305902e-05
6.23299306e-05
6.23299523e-05
6.23314775e-05
6.23317137e-05
6.23292897e-05
6.23281261e-05
6.2331102e-05
6.23342372e-05
6.23314683e-05
6.23254948e-05
6.23266092e-05
6.23366703e-05
6.23369381e-05
6.2325717e-05
6.23223513e-05
6.23325683e-05
6.23406641e-05
6.23321523e-05
6.23207423e-05
6.23249149e-05
6.23403098e-05
6.2339188e-05
6.23233008e-05
6.23218511e-05
6.23342811e-05
6.23394054e-05
6.23302633e-05
6.23229711e-05
6.23273652e-05
6.23370741e-05
6.23360334e-05
6.23263084e-05
6.23247575e-05
6.23309688e-05
6.23361075e-05
6.2333881e-05
6.23257315e-05
6.23256157e-05
6.23325556e-05
6.23361143e-05
6.23314988e-05
6.23250846e-05
6.23265385e-05
6.23356694e-05
6.23356676e-05
6.23273674e-05
6.23251516e-05
6.2331446e-05
6.23357976e-05
6.23313613e-05
6.23259733e-05
6.23282766e-05
6.23341829e-05
6.23332743e-05
6.23277474e-05
6.23278809e-05
6.23324007e-05
6.23326868e-05
6.23289917e-05
6.23283498e-05
6.23318161e-05
6.23330481e-05
6.23294101e-05
6.23270756e-05
6.23305257e-05
6.23349905e-05
6.23323425e-05
6.23254059e-05
6.23261913e-05
6.23356617e-05
6.23365088e-05
6.23272871e-05
6.23238459e-05
6.23310142e-05
6.23375968e-05
6.23326738e-05
6.23243667e-05
6.23261982e-05
6.23355754e-05
6.23353406e-05
6.23275689e-05
6.23264792e-05
6.23314505e-05
6.23333447e-05
6.2330555e-05
6.23289043e-05
6.23301418e-05
6.23310516e-05
6.23304374e-05
6.23302655e-05
6.23310383e-05
6.23308143e-05
6.23294021e-05
6.23296118e-05
6.23317599e-05
6.2331721e-05
6.23293607e-05
6.23290731e-05
6.23311274e-05
6.23317705e-05
6.23302191e-05
6.23294041e-05
6.23304375e-05
6.23312586e-05
6.23305538e-05
6.23298062e-05
6.23303855e-05
6.23312217e-05
6.23306384e-05
6.23293151e-05
6.23297173e-05
6.2332249e-05
6.23321908e-05
6.23284032e-05
6.23273898e-05
6.23319843e-05
6.23353945e-05
6.23307992e-05
6.2324101e-05
6.2326845e-05
6.23384267e-05
6.23377789e-05
6.23236114e-05
6.2321419e-05
6.23346232e-05
6.23417156e-05
6.23303615e-05
6.23200924e-05
6.23266541e-05
6.23406267e-05
6.23375794e-05
6.23228131e-05
6.23231636e-05
6.233549e-05
6.23372487e-05
6.23283915e-05
6.23253724e-05
6.23306678e-05
6.2334262e-05
6.23312217e-05
6.23279888e-05
6.23294012e-05
6.23320171e-05
6.23314615e-05
6.23295645e-05
6.2329676e-05
6.23309571e-05
6.23309611e-05
6.23302587e-05
6.23301547e-05
6.23305041e-05
6.23306476e-05
6.23305179e-05
6.23303514e-05
6.23303533e-05
6.23304386e-05
6.23305969e-05
6.23306279e-05
6.23303625e-05
6.23301002e-05
6.23303696e-05
6.23310765e-05
6.23309692e-05
6.23296024e-05
6.23294199e-05
6.23312298e-05
6.23322009e-05
6.23302779e-05
6.23280478e-05
6.23294719e-05
6.23334376e-05
6.23329695e-05
6.23275542e-05
6.2327087e-05
6.23323477e-05
6.23344775e-05
6.23301036e-05
6.23265543e-05
6.23293195e-05
6.23340137e-05
6.23327266e-05
6.23277599e-05
6.23279785e-05
6.23321642e-05
6.23325576e-05
6.23297837e-05
6.23289707e-05
6.23305373e-05
6.2331414e-05
6.23306277e-05
6.23299278e-05
6.23302596e-05
6.23307264e-05
6.2330616e-05
6.23303395e-05
6.23303542e-05
6.233049e-05
6.23305168e-05
6.23305102e-05
6.23304505e-05
6.23303436e-05
6.23303684e-05
6.23306547e-05
6.23306867e-05
6.23302503e-05
6.23300458e-05
6.23305662e-05
6.23310922e-05
6.23306208e-05
6.23296433e-05
6.2329856e-05
6.23314095e-05
6.23313994e-05
6.23296934e-05
6.23292857e-05
6.23308718e-05
6.23317942e-05
6.23304887e-05
6.23291088e-05
6.2329988e-05
6.23317457e-05
6.23313082e-05
6.23293661e-05
6.23294587e-05
6.23312521e-05
6.23313499e-05
6.23300392e-05
6.23298209e-05
6.2330697e-05
6.23308543e-05
6.23301416e-05
6.23301503e-05
6.23310737e-05
6.23310265e-05
6.23294748e-05
6.23294249e-05
6.23315461e-05
6.23320871e-05
6.23297443e-05
6.2328367e-05
6.23303301e-05
6.233282e-05
6.23318897e-05
6.23282319e-05
6.23282954e-05
6.23315696e-05
6.23329206e-05
6.23313051e-05
6.23281785e-05
6.23282798e-05
6.2331403e-05
6.23333233e-05
6.23319125e-05
6.23273251e-05
6.23273852e-05
6.23326524e-05
6.23347754e-05
6.23301424e-05
6.23256446e-05
6.23285254e-05
6.23356405e-05
6.23346652e-05
6.23258923e-05
6.23256592e-05
6.23334164e-05
6.23356073e-05
6.23294037e-05
6.23258819e-05
6.23299499e-05
6.23344573e-05
6.23320492e-05
6.23274623e-05
6.23283975e-05
6.23326333e-05
6.23324592e-05
6.23291696e-05
6.23289595e-05
6.2331026e-05
6.23315116e-05
6.23303119e-05
6.23297908e-05
6.23304182e-05
6.2330858e-05
6.23305579e-05
6.23302416e-05
6.23303677e-05
6.23305711e-05
6.23305258e-05
6.2330407e-05
6.23304196e-05
6.2330483e-05
6.23304811e-05
6.23304502e-05
6.23304502e-05
6.23304636e-05
6.23304641e-05
6.23304559e-05
6.23304558e-05
6.23304667e-05
6.23304689e-05
6.23304492e-05
6.23304367e-05
6.23304677e-05
6.23305105e-05
6.2330477e-05
6.2330364e-05
6.23303776e-05
6.23306063e-05
6.23306445e-05
6.23303097e-05
6.2330119e-05
6.23305209e-05
6.23310007e-05
6.23306363e-05
6.23297133e-05
6.23298721e-05
6.23313973e-05
6.23314171e-05
6.23295994e-05
6.23291288e-05
6.23310804e-05
6.2332219e-05
6.23302642e-05
6.23282909e-05
6.23299974e-05
6.23331711e-05
6.23319311e-05
6.23273171e-05
6.23277154e-05
6.23340068e-05
6.233446e-05
6.23275578e-05
6.23253831e-05
6.2332102e-05
6.23369829e-05
6.23309674e-05
6.23235537e-05
6.23272408e-05
6.23379501e-05
6.23366539e-05
6.23241204e-05
6.23238149e-05
6.23348496e-05
6.23379054e-05
6.23287082e-05
6.23235424e-05
6.23310923e-05
6.23422351e-05
6.23373977e-05
6.23145517e-05
6.23160634e-05
6.23707366e-05
6.23917527e-05
6.23051533e-05
6.22876483e-05
6.23490928e-05
6.26879506e-05
6.23916257e-05
6.21541805e-05
6.23013476e-05
6.34325962e-05
6.35033981e-05
6.23116478e-05
6.18133654e-05
6.22972428e-05
6.26188049e-05
6.35569456e-05
6.29939335e-05
6.14389122e-05
6.15328029e-05
6.29400674e-05
6.34555667e-05
6.28274374e-05
6.15185963e-05
6.17035333e-05
6.32078407e-05
6.34512831e-05
6.23272456e-05
6.14525412e-05
6.22671134e-05
6.36257451e-05
6.34903176e-05
6.23116172e-05
6.17210032e-05
6.23425568e-05
6.352239e-05
6.33405229e-05
6.15631156e-05
6.15553625e-05
6.25014445e-05
6.3507917e-05
6.33607311e-05
6.16654849e-05
6.23675121e-05
6.35397027e-05
6.29033559e-05
)
;

boundaryField
{
    closed
    {
        type            calculated;
        value           nonuniform List<scalar> 0();
    }
    open
    {
        type            calculated;
        value           nonuniform List<scalar> 0();
    }
    sides
    {
        type            empty;
    }
    procBoundary1to0
    {
        type            processor;
        value           uniform 6.3468165e-05;
    }
    procBoundary1to2
    {
        type            processor;
        value           uniform 6.16667521e-05;
    }
}


// ************************************************************************* //
