/*--------------------------------*- C++ -*----------------------------------*\
| =========                 |                                                 |
| \\      /  F ield         | OpenFOAM: The Open Source CFD Toolbox           |
|  \\    /   O peration     | Version:  2306                                  |
|   \\  /    A nd           | Website:  www.openfoam.com                      |
|    \\/     M anipulation  |                                                 |
\*---------------------------------------------------------------------------*/
FoamFile
{
    version     2.0;
    format      ascii;
    arch        "LSB;label=32;scalar=64";
    class       volScalarField;
    location    "0.00032";
    object      Z;
}
// * * * * * * * * * * * * * * * * * * * * * * * * * * * * * * * * * * * * * //

dimensions      [0 0 0 0 0 0 0];

internalField   nonuniform List<scalar> 
531
(
0.0147816277
0.0148094064
0.0144221304
0.0140856741
0.0141452914
0.0148187638
0.0145220204
0.0141016829
0.0146585894
0.0147712193
0.0143765887
0.0142335559
0.0144895239
0.0146369813
0.0144690449
0.0143805913
0.0144519398
0.0145139466
0.0144713441
0.0144345643
0.0144540018
0.0144792865
0.0144694862
0.0144501725
0.0144537533
0.0144697486
0.0144691395
0.0144568087
0.0144556674
0.0144638287
0.0144665
0.0144615076
0.0144580382
0.0144606965
0.0144643945
0.0144633931
0.0144598188
0.0144599628
0.0144628171
0.0144631894
0.0144612364
0.0144604255
0.0144617908
0.0144629254
0.0144619283
0.0144604236
0.0144610973
0.0144631124
0.0144628645
0.0144601986
0.0144601867
0.0144629526
0.0144635405
0.0144608756
0.0144595782
0.0144620178
0.0144642203
0.0144621316
0.0144585714
0.0144598758
0.0144658597
0.0144655716
0.0144569618
0.0144551179
0.0144655182
0.0144722219
0.0144614436
0.0144466989
0.0144546461
0.0144810032
0.0144787255
0.0144409363
0.0144365003
0.0144767727
0.0144940491
0.0144575026
0.014424387
0.0144523805
0.0144992161
0.0144850286
0.0144266473
0.0144296207
0.0144883609
0.0144937059
0.0144477953
0.0144326285
0.0144652725
0.0144855167
0.014465231
0.0144439751
0.0144545859
0.0144739932
0.0144696131
0.0144539204
0.0144547918
0.0144662786
0.0144665014
0.0144598044
0.0144586188
0.0144621451
0.014463629
0.0144620908
0.0144606541
0.0144608805
0.0144619535
0.0144624411
0.0144623489
0.0144613417
0.014460531
0.014461248
0.0144632928
0.0144631136
0.0144600873
0.0144595702
0.014462697
0.0144643777
0.0144617564
0.0144588312
0.0144604722
0.0144644047
0.0144639086
0.0144594892
0.0144594174
0.0144628959
0.0144637039
0.0144613796
0.0144602041
0.0144615246
0.0144626564
0.0144620355
0.0144612553
0.0144614984
0.0144618382
0.0144616477
0.0144615989
0.014462147
0.0144621291
0.0144608665
0.0144606729
0.0144626826
0.014463663
0.0144611768
0.0144586225
0.0144608762
0.0144659139
0.014464956
0.0144566805
0.0144564725
0.0144657221
0.0144686764
0.0144599755
0.0144535731
0.0144603147
0.0144701197
0.0144664147
0.0144538444
0.0144547094
0.0144678354
0.0144691229
0.0144585902
0.0144545451
0.0144618727
0.0144681266
0.0144643073
0.0144563645
0.0144571848
0.0144652152
0.0144665547
0.0144612895
0.014457128
0.0144589084
0.0144657093
0.0144658088
0.0144599861
0.0144571218
0.0144608505
0.0144662695
0.0144650133
0.014457475
0.0144574762
0.0144643072
0.0144662113
0.0144608932
0.0144573735
0.0144609619
0.0144655008
0.0144635338
0.0144586657
0.0144593986
0.0144639835
0.0144638699
0.0144601104
0.0144598772
0.0144629326
0.0144634736
0.0144605884
0.0144595836
0.0144625819
0.0144645556
0.0144616533
0.0144580172
0.0144601585
0.0144659897
0.0144653128
0.0144574806
0.0144568094
0.0144643752
0.0144673517
0.0144612494
0.0144559522
0.0144598868
0.0144668956
0.0144653042
0.0144575507
0.0144577366
0.0144641363
0.0144650658
0.0144608896
0.0144593431
0.0144616282
0.0144630067
0.0144619711
0.0144612179
0.0144617256
0.0144618684
0.0144612283
0.0144614134
0.0144625881
0.0144624127
0.0144606341
0.0144606661
0.0144626227
0.0144628637
0.0144611547
0.0144606255
0.0144619067
0.0144625864
0.0144617254
0.0144610466
0.014461629
0.0144622506
0.0144617687
0.0144610771
0.0144615591
0.0144626612
0.0144623253
0.0144602339
0.0144602825
0.014463428
0.0144642887
0.0144604515
0.0144576962
0.0144614289
0.014467129
0.0144647543
0.0144553011
0.0144558112
0.0144675576
0.0144695104
0.0144583136
0.0144527691
0.014461791
0.0144707102
0.0144649138
0.0144536027
0.0144559617
0.0144682663
0.014467953
0.0144576223
0.0144562279
0.0144634402
0.0144660226
0.0144615353
0.0144586036
0.0144610769
0.0144637795
0.0144625889
0.0144604242
0.0144608796
0.0144624527
0.0144623593
0.0144612953
0.0144612921
0.0144618739
0.0144619603
0.0144616701
0.0144615513
0.0144616587
0.0144617968
0.0144617952
0.0144617244
0.0144615932
0.0144615675
0.0144617876
0.0144620057
0.0144617818
0.0144611967
0.0144612854
0.0144624206
0.0144625735
0.0144610703
0.0144602733
0.0144618583
0.0144637281
0.0144625302
0.0144592663
0.0144596465
0.0144641464
0.0144645447
0.0144601533
0.0144584278
0.0144620032
0.0144650004
0.0144626571
0.0144588013
0.0144598434
0.0144639723
0.0144637865
0.0144603036
0.014459982
0.0144622696
0.0144629501
0.0144616427
0.0144609188
0.0144615677
0.0144621493
0.014461873
0.014461486
0.0144615774
0.0144618067
0.0144617945
0.0144616818
0.0144616596
0.014461665
0.0144617146
0.0144618033
0.0144617827
0.0144615454
0.0144615189
0.0144618808
0.0144620509
0.0144616186
0.0144611837
0.0144615734
0.0144623865
0.014462209
0.0144609222
0.0144609305
0.0144623446
0.0144626855
0.0144613658
0.0144606061
0.0144616829
0.0144628338
0.0144620989
0.0144606458
0.0144610055
0.0144626182
0.0144625407
0.0144610519
0.0144609713
0.0144620564
0.0144622383
0.0144615104
0.0144613803
0.0144619712
0.014461964
0.014461199
0.0144612381
0.0144625272
0.0144625691
0.0144608098
0.0144603661
0.0144623022
0.014463458
0.0144618147
0.0144597678
0.0144605277
0.014463572
0.0144635185
0.0144607912
0.0144596861
0.0144610086
0.0144636173
0.0144635319
0.0144609287
0.0144593593
0.01446051
0.0144643413
0.0144642911
0.0144599051
0.0144581893
0.0144619716
0.0144657838
0.0144633247
0.0144574976
0.0144582766
0.01446557
0.014465771
0.0144592848
0.0144575246
0.0144625875
0.0144655794
0.0144621307
0.0144584449
0.0144603967
0.0144642256
0.0144634321
0.0144599206
0.0144600622
0.0144627834
0.0144629596
0.0144612385
0.0144608384
0.0144618297
0.0144622635
0.0144617414
0.0144613772
0.0144616255
0.0144618881
0.0144617833
0.0144616146
0.0144616522
0.0144617507
0.0144617402
0.0144616876
0.0144616892
0.0144617148
0.0144617148
0.0144617037
0.0144617033
0.0144617101
0.0144617102
0.0144617011
0.0144616993
0.0144617157
0.0144617261
0.0144617003
0.0144616648
0.0144616926
0.0144617863
0.0144617751
0.0144615854
0.0144615538
0.0144618314
0.0144619899
0.0144616562
0.0144612592
0.0144615607
0.014462328
0.0144621956
0.0144609323
0.014460916
0.0144624232
0.0144628173
0.0144611936
0.0144602585
0.0144618695
0.0144635228
0.0144620916
0.0144594831
0.0144604945
0.0144643487
0.0144640108
0.0144588071
0.0144584437
0.0144641447
0.0144660126
0.0144603563
0.0144564378
0.0144612917
0.0144676154
0.0144644234
0.0144556891
0.0144567149
0.0144671575
0.0144674447
0.0144582333
0.0144558522
0.0144634414
0.0144680456
0.0144618111
0.0144532046
0.0144574581
0.0144787024
0.0144785641
0.0144354874
0.0144236261
0.0144978117
0.0145687688
0.0144570414
0.0142991752
0.0144258848
0.0147393616
0.0146839806
0.0141240693
0.0140954958
0.0146362225
0.014790452
0.0146807545
0.0143248891
0.014079081
0.0142239979
0.0148488427
0.0148349734
0.0142221605
0.014096874
0.0142606445
0.0148414932
0.0148083894
0.014165634
0.0141030086
0.0144490025
0.0148416204
0.0146075736
0.0140685436
0.0141034895
0.0146934192
0.0148041604
0.0145067685
0.0140862666
0.0141536123
0.014828035
0.0148340085
0.0143820803
0.014088427
0.0141522734
0.0148108136
0.0146797863
0.0140872265
0.0142443006
)
;

boundaryField
{
    closed
    {
        type            zeroGradient;
    }
    open
    {
        type            zeroGradient;
    }
    sides
    {
        type            empty;
    }
    procBoundary1to0
    {
        type            processor;
        value           uniform 0.0141102313;
    }
    procBoundary1to2
    {
        type            processor;
        value           uniform 0.0148095133;
    }
}


// ************************************************************************* //
