/*--------------------------------*- C++ -*----------------------------------*\
| =========                 |                                                 |
| \\      /  F ield         | OpenFOAM: The Open Source CFD Toolbox           |
|  \\    /   O peration     | Version:  2306                                  |
|   \\  /    A nd           | Website:  www.openfoam.com                      |
|    \\/     M anipulation  |                                                 |
\*---------------------------------------------------------------------------*/
FoamFile
{
    version     2.0;
    format      ascii;
    arch        "LSB;label=32;scalar=64";
    class       volScalarField;
    location    "0.00134";
    object      prefDPV_H2;
}
// * * * * * * * * * * * * * * * * * * * * * * * * * * * * * * * * * * * * * //

dimensions      [1 -1 -1 0 0 0 0];

internalField   nonuniform List<scalar> 
531
(
-3.15400018e-05
-3.09399624e-05
-3.06889332e-05
-3.14745344e-05
-3.15200633e-05
-3.09153894e-05
-3.0591083e-05
-3.05982167e-05
-3.14749149e-05
-3.15216112e-05
-3.09132301e-05
-3.05551774e-05
-3.05634598e-05
-3.14668792e-05
-3.15395132e-05
-3.09446784e-05
-3.07548923e-05
-3.14804762e-05
-3.15408823e-05
-3.09230794e-05
-3.08115702e-05
-3.07597859e-05
-3.06928307e-05
-3.04142484e-05
-3.04201095e-05
-3.14605345e-05
-3.1536634e-05
-3.14913671e-05
-3.15462303e-05
-3.09259376e-05
-3.07542624e-05
-3.14893706e-05
-3.15503506e-05
-3.09151258e-05
-3.08268615e-05
-3.06595838e-05
-3.06613871e-05
-3.14874535e-05
-3.09091547e-05
-3.0584406e-05
-3.14875408e-05
-3.15101077e-05
-3.0964645e-05
-3.06305418e-05
-3.0634914e-05
-3.14547253e-05
-3.15498322e-05
-3.08525094e-05
-3.07849956e-05
-3.14737291e-05
-3.15566543e-05
-3.15158623e-05
-3.08926096e-05
-3.03456236e-05
-3.03496735e-05
-3.14692377e-05
-3.15397862e-05
-3.0910797e-05
-3.07992993e-05
-3.14671918e-05
-3.09091732e-05
-3.05801592e-05
-3.14789179e-05
-3.15220902e-05
-3.15196387e-05
-3.09179996e-05
-3.06427264e-05
-3.05314123e-05
-3.05340904e-05
-3.14627281e-05
-3.15045098e-05
-3.09263813e-05
-3.03843507e-05
-3.03958316e-05
-3.14453465e-05
-3.15237273e-05
-3.07435596e-05
-3.05260414e-05
-3.14396252e-05
-3.15233091e-05
-3.07469655e-05
-3.06486072e-05
-3.14535652e-05
-3.15185299e-05
-3.15071115e-05
-3.09214197e-05
-3.06849061e-05
-3.14627408e-05
-3.15234704e-05
-3.14949571e-05
-3.09446622e-05
-3.0619837e-05
-3.06380944e-05
-3.03110733e-05
-3.03190542e-05
-3.1428766e-05
-3.15078027e-05
-3.06502038e-05
-3.03789493e-05
-3.13922545e-05
-3.15093209e-05
-3.14491898e-05
-3.15184071e-05
-3.07168612e-05
-3.05522769e-05
-3.14353205e-05
-3.0921965e-05
-3.04410314e-05
-3.14607938e-05
-3.14902017e-05
-3.09396952e-05
-3.08342692e-05
-3.06073468e-05
-3.06068595e-05
-3.1472724e-05
-3.09343084e-05
-3.04228036e-05
-3.14569432e-05
-3.15064315e-05
-3.15012052e-05
-3.0706566e-05
-3.05030834e-05
-3.14621944e-05
-3.15172458e-05
-3.15052298e-05
-3.08597569e-05
-3.05363795e-05
-3.14595741e-05
-3.15002377e-05
-3.10054474e-05
-3.05061328e-05
-3.05041139e-05
-3.14635777e-05
-3.15075752e-05
-3.09246068e-05
-3.03107434e-05
-3.03284417e-05
-3.14420712e-05
-3.1528086e-05
-3.07827273e-05
-3.05177627e-05
-3.14415841e-05
-3.15327219e-05
-3.07541622e-05
-3.0567713e-05
-3.14430131e-05
-3.15344208e-05
-3.0732232e-05
-3.06314725e-05
-3.14627525e-05
-3.15305399e-05
-3.15198925e-05
-3.09277684e-05
-3.06265319e-05
-3.14837843e-05
-3.15226423e-05
-3.09161491e-05
-3.07045809e-05
-3.08191273e-05
-3.05899259e-05
-3.06163082e-05
-3.14914702e-05
-3.0921143e-05
-3.06325983e-05
-3.14724942e-05
-3.15264669e-05
-3.09150835e-05
-3.08543841e-05
-3.14683928e-05
-3.09161975e-05
-3.04989603e-05
-3.14716383e-05
-3.15189684e-05
-3.15156295e-05
-3.08598398e-05
-3.05040222e-05
-3.14882057e-05
-3.15204578e-05
-3.09112593e-05
-3.04746258e-05
-3.04838549e-05
-3.14750584e-05
-3.15170673e-05
-3.09205994e-05
-3.06486132e-05
-3.06536475e-05
-3.14692442e-05
-3.1510277e-05
-3.09495774e-05
-3.0640405e-05
-3.06421719e-05
-3.14827098e-05
-3.09336334e-05
-3.04884393e-05
-3.14609579e-05
-3.15038439e-05
-3.15015092e-05
-3.06811775e-05
-3.03705884e-05
-3.14517702e-05
-3.15074704e-05
-3.14955653e-05
-3.06628581e-05
-3.02976154e-05
-3.14436957e-05
-3.1505952e-05
-3.07898303e-05
-3.05783531e-05
-3.14474674e-05
-3.15042881e-05
-3.09527799e-05
-3.07328453e-05
-3.05206673e-05
-3.05220045e-05
-3.14458696e-05
-3.1509302e-05
-3.0716319e-05
-3.06029281e-05
-3.14570467e-05
-3.1517183e-05
-3.15058249e-05
-3.08634478e-05
-3.04645948e-05
-3.14770985e-05
-3.15048889e-05
-3.09219395e-05
-3.04578784e-05
-3.04617089e-05
-3.14753258e-05
-3.15108134e-05
-3.0919838e-05
-3.04865529e-05
-3.04935608e-05
-3.14739051e-05
-3.15328787e-05
-3.09302031e-05
-3.06430525e-05
-3.1493222e-05
-3.15253925e-05
-3.09159648e-05
-3.06077815e-05
-3.06097152e-05
-3.14952036e-05
-3.15403349e-05
-3.09169823e-05
-3.08428441e-05
-3.06661837e-05
-3.06685885e-05
-3.15010393e-05
-3.09156978e-05
-3.05613784e-05
-3.14811985e-05
-3.15420921e-05
-3.0898201e-05
-3.06604388e-05
-3.14716161e-05
-3.15484292e-05
-3.08430051e-05
-3.06522143e-05
-3.14658684e-05
-3.15477175e-05
-3.08012931e-05
-3.06345415e-05
-3.14626457e-05
-3.15480179e-05
-3.07497091e-05
-3.06673689e-05
-3.14640974e-05
-3.15498668e-05
-3.14963989e-05
-3.08965721e-05
-3.04333155e-05
-3.04479157e-05
-3.14636584e-05
-3.15435591e-05
-3.07873363e-05
-3.07257081e-05
-3.14673321e-05
-3.0902211e-05
-3.03612848e-05
-3.14877883e-05
-3.15080892e-05
-3.08999743e-05
-3.06691132e-05
-3.14826642e-05
-3.1511062e-05
-3.09741513e-05
-3.0788386e-05
-3.07600886e-05
-3.04958619e-05
-3.0497456e-05
-3.14737034e-05
-3.15060365e-05
-3.1501791e-05
-3.07403593e-05
-3.04884201e-05
-3.14584216e-05
-3.15018342e-05
-3.14924482e-05
-3.14968401e-05
-3.09152981e-05
-3.02356252e-05
-3.02553759e-05
-3.14518062e-05
-3.15242157e-05
-3.07043264e-05
-3.04164647e-05
-3.14569084e-05
-3.15256979e-05
-3.0778765e-05
-3.05137917e-05
-3.14755885e-05
-3.15114038e-05
-3.09249318e-05
-3.05171428e-05
-3.0518747e-05
-3.1489732e-05
-3.15094449e-05
-3.09227416e-05
-3.05313708e-05
-3.05382084e-05
-3.14847456e-05
-3.15383568e-05
-3.09440378e-05
-3.07346996e-05
-3.1496753e-05
-3.15391226e-05
-3.09271726e-05
-3.08515638e-05
-3.06609559e-05
-3.06636467e-05
-3.14952316e-05
-3.15174691e-05
-3.09199443e-05
-3.06508611e-05
-3.06541676e-05
-3.14900056e-05
-3.15076821e-05
-3.09237131e-05
-3.04809324e-05
-3.04836697e-05
-3.14867982e-05
-3.1520481e-05
-3.15158608e-05
-3.07965246e-05
-3.03822871e-05
-3.14933783e-05
-3.1505127e-05
-3.09240002e-05
-3.02969501e-05
-3.0312271e-05
-3.14681273e-05
-3.15118468e-05
-3.15047125e-05
-3.07896526e-05
-3.0488577e-05
-3.14949583e-05
-3.15059666e-05
-3.09215505e-05
-3.04664744e-05
-3.04738608e-05
-3.14840481e-05
-3.15094308e-05
-3.09237004e-05
-3.05372472e-05
-3.05419645e-05
-3.14952761e-05
-3.15097942e-05
-3.09130338e-05
-3.04685783e-05
-3.04774577e-05
-3.14875475e-05
-3.15338284e-05
-3.09004936e-05
-3.05743183e-05
-3.15010918e-05
-3.15147257e-05
-3.0914594e-05
-3.04430316e-05
-3.04504943e-05
-3.14602589e-05
-3.15205728e-05
-3.14480545e-05
-3.15244364e-05
-3.12325053e-05
-3.07944578e-05
-3.06139667e-05
-3.0449577e-05
-3.04507606e-05
-3.14899601e-05
-3.15385799e-05
-3.08830933e-05
-3.06414512e-05
-3.14936714e-05
-3.15398508e-05
-3.09260014e-05
-3.06572989e-05
-3.15064873e-05
-3.15199664e-05
-3.09089821e-05
-3.05116265e-05
-3.05160713e-05
-3.14948417e-05
-3.15362023e-05
-3.09196595e-05
-3.059815e-05
-3.15052066e-05
-3.15156774e-05
-3.09094363e-05
-3.04634601e-05
-3.04705814e-05
-3.14852154e-05
-3.15348293e-05
-3.08707916e-05
-3.06039643e-05
-3.14868251e-05
-3.15285598e-05
-3.08913648e-05
-3.06286444e-05
-3.14969182e-05
-3.15078111e-05
-3.09185235e-05
-3.05031439e-05
-3.05057297e-05
-3.14876581e-05
-3.15134273e-05
-3.09325349e-05
-3.02463038e-05
-3.02532845e-05
-3.14768292e-05
-3.15043527e-05
-3.15021252e-05
-3.07913222e-05
-3.05651085e-05
-3.14725481e-05
-3.15074116e-05
-3.14834658e-05
-3.09416613e-05
-3.01311512e-05
-3.01506356e-05
-3.14379493e-05
-3.14841065e-05
-3.14642524e-05
-3.14882531e-05
-3.08445282e-05
-3.02855604e-05
-3.14721252e-05
-3.14792111e-05
-3.09427064e-05
-3.01193575e-05
-3.01424474e-05
-3.14452214e-05
-3.14939383e-05
-3.14816405e-05
-3.06945359e-05
-3.03582735e-05
-3.14784871e-05
-3.14842728e-05
-3.09346732e-05
-3.03717765e-05
-3.03889013e-05
-3.14484758e-05
-3.1513203e-05
-3.08240448e-05
-3.05817807e-05
-3.14544385e-05
-3.1516485e-05
-3.06070301e-05
-3.05410694e-05
-3.1465571e-05
-3.15099909e-05
-3.14973061e-05
-3.07941288e-05
-3.04039231e-05
-3.14630182e-05
-3.15058371e-05
-3.06704224e-05
-3.04480794e-05
-3.14482615e-05
-3.15061555e-05
-3.05751427e-05
-3.04262824e-05
-3.14437428e-05
-3.15049259e-05
-3.14731331e-05
-3.1509314e-05
-3.09393679e-05
-3.05746025e-05
-3.03717521e-05
-3.03780685e-05
-3.1462376e-05
-3.15087824e-05
-3.07684134e-05
-3.05818352e-05
-3.1475941e-05
-3.15050606e-05
-3.09409135e-05
-3.07405997e-05
-3.04888073e-05
-3.04925113e-05
-3.1463083e-05
-3.14850173e-05
-3.14850594e-05
-3.08934382e-05
-3.04980204e-05
-3.14572744e-05
-3.14908863e-05
-3.14845554e-05
-3.06115752e-05
-3.02678674e-05
-3.14604651e-05
-3.15011026e-05
-3.06059697e-05
-3.06022966e-05
-3.14700619e-05
-3.15167836e-05
-3.15025389e-05
-3.09234319e-05
-3.06340647e-05
-3.04745804e-05
-3.04765006e-05
-3.14798794e-05
-3.15084494e-05
-3.09377485e-05
-3.02677819e-05
-3.02789078e-05
-3.14764842e-05
-3.15051899e-05
-3.15038977e-05
-3.08501661e-05
-3.06965354e-05
)
;

boundaryField
{
    closed
    {
        type            calculated;
        value           nonuniform List<scalar> 0();
    }
    open
    {
        type            calculated;
        value           nonuniform List<scalar> 0();
    }
    sides
    {
        type            empty;
    }
    procBoundary1to0
    {
        type            processor;
        value           uniform -3.14574423e-05;
    }
    procBoundary1to2
    {
        type            processor;
        value           uniform -3.14829578e-05;
    }
}


// ************************************************************************* //
