/*--------------------------------*- C++ -*----------------------------------*\
| =========                 |                                                 |
| \\      /  F ield         | OpenFOAM: The Open Source CFD Toolbox           |
|  \\    /   O peration     | Version:  2306                                  |
|   \\  /    A nd           | Website:  www.openfoam.com                      |
|    \\/     M anipulation  |                                                 |
\*---------------------------------------------------------------------------*/
FoamFile
{
    version     2.0;
    format      ascii;
    arch        "LSB;label=32;scalar=64";
    class       volScalarField;
    location    "0.00088";
    object      prefDZ_H2O;
}
// * * * * * * * * * * * * * * * * * * * * * * * * * * * * * * * * * * * * * //

dimensions      [1 -1 -1 0 0 0 0];

internalField   nonuniform List<scalar> 
530
(
-7.60630909e-07
-7.52498616e-07
-7.52069228e-07
-7.52079244e-07
-7.52080013e-07
-7.52080021e-07
-7.52080022e-07
-7.52080022e-07
-7.52080022e-07
-7.52080022e-07
-7.52080022e-07
-7.52080022e-07
-7.52080022e-07
-7.52080022e-07
-7.52080022e-07
-7.52080022e-07
-7.52080022e-07
-7.52080022e-07
-7.52080022e-07
-7.52080022e-07
-7.52080022e-07
-7.52080022e-07
-7.52080022e-07
-7.52080022e-07
-7.52080022e-07
-7.52080022e-07
-7.52080022e-07
-7.52080022e-07
-7.52080022e-07
-7.52080022e-07
-7.52080022e-07
-7.52080022e-07
-7.52080022e-07
-7.52080022e-07
-7.52080022e-07
-7.52080022e-07
-7.52080022e-07
-7.52080022e-07
-7.52080022e-07
-7.52080022e-07
-7.52080022e-07
-7.52080022e-07
-7.52080022e-07
-7.52080022e-07
-7.52080022e-07
-7.52080022e-07
-7.52080022e-07
-7.52080022e-07
-7.52080022e-07
-7.52080022e-07
-7.52080022e-07
-7.52080022e-07
-7.52080022e-07
-7.52080022e-07
-7.52080022e-07
-7.52080022e-07
-7.52080022e-07
-7.52080022e-07
-7.52080022e-07
-7.52080022e-07
-7.52080022e-07
-7.52080022e-07
-7.52080022e-07
-7.52080022e-07
-7.52080022e-07
-7.52080022e-07
-7.52080022e-07
-7.52080022e-07
-7.52080022e-07
-7.52080021e-07
-7.52080021e-07
-7.52080021e-07
-7.5208002e-07
-7.52080021e-07
-7.52080024e-07
-7.5208001e-07
-7.52079929e-07
-7.52079996e-07
-7.52080418e-07
-7.52079985e-07
-7.52078179e-07
-7.52078629e-07
-7.5208109e-07
-7.52081562e-07
-7.52094169e-07
-7.52099771e-07
-7.52005182e-07
-7.51717057e-07
-7.51722077e-07
-7.53473981e-07
-7.54780047e-07
-7.51333077e-07
-7.41739002e-07
-7.40075532e-07
-7.50961002e-07
-7.74242744e-07
-7.76519815e-07
-7.41840727e-07
-7.36371154e-07
-7.37243059e-07
-7.37935856e-07
-7.58549021e-07
-7.74261527e-07
-7.7661585e-07
-7.74441723e-07
-7.79456216e-07
-7.35869072e-07
-7.34137244e-07
-7.36463542e-07
-7.36781199e-07
-7.46474553e-07
-7.75968855e-07
-7.7317876e-07
-7.76748006e-07
-7.3752578e-07
-7.35148106e-07
-7.37441296e-07
-7.46600052e-07
-7.75458716e-07
-7.73168394e-07
-7.75720229e-07
-7.37977324e-07
-7.3542838e-07
-7.36749856e-07
-7.42428223e-07
-7.74459801e-07
-7.74526617e-07
-7.38514661e-07
-7.39015872e-07
-7.75017368e-07
-7.74876124e-07
-7.36417754e-07
-7.33643565e-07
-7.40372176e-07
-7.75465524e-07
-7.74682114e-07
-7.37933578e-07
-7.37851568e-07
-7.7538918e-07
-7.75070875e-07
-7.37179679e-07
-7.37534739e-07
-7.75450851e-07
-7.75238358e-07
-7.36799105e-07
-7.37286161e-07
-7.75417103e-07
-7.75282142e-07
-7.36648019e-07
-7.37154915e-07
-7.75363345e-07
-7.75274125e-07
-7.36573968e-07
-7.37116917e-07
-7.75315466e-07
-7.75335717e-07
-7.36311175e-07
-7.37123789e-07
-7.75220317e-07
-7.75209221e-07
-7.35618747e-07
-7.32736717e-07
-7.38659369e-07
-7.75561924e-07
-7.74478166e-07
-7.36983338e-07
-7.37084326e-07
-7.74997926e-07
-7.7496079e-07
-7.35987229e-07
-7.32865083e-07
-7.38600651e-07
-7.75412796e-07
-7.74203203e-07
-7.37167098e-07
-7.36880944e-07
-7.74916033e-07
-7.74599186e-07
-7.36679903e-07
-7.36720352e-07
-7.74895357e-07
-7.74671712e-07
-7.36399081e-07
-7.36564241e-07
-7.7480975e-07
-7.74704501e-07
-7.36253323e-07
-7.36516604e-07
-7.74707574e-07
-7.74752367e-07
-7.35965347e-07
-7.36520578e-07
-7.74537533e-07
-7.75053098e-07
-7.35837323e-07
-7.32915445e-07
-7.38389093e-07
-7.7501727e-07
-7.73901741e-07
-7.3706903e-07
-7.36842752e-07
-7.7439093e-07
-7.74426843e-07
-7.36499746e-07
-7.36827865e-07
-7.74382413e-07
-7.74828162e-07
-7.36148948e-07
-7.33245297e-07
-7.38501009e-07
-7.7487656e-07
-7.73979495e-07
-7.36982548e-07
-7.36896604e-07
-7.74403093e-07
-7.74801838e-07
-7.36387953e-07
-7.33245039e-07
-7.38270921e-07
-7.74868642e-07
-7.73893551e-07
-7.37200342e-07
-7.36691194e-07
-7.74429357e-07
-7.74284512e-07
-7.36592186e-07
-7.36431741e-07
-7.74491719e-07
-7.74429035e-07
-7.36318211e-07
-7.36301362e-07
-7.74567245e-07
-7.7458508e-07
-7.36035685e-07
-7.36290224e-07
-7.74498148e-07
-7.74957785e-07
-7.36275453e-07
-7.32949852e-07
-7.37771532e-07
-7.74936342e-07
-7.73849167e-07
-7.37198124e-07
-7.36423405e-07
-7.74631223e-07
-7.74242164e-07
-7.36462383e-07
-7.36109463e-07
-7.74754268e-07
-7.743911e-07
-7.3609776e-07
-7.36125946e-07
-7.74645215e-07
-7.74721919e-07
-7.36843903e-07
-7.3344256e-07
-7.38072102e-07
-7.74748744e-07
-7.73413277e-07
-7.38095739e-07
-7.36927115e-07
-7.74587626e-07
-7.73713008e-07
-7.37337757e-07
-7.36888892e-07
-7.745187e-07
-7.74248554e-07
-7.37693693e-07
-7.34421242e-07
-7.39273469e-07
-7.74546609e-07
-7.73067754e-07
-7.38861073e-07
-7.37426773e-07
-7.74642654e-07
-7.73890271e-07
-7.37365554e-07
-7.34827541e-07
-7.36949896e-07
-7.36199114e-07
-7.41805771e-07
-7.73980537e-07
-7.73456673e-07
-7.39874868e-07
-7.35229436e-07
-7.41288757e-07
-7.74218046e-07
-7.72865021e-07
-7.40493036e-07
-7.38152195e-07
-7.74734346e-07
-7.73339083e-07
-7.38931871e-07
-7.37941667e-07
-7.75186267e-07
-7.74341315e-07
-7.37422971e-07
-7.34510636e-07
-7.36377816e-07
-7.3493849e-07
-7.38070278e-07
-7.76298575e-07
-7.73272406e-07
-7.75871736e-07
-7.37754059e-07
-7.36001664e-07
-7.58830131e-07
-7.74072922e-07
-7.74770663e-07
-7.39751593e-07
-7.3755655e-07
-7.75369381e-07
-7.74863082e-07
-7.38097609e-07
-7.34264158e-07
-7.39178661e-07
-7.7450702e-07
-7.74306782e-07
-7.38773298e-07
-7.34562847e-07
-7.3901146e-07
-7.74238378e-07
-7.73786042e-07
-7.39079265e-07
-7.37711733e-07
-7.75381887e-07
-7.74655536e-07
-7.38387628e-07
-7.34599115e-07
-7.40086044e-07
-7.74413486e-07
-7.74128121e-07
-7.39487039e-07
-7.35041124e-07
-7.41223527e-07
-7.74359366e-07
-7.74032698e-07
-7.39784473e-07
-7.35228484e-07
-7.4150315e-07
-7.74418678e-07
-7.73684267e-07
-7.38778954e-07
-7.35870158e-07
-7.36276007e-07
-7.40729057e-07
-7.74226092e-07
-7.73831648e-07
-7.39678889e-07
-7.34794853e-07
-7.40250564e-07
-7.74533901e-07
-7.73594985e-07
-7.39173982e-07
-7.34793578e-07
-7.39410529e-07
-7.74668046e-07
-7.72934394e-07
-7.39594602e-07
-7.37465355e-07
-7.75361204e-07
-7.73322495e-07
-7.38390989e-07
-7.3708169e-07
-7.75376306e-07
-7.74066599e-07
-7.37707625e-07
-7.33870842e-07
-7.38701664e-07
-7.75042154e-07
-7.73509825e-07
-7.38305907e-07
-7.34361023e-07
-7.38652854e-07
-7.74944443e-07
-7.73019143e-07
-7.38729509e-07
-7.37145352e-07
-7.75534491e-07
-7.73982577e-07
-7.37776853e-07
-7.34398782e-07
-7.38979381e-07
-7.75013833e-07
-7.72992893e-07
-7.38752357e-07
-7.37219091e-07
-7.75627553e-07
-7.74034589e-07
-7.37554094e-07
-7.33975186e-07
-7.3926254e-07
-7.75178879e-07
-7.73694299e-07
-7.37821152e-07
-7.33966585e-07
-7.3896996e-07
-7.75224951e-07
-7.7381206e-07
-7.37796754e-07
-7.34294019e-07
-7.38481639e-07
-7.75258566e-07
-7.73479205e-07
-7.38850008e-07
-7.37312617e-07
-7.76702865e-07
-7.74072076e-07
-7.37970114e-07
-7.37027764e-07
-7.77097363e-07
-7.74642608e-07
-7.36977909e-07
-7.33689996e-07
-7.37897409e-07
-7.75990294e-07
-7.73944354e-07
-7.39072182e-07
-7.37294011e-07
-7.78175405e-07
-7.74421202e-07
-7.38522096e-07
-7.37144769e-07
-7.7924527e-07
-7.7474651e-07
-7.37813079e-07
-7.33875779e-07
-7.37171957e-07
-7.78049351e-07
-7.74398434e-07
-7.41968254e-07
-7.3752543e-07
-7.72929641e-07
-7.75046647e-07
-7.42473295e-07
-7.34304225e-07
-7.35405882e-07
-7.75175234e-07
-7.75024932e-07
-7.48299277e-07
-7.37872222e-07
-7.61247897e-07
-7.76488954e-07
-7.50448623e-07
-7.35001327e-07
-7.3472548e-07
-7.61299323e-07
-7.76289446e-07
-7.5657785e-07
-7.38586396e-07
-7.52856245e-07
-7.78202796e-07
-7.58866433e-07
-7.3864166e-07
-7.50034635e-07
-7.78995471e-07
-7.60994476e-07
-7.3896549e-07
-7.48252831e-07
-7.79632537e-07
-7.63417106e-07
-7.37065534e-07
-7.35339249e-07
-7.50238119e-07
-7.78325139e-07
-7.66974668e-07
-7.381393e-07
-7.36014509e-07
-7.48445963e-07
-7.78601021e-07
-7.68805159e-07
-7.40769132e-07
-7.45623168e-07
-7.7929564e-07
-7.68321638e-07
-7.37790258e-07
-7.35488653e-07
-7.4765491e-07
-7.78414227e-07
-7.70258229e-07
-7.38839979e-07
-7.36432353e-07
-7.48356065e-07
-7.7788065e-07
-7.71408302e-07
-7.41286078e-07
-7.45842221e-07
-7.79021908e-07
-7.69375252e-07
-7.38001763e-07
-7.36263656e-07
-7.50809991e-07
-7.77430186e-07
-7.69635592e-07
-7.37909087e-07
-7.36188257e-07
-7.49763675e-07
-7.781792e-07
-7.6605117e-07
-7.37570359e-07
-7.37795315e-07
-7.6814607e-07
-7.75404672e-07
-7.74756068e-07
-7.77523209e-07
-7.41270774e-07
-7.36618384e-07
-7.36514553e-07
-7.36640628e-07
-7.37423844e-07
-7.55891819e-07
-7.77698046e-07
-7.63359841e-07
-7.38528006e-07
-7.39512786e-07
-7.73021676e-07
-7.76564618e-07
-7.62254856e-07
-7.37052753e-07
-7.37676683e-07
-7.61323352e-07
-7.7802191e-07
-7.60333164e-07
-7.36830853e-07
-7.37685611e-07
-7.61275378e-07
-7.78695811e-07
-7.56782081e-07
-7.37703563e-07
-7.39300386e-07
)
;

boundaryField
{
    closed
    {
        type            calculated;
        value           uniform -1.0330293e-06;
    }
    open
    {
        type            calculated;
        value           nonuniform List<scalar> 0();
    }
    sides
    {
        type            empty;
    }
    procBoundary0to1
    {
        type            processor;
        value           uniform -7.70760504e-07;
    }
}


// ************************************************************************* //
