/*--------------------------------*- C++ -*----------------------------------*\
| =========                 |                                                 |
| \\      /  F ield         | OpenFOAM: The Open Source CFD Toolbox           |
|  \\    /   O peration     | Version:  2306                                  |
|   \\  /    A nd           | Website:  www.openfoam.com                      |
|    \\/     M anipulation  |                                                 |
\*---------------------------------------------------------------------------*/
FoamFile
{
    version     2.0;
    format      ascii;
    arch        "LSB;label=32;scalar=64";
    class       volScalarField;
    location    "0.00088";
    object      sourcePV;
}
// * * * * * * * * * * * * * * * * * * * * * * * * * * * * * * * * * * * * * //

dimensions      [1 -3 -1 0 0 0 0];

internalField   nonuniform List<scalar> 
530
(
0.0695596107
0.0816654239
0.0815797097
0.0815341491
0.0815305054
0.0815304453
0.0815304429
0.0815304428
0.0815304428
0.0815304428
0.0815304428
0.0815304428
0.0815304428
0.0815304428
0.0815304428
0.0815304428
0.0815304428
0.0815304428
0.0815304428
0.0815304428
0.0815304428
0.0815304428
0.0815304428
0.0815304428
0.0815304428
0.0815304428
0.0815304428
0.0815304428
0.0815304428
0.0815304428
0.0815304428
0.0815304428
0.0815304428
0.0815304428
0.0815304428
0.0815304428
0.0815304428
0.0815304428
0.0815304428
0.0815304428
0.0815304428
0.0815304428
0.0815304428
0.0815304428
0.0815304428
0.0815304428
0.0815304428
0.0815304428
0.0815304428
0.0815304428
0.0815304428
0.0815304428
0.0815304428
0.0815304428
0.0815304428
0.0815304428
0.0815304428
0.0815304428
0.0815304428
0.0815304428
0.0815304428
0.0815304428
0.0815304428
0.0815304428
0.0815304428
0.0815304428
0.0815304428
0.0815304429
0.0815304429
0.0815304433
0.0815304439
0.0815304461
0.0815304523
0.0815304601
0.0815304672
0.0815305506
0.0815308907
0.0815308331
0.0815297818
0.0815316743
0.0815383396
0.0815382969
0.0815327889
0.0815343788
0.0814993968
0.0814858562
0.0817957867
0.0827311037
0.0827224031
0.0771423329
0.0730576564
0.084000851
0.117643485
0.124076817
0.0852868983
0.00582739235
0.00450700587
0.117165445
0.151286734
0.141721791
0.136848614
0.0615135527
0.00581583719
0.00447247116
0.00571222779
0.00280053054
0.151820452
0.170165053
0.147365726
0.149825332
0.100358976
0.00485494337
0.0064357176
0.00436851627
0.139155497
0.161492542
0.142563487
0.100324538
0.0051359583
0.00644064245
0.00496843924
0.136141875
0.159433023
0.146867506
0.116110375
0.00570190149
0.00566414604
0.13217452
0.131482832
0.00538004083
0.00546070155
0.147766788
0.172422966
0.12328473
0.00512700863
0.00557440891
0.138202477
0.14022105
0.0051677804
0.00534724903
0.143177423
0.143608608
0.00513159038
0.0052500513
0.146221679
0.145782938
0.00515115688
0.00522482114
0.147566847
0.146874609
0.00518244775
0.00522980002
0.148335302
0.147435837
0.00521012672
0.00519445035
0.150171693
0.147768142
0.00526303275
0.00526914341
0.15466554
0.179756192
0.132937499
0.00507354637
0.00569141549
0.14631793
0.146299229
0.00539223333
0.0054130809
0.151857013
0.178398044
0.132882939
0.00515905467
0.00585054006
0.145303089
0.146630734
0.00544122327
0.00562107641
0.147888631
0.148612735
0.00545222966
0.0055793568
0.149933115
0.14991194
0.00550134115
0.0055605754
0.151015219
0.15047906
0.00555976114
0.00553323328
0.152675992
0.151014939
0.00565676988
0.00536139943
0.152674801
0.177831876
0.133774625
0.00538577436
0.00602358949
0.146147639
0.146132735
0.00574212851
0.00572075955
0.148736194
0.14771166
0.00574619993
0.00549152257
0.150405848
0.175069748
0.132928137
0.00546518058
0.00597847465
0.146296434
0.146110845
0.00573431841
0.00550640779
0.148676399
0.174917472
0.13447147
0.00546947291
0.00602816022
0.145163829
0.146751427
0.00571956091
0.00580259846
0.14884649
0.149589846
0.00568348398
0.00571949518
0.150758511
0.150915189
0.00563988843
0.00562984539
0.152270976
0.15162248
0.00567938325
0.00541701987
0.149206519
0.177031231
0.137985814
0.00543036229
0.00605387043
0.145089568
0.148343679
0.00560304739
0.00582699451
0.149710375
0.151495836
0.00553173995
0.00574120368
0.151698439
0.15180381
0.00559434124
0.00555189938
0.144217003
0.172825101
0.134581619
0.00553728927
0.00630552179
0.137715427
0.143035314
0.00562780225
0.0061319632
0.14223204
0.144659378
0.00566767423
0.00582349599
0.137137555
0.165212093
0.126672805
0.0056534841
0.00650449883
0.13174484
0.139065198
0.00559582189
0.00602935845
0.140452992
0.160829152
0.143209921
0.151517357
0.117169053
0.0059773178
0.0062789243
0.124407255
0.157397169
0.118734798
0.00584111622
0.00662071034
0.123261833
0.132158547
0.00554313559
0.00634594185
0.131741998
0.135829283
0.00528070778
0.00577078644
0.140557964
0.165039345
0.148478002
0.164406468
0.136203604
0.00464023198
0.00638097868
0.00489029257
0.137428232
0.154138124
0.0608929306
0.0059274373
0.00552195903
0.126147233
0.139461754
0.00517387549
0.00547344177
0.134435585
0.166139188
0.126844106
0.00567425836
0.0057899136
0.128757832
0.162649666
0.127413297
0.00582919485
0.00608944636
0.130137515
0.135676895
0.00516647573
0.00559047845
0.132118421
0.163205667
0.123409144
0.00572826019
0.00589259269
0.126142883
0.159086111
0.11930358
0.00575946857
0.00594739591
0.124930678
0.158361876
0.118139591
0.00572557599
0.00614755223
0.131390852
0.151041215
0.150729821
0.121458679
0.0058362269
0.00606250445
0.125225519
0.161349289
0.122839529
0.00565890703
0.00619875609
0.127307855
0.161101124
0.126042588
0.00558284689
0.00657920205
0.126924893
0.13781773
0.00518189114
0.0063557295
0.135366274
0.142520507
0.00517082294
0.00592796443
0.136524081
0.168650427
0.128860845
0.00536676021
0.00624771388
0.132537401
0.164089667
0.129144238
0.0054245696
0.00653024761
0.131920457
0.141294416
0.00508217215
0.00597607395
0.135880426
0.164755392
0.127729901
0.00538725526
0.00654503082
0.131753579
0.140916037
0.00503157592
0.00594628213
0.137560991
0.167655027
0.126999575
0.00529069749
0.00614146722
0.136093074
0.166914754
0.128402426
0.00526356716
0.00607385718
0.13566344
0.164849458
0.132031275
0.00524844607
0.0062656235
0.129999562
0.140565111
0.00442579302
0.00592490423
0.136001618
0.144255672
0.00419259726
0.00559758313
0.140916694
0.170405442
0.1372311
0.00483485115
0.00599849332
0.128068572
0.141341491
0.00360138868
0.00572384725
0.130855836
0.143768917
0.00298772899
0.00553821164
0.132861435
0.169404872
0.14445895
0.00368280626
0.00573704422
0.116652049
0.140325293
0.0209284316
0.00536607594
0.11392773
0.16602145
0.159739249
0.0144068615
0.00537744818
0.0940424514
0.137052149
0.0537962511
0.00454395617
0.0867403886
0.159331789
0.164181749
0.0534967917
0.00465725501
0.0674877135
0.130152629
0.0790714503
0.00357302611
0.0606328793
0.129877454
0.0880809253
0.00312849056
0.0543980183
0.128199546
0.0938678778
0.00278081133
0.0473514122
0.140998148
0.159351066
0.0874240953
0.00351504278
0.0369906144
0.131285438
0.154311203
0.0933852014
0.00335601585
0.03199222
0.121456957
0.103039297
0.00406100345
0.033521804
0.134598244
0.158328709
0.0959716807
0.00345482264
0.0279623628
0.128015887
0.15155104
0.093782258
0.00375539651
0.0248954955
0.120005178
0.102593434
0.00309660947
0.0306132752
0.135235696
0.153012928
0.085653608
0.00400430949
0.0297495545
0.135754987
0.15468195
0.089089703
0.00357302289
0.0401049986
0.140361681
0.136204523
0.0342552438
0.00516272763
0.00553443344
0.00397515459
0.119118373
0.148199607
0.147812221
0.14766747
0.143714253
0.0695695889
0.00385060829
0.0476570026
0.134788777
0.126001338
0.0204804478
0.00449433889
0.0507153878
0.145605207
0.142133815
0.0532481678
0.00366771443
0.0563620276
0.148380714
0.141902209
0.0534459478
0.0032806888
0.0669818705
0.141949841
0.127196057
)
;

boundaryField
{
    closed
    {
        type            calculated;
        value           uniform 0;
    }
    open
    {
        type            calculated;
        value           nonuniform List<scalar> 0();
    }
    sides
    {
        type            empty;
    }
    procBoundary0to1
    {
        type            processor;
        value           uniform 0;
    }
}


// ************************************************************************* //
