/*--------------------------------*- C++ -*----------------------------------*\
| =========                 |                                                 |
| \\      /  F ield         | OpenFOAM: The Open Source CFD Toolbox           |
|  \\    /   O peration     | Version:  2306                                  |
|   \\  /    A nd           | Website:  www.openfoam.com                      |
|    \\/     M anipulation  |                                                 |
\*---------------------------------------------------------------------------*/
FoamFile
{
    version     2.0;
    format      ascii;
    arch        "LSB;label=32;scalar=64";
    class       volScalarField;
    location    "0.0014";
    object      rho;
}
// * * * * * * * * * * * * * * * * * * * * * * * * * * * * * * * * * * * * * //

dimensions      [1 -3 0 0 0 0 0];

internalField   nonuniform List<scalar> 
530
(
0.872520951
0.926694371
0.934445715
0.933467219
0.933072236
0.93477645
0.936495336
0.935549826
0.933718314
0.934017975
0.935962298
0.934659869
0.931767304
0.933327548
0.937022638
0.937735944
0.935548537
0.933904052
0.934550604
0.934060372
0.932426448
0.933889479
0.938159487
0.940368984
0.937842025
0.932787432
0.929791278
0.931979159
0.936943
0.942091905
0.9435194
0.937943046
0.928660444
0.924651998
0.928012241
0.935038751
0.941040626
0.939389655
0.930194533
0.925215684
0.931321452
0.940988794
0.944979741
0.941176789
0.93564677
0.933020244
0.933772998
0.934804748
0.935106024
0.935492775
0.935849567
0.936230824
0.93650879
0.936680038
0.936733044
0.936643174
0.936450602
0.936256664
0.936133369
0.936113995
0.936197845
0.936373127
0.936628937
0.936947942
0.937308388
0.937700146
0.938099881
0.938488935
0.938854233
0.939173585
0.939433562
0.939623372
0.939738481
0.939788076
0.939792726
0.939767984
0.93971528
0.939628799
0.939487533
0.939310311
0.93911122
0.938935415
0.938835729
0.938790341
0.93857451
0.937345145
0.937016277
0.938177903
0.942319308
0.942733998
0.942679087
0.921377411
0.905812342
0.906712311
0.927208233
0.955246965
0.955243191
0.952087116
0.957649252
0.942802911
0.904141789
0.90404704
0.906947351
0.905067403
0.909104502
0.953161857
0.957463675
0.950381955
0.953311814
0.956257296
0.942439416
0.904546282
0.904949022
0.905864043
0.906384835
0.905195701
0.907333112
0.948221447
0.956011589
0.949792118
0.95167938
0.952447083
0.942452151
0.917269956
0.903947842
0.907968738
0.940135644
0.958173916
0.956737726
0.940327419
0.905349471
0.906258401
0.906781908
0.916620399
0.968722109
0.968725199
0.938719811
0.903940981
0.904644105
0.940537877
0.951051796
0.93827193
0.903932092
0.905264417
0.949551854
0.946206236
0.906944226
0.903573728
0.93201838
0.946278502
0.938350663
0.902562536
0.903708965
0.946745262
0.953190222
0.943975465
0.929203474
0.901520191
0.903866526
0.93679866
0.952151928
0.938277111
0.900938202
0.901817221
0.938614812
0.948658009
0.937114106
0.90192231
0.90120538
0.946066025
0.952425455
0.946877133
0.947413683
0.947455263
0.935296133
0.899694804
0.898511184
0.936152693
0.939950954
0.929506918
0.899211232
0.897593741
0.940060013
0.943326312
0.921883604
0.897227048
0.895974511
0.940817242
0.946650215
0.937295459
0.922905677
0.892634207
0.890039484
0.925489655
0.9238899
0.891437408
0.884632219
0.918207937
0.925657648
0.917528581
0.887531778
0.884587205
0.921380655
0.932738379
0.903723344
0.88150116
0.913351794
0.923034364
0.907110542
0.88215031
0.906900991
0.921435373
0.921053275
0.895296253
0.883186408
0.915940067
0.934468764
0.918060893
0.888826535
0.904413579
0.921548317
0.926184512
0.909276987
0.890251477
0.918733663
0.93821106
0.924920167
0.897034452
0.91132693
0.926172042
0.925345591
0.898503102
0.912052551
0.926740981
0.927207889
0.899923163
0.911924021
0.928702914
0.929748445
0.902153409
0.90743574
0.931246262
0.938000391
0.927431367
0.90136848
0.922673501
0.945386361
0.936255549
0.910173007
0.915549257
0.935804914
0.936775971
0.90976287
0.916799965
0.937489232
0.938504862
0.909500893
0.912346295
0.939548285
0.947569159
0.937356912
0.907115776
0.917749948
0.947636547
0.954837774
0.933748956
0.909869488
0.93622039
0.955661422
0.943378523
0.913109843
0.919052627
0.94158091
0.942299995
0.910869613
0.921242354
0.944037373
0.943448437
0.91155763
0.913049332
0.944259763
0.962308582
0.944698462
0.911495113
0.922251292
0.943586033
0.943801957
0.910492646
0.912723727
0.943761913
0.954262854
0.956432848
0.961072611
0.943791898
0.910224128
0.923442436
0.942661978
0.942576274
0.907680649
0.90986974
0.941758341
0.948116678
0.939161746
0.907579418
0.91601314
0.945933082
0.948126064
0.933843504
0.906523309
0.922159073
0.956454391
0.964934029
0.941548153
0.907317008
0.909326551
0.942679934
0.944354673
0.932190882
0.906196365
0.915866794
0.949263086
0.949266899
0.932512761
0.9066289
0.913782165
0.945775221
0.954556263
0.948846836
0.933113607
0.906690053
0.917839234
0.951222403
0.950963625
0.931972666
0.907039952
0.929057523
0.949275897
0.941518321
0.905743746
0.90843361
0.940652203
0.956702159
0.940601993
0.905132138
0.907434407
0.940261905
0.956887845
0.939892167
0.904503448
0.906795012
0.942308787
0.957955446
0.939828361
0.904163645
0.905617878
0.938866099
0.956920801
0.956602707
0.939609885
0.904702581
0.918990146
0.941217291
0.938278192
0.903340669
0.906416921
0.94319375
0.956630006
0.938589269
0.904580976
0.914735768
0.939366665
0.937788634
0.90316221
0.906054388
0.94527373
0.958194368
0.93861829
0.904378442
0.915741001
0.943644665
0.938125719
0.902965336
0.905479683
0.949994858
0.962305932
0.938816919
0.90426363
0.915954386
0.944306408
0.938030381
0.902892978
0.904918933
0.949067317
0.961457073
0.938554384
0.904166284
0.915382843
0.944341223
0.937998863
0.903029372
0.904652299
0.950032859
0.962126724
0.938914042
0.903939063
0.904081436
0.949246596
0.96189437
0.939102884
0.903896004
0.903954706
0.948026127
0.962069322
0.939006997
0.904299706
0.913167811
0.945768853
0.938688463
0.903381088
0.91857856
0.94563569
0.93888125
0.903190415
0.903781319
0.949481194
0.962758492
0.939427233
0.904551817
0.914445641
0.9466458
0.939163581
0.903706149
0.919193471
0.945311196
0.939212496
0.903587678
0.903383933
0.947645627
0.959195534
0.939484195
0.904502149
0.903318466
0.941368868
0.952592326
0.948842859
0.95468118
0.939976948
0.903871511
0.903274119
0.94070897
0.954035103
0.939208222
0.904385608
0.903626171
0.94208274
0.958032286
0.939470713
0.904963853
0.909620004
0.945772785
0.939413917
0.904541289
0.916386019
0.946648177
0.939858466
0.904564587
0.919164003
0.947388103
0.940156295
0.90479326
0.90407695
0.951839007
0.964489554
0.940707163
0.905690329
0.904030219
0.95029447
0.963292735
0.940393303
0.90536049
0.903874236
0.949325585
0.961479858
0.940083204
0.904930706
0.903695995
0.948717716
0.961180101
0.939202377
0.904700015
0.9089628
0.947091413
0.939038619
0.903697982
0.903404581
0.949997535
0.961810256
0.938934428
0.904273301
0.907763873
0.947792532
0.938761041
0.903295075
0.902911454
0.949662237
0.960355858
0.939213227
0.903599257
0.902878904
0.946857014
0.959355914
0.939365797
0.905788175
0.9028864
0.904622449
0.947448399
0.958612895
0.950324843
0.959289606
0.940829413
0.905607488
0.902646163
0.904730165
0.946703102
0.96151792
0.939346803
0.904563304
0.902420216
0.942514445
0.950195232
)
;

boundaryField
{
    closed
    {
        type            calculated;
        value           uniform 0.578308966;
    }
    open
    {
        type            calculated;
        value           nonuniform List<scalar> 0();
    }
    sides
    {
        type            empty;
    }
    procBoundary0to1
    {
        type            processor;
        value           uniform 0.94770373;
    }
}


// ************************************************************************* //
