/*--------------------------------*- C++ -*----------------------------------*\
| =========                 |                                                 |
| \\      /  F ield         | OpenFOAM: The Open Source CFD Toolbox           |
|  \\    /   O peration     | Version:  2306                                  |
|   \\  /    A nd           | Website:  www.openfoam.com                      |
|    \\/     M anipulation  |                                                 |
\*---------------------------------------------------------------------------*/
FoamFile
{
    version     2.0;
    format      ascii;
    arch        "LSB;label=32;scalar=64";
    class       volScalarField;
    location    "0.00144";
    object      h;
}
// * * * * * * * * * * * * * * * * * * * * * * * * * * * * * * * * * * * * * //

dimensions      [0 2 -2 0 0 0 0];

internalField   nonuniform List<scalar> 
531
(
10536.5421
4529.16814
-1615.52115
-3893.36273
-3896.37526
-5268.913
-6303.77506
-679.775637
10002.2063
10461.9268
-63.838718
-4050.02729
9260.56347
10182.5242
-3354.53584
-4977.13662
8987.4659
10034.2908
-954.000791
-5137.8669
-1049.42645
10005.2847
10394.8244
-1150.01779
-4939.60838
9259.65363
10000.8129
568.827434
-5747.98378
-4205.53178
9142.74386
10607.852
9793.41444
-1286.42325
-7410.85627
-7002.14013
9275.10786
10029.9263
3991.19804
-4838.56556
-3455.51802
9487.16338
10566.9381
10168.6938
-2605.92181
-6282.45511
-450.311621
9799.84174
7165.52409
-3790.5491
-4457.1076
-7003.57975
-6932.53453
8930.22395
10333.6557
10048.8864
-1250.65861
-4041.31518
8931.51339
9956.61606
-5469.82445
-731.91829
9551.93188
1879.82296
-5647.5858
2722.67106
9773.40497
22.5064381
-5114.51475
5985.17292
9975.35131
-2030.95136
-4716.65673
8426.08697
10118.9663
-1563.94182
-4470.02976
4372.42528
10054.0232
9618.50084
-4627.30356
-6370.11617
5513.72691
10038.3715
2579.60564
-3617.19614
-3962.99249
-7209.46553
-6791.96022
8433.45321
10091.4779
9299.78481
10389.414
10235.842
852.147176
-5017.81872
-6159.3816
-255.755098
9435.5319
2062.27159
-5517.12239
2997.89425
9733.72135
503.174459
-5192.24778
4589.03745
9851.71278
-938.889738
-4978.29668
6605.91999
9982.83377
-2319.99853
-4695.4334
8549.50282
10133.5682
-2748.20715
-4487.75008
8483.95639
10237.5971
5221.13343
-3932.20692
-5684.0474
1220.72359
9692.18873
6649.59639
-4277.87732
-6487.35447
-3488.75692
9473.60394
10396.7352
29.4505315
-4307.41642
8563.5437
10087.6703
-2313.127
-4900.56002
8429.66422
10121.7047
3063.14497
-4116.93485
-6068.85127
-4503.03529
9317.48875
10263.9226
-650.3788
-4718.50832
8244.54636
10011.1852
-1065.21715
-4836.90698
450.670313
9940.34371
10288.0232
33.2917064
-4524.84208
8338.9508
10128.9981
-2388.66947
-4117.40841
8367.67514
10414.0284
1983.20807
-2417.52787
-3665.02637
-5838.42078
-1894.43571
9193.37301
2113.11349
-5039.82936
1737.95808
10007.0304
10096.8135
-243.025781
-4836.16527
8197.84233
10054.9409
3400.40035
-4355.13908
-5949.7515
-2734.27936
9383.53398
10428.2748
-137.70547
-3794.32521
7962.64531
10465.0292
5443.16532
-1356.2396
-3874.30419
-4051.24962
-5420.26646
-6810.32189
-1315.59449
8883.92876
10266.3092
9374.1778
10306.3829
9144.36099
-2080.70164
-4723.56452
-6942.59841
-6867.35
8205.20221
10375.4441
10248.4326
612.958827
-3291.3745
7617.90278
10272.5335
7385.16955
-3415.16644
-6307.46754
983.851087
9359.14132
5772.92021
-4738.79403
-6917.09946
-4488.21475
8957.26839
10233.0138
237.914154
-4601.04871
7674.25995
9958.31331
474.25138
-5089.84528
-1384.66823
9070.23529
10523.737
10517.6451
-594.319726
-6395.25532
-1772.19621
8994.95092
1052.28724
-4345.51044
7668.28342
10353.9496
2565.79963
-1524.84943
-6195.54875
-6170.78521
7153.75499
9987.20524
1929.15387
-3491.06124
-3942.50716
-6808.12702
-6310.4429
8154.22591
10090.9041
9839.87273
10272.4402
2155.17954
-3309.96176
7395.53085
10122.4624
7293.22827
-5115.05274
-6416.05179
5165.18522
9515.21987
3478.46868
-6840.44136
-7264.59544
2305.30641
9777.90462
9915.07277
-56.7299028
-4114.96277
7745.29272
10290.8954
2510.45426
-2703.26625
-3751.51506
-6613.45494
-5236.52532
8275.95684
10253.6249
9598.9157
10445.4027
6217.63343
-1473.33649
-5762.03093
-6581.83678
-888.308957
9449.26226
10147.2271
397.984187
-4626.67155
7560.00236
10121.9242
2276.72979
-3425.76443
-3752.80774
-6669.21067
-6197.53697
8344.62578
10374.9008
10389.3828
1555.27567
-4369.34576
1062.25702
9353.16282
10318.5733
10290.3195
2186.72674
-6359.81999
-4307.50664
8230.82321
10521.7923
10008.6246
-1201.3986
-5250.78657
-5118.42932
-7480.70554
-7061.30254
8236.83722
10343.4555
10300.807
85.6530998
-3559.48189
7877.17022
10261.2739
2312.07357
-3411.56253
-4042.23236
-7550.15432
-7173.67943
8018.9255
9888.33321
9701.97615
10023.7483
1151.94688
-4746.30555
7757.32633
9846.55019
2918.91697
-5584.29028
-6864.17058
-1544.72334
9329.58128
10245.1812
50.9635934
-4303.90613
7656.95803
10160.5397
1865.36709
-3468.03371
-4391.18414
-7983.10437
-6537.08125
7756.11272
9824.1886
9157.70962
9645.62431
9896.59795
5972.52031
-3705.22097
-7899.14995
-9568.91206
-3992.03247
8109.60521
9976.16511
9971.16851
-3358.30685
-7403.60022
5795.93865
8431.09206
8104.43167
8020.85002
-5019.47711
4847.73207
8918.53541
-6020.0714
-7266.78708
4499.78176
8131.21757
7728.75305
-5825.4335
-9470.59351
1744.8523
5354.97645
3981.89923
4737.63052
4313.43714
4498.21186
4269.58931
4269.97808
4070.90903
3993.67682
3788.50794
3703.02517
3531.93076
3474.56712
3387.64399
3447.10732
3598.071
4172.21823
5540.18891
5726.57815
5713.99028
5664.16883
5507.03595
5379.81461
5063.89124
4813.06268
4327.56331
3893.14227
3369.37425
3294.22171
4057.56771
5022.08344
5122.45815
5015.23128
4704.22865
4149.5454
3444.85131
2502.28782
1115.58687
-220.549491
-1645.88725
-3579.92056
-4906.92924
-8086.13769
-8102.86774
1576.52595
2492.99501
63.0438212
-1115.49865
-3070.96189
-5473.49238
-7269.8437
-11413.7355
-13968.6799
-19732.0894
-21778.0245
-24532.1893
-27591.5434
-30395.0319
-34322.0621
-38220.1618
-38926.878
-43034.0827
-49717.4454
-56991.1072
-60566.5348
-60871.5617
-68422.8278
-79290.3955
-85530.1671
-91435.1816
-96785.7594
-102316.787
-107514.211
-112622.294
-117414.524
-122048.591
-125988.048
-130043.353
-133209.501
-136759.845
-139297.992
-142425.698
-144741.867
-147859.664
-150144.742
-153218.624
-155559.312
-158679.295
-161178.28
-164421.467
-167083.787
-170418.509
-173129.413
-176463.648
-179140.372
-182418.142
-185040.705
-188196.582
-190717.249
-193715.211
-196179.504
-198977.977
-201264.207
-204273.833
-207295.016
-208960.957
-210548.36
-215982.299
-222509.264
-218232.706
-213196.216
-233040.466
-247827.428
-218486.737
-196478.043
-254562.028
-277637.118
-212645.037
-197183.104
-279447.426
-292032.942
-224889.859
-208444.462
-287941.26
-284996.679
-234941.339
-210824.675
-278448.166
-273262.991
-235174.387
-213160.93
-267123.542
-264217.976
-232713.38
-213768.762
-257732.016
-256266.446
-229107.738
-213721.241
-249883.592
-249670.985
-225141.984
-213159.48
-243435.951
-243966.321
-221037.39
-212190.2
-238627.134
-238745.698
)
;

boundaryField
{
    closed
    {
        type            lookUpEnthalpy;
        h0              nonuniform List<scalar> 0();
        value           nonuniform List<scalar> 0();
    }
    open
    {
        type            zeroGradient;
    }
    sides
    {
        type            empty;
    }
    procBoundary4to3
    {
        type            processor;
        value           uniform 9135.5051;
    }
    procBoundary4to5
    {
        type            processor;
        value           uniform -217622.604;
    }
}


// ************************************************************************* //
