/*--------------------------------*- C++ -*----------------------------------*\
| =========                 |                                                 |
| \\      /  F ield         | OpenFOAM: The Open Source CFD Toolbox           |
|  \\    /   O peration     | Version:  2306                                  |
|   \\  /    A nd           | Website:  www.openfoam.com                      |
|    \\/     M anipulation  |                                                 |
\*---------------------------------------------------------------------------*/
FoamFile
{
    version     2.0;
    format      ascii;
    arch        "LSB;label=32;scalar=64";
    class       volScalarField;
    location    "0.00144";
    object      prefDh_H;
}
// * * * * * * * * * * * * * * * * * * * * * * * * * * * * * * * * * * * * * //

dimensions      [1 1 -3 0 0 0 0];

internalField   nonuniform List<scalar> 
531
(
23948.1172
23481.2789
23407.8934
23202.8711
23202.2338
23041.8235
22905.1734
23356.5625
23921.1493
23991.3671
23406.5289
23185.8973
23953.8654
23957.5
23267.0874
23073.9006
23982.5374
23944.1941
23366.1861
23052.4207
23359.8496
23947.6397
23985.8122
23381.8181
23079.658
24001.0911
23929.2952
23370.5317
22968.4696
23167.5319
23903.1585
23964.1252
23892.5265
23382.2449
22754.0781
22824.4053
23927.7489
23919.165
23456.3414
23086.8779
23255.2178
23933.0539
23981.6819
23919.2958
23348.4233
22903.7316
23363.7817
23905.9067
23715.9148
23214.0258
23131.2055
22812.1713
22821.2856
23921.8052
23910.4048
23911.2419
23425.5757
23184.9906
23933.4601
23994.5141
23013.0441
23354.6501
23927.2196
23382.7959
22989.2683
23406.8414
23929.2861
23372.3954
23055.7971
23624.5359
23935.7947
23422.8789
23103.6712
23916.7561
23931.6441
23419.1289
23131.9182
23479.9752
23916.8503
23930.0593
23116.4302
22890.2426
23595.0323
23892.3917
23409.708
23233.6303
23195.0891
22775.4149
22848.2154
23880.9734
23939.1229
23895.7365
23953.2092
23932.0813
23388.3751
23070.9385
22929.2031
23363.9499
23925.7257
23389.2501
23006.3689
23418.2527
23929.4439
23368.9025
23046.8301
23508.2112
23936.0227
23393.204
23073.0129
23686.06
23938.1592
23389.909
23106.4919
23898.0827
23935.6718
23339.3657
23131.0094
23885.9213
23936.5233
23508.1978
23199.5176
22981.2244
23383.4209
23928.2084
23628.0178
23159.6756
22874.5835
23251.1257
23897.8624
23977.056
23416.1641
23155.6739
23900.6835
23956.5792
23390.7588
23083.5097
23893.9276
23959.031
23430.6145
23178.2696
22931.4534
23132.287
23905.0186
23969.2809
23406.5265
23107.2046
23942.1195
23956.8098
23365.8939
23088.821
23353.5946
23913.2181
23989.8185
23407.9702
23129.8841
23900.1461
23951.9586
23381.6574
23176.3904
23901.3701
23935.1441
23404.7299
23377.9345
23230.7524
22961.2724
23373.4695
23896.2125
23388.4996
23061.4135
23371.5866
23908.6725
23975.3145
23409.5213
23091.5533
23889.7337
23956.9575
23437.7031
23150.9198
22946.3334
23336.3308
23891.2093
23988.7676
23419.5354
23215.7429
23874.7352
23958.9329
23521.9061
23395.3176
23204.3866
23183.9362
23022.6674
22837.4178
23360.7065
23857.354
23979.0455
23857.6716
23952.6156
23899.0208
23398.9969
23097.0629
22824.5418
22830.4051
23877.9557
23923.4378
23917.1983
23415.0127
23274.5178
23834.2146
23954.6948
23672.298
23258.943
22897.9393
23367.9085
23914.5629
23558.0626
23105.7804
22823.6634
23134.3659
23885.6694
23975.4906
23407.7532
23120.8362
23894.7675
23940.8529
23378.2113
23054.3521
23363.1303
23893.2219
24007.8263
23944.9401
23346.9831
22892.6719
23365.9807
23885.9213
23387.0832
23147.3725
23868.3863
23932.1081
23425.6548
23420.8702
22908.8112
22922.0889
23820.2523
23919.7733
23403.8039
23250.1557
23197.8382
22832.1152
22907.5
23853.5061
23942.8298
23886.2681
23946.845
23424.4068
23272.3252
23797.0059
23926.8509
23648.673
23056.4197
22883.2339
23567.4051
23903.4555
23438.5773
22846.3739
22785.182
23388.7459
23904.4645
23958.7362
23408.061
23176.184
23868.7998
23926.3793
23413.1481
23344.5053
23220.5846
22857.4032
23042.1007
23851.1838
23956.9721
23874.2017
23956.3758
23584.597
23396.3119
22982.2746
22874.0757
23336.0187
23896.5618
23992.3159
23404.2537
23116.7413
23869.3216
23931.3417
23410.0717
23258.1675
23220.036
22852.3421
22919.9721
23871.248
23949.9449
23912.9687
23382.3628
23144.3257
23355.2574
23900.4244
24007.6438
23927.3355
23392.7703
22885.4593
23155.2886
23832.5845
23973.8202
23904.2112
23361.8832
23028.9937
23058.0443
22746.1408
22809.7175
23884.2154
23933.622
23926.6468
23399.1907
23242.9655
23896.3797
23944.8563
23405.0181
23260.1298
23186.3682
22738.1955
22799.5996
23861.0859
23941.7509
23896.7951
23951.139
23408.1674
23103.4124
23877.9439
23967.6539
23424.108
23008.7071
22837.3155
23336.1098
23899.8475
23998.345
23399.8419
23155.9548
23890.6789
23947.2606
23393.3515
23253.5205
23146.7443
22689.8098
22889.9659
23886.455
23985.9879
23933.6595
23971.8309
23976.3544
23654.791
23224.5969
22751.2211
22539.694
23183.2995
24007.3643
24134.8402
24089.8049
23254.7877
22811.722
23967.1483
24071.1033
24088.3914
24085.9555
23061.8442
23907.2693
24195.8596
22968.2459
22837.4521
23895.8817
24159.5455
24131.1581
22929.4072
22624.2882
23700.5525
24004.5183
23901.0308
23979.3906
23948.9178
23985.8882
23975.0823
24000.4208
23996.8796
24019.7862
24022.4551
24048.6921
24063.5241
24098.0121
24135.0974
24189.8323
24266.8366
24414.874
24668.2688
24563.3066
24473.668
24343.8375
24264.2202
24163.9598
24103.3965
24033.5173
23999.2926
23934.1363
23872.6624
23812.3567
23837.9887
23822.5979
23756.6535
23722.5303
23685.0686
23682.9549
23674.1054
23702.5254
23579.6499
23526.2439
23364.0142
23338.5087
23146.8255
23164.1981
22976.5144
25119.1199
24580.5952
24596.3272
24181.0806
24103.8838
23745.5381
23623.5934
23265.5035
23102.1473
22713.3589
22670.1913
22720.5582
22759.6966
22804.1079
22854.254
22893.6962
22947.8624
22986.7787
23183.7702
24186.2801
25421.9376
26353.9536
26695.693
30132.7913
31780.4517
33344.6706
34870.0017
36205.2963
37621.8872
38812.2627
40442.9461
41725.4135
43573.1099
44928.2896
46885.5963
48234.914
50223.1137
51515.2403
53442.1881
54628.7566
56429.648
57490.9098
59141.9407
60107.9098
61680.6725
62605.0019
63965.3022
64719.1412
65906.1137
66513.3393
67565.1875
68067.788
69051.1685
69489.9137
70383.0249
70729.8549
71550.2863
71821.3808
72604.5165
72789.9495
73516.3681
73694.4493
74480.2531
74469.8027
75146.3965
75273.2554
76007.2778
76138.1924
76998.3153
76461.8203
77619.5665
77676.0403
78699.3105
77601.1043
78505.9745
79077.5546
79741.9374
78460.2774
79275.0691
80117.7218
80233.568
79523.2749
79939.493
80657.0794
80901.0751
80261.5143
80554.2513
81262.0047
81374.4199
80827.3966
81039.3347
81721.7732
81769.6121
81264.4952
81426.1478
82038.3367
82080.8837
81614.0837
81738.033
82313.7809
82340.844
81902.0954
81999.2473
82571.9608
82572.704
)
;

boundaryField
{
    closed
    {
        type            calculated;
        value           nonuniform List<scalar> 0();
    }
    open
    {
        type            calculated;
        value           nonuniform List<scalar> 0();
    }
    sides
    {
        type            empty;
    }
    procBoundary4to3
    {
        type            processor;
        value           uniform 23960.4526;
    }
    procBoundary4to5
    {
        type            processor;
        value           uniform 82155.1748;
    }
}


// ************************************************************************* //
