/*--------------------------------*- C++ -*----------------------------------*\
| =========                 |                                                 |
| \\      /  F ield         | OpenFOAM: The Open Source CFD Toolbox           |
|  \\    /   O peration     | Version:  2306                                  |
|   \\  /    A nd           | Website:  www.openfoam.com                      |
|    \\/     M anipulation  |                                                 |
\*---------------------------------------------------------------------------*/
FoamFile
{
    version     2.0;
    format      ascii;
    arch        "LSB;label=32;scalar=64";
    class       volScalarField;
    location    "0.00144";
    object      prefDZ_H2O;
}
// * * * * * * * * * * * * * * * * * * * * * * * * * * * * * * * * * * * * * //

dimensions      [1 -1 -1 0 0 0 0];

internalField   nonuniform List<scalar> 
531
(
-7.735477e-07
-7.5979126e-07
-7.40584554e-07
-7.36843942e-07
-7.36882044e-07
-7.34420379e-07
-7.33150119e-07
-7.42819943e-07
-7.74952087e-07
-7.73087222e-07
-7.44311347e-07
-7.36275122e-07
-7.75981823e-07
-7.74106701e-07
-7.37582931e-07
-7.35051168e-07
-7.76127668e-07
-7.74579411e-07
-7.42087961e-07
-7.34907164e-07
-7.41843662e-07
-7.74589325e-07
-7.73296468e-07
-7.41609048e-07
-7.35028268e-07
-7.75312555e-07
-7.7484633e-07
-7.46254171e-07
-7.34221063e-07
-7.36071989e-07
-7.76900666e-07
-7.73189718e-07
-7.7573712e-07
-7.41275322e-07
-7.31513981e-07
-7.31880123e-07
-7.76308768e-07
-7.74923866e-07
-7.57543551e-07
-7.35489383e-07
-7.37339243e-07
-7.75812984e-07
-7.73022358e-07
-7.74650044e-07
-7.38033771e-07
-7.33281627e-07
-7.43413973e-07
-7.75551586e-07
-7.74736091e-07
-7.37181176e-07
-7.3624014e-07
-7.32101414e-07
-7.32217185e-07
-7.77084325e-07
-7.74444715e-07
-7.74990835e-07
-7.41510559e-07
-7.36635625e-07
-7.76924827e-07
-7.74026471e-07
-7.34332398e-07
-7.42685168e-07
-7.75762307e-07
-7.5065912e-07
-7.34126955e-07
-7.54060748e-07
-7.75294941e-07
-7.44661629e-07
-7.34917422e-07
-7.69546469e-07
-7.7480905e-07
-7.39753498e-07
-7.35567686e-07
-7.78181616e-07
-7.74583032e-07
-7.40759044e-07
-7.36072603e-07
-7.59960195e-07
-7.74907087e-07
-7.75591769e-07
-7.35557266e-07
-7.33190185e-07
-7.67802643e-07
-7.75255329e-07
-7.52417083e-07
-7.37640831e-07
-7.36647747e-07
-7.31915386e-07
-7.32268947e-07
-7.78633422e-07
-7.74536121e-07
-7.76680754e-07
-7.7376301e-07
-7.74348658e-07
-7.46874402e-07
-7.34863665e-07
-7.33217155e-07
-7.4394204e-07
-7.76014541e-07
-7.51172173e-07
-7.34293953e-07
-7.55288484e-07
-7.75371395e-07
-7.46076234e-07
-7.34770683e-07
-7.62308107e-07
-7.75049548e-07
-7.42146751e-07
-7.35093974e-07
-7.72975389e-07
-7.74762394e-07
-7.39440387e-07
-7.35584148e-07
-7.78174162e-07
-7.74500295e-07
-7.38918747e-07
-7.35953945e-07
-7.78466104e-07
-7.74285513e-07
-7.61745738e-07
-7.36507331e-07
-7.34186403e-07
-7.48092861e-07
-7.75470284e-07
-7.69962994e-07
-7.35835059e-07
-7.33012593e-07
-7.37088253e-07
-7.7630492e-07
-7.7341687e-07
-7.44530605e-07
-7.35896672e-07
-7.78111423e-07
-7.74304905e-07
-7.39457584e-07
-7.35145529e-07
-7.78474586e-07
-7.7420439e-07
-7.53301379e-07
-7.36119145e-07
-7.33609924e-07
-7.35642055e-07
-7.76524699e-07
-7.73784157e-07
-7.42868472e-07
-7.35268626e-07
-7.78212079e-07
-7.74451661e-07
-7.41803658e-07
-7.35394622e-07
-7.46128228e-07
-7.75178485e-07
-7.73446583e-07
-7.44552429e-07
-7.35588271e-07
-7.78580651e-07
-7.74287654e-07
-7.39309465e-07
-7.36451594e-07
-7.78505354e-07
-7.73960701e-07
-7.50148544e-07
-7.39207597e-07
-7.36885728e-07
-7.33958138e-07
-7.39771704e-07
-7.76888756e-07
-7.51504405e-07
-7.35204818e-07
-7.50656012e-07
-7.75106694e-07
-7.74025515e-07
-7.43864146e-07
-7.35223706e-07
-7.79008038e-07
-7.743638e-07
-7.54522516e-07
-7.35665262e-07
-7.33805318e-07
-7.38057964e-07
-7.76570896e-07
-7.73189518e-07
-7.44120026e-07
-7.36634256e-07
-7.79689863e-07
-7.73537572e-07
-7.62857425e-07
-7.41144434e-07
-7.3698661e-07
-7.36602691e-07
-7.34242748e-07
-7.32407278e-07
-7.41164054e-07
-7.78006272e-07
-7.73642111e-07
-7.77010433e-07
-7.73932536e-07
-7.76951234e-07
-7.39457233e-07
-7.35872597e-07
-7.32119227e-07
-7.32309524e-07
-7.79143903e-07
-7.74191949e-07
-7.74521854e-07
-7.46003261e-07
-7.37673328e-07
-7.80398326e-07
-7.73969851e-07
-7.7269619e-07
-7.37012907e-07
-7.33298531e-07
-7.47632104e-07
-7.76315818e-07
-7.65526787e-07
-7.3513707e-07
-7.3223531e-07
-7.35624936e-07
-7.77501867e-07
-7.73757142e-07
-7.45070712e-07
-7.35475668e-07
-7.80036118e-07
-7.74774111e-07
-7.45888738e-07
-7.35163446e-07
-7.40993409e-07
-7.77176003e-07
-7.72730074e-07
-7.736275e-07
-7.4308709e-07
-7.33026313e-07
-7.40040624e-07
-7.77422183e-07
-7.47492086e-07
-7.36246229e-07
-7.80387919e-07
-7.74118185e-07
-7.51520688e-07
-7.40857688e-07
-7.33554595e-07
-7.33357604e-07
-7.79474269e-07
-7.74999813e-07
-7.49985571e-07
-7.37658645e-07
-7.36616673e-07
-7.32509669e-07
-7.33060001e-07
-7.79556267e-07
-7.74486967e-07
-7.7572494e-07
-7.74077604e-07
-7.50189859e-07
-7.37632875e-07
-7.78616159e-07
-7.74640286e-07
-7.71395663e-07
-7.34880858e-07
-7.33138615e-07
-7.66157771e-07
-7.76149256e-07
-7.54996026e-07
-7.32099189e-07
-7.31570039e-07
-7.53209386e-07
-7.75613792e-07
-7.74613886e-07
-7.44326917e-07
-7.36516228e-07
-7.80220613e-07
-7.74317464e-07
-7.51860989e-07
-7.38853949e-07
-7.36826248e-07
-7.32825349e-07
-7.34668895e-07
-7.79331981e-07
-7.73975299e-07
-7.7635575e-07
-7.7361087e-07
-7.67284905e-07
-7.40869117e-07
-7.33676349e-07
-7.32615294e-07
-7.42315491e-07
-7.76370396e-07
-7.73685037e-07
-7.4549719e-07
-7.35537676e-07
-7.80604552e-07
-7.74581294e-07
-7.51046368e-07
-7.37724142e-07
-7.36972316e-07
-7.32695294e-07
-7.33282585e-07
-7.7894013e-07
-7.73835936e-07
-7.74302753e-07
-7.4929622e-07
-7.36220447e-07
-7.48280016e-07
-7.76512918e-07
-7.73129723e-07
-7.74305849e-07
-7.51585214e-07
-7.33328896e-07
-7.35955079e-07
-7.79651193e-07
-7.7322039e-07
-7.75161618e-07
-7.4145488e-07
-7.35096938e-07
-7.34761535e-07
-7.31382926e-07
-7.31922306e-07
-7.78998285e-07
-7.74118293e-07
-7.74294587e-07
-7.44707528e-07
-7.37236669e-07
-7.79589466e-07
-7.74126463e-07
-7.51426169e-07
-7.37660243e-07
-7.36397947e-07
-7.31253694e-07
-7.31666865e-07
-7.79744222e-07
-7.74899706e-07
-7.75863656e-07
-7.74505126e-07
-7.47502057e-07
-7.35272005e-07
-7.80079071e-07
-7.74624597e-07
-7.53073457e-07
-7.33675995e-07
-7.32190741e-07
-7.40554488e-07
-7.76567721e-07
-7.73407306e-07
-7.44616453e-07
-7.35923566e-07
-7.80125844e-07
-7.74290318e-07
-7.50101403e-07
-7.37522981e-07
-7.35608466e-07
-7.3044166e-07
-7.32414702e-07
-7.79972181e-07
-7.74409269e-07
-7.76465143e-07
-7.74963086e-07
-7.74403615e-07
-7.71134117e-07
-7.36254337e-07
-7.29665257e-07
-7.27301699e-07
-7.347197e-07
-7.77559242e-07
-7.71820227e-07
-7.72556837e-07
-7.36005626e-07
-7.30295151e-07
-7.82517451e-07
-7.7592787e-07
-7.76323697e-07
-7.76534731e-07
-7.31985291e-07
-7.80748799e-07
-7.69981973e-07
-7.31001421e-07
-7.27895667e-07
-7.76036535e-07
-7.6696953e-07
-7.67816725e-07
-7.28109468e-07
-7.22837696e-07
-7.67433375e-07
-7.61758645e-07
-7.63891027e-07
-7.58570522e-07
-7.58775824e-07
-7.54790539e-07
-7.54008295e-07
-7.50607857e-07
-7.49311788e-07
-7.46246244e-07
-7.44547035e-07
-7.41825554e-07
-7.39810822e-07
-7.37438593e-07
-7.35243038e-07
-7.33323399e-07
-7.31573214e-07
-7.30335071e-07
-7.31077618e-07
-7.28246118e-07
-7.25962484e-07
-7.22120725e-07
-7.19274706e-07
-7.15054383e-07
-7.11661852e-07
-7.06952218e-07
-7.03095977e-07
-6.97765215e-07
-6.93938753e-07
-6.89519184e-07
-6.88801564e-07
-6.87632796e-07
-6.83218293e-07
-6.79438104e-07
-6.72915615e-07
-6.68241469e-07
-6.6000163e-07
-6.5509895e-07
-6.43598161e-07
-6.38736136e-07
-6.2549173e-07
-6.22452857e-07
-6.06542696e-07
-6.0673901e-07
-5.8737058e-07
-6.2816385e-07
-5.99567569e-07
-5.99746607e-07
-5.76795219e-07
-5.72178253e-07
-5.51893206e-07
-5.44926363e-07
-5.24695537e-07
-5.15710691e-07
-4.94910079e-07
-4.86865334e-07
-4.74939928e-07
-4.65419942e-07
-4.54834842e-07
-4.42702898e-07
-4.32963364e-07
-4.26020231e-07
-4.23340439e-07
-3.97927324e-07
-3.60857514e-07
-3.29157266e-07
-3.39615736e-07
-3.11822192e-07
-1.80357587e-07
-1.37495506e-07
-8.23526084e-08
-3.76060314e-08
1.16951091e-08
6.15383563e-08
1.06620537e-07
1.68574843e-07
2.16715193e-07
2.91101758e-07
3.43548347e-07
4.27575469e-07
4.82567547e-07
5.72978198e-07
6.28229649e-07
7.19827041e-07
7.72104333e-07
8.5929139e-07
9.06101877e-07
9.85187211e-07
1.0263189e-06
1.09757061e-06
1.13468753e-06
1.19591745e-06
1.22688168e-06
1.28106705e-06
1.30679684e-06
1.35536789e-06
1.37739295e-06
1.42279231e-06
1.44257733e-06
1.484043e-06
1.50054779e-06
1.53873752e-06
1.55253362e-06
1.58854941e-06
1.59964372e-06
1.63384918e-06
1.6425583e-06
1.67508348e-06
1.68367647e-06
1.71882587e-06
1.71441138e-06
1.73110662e-06
1.76936701e-06
1.82567013e-06
1.75577176e-06
1.76304915e-06
1.86528366e-06
1.95162169e-06
1.79243871e-06
1.80141305e-06
1.96797598e-06
2.01325846e-06
1.85091101e-06
1.85896144e-06
2.02233615e-06
2.02506391e-06
1.91900456e-06
1.89954308e-06
2.03516211e-06
2.04089022e-06
1.95856947e-06
1.93756775e-06
2.04940858e-06
2.05202016e-06
1.98495507e-06
1.96558678e-06
2.05991109e-06
2.06123923e-06
2.0028398e-06
1.98695714e-06
2.06605922e-06
2.06845606e-06
2.01572429e-06
2.00334784e-06
2.07190733e-06
2.07446696e-06
2.02519615e-06
2.01646352e-06
2.07876498e-06
2.07980699e-06
)
;

boundaryField
{
    closed
    {
        type            calculated;
        value           nonuniform List<scalar> 0();
    }
    open
    {
        type            calculated;
        value           nonuniform List<scalar> 0();
    }
    sides
    {
        type            empty;
    }
    procBoundary4to3
    {
        type            processor;
        value           uniform -7.76141516e-07;
    }
    procBoundary4to5
    {
        type            processor;
        value           uniform 2.03345112e-06;
    }
}


// ************************************************************************* //
