/*--------------------------------*- C++ -*----------------------------------*\
| =========                 |                                                 |
| \\      /  F ield         | OpenFOAM: The Open Source CFD Toolbox           |
|  \\    /   O peration     | Version:  2306                                  |
|   \\  /    A nd           | Website:  www.openfoam.com                      |
|    \\/     M anipulation  |                                                 |
\*---------------------------------------------------------------------------*/
FoamFile
{
    version     2.0;
    format      ascii;
    arch        "LSB;label=32;scalar=64";
    class       volScalarField;
    location    "0.00058";
    object      H2;
}
// * * * * * * * * * * * * * * * * * * * * * * * * * * * * * * * * * * * * * //

dimensions      [0 0 0 0 0 0 0];

internalField   nonuniform List<scalar> 
530
(
0.0108674743
0.0108095616
0.0108034849
0.0108034633
0.0108034604
0.0108034603
0.0108034603
0.0108034603
0.0108034603
0.0108034603
0.0108034603
0.0108034603
0.0108034603
0.0108034603
0.0108034603
0.0108034603
0.0108034603
0.0108034603
0.0108034603
0.0108034603
0.0108034603
0.0108034603
0.0108034603
0.0108034603
0.0108034603
0.0108034603
0.0108034603
0.0108034603
0.0108034603
0.0108034603
0.0108034603
0.0108034603
0.0108034603
0.0108034603
0.0108034603
0.0108034603
0.0108034603
0.0108034603
0.0108034603
0.0108034603
0.0108034603
0.0108034603
0.0108034603
0.0108034603
0.0108034603
0.0108034603
0.0108034603
0.0108034603
0.0108034603
0.0108034603
0.0108034603
0.0108034603
0.0108034603
0.0108034603
0.0108034603
0.0108034603
0.0108034603
0.0108034603
0.0108034603
0.0108034603
0.0108034603
0.0108034603
0.0108034603
0.0108034603
0.0108034603
0.0108034603
0.0108034603
0.0108034603
0.0108034603
0.0108034603
0.0108034603
0.0108034603
0.0108034603
0.0108034603
0.0108034603
0.0108034603
0.0108034603
0.0108034603
0.0108034604
0.0108034606
0.0108034612
0.0108034604
0.0108034622
0.0108034706
0.0108034774
0.0108034552
0.0108034324
0.0108034736
0.0108037061
0.0108045397
0.0108044723
0.0107978551
0.0107965252
0.0108122092
0.0108288002
0.0108292865
0.0107293957
0.0106992618
0.0108315719
0.0110430401
0.010977396
0.0107129183
0.0106693001
0.0106676641
0.0107297259
0.0110492757
0.0110092442
0.0110569893
0.0107505467
0.0106827237
0.0106745273
0.0107137916
0.0110696392
0.0110095721
0.0107157397
0.0107375637
0.0110719466
0.0110496106
0.0106978841
0.0106603283
0.0106926398
0.0110682001
0.0110056423
0.0106953036
0.0107109874
0.0110773211
0.011003093
0.0106932183
0.0107051226
0.0110779701
0.0110006224
0.0106907352
0.0106997998
0.0110782605
0.0110020794
0.0106903523
0.0106987008
0.0110760093
0.0110079002
0.0106928843
0.0107024107
0.0110693366
0.0110149812
0.0106974058
0.0107101947
0.011063655
0.0110603919
0.0106907877
0.0106584324
0.0106915779
0.0110658807
0.0110268963
0.0107004166
0.0107160991
0.0110546062
0.0110704192
0.0106914234
0.0106590114
0.0106943123
0.0110634826
0.0110215072
0.0106943622
0.0107079772
0.0110555016
0.0110177585
0.0106916125
0.0107047212
0.0110560977
0.0110134993
0.0106891617
0.0107017113
0.0110554214
0.0110160281
0.0106896599
0.0107031086
0.011051764
0.0110220733
0.010692223
0.0107082376
0.0110460747
0.0110710664
0.0106849224
0.0106542793
0.0106958484
0.011051841
0.0110400619
0.0106933328
0.0107108546
0.0110396691
0.0110462864
0.0106955289
0.0107157821
0.0110349899
0.0110611014
0.0106872637
0.0106585895
0.0107041346
0.0110438417
0.0110533916
0.010694583
0.0107156333
0.0110322018
0.0110599442
0.0106844116
0.010655712
0.0107024935
0.0110436026
0.0110464755
0.0106882256
0.0107080462
0.0110348314
0.0110404515
0.0106858868
0.0107062449
0.0110342169
0.0110390025
0.0106848163
0.0107053048
0.0110330765
0.0110407629
0.0106854114
0.0107077012
0.0110292143
0.0110605201
0.0106769654
0.0106491729
0.01069918
0.0110394396
0.0110557934
0.0106833357
0.0107047498
0.0110287472
0.0110554826
0.0106830025
0.0107053863
0.0110264933
0.0110605297
0.010683184
0.0107067043
0.0110224733
0.0110505433
0.0106760758
0.010648983
0.010701163
0.0110317772
0.0110732159
0.0106839525
0.010705945
0.0110195639
0.0110673758
0.0106857577
0.0107102709
0.0110149733
0.0110360064
0.0106822203
0.0106570588
0.0107129519
0.0110223361
0.0110443665
0.0106946613
0.0107212679
0.0110085684
0.0110224259
0.0106974295
0.0106838414
0.0106812427
0.0106723078
0.0107246035
0.0110152822
0.0110224422
0.0106871736
0.0106608317
0.0107192581
0.0110185668
0.0110373811
0.0106890061
0.0107108617
0.0110076358
0.011036414
0.0106908658
0.0107186797
0.011004603
0.0110156439
0.0106948465
0.0106744435
0.0106798308
0.0106690238
0.010668278
0.0107997654
0.0110362447
0.0109965946
0.0110698598
0.0106896825
0.0107089463
0.0110106465
0.0110481477
0.0106803337
0.0107023453
0.0110125829
0.0110191243
0.0106757738
0.0106490953
0.0107058301
0.011023665
0.0110203056
0.010680144
0.0106522472
0.0107059096
0.011022601
0.0110299817
0.0106875832
0.0107061359
0.0110116698
0.0110137276
0.0106818563
0.0106587968
0.0107225314
0.0110191545
0.011015788
0.0106869285
0.0106626278
0.010731638
0.0110160792
0.0110139124
0.0106911664
0.0106679958
0.0107448117
0.0110131265
0.011010711
0.0107064583
0.0106767038
0.0106757408
0.0107269428
0.0110110966
0.0110126994
0.0106872884
0.0106626942
0.0107290826
0.011016223
0.0110164824
0.010683352
0.0106551553
0.0107048459
0.011019055
0.0110190757
0.010683503
0.0106931144
0.0110083732
0.0110197474
0.0106817245
0.0106985092
0.0110069817
0.0110174135
0.0106750955
0.0106522886
0.0107123965
0.0110173175
0.0110183222
0.0106779637
0.0106520549
0.0107053109
0.0110160743
0.0110189284
0.0106836346
0.0107016603
0.0110058137
0.011020829
0.0106756461
0.0106528473
0.0107060916
0.011015293
0.0110218021
0.0106835361
0.0107034258
0.0110044335
0.011021408
0.0106777559
0.0106574502
0.0107240879
0.0110136685
0.0110200299
0.0106798843
0.0106573158
0.0107217455
0.0110146962
0.0110211818
0.0106766327
0.0106523007
0.0107030776
0.0110189257
0.0110284942
0.0106790913
0.0106913546
0.0110116364
0.0110256154
0.0106779465
0.010693515
0.0110135509
0.0110175392
0.0106714279
0.0106452738
0.0106867914
0.0110312185
0.0110265075
0.0106802764
0.0106836031
0.0110393665
0.0110210528
0.0106848001
0.0106888269
0.0110619726
0.0110154176
0.0106982224
0.010651458
0.0106719716
0.0110713629
0.0110217891
0.0107277785
0.0106886725
0.0109760933
0.0110228015
0.01076476
0.0106599746
0.0106610112
0.010972892
0.011028205
0.0107883584
0.0106902928
0.0108763622
0.0110385124
0.0108346247
0.010664699
0.0106563469
0.0108500375
0.0110446444
0.0108371533
0.0106846504
0.010802495
0.0110574636
0.0108572271
0.0106862165
0.0107856163
0.011061404
0.0108773046
0.0106907354
0.0107792181
0.0110641944
0.0109285861
0.0106756887
0.0106573151
0.010763571
0.0110601475
0.0109167103
0.0107005915
0.0107719376
0.0110605459
0.0109644387
0.0106842417
0.0106678624
0.0107653908
0.0110567621
0.0109828711
0.0106852797
0.0106662254
0.0107531266
0.0110552116
0.0109500809
0.0107033353
0.0107620465
0.0110546432
0.0109958674
0.010684295
0.0106632199
0.010746039
0.0110511799
0.0109606393
0.0107022359
0.0107592693
0.0110474363
0.011016334
0.0106913608
0.0106726948
0.0107713484
0.0110386676
0.0110270374
0.0107159988
0.0106712247
0.0106694672
0.010784343
0.0110510079
0.0110021668
0.0110577888
0.0107338738
0.0106896495
0.0106868123
0.0106806557
0.0106789831
0.0107733748
0.0110332775
0.0110194746
0.0107305366
0.0107791199
0.0110301578
0.0110746799
0.0106913959
0.0106735128
0.0107643676
0.0110344333
0.0110773452
0.0107049351
0.0106735121
0.0106705442
0.0107414989
0.0110409466
0.010999238
0.0107084079
0.0107586523
0.011029874
0.0110654901
0.0106903984
0.0106757456
0.010776063
0.0110295931
0.011062
0.010685504
0.0106676492
0.0107514157
0.0110339633
0.0110657971
0.0106808565
)
;

boundaryField
{
    closed
    {
        type            calculated;
        value           uniform 0.0144456651;
    }
    open
    {
        type            calculated;
        value           nonuniform List<scalar> 0();
    }
    sides
    {
        type            empty;
    }
    procBoundary0to1
    {
        type            processor;
        value           uniform 0.0106617139;
    }
}


// ************************************************************************* //
