/*--------------------------------*- C++ -*----------------------------------*\
| =========                 |                                                 |
| \\      /  F ield         | OpenFOAM: The Open Source CFD Toolbox           |
|  \\    /   O peration     | Version:  2306                                  |
|   \\  /    A nd           | Website:  www.openfoam.com                      |
|    \\/     M anipulation  |                                                 |
\*---------------------------------------------------------------------------*/
FoamFile
{
    version     2.0;
    format      ascii;
    arch        "LSB;label=32;scalar=64";
    class       volScalarField;
    location    "0.00058";
    object      prefDZ_T;
}
// * * * * * * * * * * * * * * * * * * * * * * * * * * * * * * * * * * * * * //

dimensions      [1 -1 -1 -1 0 0 0];

internalField   nonuniform List<scalar> 
530
(
-1.20921722e-09
-1.20435408e-09
-1.20403163e-09
-1.20403314e-09
-1.20403318e-09
-1.20403318e-09
-1.20403318e-09
-1.20403318e-09
-1.20403318e-09
-1.20403318e-09
-1.20403318e-09
-1.20403318e-09
-1.20403318e-09
-1.20403318e-09
-1.20403318e-09
-1.20403318e-09
-1.20403318e-09
-1.20403318e-09
-1.20403318e-09
-1.20403318e-09
-1.20403318e-09
-1.20403318e-09
-1.20403318e-09
-1.20403318e-09
-1.20403318e-09
-1.20403318e-09
-1.20403318e-09
-1.20403318e-09
-1.20403318e-09
-1.20403318e-09
-1.20403318e-09
-1.20403318e-09
-1.20403318e-09
-1.20403318e-09
-1.20403318e-09
-1.20403318e-09
-1.20403318e-09
-1.20403318e-09
-1.20403318e-09
-1.20403318e-09
-1.20403318e-09
-1.20403318e-09
-1.20403318e-09
-1.20403318e-09
-1.20403318e-09
-1.20403318e-09
-1.20403318e-09
-1.20403318e-09
-1.20403318e-09
-1.20403318e-09
-1.20403318e-09
-1.20403318e-09
-1.20403318e-09
-1.20403318e-09
-1.20403318e-09
-1.20403318e-09
-1.20403318e-09
-1.20403318e-09
-1.20403318e-09
-1.20403318e-09
-1.20403318e-09
-1.20403318e-09
-1.20403318e-09
-1.20403318e-09
-1.20403318e-09
-1.20403318e-09
-1.20403318e-09
-1.20403318e-09
-1.20403318e-09
-1.20403318e-09
-1.20403318e-09
-1.20403318e-09
-1.20403318e-09
-1.20403318e-09
-1.20403318e-09
-1.20403318e-09
-1.20403318e-09
-1.20403318e-09
-1.20403318e-09
-1.20403319e-09
-1.20403324e-09
-1.20403309e-09
-1.20403318e-09
-1.20403396e-09
-1.20403444e-09
-1.20403144e-09
-1.20402787e-09
-1.20403124e-09
-1.20405701e-09
-1.20414897e-09
-1.20413893e-09
-1.20337334e-09
-1.20320919e-09
-1.20501142e-09
-1.20687948e-09
-1.20692426e-09
-1.19527944e-09
-1.19160762e-09
-1.20721843e-09
-1.23056925e-09
-1.22338554e-09
-1.19345948e-09
-1.18836499e-09
-1.18815375e-09
-1.19560826e-09
-1.23121776e-09
-1.22697103e-09
-1.23207886e-09
-1.19783716e-09
-1.18973306e-09
-1.18886662e-09
-1.19355371e-09
-1.23341201e-09
-1.22689901e-09
-1.19351181e-09
-1.19631368e-09
-1.23365978e-09
-1.23124919e-09
-1.19156686e-09
-1.18739212e-09
-1.19104284e-09
-1.23324822e-09
-1.22646992e-09
-1.1910222e-09
-1.19315036e-09
-1.23422887e-09
-1.22619209e-09
-1.19079308e-09
-1.19243468e-09
-1.23429701e-09
-1.22592306e-09
-1.1905292e-09
-1.19177912e-09
-1.23432721e-09
-1.22608157e-09
-1.19048236e-09
-1.19161911e-09
-1.23408706e-09
-1.2267147e-09
-1.19073337e-09
-1.19203196e-09
-1.23337499e-09
-1.22748462e-09
-1.19118537e-09
-1.19287675e-09
-1.23276703e-09
-1.23241238e-09
-1.19057662e-09
-1.18717831e-09
-1.19074504e-09
-1.23301036e-09
-1.22877969e-09
-1.19148217e-09
-1.19350411e-09
-1.23179999e-09
-1.23349745e-09
-1.19062976e-09
-1.18723309e-09
-1.19105355e-09
-1.23275228e-09
-1.22819375e-09
-1.19085815e-09
-1.19257753e-09
-1.23189413e-09
-1.2277859e-09
-1.19057828e-09
-1.19220299e-09
-1.23195657e-09
-1.22732279e-09
-1.19032649e-09
-1.19184299e-09
-1.23188349e-09
-1.22759708e-09
-1.19037644e-09
-1.19199745e-09
-1.2314937e-09
-1.22825337e-09
-1.19063741e-09
-1.19251682e-09
-1.23088283e-09
-1.23356456e-09
-1.18994447e-09
-1.18675316e-09
-1.19121668e-09
-1.23150531e-09
-1.23020243e-09
-1.19075131e-09
-1.19283124e-09
-1.23020318e-09
-1.23087718e-09
-1.19098325e-09
-1.19336293e-09
-1.22970012e-09
-1.23249955e-09
-1.19018451e-09
-1.18718808e-09
-1.19218107e-09
-1.23065336e-09
-1.23164435e-09
-1.19088099e-09
-1.19331346e-09
-1.22940249e-09
-1.23237544e-09
-1.18988962e-09
-1.18689707e-09
-1.19198227e-09
-1.2306262e-09
-1.23089471e-09
-1.19022992e-09
-1.19246018e-09
-1.2296852e-09
-1.23024343e-09
-1.18999842e-09
-1.19225222e-09
-1.22961922e-09
-1.23008599e-09
-1.18988874e-09
-1.1921362e-09
-1.22949834e-09
-1.23027693e-09
-1.18995134e-09
-1.19233967e-09
-1.22908168e-09
-1.23243326e-09
-1.18912405e-09
-1.18623786e-09
-1.19155383e-09
-1.23018073e-09
-1.23189891e-09
-1.18973537e-09
-1.19201381e-09
-1.22903593e-09
-1.23186647e-09
-1.18971291e-09
-1.1920844e-09
-1.22879556e-09
-1.23241152e-09
-1.18973748e-09
-1.19219915e-09
-1.22836146e-09
-1.23136403e-09
-1.18904197e-09
-1.18622305e-09
-1.19176126e-09
-1.22936228e-09
-1.23377934e-09
-1.18981659e-09
-1.19206821e-09
-1.22805577e-09
-1.23315721e-09
-1.19002152e-09
-1.19263472e-09
-1.227562e-09
-1.2298103e-09
-1.18968388e-09
-1.18704833e-09
-1.19319112e-09
-1.22835839e-09
-1.23069244e-09
-1.19094058e-09
-1.19402878e-09
-1.22688531e-09
-1.22836265e-09
-1.19134236e-09
-1.1897922e-09
-1.18958901e-09
-1.18862653e-09
-1.19464887e-09
-1.22760094e-09
-1.22836083e-09
-1.1901981e-09
-1.18744446e-09
-1.19397631e-09
-1.22795549e-09
-1.22994215e-09
-1.19037837e-09
-1.19271635e-09
-1.2267834e-09
-1.22984314e-09
-1.19061422e-09
-1.19375651e-09
-1.22645878e-09
-1.22763464e-09
-1.19109476e-09
-1.188857e-09
-1.18943153e-09
-1.18833237e-09
-1.18822149e-09
-1.2036188e-09
-1.22985535e-09
-1.22561548e-09
-1.23342656e-09
-1.19052433e-09
-1.1923662e-09
-1.22710322e-09
-1.23109726e-09
-1.18950428e-09
-1.19170357e-09
-1.22730834e-09
-1.22800501e-09
-1.18904355e-09
-1.18625207e-09
-1.19241516e-09
-1.22849771e-09
-1.22812862e-09
-1.18947443e-09
-1.18657398e-09
-1.19233792e-09
-1.22838778e-09
-1.22915047e-09
-1.19023158e-09
-1.19222921e-09
-1.2272162e-09
-1.2274339e-09
-1.18966558e-09
-1.18724331e-09
-1.19443152e-09
-1.22801999e-09
-1.22765002e-09
-1.19017883e-09
-1.18763877e-09
-1.19551989e-09
-1.22769378e-09
-1.22745131e-09
-1.19061616e-09
-1.18818932e-09
-1.19709814e-09
-1.22738307e-09
-1.22710944e-09
-1.19237379e-09
-1.1890972e-09
-1.1890025e-09
-1.19488038e-09
-1.22715832e-09
-1.22732514e-09
-1.19022007e-09
-1.18764622e-09
-1.19520052e-09
-1.22770896e-09
-1.22772599e-09
-1.18980349e-09
-1.18687492e-09
-1.19224979e-09
-1.22800928e-09
-1.22798799e-09
-1.18981649e-09
-1.19077246e-09
-1.22686542e-09
-1.22806287e-09
-1.18965247e-09
-1.19132947e-09
-1.22671434e-09
-1.22782887e-09
-1.18897037e-09
-1.18658262e-09
-1.19320764e-09
-1.22782354e-09
-1.22792082e-09
-1.18924242e-09
-1.18656084e-09
-1.19231553e-09
-1.22769181e-09
-1.22797439e-09
-1.18982607e-09
-1.19174679e-09
-1.22659418e-09
-1.22819535e-09
-1.18901597e-09
-1.18663654e-09
-1.19242809e-09
-1.22760953e-09
-1.22828353e-09
-1.18981441e-09
-1.19196284e-09
-1.22644818e-09
-1.22825912e-09
-1.18923171e-09
-1.18710775e-09
-1.19459267e-09
-1.22743847e-09
-1.22810904e-09
-1.18943079e-09
-1.1870979e-09
-1.19427514e-09
-1.227548e-09
-1.22823281e-09
-1.18909601e-09
-1.1865821e-09
-1.19200935e-09
-1.22799927e-09
-1.22900385e-09
-1.18935397e-09
-1.19059076e-09
-1.22721998e-09
-1.2286977e-09
-1.18925758e-09
-1.1908006e-09
-1.22742229e-09
-1.22784461e-09
-1.18858844e-09
-1.18586419e-09
-1.19014981e-09
-1.22931319e-09
-1.22879218e-09
-1.18950101e-09
-1.18979621e-09
-1.23018766e-09
-1.22821363e-09
-1.19000573e-09
-1.19032928e-09
-1.23260421e-09
-1.22762132e-09
-1.19167875e-09
-1.18649529e-09
-1.18859126e-09
-1.23360812e-09
-1.22829412e-09
-1.19519349e-09
-1.19032926e-09
-1.22324443e-09
-1.22841436e-09
-1.19953778e-09
-1.1873686e-09
-1.18745791e-09
-1.22289462e-09
-1.22898495e-09
-1.20227442e-09
-1.19051022e-09
-1.2122415e-09
-1.23009584e-09
-1.20752871e-09
-1.18786677e-09
-1.18698835e-09
-1.20931134e-09
-1.23074334e-09
-1.20784232e-09
-1.18994395e-09
-1.20393605e-09
-1.23211478e-09
-1.21010635e-09
-1.19010673e-09
-1.20201295e-09
-1.23253605e-09
-1.21235185e-09
-1.1905704e-09
-1.20126824e-09
-1.23283724e-09
-1.21802098e-09
-1.18902982e-09
-1.18709223e-09
-1.19947604e-09
-1.23240214e-09
-1.21671775e-09
-1.19173609e-09
-1.20038502e-09
-1.23244718e-09
-1.22196505e-09
-1.1899269e-09
-1.18816461e-09
-1.19965002e-09
-1.23204212e-09
-1.223985e-09
-1.19004131e-09
-1.18800009e-09
-1.19823081e-09
-1.23187367e-09
-1.22039525e-09
-1.19204183e-09
-1.19920889e-09
-1.23181112e-09
-1.22540524e-09
-1.18993654e-09
-1.18769359e-09
-1.19740589e-09
-1.23143898e-09
-1.22155598e-09
-1.19190417e-09
-1.19886557e-09
-1.23103839e-09
-1.22763444e-09
-1.19069995e-09
-1.18865923e-09
-1.2002803e-09
-1.23010327e-09
-1.22879935e-09
-1.19368238e-09
-1.18853722e-09
-1.18833486e-09
-1.20189442e-09
-1.23143327e-09
-1.22621122e-09
-1.23215528e-09
-1.19585265e-09
-1.19040714e-09
-1.19015434e-09
-1.18951912e-09
-1.18931734e-09
-1.20047829e-09
-1.22952769e-09
-1.22797375e-09
-1.19531421e-09
-1.20107335e-09
-1.2291893e-09
-1.2339518e-09
-1.19069236e-09
-1.18872794e-09
-1.19944818e-09
-1.22964543e-09
-1.23423165e-09
-1.19226919e-09
-1.18875984e-09
-1.18845844e-09
-1.19676186e-09
-1.23033695e-09
-1.22577241e-09
-1.19258613e-09
-1.19867542e-09
-1.22915555e-09
-1.23296637e-09
-1.19053623e-09
-1.18895321e-09
-1.20079805e-09
-1.22912824e-09
-1.23259186e-09
-1.19003841e-09
-1.18812575e-09
-1.19793422e-09
-1.22959057e-09
-1.23299397e-09
-1.18955265e-09
)
;

boundaryField
{
    closed
    {
        type            calculated;
        value           uniform -1.46917287e-09;
    }
    open
    {
        type            calculated;
        value           nonuniform List<scalar> 0();
    }
    sides
    {
        type            empty;
    }
    procBoundary0to1
    {
        type            processor;
        value           uniform -1.1875215e-09;
    }
}


// ************************************************************************* //
