/*--------------------------------*- C++ -*----------------------------------*\
| =========                 |                                                 |
| \\      /  F ield         | OpenFOAM: The Open Source CFD Toolbox           |
|  \\    /   O peration     | Version:  2306                                  |
|   \\  /    A nd           | Website:  www.openfoam.com                      |
|    \\/     M anipulation  |                                                 |
\*---------------------------------------------------------------------------*/
FoamFile
{
    version     2.0;
    format      ascii;
    arch        "LSB;label=32;scalar=64";
    class       volScalarField;
    location    "0.00058";
    object      prefDPV_H2;
}
// * * * * * * * * * * * * * * * * * * * * * * * * * * * * * * * * * * * * * //

dimensions      [1 -1 -1 0 0 0 0];

internalField   nonuniform List<scalar> 
530
(
-3.13157254e-05
-3.09811506e-05
-3.09194696e-05
-3.09188671e-05
-3.09188081e-05
-3.0918807e-05
-3.0918807e-05
-3.0918807e-05
-3.0918807e-05
-3.0918807e-05
-3.0918807e-05
-3.0918807e-05
-3.0918807e-05
-3.0918807e-05
-3.0918807e-05
-3.0918807e-05
-3.0918807e-05
-3.0918807e-05
-3.0918807e-05
-3.0918807e-05
-3.0918807e-05
-3.0918807e-05
-3.0918807e-05
-3.0918807e-05
-3.0918807e-05
-3.0918807e-05
-3.0918807e-05
-3.0918807e-05
-3.0918807e-05
-3.0918807e-05
-3.0918807e-05
-3.0918807e-05
-3.0918807e-05
-3.0918807e-05
-3.0918807e-05
-3.0918807e-05
-3.0918807e-05
-3.0918807e-05
-3.0918807e-05
-3.0918807e-05
-3.0918807e-05
-3.0918807e-05
-3.0918807e-05
-3.0918807e-05
-3.0918807e-05
-3.0918807e-05
-3.0918807e-05
-3.0918807e-05
-3.0918807e-05
-3.0918807e-05
-3.0918807e-05
-3.0918807e-05
-3.0918807e-05
-3.0918807e-05
-3.0918807e-05
-3.0918807e-05
-3.0918807e-05
-3.0918807e-05
-3.0918807e-05
-3.0918807e-05
-3.0918807e-05
-3.0918807e-05
-3.0918807e-05
-3.0918807e-05
-3.0918807e-05
-3.0918807e-05
-3.0918807e-05
-3.0918807e-05
-3.0918807e-05
-3.0918807e-05
-3.0918807e-05
-3.0918807e-05
-3.0918807e-05
-3.0918807e-05
-3.0918807e-05
-3.0918807e-05
-3.09188072e-05
-3.09188076e-05
-3.09188082e-05
-3.09188103e-05
-3.09188145e-05
-3.09188216e-05
-3.09188418e-05
-3.09188759e-05
-3.09189254e-05
-3.09189705e-05
-3.09190899e-05
-3.0919327e-05
-3.09196747e-05
-3.09209888e-05
-3.09212624e-05
-3.09161029e-05
-3.09166149e-05
-3.09306991e-05
-3.09515481e-05
-3.09535324e-05
-3.08960739e-05
-3.09084005e-05
-3.09514199e-05
-3.14769206e-05
-3.11845901e-05
-3.08709186e-05
-3.06820891e-05
-3.06014106e-05
-3.08483956e-05
-3.13252558e-05
-3.15331607e-05
-3.13945107e-05
-3.0891909e-05
-3.08041453e-05
-3.06884422e-05
-3.0872628e-05
-3.13718306e-05
-3.12475339e-05
-3.0919023e-05
-3.08866658e-05
-3.13993762e-05
-3.13279952e-05
-3.08872352e-05
-3.05002415e-05
-3.08698092e-05
-3.13719728e-05
-3.12412808e-05
-3.09255561e-05
-3.08840944e-05
-3.13991446e-05
-3.12369171e-05
-3.08889534e-05
-3.08866444e-05
-3.13951098e-05
-3.12324336e-05
-3.08539069e-05
-3.08900425e-05
-3.13961619e-05
-3.1235599e-05
-3.08411117e-05
-3.08949656e-05
-3.14067707e-05
-3.12471979e-05
-3.08563618e-05
-3.09000859e-05
-3.14212218e-05
-3.12610701e-05
-3.08883909e-05
-3.09144658e-05
-3.14375775e-05
-3.13522023e-05
-3.09002111e-05
-3.04275915e-05
-3.08990951e-05
-3.1418287e-05
-3.12843537e-05
-3.0904956e-05
-3.09276402e-05
-3.14602063e-05
-3.13730554e-05
-3.08938003e-05
-3.04219188e-05
-3.09021425e-05
-3.14289717e-05
-3.12740196e-05
-3.08380842e-05
-3.09203802e-05
-3.14616211e-05
-3.12670643e-05
-3.08118823e-05
-3.09179979e-05
-3.14630849e-05
-3.12589801e-05
-3.07852143e-05
-3.09181585e-05
-3.14666216e-05
-3.12644491e-05
-3.0788944e-05
-3.0920256e-05
-3.14731178e-05
-3.12765937e-05
-3.08136628e-05
-3.09361231e-05
-3.14933054e-05
-3.14047032e-05
-3.08093523e-05
-3.03671102e-05
-3.09056013e-05
-3.14651597e-05
-3.13140628e-05
-3.0825538e-05
-3.09357214e-05
-3.14980693e-05
-3.13265451e-05
-3.0857266e-05
-3.09453177e-05
-3.15157875e-05
-3.14307894e-05
-3.08325196e-05
-3.04099144e-05
-3.09097641e-05
-3.14784053e-05
-3.13421218e-05
-3.08406582e-05
-3.09507653e-05
-3.15217438e-05
-3.14348433e-05
-3.08012939e-05
-3.03790278e-05
-3.09102734e-05
-3.1482589e-05
-3.1328399e-05
-3.07743905e-05
-3.09419399e-05
-3.15118785e-05
-3.13155201e-05
-3.07611736e-05
-3.09407678e-05
-3.15140349e-05
-3.13128262e-05
-3.07498931e-05
-3.09414478e-05
-3.15146804e-05
-3.13162841e-05
-3.07584844e-05
-3.09556345e-05
-3.15320439e-05
-3.14424266e-05
-3.07236946e-05
-3.03144829e-05
-3.09159619e-05
-3.14941121e-05
-3.13495194e-05
-3.07317544e-05
-3.09511592e-05
-3.15245567e-05
-3.13483293e-05
-3.07450353e-05
-3.09520681e-05
-3.15289578e-05
-3.13591012e-05
-3.0755173e-05
-3.09593919e-05
-3.15475955e-05
-3.14743084e-05
-3.07266933e-05
-3.03311591e-05
-3.09209632e-05
-3.15119348e-05
-3.14370424e-05
-3.07635993e-05
-3.09664034e-05
-3.15440368e-05
-3.14464198e-05
-3.08073377e-05
-3.09575699e-05
-3.15612027e-05
-3.15100706e-05
-3.08020406e-05
-3.04391375e-05
-3.09169719e-05
-3.15244402e-05
-3.15143729e-05
-3.09026102e-05
-3.09433394e-05
-3.15613135e-05
-3.153512e-05
-3.09164232e-05
-3.07444055e-05
-3.07986917e-05
-3.06463316e-05
-3.0905737e-05
-3.15488326e-05
-3.15422753e-05
-3.08571913e-05
-3.05077727e-05
-3.0911479e-05
-3.15338169e-05
-3.15383589e-05
-3.08666525e-05
-3.09556361e-05
-3.15678838e-05
-3.15316035e-05
-3.09069955e-05
-3.09371094e-05
-3.15760443e-05
-3.15577366e-05
-3.09060131e-05
-3.06860978e-05
-3.07698221e-05
-3.06737084e-05
-3.06159205e-05
-3.09139751e-05
-3.14665456e-05
-3.15716941e-05
-3.14307674e-05
-3.08981642e-05
-3.09767382e-05
-3.15644101e-05
-3.15039727e-05
-3.07995044e-05
-3.09513983e-05
-3.15633586e-05
-3.1552597e-05
-3.07633324e-05
-3.0388822e-05
-3.09043422e-05
-3.15267226e-05
-3.1555037e-05
-3.07857486e-05
-3.04255322e-05
-3.09191713e-05
-3.15215649e-05
-3.15570363e-05
-3.08518533e-05
-3.09424937e-05
-3.15549363e-05
-3.15543404e-05
-3.08198806e-05
-3.04992952e-05
-3.09006526e-05
-3.1528961e-05
-3.15574201e-05
-3.08611242e-05
-3.0548205e-05
-3.09006874e-05
-3.15315757e-05
-3.15584667e-05
-3.09045465e-05
-3.06076221e-05
-3.09003672e-05
-3.15291403e-05
-3.1565569e-05
-3.0924243e-05
-3.07210185e-05
-3.07165981e-05
-3.09138047e-05
-3.15497165e-05
-3.15546141e-05
-3.0869153e-05
-3.05501251e-05
-3.09029985e-05
-3.15315814e-05
-3.15523173e-05
-3.08171568e-05
-3.04670225e-05
-3.09125284e-05
-3.15293487e-05
-3.15758107e-05
-3.08158044e-05
-3.08767755e-05
-3.15599085e-05
-3.15682812e-05
-3.08190624e-05
-3.09342513e-05
-3.15678329e-05
-3.15433875e-05
-3.07525721e-05
-3.04363855e-05
-3.09028876e-05
-3.15337233e-05
-3.15514817e-05
-3.07541816e-05
-3.04385543e-05
-3.09107758e-05
-3.15345094e-05
-3.15720078e-05
-3.08126187e-05
-3.09336702e-05
-3.15616779e-05
-3.15321773e-05
-3.07450047e-05
-3.0435396e-05
-3.09074634e-05
-3.15339787e-05
-3.15614637e-05
-3.08098488e-05
-3.09327155e-05
-3.15621553e-05
-3.15268752e-05
-3.0764949e-05
-3.04887629e-05
-3.09048274e-05
-3.15328701e-05
-3.15359321e-05
-3.07627044e-05
-3.04951884e-05
-3.09111798e-05
-3.1530925e-05
-3.15318009e-05
-3.07283193e-05
-3.04324645e-05
-3.09175795e-05
-3.1521881e-05
-3.15355256e-05
-3.07603604e-05
-3.08578146e-05
-3.15405375e-05
-3.15392793e-05
-3.07742223e-05
-3.08657871e-05
-3.15403899e-05
-3.15384625e-05
-3.07097724e-05
-3.03494993e-05
-3.0843498e-05
-3.14905891e-05
-3.15389145e-05
-3.08018829e-05
-3.07801779e-05
-3.14613823e-05
-3.15430061e-05
-3.08866742e-05
-3.08297648e-05
-3.13993196e-05
-3.15367254e-05
-3.08750556e-05
-3.04211409e-05
-3.06414328e-05
-3.13721752e-05
-3.15376204e-05
-3.08782056e-05
-3.08467759e-05
-3.11829488e-05
-3.15103566e-05
-3.08927616e-05
-3.05218046e-05
-3.04993354e-05
-3.11771908e-05
-3.15113403e-05
-3.09089191e-05
-3.08790275e-05
-3.10131001e-05
-3.1464832e-05
-3.09598289e-05
-3.05972553e-05
-3.04619496e-05
-3.09736453e-05
-3.14669091e-05
-3.09591952e-05
-3.0837843e-05
-3.09159161e-05
-3.1430417e-05
-3.09849714e-05
-3.08552694e-05
-3.08983982e-05
-3.14196826e-05
-3.10139565e-05
-3.08988324e-05
-3.08942601e-05
-3.14046726e-05
-3.10977882e-05
-3.07566992e-05
-3.04836785e-05
-3.08799658e-05
-3.14220699e-05
-3.10774213e-05
-3.09135757e-05
-3.0895249e-05
-3.14148535e-05
-3.11607462e-05
-3.08601455e-05
-3.05873131e-05
-3.08870212e-05
-3.14265988e-05
-3.11949639e-05
-3.08778768e-05
-3.05748747e-05
-3.0878373e-05
-3.14373738e-05
-3.11355248e-05
-3.09172817e-05
-3.08932233e-05
-3.14431815e-05
-3.12205494e-05
-3.08648753e-05
-3.05439618e-05
-3.08742267e-05
-3.14567731e-05
-3.11550759e-05
-3.09183991e-05
-3.08947972e-05
-3.14674227e-05
-3.12613755e-05
-3.09023985e-05
-3.06393465e-05
-3.0900548e-05
-3.14849588e-05
-3.12820217e-05
-3.08953602e-05
-3.06673928e-05
-3.06148492e-05
-3.08930765e-05
-3.14269824e-05
-3.15575425e-05
-3.14153203e-05
-3.08898493e-05
-3.08302061e-05
-3.0846358e-05
-3.07816061e-05
-3.07260459e-05
-3.09077104e-05
-3.14974024e-05
-3.1269319e-05
-3.09130598e-05
-3.09226892e-05
-3.15157022e-05
-3.13843415e-05
-3.09044258e-05
-3.06227582e-05
-3.08994976e-05
-3.15069596e-05
-3.1398529e-05
-3.09110318e-05
-3.06739766e-05
-3.0647131e-05
-3.0890458e-05
-3.15009498e-05
-3.12308818e-05
-3.09277098e-05
-3.09135025e-05
-3.15235079e-05
-3.14249187e-05
-3.08960068e-05
-3.06417171e-05
-3.09082472e-05
-3.15185626e-05
-3.1437594e-05
-3.08534845e-05
-3.05524476e-05
-3.08930627e-05
-3.15179109e-05
-3.14370076e-05
-3.07986402e-05
)
;

boundaryField
{
    closed
    {
        type            calculated;
        value           uniform -4.03443629e-05;
    }
    open
    {
        type            calculated;
        value           nonuniform List<scalar> 0();
    }
    sides
    {
        type            empty;
    }
    procBoundary0to1
    {
        type            processor;
        value           uniform -3.04889213e-05;
    }
}


// ************************************************************************* //
