/*--------------------------------*- C++ -*----------------------------------*\
| =========                 |                                                 |
| \\      /  F ield         | OpenFOAM: The Open Source CFD Toolbox           |
|  \\    /   O peration     | Version:  2306                                  |
|   \\  /    A nd           | Website:  www.openfoam.com                      |
|    \\/     M anipulation  |                                                 |
\*---------------------------------------------------------------------------*/
FoamFile
{
    version     2.0;
    format      ascii;
    arch        "LSB;label=32;scalar=64";
    class       volVectorField;
    location    "0.0007";
    object      U;
}
// * * * * * * * * * * * * * * * * * * * * * * * * * * * * * * * * * * * * * //

dimensions      [0 1 -1 0 0 0 0];

internalField   nonuniform List<vector> 
530
(
(0.011763291 0 0)
(-0.0657205044 0 0)
(-0.125106208 0 0)
(-0.125086 0 0)
(-0.0473367257 0 0)
(0.148809283 0 0)
(0.341799735 0 0)
(0.43909005 0 0)
(0.387374661 0 0)
(0.231584607 0 0)
(0.0579915555 0 0)
(-0.0488307545 0 0)
(-0.0567344283 0 0)
(0.0194007596 0 0)
(0.11505531 0 0)
(0.218008127 0 0)
(0.304302966 0 0)
(0.342695496 0 0)
(0.307932951 0 0)
(0.222618842 0 0)
(0.128753748 0 0)
(0.0593490201 0 0)
(0.0317468015 0 0)
(0.0810461243 0 0)
(0.200560889 0 0)
(0.336490991 0 0)
(0.421370981 0 0)
(0.371697967 0 0)
(0.151974619 0 0)
(-0.166181511 0 0)
(-0.413210024 0 0)
(-0.450355132 0 0)
(-0.304424037 0 0)
(-0.106444998 0 0)
(0.055162823 0 0)
(0.13621748 0 0)
(0.13685939 0 0)
(0.106963604 0 0)
(0.0742476809 0 0)
(0.0465078487 0 0)
(0.0259431468 0 0)
(0.0095861602 0 0)
(-0.00156143928 0 0)
(-0.0109881437 0 0)
(-0.0181866204 0 0)
(-0.0232332364 0 0)
(-0.0261461519 0 0)
(-0.0272942168 0 0)
(-0.0255384449 0 0)
(-0.0221046808 0 0)
(-0.017318633 0 0)
(-0.0102242599 0 0)
(-0.00323606019 0 0)
(0.00610966135 0 0)
(0.0155902688 0 0)
(0.0258192255 0 0)
(0.0365673735 0 0)
(0.0472154435 0 0)
(0.0586737507 0 0)
(0.0703283038 0 0)
(0.0816886044 0 0)
(0.0929531002 0 0)
(0.104702407 0 0)
(0.115707557 0 0)
(0.125571703 0 0)
(0.13576138 0 0)
(0.14547597 0 0)
(0.154836059 0 0)
(0.163690125 0 0)
(0.172065633 0 0)
(0.180072271 0 0)
(0.187699872 0 0)
(0.194953159 0 0)
(0.201847613 0 0)
(0.208366923 0 0)
(0.214497464 0 0)
(0.220320573 0 0)
(0.225817979 0 0)
(0.231008107 0 0)
(0.236007613 0 0)
(0.240611458 0 0)
(0.244853609 0 0)
(0.248936709 0 0)
(0.252825684 0 0)
(0.256487632 0 0)
(0.259945871 0 0)
(0.263260728 0 0)
(0.266494089 0 0)
(0.269472271 0 0)
(0.271839036 0 0)
(0.273868988 0 0)
(0.277234723 0 0)
(0.280471439 0 0)
(0.28310647 0 0)
(0.287157872 0 0)
(0.29323003 0 0)
(0.291699236 0 0)
(0.286603012 0 0)
(0.287642207 0 0)
(0.289203484 0 0)
(0.288661938 0 0)
(0.293815325 0 0)
(0.297403288 0 0)
(0.29767061 0 0)
(0.293562996 0 0)
(0.291124941 0 0)
(0.291214836 0 0)
(0.290335779 0 0)
(0.299183906 0 0)
(0.307633239 0 0)
(0.30610816 0 0)
(0.299418754 0 0)
(0.295624545 0 0)
(0.295279801 0 0)
(0.299190395 0 0)
(0.310235586 0 0)
(0.31531423 0 0)
(0.315006529 0 0)
(0.311239205 0 0)
(0.304577831 0 0)
(0.301386673 0 0)
(0.301561175 0 0)
(0.308527769 0 0)
(0.311027753 0 0)
(0.304518493 0 0)
(0.300804743 0 0)
(0.301607097 0 0)
(0.308370282 0 0)
(0.310241903 0 0)
(0.307686035 0 0)
(0.311982933 0 0)
(0.321574542 0 0)
(0.323222093 0 0)
(0.316555176 0 0)
(0.312332635 0 0)
(0.312765352 0 0)
(0.319711534 0 0)
(0.321505533 0 0)
(0.318417433 0 0)
(0.323157611 0 0)
(0.333417658 0 0)
(0.335116457 0 0)
(0.330914344 0 0)
(0.334826284 0 0)
(0.345657718 0 0)
(0.34773241 0 0)
(0.340372021 0 0)
(0.335242063 0 0)
(0.335356081 0 0)
(0.342797169 0 0)
(0.344782159 0 0)
(0.34133822 0 0)
(0.3462209 0 0)
(0.35715075 0 0)
(0.359024604 0 0)
(0.354483395 0 0)
(0.358615054 0 0)
(0.370070184 0 0)
(0.372278748 0 0)
(0.364757106 0 0)
(0.359963269 0 0)
(0.367897401 0 0)
(0.37934383 0 0)
(0.376932137 0 0)
(0.369945814 0 0)
(0.371096813 0 0)
(0.381672755 0 0)
(0.383459203 0 0)
(0.376131618 0 0)
(0.371743858 0 0)
(0.378643758 0 0)
(0.391202367 0 0)
(0.391681207 0 0)
(0.385486837 0 0)
(0.383061378 0 0)
(0.382158688 0 0)
(0.378550415 0 0)
(0.387774316 0 0)
(0.395161452 0 0)
(0.389924797 0 0)
(0.394648169 0 0)
(0.407993709 0 0)
(0.411014255 0 0)
(0.405959675 0 0)
(0.410536954 0 0)
(0.4243915 0 0)
(0.427964845 0 0)
(0.419993984 0 0)
(0.414212391 0 0)
(0.412516486 0 0)
(0.424243386 0 0)
(0.432146007 0 0)
(0.425460411 0 0)
(0.427465354 0 0)
(0.440294655 0 0)
(0.443130773 0 0)
(0.434578428 0 0)
(0.428493854 0 0)
(0.435486825 0 0)
(0.451151141 0 0)
(0.453168597 0 0)
(0.445125322 0 0)
(0.439214259 0 0)
(0.437729974 0 0)
(0.451646172 0 0)
(0.461351081 0 0)
(0.456979808 0 0)
(0.463180337 0 0)
(0.479079756 0 0)
(0.482986722 0 0)
(0.478215542 0 0)
(0.485148546 0 0)
(0.502084867 0 0)
(0.50634883 0 0)
(0.501560266 0 0)
(0.509050938 0 0)
(0.527013416 0 0)
(0.531630957 0 0)
(0.527031533 0 0)
(0.535468684 0 0)
(0.55487853 0 0)
(0.559953773 0 0)
(0.555576902 0 0)
(0.565251993 0 0)
(0.586483357 0 0)
(0.592175403 0 0)
(0.588138197 0 0)
(0.599142132 0 0)
(0.622267664 0 0)
(0.628760108 0 0)
(0.625562019 0 0)
(0.637879258 0 0)
(0.662507747 0 0)
(0.669960545 0 0)
(0.668310308 0 0)
(0.68148958 0 0)
(0.708183147 0 0)
(0.716060585 0 0)
(0.706350356 0 0)
(0.700869837 0 0)
(0.718761308 0 0)
(0.751377834 0 0)
(0.757721201 0 0)
(0.759278094 0 0)
(0.77778898 0 0)
(0.810074447 0 0)
(0.821241761 0 0)
(0.82451365 0 0)
(0.845763837 0 0)
(0.882060761 0 0)
(0.894035592 0 0)
(0.886790138 0 0)
(0.886908925 0 0)
(0.911277404 0 0)
(0.955523285 0 0)
(0.96764219 0 0)
(0.960965966 0 0)
(0.975371405 0 0)
(1.01894009 0 0)
(1.03413588 0 0)
(1.0295437 0 0)
(1.03500265 0 0)
(1.06559449 0 0)
(1.11751706 0 0)
(1.13293924 0 0)
(1.12887463 0 0)
(1.15083599 0 0)
(1.20256859 0 0)
(1.22464856 0 0)
(1.2301467 0 0)
(1.25937765 0 0)
(1.28491735 0 0)
(1.3227053 0 0)
(1.38085708 0 0)
(1.39340149 0 0)
(1.38869547 0 0)
(1.40837902 0 0)
(1.45965999 0 0)
(1.51991566 0 0)
(1.55649364 0 0)
(1.54692465 0 0)
(1.57159075 0 0)
(1.62193941 0 0)
(1.62949644 0 0)
(1.66935096 0 0)
(1.68509916 0 0)
(1.71998173 0 0)
(1.76735066 0 0)
(1.81505876 0 0)
(1.85707515 0 0)
(1.84754815 0 0)
(1.84762778 0 0)
(1.86664483 0 0)
(1.93523309 0 0)
(1.98671143 0 0)
(1.96915078 0 0)
(1.99493835 0 0)
(1.97033122 0 0)
(1.98734757 0 0)
(2.03752132 0 0)
(2.02630464 0 0)
(2.03153432 0 0)
(2.06561298 0 0)
(2.12235935 0 0)
(2.15693326 0 0)
(2.13615518 0 0)
(2.13911898 0 0)
(2.17312259 0 0)
(2.22587844 0 0)
(2.25602218 0 0)
(2.22783765 0 0)
(2.19316161 0 0)
(2.20014916 0 0)
(2.22444907 0 0)
(2.19804498 0 0)
(2.19101358 0 0)
(2.2152876 0 0)
(2.25689771 0 0)
(2.2776798 0 0)
(2.24756722 0 0)
(2.19874626 0 0)
(2.1869146 0 0)
(2.20302882 0 0)
(2.19082036 0 0)
(2.20333274 0 0)
(2.2066144 0 0)
(2.18420216 0 0)
(2.19437253 0 0)
(2.21240937 0 0)
(2.23086156 0 0)
(2.24636534 0 0)
(2.21473545 0 0)
(2.16255061 0 0)
(2.14459618 0 0)
(2.15414902 0 0)
(2.12287339 0 0)
(2.07909019 0 0)
(2.06404077 0 0)
(2.06164957 0 0)
(2.02917184 0 0)
(2.01801354 0 0)
(2.03039771 0 0)
(2.04294483 0 0)
(2.04109699 0 0)
(2.0055516 0 0)
(1.96320754 0 0)
(1.94575262 0 0)
(1.94001568 0 0)
(1.90198002 0 0)
(1.86109702 0 0)
(1.84209597 0 0)
(1.82892384 0 0)
(1.79319496 0 0)
(1.7794634 0 0)
(1.78421119 0 0)
(1.78363394 0 0)
(1.76722197 0 0)
(1.73968877 0 0)
(1.75987665 0 0)
(1.79135651 0 0)
(1.78844121 0 0)
(1.76271108 0 0)
(1.71504206 0 0)
(1.6934982 0 0)
(1.68348568 0 0)
(1.65674439 0 0)
(1.63521289 0 0)
(1.61639199 0 0)
(1.6114395 0 0)
(1.60803958 0 0)
(1.59761351 0 0)
(1.57642063 0 0)
(1.58725924 0 0)
(1.60685977 0 0)
(1.59916198 0 0)
(1.57273233 0 0)
(1.52918244 0 0)
(1.50517547 0 0)
(1.49784863 0 0)
(1.47972558 0 0)
(1.455585 0 0)
(1.42603696 0 0)
(1.40504562 0 0)
(1.39229807 0 0)
(1.3671518 0 0)
(1.36397322 0 0)
(1.36578506 0 0)
(1.35219744 0 0)
(1.33633808 0 0)
(1.3053473 0 0)
(1.28397057 0 0)
(1.26315704 0 0)
(1.23960571 0 0)
(1.20965759 0 0)
(1.2108529 0 0)
(1.21597921 0 0)
(1.1996268 0 0)
(1.17820845 0 0)
(1.14432514 0 0)
(1.12409924 0 0)
(1.10162205 0 0)
(1.07149297 0 0)
(1.03795101 0 0)
(1.02981865 0 0)
(1.02304231 0 0)
(0.998908661 0 0)
(1.00584078 0 0)
(1.01176917 0 0)
(0.990507601 0 0)
(0.967152243 0 0)
(0.948498369 0 0)
(0.926634549 0 0)
(0.901996006 0 0)
(0.876239193 0 0)
(0.845700847 0 0)
(0.813213131 0 0)
(0.799985067 0 0)
(0.791287334 0 0)
(0.762153741 0 0)
(0.75355629 0 0)
(0.735363653 0 0)
(0.709741134 0 0)
(0.682306232 0 0)
(0.690087716 0 0)
(0.694000242 0 0)
(0.673481992 0 0)
(0.650253229 0 0)
(0.631962965 0 0)
(0.618938528 0 0)
(0.604306063 0 0)
(0.579788132 0 0)
(0.55689469 0 0)
(0.529118274 0 0)
(0.527867517 0 0)
(0.513368612 0 0)
(0.49553831 0 0)
(0.478597354 0 0)
(0.470858585 0 0)
(0.466240928 0 0)
(0.449541555 0 0)
(0.43551379 0 0)
(0.425393701 0 0)
(0.411564366 0 0)
(0.431169211 0 0)
(0.445446808 0 0)
(0.430541586 0 0)
(0.412890049 0 0)
(0.402208489 0 0)
(0.421274541 0 0)
(0.437660903 0 0)
(0.421732021 0 0)
(0.401661331 0 0)
(0.391061417 0 0)
(0.406288789 0 0)
(0.419096546 0 0)
(0.403988995 0 0)
(0.384868806 0 0)
(0.373114892 0 0)
(0.395786875 0 0)
(0.413857041 0 0)
(0.401142532 0 0)
(0.387144748 0 0)
(0.384876868 0 0)
(0.385412198 0 0)
(0.373160806 0 0)
(0.370809439 0 0)
(0.372701278 0 0)
(0.367812793 0 0)
(0.359341891 0 0)
(0.354908988 0 0)
(0.379811139 0 0)
(0.397315174 0 0)
(0.384385348 0 0)
(0.369724215 0 0)
(0.357612167 0 0)
(0.367361369 0 0)
(0.365011485 0 0)
(0.351555493 0 0)
(0.342354876 0 0)
(0.344418345 0 0)
(0.352280071 0 0)
(0.347840553 0 0)
(0.329322412 0 0)
(0.319544477 0 0)
(0.314710962 0 0)
(0.308501556 0 0)
(0.301004414 0 0)
(0.311579248 0 0)
(0.31685995 0 0)
(0.301876001 0 0)
(0.288170936 0 0)
(0.280671579 0 0)
(0.276384127 0 0)
(0.275473773 0 0)
(0.267511277 0 0)
(0.253520482 0 0)
(0.247487588 0 0)
(0.245688364 0 0)
(0.240951696 0 0)
(0.234714318 0 0)
(0.245528282 0 0)
(0.251544697 0 0)
(0.238736715 0 0)
(0.22613589 0 0)
(0.219806108 0 0)
(0.217126154 0 0)
(0.217231127 0 0)
(0.210224653 0 0)
(0.197368755 0 0)
(0.195227647 0 0)
(0.198744213 0 0)
(0.195519797 0 0)
(0.19035397 0 0)
(0.20279227 0 0)
(0.210484292 0 0)
(0.199239154 0 0)
(0.187065972 0 0)
(0.181729945 0 0)
(0.182007133 0 0)
(0.18370435 0 0)
(0.179413159 0 0)
(0.171545756 0 0)
(0.163748087 0 0)
(0.172059731 0 0)
(0.166264094 0 0)
(0.151574282 0 0)
(0.152117959 0 0)
(0.15828879 0 0)
(0.155262729 0 0)
(0.152282491 0 0)
)
;

boundaryField
{
    closed
    {
        type            noSlip;
    }
    open
    {
        type            inletOutlet;
        inletValue      nonuniform List<vector> 0();
        value           nonuniform List<vector> 0();
    }
    sides
    {
        type            empty;
    }
    procBoundary0to1
    {
        type            processor;
        value           uniform (0.158757037 0 0);
    }
}


// ************************************************************************* //
