/*--------------------------------*- C++ -*----------------------------------*\
| =========                 |                                                 |
| \\      /  F ield         | OpenFOAM: The Open Source CFD Toolbox           |
|  \\    /   O peration     | Version:  2306                                  |
|   \\  /    A nd           | Website:  www.openfoam.com                      |
|    \\/     M anipulation  |                                                 |
\*---------------------------------------------------------------------------*/
FoamFile
{
    version     2.0;
    format      ascii;
    arch        "LSB;label=32;scalar=64";
    class       volScalarField;
    location    "0.00086";
    object      PV;
}
// * * * * * * * * * * * * * * * * * * * * * * * * * * * * * * * * * * * * * //

dimensions      [0 0 0 0 0 0 0];

internalField   nonuniform List<scalar> 
530
(
-0.00718179132
-0.00720685569
-0.0071404079
-0.00697406572
-0.00697437762
-0.00719288859
-0.00722881533
-0.00718018018
-0.00697258791
-0.0069742775
-0.00710516742
-0.00721219272
-0.0071792185
-0.0069714619
-0.00697088694
-0.00717172562
-0.00720270447
-0.00719948899
-0.00712634962
-0.00697567377
-0.00697774891
-0.00697504128
-0.00697502776
-0.00719549605
-0.00723357209
-0.00717878605
-0.00697994576
-0.00697183065
-0.00716607315
-0.00720082565
-0.00719812277
-0.00715401802
-0.00697831496
-0.00697285211
-0.00716731243
-0.00722120994
-0.00718020624
-0.00698400387
-0.00697358408
-0.00715331616
-0.00721855266
-0.00716716158
-0.00699099111
-0.00697813612
-0.00697845937
-0.00697626355
-0.00716304904
-0.00721533953
-0.00721646046
-0.00716032794
-0.00699514187
-0.00697583899
-0.00713624609
-0.00721261669
-0.00722105622
-0.00721504512
-0.00700644817
-0.00697861959
-0.00707213671
-0.00718827511
-0.00719115436
-0.0070177605
-0.0069787875
-0.00712097415
-0.00719441581
-0.00706611015
-0.00698762337
-0.00706094584
-0.00719846357
-0.00721003279
-0.00704137028
-0.00698240477
-0.00712213705
-0.00719464699
-0.00706171913
-0.00698456531
-0.00712374285
-0.0071973011
-0.00706025232
-0.00698637833
-0.00709061817
-0.00721198696
-0.00721459944
-0.00702721867
-0.00697848533
-0.00712848218
-0.00720206177
-0.00706810679
-0.00698530008
-0.0070619431
-0.00720932476
-0.00721529558
-0.0070292555
-0.00697924095
-0.00714587405
-0.00720044481
-0.00703608477
-0.00698181007
-0.00715380851
-0.00720335242
-0.00703444984
-0.00698506399
-0.00708724777
-0.00721408888
-0.00720392922
-0.00699987872
-0.00698751273
-0.00711564366
-0.00721418823
-0.00719176575
-0.00698920953
-0.00699120288
-0.00713115161
-0.00721129993
-0.00717612542
-0.00699051126
-0.00699863886
-0.00717304081
-0.00716999855
-0.00699291011
-0.00699686938
-0.00715240985
-0.00721418622
-0.00716724895
-0.00699116782
-0.00699863791
-0.00714332897
-0.00720689039
-0.00715324216
-0.00698985571
-0.00700039375
-0.0071480326
-0.00720629555
-0.00714753425
-0.00699022176
-0.00700294335
-0.0071559539
-0.00721074997
-0.00714882937
-0.00699682071
-0.00702839998
-0.00717083954
-0.00713874871
-0.00698808722
-0.00700590199
-0.0071727564
-0.00720668625
-0.00713504399
-0.00698878958
-0.00700486783
-0.00716332624
-0.00721032469
-0.00714186551
-0.00699401128
-0.00702883715
-0.00717900988
-0.00714875484
-0.00698781563
-0.00700218018
-0.00716849919
-0.0072076588
-0.00713682745
-0.006987657
-0.00700233429
-0.00716725376
-0.00721275116
-0.00714549962
-0.00699093917
-0.00701995047
-0.00718559333
-0.00716438144
-0.00698807383
-0.00699555784
-0.00716122672
-0.00720879407
-0.00714126867
-0.00698456578
-0.00699595747
-0.00716762115
-0.007214705
-0.00715096866
-0.00698299768
-0.00699038427
-0.00716603859
-0.00718134805
-0.00710385734
-0.00709618076
-0.00717107862
-0.00715268967
-0.00698395459
-0.00699619888
-0.00719247009
-0.00718496373
-0.00698792221
-0.00699333472
-0.00719206718
-0.00718542064
-0.00698681936
-0.00699093489
-0.00717254355
-0.00722690958
-0.00717720883
-0.0069853806
-0.00698665387
-0.00719763156
-0.00719676095
-0.00698807858
-0.00698526536
-0.00719632899
-0.00719517808
-0.00698429844
-0.00698626678
-0.00717175471
-0.00722807098
-0.00718261639
-0.00698094811
-0.00697910628
-0.00719655695
-0.00719899738
-0.00698559503
-0.0069790226
-0.00719544843
-0.00719843584
-0.00698055441
-0.00698201889
-0.00717288183
-0.00722912516
-0.00718930003
-0.00697964282
-0.00697458453
-0.00719025648
-0.00719784457
-0.00698353388
-0.00697556082
-0.00719374232
-0.00720101913
-0.00698159891
-0.00697928703
-0.00716566272
-0.00722708614
-0.007194471
-0.00698040558
-0.00697177205
-0.00717548883
-0.00718797094
-0.00698308567
-0.00697661933
-0.00715519582
-0.00721690249
-0.00718915021
-0.00698029654
-0.00697399307
-0.00715665008
-0.00722111738
-0.00719916989
-0.00698261599
-0.00697103065
-0.00716079834
-0.00717998991
-0.00698693258
-0.00697504858
-0.0071506372
-0.00721375727
-0.00718877807
-0.00698261121
-0.00697300085
-0.00714060811
-0.00721019812
-0.00718704413
-0.00698244652
-0.00697261176
-0.00713882974
-0.00720989054
-0.0071877313
-0.00698271958
-0.00697255117
-0.0071389581
-0.00721148228
-0.00718984247
-0.00698295787
-0.00697299604
-0.00714507869
-0.00721727327
-0.00720013467
-0.0069844821
-0.00696969398
-0.00715538463
-0.00717732532
-0.00698850213
-0.0069734384
-0.00715294007
-0.00721410503
-0.00718711961
-0.00698282004
-0.00697243137
-0.00714160641
-0.00721086628
-0.00718213745
-0.00698179434
-0.00697198978
-0.00714210692
-0.00721104266
-0.00718109908
-0.00698138556
-0.006971882
-0.00714326195
-0.00721149616
-0.00717950338
-0.00698122754
-0.00697194602
-0.00714170975
-0.00721030593
-0.00717758247
-0.00698104758
-0.00697208027
-0.00714424997
-0.00721293071
-0.00717985987
-0.00698030629
-0.00697392917
-0.00715079589
-0.00722636672
-0.00718225729
-0.00698810238
-0.0069718857
-0.0069773494
-0.00718290665
-0.00723355381
-0.00719404079
-0.00698281724
-0.00697367787
-0.00715816988
-0.00722135692
-0.00718111831
-0.00698085221
-0.0069736072
-0.00715937537
-0.00722282165
-0.00718465122
-0.00698156307
-0.00697289129
-0.00717509036
-0.00718232572
-0.00697982367
-0.00697449575
-0.00716694706
-0.00722259969
-0.00718102053
-0.00698071895
-0.00697211733
-0.00716731618
-0.00717232585
-0.00697918164
-0.00697332108
-0.00716351574
-0.00720795782
-0.00719354274
-0.00720729415
-0.00717313916
-0.00697896697
-0.00697294363
-0.00717392936
-0.00717873518
-0.00697764575
-0.00697481413
-0.00717448174
-0.00722802903
-0.00717993951
-0.00698230316
-0.00697542202
-0.0071958037
-0.00720270367
-0.00698274227
-0.00697715414
-0.00720227506
-0.00720890635
-0.00698320394
-0.00697733372
-0.0072050415
-0.00721136865
-0.00698327855
-0.00697707497
-0.00720467947
-0.00721087182
-0.0069832093
-0.00697644695
-0.0072013663
-0.00720721299
-0.00698268855
-0.00697550315
-0.00719518564
-0.00719903943
-0.00698027248
-0.00697704143
-0.00719516833
-0.00723424973
-0.00718285774
-0.00698242134
-0.00697304583
-0.00719851017
-0.00720472405
-0.00698324657
-0.00697603848
-0.00719873689
-0.00720382788
-0.00698172181
-0.00697553931
-0.0071929079
-0.00719404687
-0.00697912795
-0.00697680992
-0.00720379288
-0.00723430982
-0.00717933074
-0.00698264266
-0.00697564984
-0.00720047833
-0.00720514017
-0.00698163541
-0.0069770871
-0.00719912063
-0.00720169879
-0.0069781648
-0.00697602459
-0.00718896803
-0.00718370175
-0.0069763013
-0.00697630898
-0.00720574284
-0.00722343936
-0.00715194099
-0.00698415337
-0.0069745856
-0.00697743107
-0.00720288377
-0.00722299232
-0.00719986426
-0.00721378868
-0.00714249222
-0.00698105761
-0.00697223684
-0.00701637516
-0.00718095021
-0.00716239693
-0.00697278739
-0.00697840266
-0.00721394608
-0.00722944614
-0.00714112725
-0.00697647318
-0.00699023984
-0.00718565594
-0.00715762744
-0.00697401972
-0.00697924205
-0.00720866935
-0.00721857305
-0.0071173138
-0.00697767358
-0.0069792723
-0.00720788461
-0.00721478052
-0.00711003912
-0.00697758024
-0.00698159503
-0.00720799158
-0.00721510067
-0.0071069475
-0.00697781151
-0.00698422404
-0.00720922222
-0.00721665929
-0.00710675615
-0.00697808451
-0.00698752486
-0.0072124646
-0.00722001475
-0.007109256
-0.00697824615
-0.00699402896
-0.00721853298
-0.00722602145
-0.00710904194
-0.00697777584
-0.00702812416
-0.00719134354
-0.00714116579
-0.00697520869
-0.00699995861
-0.0072244446
-0.00723218472
-0.00711542551
-0.00697873669
-0.00702942096
-0.00719830484
-0.00714246614
-0.00697507647
-0.00702693617
-0.00718987695
-0.00714183938
-0.00697458007
-0.0070012606
-0.00721546415
-0.00722022466
-0.00710638917
-0.00697808493
-0.00699685901
-0.00721130677
-0.00721399417
-0.0071029706
-0.00697732456
-0.00699442019
-0.00721157492
-0.00721418784
-0.00710626148
-0.00697665921
-0.00699290657
-0.00721057942
-0.00721263717
-0.00710570505
-0.00697611043
-0.00699053895
-0.00720751327
-0.00720853519
-0.00710400576
-0.00697586357
-0.00698846518
-0.00720927333
-0.00720976494
-0.00710876219
)
;

boundaryField
{
    closed
    {
        type            zeroGradient;
    }
    open
    {
        type            zeroGradient;
    }
    sides
    {
        type            empty;
    }
    procBoundary2to1
    {
        type            processor;
        value           uniform -0.00697275957;
    }
    procBoundary2to3
    {
        type            processor;
        value           uniform -0.00697585529;
    }
}


// ************************************************************************* //
