/*--------------------------------*- C++ -*----------------------------------*\
| =========                 |                                                 |
| \\      /  F ield         | OpenFOAM: The Open Source CFD Toolbox           |
|  \\    /   O peration     | Version:  2306                                  |
|   \\  /    A nd           | Website:  www.openfoam.com                      |
|    \\/     M anipulation  |                                                 |
\*---------------------------------------------------------------------------*/
FoamFile
{
    version     2.0;
    format      ascii;
    arch        "LSB;label=32;scalar=64";
    class       volScalarField;
    location    "0.00086";
    object      sourcePV;
}
// * * * * * * * * * * * * * * * * * * * * * * * * * * * * * * * * * * * * * //

dimensions      [1 -3 -1 0 0 0 0];

internalField   nonuniform List<scalar> 
530
(
0.133020667
0.154642863
0.105843428
0.00605162066
0.00563413565
0.143035311
0.17327452
0.131847774
0.00582453317
0.0059509786
0.0847713888
0.159506706
0.131833779
0.0060267616
0.00607314077
0.125350721
0.150487181
0.148065619
0.0957150678
0.00566895141
0.00559879429
0.00585329007
0.00518594934
0.146603682
0.175710159
0.130627292
0.0051516727
0.00577698961
0.121957529
0.148838793
0.147208297
0.113393664
0.00529264568
0.00566590108
0.125084406
0.166073153
0.131557729
0.00443585307
0.00552651635
0.115889821
0.162408134
0.122550486
0.00359695105
0.00536146435
0.00541799038
0.00487083405
0.122857236
0.160551712
0.161638311
0.116585118
0.00341860087
0.00519947373
0.104912069
0.15905113
0.165986001
0.157744465
0.0121026761
0.00519442112
0.0603608264
0.135993284
0.13750491
0.0191479492
0.00475854127
0.0948483757
0.140846388
0.0601723357
0.00395067112
0.0518682673
0.144469465
0.153128867
0.0391289627
0.00394110006
0.0966601738
0.140244047
0.0548874728
0.00385493833
0.097310737
0.142336835
0.0549397616
0.00413381854
0.0731066694
0.154675389
0.158076926
0.0280414412
0.00502561943
0.0983690655
0.147780964
0.0618663766
0.00440519038
0.052189681
0.152656614
0.159786655
0.030489341
0.0049556818
0.108070489
0.147258116
0.0369280244
0.00470521579
0.113110663
0.149253116
0.0361749322
0.00468717451
0.0700219241
0.156527307
0.151091096
0.00672609202
0.00444074327
0.0885915792
0.157307937
0.142461107
0.00315802025
0.0039706969
0.0992108616
0.155008811
0.13121118
0.00318480516
0.00289329663
0.123368046
0.126106168
0.0023876664
0.0029948109
0.112746671
0.157870437
0.125806443
0.00315433112
0.00298895345
0.107131071
0.151132216
0.116640811
0.00330932307
0.00414882616
0.110156946
0.150625143
0.113056778
0.00320264588
0.00665284561
0.115327603
0.154403563
0.114616501
0.00346166839
0.0284834536
0.122167751
0.106739515
0.0030568869
0.00977826007
0.124196912
0.149994383
0.104346759
0.00350137363
0.00824314136
0.118957902
0.15282622
0.109415019
0.00268828105
0.0293339663
0.12669232
0.112170029
0.00311237268
0.00711180576
0.121711372
0.149851865
0.104756282
0.00364526223
0.00659237439
0.120930797
0.154003055
0.111028385
0.00302349043
0.0228223081
0.131649631
0.120579674
0.00308848122
0.00269373283
0.117649476
0.150333111
0.107151605
0.00395844587
0.00278952905
0.121618867
0.156041425
0.114334033
0.00388695408
0.00308486033
0.120686928
0.130544811
0.083183011
0.0784970338
0.123523445
0.114057744
0.00352039974
0.00403437544
0.137119705
0.132274925
0.00307256441
0.00257664094
0.136149388
0.131506055
0.00335286277
0.00333403412
0.123724663
0.164582055
0.129093222
0.00385817164
0.00345696558
0.140194008
0.141615629
0.00313187787
0.00367167923
0.139409279
0.139736145
0.00359155794
0.00399673016
0.123349246
0.166117346
0.133586615
0.00453574495
0.00452513476
0.139426877
0.14428038
0.00346732753
0.00463643112
0.138688422
0.142858536
0.00404806826
0.00462878854
0.124285289
0.168058087
0.139148308
0.00486987381
0.005251103
0.135202077
0.144264155
0.00378090598
0.00520199335
0.138633379
0.146144646
0.00393052868
0.00500728485
0.120799506
0.167793556
0.143751954
0.00480070557
0.00567787808
0.125823913
0.13602362
0.00394414738
0.00542207151
0.114721898
0.16015403
0.137993689
0.00476594606
0.00565888852
0.116386099
0.164526587
0.147555696
0.00450951715
0.00582574532
0.117466505
0.129740141
0.00351999027
0.00564479763
0.112397979
0.157986658
0.138037247
0.00449211343
0.00587670964
0.106430531
0.15585212
0.136893596
0.00444183285
0.00591403261
0.10545823
0.155730458
0.137642782
0.00436696602
0.00589387965
0.105539188
0.157058663
0.139344304
0.00426914306
0.00579327839
0.109452343
0.161707522
0.148527043
0.00412370549
0.00587001809
0.11417455
0.128565458
0.00310257118
0.00584555607
0.114031158
0.158665729
0.137135537
0.00430665628
0.0058655832
0.107252805
0.156276524
0.133148203
0.00441538735
0.00589449095
0.107718514
0.156442738
0.132382461
0.00444629682
0.00587850832
0.108489887
0.156748127
0.131048854
0.00448427036
0.00589486152
0.107312771
0.155525203
0.129289284
0.00452863095
0.00585260035
0.10876485
0.157688895
0.130587963
0.00450480293
0.0056626492
0.113777568
0.166862163
0.13406215
0.00352518149
0.00627923224
0.00553703656
0.137019401
0.173713185
0.143208691
0.00419463072
0.0055108341
0.117042894
0.164055071
0.131369837
0.00452331407
0.00560736444
0.117946409
0.165134544
0.134037081
0.00458259601
0.00520543946
0.125395982
0.130475871
0.00439301561
0.00562856256
0.122860813
0.164912797
0.131088599
0.00473135391
0.00534206745
0.120738765
0.123787919
0.00474145493
0.00585633013
0.120350397
0.15347308
0.142950548
0.151886335
0.124565872
0.00505096337
0.00524776214
0.125280571
0.127040479
0.00488063456
0.00563490981
0.128072323
0.169370481
0.129816147
0.00460120316
0.00470586373
0.142327185
0.146263903
0.00432308672
0.00469140828
0.14825969
0.151616336
0.00420633706
0.00467953917
0.150763424
0.153769281
0.00424959999
0.00478115873
0.150587255
0.153520922
0.00435703563
0.00499886114
0.147939213
0.150738643
0.00455822217
0.0052720347
0.143105291
0.144132981
0.0048208272
0.00544739991
0.144944568
0.174860921
0.13185952
0.00481386102
0.00520743473
0.145817728
0.149602482
0.004552646
0.00500930208
0.146885938
0.148108462
0.00474329794
0.00507328952
0.142298575
0.139192524
0.00511089623
0.00538253725
0.152593602
0.174706044
0.128426207
0.00480953447
0.00461220029
0.148497504
0.148850442
0.00471826201
0.00448967601
0.148220221
0.144872353
0.00517898901
0.00473196766
0.139393053
0.129276516
0.00547769429
0.00536927008
0.15502943
0.165094193
0.113276077
0.00526981456
0.0063472333
0.00486965131
0.151857857
0.164800698
0.149582614
0.158110017
0.108078638
0.00532877796
0.00643848077
0.0214773367
0.132392705
0.116165924
0.00582655202
0.00464431532
0.161555595
0.170309496
0.104818342
0.0054674409
0.00238221742
0.134933811
0.112392663
0.00583638409
0.00439450712
0.155404847
0.160503965
0.0895059129
0.00550628742
0.00413687589
0.153378863
0.157169676
0.0842951518
0.00553199572
0.00377883544
0.153402325
0.15695953
0.0821492959
0.00548506996
0.00336590384
0.154439921
0.157951121
0.0819787648
0.00540330266
0.00289678083
0.157330211
0.160747673
0.0837712677
0.00526732818
0.00342959015
0.162921685
0.165929892
0.0847711765
0.00519784198
0.0313509548
0.138925294
0.103504448
0.00545823566
0.00798927373
0.168584388
0.170981492
0.0894211941
0.00494373329
0.0328944587
0.14447636
0.105623404
0.00540401915
0.0298777247
0.138087623
0.103762698
0.00551699649
0.00860969627
0.160104206
0.161140722
0.0821645184
0.00532211565
0.0051992708
0.155797058
0.156329449
0.0797873992
0.00544603146
0.002894356
0.156356632
0.156867963
0.082358654
0.00550254011
0.00249268624
0.155732972
0.156099226
0.0822492213
0.00561999511
0.00295251381
0.152918526
0.153007073
0.0811839013
0.00568966989
0.00330088837
0.154317124
0.154252336
0.0844782086
)
;

boundaryField
{
    closed
    {
        type            calculated;
        value           nonuniform List<scalar> 0();
    }
    open
    {
        type            calculated;
        value           nonuniform List<scalar> 0();
    }
    sides
    {
        type            empty;
    }
    procBoundary2to1
    {
        type            processor;
        value           uniform 0;
    }
    procBoundary2to3
    {
        type            processor;
        value           uniform 0;
    }
}


// ************************************************************************* //
