/*--------------------------------*- C++ -*----------------------------------*\
| =========                 |                                                 |
| \\      /  F ield         | OpenFOAM: The Open Source CFD Toolbox           |
|  \\    /   O peration     | Version:  2306                                  |
|   \\  /    A nd           | Website:  www.openfoam.com                      |
|    \\/     M anipulation  |                                                 |
\*---------------------------------------------------------------------------*/
FoamFile
{
    version     2.0;
    format      ascii;
    arch        "LSB;label=32;scalar=64";
    class       volScalarField;
    location    "0.00036";
    object      H2;
}
// * * * * * * * * * * * * * * * * * * * * * * * * * * * * * * * * * * * * * //

dimensions      [0 0 0 0 0 0 0];

internalField   nonuniform List<scalar> 
531
(
0.0109868782
0.0106884872
0.0106560798
0.0108931751
0.0110195956
0.0108120233
0.0106945776
0.0109081422
0.0109616963
0.0106739715
0.0107234132
0.0110445366
0.0108821617
0.0106730102
0.0107498489
0.0110412407
0.0109938385
0.010678577
0.0106700757
0.0110348772
0.0110254507
0.0107303468
0.010670172
0.0108399393
0.01103767
0.0108265469
0.0106842945
0.0107293109
0.0110570996
0.0109519898
0.0107065021
0.0107093017
0.0108970202
0.0109331372
0.0107711014
0.0107321783
0.0108023261
0.0108791565
0.0108230682
0.0107569605
0.0107741521
0.0108467144
0.0108446129
0.0107727849
0.010767258
0.0108261817
0.0108495646
0.0107923767
0.0107600147
0.0108022773
0.0108637196
0.0108211951
0.0107510803
0.0107678116
0.0108765508
0.010875415
0.0107441737
0.0107331089
0.0108634637
0.0109327023
0.0107773884
0.0106964523
0.0107776731
0.011061042
0.0109227586
0.0106829758
0.0106788816
0.0110659894
0.0110201379
0.0107124179
0.0106612433
0.0108831955
0.0110286457
0.0107712783
0.0106681433
0.0108396715
0.0110310159
0.0109438552
0.0106769364
0.0106683475
0.0109800333
0.0110207397
0.0107428609
0.0106646451
0.0108732794
0.0110270826
0.0108896558
0.0106759145
0.0106728154
0.0110774288
0.0110193075
0.0107365407
0.0106716763
0.0108104869
0.0110458854
0.0108427225
0.0106950552
0.0107449538
0.0109152604
0.0108773604
0.0107480664
0.0107507089
0.0108293939
0.0108459518
0.0108106669
0.0107836164
0.010779997
0.0107904314
0.0108388042
0.0108439601
0.0107819409
0.0107527457
0.0108021048
0.0108868671
0.0108362012
0.0107391585
0.0107466056
0.0108905775
0.0109021232
0.0107599139
0.0107339196
0.0108203228
0.0108980116
0.0108125974
0.0107474188
0.0107791301
0.0108541766
0.0108350455
0.0107758036
0.0107807396
0.0108180269
0.0108163839
0.0107959907
0.010801481
0.0108133789
0.0107980825
0.0107803507
0.0108082985
0.0108499128
0.0108135145
0.010743421
0.010761063
0.0109117206
0.0109122787
0.0107190492
0.0107002041
0.0109049574
0.0110761632
0.0107919249
0.0106843134
0.0107311692
0.0110473543
0.0110412537
0.0106825896
0.0106774069
0.0110800715
0.0110272449
0.0107413589
0.0106765068
0.0107613523
0.0110446096
0.0109484034
0.0106908447
0.0106922408
0.0109682032
0.0110784381
0.0107752225
0.0106973192
0.0107361163
0.0109924983
0.010991543
0.0107317326
0.0107005867
0.0107791407
0.0110158613
0.0109160584
0.0107096175
0.010702896
0.0108920657
0.0110150021
0.0107934636
0.0107014389
0.010758744
0.010977503
0.0109041064
0.0107220008
0.0107236521
0.010888214
0.0109111299
0.0107661758
0.0107378205
0.0108230688
0.0108808047
0.0107951098
0.0107442031
0.0108008257
0.010889837
0.0108254497
0.0107294093
0.0107524067
0.0109307819
0.0109271668
0.010719845
0.0107036582
0.0108864881
0.0110415368
0.0107965603
0.0106947334
0.0107439282
0.0110749898
0.0109647999
0.0107030841
0.0106999085
0.0109088738
0.0109792088
0.0107736694
0.0107210828
0.0107956609
0.0108855591
0.0108243341
0.010763148
0.0107857208
0.0108234427
0.010808982
0.0107933595
0.0108093498
0.0108160292
0.0107889917
0.01078247
0.0108227243
0.0108355667
0.0107894493
0.0107728053
0.0108102989
0.0108376074
0.0108041967
0.0107775329
0.0107981023
0.0108276543
0.0108109971
0.0107822582
0.0107933638
0.010830292
0.010823423
0.0107698584
0.0107681214
0.0108517081
0.0108694258
0.0107673439
0.0107254793
0.01081773
0.0109638597
0.0108469701
0.0106973903
0.0107044048
0.0110720399
0.0110603202
0.0106915615
0.0106771227
0.0109908876
0.0110251369
0.0107895874
0.010675227
0.0107125395
0.0110472093
0.01107583
0.0106912431
0.0106896271
0.0109281263
0.0110623549
0.0107677458
0.0107023759
0.0107921426
0.0109256209
0.010833629
0.0107418628
0.0107704248
0.0108506423
0.0108371129
0.0107775158
0.0107793998
0.0108183844
0.0108208186
0.0107973905
0.0107927182
0.0108044499
0.0108102237
0.010805553
0.0108003023
0.0107998456
0.0108014339
0.0108079024
0.0108099623
0.0108023634
0.0107915854
0.0107970885
0.010823113
0.0108233165
0.0107793486
0.0107724115
0.0108255165
0.0108568046
0.0107980385
0.0107470556
0.0107820088
0.0108943354
0.0108651555
0.0107359272
0.0107316058
0.0108833169
0.0109313592
0.0107742395
0.0107226562
0.0107964499
0.0109198291
0.010840553
0.010739522
0.0107584529
0.0108632308
0.0108621073
0.010770287
0.010765491
0.0108187284
0.010834406
0.0107999096
0.010785033
0.0108015051
0.0108146872
0.0108068358
0.0107978349
0.0108002174
0.0108052628
0.0108057438
0.0108054082
0.0108023009
0.0107992814
0.0108008896
0.0108105971
0.0108108672
0.0107945356
0.0107913744
0.0108110918
0.0108220628
0.0108012992
0.0107813235
0.0107966633
0.0108327585
0.0108219083
0.0107755576
0.0107754991
0.0108340556
0.0108407908
0.0107857251
0.0107694107
0.0108109062
0.0108426958
0.0108063094
0.0107736022
0.01079373
0.0108308067
0.0108159726
0.0107846582
0.0107935066
0.0108190714
0.0108095979
0.0107876479
0.0107996702
0.0108269072
0.0108109274
0.0107722494
0.0107843377
0.0108509261
0.0108451208
0.0107615772
0.0107548042
0.0108373623
0.010879159
0.0108038923
0.0107456314
0.0107648341
0.010871172
0.010879085
0.0107841484
0.0107431148
0.0107616374
0.0108841976
0.0108962595
0.0107793402
0.0107228692
0.0107635512
0.0109561177
0.0109174769
0.0107165677
0.0107055322
0.0108900473
0.0110270193
0.0107938673
0.0106982921
0.0107564825
0.0110079948
0.0109100801
0.0107108452
0.0107156629
0.010915032
0.0109447111
0.0107596629
0.0107275369
0.0108178052
0.0108879272
0.0108080537
0.0107550888
0.0107883113
0.0108420331
0.0108218153
0.0107809643
0.0107880351
0.010817462
0.0108161743
0.0107959085
0.0107953155
0.0108068781
0.0108084388
0.0108022941
0.0108006925
0.0108037047
0.0108049162
0.010803498
0.0108027386
0.0108033924
0.0108038503
0.0108034886
0.0108031173
0.010803412
0.0108040076
0.0108037549
0.010802447
0.0108024495
0.0108051438
0.0108055443
0.0108016581
0.0107995061
0.0108044206
0.0108105154
0.0108051745
0.0107927024
0.0107961937
0.0108191863
0.010819414
0.0107861491
0.01078133
0.0108186619
0.0108374451
0.0107968348
0.0107645449
0.0107978023
0.010862292
0.0108275035
0.0107473319
0.0107579617
0.0108908301
0.0108928387
0.0107390328
0.010723125
0.0108715468
0.0109622782
0.0107839135
0.0106980581
0.010769117
0.0110796918
0.0109091222
0.0106900888
0.0106910828
0.0110610001
0.0110400679
0.0107194168
0.0106858439
0.0108265234
0.0110614654
0.0108372234
0.0106835861
0.0107101647
0.0110471364
0.0110715989
0.0106753959
0.0106688556
0.0110702269
0.0110117145
0.0107385536
0.010666554
0.0106812654
0.0110353094
0.011002621
0.0107188186
0.0106621274
0.0107032225
0.0110301452
0.011001738
0.01071236
0.0106552195
0.0107005387
0.0110322971
0.0110008453
0.0107193661
0.0106620994
0.0107018374
0.0110315787
0.0110024316
0.0107238613
0.010663855
0.0106844066
0.0110440682
0.0110026784
0.0106886151
0.0106548442
0.0108910394
0.0110159858
0.0110187865
0.0106986019
0.0106483117
0.0106802595
0.0110536846
0.0110044547
0.0106794241
0.0106505279
0.0110559344
0.0110118703
0.0110153689
0.0106855317
0.0106809257
0.011072669
0.0107165848
)
;

boundaryField
{
    closed
    {
        type            calculated;
        value           nonuniform List<scalar> 0();
    }
    open
    {
        type            calculated;
        value           nonuniform List<scalar> 0();
    }
    sides
    {
        type            empty;
    }
    procBoundary1to0
    {
        type            processor;
        value           uniform 0.0108121205;
    }
    procBoundary1to2
    {
        type            processor;
        value           uniform 0.0106645873;
    }
}


// ************************************************************************* //
