/*--------------------------------*- C++ -*----------------------------------*\
| =========                 |                                                 |
| \\      /  F ield         | OpenFOAM: The Open Source CFD Toolbox           |
|  \\    /   O peration     | Version:  2306                                  |
|   \\  /    A nd           | Website:  www.openfoam.com                      |
|    \\/     M anipulation  |                                                 |
\*---------------------------------------------------------------------------*/
FoamFile
{
    version     2.0;
    format      ascii;
    arch        "LSB;label=32;scalar=64";
    class       volScalarField;
    location    "0.00036";
    object      p;
}
// * * * * * * * * * * * * * * * * * * * * * * * * * * * * * * * * * * * * * //

dimensions      [1 -1 -2 0 0 0 0];

internalField   nonuniform List<scalar> 
531
(
102155.503
102155.794
102156.408
102157.115
102157.915
102158.851
102159.859
102161.006
102162.316
102163.52
102165.003
102166.609
102168.274
102170.079
102172.311
102174.635
102176.937
102178.726
102180.764
102182.638
102184.198
102185.599
102186.74
102187.611
102188.182
102188.553
102188.604
102188.557
102188.362
102187.755
102186.762
102185.878
102184.839
102183.773
102182.593
102181.409
102180.23
102179.097
102177.959
102176.818
102175.736
102174.694
102173.656
102172.596
102171.568
102170.557
102169.582
102168.623
102167.699
102166.85
102166.099
102165.421
102164.823
102164.38
102164.083
102163.913
102163.839
102164.015
102164.401
102165.096
102166.031
102167.191
102168.419
102169.275
102169.563
102169.533
102170.31
102171.119
102171.603
102171.66
102171.345
102171.208
102171.426
102171.981
102172.483
102172.926
102173.318
102173.632
102173.519
102173.461
102173.342
102173.254
102173.235
102173.056
102172.667
102172.17
102171.481
102170.33
102169.246
102168.538
102167.986
102167.979
102167.977
102167.731
102167.292
102166.75
102166.05
102165.398
102164.796
102164.272
102163.779
102163.471
102163.291
102163.231
102163.255
102163.35
102163.5
102163.677
102163.852
102163.988
102164.07
102164.09
102164.047
102163.945
102163.727
102163.393
102163.019
102162.575
102162.059
102161.461
102160.861
102160.258
102159.714
102159.17
102158.68
102158.306
102158.055
102157.91
102157.865
102157.96
102158.182
102158.52
102158.985
102159.6
102160.374
102161.294
102162.327
102163.419
102164.494
102165.441
102166.131
102166.392
102165.953
102164.658
102163.137
102163.195
102164.476
102167.031
102169.257
102170.976
102172.512
102173.938
102175.42
102175.976
102176.857
102177.625
102178.221
102178.934
102179.557
102180.11
102180.595
102180.983
102180.846
102180.422
102179.849
102180.231
102181.132
102182.881
102184.393
102184.939
102184.399
102186.855
102188.538
102189.629
102190.568
102191.177
102191.674
102192.316
102192.917
102193.663
102194.087
102194.556
102194.985
102195.376
102195.57
102195.572
102195.623
102195.592
102195.504
102195.31
102195.078
102194.775
102194.42
102193.948
102193.379
102192.749
102192.1
102191.414
102190.741
102190.221
102189.882
102189.688
102189.532
102189.705
102189.981
102190.566
102190.924
102191.457
102192.241
102193.088
102193.564
102193.814
102194.303
102194.688
102195.199
102195.522
102195.878
102196.234
102196.608
102196.972
102197.333
102197.736
102198.172
102198.638
102199.149
102199.732
102200.4
102201.148
102201.96
102202.805
102203.647
102204.445
102205.188
102205.876
102206.518
102207.122
102207.722
102208.362
102209.064
102209.828
102210.656
102211.548
102212.481
102213.42
102214.352
102215.298
102216.237
102217.176
102218.1
102219.034
102219.972
102220.955
102221.836
102222.698
102223.687
102224.69
102225.625
102226.769
102228.032
102229.176
102230.243
102231.378
102232.455
102233.544
102234.507
102235.623
102235.671
102236.162
102236.818
102237.602
102237.88
102238.37
102238.853
102239.387
102239.879
102240.357
102240.861
102241.338
102241.718
102241.955
102242.055
102241.973
102241.674
102241.149
102240.407
102239.464
102238.342
102237.06
102235.643
102234.121
102232.518
102230.859
102229.166
102227.456
102225.735
102224.01
102222.283
102220.554
102218.832
102217.117
102215.419
102213.763
102212.11
102210.453
102208.817
102207.216
102205.581
102203.875
102202.24
102200.618
102199.109
102197.532
102196.004
102194.524
102193.136
102191.73
102190.318
102188.999
102187.748
102186.545
102185.353
102184.262
102183.251
102182.337
102181.5
102180.752
102180.109
102179.572
102179.13
102178.781
102178.524
102178.35
102178.246
102178.202
102178.205
102178.247
102178.319
102178.412
102178.518
102178.632
102178.755
102178.884
102179.022
102179.161
102179.303
102179.46
102179.631
102179.799
102179.946
102180.03
102180.008
102180.201
102180.43
102180.614
102180.76
102180.889
102180.992
102181.086
102181.195
102181.325
102181.469
102181.638
102181.857
102182.13
102182.457
102182.845
102183.31
102183.854
102184.466
102185.148
102185.914
102186.753
102187.629
102188.524
102189.465
102190.411
102191.351
102192.219
102193.05
102193.864
102194.672
102195.478
102196.317
102197.274
102198.363
102199.563
102200.809
102202.053
102203.324
102204.58
102205.832
102206.909
102207.84
102208.812
102209.67
102210.595
102211.068
102211.56
102212.151
102212.648
102212.826
102212.816
102212.799
102212.657
102212.4
102211.927
102211.402
102210.764
102210.069
102209.268
102208.427
102207.595
102206.779
102205.925
102204.993
102203.964
102202.794
102201.436
102199.871
102198.105
102196.139
102193.978
102191.626
102189.089
102186.376
102183.492
102180.439
102177.226
102173.861
102170.358
102166.735
102163.012
102159.216
102155.376
102151.521
102147.678
102143.874
102140.127
102136.446
102132.831
102129.275
102125.768
102122.298
102118.848
102115.417
102112.025
102108.697
102105.444
102102.287
102099.243
102096.325
102093.539
102090.846
102088.236
102085.722
102083.312
102080.94
102078.573
102076.264
102073.993
102071.703
102069.373
102067.051
102064.683
102062.407
102059.967
102057.429
102054.861
102052.053
102049.726
102046.92
102044.054
102041.431
102038.692
102036.118
102033.443
102030.406
102027.114
102023.277
102018.916
102014.618
102011.166
102008.575
102005.791
102003.99
102003.002
102001.83
102000.461
101998.564
101996.296
101994.144
101991.866
101989.94
101988.14
101986.594
101985.337
101984.245
101983.734
101983.468
101983.486
101983.722
101983.981
101984.651
101985.33
101986.056
101986.795
101987.41
101988.345
101989.24
101990.094
101991.062
101991.831
101992.804
101993.671
101994.519
101995.39
101996.097
101996.923
101997.72
101998.442
101999.243
101999.819
102000.592
102001.312
102002.143
102003.308
102004.17
102006.492
102007.65
102009.379
102010.908
)
;

boundaryField
{
    closed
    {
        type            zeroGradient;
    }
    open
    {
        type            waveTransmissive;
        gamma           1.25;
        fieldInf        101325;
        lInf            1;
        value           nonuniform List<scalar> 0();
    }
    sides
    {
        type            empty;
    }
    procBoundary1to0
    {
        type            processor;
        value           uniform 102155.2;
    }
    procBoundary1to2
    {
        type            processor;
        value           uniform 102012.558;
    }
}


// ************************************************************************* //
