/*--------------------------------*- C++ -*----------------------------------*\
| =========                 |                                                 |
| \\      /  F ield         | OpenFOAM: The Open Source CFD Toolbox           |
|  \\    /   O peration     | Version:  2306                                  |
|   \\  /    A nd           | Website:  www.openfoam.com                      |
|    \\/     M anipulation  |                                                 |
\*---------------------------------------------------------------------------*/
FoamFile
{
    version     2.0;
    format      ascii;
    arch        "LSB;label=32;scalar=64";
    class       volScalarField;
    location    "0.00166";
    object      alpha;
}
// * * * * * * * * * * * * * * * * * * * * * * * * * * * * * * * * * * * * * //

dimensions      [1 -1 -1 0 0 0 0];

internalField   nonuniform List<scalar> 
530
(
3.86166026e-05
3.62407369e-05
3.58444264e-05
3.58347693e-05
3.58339339e-05
3.58338904e-05
3.58338872e-05
3.5833887e-05
3.5833887e-05
3.5833887e-05
3.5833887e-05
3.5833887e-05
3.5833887e-05
3.5833887e-05
3.5833887e-05
3.5833887e-05
3.5833887e-05
3.5833887e-05
3.5833887e-05
3.5833887e-05
3.5833887e-05
3.5833887e-05
3.5833887e-05
3.5833887e-05
3.5833887e-05
3.5833887e-05
3.5833887e-05
3.5833887e-05
3.5833887e-05
3.5833887e-05
3.5833887e-05
3.5833887e-05
3.5833887e-05
3.5833887e-05
3.5833887e-05
3.5833887e-05
3.5833887e-05
3.5833887e-05
3.5833887e-05
3.5833887e-05
3.5833887e-05
3.5833887e-05
3.5833887e-05
3.5833887e-05
3.5833887e-05
3.5833887e-05
3.5833887e-05
3.5833887e-05
3.5833887e-05
3.5833887e-05
3.5833887e-05
3.5833887e-05
3.5833887e-05
3.5833887e-05
3.5833887e-05
3.5833887e-05
3.5833887e-05
3.5833887e-05
3.5833887e-05
3.5833887e-05
3.5833887e-05
3.58338872e-05
3.58338874e-05
3.58338885e-05
3.58338887e-05
3.58338949e-05
3.5833896e-05
3.58339177e-05
3.58339406e-05
3.58339936e-05
3.58340301e-05
3.58342189e-05
3.58345908e-05
3.58349898e-05
3.58336983e-05
3.58322338e-05
3.58370258e-05
3.58607981e-05
3.58590319e-05
3.5759906e-05
3.57592464e-05
3.6120711e-05
3.6196757e-05
3.57549237e-05
3.57428799e-05
3.58500259e-05
3.59076726e-05
3.57521151e-05
3.54373568e-05
3.53642346e-05
3.59221724e-05
3.675104e-05
3.68401986e-05
3.6619823e-05
3.55158179e-05
3.50202343e-05
3.56498784e-05
3.67542906e-05
3.68833744e-05
3.65065243e-05
3.56927306e-05
3.5309475e-05
3.50273339e-05
3.53594465e-05
3.68065861e-05
3.68440406e-05
3.67936054e-05
3.68406411e-05
3.60258023e-05
3.52094188e-05
3.50292596e-05
3.57669087e-05
3.68240058e-05
3.68474809e-05
3.56622208e-05
3.49762403e-05
3.56295711e-05
3.67683548e-05
3.68460756e-05
3.67978773e-05
3.68431112e-05
3.57488029e-05
3.52250746e-05
3.52592095e-05
3.51364315e-05
3.47986742e-05
3.54198873e-05
3.68082582e-05
3.68577028e-05
3.59350189e-05
3.53425514e-05
3.57164176e-05
3.68089973e-05
3.67925473e-05
3.68008416e-05
3.67786497e-05
3.57389333e-05
3.46625738e-05
3.47052593e-05
3.67771479e-05
3.68126533e-05
3.56792297e-05
3.51969831e-05
3.67910979e-05
3.68317835e-05
3.5867539e-05
3.54215582e-05
3.50732219e-05
3.55018435e-05
3.67814905e-05
3.68144232e-05
3.67842975e-05
3.68006598e-05
3.57818303e-05
3.480247e-05
3.48139329e-05
3.67660173e-05
3.67654187e-05
3.59790807e-05
3.50301218e-05
3.50438416e-05
3.67715376e-05
3.58234885e-05
3.49464261e-05
3.67840892e-05
3.67995979e-05
3.56546602e-05
3.52943027e-05
3.67733601e-05
3.68168029e-05
3.55904462e-05
3.53502929e-05
3.68029668e-05
3.68035309e-05
3.6798591e-05
3.56050621e-05
3.54038015e-05
3.68040748e-05
3.68070301e-05
3.67791077e-05
3.59022351e-05
3.56437832e-05
3.49017914e-05
3.49198117e-05
3.67701197e-05
3.58020515e-05
3.4849512e-05
3.68023946e-05
3.67558374e-05
3.59242299e-05
3.49972466e-05
3.50120276e-05
3.67580001e-05
3.67616164e-05
3.61352427e-05
3.51435323e-05
3.51456721e-05
3.6768488e-05
3.57732371e-05
3.49838665e-05
3.68051706e-05
3.67769928e-05
3.6787904e-05
3.57741888e-05
3.5349061e-05
3.6787499e-05
3.67597259e-05
3.67631904e-05
3.63892656e-05
3.57360556e-05
3.53393934e-05
3.53674278e-05
3.48030067e-05
3.48214594e-05
3.67713236e-05
3.68011793e-05
3.56858785e-05
3.53057516e-05
3.67773799e-05
3.67673026e-05
3.59904539e-05
3.49864447e-05
3.49917295e-05
3.66472339e-05
3.67711361e-05
3.67292855e-05
3.61991034e-05
3.49196656e-05
3.48989448e-05
3.64389909e-05
3.67366897e-05
3.67377921e-05
3.66379497e-05
3.50110368e-05
3.50042696e-05
3.66995914e-05
3.59059575e-05
3.49700575e-05
3.6795474e-05
3.67581183e-05
3.58942811e-05
3.49499604e-05
3.49618594e-05
3.66356364e-05
3.67616652e-05
3.67737295e-05
3.52611533e-05
3.51015258e-05
3.67487438e-05
3.60150234e-05
3.50377006e-05
3.67877621e-05
3.67655144e-05
3.59214608e-05
3.51076257e-05
3.51123625e-05
3.67835132e-05
3.67761998e-05
3.60133247e-05
3.51184915e-05
3.51195071e-05
3.67792052e-05
3.68078368e-05
3.57395298e-05
3.54035693e-05
3.67801066e-05
3.67843177e-05
3.60799448e-05
3.5212446e-05
3.52097755e-05
3.67849577e-05
3.57650961e-05
3.5092549e-05
3.68046604e-05
3.67790248e-05
3.6783938e-05
3.59489028e-05
3.55711543e-05
3.49682132e-05
3.49643142e-05
3.67973495e-05
3.67835446e-05
3.57824575e-05
3.47206149e-05
3.47432816e-05
3.6772769e-05
3.67947292e-05
3.67590305e-05
3.57898253e-05
3.45997365e-05
3.4630587e-05
3.67641716e-05
3.67821699e-05
3.67664249e-05
3.67747675e-05
3.59777019e-05
3.49058669e-05
3.49194427e-05
3.6771972e-05
3.68100848e-05
3.55936472e-05
3.52212316e-05
3.67911845e-05
3.68095394e-05
3.56300764e-05
3.52256697e-05
3.68050446e-05
3.67953952e-05
3.57809984e-05
3.49192101e-05
3.49335158e-05
3.67892051e-05
3.68103321e-05
3.56887543e-05
3.52925636e-05
3.68012685e-05
3.67894269e-05
3.58203616e-05
3.51039157e-05
3.51046039e-05
3.67963797e-05
3.67866927e-05
3.58776732e-05
3.51319595e-05
3.51310114e-05
3.67924341e-05
3.67921422e-05
3.60607775e-05
3.54975953e-05
3.54432805e-05
3.48409423e-05
3.4844813e-05
3.68122414e-05
3.67993836e-05
3.68103688e-05
3.57537187e-05
3.53514661e-05
3.68173303e-05
3.6824401e-05
3.57035848e-05
3.54189507e-05
3.68232829e-05
3.68262437e-05
3.57009412e-05
3.53648261e-05
3.68268608e-05
3.68134306e-05
3.57981764e-05
3.50673964e-05
3.50726657e-05
3.68089752e-05
3.68334973e-05
3.57172468e-05
3.54493233e-05
3.68109461e-05
3.68152926e-05
3.57960303e-05
3.56214646e-05
3.51543725e-05
3.51598179e-05
3.67851119e-05
3.68079424e-05
3.54189632e-05
3.52315682e-05
3.68000106e-05
3.67956675e-05
3.67948664e-05
3.67912634e-05
3.58450957e-05
3.52193992e-05
3.52722415e-05
3.46835324e-05
3.46969784e-05
3.67699908e-05
3.67953982e-05
3.51143053e-05
3.49966516e-05
3.67780958e-05
3.67909116e-05
3.67782202e-05
3.68008486e-05
3.67845628e-05
3.67974336e-05
3.57656814e-05
3.53175739e-05
3.55183932e-05
3.53069138e-05
3.53069961e-05
3.48807636e-05
3.48875236e-05
3.68095586e-05
3.68004314e-05
3.68114954e-05
3.57600991e-05
3.53658225e-05
3.68250305e-05
3.68200818e-05
3.57218296e-05
3.55065467e-05
3.68283959e-05
3.68183856e-05
3.57594413e-05
3.55459399e-05
3.51289532e-05
3.51310093e-05
3.68164227e-05
3.68244524e-05
3.54555105e-05
3.52167052e-05
3.6823184e-05
3.68116354e-05
3.55216504e-05
3.51154549e-05
3.68219437e-05
3.67928995e-05
3.57314564e-05
3.44978975e-05
3.4608484e-05
3.67695585e-05
3.68029038e-05
3.67629592e-05
3.68018459e-05
3.67721472e-05
3.67984634e-05
3.67882535e-05
3.55022564e-05
3.50920067e-05
3.48817168e-05
3.48993949e-05
3.68134158e-05
3.68003387e-05
3.54944928e-05
3.53328965e-05
3.68249319e-05
3.68037389e-05
3.57519251e-05
3.55407381e-05
3.52442517e-05
3.52364982e-05
3.6825776e-05
3.68113789e-05
3.5742277e-05
3.49914331e-05
3.50699749e-05
3.68245536e-05
3.681119e-05
3.68174903e-05
3.57225494e-05
3.53574179e-05
3.68345624e-05
3.68064212e-05
3.57938219e-05
3.51750774e-05
3.51760338e-05
3.68302242e-05
3.68195387e-05
3.57598454e-05
3.51210278e-05
3.51224265e-05
3.68332417e-05
3.68185233e-05
3.57559734e-05
3.51137772e-05
3.51168305e-05
3.68294128e-05
3.68130428e-05
3.57310914e-05
3.53629393e-05
3.50047934e-05
3.50171804e-05
3.68251567e-05
3.68002856e-05
3.68098621e-05
3.54952371e-05
3.50922273e-05
3.68311903e-05
3.67920349e-05
3.68182819e-05
3.67923973e-05
3.58359645e-05
3.52408273e-05
3.53275277e-05
3.48166288e-05
3.4814994e-05
3.6824688e-05
3.68166803e-05
3.55418788e-05
3.68188653e-05
3.68185937e-05
3.57168136e-05
3.51960408e-05
3.5203017e-05
3.68306e-05
3.68013628e-05
3.57695026e-05
3.51122782e-05
3.51322212e-05
3.68224564e-05
3.68285672e-05
3.5559062e-05
3.53201151e-05
3.68381877e-05
3.6820882e-05
3.55715041e-05
3.53268147e-05
3.68449587e-05
3.68146433e-05
3.57678463e-05
3.50990756e-05
3.53077328e-05
3.68410328e-05
3.57130978e-05
3.50740558e-05
3.68453616e-05
3.6824765e-05
3.53066053e-05
3.53229371e-05
3.68484144e-05
3.6820546e-05
3.68313976e-05
3.57263355e-05
3.49134446e-05
3.50043757e-05
3.68185182e-05
3.68296248e-05
3.54208477e-05
3.54321489e-05
3.68402146e-05
3.57419708e-05
3.50103115e-05
)
;

boundaryField
{
    closed
    {
        type            calculated;
        value           uniform 5.14927078e-05;
    }
    open
    {
        type            calculated;
        value           nonuniform List<scalar> 0();
    }
    sides
    {
        type            empty;
    }
    procBoundary0to1
    {
        type            processor;
        value           uniform 3.68389535e-05;
    }
}


// ************************************************************************* //
