/*--------------------------------*- C++ -*----------------------------------*\
| =========                 |                                                 |
| \\      /  F ield         | OpenFOAM: The Open Source CFD Toolbox           |
|  \\    /   O peration     | Version:  2306                                  |
|   \\  /    A nd           | Website:  www.openfoam.com                      |
|    \\/     M anipulation  |                                                 |
\*---------------------------------------------------------------------------*/
FoamFile
{
    version     2.0;
    format      ascii;
    arch        "LSB;label=32;scalar=64";
    class       volScalarField;
    location    "0.0009";
    object      p;
}
// * * * * * * * * * * * * * * * * * * * * * * * * * * * * * * * * * * * * * //

dimensions      [1 -1 -2 0 0 0 0];

internalField   nonuniform List<scalar> 
530
(
101654.912
101381.35
101373.407
101442.296
101235.522
101124.663
101315.888
101410.414
101338.74
101461.949
101592.475
101462.746
101212.787
101018.148
101161.028
101661.674
101930.056
101546.24
101173.341
101446.274
101719.042
101513.395
101450.941
101548.916
101397.1
101222.207
101193.206
101293.164
101456.141
101700.949
102067.798
102138.12
101726.502
101279.363
101228.25
101505.848
101588.312
101334.845
101314.68
101533.281
101537.826
101449.049
101554.308
101612.472
101450.83
101189.336
100733.336
100151.844
99731.1121
99813.083
100552.071
101575.825
102346.997
102519.662
102588.341
102854.731
103071.699
102959.707
102611.317
102272.937
102033.08
101897.708
101835.85
101793.882
101745.888
101696.548
101651.426
101616.034
101591.712
101576.815
101568.806
101564.594
101562.161
101560.545
101559.335
101558.524
101558.294
101558.716
101559.63
101560.792
101562.023
101563.229
101564.359
101565.362
101566.179
101566.777
101567.205
101567.617
101568.167
101568.877
101569.64
101570.383
101571.091
101571.714
101572.149
101572.163
101571.3
101568.753
101571.818
101573.429
101574.112
101574.496
101574.633
101574.767
101574.894
101574.985
101575.044
101575.114
101575.164
101575.196
101575.2
101575.146
101575.189
101575.285
101574.979
101574.768
101574.538
101574.207
101573.715
101573.03
101571.581
101571.798
101571.304
101570.56
101569.674
101568.729
101567.823
101566.672
101565.478
101564.226
101563.029
101561.53
101559.952
101558.277
101556.538
101554.829
101552.699
101550.51
101548.161
101545.903
101542.472
101539.077
101535.394
101531.691
101526.631
101521.631
101516.35
101511.215
101504.426
101498.02
101491.359
101485.395
101476.566
101469.364
101458.547
101452.908
101443.657
101435.619
101430.026
101426.515
101423.201
101419.59
101415.773
101411.887
101408.408
101404.864
101401.551
101398.723
101396.213
101393.944
101391.872
101390.005
101388.202
101386.574
101385.189
101383.773
101382.739
101382.101
101381.697
101381.515
101381.559
101381.779
101382.163
101382.733
101383.454
101384.234
101385.148
101386.192
101387.319
101388.431
101389.586
101390.957
101392.342
101393.646
101395.237
101397.048
101399.023
101401.204
101403.519
101406.05
101408.961
101411.997
101414.995
101418.205
101421.604
101424.739
101427.359
101429.807
101432.028
101433.958
101435.571
101436.83
101437.885
101438.857
101439.697
101440.37
101441.086
101441.855
101442.701
101443.519
101444.191
101444.793
101445.301
101445.64
101445.84
101446.034
101446.184
101446.223
101446.182
101446.131
101445.944
101445.659
101445.418
101445.299
101445.169
101445.077
101445.052
101445.247
101445.507
101445.767
101446.214
101446.696
101447.374
101448.282
101449.349
101450.397
101451.635
101453.15
101454.808
101456.332
101458.008
101459.965
101462.063
101463.803
101465.698
101467.793
101469.752
101471.697
101473.448
101475.269
101477.321
101479.508
101481.355
101483.311
101485.379
101487.49
101489.026
101490.657
101492.351
101493.807
101495.232
101496.413
101497.433
101498.526
101499.523
101499.991
101500.822
101501.668
101502.428
101503.117
101503.778
101504.459
101504.974
101505.588
101506.152
101506.66
101507.275
101507.492
101508.944
101508.898
101510.693
101511.076
101511.943
101513.218
101514.802
101515.788
101517.183
101519.019
101520.723
101522.27
101523.834
101525.164
101526.054
101526.804
101526.235
101525.4
101523.953
101521.554
101518.316
101513.496
101507.53
101500.211
101490.592
101476.216
101465.373
101449.21
101429.093
101404.917
101375.927
101341.712
101301.683
101255.667
101203.533
101143.625
101075.208
100997.522
100912.295
100814.878
100702.047
100563.819
100454.373
100321.468
100171.363
99999.9511
99801.6546
99657.0141
99496.1657
99332.448
99172.9014
99019.7374
98882.555
98781.6679
98702.2274
98639.4198
98594.0707
98551.254
98489.6914
98468.1346
98470.8203
98483.9765
98512.5033
98555.7423
98602.9478
98656.7247
98712.8276
98777.8519
98853.8708
98928.3191
99007.2282
99087.9181
99171.7358
99250.9856
99329.0272
99404.5427
99478.489
99546.5259
99612.2949
99676.8931
99743.0805
99811.2957
99878.0876
99945.4803
100012.988
100081.175
100149.22
100217.148
100288.199
100362.278
100437.263
100509.773
100580.666
100652.349
100724.423
100796.302
100865.95
100934.331
101003.329
101072.535
101141.179
101208.485
101277.619
101347.783
101418.66
101497.189
101555.111
101612.187
101666.977
101715.34
101759.774
101800.452
101838.627
101872.485
101901.327
101925.353
101946.087
101965.716
101983.398
101999.503
102015.174
102032.047
102048.523
102063.512
102076.778
102088.511
102099.946
102109.949
102118.644
102127.035
102136.296
102145.586
102154.274
102162.185
102169.761
102176.053
102181.002
102185.13
102188.329
102191.203
102193.378
102194.986
102196.849
102199.181
102201.614
102203.991
102207.339
102211.475
102216.649
102222.269
102228.204
102235.803
102245.256
102255.982
102267.555
102281.684
102298.402
102317.752
102338.248
102359.089
102382.261
102407.34
102432.869
102457.233
102483.138
102509.744
102536.14
102560.571
102586.015
102611.209
102635.57
102656.992
102678.452
102698.574
102717.82
102734.926
102748.219
102760.01
102768.757
102775.692
102779.909
102779.634
102775.933
102767.94
102757.084
102741.114
102720.111
102692.452
102660.621
102625.04
102583.964
102535.822
102480.28
102420.727
102358.867
102293.174
102219.877
102141.734
102059.941
101975.008
101881.579
101781.45
101677.49
101568.886
101458.289
101339.098
101212.905
101081.816
100956.621
100833.344
100707.266
100580.144
100451.178
100324.316
100197.514
100071.262
99944.6176
99818.8234
99697.5384
99588.3794
99491.694
99405.1385
99332.3919
99271.7398
99222.9437
99183.362
99152.0237
99126.1756
99108.7889
99097.4379
99089.6735
99087.6343
99092.5354
99098.238
99106.6502
99113.9541
99120.9761
99127.696
99128.0796
99121.9826
99106.2354
99126.5834
)
;

boundaryField
{
    closed
    {
        type            zeroGradient;
    }
    open
    {
        type            waveTransmissive;
        gamma           1.25;
        fieldInf        101325;
        lInf            1;
        value           nonuniform List<scalar> 0();
    }
    sides
    {
        type            empty;
    }
    procBoundary0to1
    {
        type            processor;
        value           uniform 99142.7327;
    }
}


// ************************************************************************* //
