/*--------------------------------*- C++ -*----------------------------------*\
| =========                 |                                                 |
| \\      /  F ield         | OpenFOAM: The Open Source CFD Toolbox           |
|  \\    /   O peration     | Version:  2306                                  |
|   \\  /    A nd           | Website:  www.openfoam.com                      |
|    \\/     M anipulation  |                                                 |
\*---------------------------------------------------------------------------*/
FoamFile
{
    version     2.0;
    format      ascii;
    arch        "LSB;label=32;scalar=64";
    class       volScalarField;
    location    "0.0009";
    object      prefDh_H2O;
}
// * * * * * * * * * * * * * * * * * * * * * * * * * * * * * * * * * * * * * //

dimensions      [1 1 -3 0 0 0 0];

internalField   nonuniform List<scalar> 
530
(
90.7175817
89.8464939
89.8178232
89.8194413
89.8195729
89.8195747
89.8195748
89.8195748
89.8195748
89.8195748
89.8195748
89.8195748
89.8195748
89.8195748
89.8195748
89.8195748
89.8195748
89.8195748
89.8195748
89.8195748
89.8195748
89.8195748
89.8195748
89.8195748
89.8195748
89.8195748
89.8195748
89.8195748
89.8195748
89.8195748
89.8195748
89.8195748
89.8195748
89.8195748
89.8195748
89.8195748
89.8195748
89.8195748
89.8195748
89.8195748
89.8195748
89.8195748
89.8195748
89.8195748
89.8195748
89.8195748
89.8195748
89.8195748
89.8195748
89.8195748
89.8195748
89.8195748
89.8195748
89.8195748
89.8195748
89.8195748
89.8195748
89.8195748
89.8195748
89.8195748
89.8195748
89.8195748
89.8195748
89.8195748
89.8195748
89.8195748
89.8195748
89.8195748
89.8195748
89.8195748
89.8195747
89.8195746
89.8195743
89.819574
89.8195737
89.8195694
89.8195536
89.8195594
89.8196077
89.8195148
89.8192266
89.8192456
89.8194422
89.8198506
89.8217962
89.8216707
89.7980937
89.7618696
89.7977575
90.0656838
90.1119237
89.4527638
88.4546698
88.5097113
90.369703
92.3822149
93.0433775
88.2623789
88.0189133
88.0992132
88.287256
91.4530044
92.3660462
92.5801967
92.4377705
91.9509448
87.8826167
87.8326313
88.0239377
88.1024869
89.3111655
92.3716025
92.2516865
92.698917
88.0449405
87.9351366
88.1619623
89.4998419
92.3968498
92.2531578
93.1092058
88.0713022
87.938776
88.0801416
89.166932
92.3362056
92.8050237
88.2000204
88.5712932
92.3836737
92.7582119
87.8501314
87.7565629
89.0294301
92.4621606
92.9030027
88.1181754
88.4579959
92.3978715
93.104056
88.0521092
88.4546297
92.416568
92.8827264
88.0218513
88.4424343
92.4278858
92.8026743
88.008159
88.4346859
92.4328866
92.7596002
88.0011273
88.4397759
92.4379775
92.6110528
87.985341
88.3686197
92.4516997
92.8311024
87.7756303
87.6631276
88.7469653
92.5061203
92.8983617
88.0343702
88.3304983
92.4381761
92.7073943
87.8154931
87.6688845
88.6948722
92.4954376
92.7231766
88.0534335
88.3086656
92.4145465
92.8621062
88.0127588
88.3016546
92.4187621
92.8660878
87.9923886
88.278523
92.4291812
92.8520311
87.9838488
88.2694359
92.4390917
92.899509
87.9716473
88.2236979
92.4548354
92.563095
87.8679471
87.6541398
88.4697083
92.511254
92.5284376
88.085222
88.2108157
92.4258197
92.6006861
88.0219879
88.1887844
92.4378768
92.4923868
87.9251564
87.6683957
88.4300916
92.5077844
92.4849619
88.0811606
88.1562454
92.4540127
92.4756672
87.9572797
87.6677225
88.3754989
92.5105275
92.4456542
88.1025115
88.1485996
92.4701861
92.5148045
88.0385718
88.1366023
92.4690151
92.5357095
88.0089234
88.1236953
92.4693118
92.5542541
87.9832654
88.088938
92.4759852
92.4763337
87.9591355
87.6400526
88.253161
92.5266246
92.4131965
88.1072807
88.1028421
92.5080702
92.4844025
88.0343424
88.085832
92.5003758
92.5053567
88.0039235
88.0533524
92.500518
92.4395215
88.0494811
87.6720785
88.2353019
92.4936278
92.3174463
88.211978
88.126915
92.5104228
92.3680419
88.1487921
88.1118109
92.5074506
92.3704547
88.1454518
87.7600111
88.3574641
92.4626819
92.2543266
88.275287
88.1389282
92.5369906
92.3355228
88.09538
87.8224979
88.0543339
88.0225391
88.6419782
92.3875844
92.2554564
88.4115253
87.8705748
88.6307302
92.4134893
92.1946756
88.5114049
88.2104646
92.5334347
92.2640804
88.2558983
88.1481508
92.5896433
92.3574529
88.0516665
87.764068
87.9932545
87.9478008
88.2980346
92.7200492
92.2453338
92.7627582
88.0112447
88.0009009
92.8978336
92.2535073
92.2661982
88.2150699
88.2074929
92.5789583
92.3268363
88.1902196
87.7454671
88.2482666
92.5285249
92.270451
88.3251079
87.7813765
88.2729047
92.5343931
92.2138192
88.4050409
88.1215375
92.789852
92.3153146
88.3821771
87.7927627
88.2123774
92.6699718
92.2626335
88.7247173
87.8608982
88.2187985
92.8084285
92.2829413
89.1113403
87.9029914
88.1257644
92.8436451
92.2954408
89.3590052
88.0137901
87.9843395
88.0355937
92.068142
92.4019339
90.3354838
88.013058
87.9763805
91.149555
92.5104497
90.8432985
88.0729869
87.968335
90.3440316
92.6147778
91.0798922
88.4486326
89.6398091
92.8848601
91.1667155
88.3633723
89.3161984
93.0168234
91.7034154
88.1431332
87.8891384
89.1232179
92.9703686
92.1695138
88.3152684
87.9447019
88.9791777
92.9976022
92.1268727
88.5684234
88.8818559
92.8087925
92.4434905
88.4191352
87.9376781
88.7176812
92.9603097
92.4381479
88.6041668
88.7631568
92.8173462
92.6583425
88.4349693
87.9182873
88.5463564
92.9476141
92.852212
88.4843736
87.9320146
88.5545621
93.0008971
92.8919982
88.4600221
87.9343463
88.6121313
92.992589
92.4935162
88.5034137
88.7833328
92.9963699
92.217997
88.3395662
88.6960928
93.0129739
92.5501484
88.1880297
87.8502303
88.6748597
92.9168907
92.1625079
88.3729591
88.9128028
92.8759751
91.8295902
88.2963466
88.8954376
92.892425
92.2739851
88.0973883
87.8561168
89.0026878
92.860305
91.631416
88.3227259
89.1509157
92.8082492
92.0805576
88.0303882
87.870302
89.2948989
92.8326276
91.24865
88.3002265
89.3895968
92.7801473
91.773306
87.9371023
87.8842314
89.6172434
92.8416148
90.838642
88.3200532
89.8175136
92.8187536
90.4621018
88.2860529
89.9668346
92.8724011
90.1882429
88.2765128
90.1042802
92.8474371
90.5627621
87.9205045
88.0188992
90.606075
92.8502231
90.540318
87.9893741
88.1158563
91.1009601
92.9762949
89.7201469
88.4771889
91.0386686
92.9623933
89.5930705
87.9470858
88.1580192
91.5724701
92.9807795
89.625294
88.03839
88.2682748
92.0710815
93.021314
89.2957718
88.6380981
91.8006913
93.0369943
89.1249067
88.0050212
88.31458
92.3416132
92.9884101
89.2028287
87.9805728
88.2431756
92.3616518
93.0292673
89.0320003
88.1595093
89.1632161
92.5525317
92.3622017
92.6276411
90.4721902
88.095244
88.0615514
88.0787227
88.0772874
88.2090369
91.8473723
92.8491054
90.2243538
88.2524199
88.315542
92.7146624
92.6794771
90.8001762
88.1709329
88.1258443
90.7473639
92.9374487
91.135687
88.1897564
88.084801
90.090443
93.0249909
91.6520594
88.3136306
88.1553183
)
;

boundaryField
{
    closed
    {
        type            calculated;
        value           uniform 120.194116;
    }
    open
    {
        type            calculated;
        value           nonuniform List<scalar> 0();
    }
    sides
    {
        type            empty;
    }
    procBoundary0to1
    {
        type            processor;
        value           uniform 90.0292239;
    }
}


// ************************************************************************* //
