/*--------------------------------*- C++ -*----------------------------------*\
| =========                 |                                                 |
| \\      /  F ield         | OpenFOAM: The Open Source CFD Toolbox           |
|  \\    /   O peration     | Version:  2306                                  |
|   \\  /    A nd           | Website:  www.openfoam.com                      |
|    \\/     M anipulation  |                                                 |
\*---------------------------------------------------------------------------*/
FoamFile
{
    version     2.0;
    format      ascii;
    arch        "LSB;label=32;scalar=64";
    class       volScalarField;
    location    "0.0009";
    object      Z;
}
// * * * * * * * * * * * * * * * * * * * * * * * * * * * * * * * * * * * * * //

dimensions      [0 0 0 0 0 0 0];

internalField   nonuniform List<scalar> 
530
(
0.0145786333
0.014492787
0.0144624884
0.0144617743
0.0144617085
0.014461707
0.0144617069
0.0144617069
0.0144617069
0.0144617069
0.0144617069
0.0144617069
0.0144617069
0.0144617069
0.0144617069
0.0144617069
0.0144617069
0.0144617069
0.0144617069
0.0144617069
0.0144617069
0.0144617069
0.0144617069
0.0144617069
0.0144617069
0.0144617069
0.0144617069
0.0144617069
0.0144617069
0.0144617069
0.0144617069
0.0144617069
0.0144617069
0.0144617069
0.0144617069
0.0144617069
0.0144617069
0.0144617069
0.0144617069
0.0144617069
0.0144617069
0.0144617069
0.0144617069
0.0144617069
0.0144617069
0.0144617069
0.0144617069
0.0144617069
0.0144617069
0.0144617069
0.0144617069
0.0144617069
0.0144617069
0.0144617069
0.0144617069
0.0144617069
0.0144617069
0.0144617069
0.0144617069
0.0144617069
0.0144617069
0.0144617069
0.0144617069
0.0144617069
0.0144617069
0.0144617069
0.0144617069
0.0144617069
0.0144617069
0.0144617069
0.014461707
0.0144617071
0.0144617073
0.0144617079
0.014461709
0.0144617118
0.0144617185
0.0144617266
0.0144617373
0.0144617763
0.0144618614
0.0144619303
0.0144620411
0.0144621149
0.0144620686
0.0144622631
0.0144654887
0.0144702459
0.0144660639
0.0144336407
0.0144284496
0.0145111227
0.0146629325
0.0146528796
0.0144000695
0.0140759532
0.0141460854
0.0146968489
0.0147882895
0.0147466292
0.0146905843
0.0142881402
0.0140767017
0.0141006382
0.0140834154
0.0142447112
0.0148063127
0.0148345146
0.0147580256
0.0147554828
0.0145302241
0.014082375
0.0140666439
0.0141834025
0.0147598957
0.0148112418
0.0147285381
0.0145088193
0.0140855269
0.0140681841
0.0141511832
0.0147579706
0.0148206334
0.014751573
0.0145614861
0.0140728326
0.0141170855
0.0147220143
0.0146596207
0.0140769642
0.0141146269
0.0148233652
0.014868309
0.0145794543
0.0140878604
0.0141254111
0.0147534361
0.0146816798
0.0140790985
0.0141523803
0.0147662767
0.0146822443
0.0140806775
0.0141692126
0.0147759515
0.0146819889
0.0140820224
0.0141753534
0.0147810348
0.0146825675
0.0140827959
0.0141785588
0.0147841059
0.0146811058
0.0140835565
0.0141896284
0.014789036
0.014699163
0.0140843274
0.0141213769
0.0148421682
0.0148992985
0.0146270518
0.0140933172
0.0141264528
0.0147808701
0.0147178966
0.0140841854
0.0141089114
0.0148304968
0.014895552
0.0146351436
0.0140929242
0.0141069795
0.0147738746
0.0147251345
0.0140831106
0.0141245121
0.0147783086
0.0147304615
0.0140830643
0.0141250209
0.014783263
0.0147365804
0.0140841463
0.0141235267
0.0147857024
0.0147399473
0.0140851916
0.0141300792
0.0147878394
0.014750109
0.0140858191
0.0140942394
0.0148102901
0.0148955498
0.0146707545
0.0140952942
0.0140883743
0.0147602262
0.0147481394
0.014085134
0.0140978852
0.0147720697
0.0147553837
0.0140845365
0.0140883876
0.0147915646
0.0148879353
0.0146765659
0.0140950778
0.0140847624
0.0147584683
0.0147555574
0.0140868939
0.0140872627
0.0147807174
0.0148864347
0.0146837813
0.0140952645
0.0140807423
0.0147528876
0.0147554486
0.0140898977
0.0140892326
0.0147660977
0.0147640551
0.0140888773
0.014091339
0.014774453
0.0147697813
0.0140884718
0.0140935155
0.0147809934
0.0147761956
0.014087518
0.0140874167
0.0147773562
0.0148921395
0.0147078678
0.0140957442
0.0140776785
0.0147521418
0.0147615048
0.0140925758
0.0140863247
0.0147677381
0.0147720997
0.0140910061
0.0140885951
0.0147741515
0.0147767133
0.0140893453
0.014083778
0.0147483582
0.0148778831
0.0147035656
0.0140918555
0.0140686448
0.0147204165
0.0147421503
0.0140917361
0.0140748483
0.0147351721
0.0147486968
0.0140897498
0.0140777058
0.0147215159
0.0148499777
0.0146760411
0.0140890667
0.0140626769
0.0147028615
0.0147296448
0.0140928683
0.0140730904
0.0147380806
0.0148261913
0.0147509083
0.0147782216
0.0146303237
0.0140810081
0.0140649055
0.0146660892
0.0148087522
0.0146292534
0.0140843069
0.0140576714
0.0146595068
0.0147035135
0.0140948227
0.0140653637
0.0147063851
0.0147319281
0.0140988006
0.0140758216
0.0147473431
0.0148456226
0.0147686085
0.014810695
0.014692199
0.0141190304
0.0140708003
0.014174669
0.0147776047
0.0147914142
0.0141287438
0.0140709357
0.0142151782
0.014705969
0.0147317348
0.014098824
0.014073915
0.0146954718
0.0148463653
0.0146910661
0.0140951186
0.0140663148
0.0146785349
0.0148316371
0.0146878458
0.0140968968
0.0140591758
0.0146708354
0.0147275047
0.0141227922
0.0140721715
0.0146646783
0.0148320378
0.0146998843
0.0141122298
0.0140661975
0.0146143225
0.0148090593
0.0147044668
0.0141287095
0.0140691868
0.0145572743
0.0148012454
0.0147360963
0.0141643901
0.0140700348
0.0145242101
0.0147540291
0.0147807379
0.0147802382
0.0142312714
0.0140833852
0.0144040383
0.0147612452
0.0147878585
0.0143174941
0.0140947238
0.0143487343
0.0147376623
0.0147887016
0.0144012457
0.0141064268
0.01432428
0.0146594847
0.0144835277
0.0141359022
0.0143156799
0.0146744567
0.0145231719
0.0141514778
0.0142640661
0.0147071715
0.0148150498
0.0145491134
0.0141465846
0.0142213279
0.0146731218
0.014800588
0.0145715251
0.0141495409
0.0142259855
0.0146435031
0.0145893426
0.0141695951
0.0141984772
0.0146590658
0.0148076375
0.0146125296
0.0141565503
0.0141993976
0.0146407748
0.0146111931
0.0141696242
0.0141807147
0.0146565182
0.0148187454
0.014640484
0.0141587395
0.0141644157
0.0146488766
0.0148185286
0.0146393804
0.0141546207
0.0141616568
0.0146555147
0.014819677
0.0146308764
0.0141465171
0.0141955179
0.0146639535
0.014610847
0.0141445292
0.0142199867
0.0146926111
0.0146227801
0.0141451492
0.0141911734
0.0147125992
0.014844322
0.0146199656
0.014136378
0.0142243441
0.0146895959
0.0145897594
0.0141298382
0.0142541359
0.0147101958
0.0145911607
0.0141305123
0.0142146929
0.0147514691
0.014843571
0.0145708329
0.0141297224
0.0142719062
0.0147040808
0.014553972
0.0141211076
0.0142314661
0.0147763947
0.0148381427
0.0145299721
0.0141265506
0.0143079369
0.0147096849
0.0145195409
0.0141178925
0.0142590066
0.0148070945
0.0148299262
0.0144876664
0.0141272235
0.0143485969
0.014701026
0.0144633874
0.0141233334
0.0143881039
0.0147087396
0.0144444823
0.0141291734
0.0144183352
0.0147115179
0.0144284969
0.0141258314
0.0143771734
0.0148132524
0.0147819573
0.014373424
0.0141284841
0.0143795821
0.0147973147
0.014754064
0.014322245
0.0141435628
0.0144754327
0.0146686727
0.0143284508
0.0141394355
0.0144890608
0.014805345
0.0147284259
0.0142768058
0.014143431
0.014485758
0.0147865034
0.0146965199
0.0142316427
0.0141534646
0.0145345723
0.0146428734
0.0142565863
0.014148663
0.0145536142
0.014796058
0.0146853515
0.0142085532
0.0141435988
0.014542541
0.014804035
0.0147000879
0.014208014
0.0141464396
0.0145673455
0.0147503618
0.0145480949
0.0140975527
0.0140787424
0.0141075391
0.0143869166
0.0147574421
0.0147612535
0.0147509548
0.0147598706
0.014724772
0.0142523077
0.0141272409
0.014415125
0.0147269128
0.0146956507
0.0141777898
0.0141098199
0.0143528708
0.0147329285
0.0147603963
0.0143579736
0.0141379876
0.0143188204
0.0147252704
0.0147725725
0.0144300498
0.0141480902
0.0142697874
0.0146899979
0.0147531654
)
;

boundaryField
{
    closed
    {
        type            zeroGradient;
    }
    open
    {
        type            zeroGradient;
    }
    sides
    {
        type            empty;
    }
    procBoundary0to1
    {
        type            processor;
        value           uniform 0.0144374697;
    }
}


// ************************************************************************* //
