/*--------------------------------*- C++ -*----------------------------------*\
| =========                 |                                                 |
| \\      /  F ield         | OpenFOAM: The Open Source CFD Toolbox           |
|  \\    /   O peration     | Version:  2306                                  |
|   \\  /    A nd           | Website:  www.openfoam.com                      |
|    \\/     M anipulation  |                                                 |
\*---------------------------------------------------------------------------*/
FoamFile
{
    version     2.0;
    format      ascii;
    arch        "LSB;label=32;scalar=64";
    class       volScalarField;
    location    "0.00014";
    object      rho;
}
// * * * * * * * * * * * * * * * * * * * * * * * * * * * * * * * * * * * * * //

dimensions      [1 -3 0 0 0 0 0];

internalField   nonuniform List<scalar> 
531
(
0.935751613
0.935698692
0.93568866
0.935707187
0.935706335
0.935688703
0.935678729
0.935678075
0.935675328
0.935668425
0.935662256
0.935658206
0.935654358
0.935649994
0.935645817
0.935642142
0.935638738
0.935635486
0.935632462
0.935629704
0.935627191
0.935624917
0.935622887
0.935621103
0.93561956
0.935618258
0.9356172
0.935616385
0.935615807
0.935615464
0.935615357
0.935615484
0.93561584
0.935616421
0.935617224
0.935618247
0.935619484
0.935620929
0.935622579
0.935624429
0.935626472
0.935628701
0.935631112
0.935633697
0.935636449
0.935639359
0.935642422
0.93564563
0.935648971
0.935652439
0.935656026
0.935659722
0.935663516
0.935667399
0.935671361
0.935675394
0.935679486
0.935683625
0.9356878
0.935692004
0.935696224
0.935700447
0.935704663
0.935708861
0.93571303
0.935717159
0.935721235
0.935725246
0.935729183
0.935733036
0.935736791
0.935740436
0.935743963
0.935747362
0.93575062
0.935753728
0.935756677
0.935759456
0.935762055
0.935764468
0.935766687
0.935768701
0.935770501
0.935772083
0.935773444
0.935774573
0.935775463
0.935776112
0.935776517
0.935776674
0.935776577
0.935776226
0.935775621
0.93577476
0.935773642
0.935772268
0.935770641
0.935768763
0.935766636
0.935764265
0.935761656
0.935758813
0.935755743
0.935752453
0.935748954
0.935745252
0.935741359
0.935737284
0.935733041
0.935728642
0.9357241
0.935719429
0.935714644
0.935709761
0.935704798
0.935699771
0.935694699
0.935689597
0.935684488
0.935679392
0.935674332
0.935669322
0.935664384
0.935659546
0.935654832
0.935650259
0.935645847
0.935641625
0.935637618
0.93563385
0.935630338
0.935627108
0.935624188
0.935621602
0.935619371
0.935617516
0.935616062
0.935615035
0.935614457
0.935614347
0.935614726
0.935615617
0.935617041
0.93561902
0.935621567
0.9356247
0.935628439
0.935632803
0.935637806
0.935643458
0.935649771
0.935656762
0.935664444
0.935672821
0.935681901
0.93569169
0.935702198
0.93571343
0.935725384
0.935738058
0.935751457
0.935765581
0.935780426
0.93579598
0.935812239
0.935829198
0.935846848
0.935865176
0.935884167
0.935903804
0.935924077
0.935944969
0.935966458
0.935988522
0.936011136
0.936034284
0.93605794
0.936082075
0.936106659
0.936131665
0.936157067
0.936182834
0.936208926
0.936235311
0.93626196
0.936288839
0.936315908
0.936343125
0.936370458
0.936397871
0.936425327
0.936452777
0.936480183
0.936507511
0.936534721
0.936561769
0.936588612
0.93661521
0.936641526
0.93666752
0.936693149
0.936718371
0.936743146
0.936767438
0.936791209
0.936814417
0.936837023
0.936858992
0.936880288
0.936900876
0.936920719
0.936939782
0.936958031
0.936975437
0.93699197
0.937007596
0.937022285
0.93703601
0.937048747
0.93706047
0.937071151
0.937080767
0.937089298
0.937096724
0.937103024
0.93710818
0.937112176
0.937114996
0.937116627
0.937117055
0.937116271
0.937114264
0.937111025
0.937106549
0.93710083
0.937093864
0.937085649
0.937076185
0.937065472
0.937053514
0.937040311
0.937025872
0.937010204
0.936993316
0.936975216
0.936955917
0.936935432
0.936913781
0.936890978
0.936867039
0.936841985
0.936815842
0.936788633
0.936760382
0.936731116
0.936700864
0.93666966
0.936637537
0.936604524
0.93657066
0.936535985
0.936500538
0.936464359
0.936427491
0.936389979
0.936351871
0.936313215
0.936274059
0.936234453
0.936194452
0.93615411
0.936113482
0.936072624
0.936031594
0.935990451
0.935949255
0.935908065
0.935866945
0.935825958
0.935785166
0.935744629
0.935704413
0.935664584
0.935625205
0.935586337
0.935548045
0.935510393
0.935473445
0.935437258
0.935401895
0.935367417
0.935333885
0.935301352
0.935269871
0.9352395
0.935210294
0.935182301
0.935155564
0.935130127
0.93510604
0.935083343
0.935062067
0.935042247
0.935023915
0.935007099
0.934991824
0.934978107
0.934965967
0.934955416
0.934946464
0.934939115
0.934933371
0.934929229
0.934926682
0.934925717
0.934926318
0.934928467
0.934932142
0.934937311
0.93494394
0.934951994
0.934961435
0.934972217
0.934984289
0.934997597
0.935012087
0.935027701
0.935044372
0.935062033
0.935080615
0.935100045
0.935120248
0.935141147
0.935162659
0.935184704
0.935207198
0.935230058
0.935253197
0.93527653
0.935299969
0.935323433
0.935346834
0.935370091
0.935393121
0.935415847
0.935438193
0.935460086
0.935481457
0.935502245
0.935522391
0.935541842
0.935560552
0.935578484
0.935595606
0.935611896
0.93562734
0.935641934
0.935655683
0.935668603
0.935680721
0.935692075
0.935702713
0.935712696
0.935722096
0.935730995
0.935739488
0.93574768
0.935755687
0.935763633
0.935771652
0.935779885
0.935788481
0.935797592
0.935807374
0.935817986
0.935829583
0.935842322
0.93585635
0.935871807
0.935888823
0.935907515
0.935927983
0.935950305
0.935974537
0.936000709
0.936028825
0.936058855
0.936090737
0.93612437
0.936159622
0.936196322
0.936234273
0.936273217
0.936312877
0.936352924
0.936393434
0.936433119
0.936471532
0.936510394
0.93655482
0.936582371
0.936568939
0.936602452
0.936900352
0.936915285
0.935915525
0.935780691
0.938753442
0.939794834
0.931558675
0.925831879
0.941984557
0.948931544
0.939290328
0.89753707
0.901956833
0.960997609
0.972560802
0.93508926
0.895394095
0.895465651
0.9039659
0.950176605
0.900278059
0.894813711
0.896960918
0.893779096
0.894505608
0.892602253
0.892065918
0.890283282
0.887066019
0.885086006
0.877193713
0.979134255
0.953383824
0.93697588
0.929244039
0.88392892
0.864572836
0.853923054
0.808899754
0.815259983
0.796605014
0.832327948
0.811035553
0.74132517
0.770306603
0.789934813
0.813453781
0.68205136
0.655954956
0.633194154
0.601863396
0.581198601
0.550140268
0.521366579
0.493900424
0.462413547
0.447886694
0.424093552
0.413260738
0.393509609
0.38622139
0.366571282
0.360525356
0.345735433
0.339125565
0.323541344
0.322079443
0.312180293
0.310009729
0.300459092
0.311448863
0.293950234
0.294458962
0.28728004
0.298880251
0.284949544
0.290137767
0.272747135
0.285192488
0.278051307
0.286588485
0.263298907
0.27456717
0.266192243
0.27540387
0.254813514
0.266361899
0.261110381
0.262823115
0.250336531
0.258073712
0.257626615
0.257878749
0.247830745
0.257474259
0.25399236
0.256482857
0.245109087
0.254258372
0.248710485
0.251171107
0.242639106
0.249175932
0.244070468
0.245933103
0.240207481
0.244256917
0.240687336
0.241195161
0.237629501
0.239501756
0.237710705
0.236862278
0.235163024
0.235567654
0.234917555
0.233747292
0.232666627
0.232504081
0.232263745
0.231579079
0.230145344
0.230026785
0.229677649
0.229200457
0.227639262
0.227578837
0.22710874
)
;

boundaryField
{
    closed
    {
        type            calculated;
        value           nonuniform List<scalar> 0();
    }
    open
    {
        type            calculated;
        value           nonuniform List<scalar> 0();
    }
    sides
    {
        type            empty;
    }
    procBoundary4to3
    {
        type            processor;
        value           uniform 0.935760332;
    }
    procBoundary4to5
    {
        type            processor;
        value           uniform 0.226700741;
    }
}


// ************************************************************************* //
