/*--------------------------------*- C++ -*----------------------------------*\
| =========                 |                                                 |
| \\      /  F ield         | OpenFOAM: The Open Source CFD Toolbox           |
|  \\    /   O peration     | Version:  2306                                  |
|   \\  /    A nd           | Website:  www.openfoam.com                      |
|    \\/     M anipulation  |                                                 |
\*---------------------------------------------------------------------------*/
FoamFile
{
    version     2.0;
    format      ascii;
    arch        "LSB;label=32;scalar=64";
    class       volVectorField;
    location    "0.00108";
    object      U;
}
// * * * * * * * * * * * * * * * * * * * * * * * * * * * * * * * * * * * * * //

dimensions      [0 1 -1 0 0 0 0];

internalField   nonuniform List<vector> 
531
(
(0.414051403 0 0)
(0.404876518 0 0)
(0.39421574 0 0)
(0.390198953 0 0)
(0.396285344 0 0)
(0.403613704 0 0)
(0.404182444 0 0)
(0.398769119 0 0)
(0.39027393 0 0)
(0.385332364 0 0)
(0.382712767 0 0)
(0.38774631 0 0)
(0.399336005 0 0)
(0.400794891 0 0)
(0.390637131 0 0)
(0.385863626 0 0)
(0.393457947 0 0)
(0.395326325 0 0)
(0.386503659 0 0)
(0.384130631 0 0)
(0.392874356 0 0)
(0.395684878 0 0)
(0.386852452 0 0)
(0.377447857 0 0)
(0.374356799 0 0)
(0.383458879 0 0)
(0.390007092 0 0)
(0.382660806 0 0)
(0.38062538 0 0)
(0.388174686 0 0)
(0.390243263 0 0)
(0.381779679 0 0)
(0.37310302 0 0)
(0.378668227 0 0)
(0.38976779 0 0)
(0.389737638 0 0)
(0.383248179 0 0)
(0.377675868 0 0)
(0.376199662 0 0)
(0.380661974 0 0)
(0.385513645 0 0)
(0.382108864 0 0)
(0.37554431 0 0)
(0.372202121 0 0)
(0.370941174 0 0)
(0.376702462 0 0)
(0.387793093 0 0)
(0.389631177 0 0)
(0.381513407 0 0)
(0.373324014 0 0)
(0.373403454 0 0)
(0.382066086 0 0)
(0.389481593 0 0)
(0.386178368 0 0)
(0.376684526 0 0)
(0.369496656 0 0)
(0.369100513 0 0)
(0.382257415 0 0)
(0.391926972 0 0)
(0.383137869 0 0)
(0.380145685 0 0)
(0.389089644 0 0)
(0.39175511 0 0)
(0.383431062 0 0)
(0.382017837 0 0)
(0.391916617 0 0)
(0.394939558 0 0)
(0.38655075 0 0)
(0.384662772 0 0)
(0.39403026 0 0)
(0.396999415 0 0)
(0.388006153 0 0)
(0.385557183 0 0)
(0.395483123 0 0)
(0.397801259 0 0)
(0.389814835 0 0)
(0.391676553 0 0)
(0.405817031 0 0)
(0.412239489 0 0)
(0.402874866 0 0)
(0.391908752 0 0)
(0.398489211 0 0)
(0.413238617 0 0)
(0.414713662 0 0)
(0.405540579 0 0)
(0.394128652 0 0)
(0.389517803 0 0)
(0.400333664 0 0)
(0.413685646 0 0)
(0.414701485 0 0)
(0.411053879 0 0)
(0.407912339 0 0)
(0.408965202 0 0)
(0.411314188 0 0)
(0.411166259 0 0)
(0.407628012 0 0)
(0.402735731 0 0)
(0.411214214 0 0)
(0.419858533 0 0)
(0.413328247 0 0)
(0.413331447 0 0)
(0.423061658 0 0)
(0.425706771 0 0)
(0.417959958 0 0)
(0.418039575 0 0)
(0.429121602 0 0)
(0.432564357 0 0)
(0.4245651 0 0)
(0.423944821 0 0)
(0.434429994 0 0)
(0.437907881 0 0)
(0.429402406 0 0)
(0.427606769 0 0)
(0.437794566 0 0)
(0.439911792 0 0)
(0.432573413 0 0)
(0.43667679 0 0)
(0.45248719 0 0)
(0.458746617 0 0)
(0.448175053 0 0)
(0.436484747 0 0)
(0.442217364 0 0)
(0.45704137 0 0)
(0.458036086 0 0)
(0.447414642 0 0)
(0.435465325 0 0)
(0.440560562 0 0)
(0.452708547 0 0)
(0.454974021 0 0)
(0.46366163 0 0)
(0.468457005 0 0)
(0.464543404 0 0)
(0.469366801 0 0)
(0.47052365 0 0)
(0.46172737 0 0)
(0.458910602 0 0)
(0.466700679 0 0)
(0.469668996 0 0)
(0.466267108 0 0)
(0.462319848 0 0)
(0.469946977 0 0)
(0.486379807 0 0)
(0.486699125 0 0)
(0.47656429 0 0)
(0.466874842 0 0)
(0.473302859 0 0)
(0.489135336 0 0)
(0.489767522 0 0)
(0.480048997 0 0)
(0.478575458 0 0)
(0.488623535 0 0)
(0.490262275 0 0)
(0.479683888 0 0)
(0.470617677 0 0)
(0.46675608 0 0)
(0.479734401 0 0)
(0.489295153 0 0)
(0.480102659 0 0)
(0.479204796 0 0)
(0.488778735 0 0)
(0.489868441 0 0)
(0.480791138 0 0)
(0.475226219 0 0)
(0.471853583 0 0)
(0.478034002 0 0)
(0.492187092 0 0)
(0.492169007 0 0)
(0.482111811 0 0)
(0.48021103 0 0)
(0.489329298 0 0)
(0.489766732 0 0)
(0.478571834 0 0)
(0.469150506 0 0)
(0.464157514 0 0)
(0.476192081 0 0)
(0.485392834 0 0)
(0.47397055 0 0)
(0.463606762 0 0)
(0.469341231 0 0)
(0.484347789 0 0)
(0.483715363 0 0)
(0.47100142 0 0)
(0.459398545 0 0)
(0.464157141 0 0)
(0.479068676 0 0)
(0.478856802 0 0)
(0.466374791 0 0)
(0.453737383 0 0)
(0.447317752 0 0)
(0.458255743 0 0)
(0.469476781 0 0)
(0.466228237 0 0)
(0.458743323 0 0)
(0.451876615 0 0)
(0.449408306 0 0)
(0.445881615 0 0)
(0.437654752 0 0)
(0.441232822 0 0)
(0.453603299 0 0)
(0.45504973 0 0)
(0.453198834 0 0)
(0.450096541 0 0)
(0.446443882 0 0)
(0.439090729 0 0)
(0.433920896 0 0)
(0.430391118 0 0)
(0.424830162 0 0)
(0.434489327 0 0)
(0.442222182 0 0)
(0.430933809 0 0)
(0.420734893 0 0)
(0.415971583 0 0)
(0.426556394 0 0)
(0.43353655 0 0)
(0.422789908 0 0)
(0.413188929 0 0)
(0.40855302 0 0)
(0.418721822 0 0)
(0.425410617 0 0)
(0.414985073 0 0)
(0.405777571 0 0)
(0.401382231 0 0)
(0.4105953 0 0)
(0.41567819 0 0)
(0.405716586 0 0)
(0.402955453 0 0)
(0.409397038 0 0)
(0.40768106 0 0)
(0.396255029 0 0)
(0.386771931 0 0)
(0.390763575 0 0)
(0.401660448 0 0)
(0.399409464 0 0)
(0.388549516 0 0)
(0.379193532 0 0)
(0.383762025 0 0)
(0.394833336 0 0)
(0.392600971 0 0)
(0.383180067 0 0)
(0.375974066 0 0)
(0.371431617 0 0)
(0.366739318 0 0)
(0.373994546 0 0)
(0.377989092 0 0)
(0.366637595 0 0)
(0.362492374 0 0)
(0.368177481 0 0)
(0.371175515 0 0)
(0.370018356 0 0)
(0.367771841 0 0)
(0.362154371 0 0)
(0.352115973 0 0)
(0.345634279 0 0)
(0.343306945 0 0)
(0.347592126 0 0)
(0.357996083 0 0)
(0.357553982 0 0)
(0.345572271 0 0)
(0.333645358 0 0)
(0.329957058 0 0)
(0.337793813 0 0)
(0.340030592 0 0)
(0.329795994 0 0)
(0.325873236 0 0)
(0.331080176 0 0)
(0.333692646 0 0)
(0.328611338 0 0)
(0.318299967 0 0)
(0.309634283 0 0)
(0.306294297 0 0)
(0.313209475 0 0)
(0.317004591 0 0)
(0.307146615 0 0)
(0.297444431 0 0)
(0.295737396 0 0)
(0.302670946 0 0)
(0.307076219 0 0)
(0.301539731 0 0)
(0.292569607 0 0)
(0.286311661 0 0)
(0.281765197 0 0)
(0.275633552 0 0)
(0.276579366 0 0)
(0.282265768 0 0)
(0.283226969 0 0)
(0.281848002 0 0)
(0.276645608 0 0)
(0.267931946 0 0)
(0.260439789 0 0)
(0.25748405 0 0)
(0.263487837 0 0)
(0.267780868 0 0)
(0.258776507 0 0)
(0.249189384 0 0)
(0.24785783 0 0)
(0.253550697 0 0)
(0.25754432 0 0)
(0.252817485 0 0)
(0.244139357 0 0)
(0.23638442 0 0)
(0.235084923 0 0)
(0.239994641 0 0)
(0.244030498 0 0)
(0.239492039 0 0)
(0.232319678 0 0)
(0.225155991 0 0)
(0.22118718 0 0)
(0.224499334 0 0)
(0.229683777 0 0)
(0.229034231 0 0)
(0.222450225 0 0)
(0.214117746 0 0)
(0.208296366 0 0)
(0.209861769 0 0)
(0.214138778 0 0)
(0.216309627 0 0)
(0.215689068 0 0)
(0.211398113 0 0)
(0.20501203 0 0)
(0.198783598 0 0)
(0.196066418 0 0)
(0.199379391 0 0)
(0.204765052 0 0)
(0.20622884 0 0)
(0.198913109 0 0)
(0.189973991 0 0)
(0.188419509 0 0)
(0.192817457 0 0)
(0.197824044 0 0)
(0.197473574 0 0)
(0.193357537 0 0)
(0.18791324 0 0)
(0.182688975 0 0)
(0.180407166 0 0)
(0.180283547 0 0)
(0.184538047 0 0)
(0.187830723 0 0)
(0.178156071 0 0)
(0.17032266 0 0)
(0.17209745 0 0)
(0.175308345 0 0)
(0.172500304 0 0)
(0.166850167 0 0)
(0.161988922 0 0)
(0.163595209 0 0)
(0.169184327 0 0)
(0.1724784 0 0)
(0.167065813 0 0)
(0.1597788 0 0)
(0.159083249 0 0)
(0.16322126 0 0)
(0.16842929 0 0)
(0.169136425 0 0)
(0.165067203 0 0)
(0.16022298 0 0)
(0.157844549 0 0)
(0.156717875 0 0)
(0.155739191 0 0)
(0.154625692 0 0)
(0.155960816 0 0)
(0.160441179 0 0)
(0.161732778 0 0)
(0.158437866 0 0)
(0.152860216 0 0)
(0.149258141 0 0)
(0.151723456 0 0)
(0.157321423 0 0)
(0.161937101 0 0)
(0.160359831 0 0)
(0.156316987 0 0)
(0.152268543 0 0)
(0.152100677 0 0)
(0.155948182 0 0)
(0.157100261 0 0)
(0.14464982 0 0)
(0.133516985 0 0)
(0.136423389 0 0)
(0.144020529 0 0)
(0.15564862 0 0)
(0.163693712 0 0)
(0.156667642 0 0)
(0.159405623 0 0)
(0.168228598 0 0)
(0.164054514 0 0)
(0.153703544 0 0)
(0.148451313 0 0)
(0.154735608 0 0)
(0.163972814 0 0)
(0.166408037 0 0)
(0.166935341 0 0)
(0.167714609 0 0)
(0.168801667 0 0)
(0.170138048 0 0)
(0.171534924 0 0)
(0.173158238 0 0)
(0.174949053 0 0)
(0.176895571 0 0)
(0.178894392 0 0)
(0.180919969 0 0)
(0.18293718 0 0)
(0.184961356 0 0)
(0.18706887 0 0)
(0.189566332 0 0)
(0.193518167 0 0)
(0.198987978 0 0)
(0.200767632 0 0)
(0.198277178 0 0)
(0.194987717 0 0)
(0.192179153 0 0)
(0.190176739 0 0)
(0.188755075 0 0)
(0.187833534 0 0)
(0.187083469 0 0)
(0.185930603 0 0)
(0.184715347 0 0)
(0.184576331 0 0)
(0.184111278 0 0)
(0.182809304 0 0)
(0.181582637 0 0)
(0.181140625 0 0)
(0.181371225 0 0)
(0.181879618 0 0)
(0.180151269 0 0)
(0.176543181 0 0)
(0.171519693 0 0)
(0.166414122 0 0)
(0.161974919 0 0)
(0.161987239 0 0)
(0.158783569 0 0)
(0.151332029 0 0)
(0.140381422 0 0)
(0.128497723 0 0)
(0.11501456 0 0)
(0.0999215145 0 0)
(0.0818153624 0 0)
(0.0596907925 0 0)
(0.0303830114 0 0)
(-0.00255085038 0 0)
(-0.0436768462 0 0)
(-0.0972269484 0 0)
(-0.17156941 0 0)
(-0.272225138 0 0)
(-0.198005173 0 0)
(0.643560217 0 0)
(1.64491117 0 0)
(1.26795439 0 0)
(0.20526157 0 0)
(-0.273890733 0 0)
(-0.223394279 0 0)
(-0.116634823 0 0)
(-0.024416317 0 0)
(0.0554684817 0 0)
(0.122670981 0 0)
(0.182096078 0 0)
(0.232309556 0 0)
(0.277703194 0 0)
(0.316308313 0 0)
(0.350346812 0 0)
(0.381477487 0 0)
(0.411542109 0 0)
(0.439553012 0 0)
(0.465703638 0 0)
(0.489676874 0 0)
(0.514006252 0 0)
(0.544882754 0 0)
(0.567576354 0 0)
(0.506258515 0 0)
(0.535267738 0 0)
(0.821452962 0 0)
(0.836123538 0 0)
(0.304641086 0 0)
(0.308331966 0 0)
(0.880575843 0 0)
(0.947251739 0 0)
(0.490138675 0 0)
(0.385011513 0 0)
(0.580769342 0 0)
(0.606497454 0 0)
(0.676697998 0 0)
(0.708833205 0 0)
(0.552575696 0 0)
(0.554913767 0 0)
(0.763378603 0 0)
(0.839165683 0 0)
(0.786488106 0 0)
(0.759274508 0 0)
(0.686161393 0 0)
(0.659547864 0 0)
(0.912462863 0 0)
(1.03576544 0 0)
(0.550286167 0 0)
(0.317216152 0 0)
(0.722536149 0 0)
(0.929248809 0 0)
(0.758809851 0 0)
(0.689591381 0 0)
(0.84271688 0 0)
(0.902542624 0 0)
(0.838775258 0 0)
(0.620996951 0 0)
(0.683351754 0 0)
(1.04980741 0 0)
(1.04794769 0 0)
(0.802679762 0 0)
(0.778968825 0 0)
(0.930875225 0 0)
(0.934000259 0 0)
(0.853480577 0 0)
(0.825848371 0 0)
(0.903189733 0 0)
(0.947933703 0 0)
(0.866631383 0 0)
(0.796519325 0 0)
(0.874656878 0 0)
(0.970530561 0 0)
(0.897917904 0 0)
(0.784688376 0 0)
(0.846899778 0 0)
(0.964713428 0 0)
(0.927253074 0 0)
(0.823360906 0 0)
(0.864219993 0 0)
(0.968571472 0 0)
(0.939872884 0 0)
(0.831854737 0 0)
(0.85624536 0 0)
(0.968118292 0 0)
(0.953325094 0 0)
(0.839978271 0 0)
(0.848212689 0 0)
(0.960569096 0 0)
)
;

boundaryField
{
    closed
    {
        type            noSlip;
    }
    open
    {
        type            inletOutlet;
        inletValue      nonuniform List<vector> 0();
        value           nonuniform List<vector> 0();
    }
    sides
    {
        type            empty;
    }
    procBoundary4to3
    {
        type            processor;
        value           uniform (0.406251063 0 0);
    }
    procBoundary4to5
    {
        type            processor;
        value           uniform (0.965599314 0 0);
    }
}


// ************************************************************************* //
