/*--------------------------------*- C++ -*----------------------------------*\
| =========                 |                                                 |
| \\      /  F ield         | OpenFOAM: The Open Source CFD Toolbox           |
|  \\    /   O peration     | Version:  2306                                  |
|   \\  /    A nd           | Website:  www.openfoam.com                      |
|    \\/     M anipulation  |                                                 |
\*---------------------------------------------------------------------------*/
FoamFile
{
    version     2.0;
    format      ascii;
    arch        "LSB;label=32;scalar=64";
    class       volScalarField;
    location    "0.00138";
    object      prefDh_H2;
}
// * * * * * * * * * * * * * * * * * * * * * * * * * * * * * * * * * * * * * //

dimensions      [1 1 -3 0 0 0 0];

internalField   nonuniform List<scalar> 
530
(
2966.15127
2974.52136
3016.45963
3015.63311
2984.35106
2991.396
3033.35724
3031.78289
3001.07892
3007.31115
3047.02872
3044.86131
3015.11056
3022.74579
3058.3039
3058.3141
3028.34836
3036.39771
3071.09753
3070.88251
3042.64041
3048.33599
3083.59319
3083.32171
3056.70667
3060.11624
3096.44224
3095.23657
3069.73959
3073.0128
3109.13783
3107.40089
3082.17105
3085.33434
3120.703
3119.41465
3094.13208
3097.56105
3131.49209
3131.34706
3106.03638
3109.23677
3141.22779
3142.75532
3117.83395
3120.54013
3151.74161
3153.90389
3129.70384
3131.51046
3162.77396
3164.37182
3140.03178
3142.30778
3173.72765
3173.67558
3149.6294
3151.64826
3182.29016
3182.43206
3158.8809
3160.55989
3190.81392
3190.93325
3168.05908
3169.54236
3199.48924
3199.42428
3177.10406
3178.88652
3208.47286
3208.05533
3185.78647
3188.0982
3216.96743
3216.75872
3194.48878
3197.33883
3225.50577
3225.32813
3202.92892
3206.41891
3234.42351
3234.28396
3212.27973
3215.48885
3243.71913
3243.53417
3222.03047
3225.49116
3253.2794
3252.96647
3231.94658
3235.31802
3262.88239
3262.4044
3241.92571
3245.08907
3272.40119
3271.86152
3252.07023
3254.86695
3281.92223
3281.46864
3262.02128
3264.81902
3291.53275
3291.23135
3272.07904
3274.50984
3300.85862
3301.0053
3282.1246
3284.52197
3310.60594
3310.92646
3292.36333
3294.76199
3320.5764
3321.08971
3302.74454
3305.20438
3330.66696
3331.39776
3313.21329
3315.74775
3340.86452
3341.74116
3323.78308
3326.41787
3351.21588
3352.25089
3334.46173
3337.22098
3361.75074
3362.93591
3345.26592
3348.15282
3372.3867
3373.76384
3356.13349
3359.23177
3383.59083
3384.80967
3367.40157
3370.38366
3395.2539
3396.36492
3379.35521
3382.33308
3407.08872
3408.14688
3391.38134
3394.40333
3419.03037
3420.07307
3403.55019
3406.54313
3431.19389
3432.20581
3415.89791
3418.78081
3443.63357
3444.45986
3428.34924
3431.01543
3456.13869
3456.69597
3440.89122
3443.49391
3468.69235
3468.96925
3453.62681
3455.54701
3479.85442
3480.49007
3464.98373
3467.09019
3490.76702
3491.42429
3476.17092
3478.17366
3501.50027
3502.2328
3487.33038
3489.33162
3512.19962
3513.03762
3498.33355
3500.52485
3522.70994
3523.82736
3509.0912
3511.73723
3532.89943
3534.65136
3519.55545
3522.94258
3542.7757
3545.28721
3529.76584
3534.0039
3552.53581
3555.66245
3539.89142
3544.83154
3562.57156
3566.00624
3550.43431
3555.4588
3572.77355
3576.44865
3561.14637
3566.38734
3583.084
3586.85224
3571.77379
3577.10391
3593.40971
3597.13017
3582.31451
3587.59978
3603.75657
3607.29849
3592.74916
3597.89315
3614.07442
3617.32169
3603.04535
3607.99201
3624.14006
3627.17965
3613.13284
3617.85377
3633.86105
3636.7584
3622.97561
3627.32432
3643.29256
3646.00414
3632.52018
3636.61735
3652.38396
3654.7167
3641.67317
3645.53484
3661.27276
3663.76502
3650.81166
3654.65357
3669.99278
3672.48798
3659.68765
3663.52937
3678.57974
3680.92874
3668.43827
3672.1952
3687.27918
3689.63483
3677.25913
3680.81741
3695.86437
3697.67835
3685.59018
3689.29374
3703.9197
3705.55554
3693.4513
3697.52492
3711.53677
3713.15988
3700.98483
3705.4541
3718.82369
3720.47363
3708.39007
3712.96503
3725.84331
3727.44187
3715.75722
3720.09718
3732.73372
3734.09356
3723.03704
3726.81747
3739.53811
3740.49877
3730.29038
3733.34099
3746.10534
3746.83838
3737.1164
3739.83425
3752.34358
3752.86932
3743.53746
3746.27697
3758.29821
3758.67885
3749.71927
3752.58006
3764.08332
3764.33722
3755.57661
3758.97233
3769.70032
3769.7542
3760.93928
3764.94883
3774.7244
3774.94104
3766.29675
3770.26902
3779.36309
3779.84361
3771.54303
3775.45171
3783.96166
3784.51061
3776.71792
3780.36085
3788.40972
3788.9246
3781.66139
3784.98788
3792.66311
3793.14916
3786.46692
3789.49498
3796.74092
3797.20061
3790.92085
3793.85935
3800.60312
3801.07503
3795.16415
3797.99498
3804.27441
3804.75787
3799.20843
3801.93093
3807.7625
3808.24577
3803.04253
3805.65682
3811.06465
3811.53739
3806.66391
3809.15847
3814.18613
3814.63485
3810.10811
3812.43465
3817.12916
3817.54768
3813.35411
3815.51224
3819.90274
3820.29141
3816.39469
3818.40795
3822.49685
3822.86977
3819.2308
3821.13712
3824.91544
3825.29002
3821.86266
3823.71048
3827.16686
3827.55412
3824.3032
3826.11086
3829.2666
3829.66047
3826.59515
3828.32586
3831.23007
3831.61295
3828.75184
3830.36978
3833.06605
3833.41808
3830.77634
3832.24883
3834.78269
3835.08047
3832.6871
3833.95941
3836.39196
3836.60986
3834.507
3835.51275
3837.8892
3838.02491
3836.19422
3836.97915
3839.26003
3839.3466
3837.69999
3838.38335
3840.50568
3840.57345
3839.05133
3839.67905
3841.63352
3841.69829
3840.27662
3840.86896
3842.66517
3842.72691
3841.39986
3841.9553
3843.60716
3843.67049
3842.42888
3842.96005
3844.47274
3844.54031
3843.3772
3843.8845
3845.26412
3845.33465
3844.24606
3844.72858
3845.98628
3846.05774
3845.04215
3845.49689
3846.64485
3846.71454
3845.77174
3846.19458
3847.24489
3847.30998
3846.44034
3846.827
3847.79138
3847.84954
3847.05332
3847.40048
3848.29012
3848.34042
3847.61566
3847.92438
3848.76985
3848.81403
3848.17998
3848.44529
3849.32824
3849.35381
3848.76028
3849.03061
3849.76445
3849.92356
3849.62536
3849.82741
3849.92877
3850.12539
3850.13714
3850.3267
3850.37021
3850.55353
3850.60519
3850.79181
3850.84241
3851.02848
3851.07706
3851.25694
3851.3035
3851.47063
3851.51529
3851.663
3851.70589
3851.82828
3851.86929
3851.96254
3852.00079
3852.0645
3852.09806
3852.13582
3852.16228
3852.18073
3852.19861
3852.20535
3852.21531
3852.21676
3852.22158
3852.22186
3852.22295
3852.21102
3852.20243
3852.19596
3852.19166
3852.18881
3852.18726
3852.18642
3852.18602
3852.18583
3852.18575
3852.18572
3852.18571
3852.18571
3852.18571
3852.18571
3852.18571
3852.18571
3852.18571
3852.18571
3852.18571
3852.18571
3852.18571
3852.18571
3852.18571
3852.18571
3852.18571
3852.18571
3852.18571
3852.18571
3852.18571
3852.18571
3852.18571
3852.18571
3852.18571
3852.18571
3852.18571
3852.18571
3852.18571
3852.18571
)
;

boundaryField
{
    closed
    {
        type            calculated;
        value           nonuniform List<scalar> 0();
    }
    open
    {
        type            calculated;
        value           uniform 3852.18571;
    }
    sides
    {
        type            empty;
    }
    procBoundary5to4
    {
        type            processor;
        value           uniform 2998.26566;
    }
}


// ************************************************************************* //
