/*--------------------------------*- C++ -*----------------------------------*\
| =========                 |                                                 |
| \\      /  F ield         | OpenFOAM: The Open Source CFD Toolbox           |
|  \\    /   O peration     | Version:  2306                                  |
|   \\  /    A nd           | Website:  www.openfoam.com                      |
|    \\/     M anipulation  |                                                 |
\*---------------------------------------------------------------------------*/
FoamFile
{
    version     2.0;
    format      ascii;
    arch        "LSB;label=32;scalar=64";
    class       volScalarField;
    location    "0.0012";
    object      H2O;
}
// * * * * * * * * * * * * * * * * * * * * * * * * * * * * * * * * * * * * * //

dimensions      [0 0 0 0 0 0 0];

internalField   nonuniform List<scalar> 
530
(
0.00352290493
0.00458039405
0.00451532032
0.00450785672
0.00450715305
0.00450713647
0.00450713546
0.00450713543
0.00450713542
0.00450713542
0.00450713542
0.00450713542
0.00450713542
0.00450713542
0.00450713542
0.00450713542
0.00450713542
0.00450713542
0.00450713542
0.00450713542
0.00450713542
0.00450713542
0.00450713542
0.00450713542
0.00450713542
0.00450713542
0.00450713542
0.00450713542
0.00450713542
0.00450713542
0.00450713542
0.00450713542
0.00450713542
0.00450713542
0.00450713542
0.00450713542
0.00450713542
0.00450713542
0.00450713542
0.00450713542
0.00450713542
0.00450713542
0.00450713542
0.00450713542
0.00450713542
0.00450713542
0.00450713542
0.00450713542
0.00450713542
0.00450713542
0.00450713542
0.00450713542
0.00450713542
0.00450713542
0.00450713542
0.00450713542
0.00450713542
0.00450713542
0.00450713542
0.00450713542
0.00450713543
0.00450713543
0.00450713543
0.00450713544
0.00450713547
0.00450713559
0.00450713587
0.00450713662
0.0045071385
0.00450714149
0.00450714866
0.0045071624
0.00450719779
0.00450726977
0.00450728942
0.00450733682
0.00450792052
0.00450856849
0.00450807733
0.00450743204
0.00451047119
0.00451740852
0.00452658194
0.00451232476
0.00441678846
0.00441334482
0.00466134971
0.00580682393
0.00593190839
0.00255120276
0.000848294993
0.00355037775
0.00666706075
0.0067008229
0.00678742062
0.00670205462
0.00198083674
0.000990848693
0.00105207608
0.00094369056
0.00654297283
0.0071583027
0.00689826086
0.00743267589
0.00674847438
0.000919571736
0.00103708391
0.000938069005
0.000960438654
0.00101171858
0.00151279612
0.00700909037
0.00731414342
0.00701195476
0.0069176141
0.00714134128
0.00564734637
0.000993450853
0.00114535972
0.000996001599
0.00639881987
0.00716775209
0.00715631822
0.00574189944
0.00098829768
0.00114743116
0.000999059205
0.00636086999
0.00714829337
0.00706790474
0.00626078473
0.00106606579
0.00109389137
0.00652426143
0.00656840552
0.00106301381
0.00105598413
0.00662718102
0.00748449374
0.00656816105
0.00103648891
0.00108961431
0.00657705828
0.0061278429
0.00105981517
0.00279154045
0.00694255827
0.00372845929
0.00104424418
0.00595922237
0.00697232543
0.000692176576
0.00107182072
0.00471861423
0.00701385101
0.00639907374
0.00106653001
0.00110781283
0.00630656821
0.0064381096
0.00106762645
0.00109222446
0.00632201201
0.00692684279
0.00668025004
0.00675007282
0.00663767344
0.00681328381
0.00539965414
0.00109341186
0.00110981696
0.0064911879
0.00665111234
0.0010470367
0.00105366029
0.00666801501
0.00752772044
0.00666427167
0.00103479536
0.00111094656
0.00570077971
0.00563520195
0.00421285643
0.00623192461
0.00633762498
0.0010514813
0.00108799565
0.00682878109
0.00696342729
0.00101406299
0.00106021317
0.00688781493
0.00697091961
0.00104258187
0.00104935469
0.00638575725
0.00738439484
0.00652489739
0.00102901981
0.00107554818
0.00682270076
0.00749307318
0.00318118629
0.000914923846
0.00659746984
0.00702574273
0.00105898439
0.00106098339
0.00625133339
0.0073435534
0.00652697326
0.00101931017
0.00108266132
0.00722351476
0.00737383376
0.000905213398
0.00101439468
0.00626001007
0.00747376077
0.0065823296
0.00102001085
0.00107927182
0.00706539675
0.00741735629
0.00115322997
0.00101377303
0.0069031395
0.00710004081
0.00101736174
0.00106232952
0.00693851039
0.00701760744
0.00102616894
0.00107081133
0.00687316201
0.0069500684
0.00105764836
0.00105723312
0.00636867385
0.00736956734
0.00658931061
0.00103363588
0.0010742488
0.00692589958
0.00751068316
0.00277283832
0.00100053635
0.00674070592
0.00710953532
0.00104415498
0.00106742568
0.00688500746
0.00693412246
0.00106876815
0.00106417079
0.00619001062
0.00724610343
0.00649787726
0.0010665598
0.00107551961
0.00651592565
0.0074181924
0.00670103107
0.00104523982
0.00110013743
0.00675182225
0.00681381837
0.0010512329
0.0010136334
0.00712210542
0.00711267416
0.00106350504
0.00104650492
0.00658093102
0.00747726808
0.00674064948
0.001045778
0.00108982404
0.00682688429
0.00684776477
0.00106332432
0.00106542181
0.00675370269
0.00719274854
0.00678840863
0.0071186151
0.00644346512
0.00108561286
0.00109308001
0.00616433362
0.00713684094
0.00636975049
0.00108317737
0.00111426797
0.00657328958
0.00664782406
0.00107872796
0.00109244259
0.0068185866
0.00686398408
0.00105695775
0.00106172397
0.00679101301
0.00708980509
0.00710292248
0.00643000064
0.00108106927
0.00109892105
0.00607934155
0.00698647971
0.00594138633
0.00110207054
0.00110733732
0.00597629276
0.00689783077
0.00554357031
0.00110677513
0.00110271403
0.00629820352
0.00686282341
0.00689869953
0.00602068989
0.0010939502
0.00109554413
0.0061771866
0.0071272849
0.00639299329
0.00108024588
0.00111515271
0.00658713855
0.00662823453
0.00107191283
0.00106678369
0.00657052267
0.00734331828
0.00666533826
0.00106209597
0.00107073168
0.00647160067
0.00728626503
0.0066031261
0.00106268733
0.00107542712
0.00645949171
0.00730161341
0.00664852505
0.00106252202
0.00109178913
0.00661533371
0.00695820014
0.00700115316
0.00641487114
0.00108436404
0.00109955613
0.00617049868
0.00710474003
0.00640880684
0.00107778177
0.00109554079
0.00623156068
0.00715333227
0.00647583516
0.00107212449
0.00112324774
0.00654158512
0.00665852055
0.00106512758
0.00110289604
0.00676164621
0.00684973134
0.00105222478
0.00105497445
0.00664976044
0.00746720484
0.00677473354
0.00105239366
0.00107069235
0.00655053336
0.00730731864
0.00664503332
0.00105827982
0.00110836563
0.00672105555
0.00677422146
0.00106915006
0.00106991896
0.00665730291
0.00740580507
0.00668857708
0.00105687169
0.00109920154
0.00677415053
0.00680288214
0.00107073405
0.00105980844
0.00673543757
0.00747037785
0.0067412056
0.00105814139
0.00106379588
0.00666472284
0.0073638457
0.00665711183
0.00106445899
0.00106851778
0.00663289123
0.00730472877
0.00662420596
0.00107615927
0.00109003456
0.00672814672
0.00675022846
0.00107830024
0.00107238241
0.00689186337
0.00685308608
0.00106370452
0.00104140952
0.00684963846
0.00749251142
0.00673756755
0.00106512457
0.00106687671
0.00678444047
0.00679259504
0.00108263853
0.00106105941
0.00682426621
0.0067666509
0.00108024738
0.00105580977
0.00670597847
0.00722735903
0.00623760614
0.00108820884
0.00108670027
0.00664218573
0.00698228687
0.00679493724
0.00706117882
0.00688778718
0.00275807738
0.00112214672
0.00104548429
0.00660234113
0.00662883837
0.00108999728
0.00105569429
0.00678454141
0.00735941896
0.00655680269
0.00107235405
0.00105867586
0.00678800908
0.00677279986
0.00107962168
0.00104402503
0.00688724919
0.006846602
0.00106536705
0.00103931712
0.00697829144
0.00691101569
0.00106248146
0.00103486107
0.00694742887
0.00752564296
0.00663162144
0.001063
0.00106284136
0.00674938843
0.00730235165
0.0064013429
0.00107026759
0.00107532253
0.00666253169
0.00723748456
0.00634457395
0.00106907098
0.00107581233
0.00665458985
0.00726537767
0.00642986911
0.00106356243
0.00108526054
0.00672885233
0.00677440107
0.00104658661
0.00105924663
0.00676498308
0.00740062097
0.00657548694
0.00104785711
0.00108127508
0.00673299186
0.0067992763
0.0010369556
0.00105890381
0.00676023671
0.00739712581
0.00652428608
0.00104918023
0.00108899095
0.00664886322
0.00710006077
0.00464703763
0.0010042599
0.00112133847
0.00131584734
0.00684051296
0.00739450087
0.00693718609
0.00752790488
0.00688755402
0.00097699788
0.00112320147
0.00100541255
0.00660694995
0.00736926766
0.0052444686
0.0010759372
0.00109323303
0.00673115615
0.00705058925
0.00694956681
0.00462737355
0.00110871077
0.00107936814
0.00652934482
0.00708920073
)
;

boundaryField
{
    closed
    {
        type            calculated;
        value           uniform 7.10417765e-07;
    }
    open
    {
        type            calculated;
        value           nonuniform List<scalar> 0();
    }
    sides
    {
        type            empty;
    }
    procBoundary0to1
    {
        type            processor;
        value           uniform 0.00586768266;
    }
}


// ************************************************************************* //
