/*--------------------------------*- C++ -*----------------------------------*\
| =========                 |                                                 |
| \\      /  F ield         | OpenFOAM: The Open Source CFD Toolbox           |
|  \\    /   O peration     | Version:  2306                                  |
|   \\  /    A nd           | Website:  www.openfoam.com                      |
|    \\/     M anipulation  |                                                 |
\*---------------------------------------------------------------------------*/
FoamFile
{
    version     2.0;
    format      ascii;
    arch        "LSB;label=32;scalar=64";
    class       volScalarField;
    location    "0.0012";
    object      Z;
}
// * * * * * * * * * * * * * * * * * * * * * * * * * * * * * * * * * * * * * //

dimensions      [0 0 0 0 0 0 0];

internalField   nonuniform List<scalar> 
530
(
0.0146161656
0.0145052131
0.0144632237
0.0144618434
0.0144617108
0.0144617072
0.0144617069
0.0144617069
0.0144617069
0.0144617069
0.0144617069
0.0144617069
0.0144617069
0.0144617069
0.0144617069
0.0144617069
0.0144617069
0.0144617069
0.0144617069
0.0144617069
0.0144617069
0.0144617069
0.0144617069
0.0144617069
0.0144617069
0.0144617069
0.0144617069
0.0144617069
0.0144617069
0.0144617069
0.0144617069
0.0144617069
0.0144617069
0.0144617069
0.0144617069
0.0144617069
0.0144617069
0.0144617069
0.0144617069
0.0144617069
0.0144617069
0.0144617069
0.0144617069
0.0144617069
0.0144617069
0.0144617069
0.0144617069
0.0144617069
0.0144617069
0.0144617069
0.0144617069
0.0144617069
0.0144617069
0.0144617069
0.0144617069
0.0144617069
0.0144617069
0.0144617069
0.0144617069
0.0144617069
0.0144617069
0.0144617069
0.0144617069
0.0144617069
0.0144617069
0.0144617069
0.014461707
0.0144617072
0.0144617076
0.0144617083
0.0144617101
0.0144617136
0.014461721
0.0144617357
0.0144617491
0.0144617751
0.0144618615
0.0144619793
0.0144619838
0.0144620124
0.0144624311
0.0144632619
0.0144643759
0.014463126
0.0144537201
0.014453784
0.0144797123
0.0146119032
0.0146296168
0.0142865468
0.0141037714
0.0143709815
0.0147345915
0.0147331952
0.0147543281
0.0147368067
0.0142409946
0.0140954057
0.0140792358
0.0140941315
0.0147027916
0.0148140534
0.0147559354
0.0148542453
0.0147356595
0.0140998564
0.0140794448
0.0141003012
0.0140975752
0.0140908591
0.0142068749
0.0147812838
0.0148301365
0.0147832489
0.0147624942
0.0148036847
0.0145882322
0.0140864382
0.0140563179
0.0140808058
0.0146829127
0.0148004641
0.014800216
0.0146006944
0.0140846549
0.0140564101
0.0140809693
0.0146763696
0.0148002701
0.0147818404
0.0146671275
0.0140671294
0.0140587245
0.0146966987
0.0147057336
0.014060589
0.0140684523
0.0147083527
0.0148488218
0.0146983027
0.0140748391
0.0140525296
0.0147086932
0.0146468168
0.014064493
0.0143057628
0.0147599843
0.0143873287
0.0140685069
0.014632802
0.0147682442
0.0141456058
0.0140714641
0.0144861313
0.0147746559
0.0146779223
0.014066398
0.0140516442
0.0146673014
0.0146812898
0.0140624141
0.0140593551
0.0146695965
0.0147622182
0.014722702
0.0147394234
0.0147167218
0.0147474382
0.0145588202
0.0140664464
0.0140547164
0.0146911756
0.0147145832
0.0140624999
0.0140666967
0.0147108221
0.0148502923
0.0147111012
0.0140704212
0.0140512694
0.0145950012
0.0145857255
0.0144335152
0.0146608562
0.0146716464
0.0140693711
0.0140579659
0.0147446091
0.0147623078
0.0140751009
0.014067167
0.0147532232
0.0147703429
0.0140696945
0.0140768395
0.0146783113
0.0148366784
0.0146979066
0.0140793568
0.0140694698
0.0147482851
0.0148532772
0.0143384155
0.0140943575
0.0147098694
0.0147904869
0.014065101
0.0140814467
0.0146607533
0.0148342436
0.0146980752
0.0140878373
0.0140669829
0.0148160423
0.0148301907
0.0140905798
0.0140840267
0.0146701646
0.0148547899
0.0147115872
0.0140886391
0.0140692529
0.0147974003
0.0148354665
0.0141799245
0.0140783234
0.0147717963
0.0147923812
0.0140814191
0.014073794
0.0147670815
0.0147772629
0.0140764814
0.0140709055
0.0147534795
0.014768429
0.014066976
0.0140766102
0.0146767487
0.0148340721
0.0147080972
0.0140780703
0.0140683479
0.0147654027
0.0148485275
0.0143038882
0.0140773807
0.0147359283
0.014792118
0.014068461
0.0140720328
0.0147516219
0.0147648297
0.0140632066
0.0140738279
0.0146537711
0.0148121443
0.0146938243
0.0140678868
0.014068008
0.0146950186
0.0148373667
0.0147216677
0.0140743799
0.0140617414
0.0147377072
0.0147442124
0.0140711568
0.0140737459
0.0147887369
0.0147947267
0.0140659991
0.0140818995
0.0147049337
0.0148502519
0.0147274842
0.0140748573
0.0140626429
0.0147473091
0.0147456581
0.0140661185
0.0140704476
0.014732823
0.014804366
0.0147389565
0.0147938501
0.0146886954
0.0140664617
0.0140679577
0.0146509266
0.0147946311
0.0146744224
0.0140671328
0.0140571473
0.0147084159
0.0147118604
0.0140634256
0.0140608251
0.0147428885
0.014745569
0.0140658084
0.0140670808
0.0147387733
0.0147829881
0.0147861133
0.0146857853
0.0140639832
0.0140655128
0.0146395185
0.0147687886
0.0146221616
0.0140613033
0.0140611565
0.0146268986
0.0147536218
0.0145744927
0.0140614312
0.0140599586
0.0146684102
0.0147470199
0.0147537569
0.0146332918
0.0140613263
0.0140656155
0.0146500834
0.0147908494
0.0146755963
0.0140645677
0.0140567538
0.0147075022
0.0147099681
0.0140622344
0.0140686787
0.0147013012
0.0148230856
0.0147165561
0.014067492
0.0140682686
0.0146900079
0.0148144263
0.0147094861
0.0140674208
0.01406927
0.0146874101
0.0148188675
0.0147138322
0.0140702035
0.0140624858
0.0147148004
0.014762937
0.0147726232
0.01468438
0.0140659078
0.0140660895
0.0146520771
0.0147884582
0.0146824173
0.0140668032
0.0140655375
0.0146587646
0.0147966539
0.0146882726
0.0140706069
0.0140562483
0.0147036891
0.0147154833
0.0140691776
0.014061563
0.0147337851
0.0147487399
0.014068612
0.0140735285
0.014715233
0.0148448224
0.0147369106
0.0140727654
0.0140707861
0.0147017083
0.0148210267
0.0147155038
0.0140729584
0.0140617407
0.0147296409
0.0147371929
0.0140670934
0.0140708259
0.0147160762
0.0148366576
0.0147213147
0.0140744005
0.0140633517
0.0147392076
0.0147418406
0.0140677335
0.0140724652
0.0147302203
0.0148450998
0.0147322811
0.0140719846
0.0140719364
0.0147215065
0.0148283776
0.01472056
0.0140690469
0.0140720771
0.0147142142
0.0148207885
0.0147116383
0.0140694049
0.0140639385
0.0147317946
0.0147312236
0.0140658484
0.0140681322
0.0147535081
0.0147499216
0.014064628
0.014076792
0.0147445176
0.0148488997
0.0147273429
0.0140707698
0.0140668044
0.0147391841
0.0147365929
0.0140637386
0.0140686823
0.0147416642
0.0147351167
0.0140613015
0.0140731957
0.0147223349
0.0148083703
0.014659669
0.0140680179
0.0140682637
0.0147193881
0.0147737268
0.0147418549
0.014788389
0.0147536969
0.0143025646
0.0140651847
0.0140794556
0.0147111353
0.0147181685
0.0140601547
0.0140761022
0.014732339
0.0148283455
0.0146969683
0.0140689199
0.0140688292
0.0147398467
0.0147322493
0.0140661288
0.014073255
0.0147535069
0.014746018
0.0140672935
0.0140766102
0.0147661727
0.014758739
0.0140662222
0.0140786018
0.0147606096
0.0148535209
0.0147136736
0.0140706011
0.0140711631
0.0147333218
0.0148182047
0.0146822077
0.0140685002
0.0140688478
0.0147187481
0.0148084108
0.0146744294
0.0140684509
0.0140681213
0.0147161535
0.0148131655
0.0146837525
0.0140715096
0.0140633246
0.0147300993
0.0147360853
0.0140718035
0.0140709241
0.0147308621
0.0148342897
0.0147028359
0.0140752629
0.0140627137
0.0147304037
0.0147390414
0.0140741599
0.014070081
0.0147296227
0.0148329353
0.0146957359
0.0140750141
0.0140666957
0.0147166889
0.0147941907
0.0144775514
0.0141022147
0.0140649941
0.0141896248
0.0147453707
0.0148518267
0.0147623481
0.0148645853
0.0147551318
0.0140903357
0.0140646719
0.0140829742
0.0147090701
0.0148354682
0.014541106
0.0140784946
0.0140623725
0.0147359865
0.0147772811
0.0147652681
0.0144751806
0.0140644728
0.014067029
0.0146968662
0.0147855438
)
;

boundaryField
{
    closed
    {
        type            zeroGradient;
    }
    open
    {
        type            zeroGradient;
    }
    sides
    {
        type            empty;
    }
    procBoundary0to1
    {
        type            processor;
        value           uniform 0.0146132975;
    }
}


// ************************************************************************* //
