/*--------------------------------*- C++ -*----------------------------------*\
| =========                 |                                                 |
| \\      /  F ield         | OpenFOAM: The Open Source CFD Toolbox           |
|  \\    /   O peration     | Version:  2306                                  |
|   \\  /    A nd           | Website:  www.openfoam.com                      |
|    \\/     M anipulation  |                                                 |
\*---------------------------------------------------------------------------*/
FoamFile
{
    version     2.0;
    format      ascii;
    arch        "LSB;label=32;scalar=64";
    class       volScalarField;
    location    "0.00014";
    object      prefDh_H;
}
// * * * * * * * * * * * * * * * * * * * * * * * * * * * * * * * * * * * * * //

dimensions      [1 1 -3 0 0 0 0];

internalField   nonuniform List<scalar> 
3810
(
23949.7541
23127.8679
23159.4277
23960.1687
23948.0268
23089.8271
23134.7224
23963.4576
23946.5485
23100.2733
23198.5295
23069.0151
23379.2485
23965.195
23964.3576
23955.268
23223.662
23136.9919
23144.1484
23282.7757
23974.7427
23951.1193
23971.463
23938.7269
23117.1249
23021.6926
23203.597
23060.4875
23334.4741
23961.1422
23938.0194
23176.549
23252.7238
23969.2076
23941.0674
23217.3181
23044.4462
23362.6396
23967.0588
23964.2345
23962.4181
23955.6965
23955.9314
23944.9516
23949.8183
23934.7791
22954.1951
22760.5057
23112.1015
23946.2436
23933.911
23051.8246
23051.8052
23094.7333
23231.9973
23954.5987
23938.2027
23203.6335
23202.9981
23219.3684
23371.7144
23966.274
23947.9622
23254.3966
23155.932
23389.9101
23955.528
23958.4534
23184.8802
23273.1641
23968.1163
23946.9786
23117.9881
23015.4845
23254.4888
23951.0731
23962.0177
23118.043
23191.9758
23961.9494
23956.8326
23159.1451
23181.6415
23142.3938
23377.3931
23959.9918
23967.9521
23958.7043
23961.7055
23959.992
23093.5527
23025.1441
23105.9535
23200.3645
23959.3612
23954.8271
23159.6452
23220.0464
23967.2648
23952.9246
23163.1271
23081.4433
23275.4784
23969.2864
23955.5511
23176.838
23127.5192
23319.9396
23963.7194
23965.8317
23103.7335
23387.8189
23975.8709
23965.9172
23972.0505
23216.4362
23158.5199
23148.8242
23388.3775
23964.2195
23961.9056
23961.3516
23955.2524
23124.967
22928.1949
23125.7788
23961.845
23963.6961
23154.4514
23133.1075
23131.8169
23229.1354
23957.9784
23964.4777
23194.9837
23175.8116
23961.737
23971.9046
23131.1894
23097.6876
23959.0416
23973.3499
23091.222
23055.8148
23957.7032
23971.5411
23135.7982
23109.1334
23107.3541
23397.2191
23945.1704
23953.8519
23947.21
23954.8067
23953.5239
23082.7499
22918.6953
23064.8664
23101.1705
23498.2053
23927.7776
23949.2966
23243.9589
23251.9688
23936.1623
23954.5888
23941.0658
23963.7025
22962.2457
22900.8415
23086.9372
23186.3643
23196.4541
23381.4611
23942.993
23981.3589
23204.3581
23239.4006
23954.0906
23974.8915
23131.317
23206.7124
23963.586
23950.5347
23070.3815
23013.1505
23381.0183
23914.7448
23961.5796
23915.3254
23954.3988
23918.6552
23945.7618
23925.7702
22755.3905
22702.5611
23107.1158
22999.0155
23388.3933
23924.7167
23972.0854
23058.3762
23206.8089
23938.1383
23961.7145
22989.0255
23113.8105
23942.4083
23948.8955
22835.8393
22832.8633
23111.5153
23151.0914
23228.873
23444.5002
23934.4179
23937.0014
23936.6374
23079.4745
23038.6715
23395.3749
23919.3044
23947.2767
23923.6405
23939.024
23931.1877
22775.6917
22766.873
23108.9163
23181.6291
23233.4322
23385.694
23948.6375
23962.1074
23181.1074
23392.5552
23951.3531
23945.381
23945.3256
23935.9239
22862.5989
22815.5008
23389.585
23931.165
23946.6094
23008.8818
23008.5323
23389.3788
23934.6569
23949.7587
23173.0469
23382.4213
23941.9484
23936.695
23062.3459
23058.3121
23388.786
23927.6321
23946.8993
23178.8494
23392.3492
23936.9822
23934.9923
22980.3956
22976.4879
23389.5643
23933.7705
23935.7143
22962.1431
22958.0763
23386.0303
23935.6816
23947.6026
23145.583
23401.9206
23937.688
23945.0377
23921.8647
23935.2603
23908.2245
22692.6926
22660.6983
23401.0349
23920.9594
23922.5261
22889.0973
22885.7285
23398.3194
23925.9092
23926.2502
23074.8964
23351.4313
23937.9017
23915.3792
22902.0941
22893.8807
23388.5749
23923.6219
23932.2242
23057.0015
23365.3142
23926.2563
23932.7248
23912.8907
22813.7904
22813.0016
23127.9642
23229.4941
23618.6425
23928.08
23872.9986
23926.6755
23872.2861
23922.6631
23871.7146
22712.4754
22697.1511
23399.604
23917.3771
23908.3347
22913.8021
22909.5764
23394.6287
23922.8872
23915.0833
23106.4936
23391.0028
23929.3138
23909.6849
22943.8453
23391.696
23902.6461
23060.4126
23055.3539
23303.5337
23402.0382
23944.6675
23909.6389
23061.7369
23057.5091
23395.001
23933.5185
23913.7447
23199.8964
23419.8082
23954.7691
23900.4884
23181.906
23383.3296
23956.9297
23896.7482
23041.5177
23034.7004
23302.9518
23438.4311
23952.3753
23898.2189
23945.6455
23881.6379
22800.0049
22782.9339
23387.3411
23927.9955
23912.1211
22917.8374
22913.2115
23219.764
23246.1335
23386.5585
23429.0477
23971.1654
23918.8912
23387.7518
23415.5273
23939.9421
23946.5775
23912.8016
23943.2185
23897.3406
22930.3037
22926.6464
23208.1081
23216.0533
23247.0727
23383.4071
23579.8933
23964.2895
23896.6911
23311.5286
23395.3158
23942.8767
23948.784
23917.1276
23035.5823
23034.6867
23252.3588
23257.712
23306.2925
23385.8538
23504.6829
23963.966
23894.714
23327.8545
23418.4411
23968.0048
23898.4399
23250.4019
23406.4218
23963.243
23906.5499
23956.6201
23868.3506
22851.3493
22839.2249
23147.6197
23153.4733
23375.8925
23944.6939
23964.6141
23926.5868
23953.9217
23895.5061
23941.634
23858.4048
22815.4008
22802.461
23118.2913
23180.6539
23200.2615
23396.9698
23951.3106
23891.0387
23118.1065
23360.908
23955.1889
23876.5322
22948.2778
22936.8463
23189.3962
23144.3323
23388.8904
23930.6323
23900.6137
23116.404
23354.3636
23938.1391
23897.9979
22991.0252
23349.0934
23940.234
23945.0957
23912.4128
23936.7212
23881.1289
23926.9538
23855.5035
22913.2706
22902.0874
23126.2172
23423.7922
23945.6515
23894.5773
22962.418
22956.9443
23194.1516
23140.6798
23386.3155
23944.252
23920.8371
23072.5376
23068.5834
23389.3336
23941.7643
23917.8093
23945.1849
23888.6784
23016.9533
23139.4702
23952.0837
23893.6389
23033.877
23170.218
23951.5436
23895.6937
23051.2587
23186.9581
23949.4196
23904.7384
23044.205
23041.3477
23173.247
23399.513
23943.022
23926.2818
23937.8534
23907.5764
23931.2515
23896.9195
22709.268
22703.0369
23039.1613
23142.607
23195.5396
23389.5283
23943.8396
23950.0116
23932.624
23071.5274
23054.9355
23386.963
23935.8244
23940.0306
23150.1314
23383.3964
23942.6464
23938.8093
23058.4049
23389.2556
23937.1839
23946.777
23931.9886
23008.9094
22997.4671
23140.7124
23391.5724
23944.9419
23948.4652
23049.3045
23387.526
23945.2383
23953.9102
23937.9632
22884.5818
22882.7825
23118.1715
23186.9479
23239.4811
23389.8724
23957.1281
23961.3335
23949.1394
23103.8281
23087.0415
23386.4294
23943.745
23960.1407
23109.7048
23382.3539
23953.2513
23960.965
23952.2686
23079.5408
23076.5404
23186.5066
23382.1405
23966.9894
23961.6367
23151.7459
23150.9616
23372.94
23956.6394
23974.0174
23208.9831
23375.1677
23962.0703
23963.8792
23962.666
23115.8142
23097.5869
23230.0483
23270.9571
23283.0937
23367.1072
23955.4504
23984.4532
23219.6882
23283.5407
23960.5758
23978.9288
23067.8782
23380.2009
23961.3022
23968.6221
23953.7365
23057.9438
22809.6385
23324.9699
23956.2602
23952.1518
23019.953
23006.0927
23320.1437
23951.5954
23963.4527
23080.8563
23201.9243
23938.0171
23960.3047
23049.786
23088.7684
23925.5247
23945.9963
22794.4399
22941.6951
23932.1073
23938.2769
23938.8643
23933.3304
23936.4775
23074.3419
23035.4584
23942.1549
23924.6798
23102.2736
23114.8689
23159.11
23370.648
23957.4746
23936.9546
23032.5751
23030.7555
23218.4995
23175.1154
23375.0816
23941.8078
23964.9119
23231.155
23313.561
23946.3903
23959.0722
23166.8927
23290.3393
23946.4515
23952.7283
22997.7778
23378.7314
23937.9972
23162.8842
22912.2896
23387.8933
23946.3025
23931.3094
22974.3002
22971.2096
23195.0595
23142.9027
23376.497
23942.946
23968.9999
23930.265
23964.7896
23921.5194
23127.651
23196.1685
23964.7736
23925.471
23012.3354
23003.7939
23373.493
23943.3532
23958.8237
23099.7643
23313.1052
23956.8921
23952.4571
23183.9704
23398.7052
23958.718
23935.0597
23951.5285
23932.6938
22977.7052
22974.2713
23177.3864
23397.617
23959.2195
23950.0765
23136.6001
23278.7305
23960.2677
23944.0728
23123.5871
23279.667
23949.9304
23944.9033
23033.16
23395.096
23942.135
23086.4526
23073.6309
23199.5154
23399.2661
23946.2237
23946.4722
22967.6867
22962.8464
23203.1189
23187.3245
23384.2562
23927.3495
23954.4191
23911.1452
23943.0895
23903.1469
23927.7441
23913.8783
22823.1199
22823.2435
23008.2298
23410.8113
23934.844
23939.6263
23936.9963
22948.9495
22847.7279
23389.962
23931.8178
23945.8288
23051.4665
23051.2982
23273.0381
23230.3817
23382.2218
23957.0983
23958.7085
23127.9806
23126.7666
23350.2097
23387.7137
23983.288
23949.7893
23372.1247
23409.6582
23974.8315
23930.0352
23965.975
23921.933
23060.0686
23054.5062
23271.3834
23258.3094
23383.4706
23967.6642
23953.6188
23270.2767
23393.8554
23978.9347
23937.0255
23286.7102
23400.335
23963.9426
23922.7653
23058.012
23057.1936
23169.216
23193.3855
23073.375
23370.4323
23953.5227
23972.4326
23911.4033
23392.473
23433.2278
23964.4902
23886.6453
23182.0424
23178.7072
23245.4262
23392.3155
23959.5032
23922.8032
23948.1921
23885.9587
22835.2841
22824.472
23398.9018
23934.3827
23902.4334
22977.6569
23185.9473
23947.6439
23901.9066
23073.8698
23415.5272
23946.8365
23899.3511
23940.6068
23872.394
22933.764
22928.8592
23086.8028
23399.5953
23953.7608
23918.3564
23000.8071
22997.4317
23381.8729
23944.8531
23928.9715
23949.3606
23896.9496
23088.4648
23249.1635
23962.9139
23902.8987
23097.2871
23094.8173
23286.5099
23252.5921
23387.3659
23935.6479
23925.5474
23236.753
23388.8446
23938.7011
23949.8701
23917.0355
23010.1508
22839.098
23173.6838
22925.1983
23363.5635
23790.9588
23948.4292
23874.8981
23081.6665
23039.7598
23311.3956
23395.0518
23950.7875
23916.9765
23244.3877
23387.5514
23953.7908
23962.6725
23916.8997
23193.7868
23234.9595
23975.9682
23922.4917
23275.2835
23395.2646
23985.8119
23940.8745
23151.6438
23030.6262
23357.3902
23963.0099
23978.7816
23248.0234
23221.6877
23457.2551
23958.4506
23937.4966
23143.7742
23103.5502
23105.0168
23287.535
23965.2573
23935.4833
23956.5557
23917.6683
22971.3755
22753.834
23155.3635
23924.1001
23926.2282
22947.8529
22947.2481
22957.477
23164.2148
23943.827
23919.5488
23940.5139
23911.3979
23103.0893
22904.4908
23154.4787
22892.5208
23225.2258
23923.7394
23936.594
23927.7549
23931.7381
23931.1935
23030.1693
22996.2672
23936.8307
23935.7163
23071.1623
23085.1598
23938.7114
23941.9795
23121.6701
23119.3724
23927.9581
23949.1322
23145.3655
23147.097
23609.6376
23944.6661
23921.2088
23197.2077
22774.0469
23011.9614
23920.0221
23961.4013
23067.8659
22973.9032
23922.4252
23957.3753
23186.0461
23036.8861
23015.3214
23048.5496
23929.848
23953.5579
23930.9729
23962.9574
23159.1434
23041.6146
23926.8565
23960.1331
23281.4021
23159.0132
23919.6638
23954.7548
23940.9497
23959.7429
23401.9912
23080.6461
23047.6707
23048.8037
23903.3254
23952.747
23319.1327
23109.8221
23916.1026
23959.644
23399.4177
23114.8227
23049.061
23055.513
23855.5261
23949.4805
23431.1706
23307.1333
23865.1454
23947.4698
23940.6262
23414.0006
23143.9213
23805.2617
23948.2089
23425.4428
23161.1127
23723.9076
23945.6323
23390.5533
23334.9048
23415.9307
23397.7244
23232.4123
23569.5246
23929.1387
23387.7147
23156.3861
23434.8438
23904.3078
23386.9816
23063.5841
23364.3929
23894.8789
23445.2612
23127.2752
23048.2297
23076.6521
23048.3831
23014.3179
23374.7013
23829.3768
23935.4232
23929.6842
23391.2583
23397.7272
23563.5601
23944.9973
23949.7992
23378.8404
23241.1846
23087.8842
23191.5692
23813.071
23963.6428
23402.652
23362.9114
23407.0686
23930.1278
23938.4346
23372.0022
22982.841
22996.228
23817.6842
23944.9538
23395.8213
23214.5022
23392.1482
23919.565
23430.5155
23129.0028
23398.8239
23938.5665
23394.877
23477.61
23972.0592
23372.1615
22944.3456
23113.5821
22939.9276
23041.1535
23949.1547
23932.4369
23393.7607
23237.7197
23476.7555
23941.6729
23377.384
23133.5716
23673.6947
23908.0421
23384.5693
22762.2396
23106.9847
23937.6298
23951.3237
23899.0936
23951.7853
23886.8554
23953.6112
23887.67
23137.2856
22951.5551
23073.6539
23067.7481
23035.5978
23309.3509
23956.653
23916.0805
23112.9856
23412.0318
23966.2509
23920.6647
23948.31
23906.1002
23100.6657
23083.0712
23213.6998
23213.7125
23222.6525
23406.1623
23957.5251
23739.6965
23310.7124
23401.9328
23954.988
23561.862
23270.0765
23406.7503
23950.2772
23859.4811
23074.9237
23071.667
23250.1499
23401.6117
23947.2229
23595.6845
23324.2812
23396.1346
23942.77
23520.3588
23276.237
23389.0077
23940.2941
23518.4894
23236.072
23380.6815
23937.5537
23530.5388
23216.7003
23376.6751
23934.736
23553.851
23206.3749
23377.1476
23931.4471
23597.4088
23193.816
23382.6736
23929.6212
23653.3682
23191.3813
23388.2095
23922.586
23689.9447
23207.9854
23391.693
23952.3281
23761.1633
23333.6134
23370.773
23372.8469
23375.5089
23207.6462
23203.3335
23355.9769
23697.9011
23982.2854
23842.4138
23395.955
23307.6505
23612.4878
23899.5984
23369.3625
23241.1888
23537.9397
23891.1902
23376.5982
23162.802
23420.3645
23922.3302
23466.2843
22892.4894
22989.1153
23434.8119
23910.6282
23935.9513
23871.2122
23105.7956
23079.5881
23416.9757
23919.3834
23821.6209
23071.1509
23408.1979
23921.2708
23751.9073
22845.6146
22835.6202
23151.269
23408.5212
23937.1472
23863.9897
23058.1355
23404.2078
23939.9361
23917.7289
23930.5894
23877.3603
23920.7732
23816.7717
22915.9442
22907.2514
23139.9086
23406.0506
23939.5667
23869.9543
22886.3793
22875.2306
23390.2346
23929.7379
23890.5201
23050.3801
23048.1723
23267.665
23395.3214
23945.8289
23906.9556
23241.1451
23400.2292
23946.6634
23916.7279
23938.3737
23879.4132
22698.6249
22690.5232
23030.6725
23095.348
23178.9228
23421.6587
23961.8089
23952.606
23964.6679
23946.7645
23962.715
23934.3944
23954.2838
23921.5443
22967.8627
22856.5035
23061.9948
22977.8268
23144.0246
23053.8414
23370.3749
23954.6539
23964.8558
23946.6233
23944.2785
23076.8516
23057.2037
23080.4813
23379.9663
23953.6404
23959.6669
23950.7958
23184.4653
23142.6703
23262.2923
23389.0899
23956.8642
23942.3308
23951.1294
23932.0149
23106.2001
23020.4262
23193.5492
23027.8512
23371.804
23941.9917
23954.7332
23936.3106
23944.2604
23074.4386
23306.6511
23939.1789
23936.6033
23934.5577
23039.3089
22922.1807
23032.7945
23194.7651
23935.6211
23927.1135
22904.9708
22904.7545
22981.6489
23018.6528
22942.5612
23254.5325
23949.6602
23927.8997
23945.9723
23915.5393
23140.3702
22926.4047
23369.3234
23933.5234
23937.1879
23935.63
23918.8153
23145.2811
23184.7651
23940.5324
23919.321
23047.2416
23290.6696
23946.4188
23934.5062
23929.6085
23134.8663
23125.4778
23942.054
23913.8378
23038.8714
23247.0122
23944.133
23936.6038
23928.7936
23105.981
22932.1638
23059.1203
23164.9687
23957.7504
23923.504
23210.9991
22981.1971
23293.6176
23956.0374
23932.4206
23273.3833
22994.0733
23365.3128
23949.4758
23963.096
23921.2966
23245.7097
22930.8141
23279.7824
23938.5669
23931.608
23188.496
23216.7117
23955.0049
23923.198
23140.708
23174.0392
23956.0746
23918.3126
23100.5947
23144.1421
23958.6131
23911.2043
23075.3137
23136.9328
23966.9273
23908.6541
23131.5978
22811.5709
23117.427
23948.7646
23947.1723
23937.6141
23943.1607
23206.3788
22997.4276
23070.9429
23170.0795
23943.416
23935.1713
23267.8365
23286.4635
23960.4051
23955.1343
23943.1108
23321.4464
23097.7816
23164.6051
23348.3405
23951.8626
23973.1642
23156.0333
23042.9656
23953.7614
23947.4419
23387.9744
23081.2294
23380.8038
23917.7128
23982.6102
23247.0485
23121.1435
23909.0279
23956.126
23160.5413
22772.118
23392.2918
23896.2745
23958.7039
23927.7255
23952.3513
23297.1746
22913.8588
23288.2359
23895.3391
23990.125
23041.0994
22972.6183
23858.4622
23951.0076
23939.7694
23186.4378
22962.9911
23316.8883
23392.9504
23933.3416
23989.7444
23386.9528
23392.3793
23961.5643
23947.692
23995.9945
23960.0615
23356.8092
22724.1635
22842.8252
23022.1451
23077.4787
23144.9193
23430.5696
23919.1414
23972.9535
23938.0863
23411.5559
22917.7642
22924.9569
23399.6143
23919.9628
23959.2678
22930.3429
22858.4515
23406.1456
23900.1228
23958.7659
23026.8735
23256.7055
23917.9487
23926.3825
22741.5724
22681.0804
23393.6857
23908.2214
23970.6105
22931.1875
23403.7677
23941.2696
23930.5244
23968.8174
23909.1012
23381.5885
23031.6759
23380.9222
23885.5718
23941.9346
23881.3954
22992.8263
23090.8802
23911.341
23866.2409
22616.1221
22605.2943
23086.759
23102.8682
23164.4297
23398.9696
23934.2424
23935.2773
23939.5777
23919.6441
23949.297
23896.2856
23957.9808
23875.5466
23171.2422
22595.6844
22894.7781
22981.4288
23049.1436
23219.8334
23254.5435
23429.6412
23899.141
23929.1554
23872.5607
23921.0007
23779.2102
22681.7594
22663.9786
23113.2268
23108.9024
23410.7042
23905.6808
23938.2447
23880.2409
23218.909
23422.5474
23925.1742
23929.338
23882.3696
23921.3115
23841.9541
22622.8275
22597.1863
23405.8863
23907.5402
23882.4344
22982.2614
23345.8442
23930.8329
23874.6988
23048.6252
23342.3971
23937.0101
23873.4659
22904.143
22892.9719
23409.0329
23906.1477
23897.1426
23912.0527
23867.583
22783.7408
22771.1492
23404.3501
23915.0393
23893.2271
22926.7789
22922.7595
23401.3671
23923.1418
23892.9408
22975.7839
22969.2683
23397.365
23922.1006
23897.5163
23113.9658
23412.5824
23933.5448
23885.2005
22983.836
23428.8355
23886.6624
23261.5695
23410.4245
23929.8206
23938.0924
23883.395
23121.5601
23192.6004
23941.3494
23874.3581
22945.7576
22940.7327
23167.9478
23407.0092
23946.6833
23883.8807
23006.2307
23000.3307
23390.0767
23931.9155
23894.9956
23109.6781
23107.5717
23326.2757
23403.0511
23947.4526
23894.069
23262.8389
23406.6096
23943.0911
23901.6369
23935.1987
23856.1194
22819.5307
22800.7152
23393.9882
23912.5926
23903.9091
23912.9547
23859.8594
22596.2078
22593.6038
22982.1036
23083.4087
23118.9996
23394.1853
23932.8184
23932.5425
23931.7766
23908.8599
23928.0962
23879.6049
23922.5353
23854.4067
22766.1665
22747.751
23119.3022
23133.5107
23388.2228
23475.3377
23936.6521
23893.1737
23190.6931
23255.7488
23935.0256
23887.8626
22994.0566
23136.6617
23924.9649
23891.1197
22684.3798
22682.5865
22892.299
23281.5803
23929.0957
23942.1835
23904.5151
23933.9581
23889.666
23133.9968
23333.7535
23934.3585
23890.9367
23927.9643
23892.7635
22835.8542
22827.4616
23117.0581
23198.0305
23212.1394
23396.8259
23922.8896
23931.5059
22940.1364
23396.7954
23909.3487
23006.0648
23038.796
23920.9489
23926.523
23902.7292
23923.1667
23892.4677
22872.8315
22868.3269
23109.0038
23398.0304
23936.9103
23943.9403
23933.7563
23106.0669
23102.4851
23294.0231
23385.1191
23949.4966
23954.682
23191.6039
23382.0484
23950.5877
23959.2145
23939.9298
22917.4835
22909.6112
23155.7529
22993.7499
23379.275
23714.0462
23965.1795
23912.6267
23285.7158
23285.517
23976.4804
23959.2393
23281.4031
23353.4187
23982.994
23972.5101
23236.3894
23374.8945
23974.8482
23968.6302
23971.3679
23158.5986
23017.1252
23173.6694
23123.8064
23163.3109
23234.4219
23142.633
23399.3845
23973.388
23968.0732
23979.8766
23307.1146
23377.0595
23976.8738
23964.2913
23981.3727
23267.5772
23220.3895
23229.0178
23369.8609
23967.9933
23982.3703
23014.113
23011.9625
23158.628
23158.9197
23285.1465
23406.7319
23953.5987
23978.0656
23235.7962
23391.134
23963.8978
23947.8372
23965.6136
23103.6071
22999.8492
23075.2124
23132.3516
22975.4436
23281.1034
23956.0771
23950.6636
23961.8627
23948.3104
23959.4717
23104.674
23139.8067
23957.7288
23938.4285
23955.1209
23165.3441
23008.0958
23246.489
23067.7332
23378.7905
23943.8059
23989.072
23948.0219
23992.8869
22970.1907
23015.8581
23093.6355
23366.9252
23972.2851
23983.4819
23980.1946
23976.7794
23296.3522
23035.0766
23356.1252
23954.0376
23998.6534
23944.5424
23356.3565
22980.9497
23294.8778
23947.0965
23967.4244
23043.8849
22986.3709
23078.6858
23025.8736
23145.3789
22966.9993
23104.3198
23921.6661
23947.3722
23919.9146
23952.6227
23030.2871
23075.7886
23929.1347
23950.3352
23924.8831
23140.7254
22760.8444
23209.3285
23914.8003
23940.4855
22894.8113
22921.3893
23908.4239
23930.6049
23911.0426
23933.3257
23920.0926
23937.0298
23929.8509
23025.9609
22791.7801
23066.6953
23141.7843
23166.7664
23387.0852
23932.7286
23970.6333
23225.1351
23215.5611
23945.5408
23959.3239
23094.0004
23147.2819
23962.1023
23941.8187
23961.2446
23143.8026
22940.8276
23947.408
23946.7415
23034.0164
22916.3702
23098.1475
23074.4288
23422.8376
23934.6873
23972.0556
23194.8665
23154.6406
23196.5134
23376.7336
23959.0523
23965.9562
23233.7688
23079.1527
23370.3208
23964.1692
23974.8353
23238.0888
23163.1337
23388.8088
23978.0133
23960.3549
23348.0167
23974.4255
23957.1614
22976.0697
23245.53
23985.9475
23944.9739
23368.8294
22928.3792
23250.7268
23949.6807
23953.9944
23931.5133
23927.9122
22780.2316
22779.7763
23052.2246
22899.3281
23248.003
23917.1511
23917.4518
23910.0053
23909.2407
23899.281
23894.7904
22783.1579
23150.0429
23905.63
23915.4984
23894.5886
22756.5354
22753.3894
23005.3628
23379.8586
23919.2113
23929.9765
23903.5625
23176.0966
23174.0888
23930.249
23893.4997
23085.4122
23176.3799
23927.4514
23894.2544
22867.814
22863.4712
23061.8496
23413.4173
23920.0706
23929.4681
23895.318
23917.438
23888.4035
22503.4993
22495.9431
23032.2045
23101.336
23224.152
23396.8824
23905.7704
23943.2128
23885.5283
23937.4755
23889.6014
23011.9435
23240.1398
23950.9594
23961.4119
23920.937
23411.3361
22659.0118
22749.0603
23033.1655
22986.6814
23317.8072
23771.3455
23876.3193
23869.8908
23876.6013
23166.6044
23263.7895
23937.016
23882.2954
23143.2599
23319.989
23944.8808
23880.2991
22970.1131
22957.9291
23494.1339
23896.701
23924.3033
23935.0443
23920.8413
23457.7753
22822.0574
22821.9286
23395.4435
23921.1339
23916.3259
22929.3171
22929.537
23290.0656
23414.4234
23925.7318
23403.0874
23348.9351
23969.798
23887.1738
22978.2103
22959.905
23379.9106
23432.1487
23959.8011
23875.6234
23374.1656
23883.8284
23933.1589
22792.3644
23405.7418
23698.9834
23240.6129
23410.1675
23943.2737
23479.8203
22925.6401
22935.8774
23163.748
23227.4727
23516.2555
23897.0975
23920.9535
23894.5494
22843.3877
22833.2795
23394.5092
23925.8852
23939.6596
23192.3561
23391.079
23942.1956
23944.8374
23954.7425
23933.3351
23471.3634
22958.0909
22952.4745
23402.2732
23893.669
23935.1953
23886.2133
22773.2423
22763.8606
23181.7131
23287.4364
23524.0988
23916.0442
23900.2439
23051.5739
23402.5556
23889.0508
22955.9288
22945.1112
23404.6942
23907.2248
23909.3541
22959.8033
23334.9251
23931.4565
23929.01
23965.2821
23909.8299
23383.4122
22814.0694
22906.9142
23115.783
23145.6693
23399.6885
23908.7566
23945.6639
23869.8472
23936.2825
23843.4254
22811.5249
22788.6403
23396.3871
23905.8765
23890.6108
22956.4201
23398.7952
23871.8137
23005.5726
22999.9278
23403.5341
23908.4709
23946.029
23874.5694
23108.1351
23391.7889
23892.2223
23115.837
23110.6374
23392.6729
23434.75
23963.4906
23883.9529
23292.0566
23419.7459
23967.7517
23878.9109
23226.8465
23423.2518
23960.1901
23877.5256
23051.2745
23050.7874
23147.7953
23327.8293
23640.0363
23939.7857
23824.7221
23040.5559
23036.2473
23531.8247
23910.4458
23927.4692
23873.6471
23103.7085
23366.8908
23945.9412
23949.6397
23908.076
22951.5004
22920.4923
23392.1706
23941.8006
23895.8144
23079.8751
23391.1543
23954.2908
23896.8008
23036.0815
23033.8399
23394.2522
23954.6001
23900.6345
23098.1678
23093.7208
23388.8644
23941.1635
23910.2918
23141.9136
23329.2173
23946.8785
23904.9357
23100.0975
23227.2157
23945.105
23901.0825
23045.6226
23052.2227
23094.3458
23376.5115
23944.9579
23914.1169
23021.871
23362.3096
23942.6234
23945.0445
23926.9815
23021.4496
23001.044
23133.2266
23315.791
23942.5108
23929.4464
23141.9776
23260.3947
23949.348
23925.9417
23111.3812
23153.428
23180.0928
23393.9819
23958.1034
23933.6647
23165.4676
23172.9238
23245.5558
23421.1943
23966.1291
23962.8382
23970.7942
23947.6584
23186.4094
23307.4998
23995.1198
23961.9779
23997.5422
23951.6922
23356.7433
23087.8845
23234.7166
23167.0404
23238.8707
23438.3599
23963.8158
23950.9684
23190.4302
23257.2286
23963.3062
23954.3194
23024.8214
23375.6911
23967.3417
23186.57
23132.954
23968.7333
23952.4797
23033.8311
23037.6732
23114.6742
23324.1031
23970.3661
23964.3074
23152.7259
23181.1839
23287.5405
23367.7783
23962.1506
23975.4114
23299.9302
23371.8404
23955.0477
23968.955
23944.2954
23958.449
22979.8887
22978.8979
22949.0162
23340.8983
23955.8532
23952.0678
23957.541
23310.3926
23294.361
23959.004
23943.2063
23206.2537
23205.9768
23319.066
23397.234
23969.5112
23908.1249
23160.8221
23909.6703
23973.5641
23010.4756
23273.2997
23929.8873
23962.9353
23051.6038
23050.4749
23216.878
23176.3715
23322.4854
23474.4066
23955.3779
23950.9067
23096.3594
23000.3849
23380.8568
23922.4091
23983.5582
22882.7602
22867.5699
22881.5806
23126.8006
23891.2249
23939.9811
23882.9856
23938.1811
23894.3036
23935.2072
23918.2252
22792.9076
22709.7091
23138.287
23121.0328
23390.5228
23928.2062
23993.5696
23218.6801
23384.2665
23964.6564
23956.485
23984.5011
23254.3023
23272.8381
23962.8523
23949.4362
23980.7057
23228.345
23129.527
23931.5872
23960.0154
23007.449
22929.4802
23156.1268
23146.6172
23281.3783
23132.5405
23349.088
23924.516
23964.2839
23934.1775
23976.1439
23257.1714
23339.7512
23920.1811
23951.6782
23938.162
23956.1558
22999.8475
22817.6362
23146.5156
23118.4339
23289.1179
23478.3915
23942.1625
23944.5481
23203.1464
22903.5334
23373.2361
23895.9564
23981.2435
23265.0578
23007.6846
23303.5768
23912.8392
23918.0702
23366.1164
23837.7634
23979.0815
23110.9157
23059.5862
23806.9252
23940.5208
23932.0276
23272.7868
22855.0854
22957.544
23213.4402
23843.4952
23935.52
23939.3576
23390.9484
23283.6019
23679.4993
23944.7018
23946.9918
23366.6364
22978.6001
22971.5485
22958.5402
23679.1728
23937.3795
23377.7602
23021.3192
22915.7709
23046.4662
23743.1743
23904.2146
23871.9397
23918.7338
23922.6707
23945.1055
23968.9106
23968.2839
23365.2514
22901.7351
22955.6321
22960.5775
23063.966
23008.3942
23012.4362
23649.7948
23915.2697
23899.6638
23948.2101
23933.7054
23389.0946
23111.1328
23101.4368
23123.4141
22984.6937
23072.8528
23881.0476
23927.5635
23850.7726
23414.2814
23066.6245
23370.5768
23921.7992
23377.6953
22995.3485
22959.6048
23064.8234
23702.9212
23957.842
23882.632
23378.4598
23098.0878
23505.56
23960.5978
23965.3221
23966.9495
23940.0364
23973.219
23894.0634
23379.2302
22986.7205
23001.1597
23064.0541
23739.0279
23871.3268
23327.0627
23397.0354
23983.7226
23903.9539
23386.5544
23290.1004
23339.2719
23180.1592
23371.5765
23960.6606
23913.2808
23338.2585
23136.0755
23169.8694
23180.5712
23485.0171
23974.2345
23960.176
23977.4329
23937.4463
23981.1265
23897.9351
23368.6282
23018.9742
23097.7462
23046.174
23065.885
23056.2718
23208.4281
23580.1481
23911.2198
23928.1806
23854.6692
23219.7146
23219.2922
23395.2496
23243.8051
23360.7214
23789.3084
23984.1251
23855.1004
23372.4163
23284.6451
23434.96
23941.1797
23849.9133
22901.5502
22888.8867
23139.9484
23153.1261
23417.7478
23916.0792
23954.3698
23884.1409
23936.9804
23782.8556
22902.3207
22893.8009
23406.3755
23925.915
23887.5632
23205.4212
23386.9322
23937.6848
23395.1477
23250.5666
23402.2897
23958.5602
23888.3904
23164.2844
23161.3629
23312.6013
23267.2892
23296.5865
23433.3209
23938.1463
23964.4468
23902.3151
23204.7834
23382.5515
23934.7632
23390.0059
23089.2508
23413.5849
23949.5306
23896.3852
23163.3471
23164.3976
23403.7918
23946.0627
23855.5029
23211.0093
23720.4747
23890.8608
23191.4035
23423.1058
23957.674
23899.1871
23247.1598
23421.4011
23964.2449
23892.7086
23065.4161
23062.3228
23227.4934
23228.9277
23291.2457
23352.6494
23455.779
23952.259
23896.2488
23257.3173
23405.5669
23951.5446
23895.6847
22887.9551
22876.3795
23387.6675
23934.4227
23918.3978
23199.9189
23412.7685
23956.3053
23896.8589
23003.1059
22994.5915
23369.6862
23945.1027
23973.5141
23926.8844
23962.2031
23907.18
22929.5937
22779.4854
23379.7577
23930.3185
23934.7749
23131.7828
23349.3338
23948.9621
23927.7482
23194.3376
23378.8399
23953.0315
23923.6696
23020.2048
22999.3918
23390.0521
23924.6224
23911.7453
22925.1185
22924.731
23088.8065
22914.6454
23362.547
23939.4604
23939.0674
23936.648
23931.844
23076.442
23407.3949
23484.0276
23290.7677
23126.2183
23391.9833
23946.4262
23947.2833
23284.5074
23392.2391
23960.1715
23964.3947
23955.1304
23435.9105
22994.822
23007.3553
23246.6005
23979.614
23966.4736
23378.6979
23203.5945
23241.6029
23370.8461
23974.0386
23965.399
23169.6379
23204.4602
23973.6899
23960.778
23117.7892
23146.8115
23975.0577
23958.7889
23129.4348
23181.5818
23976.2021
23957.608
23187.1959
23347.4503
23979.8607
23965.6923
23971.1372
23363.8751
23074.069
23221.8164
23218.7727
23120.2432
23386.9051
23927.2746
23957.122
23891.5263
23952.9511
23895.6114
22935.6248
22928.0892
23969.4371
23916.4888
23955.3784
23127.3102
22895.6155
22946.1566
23242.4437
23952.2807
23935.2071
23945.4807
23301.8347
23060.1463
23970.8863
23944.8256
23159.1845
23044.5762
23105.4749
23249.9836
23961.482
23960.8957
23279.6391
23383.9151
23959.3431
23383.5609
23036.6884
23192.3286
23098.9349
23210.8539
23087.7014
23285.953
23931.6783
23957.7276
23922.0534
23963.1953
23931.7723
23970.3894
23950.4369
23975.3529
23959.2265
23183.8138
22909.5172
23074.4756
23130.118
23108.5375
23293.7668
23967.5169
23980.8076
23392.3009
23355.3122
23976.3135
23978.1335
23380.5602
23225.4451
23290.9147
23268.0313
23320.6553
23262.8934
23368.3275
23960.2021
23987.552
23980.3985
23346.5523
23164.6033
23147.2474
23380.7123
23950.1371
23985.5824
23961.4799
23990.9969
23367.5449
23231.7857
23935.724
23962.8413
23318.7376
23088.7818
23356.3437
23925.7106
24008.0712
23348.4783
23379.9467
23547.2146
23384.0603
23383.383
23917.0882
23973.651
23239.8017
23085.3893
23242.7889
23221.9087
23364.317
23926.5967
24002.7518
23359.4401
23355.5644
23911.6173
23946.7178
23932.677
23935.3911
23949.5227
22861.0854
22717.8742
23018.2802
23091.8524
23006.9853
23403.3978
23905.2213
23944.0113
23939.889
23016.7539
22736.8663
23395.7416
23910.7742
23952.762
23929.1103
23961.3108
23007.3871
22886.7931
23169.1703
23128.4144
23391.4963
23954.2583
23957.7546
23962.5163
23966.5993