/*--------------------------------*- C++ -*----------------------------------*\
| =========                 |                                                 |
| \\      /  F ield         | OpenFOAM: The Open Source CFD Toolbox           |
|  \\    /   O peration     | Version:  2306                                  |
|   \\  /    A nd           | Website:  www.openfoam.com                      |
|    \\/     M anipulation  |                                                 |
\*---------------------------------------------------------------------------*/
FoamFile
{
    version     2.0;
    format      ascii;
    arch        "LSB;label=32;scalar=64";
    class       volScalarField;
    location    "0.00014";
    object      prefDPV_T;
}
// * * * * * * * * * * * * * * * * * * * * * * * * * * * * * * * * * * * * * //

dimensions      [1 -1 -1 -1 0 0 0];

internalField   nonuniform List<scalar> 
3810
(
6.08959868e-10
5.8975741e-10
5.89839856e-10
6.08584612e-10
6.09087277e-10
5.89519256e-10
5.89709949e-10
6.08588526e-10
6.09054265e-10
5.8955692e-10
5.90067977e-10
5.89420629e-10
5.92005785e-10
6.08722736e-10
6.08041329e-10
6.08958628e-10
5.9021653e-10
5.89795949e-10
5.89775788e-10
5.90496931e-10
6.08461191e-10
6.08577257e-10
6.08470048e-10
6.09102548e-10
5.89594295e-10
5.89279964e-10
5.9003339e-10
5.89454535e-10
5.9072254e-10
6.08572501e-10
6.09071542e-10
5.89945661e-10
5.90425302e-10
6.08284172e-10
6.09043648e-10
5.90132701e-10
5.89418018e-10
5.90846555e-10
6.08564638e-10
6.08322363e-10
6.08806948e-10
6.08691568e-10
6.08912366e-10
6.09117102e-10
6.08942604e-10
6.09702885e-10
5.88873664e-10
5.879558e-10
5.89656687e-10
6.09064326e-10
6.09578036e-10
5.89404242e-10
5.89458851e-10
5.89642048e-10
5.90323914e-10
6.0853748e-10
6.09189845e-10
5.90143657e-10
5.9026184e-10
5.9022945e-10
5.91057873e-10
6.08263002e-10
6.08711487e-10
5.90348999e-10
5.90037497e-10
5.91205054e-10
6.08529823e-10
6.08740761e-10
5.90020073e-10
5.90561904e-10
6.08431399e-10
6.08924987e-10
5.896158e-10
5.89299387e-10
5.90334496e-10
6.08762609e-10
6.08865673e-10
5.89708957e-10
5.90110222e-10
6.08512108e-10
6.08939768e-10
5.89877071e-10
5.90036977e-10
5.89818433e-10
5.93865461e-10
6.08638143e-10
6.08040839e-10
6.08840267e-10
6.08355898e-10
6.08994573e-10
5.89561164e-10
5.89220796e-10
5.89658447e-10
5.9011664e-10
6.08540378e-10
6.08689599e-10
5.89884741e-10
5.90264206e-10
6.08413592e-10
6.08672897e-10
5.89851395e-10
5.89536865e-10
5.90456211e-10
6.08494825e-10
6.08501618e-10
5.89874058e-10
5.89809844e-10
5.90617307e-10
6.0852649e-10
6.08108585e-10
5.8959122e-10
5.91057934e-10
6.08656602e-10
6.08097481e-10
6.08683687e-10
5.90179583e-10
5.89843999e-10
5.89882994e-10
5.91273866e-10
6.08666143e-10
6.08288558e-10
6.08650408e-10
6.08759205e-10
5.89670055e-10
5.88774105e-10
5.89648924e-10
6.08810329e-10
6.08573803e-10
5.89935323e-10
5.89734196e-10
5.89860286e-10
5.90209159e-10
6.08619838e-10
6.08405144e-10
5.90167019e-10
5.89888761e-10
6.08777996e-10
6.08476355e-10
5.8983687e-10
5.89457849e-10
6.08965906e-10
6.08562952e-10
5.89631506e-10
5.89246611e-10
6.09039788e-10
6.08593245e-10
5.89846459e-10
5.89599915e-10
5.89778389e-10
5.9114646e-10
6.09161239e-10
6.08266356e-10
6.09131366e-10
6.08549977e-10
6.09065767e-10
5.89506985e-10
5.88738646e-10
5.89514738e-10
5.89755404e-10
6.02386149e-10
6.08723276e-10
6.0863889e-10
5.90510387e-10
5.90490199e-10
6.0904918e-10
6.08661316e-10
6.09039602e-10
6.08868895e-10
5.88923442e-10
5.88543022e-10
5.89636111e-10
5.90027719e-10
5.90238332e-10
5.91857618e-10
6.08693991e-10
6.08047812e-10
5.90171596e-10
5.90244915e-10
6.0867683e-10
6.08400636e-10
5.89718929e-10
5.90179457e-10
6.08710741e-10
6.08763314e-10
5.89316243e-10
5.89396664e-10
5.91769967e-10
6.09245675e-10
6.08270915e-10
6.09518946e-10
6.08741864e-10
6.09887634e-10
6.09136457e-10
6.099718e-10
5.87855312e-10
5.87859217e-10
5.89680376e-10
5.89419233e-10
5.91995592e-10
6.09050555e-10
6.08540389e-10
5.89599422e-10
5.90155997e-10
6.08949878e-10
6.09073388e-10
5.89152065e-10
5.89726685e-10
6.09124705e-10
6.09435331e-10
5.88325568e-10
5.88367476e-10
5.89783793e-10
5.90053464e-10
5.90406491e-10
5.99717364e-10
6.0892643e-10
6.08594348e-10
6.09341838e-10
5.89596632e-10
5.89541306e-10
5.96048704e-10
6.09094001e-10
6.08473898e-10
6.09662391e-10
6.08999891e-10
6.10089524e-10
5.88053486e-10
5.88056146e-10
5.89786077e-10
5.90152894e-10
5.90415371e-10
5.94015409e-10
6.08483446e-10
6.08746419e-10
5.90103214e-10
5.92214123e-10
6.08791675e-10
6.08920946e-10
6.09042323e-10
6.09785204e-10
5.884285e-10
5.88378248e-10
5.92443427e-10
6.0924008e-10
6.09160023e-10
5.89269238e-10
5.89306559e-10
5.93643492e-10
6.08849208e-10
6.09048839e-10
5.90173162e-10
5.91140146e-10
6.08755642e-10
6.09303797e-10
5.89498741e-10
5.89620205e-10
5.94969131e-10
6.08841948e-10
6.0920152e-10
5.90248968e-10
5.9119662e-10
6.0887489e-10
6.09417482e-10
5.89105024e-10
5.89192262e-10
5.93803753e-10
6.09121792e-10
6.09551286e-10
5.88996895e-10
5.89069701e-10
5.93465886e-10
6.08957992e-10
6.09408715e-10
5.90031064e-10
5.91377747e-10
6.08708084e-10
6.0862897e-10
6.09779971e-10
6.0918116e-10
6.10804788e-10
5.87653014e-10
5.87699064e-10
5.92405427e-10
6.09584991e-10
6.10003407e-10
5.88713948e-10
5.8879871e-10
5.93158529e-10
6.09176349e-10
6.0991886e-10
5.89693341e-10
5.91094505e-10
6.09058288e-10
6.10156916e-10
5.88687584e-10
5.8887796e-10
5.93481508e-10
6.09223886e-10
6.10010085e-10
5.89643343e-10
5.91079814e-10
6.09286856e-10
6.08841238e-10
6.10939596e-10
5.88384683e-10
5.88350552e-10
5.90157678e-10
5.90398207e-10
6.06629656e-10
6.08888315e-10
6.10001801e-10
6.09242967e-10
6.10639422e-10
6.09472546e-10
6.11699152e-10
5.87817213e-10
5.8799952e-10
5.93163561e-10
6.09532603e-10
6.10639244e-10
5.88833761e-10
5.88963404e-10
5.94004472e-10
6.09136718e-10
6.1055056e-10
5.89883811e-10
5.91291772e-10
6.09094261e-10
6.10825907e-10
5.89077867e-10
5.94116434e-10
6.10804383e-10
5.89573441e-10
5.89677355e-10
5.9079564e-10
5.95144943e-10
6.08616426e-10
6.1051059e-10
5.89517364e-10
5.89682927e-10
5.95342054e-10
6.08813498e-10
6.10629756e-10
5.90242233e-10
5.91489973e-10
6.08583459e-10
6.10880372e-10
5.9005735e-10
5.91358569e-10
6.08692431e-10
6.10929256e-10
5.89327319e-10
5.89653444e-10
5.90640358e-10
5.98923437e-10
6.08671798e-10
6.09797945e-10
6.09075563e-10
6.11577394e-10
5.88129494e-10
5.88383642e-10
5.92776035e-10
6.09403088e-10
6.11073215e-10
5.88751738e-10
5.8885858e-10
5.90228887e-10
5.90528469e-10
5.91052811e-10
5.98750109e-10
6.07950577e-10
6.10410869e-10
5.91049525e-10
5.97719542e-10
6.08535162e-10
6.08471707e-10
6.09754693e-10
6.08809291e-10
6.1129251e-10
5.88842331e-10
5.88965258e-10
5.90265254e-10
5.90273763e-10
5.9057801e-10
5.91379451e-10
6.05307905e-10
6.0804517e-10
6.10992001e-10
5.90698231e-10
5.93941592e-10
6.08798909e-10
6.08378999e-10
6.1065087e-10
5.89352296e-10
5.89427585e-10
5.90454703e-10
5.90455215e-10
5.9080643e-10
5.9137268e-10
6.02532531e-10
6.08022969e-10
6.10823296e-10
5.90749477e-10
5.92011455e-10
6.08219626e-10
6.10532802e-10
5.90328327e-10
5.93170721e-10
6.08633795e-10
6.09608649e-10
6.08957029e-10
6.11870594e-10
5.8828273e-10
5.88567371e-10
5.89783094e-10
5.90045564e-10
5.94586206e-10
6.08415017e-10
6.08261361e-10
6.09151172e-10
6.08747689e-10
6.10219093e-10
6.09103516e-10
6.12123713e-10
5.88251762e-10
5.88410327e-10
5.89805966e-10
5.90193504e-10
5.90225664e-10
5.93368901e-10
6.08648789e-10
6.10877809e-10
5.89732624e-10
5.91215501e-10
6.08855508e-10
6.11224851e-10
5.88828908e-10
5.89132003e-10
5.90087761e-10
5.9010913e-10
5.93933308e-10
6.08860263e-10
6.10687078e-10
5.89881644e-10
5.91115265e-10
6.08989266e-10
6.10987373e-10
5.89180451e-10
5.90971635e-10
6.08883185e-10
6.08659978e-10
6.09609543e-10
6.09007347e-10
6.10503852e-10
6.09171861e-10
6.11935868e-10
5.8884583e-10
5.8903727e-10
5.89928289e-10
5.91888802e-10
6.08908661e-10
6.10688911e-10
5.88938756e-10
5.89172644e-10
5.90113398e-10
5.90005908e-10
5.9424714e-10
6.08755305e-10
6.10046546e-10
5.89527102e-10
5.89651368e-10
5.94428646e-10
6.08898261e-10
6.09455651e-10
6.08923343e-10
6.113731e-10
5.89205712e-10
5.9011591e-10
6.08853353e-10
6.10992955e-10
5.89286733e-10
5.90275765e-10
6.08821623e-10
6.10841076e-10
5.89390013e-10
5.90350961e-10
6.0880982e-10
6.10560343e-10
5.89382849e-10
5.89577374e-10
5.90072413e-10
5.9528709e-10
6.08835631e-10
6.08879141e-10
6.09149958e-10
6.09967673e-10
6.09402589e-10
6.1119813e-10
5.87746922e-10
5.87801997e-10
5.89450028e-10
5.89948106e-10
5.90255714e-10
5.93113284e-10
6.08444132e-10
6.08306129e-10
6.09484716e-10
5.89517102e-10
5.89598559e-10
5.9301721e-10
6.08836576e-10
6.09392859e-10
5.90028078e-10
5.91135417e-10
6.08779461e-10
6.0942821e-10
5.89521786e-10
5.92786131e-10
6.09422317e-10
6.08421712e-10
6.10154541e-10
5.89245349e-10
5.89144973e-10
5.89972379e-10
5.91468267e-10
6.08791647e-10
6.09177554e-10
5.89451483e-10
5.91866164e-10
6.09270093e-10
6.0851037e-10
6.09952348e-10
5.8851785e-10
5.88537262e-10
5.89729315e-10
5.90069575e-10
5.9034525e-10
5.96093611e-10
6.08361986e-10
6.08222534e-10
6.09080629e-10
5.89574699e-10
5.89627154e-10
5.96168815e-10
6.08716832e-10
6.0876528e-10
5.89749171e-10
5.92010964e-10
6.0897882e-10
6.08260914e-10
6.09418316e-10
5.89488199e-10
5.8945963e-10
5.90065903e-10
5.91763539e-10
6.08427064e-10
6.08621079e-10
5.89752623e-10
5.89875818e-10
5.94992446e-10
6.08435586e-10
6.08294894e-10
5.90174577e-10
5.93709131e-10
6.08599965e-10
6.08168063e-10
6.08847159e-10
5.89666883e-10
5.89542013e-10
5.90290112e-10
5.90388089e-10
5.90586368e-10
5.94135272e-10
6.08306772e-10
6.08171254e-10
5.90260034e-10
5.90353588e-10
6.08401519e-10
6.08210508e-10
5.89463248e-10
5.90970572e-10
6.09025683e-10
6.08260018e-10
6.09316968e-10
5.89297023e-10
5.88180236e-10
5.90730341e-10
6.0903722e-10
6.08559183e-10
5.89143834e-10
5.89202161e-10
5.90675474e-10
6.08776567e-10
6.08357426e-10
5.89636003e-10
5.9002148e-10
6.08821299e-10
6.08696647e-10
5.8955074e-10
5.89481659e-10
6.09184707e-10
6.09115424e-10
5.88253551e-10
5.88785021e-10
6.09640274e-10
6.08999013e-10
6.09706846e-10
6.08925613e-10
6.09584139e-10
5.89621672e-10
5.89431487e-10
6.08716333e-10
6.09297163e-10
5.89690416e-10
5.89814668e-10
5.90004494e-10
5.91071113e-10
6.08672394e-10
6.08998942e-10
5.89196785e-10
5.89331601e-10
5.90140113e-10
5.90103995e-10
5.94880942e-10
6.08515958e-10
6.08569194e-10
5.90422279e-10
5.90588332e-10
6.08532375e-10
6.08898312e-10
5.90058211e-10
5.90496819e-10
6.08771143e-10
6.08948934e-10
5.89184266e-10
5.92961485e-10
6.0956629e-10
5.8990465e-10
5.88802276e-10
5.92410117e-10
6.09075763e-10
6.09580985e-10
5.88963308e-10
5.89104922e-10
5.90070791e-10
5.89987514e-10
5.93854409e-10
6.08576374e-10
6.08080023e-10
6.09449751e-10
6.08339203e-10
6.10385111e-10
5.89686721e-10
5.90290423e-10
6.08628703e-10
6.09677608e-10
5.89070879e-10
5.89325681e-10
5.9332738e-10
6.08885082e-10
6.09341638e-10
5.89668581e-10
5.90681439e-10
6.08582811e-10
6.09408392e-10
5.90055802e-10
5.92007532e-10
6.08648552e-10
6.09191369e-10
6.08824711e-10
6.10279311e-10
5.89012516e-10
5.89123624e-10
5.90063179e-10
5.92072881e-10
6.08544544e-10
6.09527066e-10
5.89785284e-10
5.90619822e-10
6.0858606e-10
6.09759112e-10
5.89752363e-10
5.90646651e-10
6.08757883e-10
6.09590961e-10
5.89374932e-10
5.93540539e-10
6.09644484e-10
5.89719189e-10
5.89621523e-10
5.90307915e-10
5.92069101e-10
6.0880131e-10
6.09584874e-10
5.88958139e-10
5.89088234e-10
5.90141103e-10
5.90269342e-10
5.95145213e-10
6.0857211e-10
6.08310789e-10
6.09373695e-10
6.08788277e-10
6.10232033e-10
6.09158289e-10
6.10880296e-10
5.88428319e-10
5.88425972e-10
5.89408883e-10
5.91514588e-10
6.09227202e-10
6.08611074e-10
6.1003287e-10
5.88943371e-10
5.88542054e-10
5.9340457e-10
6.0915562e-10
6.09557539e-10
5.89479204e-10
5.89493208e-10
5.90553442e-10
5.90373903e-10
5.9496484e-10
6.0849879e-10
6.0943091e-10
5.89695923e-10
5.89798184e-10
5.90788753e-10
5.95087587e-10
6.07821944e-10
6.09359797e-10
5.91318411e-10
5.97235479e-10
6.0806872e-10
6.09109319e-10
6.08395061e-10
6.10288062e-10
5.89339904e-10
5.89527002e-10
5.90416403e-10
5.90448132e-10
5.9595721e-10
6.0822197e-10
6.09760609e-10
5.90383106e-10
5.91324213e-10
6.08129501e-10
6.09915707e-10
5.9047538e-10
5.92111427e-10
6.08434279e-10
6.10105497e-10
5.89433496e-10
5.89511083e-10
5.90070984e-10
5.90063253e-10
5.89595676e-10
5.92815454e-10
6.08942092e-10
6.07887991e-10
6.10934943e-10
5.91083999e-10
5.91748445e-10
6.0819603e-10
6.10497728e-10
5.8999857e-10
5.90286389e-10
5.90323924e-10
5.9436406e-10
6.08592901e-10
6.09206753e-10
6.08950271e-10
6.11047263e-10
5.88308983e-10
5.88517857e-10
5.91382752e-10
6.09292092e-10
6.11133036e-10
5.89066007e-10
5.90223751e-10
6.08921598e-10
6.10976021e-10
5.89541272e-10
5.92041932e-10
6.08899603e-10
6.09497519e-10
6.09021244e-10
6.11416741e-10
5.88822042e-10
5.88991071e-10
5.89605937e-10
5.91231582e-10
6.08790571e-10
6.10028081e-10
5.89098914e-10
5.89272096e-10
5.92620335e-10
6.08911718e-10
6.09253694e-10
6.08820793e-10
6.11095506e-10
5.89526801e-10
5.90576034e-10
6.08598216e-10
6.10370266e-10
5.89532265e-10
5.8981577e-10
5.90515398e-10
5.90554836e-10
5.95634764e-10
6.08526485e-10
6.09774827e-10
5.90519647e-10
5.93438e-10
6.08858402e-10
6.08346158e-10
6.10539694e-10
5.89229212e-10
5.88710713e-10
5.89987383e-10
5.89319342e-10
5.90838068e-10
6.11594508e-10
6.08373796e-10
6.10947549e-10
5.89646835e-10
5.89541397e-10
5.90815701e-10
5.93621552e-10
6.08318053e-10
6.0964312e-10
5.90375456e-10
5.94258765e-10
6.08754275e-10
6.08111142e-10
6.10346427e-10
5.89999968e-10
5.90361545e-10
6.08183123e-10
6.09906293e-10
5.90348419e-10
5.9119313e-10
6.08105229e-10
6.09268093e-10
5.89642088e-10
5.89291943e-10
5.90837425e-10
6.08476578e-10
6.08693299e-10
5.90416852e-10
5.9011806e-10
6.00556801e-10
6.08331177e-10
6.09247793e-10
5.8985475e-10
5.89698645e-10
5.89613747e-10
5.90573462e-10
6.08654329e-10
6.0908116e-10
6.08771383e-10
6.09927236e-10
5.88946958e-10
5.8810486e-10
5.89886539e-10
6.09333604e-10
6.09634122e-10
5.89009669e-10
5.88996357e-10
5.89030108e-10
5.90100939e-10
6.08917335e-10
6.09161695e-10
6.08816907e-10
6.09552827e-10
5.897271e-10
5.89004692e-10
5.89984386e-10
5.88897341e-10
5.90346714e-10
6.09236175e-10
6.08639429e-10
6.09340946e-10
6.08812059e-10
6.09309367e-10
5.89390532e-10
5.89300296e-10
6.08913244e-10
6.08966762e-10
5.89557798e-10
5.89714126e-10
6.0891745e-10
6.08782264e-10
5.89820414e-10
5.89814427e-10
6.08984403e-10
6.086306e-10
5.90086346e-10
5.89909794e-10
6.06269711e-10
6.08528908e-10
6.09437542e-10
5.90071426e-10
5.88216007e-10
5.89101497e-10
6.09556858e-10
6.08760857e-10
5.8957024e-10
5.88899932e-10
6.09618117e-10
6.0882747e-10
5.90098876e-10
5.89322267e-10
5.89274548e-10
5.89398716e-10
6.09450073e-10
6.08707642e-10
6.09013571e-10
6.08662976e-10
5.90080127e-10
5.89244101e-10
6.10275543e-10
6.08644467e-10
5.9078332e-10
5.89935783e-10
6.10323092e-10
6.08683358e-10
6.09160715e-10
6.08749521e-10
5.915158e-10
5.89576099e-10
5.89523972e-10
5.89390909e-10
6.10359756e-10
6.08730345e-10
5.9085715e-10
5.8966439e-10
6.10536069e-10
6.08699615e-10
5.91512525e-10
5.8973935e-10
5.89628957e-10
5.89440281e-10
6.1132702e-10
6.08575414e-10
5.9177596e-10
5.90746429e-10
6.11955023e-10
6.08307202e-10
6.08628546e-10
5.92103036e-10
5.89914397e-10
6.11765432e-10
6.08899927e-10
5.92104017e-10
5.89994241e-10
6.09521207e-10
6.08851261e-10
5.94301439e-10
5.90924693e-10
5.98706327e-10
5.95664698e-10
5.90309686e-10
6.04968151e-10
6.09406714e-10
5.95189027e-10
5.9005773e-10
6.00107648e-10
6.10073e-10
5.96605431e-10
5.8957086e-10
5.96968625e-10
6.10606467e-10
6.00081652e-10
5.89806822e-10
5.89414544e-10
5.89665976e-10
5.89457754e-10
5.89576119e-10
5.9692585e-10
6.11221558e-10
6.08893423e-10
6.09287028e-10
5.95241632e-10
5.92053479e-10
6.04752725e-10
6.08773476e-10
6.08949324e-10
5.9479268e-10
5.90471584e-10
5.8989754e-10
5.90250516e-10
6.12132765e-10
6.09104334e-10
5.97004962e-10
5.91053413e-10
5.98175417e-10
6.09300919e-10
6.09223645e-10
5.94080172e-10
5.89569774e-10
5.892955e-10
6.12118563e-10
6.09218207e-10
5.96520033e-10
5.90416234e-10
5.97491768e-10
6.09774461e-10
5.99486506e-10
5.90118309e-10
5.97800875e-10
6.10049095e-10
5.97284249e-10
6.0154995e-10
6.09466621e-10
5.93374567e-10
5.89152177e-10
5.89721547e-10
5.89245815e-10
5.89442651e-10
6.09994377e-10
6.08967774e-10
5.9524687e-10
5.90436501e-10
6.01499786e-10
6.090459e-10
5.94148387e-10
5.89935315e-10
6.08165045e-10
6.0976797e-10
5.91790733e-10
5.88305929e-10
5.89500211e-10
6.09534696e-10
6.08779427e-10
6.10040913e-10
6.0871273e-10
6.09949629e-10
6.08559741e-10
6.10330262e-10
5.89844181e-10
5.89090356e-10
5.89483869e-10
5.89575894e-10
5.89326646e-10
5.9077554e-10
6.08826297e-10
6.1078457e-10
5.89677158e-10
5.91391605e-10
6.08844148e-10
6.09351088e-10
6.08926495e-10
6.10621199e-10
5.89848758e-10
5.89838297e-10
5.90345646e-10
5.90357636e-10
5.90299623e-10
5.96693276e-10
6.08677725e-10
6.10018659e-10
5.90739339e-10
5.94707802e-10
6.08837666e-10
6.04700678e-10
5.90561394e-10
5.94480729e-10
6.089267e-10
6.12107698e-10
5.89742125e-10
5.89932788e-10
5.90580083e-10
5.96364619e-10
6.09169955e-10
6.05803405e-10
5.90903238e-10
5.95988412e-10
6.09225385e-10
6.03271754e-10
5.90663837e-10
5.95851573e-10
6.09455827e-10
6.03221368e-10
5.90487609e-10
5.95074493e-10
6.0962404e-10
6.03650743e-10
5.90422345e-10
5.94366313e-10
6.0977797e-10
6.04442136e-10
5.9041653e-10
5.93603791e-10
6.09917153e-10
6.05856514e-10
5.90403454e-10
5.92661814e-10
6.10028023e-10
6.07582822e-10
5.9043247e-10
5.91834325e-10
6.10349098e-10
6.08659151e-10
5.90463844e-10
5.91521988e-10
6.09791077e-10
6.10676061e-10
5.90865171e-10
5.91171005e-10
5.93331144e-10
5.90986611e-10
5.89995152e-10
5.90266488e-10
5.9106249e-10
6.09076565e-10
6.08043667e-10
6.11377695e-10
5.91427851e-10
5.90974068e-10
6.06370795e-10
6.09871676e-10
5.94830708e-10
5.90551695e-10
6.03844059e-10
6.10260732e-10
5.93298548e-10
5.90183415e-10
5.98626129e-10
6.09673927e-10
6.01444368e-10
5.88614316e-10
5.89156593e-10
5.99070653e-10
6.08715513e-10
6.08479717e-10
6.11351206e-10
5.89966156e-10
5.89903928e-10
5.97209817e-10
6.09242053e-10
6.12130672e-10
5.89725848e-10
5.91573393e-10
6.09442076e-10
6.10301595e-10
5.88559497e-10
5.88716633e-10
5.90112797e-10
5.94091638e-10
6.09028916e-10
6.12099015e-10
5.89518158e-10
5.9285086e-10
6.09084517e-10
6.09118014e-10
6.0932685e-10
6.10449796e-10
6.09402836e-10
6.12095612e-10
5.8890536e-10
5.89065981e-10
5.900217e-10
5.9357958e-10
6.09057666e-10
6.11362761e-10
5.8857835e-10
5.8877733e-10
5.93685072e-10
6.09184539e-10
6.11059904e-10
5.8949579e-10
5.89567345e-10
5.90606166e-10
5.94714004e-10
6.0845586e-10
6.10260647e-10
5.90427863e-10
5.93066392e-10
6.08862444e-10
6.09522901e-10
6.09276054e-10
6.11636037e-10
5.87634517e-10
5.8772721e-10
5.89306769e-10
5.89697441e-10
5.89992306e-10
5.98492879e-10
6.08466823e-10
6.08440545e-10
6.08543608e-10
6.08879814e-10
6.08633812e-10
6.09457082e-10
6.08746602e-10
6.10276994e-10
5.88947628e-10
5.88522021e-10
5.89351527e-10
5.89084927e-10
5.89713349e-10
5.89442096e-10
5.9305499e-10
6.08585159e-10
6.08507552e-10
6.08699782e-10
6.09549853e-10
5.89597833e-10
5.89346816e-10
5.89614049e-10
5.91881595e-10
6.08952674e-10
6.08149725e-10
6.09372145e-10
5.90089156e-10
5.89892286e-10
5.90481581e-10
5.93991753e-10
6.08361552e-10
6.08556307e-10
6.08493197e-10
6.09322722e-10
5.89677797e-10
5.89416875e-10
5.90072845e-10
5.8945096e-10
5.90943271e-10
6.0888281e-10
6.08779038e-10
6.08900156e-10
6.09536688e-10
5.89639871e-10
5.90733921e-10
6.09236716e-10
6.08606624e-10
6.09686869e-10
5.89470912e-10
5.88840291e-10
5.89432746e-10
5.90198754e-10
6.09032576e-10
6.09485305e-10
5.8876385e-10
5.887959e-10
5.89149309e-10
5.8933855e-10
5.88923765e-10
5.9049579e-10
6.08919474e-10
6.09108067e-10
6.08764792e-10
6.09790261e-10
5.89885708e-10
5.89019996e-10
5.90994878e-10
6.08884368e-10
6.08858979e-10
6.08784526e-10
6.09901827e-10
5.89996301e-10
5.90200027e-10
6.08774942e-10
6.09796799e-10
5.89441568e-10
5.90701811e-10
6.0920675e-10
6.08587587e-10
6.09783648e-10
5.89972955e-10
5.89891238e-10
6.08769789e-10
6.09906578e-10
5.89384403e-10
5.9048704e-10
6.09302344e-10
6.0861894e-10
6.09848194e-10
5.89781761e-10
5.88966571e-10
5.89451629e-10
5.90096554e-10
6.08541558e-10
6.09464328e-10
5.90219004e-10
5.89186447e-10
5.9061686e-10
6.08595922e-10
6.09220068e-10
5.90498648e-10
5.89275033e-10
5.9088197e-10
6.08758794e-10
6.08093604e-10
6.09614945e-10
5.9033292e-10
5.89014513e-10
5.9044817e-10
6.08871772e-10
6.09382888e-10
5.90198607e-10
5.90231873e-10
6.08699622e-10
6.09580388e-10
5.89920105e-10
5.90026461e-10
6.08840114e-10
6.09693328e-10
5.89718135e-10
5.8988896e-10
6.08958209e-10
6.09747748e-10
5.89560381e-10
5.89929516e-10
6.08914423e-10
6.09632384e-10
5.89859187e-10
5.88442264e-10
5.8971734e-10
6.09258869e-10
6.08958879e-10
6.09146966e-10
6.09290331e-10
5.9037663e-10
5.89144454e-10
5.89676208e-10
5.89999211e-10
6.08837281e-10
6.08830148e-10
5.9069958e-10
5.90603449e-10
6.09359794e-10
6.08235898e-10
6.0919357e-10
5.90786351e-10
5.89666859e-10
5.90070625e-10
5.90873881e-10
6.09025982e-10
6.08317811e-10
5.90008335e-10
5.89250539e-10
6.09584324e-10
6.08860759e-10
5.91706074e-10
5.8981059e-10
5.91293866e-10
6.09499151e-10
6.08147437e-10
5.90608063e-10
5.89628561e-10
6.10528154e-10
6.09030381e-10
5.89863183e-10
5.8815805e-10
5.91342708e-10
6.10291382e-10
6.08585043e-10
6.09175317e-10
6.09026866e-10
5.90472171e-10
5.8893986e-10
5.90511119e-10
6.10280718e-10
6.08473775e-10
5.89497613e-10
5.88871239e-10
6.11461138e-10
6.08840749e-10
6.09533307e-10
5.89930032e-10
5.89037874e-10
5.9083351e-10
5.9656845e-10
6.08588769e-10
6.08166024e-10
5.91123152e-10
5.92642279e-10
6.08806333e-10
6.0862516e-10
6.0817243e-10
6.08854965e-10
5.94779561e-10
5.87855675e-10
5.88093031e-10
5.89461977e-10
5.89523156e-10
5.90103605e-10
5.99193832e-10
6.09200342e-10
6.08339598e-10
6.09165013e-10
5.98526089e-10
5.88840246e-10
5.88770031e-10
5.95651185e-10
6.09405126e-10
6.09251271e-10
5.89005196e-10
5.88721307e-10
5.95152958e-10
6.09412975e-10
6.09269693e-10
5.89618706e-10
5.90736431e-10
6.09435102e-10
6.1013799e-10
5.87966503e-10
5.8791473e-10
5.93387645e-10
6.09673054e-10
6.09686106e-10
5.89042859e-10
5.91310594e-10
6.0906042e-10
6.08804186e-10
6.08634766e-10
6.09516677e-10
5.96576106e-10
5.89731596e-10
5.92202561e-10
6.09807106e-10
6.08607138e-10
6.119826e-10
5.89284261e-10
5.90099121e-10
6.09585271e-10
6.11928682e-10
5.87514568e-10
5.87596491e-10
5.89953947e-10
5.89956001e-10
5.9030131e-10
5.93612669e-10
6.08776292e-10
6.08696525e-10
6.09177116e-10
6.09367622e-10
6.09193294e-10
6.10106174e-10
6.08820797e-10
6.11360219e-10
5.90020006e-10
5.87433812e-10
5.88513031e-10
5.89298944e-10
5.89478617e-10
5.90461204e-10
5.90681485e-10
5.9858344e-10
6.09099772e-10
6.08863341e-10
6.10580723e-10
6.09400692e-10
6.11050755e-10
5.87682827e-10
5.87917037e-10
5.89880243e-10
5.90082257e-10
5.97158467e-10
6.09195245e-10
6.08378565e-10
6.11536632e-10
5.90417631e-10
5.91621506e-10
6.08925977e-10
6.08909248e-10
6.10510698e-10
6.09463509e-10
6.12614961e-10
5.87386323e-10
5.87584617e-10
5.93331969e-10
6.09658075e-10
6.11258726e-10
5.89278514e-10
5.91211369e-10
6.09119492e-10
6.11393003e-10
5.89518878e-10
5.91252913e-10
6.09124918e-10
6.11288077e-10
5.88749203e-10
5.89014702e-10
5.96675416e-10
6.09463357e-10
6.09764675e-10
6.09528652e-10
6.11803892e-10
5.88239003e-10
5.88397753e-10
5.93785546e-10
6.09475953e-10
6.10924492e-10
5.88940108e-10
5.89082696e-10
5.94386378e-10
6.0923742e-10
6.1089028e-10
5.89141623e-10
5.89319802e-10
5.94520176e-10
6.09082097e-10
6.10848408e-10
5.89900508e-10
5.91490328e-10
6.09030458e-10
6.11181595e-10
5.89240741e-10
5.98542099e-10
6.11146734e-10
5.90647127e-10
5.91420178e-10
6.08981543e-10
6.08530772e-10
6.11706765e-10
5.89827594e-10
5.90405667e-10
6.08943735e-10
6.11550287e-10
5.88929874e-10
5.89134269e-10
5.90081693e-10
5.9336423e-10
6.08817471e-10
6.10834885e-10
5.89184456e-10
5.89437463e-10
5.93569846e-10
6.08973852e-10
6.10862227e-10
5.89781803e-10
5.89903664e-10
5.90872011e-10
5.95837469e-10
6.08360838e-10
6.1049152e-10
5.90535677e-10
5.94019876e-10
6.08755155e-10
6.09414264e-10
6.09114968e-10
6.11547996e-10
5.8828459e-10
5.88533923e-10
5.93054779e-10
6.09675735e-10
6.09854346e-10
6.09812146e-10
6.12296575e-10
5.87262657e-10
5.87315608e-10
5.89224533e-10
5.89675292e-10
5.89908918e-10
5.95327284e-10
6.08930618e-10
6.08654914e-10
6.09157642e-10
6.09531573e-10
6.09373901e-10
6.10605605e-10
6.09492728e-10
6.12132244e-10
5.88090601e-10
5.88305514e-10
5.89881176e-10
5.90194495e-10
5.91209812e-10
6.01090415e-10
6.08401316e-10
6.10664391e-10
5.90247432e-10
5.90807334e-10
6.08868667e-10
6.10918249e-10
5.89244397e-10
5.9017591e-10
6.09402732e-10
6.11203157e-10
5.8770229e-10
5.87717804e-10
5.88808098e-10
5.90651915e-10
6.08897549e-10
6.08660895e-10
6.1004551e-10
6.08786688e-10
6.11061123e-10
5.8997334e-10
5.91266937e-10
6.08992124e-10
6.09726977e-10
6.09201808e-10
6.10856449e-10
5.88429875e-10
5.88540864e-10
5.89883056e-10
5.90327937e-10
5.90402056e-10
5.95189282e-10
6.08939489e-10
6.09562105e-10
5.89108752e-10
5.93812324e-10
6.10749608e-10
5.89319982e-10
5.89471429e-10
6.09630466e-10
6.09204648e-10
6.10481517e-10
6.09289897e-10
6.11186603e-10
5.88631248e-10
5.88725152e-10
5.89851015e-10
5.93636723e-10
6.09038688e-10
6.0832993e-10
6.09790716e-10
5.89726802e-10
5.89703522e-10
5.90696968e-10
5.95229727e-10
6.08391016e-10
6.08992463e-10
5.90151499e-10
5.92564322e-10
6.08911289e-10
6.08411481e-10
6.09660509e-10
5.88627866e-10
5.88795894e-10
5.89817631e-10
5.89416039e-10
5.9108483e-10
6.09384032e-10
6.07946111e-10
6.10028783e-10
5.90502209e-10
5.90634937e-10
6.08063021e-10
6.08936997e-10
5.90401005e-10
5.90828125e-10
6.08080819e-10
6.0860874e-10
5.90150162e-10
5.94573789e-10
6.08543003e-10
6.08083163e-10
6.08979294e-10
5.89840492e-10
5.8910795e-10
5.89904366e-10
5.89651816e-10
5.89836851e-10
5.90221203e-10
5.89713193e-10
5.97380147e-10
6.08551107e-10
6.08010295e-10
6.08586501e-10
5.90597626e-10
5.92880964e-10
6.08274929e-10
6.07980909e-10
6.0843826e-10
5.90444976e-10
5.90106871e-10
5.90250667e-10
5.92357119e-10
6.08529413e-10
6.08415e-10
5.89065295e-10
5.89028624e-10
5.89856873e-10
5.8981816e-10
5.90551374e-10
5.98113487e-10
6.08242341e-10
6.0811267e-10
5.90342941e-10
5.91833047e-10
6.08593426e-10
6.08321445e-10
6.0877399e-10
5.89735747e-10
5.89072968e-10
5.89633076e-10
5.89769042e-10
5.89105979e-10
5.90553636e-10
6.09102273e-10
6.08370705e-10
6.09084552e-10
6.08529707e-10
6.08932087e-10
5.89670126e-10
5.89902871e-10
6.08732116e-10
6.08640402e-10
6.08840555e-10
5.90013215e-10
5.89226192e-10
5.90341048e-10
5.89558884e-10
5.95782888e-10
6.08871776e-10
6.08120344e-10
6.08947026e-10
6.08385815e-10
5.88945469e-10
5.88891653e-10
5.89577347e-10
5.91285947e-10
6.08440701e-10
6.07978281e-10
6.081763e-10
6.08300211e-10
5.90355831e-10
5.89254386e-10
5.94244385e-10
6.0887402e-10
6.07568915e-10
6.08896418e-10
5.92709891e-10
5.89160896e-10
5.90414236e-10
6.09076964e-10
6.08380314e-10
5.89388042e-10
5.89078174e-10
5.89599632e-10
5.89430836e-10
5.89953344e-10
5.89221962e-10
5.89707461e-10
6.09453018e-10
6.08665274e-10
6.09324913e-10
6.08634519e-10
5.89497644e-10
5.89516449e-10
6.09310009e-10
6.08642695e-10
6.09274803e-10
5.89798891e-10
5.88200717e-10
5.90218532e-10
6.09710479e-10
6.08666779e-10
5.88879605e-10
5.88803353e-10
6.09859294e-10
6.09199912e-10
6.0990424e-10
6.09209315e-10
6.09807814e-10
6.09116525e-10
6.09605339e-10
5.89313623e-10
5.88158533e-10
5.89604865e-10
5.89885269e-10
5.90192117e-10
5.91911328e-10
6.08822219e-10
6.08005461e-10
5.90429528e-10
5.90133528e-10
6.09072038e-10
6.08388711e-10
5.89624411e-10
5.89916232e-10
6.09052566e-10
6.08636623e-10
6.09022785e-10
5.89931191e-10
5.88788263e-10
6.09144251e-10
6.09030692e-10
5.89329584e-10
5.88769947e-10
5.89624826e-10
5.89621985e-10
5.98993166e-10
6.08752727e-10
6.0837795e-10
5.90241755e-10
5.8980212e-10
5.90237739e-10
5.92497379e-10
6.08467883e-10
6.08237657e-10
5.90216472e-10
5.8950571e-10
5.93482912e-10
6.08520259e-10
6.08113195e-10
5.90288258e-10
5.89863226e-10
5.913212e-10
6.08199144e-10
6.08569925e-10
5.90742015e-10
6.08695063e-10
6.08436365e-10
5.88818176e-10
5.90315231e-10
6.08265415e-10
6.08852627e-10
5.95107441e-10
5.88838669e-10
5.90235092e-10
6.08969771e-10
6.08825608e-10
6.09344268e-10
6.0956634e-10
5.88203128e-10
5.88220739e-10
5.89629068e-10
5.88926667e-10
5.90600521e-10
6.09208244e-10
6.09192897e-10
6.09510032e-10
6.09799504e-10
6.09678297e-10
6.10606462e-10
5.8839491e-10
5.90083273e-10
6.09964728e-10
6.09224221e-10
6.11014421e-10
5.88142221e-10
5.88078767e-10
5.89479992e-10
5.91223159e-10
6.09151988e-10
6.08469405e-10
6.10513399e-10
5.90209442e-10
5.90345166e-10
6.08788285e-10
6.10551517e-10
5.89740336e-10
5.90383294e-10
6.0912955e-10
6.10863513e-10
5.88633448e-10
5.88714884e-10
5.89703589e-10
5.92252787e-10
6.09041002e-10
6.08857302e-10
6.1051817e-10
6.09529471e-10
6.11843728e-10
5.86846731e-10
5.86874442e-10
5.89590431e-10
5.89866045e-10
5.90605608e-10
5.94851532e-10
6.08874407e-10
6.08487958e-10
6.10388081e-10
6.08854988e-10
6.11777243e-10
5.89291417e-10
5.90608315e-10
6.08937652e-10
6.08819543e-10
6.0990578e-10
5.98783807e-10
5.87575996e-10
5.87987296e-10
5.89558678e-10
5.89622529e-10
5.91052293e-10
6.1119795e-10
6.09946125e-10
6.09774635e-10
6.1150207e-10
5.90279502e-10
5.90996881e-10
6.08758801e-10
6.11105587e-10
5.89950102e-10
5.91251732e-10
6.08911602e-10
6.11296134e-10
5.89082211e-10
5.89393309e-10
6.02073225e-10
6.09334597e-10
6.09107688e-10
6.09394182e-10
6.09577933e-10
6.00908561e-10
5.8830532e-10
5.88370095e-10
5.93961084e-10
6.09483321e-10
6.10966036e-10
5.89001669e-10
5.8903363e-10
5.90833914e-10
5.97602868e-10
6.08936345e-10
5.97720568e-10
5.91089574e-10
6.08908573e-10
6.1165137e-10
5.89104599e-10
5.89510729e-10
5.91203308e-10
5.94385261e-10
6.08066973e-10
6.11268274e-10
5.93557794e-10
6.10638793e-10
6.10765844e-10
5.88546712e-10
5.97396578e-10
6.08932883e-10
5.90433573e-10
5.91899613e-10
6.0915532e-10
6.01743473e-10
5.88778761e-10
5.8895033e-10
5.9011324e-10
5.90572843e-10
6.02997524e-10
6.09628738e-10
6.09183695e-10
6.113794e-10
5.88486641e-10
5.88617417e-10
5.95701998e-10
6.09172361e-10
6.10302473e-10
5.90273245e-10
5.93647238e-10
6.08623606e-10
6.08585978e-10
6.09087205e-10
6.09232323e-10
6.01464228e-10
5.8896773e-10
5.89124978e-10