/*--------------------------------*- C++ -*----------------------------------*\
| =========                 |                                                 |
| \\      /  F ield         | OpenFOAM: The Open Source CFD Toolbox           |
|  \\    /   O peration     | Version:  2306                                  |
|   \\  /    A nd           | Website:  www.openfoam.com                      |
|    \\/     M anipulation  |                                                 |
\*---------------------------------------------------------------------------*/
FoamFile
{
    version     2.0;
    format      ascii;
    arch        "LSB;label=32;scalar=64";
    class       volScalarField;
    location    "0.00138";
    object      alpha;
}
// * * * * * * * * * * * * * * * * * * * * * * * * * * * * * * * * * * * * * //

dimensions      [1 -1 -1 0 0 0 0];

internalField   nonuniform List<scalar> 
530
(
3.68142879e-05
3.68348522e-05
3.57453161e-05
3.53361217e-05
3.56958025e-05
3.68108945e-05
3.68340247e-05
3.57485177e-05
3.5347947e-05
3.57004285e-05
3.680823e-05
3.68340167e-05
3.57510898e-05
3.53568394e-05
3.57076972e-05
3.68069223e-05
3.68319558e-05
3.57558303e-05
3.53876855e-05
3.5716837e-05
3.68077382e-05
3.68337111e-05
3.57589791e-05
3.54097553e-05
3.54928368e-05
3.54267537e-05
3.57076213e-05
3.6810671e-05
3.68145838e-05
3.682221e-05
3.68373094e-05
3.57487586e-05
3.57500958e-05
3.66838927e-05
3.68135984e-05
3.57312256e-05
3.52457054e-05
3.5245033e-05
3.570096e-05
3.68179398e-05
3.68099651e-05
3.57030826e-05
3.52013911e-05
3.56904644e-05
3.68092728e-05
3.68287586e-05
3.57352346e-05
3.53067576e-05
3.53660237e-05
3.57626413e-05
3.68251677e-05
3.68037738e-05
3.68387624e-05
3.67974413e-05
3.56904875e-05
3.50345419e-05
3.56477956e-05
3.68130168e-05
3.68226515e-05
3.57491885e-05
3.52450369e-05
3.52720672e-05
3.57047757e-05
3.68422583e-05
3.68035338e-05
3.57210314e-05
3.52289302e-05
3.57022978e-05
3.68503067e-05
3.68082278e-05
3.57182158e-05
3.52651795e-05
3.56923956e-05
3.68502657e-05
3.68262674e-05
3.57718759e-05
3.57311799e-05
3.68045022e-05
3.68072425e-05
3.57778276e-05
3.53846556e-05
3.54377376e-05
3.53041916e-05
3.56392509e-05
3.65742862e-05
3.68643379e-05
3.67514167e-05
3.57058952e-05
3.52828531e-05
3.57149806e-05
3.68274688e-05
3.67705192e-05
3.5457512e-05
3.56126819e-05
3.68645864e-05
3.67908636e-05
3.56999542e-05
3.51809512e-05
3.57573858e-05
3.67633519e-05
3.58676687e-05
3.55880453e-05
3.60262551e-05
3.68220977e-05
3.58456595e-05
3.56440479e-05
3.58751902e-05
3.68323511e-05
3.67552379e-05
3.53704947e-05
3.52126924e-05
3.58168237e-05
3.68061322e-05
3.67048683e-05
3.53370365e-05
3.51746393e-05
3.57995145e-05
3.68035015e-05
3.67526563e-05
3.5328752e-05
3.51381201e-05
3.58511826e-05
3.68000713e-05
3.59850089e-05
3.56672721e-05
3.58214086e-05
3.6810417e-05
3.67808871e-05
3.54661453e-05
3.52392338e-05
3.57875798e-05
3.67914061e-05
3.68054892e-05
3.54826757e-05
3.5216619e-05
3.57798159e-05
3.67899412e-05
3.68105309e-05
3.54872859e-05
3.5197835e-05
3.57722191e-05
3.67885615e-05
3.68164393e-05
3.54453905e-05
3.51312331e-05
3.57650475e-05
3.67965631e-05
3.63375975e-05
3.56469768e-05
3.57744524e-05
3.68032009e-05
3.68244527e-05
3.54169338e-05
3.51253516e-05
3.57581015e-05
3.6797104e-05
3.65498739e-05
3.5636605e-05
3.57798462e-05
3.68010867e-05
3.68299314e-05
3.54237088e-05
3.51804003e-05
3.57817114e-05
3.67798587e-05
3.68370546e-05
3.53689683e-05
3.51065541e-05
3.57709697e-05
3.67974916e-05
3.65885762e-05
3.56301786e-05
3.57925622e-05
3.68001468e-05
3.67874838e-05
3.53818776e-05
3.52604195e-05
3.58241012e-05
3.67899146e-05
3.67975128e-05
3.54240123e-05
3.53091872e-05
3.58487647e-05
3.68000548e-05
3.67708283e-05
3.54631745e-05
3.53752496e-05
3.58794615e-05
3.68064261e-05
3.67866046e-05
3.55983824e-05
3.53281344e-05
3.53495918e-05
3.52391319e-05
3.57833538e-05
3.6807757e-05
3.6063843e-05
3.55197883e-05
3.58049295e-05
3.68093075e-05
3.60474487e-05
3.56553576e-05
3.58631493e-05
3.68073964e-05
3.62196342e-05
3.51681966e-05
3.52083074e-05
3.58907707e-05
3.6787719e-05
3.59064427e-05
3.55258885e-05
3.58584177e-05
3.67957767e-05
3.5860682e-05
3.54975657e-05
3.58689725e-05
3.67904444e-05
3.583968e-05
3.54909513e-05
3.58713678e-05
3.67872498e-05
3.5842097e-05
3.55242825e-05
3.58818063e-05
3.67878438e-05
3.58692588e-05
3.56161647e-05
3.59052307e-05
3.68019232e-05
3.60661244e-05
3.51258839e-05
3.52222256e-05
3.59065062e-05
3.67832767e-05
3.59346356e-05
3.57126978e-05
3.5902715e-05
3.68117995e-05
3.61804633e-05
3.52600092e-05
3.53226831e-05
3.58988531e-05
3.67912252e-05
3.60103025e-05
3.57238799e-05
3.5875834e-05
3.68265668e-05
3.62845412e-05
3.52947112e-05
3.53306259e-05
3.58772213e-05
3.68176715e-05
3.64207568e-05
3.52658286e-05
3.5249798e-05
3.5805092e-05
3.68141139e-05
3.61662157e-05
3.57010065e-05
3.58047456e-05
3.68540751e-05
3.65650443e-05
3.53899575e-05
3.53284863e-05
3.58007049e-05
3.68423858e-05
3.66654e-05
3.56418972e-05
3.53859099e-05
3.57671067e-05
3.68456386e-05
3.67136373e-05
3.57296665e-05
3.53935423e-05
3.53962358e-05
3.5696263e-05
3.68600689e-05
3.67250317e-05
3.56862262e-05
3.51871895e-05
3.56490416e-05
3.68579234e-05
3.67215074e-05
3.56334498e-05
3.56769082e-05
3.68794046e-05
3.67869734e-05
3.5702937e-05
3.52231962e-05
3.56631328e-05
3.6861128e-05
3.68104886e-05
3.57266816e-05
3.52536373e-05
3.56034331e-05
3.68583108e-05
3.68209841e-05
3.57437743e-05
3.52521095e-05
3.54987959e-05
3.68540921e-05
3.68285651e-05
3.57523687e-05
3.52433847e-05
3.54329033e-05
3.68473964e-05
3.68330985e-05
3.57664792e-05
3.52581654e-05
3.54069772e-05
3.68325357e-05
3.68333545e-05
3.57832107e-05
3.52840457e-05
3.53927455e-05
3.68177054e-05
3.68304131e-05
3.57980524e-05
3.53005132e-05
3.53714807e-05
3.68027751e-05
3.6826339e-05
3.58081212e-05
3.52951201e-05
3.53199695e-05
3.67918379e-05
3.6822298e-05
3.57914428e-05
3.52032246e-05
3.52141539e-05
3.67849886e-05
3.68078223e-05
3.57754721e-05
3.50266876e-05
3.50787158e-05
3.66748056e-05
3.68130416e-05
3.6789301e-05
3.5585314e-05
3.5367636e-05
3.66309791e-05
3.68041423e-05
3.5778672e-05
3.51634829e-05
3.51630411e-05
3.6733893e-05
3.68122492e-05
3.58206114e-05
3.52710429e-05
3.5266725e-05
3.66738495e-05
3.68375431e-05
3.57778681e-05
3.56684541e-05
3.66324921e-05
3.68175103e-05
3.58290697e-05
3.53496348e-05
3.53359857e-05
3.66381778e-05
3.68200213e-05
3.58179728e-05
3.54388276e-05
3.52090693e-05
3.52074725e-05
3.64234183e-05
3.68216362e-05
3.574622e-05
3.54541809e-05
3.64940718e-05
3.68045362e-05
3.57745647e-05
3.50755668e-05
3.506034e-05
3.65045683e-05
3.68239482e-05
3.57554485e-05
3.54129797e-05
3.64203892e-05
3.68288372e-05
3.57491357e-05
3.54065229e-05
3.64097075e-05
3.68279806e-05
3.57463961e-05
3.53918347e-05
3.64007907e-05
3.68287393e-05
3.57449266e-05
3.53845016e-05
3.63983499e-05
3.68288209e-05
3.57457175e-05
3.53955886e-05
3.64131007e-05
3.68237315e-05
3.57478777e-05
3.54092654e-05
3.6453009e-05
3.68067245e-05
3.57659883e-05
3.50065436e-05
3.49973613e-05
3.64721829e-05
3.68281798e-05
3.57465933e-05
3.53322347e-05
3.64210947e-05
3.68334296e-05
3.5750422e-05
3.53865753e-05
3.64654402e-05
3.68284568e-05
3.57578506e-05
3.54202146e-05
3.6536833e-05
3.68102005e-05
3.57707026e-05
3.50342101e-05
3.50432364e-05
3.65508565e-05
3.68351713e-05
3.5763661e-05
3.53798629e-05
3.65522979e-05
3.68440451e-05
3.57692132e-05
3.5444301e-05
3.66187801e-05
3.68387881e-05
3.57766835e-05
3.55175142e-05
3.67332418e-05
3.68141415e-05
3.57973925e-05
3.51326751e-05
3.51965412e-05
3.67800319e-05
3.68183355e-05
3.67979768e-05
3.58719372e-05
3.55846063e-05
3.54929278e-05
3.54809435e-05
3.51654007e-05
3.51698786e-05
3.6741937e-05
3.68322287e-05
3.5791495e-05
3.56427258e-05
3.67687328e-05
3.68197936e-05
3.5821608e-05
3.53001987e-05
3.52999422e-05
3.67450544e-05
3.68406406e-05
3.57895069e-05
3.5663788e-05
3.67798597e-05
3.68308179e-05
3.58095575e-05
3.52690534e-05
3.52688076e-05
3.67630929e-05
3.68132917e-05
3.5830084e-05
3.52329195e-05
3.52323228e-05
3.67638716e-05
3.68110165e-05
3.58059875e-05
3.51520906e-05
3.51563674e-05
3.67476065e-05
3.68399595e-05
3.57733828e-05
3.55502455e-05
3.67848531e-05
3.6827748e-05
3.57823946e-05
3.51476298e-05
3.51482025e-05
3.67606661e-05
3.68070246e-05
3.57895204e-05
3.50936024e-05
3.51001325e-05
3.67462631e-05
3.68339601e-05
3.57678807e-05
3.54982517e-05
3.67889046e-05
3.68206395e-05
3.57669886e-05
3.50745131e-05
3.50818913e-05
3.67457706e-05
3.68390152e-05
3.57772886e-05
3.54959309e-05
3.67747427e-05
3.6846384e-05
3.57754959e-05
3.5531327e-05
3.67830834e-05
3.6823509e-05
3.5795458e-05
3.52099526e-05
3.52104313e-05
3.67650406e-05
3.68079219e-05
3.58278043e-05
3.52354349e-05
3.52371564e-05
3.67655921e-05
3.68104507e-05
3.58338276e-05
3.52507035e-05
3.52518545e-05
3.67664973e-05
3.68110056e-05
3.58398744e-05
3.52631553e-05
3.5263124e-05
3.67662684e-05
3.68112482e-05
3.58440119e-05
3.52666371e-05
3.52671555e-05
)
;

boundaryField
{
    closed
    {
        type            calculated;
        value           nonuniform List<scalar> 0();
    }
    open
    {
        type            calculated;
        value           nonuniform List<scalar> 0();
    }
    sides
    {
        type            empty;
    }
    procBoundary2to1
    {
        type            processor;
        value           uniform 3.56986023e-05;
    }
    procBoundary2to3
    {
        type            processor;
        value           uniform 3.67638898e-05;
    }
}


// ************************************************************************* //
