/*--------------------------------*- C++ -*----------------------------------*\
| =========                 |                                                 |
| \\      /  F ield         | OpenFOAM: The Open Source CFD Toolbox           |
|  \\    /   O peration     | Version:  2306                                  |
|   \\  /    A nd           | Website:  www.openfoam.com                      |
|    \\/     M anipulation  |                                                 |
\*---------------------------------------------------------------------------*/
FoamFile
{
    version     2.0;
    format      ascii;
    arch        "LSB;label=32;scalar=64";
    class       volScalarField;
    location    "0.00138";
    object      prefDh_T;
}
// * * * * * * * * * * * * * * * * * * * * * * * * * * * * * * * * * * * * * //

dimensions      [1 1 -3 -1 0 0 0];

internalField   nonuniform List<scalar> 
530
(
-0.000738895003
-0.000743940328
-0.000592030874
-0.000532617364
-0.000599085583
-0.000737990248
-0.000743721299
-0.000591528573
-0.000534826052
-0.000599922867
-0.000737260936
-0.000743751562
-0.000591050758
-0.000536477146
-0.000601236919
-0.000737029296
-0.00074342602
-0.000590730142
-0.000542217569
-0.000601089226
-0.000737622896
-0.000744062822
-0.000590715158
-0.000546218164
-0.000561341935
-0.000549351003
-0.000594867895
-0.000738970884
-0.000741039707
-0.000742964601
-0.000744647222
-0.000597295942
-0.000609362153
-0.000710059394
-0.000738775684
-0.000599283516
-0.000515616498
-0.000515452897
-0.000599984305
-0.000739590578
-0.00073835544
-0.000597473185
-0.000507420221
-0.000592883452
-0.000738584122
-0.000742961546
-0.000601521435
-0.000526947629
-0.000537918753
-0.00058941548
-0.000743044889
-0.000738924409
-0.000746903611
-0.000735020155
-0.000594892869
-0.000476211773
-0.000589719521
-0.000738954306
-0.000741145054
-0.000607455659
-0.000515491225
-0.000520532015
-0.000598131286
-0.000745636236
-0.00073718636
-0.000598776371
-0.000512548912
-0.000591280432
-0.000748253252
-0.000738422997
-0.000594950595
-0.000519300793
-0.000589813247
-0.000748581078
-0.000742940572
-0.000604962865
-0.000597734711
-0.000736029993
-0.000739059184
-0.000592501256
-0.00054149792
-0.00055113275
-0.000526590098
-0.000588101177
-0.000692415067
-0.000753580524
-0.000725203107
-0.000586484979
-0.000522612734
-0.000590189039
-0.00074312096
-0.000727088621
-0.000555174709
-0.000583799603
-0.000750235437
-0.000734067735
-0.000594513705
-0.000503617946
-0.000585035605
-0.000725503135
-0.00059452317
-0.000579439259
-0.000613295405
-0.000741946744
-0.000593483448
-0.000589544258
-0.000597792919
-0.000744969851
-0.000723375627
-0.000538741849
-0.000509550827
-0.000593910838
-0.000738190588
-0.000713372925
-0.000532573466
-0.00050243229
-0.000593720533
-0.000737401157
-0.000722876042
-0.000530995685
-0.000495601095
-0.000593935922
-0.000736113062
-0.000608416253
-0.00059403945
-0.000594301121
-0.00073975024
-0.000730226343
-0.000556487031
-0.00051451244
-0.000593085636
-0.000734870291
-0.000736256145
-0.000559575227
-0.00051027524
-0.000593493082
-0.000734492707
-0.000737478349
-0.000560388114
-0.000506761696
-0.000593503707
-0.000734155615
-0.000738904004
-0.000552545008
-0.000494306635
-0.000589983093
-0.000735759274
-0.00065687092
-0.000590123829
-0.000597105153
-0.000738180465
-0.000741157768
-0.000547223004
-0.000493204725
-0.000591947768
-0.000736343832
-0.000689199184
-0.000588076935
-0.000601605891
-0.000738038441
-0.000742596146
-0.000548480088
-0.000503491081
-0.000594172084
-0.00073301267
-0.000743817354
-0.000538376937
-0.000489684202
-0.000593671178
-0.000736737479
-0.000695333385
-0.000586772765
-0.00060193135
-0.00073809165
-0.000732088455
-0.000540780781
-0.000518426916
-0.000595643949
-0.0007356736
-0.000734173077
-0.000548666901
-0.000527491556
-0.000597061359
-0.000738090534
-0.000727905188
-0.000555926102
-0.000539784822
-0.000599231614
-0.000739930483
-0.000732792853
-0.000581014851
-0.000531090963
-0.000534794278
-0.000514378881
-0.000588126313
-0.000738098126
-0.000617799018
-0.000566546922
-0.00059122534
-0.00073904856
-0.00061597954
-0.000591669927
-0.000597233683
-0.000739083457
-0.00063972576
-0.000501179394
-0.000508691932
-0.000598037515
-0.000733256726
-0.000597959979
-0.000567810331
-0.000593809885
-0.000734675242
-0.000593014102
-0.000562535131
-0.000594618111
-0.000733092916
-0.000590716988
-0.000561298531
-0.000594678935
-0.000732166295
-0.000591030349
-0.000567484351
-0.000595944345
-0.000732360339
-0.000594236574
-0.000584478316
-0.0005993454
-0.00073639689
-0.000618535268
-0.000493295804
-0.000511242995
-0.000599345409
-0.000731910205
-0.000601465733
-0.000602271036
-0.000599546855
-0.000739170178
-0.000634218838
-0.000518344799
-0.00052997126
-0.000598854912
-0.000734264191
-0.000610958071
-0.00060355451
-0.000596954811
-0.000742749366
-0.000649002259
-0.00052480136
-0.000531427482
-0.000597154959
-0.00074112527
-0.000669085293
-0.000519424143
-0.000516372245
-0.000589415591
-0.000739972822
-0.000632064267
-0.000599866126
-0.000590810022
-0.00074953774
-0.000690638165
-0.000542491597
-0.000530999475
-0.000590123801
-0.000747417364
-0.000705871656
-0.000589032149
-0.000541651034
-0.000587591305
-0.000748618728
-0.000716590783
-0.000602556681
-0.000543002082
-0.00054344514
-0.000586094942
-0.000751539468
-0.000719386901
-0.000597022869
-0.000504659957
-0.000584560907
-0.000751039159
-0.000717354848
-0.000587376874
-0.000589710301
-0.000755563211
-0.000734811949
-0.00059344281
-0.000511330799
-0.000592438299
-0.00075165902
-0.00074067995
-0.000590985678
-0.000516978474
-0.00058164918
-0.000750952775
-0.000743451018
-0.000590652035
-0.000516693162
-0.000562403352
-0.000749730326
-0.000745206714
-0.000590470376
-0.000515078881
-0.000550248354
-0.000747916933
-0.000746263493
-0.000590771919
-0.000517836933
-0.000545474686
-0.000744171858
-0.00074635667
-0.000591612007
-0.00052266183
-0.000542870578
-0.00074051189
-0.000745699564
-0.000592684998
-0.000525744049
-0.000538957305
-0.000736902455
-0.000744753415
-0.000593865225
-0.000524760066
-0.000529416187
-0.000734161288
-0.000743607534
-0.000593653954
-0.000507669127
-0.000509735768
-0.000732143749
-0.00074005396
-0.000592363904
-0.000474746273
-0.00048445683
-0.000708324491
-0.000741883532
-0.000733674731
-0.000578507444
-0.000538430845
-0.000701858256
-0.000739131649
-0.000594718591
-0.000500302259
-0.000500199541
-0.000719738639
-0.000741187761
-0.000595199017
-0.000520367086
-0.000519451419
-0.000707807543
-0.000747153295
-0.000599888511
-0.000593902593
-0.00070180064
-0.000742725191
-0.000596671785
-0.000535019735
-0.000532376367
-0.000702150245
-0.000743177996
-0.000596762009
-0.000551407424
-0.000508807526
-0.000508428424
-0.000669737077
-0.000742851229
-0.000599113986
-0.000554313863
-0.000680591993
-0.000738981023
-0.000593884093
-0.00048389032
-0.000481023225
-0.000681868591
-0.000743384141
-0.000600323739
-0.000546576403
-0.000669321758
-0.000744492986
-0.000599897635
-0.000545380865
-0.000667718841
-0.000744286955
-0.000599444088
-0.000542647352
-0.000666392209
-0.00074442664
-0.000599107785
-0.000541276308
-0.000666038191
-0.000744469883
-0.000599005369
-0.000543342078
-0.000668284673
-0.000743446506
-0.000599048894
-0.000545944796
-0.000674372996
-0.000739359771
-0.000592687073
-0.000470982879
-0.000469269769
-0.000677128585
-0.000744183168
-0.000600767802
-0.000531539272
-0.000669526741
-0.000745533813
-0.000601531983
-0.000541641747
-0.000676284167
-0.000744656744
-0.000602486108
-0.00054795732
-0.000687300707
-0.000740332197
-0.000593969679
-0.000476156052
-0.00047781692
-0.000689216768
-0.000745919099
-0.000605065618
-0.000540348935
-0.000689711742
-0.000748144998
-0.000606782839
-0.000552307803
-0.000700086488
-0.000747274493
-0.000607512092
-0.000565994041
-0.000718259916
-0.000741628373
-0.000595309878
-0.000494553902
-0.000506419127
-0.000729779157
-0.00074362177
-0.000739157362
-0.000597455099
-0.000578401368
-0.000561485351
-0.000559250512
-0.000500679374
-0.000501430341
-0.000720337277
-0.000745949556
-0.000607141327
-0.000589164232
-0.000726377258
-0.000743453256
-0.000596772333
-0.00052582223
-0.000525602361
-0.00072194995
-0.000748074393
-0.000604409624
-0.000592958689
-0.000729122113
-0.000745842518
-0.000596517552
-0.000519963651
-0.000519866342
-0.000726221042
-0.000741608557
-0.000596421876
-0.000513236927
-0.000513067108
-0.00072617799
-0.000740920949
-0.00059464723
-0.000498178767
-0.00049887828
-0.00072233858
-0.000747523085
-0.000605779983
-0.000571999588
-0.000730204944
-0.000744824282
-0.000596487336
-0.000497329461
-0.000497406823
-0.000725423528
-0.000739856827
-0.000594399665
-0.000487256946
-0.000488415145
-0.00072205414
-0.000746109962
-0.000606699605
-0.000562411438
-0.000731127411
-0.000743122757
-0.000595109087
-0.000483689768
-0.000485015748
-0.00072196713
-0.000747211765
-0.000609660445
-0.000561861473
-0.000727983529
-0.000749354589
-0.0006101071
-0.000568487063
-0.000730039192
-0.00074405479
-0.0005964712
-0.000508961751
-0.000508992809
-0.000726588682
-0.000740420977
-0.000596543299
-0.000513721097
-0.000513954188
-0.00072662813
-0.00074104044
-0.000596756463
-0.000516562021
-0.000516684124
-0.000726801741
-0.00074121686
-0.000597034223
-0.000518882347
-0.000518777777
-0.000726686366
-0.000741297761
-0.000597306589
-0.000519532372
-0.000519525245
)
;

boundaryField
{
    closed
    {
        type            calculated;
        value           nonuniform List<scalar> 0();
    }
    open
    {
        type            calculated;
        value           nonuniform List<scalar> 0();
    }
    sides
    {
        type            empty;
    }
    procBoundary2to1
    {
        type            processor;
        value           uniform -0.000599597217;
    }
    procBoundary2to3
    {
        type            processor;
        value           uniform -0.000726025357;
    }
}


// ************************************************************************* //
