/*--------------------------------*- C++ -*----------------------------------*\
| =========                 |                                                 |
| \\      /  F ield         | OpenFOAM: The Open Source CFD Toolbox           |
|  \\    /   O peration     | Version:  2306                                  |
|   \\  /    A nd           | Website:  www.openfoam.com                      |
|    \\/     M anipulation  |                                                 |
\*---------------------------------------------------------------------------*/
FoamFile
{
    version     2.0;
    format      ascii;
    arch        "LSB;label=32;scalar=64";
    class       volScalarField;
    location    "0.00138";
    object      prefDh_H2;
}
// * * * * * * * * * * * * * * * * * * * * * * * * * * * * * * * * * * * * * //

dimensions      [1 1 -3 0 0 0 0];

internalField   nonuniform List<scalar> 
530
(
37.9665828
38.2979822
28.8173252
25.1062857
29.0678232
37.9050935
38.2831427
28.79804
25.2370066
29.1183126
37.8550356
38.2860475
28.7788444
25.3353903
29.1975998
37.8423421
38.2697998
28.7709499
25.6763521
29.2098585
37.8925067
38.3175078
28.7754332
25.9199579
26.8322728
26.1073396
28.8912082
37.9989899
38.1667759
38.2948501
38.3473704
29.0810279
29.6696918
36.0932076
37.9601582
29.1474082
24.1094364
24.1026031
29.1233976
38.006593
37.9459376
29.0100028
23.6174275
28.7646728
37.9723245
38.2484218
29.2632834
24.7835352
25.4369298
28.7172197
38.2815315
38.0431955
38.5501657
37.7192936
28.8624772
21.770509
28.5300838
37.9810245
38.1200267
29.5760322
24.102068
24.4004131
29.0449554
38.4058945
37.8807525
29.1048696
23.9225712
28.7070577
38.5960957
37.9644545
28.9136685
24.3235048
28.6183501
38.6273247
38.2639355
29.4950679
29.0719162
37.7652162
38.031422
28.8947612
25.6428539
26.225938
24.7543026
28.435413
35.0598084
39.0004464
37.1155204
28.4785007
24.5184966
28.6754874
38.2725084
37.1606577
26.4473461
28.1552791
38.6827642
37.6754647
28.86059
23.3898825
28.4911656
37.0612609
29.1338379
27.8871927
30.307184
38.1994732
29.049913
28.4992949
29.3117061
38.4126924
36.9175663
25.4861615
23.7413512
29.0276963
37.957231
36.2889101
25.117497
23.3205332
28.9905604
37.9012258
36.8884438
25.0261109
22.9163378
29.0808697
37.8038345
30.0041125
28.7584552
29.0544084
38.0743262
37.3835471
26.5397378
24.0349659
28.9396689
37.7473187
37.7796225
26.7220435
23.78533
28.9470437
37.7219715
37.8595009
26.772245
23.5777314
28.9349464
37.6998463
37.9524756
26.3100912
22.8412212
28.7492455
37.795021
32.9369956
28.5322127
29.1157689
37.9768961
38.1086628
25.9963421
22.7764936
28.8347298
37.846367
34.8569054
28.4157386
29.3453291
37.9783979
38.2058091
26.0709134
23.3857387
28.9837002
37.6530988
38.2710531
25.4687992
22.569666
28.9411113
37.8808077
35.2176135
28.3428652
29.3832085
37.9900828
37.5127977
25.6110271
24.2705924
29.1257029
37.8337146
37.6392008
26.0756902
24.8098054
29.2352633
37.9906293
37.2350809
26.5069038
25.5391468
29.391049
38.1196321
37.5851191
27.9955451
25.0184387
25.2554844
24.0370924
28.686169
37.93713
30.5838529
27.131931
28.8748013
38.0158835
30.4719362
28.6243197
29.2657203
38.0326302
31.9131789
23.2528312
23.6948844
29.3459197
37.6210233
29.3617159
27.2008437
29.0845988
37.6984239
29.0467456
26.888433
29.1404771
37.5866663
28.900308
26.8154246
29.1468031
37.5217279
28.9196848
27.1827989
29.2259248
37.5358455
29.1211775
28.1941901
29.4325978
37.8176404
30.6277818
22.7836455
23.8501271
29.4342313
37.5252135
29.5791646
29.2548324
29.4397569
38.0098719
31.5805038
24.2661892
24.9590289
29.3988739
37.6914457
30.1652638
29.3419379
29.2698389
38.2437912
32.4714855
24.6498437
25.0467546
29.2820211
38.153076
33.6719391
24.3306293
24.154732
28.7842053
38.0693299
31.4477596
29.1212538
28.8537143
38.6907772
34.9617672
25.7013664
25.0231961
28.8130796
38.573069
35.870219
28.4734777
25.6563212
28.6338858
38.6636568
36.5671485
29.3037566
25.7399665
25.7691377
28.4430804
38.8375429
36.7513067
28.9564892
23.4647505
28.2872534
38.8054438
36.5845468
28.3788064
28.5865335
39.0808705
37.7730033
28.8136294
23.8624578
28.6952054
38.8413365
38.1617534
28.7344528
24.1981719
28.0454503
38.7945277
38.349622
28.7469711
24.1813387
26.8971912
38.7088493
38.4620017
28.75239
24.0851086
26.1728633
38.5848556
38.5298464
28.7906092
24.2479954
25.8877677
38.3360373
38.5368531
28.8595236
24.5332635
25.7313164
38.0949746
38.4955431
28.9367526
24.7147754
25.4972005
37.8593057
38.4349056
29.0116026
24.655253
24.9292474
37.6774794
38.3550957
28.9741274
23.6411583
23.76106
37.5352868
38.1214088
28.8840936
21.6854757
22.2664117
35.9966577
38.2576417
37.6493537
27.8502288
25.4550241
35.6059932
38.0601988
29.0055797
23.200602
23.1967883
36.7230528
38.197338
29.0979693
24.3887487
24.3422397
35.973173
38.5824881
29.2579611
28.7646265
35.6086633
38.3055771
29.1848521
25.2564208
25.1059072
35.640071
38.3306047
29.171451
26.238772
23.7043055
23.6886963
33.7035888
38.2881903
29.1653356
26.4085077
34.3464045
38.043153
28.9576043
22.2270149
22.0642503
34.4302659
38.3222237
29.2403823
25.9537547
33.6775974
38.3924766
29.2086114
25.8826744
33.5818247
38.3790562
29.1817324
25.7208427
33.5022212
38.3868939
29.162781
25.6399958
33.4806743
38.3904064
29.1591659
25.7621667
33.613849
38.3296609
29.1650471
25.913381
33.9752717
38.0634943
28.8843136
21.4648558
21.37091
34.1435934
38.3678291
29.2465555
25.0641304
33.6868054
38.4583879
29.2904598
25.6626634
34.0885036
38.4106727
29.3499188
26.033813
34.741543
38.1308789
28.9553629
21.7702638
21.8777995
34.8610095
38.4824886
29.485613
25.5883268
34.8841196
38.630138
29.5788637
26.2976521
35.4982242
38.5851006
29.6274934
27.1050152
36.5698298
38.2256219
29.0658353
22.8598843
23.567514
37.3474897
38.3847572
38.1066072
29.2898226
27.842888
26.8350483
26.7029242
23.2205569
23.2738974
36.7240225
38.5062912
29.6355606
28.4821782
37.1062793
38.3583274
29.1778602
24.7104776
24.7085159
36.8537692
38.6477026
29.498974
28.7116918
37.2870986
38.5062084
29.1455881
24.3672284
24.3650211
37.1303459
38.2297896
29.1740085
23.9681994
23.9626344
37.1209469
38.1808269
29.0470431
23.0745042
23.125883
36.872684
38.6003089
29.5374685
27.4642398
37.354281
38.4315803
29.0988802
23.0263114
23.0341446
37.0722334
38.1084049
29.007862
22.4277557
22.5054732
36.8552379
38.5091582
29.5724658
26.8928205
37.4128937
38.3209699
29.0051327
22.2167327
22.3043952
36.8504613
38.5775426
29.7328865
26.8655035
37.2155323
38.7280665
29.7513727
27.2559775
37.3508917
38.3888568
29.1199812
23.7143967
23.7210881
37.1514265
38.155468
29.1764296
23.995637
24.0161102
37.1513305
38.1961751
29.1966431
24.164372
24.1782607
37.1613862
38.2089453
29.2200632
24.3018723
24.3025547
37.1521399
38.2148862
29.2401788
24.3402994
24.3470224
)
;

boundaryField
{
    closed
    {
        type            calculated;
        value           nonuniform List<scalar> 0();
    }
    open
    {
        type            calculated;
        value           nonuniform List<scalar> 0();
    }
    sides
    {
        type            empty;
    }
    procBoundary2to1
    {
        type            processor;
        value           uniform 29.0984812;
    }
    procBoundary2to3
    {
        type            processor;
        value           uniform 37.1065087;
    }
}


// ************************************************************************* //
