/*--------------------------------*- C++ -*----------------------------------*\
| =========                 |                                                 |
| \\      /  F ield         | OpenFOAM: The Open Source CFD Toolbox           |
|  \\    /   O peration     | Version:  2306                                  |
|   \\  /    A nd           | Website:  www.openfoam.com                      |
|    \\/     M anipulation  |                                                 |
\*---------------------------------------------------------------------------*/
FoamFile
{
    version     2.0;
    format      ascii;
    arch        "LSB;label=32;scalar=64";
    class       volScalarField;
    location    "0.00138";
    object      rho;
}
// * * * * * * * * * * * * * * * * * * * * * * * * * * * * * * * * * * * * * //

dimensions      [1 -3 0 0 0 0 0];

internalField   nonuniform List<scalar> 
530
(
0.907585412
0.906774203
0.941856107
0.956126935
0.943478021
0.907571621
0.906639802
0.941565629
0.955520345
0.943092528
0.907449296
0.906376715
0.941180797
0.954883248
0.942512885
0.907192844
0.906161016
0.940768096
0.953565279
0.941937742
0.906888238
0.905826943
0.940399805
0.952434335
0.949330649
0.951726367
0.941833018
0.906361978
0.906049848
0.905700686
0.90527411
0.940301504
0.940247814
0.910817035
0.906030809
0.940695488
0.957369706
0.957271055
0.941498247
0.90561132
0.905836108
0.941294574
0.958754139
0.941591407
0.90567427
0.904903581
0.940041955
0.954685217
0.952538343
0.938898819
0.904598871
0.905229044
0.903848904
0.905492963
0.940669538
0.963314184
0.941773125
0.904330039
0.90387756
0.938251117
0.955402487
0.954366
0.939251164
0.902583993
0.9038155
0.938322521
0.955222868
0.938599394
0.90153318
0.90295559
0.93766922
0.95320338
0.938128753
0.90074071
0.901476995
0.935215368
0.936276798
0.901961069
0.901461111
0.934271625
0.947496604
0.945343031
0.949936805
0.937933528
0.908505193
0.898014264
0.902240533
0.935080751
0.949644759
0.934515269
0.898827846
0.901078785
0.943159981
0.937631446
0.897148836
0.899690361
0.934223933
0.952178091
0.932263124
0.900720833
0.928785506
0.93818825
0.923879792
0.898330617
0.929597118
0.93629259
0.92882995
0.898130736
0.901419949
0.945911903
0.951632732
0.931150244
0.899682923
0.903710747
0.947721566
0.953594696
0.932397971
0.900505507
0.902803156
0.948770312
0.955662454
0.931565506
0.901491723
0.92771861
0.938204406
0.933221473
0.901656172
0.903176441
0.945645217
0.953829524
0.935170169
0.903264105
0.903096406
0.945996757
0.955492655
0.936313821
0.904186297
0.903766319
0.946712105
0.957027616
0.937428194
0.905076293
0.904371119
0.948964846
0.960157214
0.93846917
0.905608166
0.920801538
0.942994358
0.938863752
0.905892614
0.905443572
0.951375413
0.96180948
0.940112144
0.906886425
0.915498373
0.944641152
0.940042523
0.907184992
0.906435006
0.952375721
0.961119909
0.9405261
0.908533407
0.906746507
0.954838971
0.964172899
0.941383191
0.908404643
0.915800942
0.946333101
0.94109592
0.908532705
0.909355099
0.955121202
0.959557694
0.940262501
0.909074421
0.90912031
0.953800221
0.957891526
0.93948945
0.908658818
0.910052241
0.952332178
0.955449094
0.938317389
0.908149963
0.909067363
0.94736016
0.956775329
0.955675651
0.959480651
0.940666951
0.907646646
0.931559512
0.949302137
0.939438699
0.906935297
0.931438104
0.943925531
0.936895793
0.90623395
0.925306388
0.959913779
0.958364843
0.934972715
0.906065452
0.93399536
0.946546567
0.935063577
0.90494781
0.934514693
0.946538259
0.933747611
0.904186359
0.934129664
0.94568578
0.932579582
0.903240239
0.932916049
0.943375726
0.931098686
0.902089542
0.930918828
0.93904511
0.929249406
0.900399605
0.923676026
0.954682052
0.951052173
0.927822692
0.899779197
0.926412681
0.933263358
0.926960201
0.897735307
0.917886207
0.947881872
0.945473136
0.925996459
0.897479588
0.922100241
0.930913288
0.925918637
0.895391491
0.912870854
0.94485492
0.943375786
0.924934515
0.894801254
0.907827306
0.945010324
0.945352838
0.926453438
0.894267867
0.914908183
0.929252752
0.925783695
0.892095414
0.901947924
0.939244402
0.941084196
0.925004401
0.891609458
0.89804557
0.929884239
0.938549721
0.925632223
0.891221599
0.896233778
0.926968915
0.93832939
0.938221955
0.927992334
0.890914603
0.896006145
0.92851505
0.945785155
0.930076879
0.891780659
0.89722297
0.931611284
0.930321963
0.89219485
0.895879928
0.930649519
0.947386122
0.932632761
0.894632571
0.896736334
0.931658494
0.948046216
0.936354361
0.896188001
0.897682437
0.932453724
0.949360066
0.941133334
0.897399157
0.898367494
0.933122947
0.950571356
0.944272262
0.89843912
0.898940108
0.933422426
0.950800748
0.945860837
0.899666657
0.899544472
0.933528657
0.950551946
0.946975489
0.900796279
0.900207488
0.933622447
0.950562549
0.948265989
0.901861305
0.900843721
0.93380185
0.951244672
0.950516009
0.902705447
0.901412854
0.934720421
0.954768669
0.954499326
0.903302165
0.902243883
0.935477523
0.96115599
0.95929289
0.907468684
0.902167344
0.903336129
0.942026333
0.949716688
0.908917639
0.902642608
0.935615935
0.956624033
0.956591073
0.905524692
0.902285647
0.934232803
0.952882089
0.952882543
0.907494153
0.901234865
0.935507553
0.93904536
0.90872594
0.901948458
0.933897808
0.950168897
0.95056474
0.908663069
0.901967557
0.934363262
0.947095449
0.955097642
0.95506582
0.915480631
0.902137287
0.936801627
0.946793703
0.913400659
0.902890836
0.936021612
0.959988866
0.96040134
0.913257517
0.902340478
0.936819889
0.948447768
0.915996612
0.902294311
0.937151066
0.948806644
0.916457807
0.902451716
0.937362655
0.94943314
0.916859859
0.902553329
0.937541385
0.949817942
0.91707689
0.902695329
0.937677993
0.949617712
0.916791379
0.903050573
0.937807264
0.949398064
0.915744641
0.903895362
0.937415506
0.96349361
0.963703273
0.91542538
0.903379572
0.938341443
0.95245635
0.917224925
0.903388566
0.938448953
0.95083427
0.916052963
0.90375192
0.938430844
0.949938301
0.914014445
0.904624472
0.938174049
0.963476664
0.963025247
0.91380978
0.903927299
0.938657117
0.951627866
0.913889116
0.903712183
0.938614075
0.949539808
0.911904327
0.903952325
0.938452757
0.947149628
0.908356832
0.904882496
0.937750694
0.960463995
0.958181599
0.906501961
0.904573966
0.905278563
0.935287431
0.944715963
0.947871751
0.948243315
0.959167354
0.958827844
0.907725992
0.903886837
0.937642119
0.94244317
0.906605915
0.904158414
0.936474038
0.954188024
0.953996673
0.907164218
0.903197695
0.937313124
0.941282873
0.905791057
0.903377633
0.936456159
0.954791719
0.954699934
0.906118441
0.903849113
0.935606204
0.95583892
0.955733074
0.905981566
0.903823157
0.936238345
0.958531912
0.958196261
0.906486886
0.90268147
0.937258789
0.944682937
0.90515944
0.903107148
0.936916872
0.958567299
0.95849685
0.905965408
0.903893362
0.936684543
0.960473219
0.96008018
0.906509567
0.902892606
0.937426106
0.946485891
0.905006968
0.903369573
0.937386539
0.961103698
0.960668332
0.906486937
0.902661623
0.937077171
0.946418519
0.905430009
0.902291726
0.937069278
0.94517296
0.905038844
0.903065357
0.936302398
0.956223821
0.956107291
0.905521697
0.903535683
0.935160587
0.955245225
0.955046148
0.905381621
0.903297516
0.934824297
0.954570112
0.954391659
0.905210261
0.90312597
0.934476089
0.953982122
0.953859107
0.905064814
0.902969532
0.934202922
0.953720964
0.95356029
)
;

boundaryField
{
    closed
    {
        type            calculated;
        value           nonuniform List<scalar> 0();
    }
    open
    {
        type            calculated;
        value           nonuniform List<scalar> 0();
    }
    sides
    {
        type            empty;
    }
    procBoundary2to1
    {
        type            processor;
        value           uniform 0.943512645;
    }
    procBoundary2to3
    {
        type            processor;
        value           uniform 0.905025205;
    }
}


// ************************************************************************* //
