/*--------------------------------*- C++ -*----------------------------------*\
| =========                 |                                                 |
| \\      /  F ield         | OpenFOAM: The Open Source CFD Toolbox           |
|  \\    /   O peration     | Version:  2306                                  |
|   \\  /    A nd           | Website:  www.openfoam.com                      |
|    \\/     M anipulation  |                                                 |
\*---------------------------------------------------------------------------*/
FoamFile
{
    version     2.0;
    format      ascii;
    arch        "LSB;label=32;scalar=64";
    class       volScalarField;
    location    "0.00126";
    object      mu;
}
// * * * * * * * * * * * * * * * * * * * * * * * * * * * * * * * * * * * * * //

dimensions      [1 -1 -1 0 0 0 0];

internalField   nonuniform List<scalar> 
531
(
2.03271066e-05
2.03150369e-05
2.03150306e-05
1.97478717e-05
1.96692782e-05
1.97440058e-05
1.96501698e-05
1.96970398e-05
2.0324008e-05
2.03341035e-05
1.97639492e-05
1.97039487e-05
1.99144317e-05
2.03248565e-05
2.03232774e-05
1.9753966e-05
1.96534317e-05
1.96900725e-05
1.97613316e-05
1.97631333e-05
1.9744595e-05
1.99417765e-05
2.03175327e-05
2.03150429e-05
1.96816235e-05
1.94232717e-05
1.98763102e-05
2.02977753e-05
1.97699363e-05
1.95663099e-05
1.97833759e-05
2.03054007e-05
2.03236708e-05
1.97448794e-05
1.95191132e-05
1.9773075e-05
2.02905376e-05
2.03184728e-05
1.97284789e-05
1.94927143e-05
1.9550184e-05
1.93917824e-05
1.97527129e-05
2.02568461e-05
2.0323942e-05
2.02728487e-05
2.0315655e-05
2.02922016e-05
1.97476133e-05
1.95179695e-05
1.95855903e-05
1.94588999e-05
1.97697406e-05
2.02854608e-05
1.98847249e-05
1.96338469e-05
1.97658763e-05
2.03028532e-05
2.03229298e-05
1.97392201e-05
1.94868565e-05
1.97585703e-05
2.02953377e-05
2.03173814e-05
1.97518038e-05
1.9533167e-05
1.963144e-05
1.94339501e-05
1.95780672e-05
2.02526451e-05
2.03028142e-05
2.02549522e-05
2.03042706e-05
2.02725826e-05
1.97253016e-05
1.9390309e-05
1.97520166e-05
2.02762098e-05
2.03224029e-05
1.96610968e-05
1.93908131e-05
1.97548968e-05
2.02892288e-05
2.03042324e-05
1.97587869e-05
1.9380522e-05
1.95440303e-05
2.02692783e-05
2.02893432e-05
1.99653185e-05
1.96139725e-05
1.96262446e-05
2.02910421e-05
2.03008672e-05
1.96833374e-05
1.95155762e-05
1.94749964e-05
1.96834642e-05
2.02896085e-05
2.03121547e-05
1.96005789e-05
1.96526539e-05
2.02771101e-05
2.03004334e-05
1.95555828e-05
1.95572055e-05
2.02713717e-05
2.02838936e-05
1.99291551e-05
1.9618755e-05
1.95589785e-05
1.98309061e-05
2.02964695e-05
2.03081287e-05
1.97409007e-05
1.94292314e-05
1.9746547e-05
2.02898088e-05
2.0335564e-05
1.96443425e-05
1.96490061e-05
2.03234727e-05
2.03105176e-05
1.9751102e-05
1.96590748e-05
1.97197555e-05
1.9709955e-05
1.97568585e-05
1.97653828e-05
1.97437012e-05
1.97551781e-05
2.03254263e-05
2.03341227e-05
1.964342e-05
1.96459635e-05
2.03222716e-05
2.03247077e-05
1.96252144e-05
1.96604083e-05
2.0305838e-05
2.03145785e-05
1.95774973e-05
1.95990808e-05
2.03076566e-05
2.03105405e-05
2.00353264e-05
1.97403087e-05
1.96368535e-05
1.97494514e-05
1.97667635e-05
1.97445843e-05
1.9804016e-05
2.03238974e-05
2.03172789e-05
1.97600324e-05
1.9595024e-05
1.94774187e-05
1.96109022e-05
2.03081418e-05
2.02995401e-05
1.99553474e-05
1.95905864e-05
1.96099685e-05
2.03064029e-05
2.03145672e-05
1.9536144e-05
1.95731018e-05
2.03099814e-05
2.0311093e-05
2.02812318e-05
1.97507448e-05
1.96394193e-05
1.97478539e-05
1.9772165e-05
1.9745483e-05
1.98118422e-05
2.03192775e-05
2.03264266e-05
1.97569141e-05
1.95585942e-05
1.94687141e-05
1.96358532e-05
2.02659944e-05
2.0303926e-05
2.02410304e-05
1.97495479e-05
1.9738362e-05
2.03201604e-05
2.02966517e-05
1.97692227e-05
1.96585029e-05
1.95692804e-05
1.95003683e-05
1.98617294e-05
2.02709032e-05
2.03082954e-05
2.02795556e-05
1.97555239e-05
1.95381743e-05
1.96245982e-05
1.94651111e-05
1.96847127e-05
2.02854269e-05
2.03133756e-05
1.95693838e-05
1.9514601e-05
2.02929626e-05
2.0299687e-05
1.96003096e-05
1.95703564e-05
2.02921286e-05
2.03000353e-05
1.96472564e-05
1.96398832e-05
2.02894444e-05
2.029766e-05
1.96814164e-05
1.96986125e-05
2.0308269e-05
2.02900253e-05
1.97498291e-05
1.9424233e-05
1.97578024e-05
2.02962833e-05
2.03033081e-05
1.96695316e-05
1.93665029e-05
1.97623204e-05
2.02744236e-05
2.01952815e-05
1.95975735e-05
1.9688629e-05
2.03083533e-05
2.02997432e-05
1.97331983e-05
1.9352172e-05
1.97453442e-05
2.02773965e-05
2.00962081e-05
1.95652467e-05
1.97416492e-05
2.02859171e-05
2.01309516e-05
1.96117285e-05
1.97609742e-05
2.02833617e-05
1.98683828e-05
1.96342871e-05
1.9823454e-05
2.02830917e-05
2.01624268e-05
1.95949006e-05
1.94101715e-05
1.98200644e-05
2.02775622e-05
1.97872438e-05
1.96221062e-05
1.9847742e-05
2.0296703e-05
2.01684292e-05
1.97419428e-05
1.94789057e-05
1.97037141e-05
2.0264645e-05
2.03029606e-05
1.98560914e-05
1.94969544e-05
1.94993751e-05
2.02233087e-05
2.0289378e-05
2.00011998e-05
1.9737851e-05
1.96043912e-05
1.94652584e-05
1.9344476e-05
1.9744869e-05
2.02467183e-05
2.02987085e-05
2.02647658e-05
2.0272327e-05
2.02799718e-05
2.02779279e-05
1.97613389e-05
1.95792913e-05
1.94127358e-05
1.931027e-05
1.97726401e-05
2.02627456e-05
1.99061538e-05
1.94525587e-05
1.93837088e-05
1.97799755e-05
2.02802236e-05
2.00948273e-05
1.97602526e-05
1.97785994e-05
1.97572994e-05
1.97187689e-05
1.97575396e-05
2.02864689e-05
2.02993618e-05
2.0308434e-05
2.03140523e-05
1.97372962e-05
1.96749087e-05
1.97304034e-05
1.96439806e-05
1.96424866e-05
2.02589543e-05
2.03150023e-05
1.99937776e-05
1.97169278e-05
1.97545004e-05
2.02610539e-05
2.03128913e-05
2.00097208e-05
1.95856003e-05
1.94217827e-05
1.98336791e-05
2.02717989e-05
1.99389414e-05
1.95484385e-05
1.94472105e-05
1.98057831e-05
2.02630857e-05
2.01776754e-05
1.96338136e-05
1.94716854e-05
1.98549107e-05
2.0261756e-05
2.00504232e-05
1.96057305e-05
1.94851517e-05
1.98753964e-05
2.02671419e-05
2.00041814e-05
1.95783746e-05
1.94760407e-05
1.98816439e-05
2.02695568e-05
2.00262323e-05
1.95336901e-05
1.94241743e-05
1.99111311e-05
2.02922114e-05
1.97611874e-05
1.94946552e-05
2.01670619e-05
2.03059794e-05
1.97962432e-05
1.94595251e-05
1.95808774e-05
2.03079399e-05
2.03558909e-05
2.03363949e-05
1.97432598e-05
1.93447877e-05
1.9664331e-05
2.0348877e-05
1.96703184e-05
1.93015346e-05
2.03191966e-05
2.04124135e-05
2.04071289e-05
1.95329182e-05
1.92312184e-05
2.02441737e-05
2.04501033e-05
2.04229199e-05
2.04468366e-05
1.95426724e-05
1.92684295e-05
2.02322804e-05
2.0380928e-05
2.03493933e-05
1.9733482e-05
1.91463628e-05
2.00109657e-05
2.03004061e-05
2.02330388e-05
2.02825493e-05
2.02615411e-05
2.02825604e-05
2.02758174e-05
2.02916251e-05
2.02914667e-05
2.03107432e-05
2.03250716e-05
2.03558675e-05
2.04040786e-05
2.04879147e-05
2.06749822e-05
2.06466172e-05
2.05259128e-05
2.04267083e-05
2.03223466e-05
2.02387696e-05
2.01578751e-05
2.01016925e-05
2.00459981e-05
1.99768367e-05
1.99011322e-05
1.99226757e-05
1.98543361e-05
1.97966748e-05
1.97381575e-05
1.96945546e-05
1.96679807e-05
1.96435173e-05
1.95444829e-05
1.93768794e-05
1.92758985e-05
1.9124864e-05
1.92292443e-05
2.04955055e-05
2.02515635e-05
2.00145825e-05
1.9784252e-05
1.95208867e-05
1.92923396e-05
1.90290514e-05
1.87774564e-05
1.85182077e-05
1.84012695e-05
1.89497005e-05
1.88606427e-05
1.84159004e-05
1.95451385e-05
2.08187343e-05
2.17837299e-05
2.34816104e-05
2.38191638e-05
2.44958423e-05
2.58193868e-05
2.66533868e-05
2.77551016e-05
2.89730495e-05
3.07218456e-05
3.24223664e-05
3.4324399e-05
3.6174717e-05
3.75345477e-05
3.93308726e-05
4.03556876e-05
4.15755296e-05
4.25749683e-05
4.36427985e-05
4.44946699e-05
4.55195872e-05
4.62467791e-05
4.70320991e-05
4.75841443e-05
4.81959776e-05
4.86918538e-05
4.9224565e-05
4.96743076e-05
5.01294648e-05
5.0533093e-05
5.09359709e-05
5.13056434e-05
5.16577432e-05
5.19884427e-05
5.2306863e-05
5.26122574e-05
5.29230396e-05
5.32002312e-05
5.34850089e-05
5.37540544e-05
5.40056068e-05
5.42621588e-05
5.44843996e-05
5.46713657e-05
5.48339091e-05
5.50164343e-05
5.51798908e-05
5.53545358e-05
5.55145115e-05
5.56831988e-05
5.58674013e-05
5.60667015e-05
5.62086371e-05
5.63360584e-05
5.64551385e-05
5.65735587e-05
5.66797231e-05
5.67835224e-05
5.68864105e-05
5.69911973e-05
5.70912728e-05
5.71919617e-05
5.72796847e-05
5.73666082e-05
5.74503025e-05
5.75336124e-05
5.76348067e-05
5.77308989e-05
5.78274046e-05
5.79151022e-05
5.80037812e-05
5.80798437e-05
5.81559711e-05
5.82258874e-05
5.8298251e-05
5.83651354e-05
5.84325914e-05
5.84943032e-05
5.85588369e-05
5.86190344e-05
5.86819775e-05
5.87409849e-05
5.88005839e-05
5.88533567e-05
5.89085848e-05
5.89647734e-05
5.90249117e-05
5.90786941e-05
5.91357167e-05
5.91872376e-05
5.92413592e-05
5.92903002e-05
5.93411118e-05
5.93873869e-05
5.94352714e-05
5.94791725e-05
5.95244624e-05
5.9566235e-05
5.9609233e-05
5.9649084e-05
5.96900715e-05
5.97255608e-05
5.97619768e-05
)
;

boundaryField
{
    closed
    {
        type            calculated;
        value           nonuniform List<scalar> 0();
    }
    open
    {
        type            calculated;
        value           nonuniform List<scalar> 0();
    }
    sides
    {
        type            empty;
    }
    procBoundary4to3
    {
        type            processor;
        value           uniform 2.03066479e-05;
    }
    procBoundary4to5
    {
        type            processor;
        value           uniform 5.97958093e-05;
    }
}


// ************************************************************************* //
