/*--------------------------------*- C++ -*----------------------------------*\
| =========                 |                                                 |
| \\      /  F ield         | OpenFOAM: The Open Source CFD Toolbox           |
|  \\    /   O peration     | Version:  2306                                  |
|   \\  /    A nd           | Website:  www.openfoam.com                      |
|    \\/     M anipulation  |                                                 |
\*---------------------------------------------------------------------------*/
FoamFile
{
    version     2.0;
    format      ascii;
    arch        "LSB;label=32;scalar=64";
    class       volScalarField;
    location    "0.0014";
    object      prefDZ_T;
}
// * * * * * * * * * * * * * * * * * * * * * * * * * * * * * * * * * * * * * //

dimensions      [1 -1 -1 -1 0 0 0];

internalField   nonuniform List<scalar> 
531
(
-1.18926798e-09
-1.19669435e-09
-1.22619447e-09
-1.22709587e-09
-1.19022216e-09
-1.18815414e-09
-1.19810714e-09
-1.22659596e-09
-1.22729819e-09
-1.18995731e-09
-1.18779864e-09
-1.1974946e-09
-1.22670962e-09
-1.2273589e-09
-1.18954104e-09
-1.18751499e-09
-1.19709871e-09
-1.2267418e-09
-1.22734737e-09
-1.18912072e-09
-1.18717589e-09
-1.19686179e-09
-1.2262095e-09
-1.22659184e-09
-1.19377886e-09
-1.1885545e-09
-1.19761692e-09
-1.22613917e-09
-1.22754513e-09
-1.18880917e-09
-1.18719499e-09
-1.1965031e-09
-1.2275568e-09
-1.22493635e-09
-1.22882777e-09
-1.19001827e-09
-1.18887155e-09
-1.1895714e-09
-1.18901325e-09
-1.19826461e-09
-1.22629305e-09
-1.22753297e-09
-1.18948e-09
-1.18744209e-09
-1.19592103e-09
-1.22687686e-09
-1.2278712e-09
-1.18897594e-09
-1.18687194e-09
-1.19435339e-09
-1.22703676e-09
-1.22900988e-09
-1.18951045e-09
-1.19084733e-09
-1.22608522e-09
-1.2293611e-09
-1.18950795e-09
-1.19206446e-09
-1.22600886e-09
-1.22820087e-09
-1.18886789e-09
-1.18754675e-09
-1.19643278e-09
-1.22727667e-09
-1.2279512e-09
-1.18938811e-09
-1.18700349e-09
-1.18736238e-09
-1.19064178e-09
-1.2275183e-09
-1.22545735e-09
-1.23081588e-09
-1.18861646e-09
-1.18656214e-09
-1.19658497e-09
-1.22700704e-09
-1.22761611e-09
-1.18990706e-09
-1.18889999e-09
-1.2051609e-09
-1.22608381e-09
-1.22808927e-09
-1.18949973e-09
-1.18841894e-09
-1.18872729e-09
-1.19556837e-09
-1.22597582e-09
-1.22791001e-09
-1.18946082e-09
-1.18815456e-09
-1.19928209e-09
-1.22617288e-09
-1.22826767e-09
-1.18937145e-09
-1.18760802e-09
-1.19718941e-09
-1.22736045e-09
-1.22552121e-09
-1.23017767e-09
-1.18832972e-09
-1.18723521e-09
-1.18801325e-09
-1.19327828e-09
-1.22585668e-09
-1.22728922e-09
-1.19107941e-09
-1.1884444e-09
-1.19723162e-09
-1.22605512e-09
-1.22722721e-09
-1.18962667e-09
-1.18740461e-09
-1.19407251e-09
-1.22647604e-09
-1.22738495e-09
-1.18952783e-09
-1.19035687e-09
-1.22582422e-09
-1.22727941e-09
-1.1888444e-09
-1.18692753e-09
-1.19336313e-09
-1.22674526e-09
-1.22688005e-09
-1.18928245e-09
-1.18708414e-09
-1.19372369e-09
-1.22665801e-09
-1.2268025e-09
-1.18938015e-09
-1.18716193e-09
-1.19366026e-09
-1.22667061e-09
-1.2267441e-09
-1.18940365e-09
-1.18714887e-09
-1.19358944e-09
-1.22668232e-09
-1.22669709e-09
-1.18949849e-09
-1.18724485e-09
-1.19391421e-09
-1.22659648e-09
-1.22660032e-09
-1.18983468e-09
-1.18764326e-09
-1.19471296e-09
-1.22657862e-09
-1.22666809e-09
-1.18991753e-09
-1.18765007e-09
-1.1935562e-09
-1.22695698e-09
-1.22698115e-09
-1.18916017e-09
-1.18929813e-09
-1.2265856e-09
-1.22771438e-09
-1.18793175e-09
-1.18911003e-09
-1.22598176e-09
-1.22716411e-09
-1.18993805e-09
-1.18775256e-09
-1.19406245e-09
-1.22668975e-09
-1.2262615e-09
-1.1895308e-09
-1.18841405e-09
-1.18966134e-09
-1.18856096e-09
-1.19365988e-09
-1.22648328e-09
-1.22624872e-09
-1.18953015e-09
-1.18977013e-09
-1.22611005e-09
-1.22645517e-09
-1.18938895e-09
-1.18728207e-09
-1.19161629e-09
-1.22711567e-09
-1.2261594e-09
-1.18968916e-09
-1.1897322e-09
-1.22668402e-09
-1.22636046e-09
-1.18945202e-09
-1.18712774e-09
-1.19068145e-09
-1.22754801e-09
-1.22608186e-09
-1.18963472e-09
-1.18945053e-09
-1.22761523e-09
-1.22648541e-09
-1.1895726e-09
-1.18685461e-09
-1.18989213e-09
-1.22806573e-09
-1.22604856e-09
-1.18920599e-09
-1.18868509e-09
-1.22886505e-09
-1.22651829e-09
-1.18966659e-09
-1.18678903e-09
-1.19000151e-09
-1.22826515e-09
-1.22608175e-09
-1.19174096e-09
-1.18765992e-09
-1.19136902e-09
-1.22831775e-09
-1.22560164e-09
-1.19283159e-09
-1.18891327e-09
-1.18890229e-09
-1.19054518e-09
-1.22846751e-09
-1.22596995e-09
-1.19412828e-09
-1.1878664e-09
-1.19036037e-09
-1.22935331e-09
-1.22587821e-09
-1.19575564e-09
-1.18827963e-09
-1.19102551e-09
-1.22972713e-09
-1.2260288e-09
-1.19678178e-09
-1.18810332e-09
-1.1898227e-09
-1.2306954e-09
-1.22629665e-09
-1.19711431e-09
-1.18768916e-09
-1.1885197e-09
-1.23180593e-09
-1.22594171e-09
-1.19525442e-09
-1.1893704e-09
-1.23091708e-09
-1.22687465e-09
-1.19671574e-09
-1.18748994e-09
-1.18840776e-09
-1.23222411e-09
-1.22647562e-09
-1.19883957e-09
-1.1883003e-09
-1.1893903e-09
-1.23170882e-09
-1.2263646e-09
-1.19994699e-09
-1.18855934e-09
-1.18945204e-09
-1.23167364e-09
-1.22626448e-09
-1.19890343e-09
-1.18890029e-09
-1.1893932e-09
-1.18864784e-09
-1.18838352e-09
-1.23272872e-09
-1.22618072e-09
-1.19661959e-09
-1.18972278e-09
-1.23093029e-09
-1.22632542e-09
-1.19560855e-09
-1.18981874e-09
-1.23233714e-09
-1.22706306e-09
-1.19753951e-09
-1.18788665e-09
-1.18859927e-09
-1.23042854e-09
-1.22731787e-09
-1.19700749e-09
-1.18714596e-09
-1.18755433e-09
-1.23032192e-09
-1.22720589e-09
-1.19268497e-09
-1.18859022e-09
-1.23419545e-09
-1.22728326e-09
-1.19253975e-09
-1.18921084e-09
-1.23347571e-09
-1.22767851e-09
-1.19541698e-09
-1.18783147e-09
-1.18929958e-09
-1.22873566e-09
-1.22749181e-09
-1.19681161e-09
-1.18794814e-09
-1.18947925e-09
-1.22861809e-09
-1.22779596e-09
-1.19590209e-09
-1.18753117e-09
-1.18919248e-09
-1.22875383e-09
-1.22818214e-09
-1.19448248e-09
-1.18700028e-09
-1.18837875e-09
-1.22857128e-09
-1.22787596e-09
-1.19129243e-09
-1.18907446e-09
-1.23107722e-09
-1.2282685e-09
-1.19307509e-09
-1.18719611e-09
-1.18876496e-09
-1.22821889e-09
-1.22747734e-09
-1.19124469e-09
-1.18910567e-09
-1.23036629e-09
-1.227955e-09
-1.19286931e-09
-1.18685707e-09
-1.18808758e-09
-1.22861118e-09
-1.22726534e-09
-1.19108119e-09
-1.18849215e-09
-1.23101505e-09
-1.22718732e-09
-1.19081512e-09
-1.18901949e-09
-1.23030336e-09
-1.22744447e-09
-1.19446868e-09
-1.18749341e-09
-1.18902849e-09
-1.228382e-09
-1.22738161e-09
-1.1955873e-09
-1.18715695e-09
-1.18818186e-09
-1.22899064e-09
-1.22697023e-09
-1.19157083e-09
-1.18932291e-09
-1.23132127e-09
-1.22828151e-09
-1.18949535e-09
-1.1883948e-09
-1.2320878e-09
-1.22815778e-09
-1.19349319e-09
-1.18636831e-09
-1.1868443e-09
-1.2300332e-09
-1.22720932e-09
-1.19167738e-09
-1.18878572e-09
-1.23301558e-09
-1.22692348e-09
-1.19160621e-09
-1.18920867e-09
-1.23285834e-09
-1.22751584e-09
-1.19510951e-09
-1.18697332e-09
-1.18717527e-09
-1.23060314e-09
-1.22668588e-09
-1.19388798e-09
-1.18963028e-09
-1.23290255e-09
-1.2270414e-09
-1.19757683e-09
-1.1875733e-09
-1.18782613e-09
-1.23055149e-09
-1.22716026e-09
-1.20055881e-09
-1.18779616e-09
-1.18793696e-09
-1.23088122e-09
-1.22706765e-09
-1.20192416e-09
-1.18799058e-09
-1.18811344e-09
-1.23177751e-09
-1.22708102e-09
-1.20334565e-09
-1.18815678e-09
-1.18798078e-09
-1.23236659e-09
-1.22652674e-09
-1.19941268e-09
-1.18905223e-09
-1.18743445e-09
-1.18770226e-09
-1.23311584e-09
-1.22614793e-09
-1.2263056e-09
-1.20006253e-09
-1.18753089e-09
-1.18710348e-09
-1.23152175e-09
-1.22768268e-09
-1.20318911e-09
-1.18767547e-09
-1.18719367e-09
-1.22960144e-09
-1.22723164e-09
-1.19729052e-09
-1.18956353e-09
-1.22880457e-09
-1.22794613e-09
-1.20075753e-09
-1.18716785e-09
-1.18659342e-09
-1.22683278e-09
-1.22759507e-09
-1.19728644e-09
-1.18913273e-09
-1.22527308e-09
-1.22747081e-09
-1.19623548e-09
-1.18923203e-09
-1.22450576e-09
-1.22759827e-09
-1.196618e-09
-1.18960715e-09
-1.22550982e-09
-1.2284071e-09
-1.20039112e-09
-1.18756056e-09
-1.18709871e-09
-1.22852578e-09
-1.22747681e-09
-1.19838859e-09
-1.18985623e-09
-1.22558816e-09
-1.22830093e-09
-1.19893205e-09
-1.18760791e-09
-1.19119641e-09
-1.23207068e-09
-1.22904414e-09
-1.19442368e-09
-1.18736682e-09
-1.19307018e-09
-1.23163178e-09
-1.23007372e-09
-1.19227105e-09
-1.18741536e-09
-1.19262269e-09
-1.23189459e-09
-1.23057484e-09
-1.19034003e-09
-1.18729208e-09
-1.19668048e-09
-1.23082864e-09
-1.2298234e-09
-1.19085656e-09
-1.19032803e-09
-1.22822381e-09
-1.22842024e-09
-1.20037887e-09
-1.18768656e-09
-1.18996468e-09
-1.23039502e-09
-1.22616087e-09
-1.22719548e-09
-1.19640231e-09
-1.18758192e-09
-1.18679272e-09
-1.19622704e-09
-1.23065229e-09
-1.23053587e-09
-1.18936689e-09
-1.18746868e-09
-1.20058719e-09
-1.22971027e-09
-1.21031557e-09
-1.19004645e-09
-1.20489657e-09
-1.22886289e-09
-1.22663375e-09
-1.1889063e-09
-1.18737633e-09
-1.20874139e-09
-1.22846767e-09
-1.20391389e-09
-1.1897704e-09
-1.21313006e-09
-1.22769375e-09
-1.20285466e-09
-1.1897112e-09
-1.21233717e-09
-1.22793291e-09
-1.22036704e-09
-1.18860687e-09
-1.1878648e-09
-1.21322653e-09
-1.22835738e-09
-1.21717227e-09
-1.18834356e-09
-1.18788398e-09
-1.21394499e-09
-1.22834221e-09
-1.21713805e-09
-1.1884381e-09
-1.18812885e-09
-1.21436265e-09
-1.22834313e-09
-1.21775222e-09
-1.188525e-09
-1.18834385e-09
-1.2146554e-09
-1.22835529e-09
-1.21843688e-09
-1.18852258e-09
-1.18844216e-09
-1.21488447e-09
-1.22838579e-09
-1.21872556e-09
-1.18848098e-09
-1.18849634e-09
)
;

boundaryField
{
    closed
    {
        type            calculated;
        value           nonuniform List<scalar> 0();
    }
    open
    {
        type            calculated;
        value           nonuniform List<scalar> 0();
    }
    sides
    {
        type            empty;
    }
    procBoundary1to0
    {
        type            processor;
        value           uniform -1.18878712e-09;
    }
    procBoundary1to2
    {
        type            processor;
        value           uniform -1.21497909e-09;
    }
}


// ************************************************************************* //
