/*--------------------------------*- C++ -*----------------------------------*\
| =========                 |                                                 |
| \\      /  F ield         | OpenFOAM: The Open Source CFD Toolbox           |
|  \\    /   O peration     | Version:  2306                                  |
|   \\  /    A nd           | Website:  www.openfoam.com                      |
|    \\/     M anipulation  |                                                 |
\*---------------------------------------------------------------------------*/
FoamFile
{
    version     2.0;
    format      ascii;
    arch        "LSB;label=32;scalar=64";
    class       volScalarField;
    location    "0.0014";
    object      PV;
}
// * * * * * * * * * * * * * * * * * * * * * * * * * * * * * * * * * * * * * //

dimensions      [0 0 0 0 0 0 0];

internalField   nonuniform List<scalar> 
531
(
-0.00714633046
-0.00709450279
-0.00692424573
-0.00692518545
-0.00713342613
-0.00715945293
-0.00708502114
-0.0069267477
-0.00692544414
-0.00713811852
-0.00716268858
-0.00708874534
-0.00692712578
-0.00692577348
-0.00714280722
-0.00716523137
-0.00709115326
-0.00692710792
-0.00692583648
-0.00714597292
-0.00716679
-0.00709190662
-0.00692580776
-0.00692578808
-0.00711019279
-0.00715076493
-0.0070883744
-0.00692479327
-0.00692773395
-0.00714423994
-0.00717284093
-0.00709094877
-0.00693045113
-0.00692304925
-0.00693164707
-0.0071307845
-0.00715866516
-0.00713662888
-0.00715199768
-0.00708360659
-0.00692600827
-0.00692680639
-0.00714126632
-0.00716586093
-0.00709690613
-0.0069272142
-0.00692747405
-0.00714882597
-0.00717243384
-0.00710732323
-0.00692753524
-0.00692899636
-0.00714237276
-0.00713165016
-0.00692482268
-0.00693122324
-0.00713870631
-0.00712476685
-0.00692446424
-0.00693186976
-0.00714698257
-0.00716919384
-0.00709365917
-0.00693042346
-0.00692747471
-0.00715653191
-0.00716329443
-0.0071739987
-0.00712472912
-0.00692710655
-0.00692425979
-0.00693529136
-0.00714682039
-0.00718323123
-0.00709138936
-0.00693035764
-0.00692838865
-0.0071445421
-0.00714739995
-0.00705133656
-0.00692702273
-0.00692968918
-0.00714508216
-0.00715220002
-0.00714795859
-0.00709925297
-0.00692432401
-0.00693010563
-0.00714195462
-0.00715608069
-0.00708016189
-0.00692636054
-0.00693307246
-0.00714279004
-0.0071702977
-0.00708865571
-0.00692810491
-0.00692548287
-0.00693354263
-0.00715305915
-0.00717187246
-0.00715391712
-0.00711627616
-0.00692385899
-0.00693017307
-0.00712511274
-0.00715381915
-0.00708952049
-0.00692597478
-0.00692778426
-0.0071392804
-0.00716429524
-0.00710633651
-0.00692634328
-0.00692601951
-0.00713981188
-0.00713073897
-0.00692383064
-0.00692795479
-0.00714377913
-0.00717045769
-0.00711061739
-0.00692691759
-0.00692551302
-0.00714340686
-0.00716705557
-0.00710976381
-0.00692637386
-0.00692536374
-0.0071415974
-0.00716642562
-0.00710990445
-0.00692635107
-0.00692502239
-0.00714087822
-0.00716633568
-0.00711019945
-0.0069264745
-0.00692496238
-0.00713979541
-0.00716523995
-0.00710850297
-0.0069267084
-0.00692531665
-0.00713696633
-0.00716226136
-0.00710451498
-0.00692751248
-0.00692625497
-0.00713767308
-0.00716474509
-0.00711181566
-0.0069287781
-0.00692499044
-0.00714666373
-0.0071467103
-0.00692588404
-0.00692571556
-0.00715301419
-0.00715037809
-0.00692345719
-0.00692850234
-0.00713153446
-0.00716437578
-0.00710593637
-0.00692750373
-0.0069240789
-0.00714180152
-0.00715464647
-0.00713907476
-0.00715394457
-0.0071089846
-0.00692653887
-0.00692242215
-0.00713885883
-0.0071387441
-0.00692456366
-0.00692608091
-0.00713744664
-0.00716840161
-0.00712081394
-0.00692918667
-0.00692319105
-0.00713864304
-0.00713958164
-0.00692770553
-0.00692648268
-0.00713635291
-0.00717015006
-0.00712668018
-0.00693071331
-0.00692336786
-0.00713823464
-0.00714194647
-0.00693085827
-0.00692671629
-0.00713342637
-0.00717247963
-0.00713327645
-0.00693152551
-0.00692231955
-0.0071399813
-0.00714730568
-0.00693364946
-0.00692558299
-0.00712947975
-0.0071706373
-0.0071325013
-0.00693195403
-0.00692392943
-0.00711868041
-0.00716042083
-0.00712155793
-0.00693300502
-0.00692247499
-0.00711421273
-0.00714339384
-0.00714699248
-0.00712915248
-0.00693276171
-0.00692450617
-0.0071041147
-0.00715865701
-0.0071280704
-0.00693623626
-0.00692403077
-0.00709689275
-0.00715433433
-0.00712546086
-0.00693783048
-0.00692506013
-0.00709151636
-0.00715777561
-0.00713878125
-0.00694031615
-0.00692577763
-0.0070894577
-0.0071630885
-0.00715276458
-0.00694314279
-0.00692351678
-0.00710315978
-0.00713787037
-0.00695846196
-0.00692723134
-0.00709166571
-0.00716645752
-0.00715492498
-0.00694365563
-0.00692619211
-0.00708143944
-0.00715762097
-0.00714512047
-0.00694210865
-0.00692639959
-0.00707607589
-0.00715656849
-0.00714436931
-0.00694156383
-0.00692591132
-0.00708157768
-0.0071483337
-0.00714184764
-0.00715980613
-0.00715564908
-0.00694514459
-0.00692556676
-0.0071003458
-0.00713428964
-0.00695872849
-0.00692592263
-0.00710675417
-0.00713712636
-0.00695470266
-0.00692989926
-0.00709161608
-0.00716793129
-0.00715519831
-0.00693636934
-0.00693077508
-0.00709404537
-0.00717492232
-0.00716329131
-0.00693493937
-0.00692876482
-0.00712510608
-0.00714672818
-0.00694960691
-0.00692855474
-0.00712780148
-0.00714427095
-0.00694357489
-0.00693209676
-0.00710450815
-0.00716956582
-0.0071452706
-0.00693099619
-0.00693165351
-0.0070958894
-0.00716647513
-0.00714380527
-0.0069298708
-0.00693224446
-0.00710044199
-0.00717077862
-0.00714659046
-0.00692943365
-0.0069330873
-0.00710821528
-0.00717738076
-0.00715305669
-0.00692924822
-0.00692983597
-0.00713701643
-0.00714757787
-0.00693338076
-0.00693346703
-0.00711959241
-0.00717797428
-0.00715052037
-0.00692934954
-0.0069285169
-0.00713783044
-0.00714852161
-0.00693099442
-0.00693303807
-0.0071213165
-0.00718176605
-0.00715864417
-0.00693080673
-0.00692835724
-0.00714190274
-0.00715328178
-0.00693493695
-0.0069274616
-0.00714649541
-0.00715203018
-0.00693201051
-0.00693216011
-0.0071117628
-0.00717317104
-0.00715293633
-0.00692975629
-0.00693144002
-0.00710186012
-0.00717599299
-0.00715772897
-0.00693272194
-0.00692877611
-0.00713301042
-0.00715077029
-0.00693852352
-0.0069291925
-0.00715432162
-0.00716333532
-0.00693876687
-0.00693378628
-0.00711571447
-0.00718493107
-0.00717261242
-0.00693566081
-0.0069281692
-0.00713123346
-0.00715026602
-0.00694313696
-0.00692747777
-0.00713260782
-0.00714932933
-0.00694160611
-0.0069314089
-0.0071055832
-0.00717818892
-0.00717001616
-0.0069383961
-0.00692766522
-0.00711624808
-0.00714305164
-0.00694252451
-0.00692969257
-0.00709195915
-0.00716906552
-0.00716698887
-0.00693693069
-0.0069301407
-0.00707508751
-0.00716550947
-0.00716543476
-0.00693776357
-0.00692981114
-0.00706815339
-0.00716314141
-0.00716349446
-0.00694076216
-0.006930108
-0.00706067529
-0.00716282604
-0.00716153637
-0.00694360494
-0.00692639846
-0.00708250263
-0.00714491191
-0.00717220975
-0.00716792792
-0.00694220314
-0.00692784252
-0.00692945118
-0.00707571195
-0.00717153891
-0.00717023172
-0.00695639215
-0.00693125459
-0.0070628951
-0.00717017181
-0.00716971641
-0.00696244032
-0.0069296379
-0.00709644827
-0.00714478087
-0.00696354207
-0.00693144323
-0.00707476468
-0.00717759977
-0.00717615811
-0.0069711695
-0.00693028195
-0.00709743785
-0.00714728033
-0.00697492904
-0.00692939802
-0.00710320981
-0.00714779956
-0.00697746379
-0.00693075004
-0.00710081037
-0.00714756936
-0.00697397232
-0.00693289545
-0.00707665835
-0.00717719084
-0.00717441325
-0.00696652177
-0.00693084175
-0.00709185358
-0.00714450513
-0.00697331001
-0.00693197212
-0.00708211053
-0.00717520207
-0.00712872945
-0.00694428667
-0.00693075025
-0.00710272294
-0.00718073724
-0.00711451752
-0.00694306204
-0.00693465034
-0.00711514447
-0.00718193156
-0.00711644193
-0.00694294321
-0.00693550911
-0.00712600167
-0.00717972604
-0.00708726645
-0.00694088365
-0.00696199808
-0.00714045192
-0.00714943998
-0.00696597796
-0.00693125567
-0.00707165209
-0.00717824288
-0.00713323377
-0.00696044595
-0.00692617374
-0.00693002024
-0.00709435796
-0.0071676994
-0.00717758871
-0.0070931659
-0.00693860236
-0.00695971086
-0.00714420391
-0.0071761927
-0.00706733862
-0.00693639259
-0.00702924157
-0.00714690571
-0.00704892351
-0.00693492938
-0.00697253706
-0.00715199574
-0.00717489813
-0.00703124365
-0.00693279423
-0.00705908328
-0.00714493225
-0.00701587056
-0.00693105392
-0.00706429553
-0.00714741413
-0.00701895277
-0.00693307836
-0.00699341729
-0.00715750564
-0.00717085902
-0.00701467363
-0.00693395777
-0.00700393823
-0.00716045368
-0.00716841486
-0.00701204333
-0.0069335584
-0.0070034626
-0.00715987583
-0.00716541674
-0.00701092604
-0.00693351985
-0.00700092399
-0.0071595029
-0.00716314325
-0.00701022966
-0.00693348353
-0.00699822408
-0.00715988306
-0.00716204795
-0.00700967283
-0.00693345748
-0.00699699896
-0.00716064812
-0.00716131659
)
;

boundaryField
{
    closed
    {
        type            zeroGradient;
    }
    open
    {
        type            zeroGradient;
    }
    sides
    {
        type            empty;
    }
    procBoundary1to0
    {
        type            processor;
        value           uniform -0.00715174317;
    }
    procBoundary1to2
    {
        type            processor;
        value           uniform -0.00700961149;
    }
}


// ************************************************************************* //
