/*--------------------------------*- C++ -*----------------------------------*\
| =========                 |                                                 |
| \\      /  F ield         | OpenFOAM: The Open Source CFD Toolbox           |
|  \\    /   O peration     | Version:  2306                                  |
|   \\  /    A nd           | Website:  www.openfoam.com                      |
|    \\/     M anipulation  |                                                 |
\*---------------------------------------------------------------------------*/
FoamFile
{
    version     2.0;
    format      ascii;
    arch        "LSB;label=32;scalar=64";
    class       volScalarField;
    location    "0.0014";
    object      T;
}
// * * * * * * * * * * * * * * * * * * * * * * * * * * * * * * * * * * * * * //

dimensions      [0 0 0 1 0 0 0];

internalField   nonuniform List<scalar> 
531
(
326.616231
329.176644
340.421064
340.357564
328.485306
324.668967
329.084696
340.218178
340.394576
327.924535
324.140974
329.04834
340.222282
340.397926
327.222058
323.72114
329.023628
340.262167
340.422634
326.639091
323.341107
328.947596
340.426234
340.442996
328.898129
325.845851
329.016175
340.558547
340.255647
326.547747
322.836566
328.705032
339.933722
340.688856
339.817117
328.592093
325.359867
327.736549
326.035245
329.025728
340.329783
340.286668
327.291781
323.606106
328.918443
340.253428
340.247536
326.283841
322.598168
328.958285
340.266635
340.171947
327.305212
329.238481
340.562384
339.951904
327.604163
329.250513
340.580798
339.801752
326.353639
323.415164
328.900826
339.87476
340.226932
325.920384
323.439207
322.764574
328.651298
340.244747
340.531505
339.444401
326.140405
321.354226
328.804288
339.903555
340.149272
327.412178
326.378059
329.927706
340.246906
340.00684
327.009233
325.548884
326.152821
328.92119
340.549495
339.966792
327.25094
325.053098
329.199151
340.35598
339.662772
327.122255
323.387516
328.855398
340.197056
340.430824
339.651743
325.392285
322.901237
325.073961
329.188617
340.602018
339.942386
328.855101
325.487044
328.940302
340.404192
340.23105
327.619548
323.755681
328.749854
340.384422
340.434472
327.510699
328.921043
340.612737
340.192992
326.569425
322.800627
328.801949
340.2517
340.398879
326.930914
323.190989
328.928447
340.277462
340.382726
327.14112
323.291026
328.922994
340.265248
340.407375
327.212904
323.284628
328.914277
340.253894
340.418299
327.386559
323.466053
328.919863
340.241291
340.397599
327.91156
324.06346
328.96259
340.175553
340.312265
327.943943
323.865205
328.981372
340.063624
340.477745
326.61058
326.716057
340.363081
340.412946
325.061256
326.244495
340.579136
340.06177
328.409885
323.936457
328.8115
340.100034
340.452286
327.207078
325.251344
327.535769
325.438392
328.870771
340.224617
340.681869
327.523615
327.738924
340.483878
340.345124
327.522639
323.273022
328.779657
340.065914
340.693738
327.740798
327.699619
340.219709
340.360541
327.699319
323.031075
328.793705
339.935742
340.687184
327.734933
327.275084
339.886926
340.325397
328.015699
322.585973
328.284928
339.824722
340.758572
327.203261
326.168147
339.557792
340.406214
328.362696
322.656722
328.402642
339.719124
340.538127
328.705491
324.221473
328.769395
339.580882
340.665144
328.864586
326.631709
326.33082
329.002666
339.613763
340.477664
328.661113
324.562055
328.7972
339.303782
340.568097
328.834715
325.288478
328.872623
339.16157
340.476577
328.896407
324.862462
327.801758
338.921981
340.403208
328.898359
324.071847
325.570594
338.654502
340.639232
329.039002
327.516485
336.868347
340.253379
328.893775
323.598919
325.275269
338.556313
340.317851
329.132524
324.993204
326.885628
338.687379
340.261729
329.270666
325.269926
326.974759
338.711539
340.268478
329.208226
326.197659
327.112591
325.031404
325.147206
338.382853
340.367439
329.462299
328.096859
336.87228
340.410523
329.45642
327.985409
337.371221
340.01194
329.219888
323.840776
325.458992
339.384765
339.901226
329.162649
322.625207
323.915621
339.562618
340.130522
329.555751
326.197459
338.04113
340.182922
329.710425
326.917064
338.682768
339.791947
329.218928
323.647825
326.858281
339.918554
339.787741
329.225819
323.980661
327.098917
340.003107
339.693935
329.179314
323.240642
326.608126
340.030892
339.58944
329.139716
322.219888
325.393398
340.062649
339.948733
329.189814
326.465092
339.671879
339.583642
329.378478
322.345901
325.943835
340.070499
340.114018
329.104776
326.432475
339.947484
339.648387
329.406342
321.754263
324.722876
339.941534
340.153121
328.656356
325.554056
339.56773
340.282443
328.059802
326.104829
339.867529
339.768632
329.357972
323.056903
325.993383
340.05298
339.820178
329.108469
322.52788
324.892006
339.745282
340.104644
329.714827
326.443759
339.165139
340.101978
326.295715
324.611502
339.138294
339.585772
329.238616
321.087637
322.508677
339.442341
340.179004
329.608497
326.049593
338.715055
340.272238
329.687629
326.480547
338.862437
339.847809
329.178116
322.187647
323.008102
339.152885
340.207421
329.424813
327.324574
338.732383
339.990322
329.297361
323.442333
323.762527
339.242296
339.890165
329.45982
323.901476
323.962833
339.125912
339.893489
329.613764
324.243896
324.255426
338.795694
339.833555
329.766635
324.385551
324.30135
338.476422
340.206492
329.501123
326.591534
322.940161
323.52326
338.663699
340.076346
339.903262
329.301535
323.150074
322.873262
337.060094
339.777499
329.806257
323.418431
323.021046
336.412105
339.981962
329.45122
327.133173
336.214206
339.860766
329.475558
322.413666
322.035708
335.501639
340.006906
329.466774
326.632438
335.034742
340.151775
329.406036
326.69148
334.784476
340.007598
329.399922
327.012241
335.115062
339.772062
329.405766
322.781174
322.610485
336.041304
339.920441
329.570552
327.419302
335.138694
339.791038
329.168134
322.922558
329.223566
338.495524
339.882871
328.662959
322.175708
328.979186
338.564569
339.427956
328.657374
322.07428
328.947648
338.566886
339.322953
328.622807
322.17786
328.585538
338.768446
336.426506
328.525151
327.314947
335.95703
339.785437
329.148837
322.662851
328.339644
336.636283
340.290689
339.890357
328.976108
323.504684
321.97184
328.817756
339.019443
336.66447
326.977569
322.664489
328.949437
339.277972
330.908924
327.363
329.683726
339.486464
335.380351
326.035414
322.784807
330.368297
339.730516
329.795027
327.346206
331.465788
339.928678
329.65498
327.098803
331.276425
339.703417
333.477849
325.325246
323.526852
331.489318
339.554391
332.596649
324.815208
323.718029
331.686055
339.555525
332.584701
324.914696
324.15584
331.8094
339.536136
332.748239
325.003159
324.517706
331.895965
339.530058
332.934536
324.962257
324.689125
331.962092
339.53113
333.013903
324.861374
324.797497
)
;

boundaryField
{
    closed
    {
        type            fixedValue;
        value           nonuniform List<scalar> 0();
    }
    open
    {
        type            zeroGradient;
    }
    sides
    {
        type            empty;
    }
    procBoundary1to0
    {
        type            processor;
        value           uniform 325.763113;
    }
    procBoundary1to2
    {
        type            processor;
        value           uniform 331.992152;
    }
}


// ************************************************************************* //
