/*--------------------------------*- C++ -*----------------------------------*\
| =========                 |                                                 |
| \\      /  F ield         | OpenFOAM: The Open Source CFD Toolbox           |
|  \\    /   O peration     | Version:  2306                                  |
|   \\  /    A nd           | Website:  www.openfoam.com                      |
|    \\/     M anipulation  |                                                 |
\*---------------------------------------------------------------------------*/
FoamFile
{
    version     2.0;
    format      ascii;
    arch        "LSB;label=32;scalar=64";
    class       volVectorField;
    location    "0.0014";
    object      U;
}
// * * * * * * * * * * * * * * * * * * * * * * * * * * * * * * * * * * * * * //

dimensions      [0 1 -1 0 0 0 0];

internalField   nonuniform List<vector> 
531
(
(-0.170701506 0 0)
(-0.172947953 0 0)
(-0.184039967 0 0)
(-0.19122234 0 0)
(-0.196273575 0 0)
(-0.203572056 0 0)
(-0.207452072 0 0)
(-0.220116289 0 0)
(-0.228178416 0 0)
(-0.234131352 0 0)
(-0.24379012 0 0)
(-0.250005251 0 0)
(-0.264921418 0 0)
(-0.273334831 0 0)
(-0.278623814 0 0)
(-0.288375435 0 0)
(-0.294950436 0 0)
(-0.310440511 0 0)
(-0.316513825 0 0)
(-0.31882233 0 0)
(-0.326295175 0 0)
(-0.32924112 0 0)
(-0.340782236 0 0)
(-0.342742912 0 0)
(-0.334007855 0 0)
(-0.330607966 0 0)
(-0.329240914 0 0)
(-0.335146278 0 0)
(-0.331997379 0 0)
(-0.324351783 0 0)
(-0.320586919 0 0)
(-0.313674392 0 0)
(-0.310127974 0 0)
(-0.301020512 0 0)
(-0.286876982 0 0)
(-0.27332212 0 0)
(-0.267751191 0 0)
(-0.25623483 0 0)
(-0.240452018 0 0)
(-0.227116591 0 0)
(-0.220902855 0 0)
(-0.208755048 0 0)
(-0.195480276 0 0)
(-0.185667713 0 0)
(-0.17348033 0 0)
(-0.167644354 0 0)
(-0.157208248 0 0)
(-0.147514379 0 0)
(-0.140291085 0 0)
(-0.131254561 0 0)
(-0.129667646 0 0)
(-0.11887936 0 0)
(-0.109302288 0 0)
(-0.107758806 0 0)
(-0.108014696 0 0)
(-0.100775734 0 0)
(-0.0941709467 0 0)
(-0.0958178145 0 0)
(-0.09804706 0 0)
(-0.101737592 0 0)
(-0.105938887 0 0)
(-0.109615317 0 0)
(-0.114178716 0 0)
(-0.124095537 0 0)
(-0.132121197 0 0)
(-0.145657822 0 0)
(-0.155377251 0 0)
(-0.160918458 0 0)
(-0.171028992 0 0)
(-0.188754084 0 0)
(-0.211610084 0 0)
(-0.214008801 0 0)
(-0.224586554 0 0)
(-0.239970646 0 0)
(-0.25343842 0 0)
(-0.273838001 0 0)
(-0.29014539 0 0)
(-0.308465181 0 0)
(-0.32764746 0 0)
(-0.342199722 0 0)
(-0.361565903 0 0)
(-0.377747382 0 0)
(-0.397349091 0 0)
(-0.418673714 0 0)
(-0.431854048 0 0)
(-0.44849913 0 0)
(-0.475458124 0 0)
(-0.492997168 0 0)
(-0.509089977 0 0)
(-0.530166096 0 0)
(-0.545575822 0 0)
(-0.570293194 0 0)
(-0.582969487 0 0)
(-0.595927417 0 0)
(-0.614323789 0 0)
(-0.629619026 0 0)
(-0.650650607 0 0)
(-0.657446254 0 0)
(-0.653306789 0 0)
(-0.651340623 0 0)
(-0.6669427 0 0)
(-0.664510215 0 0)
(-0.667100983 0 0)
(-0.683485941 0 0)
(-0.67458057 0 0)
(-0.647998814 0 0)
(-0.633348497 0 0)
(-0.625178338 0 0)
(-0.628283655 0 0)
(-0.609944395 0 0)
(-0.590930576 0 0)
(-0.583088328 0 0)
(-0.567671906 0 0)
(-0.564760107 0 0)
(-0.544572137 0 0)
(-0.5098105 0 0)
(-0.485448871 0 0)
(-0.466253456 0 0)
(-0.435232127 0 0)
(-0.40415247 0 0)
(-0.384835626 0 0)
(-0.362761635 0 0)
(-0.346950403 0 0)
(-0.315384495 0 0)
(-0.284725198 0 0)
(-0.263483796 0 0)
(-0.239169657 0 0)
(-0.219341737 0 0)
(-0.187659695 0 0)
(-0.158021185 0 0)
(-0.135242218 0 0)
(-0.110196481 0 0)
(-0.0872664849 0 0)
(-0.0569336147 0 0)
(-0.0297180287 0 0)
(-0.0073873407 0 0)
(0.0159822052 0 0)
(0.0390124336 0 0)
(0.0644664582 0 0)
(0.0872636829 0 0)
(0.108775024 0 0)
(0.12912144 0 0)
(0.148194775 0 0)
(0.164332837 0 0)
(0.179077668 0 0)
(0.195965013 0 0)
(0.20972784 0 0)
(0.221791385 0 0)
(0.227463002 0 0)
(0.233272762 0 0)
(0.243575139 0 0)
(0.249929172 0 0)
(0.253354615 0 0)
(0.25280273 0 0)
(0.252313625 0 0)
(0.244082565 0 0)
(0.233632671 0 0)
(0.227383842 0 0)
(0.223607863 0 0)
(0.214244742 0 0)
(0.20110752 0 0)
(0.19443153 0 0)
(0.184321381 0 0)
(0.177062397 0 0)
(0.172321452 0 0)
(0.16736522 0 0)
(0.161232434 0 0)
(0.154620146 0 0)
(0.153090196 0 0)
(0.152560959 0 0)
(0.150535946 0 0)
(0.148806746 0 0)
(0.152485272 0 0)
(0.159210071 0 0)
(0.164854133 0 0)
(0.164065429 0 0)
(0.169113349 0 0)
(0.185660409 0 0)
(0.198420502 0 0)
(0.212044284 0 0)
(0.229242406 0 0)
(0.253783896 0 0)
(0.280197479 0 0)
(0.304045467 0 0)
(0.328757501 0 0)
(0.356904682 0 0)
(0.384701412 0 0)
(0.419376804 0 0)
(0.463431849 0 0)
(0.505819435 0 0)
(0.559495984 0 0)
(0.603817775 0 0)
(0.645200307 0 0)
(0.701097784 0 0)
(0.755426414 0 0)
(0.793518385 0 0)
(0.846298449 0 0)
(0.919667409 0 0)
(0.959009858 0 0)
(1.01028992 0 0)
(1.06319232 0 0)
(1.11527792 0 0)
(1.20158137 0 0)
(1.28034005 0 0)
(1.31608082 0 0)
(1.36962706 0 0)
(1.45444099 0 0)
(1.48505352 0 0)
(1.5315131 0 0)
(1.57327612 0 0)
(1.56818021 0 0)
(1.6015738 0 0)
(1.66836659 0 0)
(1.7604135 0 0)
(1.80130967 0 0)
(1.78278561 0 0)
(1.81292989 0 0)
(1.85328617 0 0)
(1.89572789 0 0)
(1.97927029 0 0)
(2.00978728 0 0)
(1.98288072 0 0)
(1.99872715 0 0)
(2.04888645 0 0)
(2.12854432 0 0)
(2.14675171 0 0)
(2.09869108 0 0)
(2.09075487 0 0)
(2.10733326 0 0)
(2.15229141 0 0)
(2.13730194 0 0)
(2.05958333 0 0)
(2.01855619 0 0)
(1.95497974 0 0)
(1.91128742 0 0)
(1.86323032 0 0)
(1.76709448 0 0)
(1.69965022 0 0)
(1.61927595 0 0)
(1.55705803 0 0)
(1.49241151 0 0)
(1.39347265 0 0)
(1.32473765 0 0)
(1.27143153 0 0)
(1.18608808 0 0)
(1.09829766 0 0)
(1.02719859 0 0)
(0.952404211 0 0)
(0.881169248 0 0)
(0.811842245 0 0)
(0.729536453 0 0)
(0.656056256 0 0)
(0.579978285 0 0)
(0.506120575 0 0)
(0.436004978 0 0)
(0.362205755 0 0)
(0.291572537 0 0)
(0.223353778 0 0)
(0.155139567 0 0)
(0.0905732773 0 0)
(0.0285785332 0 0)
(-0.0368936472 0 0)
(-0.106582883 0 0)
(-0.182033707 0 0)
(-0.24728583 0 0)
(-0.29229256 0 0)
(-0.332239289 0 0)
(-0.382596397 0 0)
(-0.442145698 0 0)
(-0.458701132 0 0)
(-0.479231461 0 0)
(-0.516001034 0 0)
(-0.562566565 0 0)
(-0.562816524 0 0)
(-0.560123124 0 0)
(-0.596723867 0 0)
(-0.627006213 0 0)
(-0.648039502 0 0)
(-0.666654171 0 0)
(-0.679970899 0 0)
(-0.694289057 0 0)
(-0.699856578 0 0)
(-0.695797345 0 0)
(-0.697084733 0 0)
(-0.694567943 0 0)
(-0.67958441 0 0)
(-0.666657713 0 0)
(-0.609991567 0 0)
(-0.551276158 0 0)
(-0.535636068 0 0)
(-0.524672765 0 0)
(-0.484987462 0 0)
(-0.442653849 0 0)
(-0.43755331 0 0)
(-0.417445508 0 0)
(-0.392941134 0 0)
(-0.367918805 0 0)
(-0.354920216 0 0)
(-0.339718523 0 0)
(-0.321062738 0 0)
(-0.298576946 0 0)
(-0.272120942 0 0)
(-0.254570669 0 0)
(-0.241458305 0 0)
(-0.229994947 0 0)
(-0.215615208 0 0)
(-0.193081166 0 0)
(-0.175858098 0 0)
(-0.165759548 0 0)
(-0.157760902 0 0)
(-0.147962559 0 0)
(-0.127606059 0 0)
(-0.108655479 0 0)
(-0.113953148 0 0)
(-0.136804047 0 0)
(-0.100150884 0 0)
(-0.0564634731 0 0)
(-0.0461278784 0 0)
(-0.0326878906 0 0)
(-0.0248469596 0 0)
(-0.000203966013 0 0)
(0.0305888452 0 0)
(0.0368232845 0 0)
(0.0221266189 0 0)
(0.0640891665 0 0)
(0.109890823 0 0)
(0.12350552 0 0)
(0.145256399 0 0)
(0.160718274 0 0)
(0.193950511 0 0)
(0.226868888 0 0)
(0.238285047 0 0)
(0.234899749 0 0)
(0.279620203 0 0)
(0.321515912 0 0)
(0.323084328 0 0)
(0.324532254 0 0)
(0.371613028 0 0)
(0.410178946 0 0)
(0.418574803 0 0)
(0.441248189 0 0)
(0.452083651 0 0)
(0.489492961 0 0)
(0.529170732 0 0)
(0.544163988 0 0)
(0.564878962 0 0)
(0.578369293 0 0)
(0.620165313 0 0)
(0.666780879 0 0)
(0.680272525 0 0)
(0.691076425 0 0)
(0.743399146 0 0)
(0.78654933 0 0)
(0.809919664 0 0)
(0.83859067 0 0)
(0.899406103 0 0)
(0.94104987 0 0)
(0.949715304 0 0)
(0.973775193 0 0)
(0.987460573 0 0)
(1.04051854 0 0)
(1.08659244 0 0)
(1.08927681 0 0)
(1.10193612 0 0)
(1.17613081 0 0)
(1.22827086 0 0)
(1.23307786 0 0)
(1.25953823 0 0)
(1.34122459 0 0)
(1.38038704 0 0)
(1.37893323 0 0)
(1.40276182 0 0)
(1.41045804 0 0)
(1.46541293 0 0)
(1.50296695 0 0)
(1.49099575 0 0)
(1.50945518 0 0)
(1.57591014 0 0)
(1.59707446 0 0)
(1.58455649 0 0)
(1.60252043 0 0)
(1.59916598 0 0)
(1.64138976 0 0)
(1.66822982 0 0)
(1.65149415 0 0)
(1.65697744 0 0)
(1.65617589 0 0)
(1.6881696 0 0)
(1.69105146 0 0)
(1.67451551 0 0)
(1.68462193 0 0)
(1.70581999 0 0)
(1.74801122 0 0)
(1.73875777 0 0)
(1.71951807 0 0)
(1.7290482 0 0)
(1.75163997 0 0)
(1.79792685 0 0)
(1.79417472 0 0)
(1.7684393 0 0)
(1.78522408 0 0)
(1.80267717 0 0)
(1.7834428 0 0)
(1.81592256 0 0)
(1.85296731 0 0)
(1.8548433 0 0)
(1.82731648 0 0)
(1.82885597 0 0)
(1.85171036 0 0)
(1.87323274 0 0)
(1.84163526 0 0)
(1.81908255 0 0)
(1.81994595 0 0)
(1.8430537 0 0)
(1.86206104 0 0)
(1.82724948 0 0)
(1.79542694 0 0)
(1.80004629 0 0)
(1.8159901 0 0)
(1.78718996 0 0)
(1.75650524 0 0)
(1.75012598 0 0)
(1.77172877 0 0)
(1.78017506 0 0)
(1.73261055 0 0)
(1.69318224 0 0)
(1.68859323 0 0)
(1.69249445 0 0)
(1.65123812 0 0)
(1.60789121 0 0)
(1.5979699 0 0)
(1.5930764 0 0)
(1.54530589 0 0)
(1.49686 0 0)
(1.47778013 0 0)
(1.45955901 0 0)
(1.40189586 0 0)
(1.34742472 0 0)
(1.31364096 0 0)
(1.30465128 0 0)
(1.27440139 0 0)
(1.20249053 0 0)
(1.14579649 0 0)
(1.11323118 0 0)
(1.08226944 0 0)
(1.01735696 0 0)
(0.958171726 0 0)
(0.918651703 0 0)
(0.888453896 0 0)
(0.874851948 0 0)
(0.844712455 0 0)
(0.796819018 0 0)
(0.753685556 0 0)
(0.716489323 0 0)
(0.69490684 0 0)
(0.672004792 0 0)
(0.636088995 0 0)
(0.589326561 0 0)
(0.545754342 0 0)
(0.519834965 0 0)
(0.502855646 0 0)
(0.47741839 0 0)
(0.430192946 0 0)
(0.388285344 0 0)
(0.345797532 0 0)
(0.353173083 0 0)
(0.347169469 0 0)
(0.290703215 0 0)
(0.253186986 0 0)
(0.216996971 0 0)
(0.187159389 0 0)
(0.16266564 0 0)
(0.119704394 0 0)
(0.102059457 0 0)
(0.102329966 0 0)
(0.0494250109 0 0)
(0.0206539216 0 0)
(-0.00137929206 0 0)
(-0.0192750674 0 0)
(-0.0406011363 0 0)
(-0.0701525264 0 0)
(-0.0477584498 0 0)
(-0.0417036872 0 0)
(-0.100665848 0 0)
(-0.125376487 0 0)
(-0.152397011 0 0)
(-0.157540345 0 0)
(-0.188980417 0 0)
(-0.218859382 0 0)
(-0.256263917 0 0)
(-0.246493886 0 0)
(-0.247345266 0 0)
(-0.292117107 0 0)
(-0.31107119 0 0)
(-0.343018169 0 0)
(-0.353728109 0 0)
(-0.38262943 0 0)
(-0.39365621 0 0)
(-0.41780171 0 0)
(-0.429765689 0 0)
(-0.450727904 0 0)
(-0.463867507 0 0)
(-0.49005372 0 0)
(-0.497583368 0 0)
(-0.511589951 0 0)
(-0.530065218 0 0)
(-0.533393703 0 0)
(-0.551450553 0 0)
(-0.558347753 0 0)
(-0.569316603 0 0)
(-0.57645954 0 0)
(-0.568104007 0 0)
(-0.577180975 0 0)
(-0.578715211 0 0)
(-0.58180117 0 0)
(-0.580582885 0 0)
(-0.563161192 0 0)
(-0.562130442 0 0)
(-0.557372903 0 0)
(-0.55427367 0 0)
(-0.547960576 0 0)
(-0.525143782 0 0)
(-0.515186662 0 0)
(-0.503780778 0 0)
(-0.495861384 0 0)
(-0.485991325 0 0)
(-0.45988074 0 0)
(-0.442433417 0 0)
(-0.425572586 0 0)
(-0.4153832 0 0)
(-0.404842714 0 0)
)
;

boundaryField
{
    closed
    {
        type            noSlip;
    }
    open
    {
        type            inletOutlet;
        inletValue      nonuniform List<vector> 0();
        value           nonuniform List<vector> 0();
    }
    sides
    {
        type            empty;
    }
    procBoundary1to0
    {
        type            processor;
        value           uniform (-0.172347557 0 0);
    }
    procBoundary1to2
    {
        type            processor;
        value           uniform (-0.37950902 0 0);
    }
}


// ************************************************************************* //
