/*--------------------------------*- C++ -*----------------------------------*\
| =========                 |                                                 |
| \\      /  F ield         | OpenFOAM: The Open Source CFD Toolbox           |
|  \\    /   O peration     | Version:  2306                                  |
|   \\  /    A nd           | Website:  www.openfoam.com                      |
|    \\/     M anipulation  |                                                 |
\*---------------------------------------------------------------------------*/
FoamFile
{
    version     2.0;
    format      ascii;
    arch        "LSB;label=32;scalar=64";
    class       volScalarField;
    location    "0.00092";
    object      prefDh_H;
}
// * * * * * * * * * * * * * * * * * * * * * * * * * * * * * * * * * * * * * //

dimensions      [1 1 -3 0 0 0 0];

internalField   nonuniform List<scalar> 
530
(
24089.3601
23496.3978
23394.683
23393.2624
23393.1202
23393.1165
23393.1163
23393.1163
23393.1163
23393.1163
23393.1163
23393.1163
23393.1163
23393.1163
23393.1163
23393.1163
23393.1163
23393.1163
23393.1163
23393.1163
23393.1163
23393.1163
23393.1163
23393.1163
23393.1163
23393.1163
23393.1163
23393.1163
23393.1163
23393.1163
23393.1163
23393.1163
23393.1163
23393.1163
23393.1163
23393.1163
23393.1163
23393.1163
23393.1163
23393.1163
23393.1163
23393.1163
23393.1163
23393.1163
23393.1163
23393.1163
23393.1163
23393.1163
23393.1163
23393.1163
23393.1163
23393.1163
23393.1163
23393.1163
23393.1163
23393.1163
23393.1163
23393.1163
23393.1163
23393.1163
23393.1163
23393.1163
23393.1163
23393.1163
23393.1163
23393.1163
23393.1163
23393.1163
23393.1164
23393.1166
23393.1169
23393.1182
23393.12
23393.1263
23393.135
23393.1614
23393.1959
23393.2807
23393.3948
23393.774
23393.6956
23393.717
23395.0764
23403.5326
23398.252
23379.2355
23385.6233
23485.4711
23461.8272
23301.3725
23278.1888
23844.327
23952.4929
23381.6221
23009.1085
23042.9525
23913.3447
23962.2848
23963.987
23376.5009
23183.5268
23005.0952
23007.4817
23880.0009
23953.2971
23918.1707
23959.4969
23390.1315
23256.8916
23131.1908
23127.934
23913.7552
23954.5131
23384.8694
23264.1622
23297.5256
23105.7794
23109.3971
23876.5632
23949.6469
23914.5528
23946.0419
23399.1286
23076.684
23080.1086
23903.4362
23942.5276
23379.9003
22987.1163
22993.5766
23887.0997
23966.8492
23377.8581
23138.261
23883.0947
23965.6995
23344.1032
23143.545
23886.8466
23959.112
23365.1809
23128.7972
23901.1196
23937.3434
23384.6268
22969.5965
22979.1288
23881.9395
23960.2964
23405.6565
23164.4056
23885.1802
23957.8955
23407.4655
23170.3681
23901.1573
23936.7262
23385.7829
23014.161
23022.8393
23880.8548
23960.0696
23430.8905
23207.4953
23887.0027
23958.1318
23423.4627
23211.2439
23902.1594
23936.8618
23387.8186
23050.4653
23059.7531
23888.4558
23957.4458
23404.7427
23246.8594
23047.1844
23055.6983
23877.7431
23955.9962
23407.8867
23203.3884
23884.9114
23954.2306
23428.5717
23198.2032
23900.4087
23931.2359
23391.0174
23016.8436
23021.5292
23885.3793
23948.6646
23430.0635
23192.6535
23893.5969
23932.0615
23399.1853
23023.4878
23023.7941
23902.467
23918.9185
23392.0084
22960.4706
22976.7738
23868.7154
23952.2235
23391.2463
23140.8708
23869.3651
23958.4639
23342.0256
23128.3048
23867.7504
23959.9949
23317.1307
23106.4876
23866.1703
23959.7538
23301.77
23092.6485
23865.3176
23958.9431
23296.1487
23089.6045
23865.9003
23957.6257
23300.4302
23097.7509
23869.1914
23954.9543
23315.576
23111.6715
23878.1957
23947.6425
23352.6685
23100.5608
23900.2911
23921.8081
23393.4878
22883.7778
22900.5181
23877.5877
23948.4322
23391.6056
23147.3437
23884.9115
23949.8766
23404.301
23164.4583
23905.0183
23927.1403
23395.3011
22962.123
22970.0633
23896.4977
23943.4881
23426.5847
23181.6104
23910.5333
23925.4777
23394.5573
22997.8778
23006.9463
23896.2341
23957.581
23428.9361
23232.3222
23905.9309
23963.7368
23404.6282
23310.902
23026.9706
23035.0567
23898.7769
23952.9647
23424.9106
23225.2501
23912.8724
23935.2005
23404.3148
23044.5146
23051.4695
23914.2053
23946.2803
23931.8919
23401.1791
23351.5991
23045.6228
23043.6844
23924.4965
23928.4285
23398.5018
23037.7341
23040.2892
23919.9402
23924.6692
23408.8334
23069.3251
23071.0476
23919.4513
23922.8915
23408.7572
23057.2855
23061.2416
23920.8578
23919.7162
23399.4748
23009.1888
23018.5851
23911.2585
23941.4738
23422.8225
23172.0818
23926.0688
23920.5614
23391.7138
22913.9847
22928.3846
23896.1361
23949.0331
23274.5927
23103.1947
23885.0296
23951.9949
23896.4216
23955.2633
23412.5069
23208.8866
22886.5935
22898.0881
23908.6027
23951.8558
23278.1536
23102.949
23916.0626
23949.0067
23329.1432
23125.4578
23940.8471
23925.3365
23388.9415
22912.0445
22933.4576
23923.0431
23953.9445
23374.0219
23189.4805
23931.7112
23955.3541
23393.6391
23230.9905
23950.0011
23934.4113
23399.3919
23050.3766
23071.8559
23954.7059
23928.8741
23406.0764
23251.5766
23246.2912
22899.1478
22934.9828
23913.5916
23919.0754
23894.484
23916.0248
23462.8247
23016.8644
23055.7345
23963.3143
23920.6326
23390.6627
23161.2
23179.5393
22792.8651
22857.6402
23931.994
23932.0259
23910.7525
23928.3625
23414.649
23182.6032
23976.3601
23915.7549
23385.9393
22912.2978
23010.5761
23949.6917
23923.6249
23295.2813
23192.4524
23973.4692
23901.7392
23388.2196
22908.5964
23039.7392
23939.2551
23891.4393
23226.792
23342.8133
23918.3833
23394.8143
22978.4613
23973.5348
23921.4095
23902.0228
23302.4485
23204.5424
23958.8007
23950.8939
23877.7616
23384.8482
23120.7939
23145.8021
22847.4757
23057.3058
23943.9677
23835.6063
23192.2195
23336.5719
23940.427
23938.5995
23824.8539
23250.0071
23320.3471
23984.7901
23859.0786
23390.1419
22858.9855
23166.8065
23940.0149
23803.8267
23186.0372
23342.0372
23960.252
23954.1759
23837.1728
23394.066
22894.4544
23268.7765
23955.3728
23861.0457
23410.3955
22957.1192
23319.0884
23960.0165
23855.1206
23400.1674
22998.7369
23361.8154
23957.3732
23854.0421
23405.1962
22987.4089
23361.9477
23955.9009
23842.2569
23353.8245
22840.0914
23298.5806
23938.5335
23918.5607
23934.3569
23849.199
23393.1499
22931.3435
23348.4818
23964.329
23847.7386
23258.4174
22864.1526
23304.4592
23937.013
23773.4525
23190.6052
23389.9092
23954.6545
23760.2049
23187.877
23409.0435
23960.3522
23763.464
23189.0068
23408.9767
23972.7063
23845.2393
23213.2383
22906.8941
23374.5862
23939.7141
23756.8648
23218.5859
23412.5222
23961.3585
23745.2452
23226.4988
23410.2802
23975.7878
23848.6506
23204.4167
22923.7617
23371.4423
23944.2682
23753.7649
23222.6563
23409.4999
23966.8485
23744.7088
23239.8151
23405.3594
23979.6808
23862.2193
23228.0019
22999.4139
23369.572
23970.4788
23876.2739
23368.7541
23017.7728
23358.0062
23872.5662
23388.5383
23404.7742
23984.2423
23760.2779
23274.3308
23411.6003
)
;

boundaryField
{
    closed
    {
        type            calculated;
        value           uniform 31725.9281;
    }
    open
    {
        type            calculated;
        value           nonuniform List<scalar> 0();
    }
    sides
    {
        type            empty;
    }
    procBoundary0to1
    {
        type            processor;
        value           uniform 23984.7236;
    }
}


// ************************************************************************* //
