/*--------------------------------*- C++ -*----------------------------------*\
| =========                 |                                                 |
| \\      /  F ield         | OpenFOAM: The Open Source CFD Toolbox           |
|  \\    /   O peration     | Version:  2306                                  |
|   \\  /    A nd           | Website:  www.openfoam.com                      |
|    \\/     M anipulation  |                                                 |
\*---------------------------------------------------------------------------*/
FoamFile
{
    version     2.0;
    format      ascii;
    arch        "LSB;label=32;scalar=64";
    class       volScalarField;
    location    "0.00152";
    object      alpha;
}
// * * * * * * * * * * * * * * * * * * * * * * * * * * * * * * * * * * * * * //

dimensions      [1 -1 -1 0 0 0 0];

internalField   nonuniform List<scalar> 
530
(
3.58215008e-05
3.53010916e-05
3.53007462e-05
3.67654947e-05
3.68248428e-05
3.58271394e-05
3.53048238e-05
3.53050829e-05
3.67679765e-05
3.68245134e-05
3.58330442e-05
3.53097857e-05
3.53099329e-05
3.67738488e-05
3.68234038e-05
3.58413819e-05
3.53178756e-05
3.53192987e-05
3.67795919e-05
3.6820831e-05
3.58724128e-05
3.53435713e-05
3.53495286e-05
3.67857976e-05
3.68234334e-05
3.59445336e-05
3.55165595e-05
3.54520106e-05
3.50831303e-05
3.51068753e-05
3.6788907e-05
3.68376093e-05
3.6783286e-05
3.684828e-05
3.57701305e-05
3.56875876e-05
3.68248039e-05
3.68433884e-05
3.57886831e-05
3.55133925e-05
3.52640199e-05
3.52929708e-05
3.68314233e-05
3.68165497e-05
3.57526187e-05
3.51977821e-05
3.52570267e-05
3.6819759e-05
3.68264681e-05
3.57768451e-05
3.53948393e-05
3.51264999e-05
3.51807002e-05
3.68237063e-05
3.68191095e-05
3.67798091e-05
3.68085336e-05
3.5911492e-05
3.52799798e-05
3.53547026e-05
3.68445162e-05
3.68247108e-05
3.5770178e-05
3.54234809e-05
3.52463383e-05
3.53259527e-05
3.68551835e-05
3.68118969e-05
3.57402983e-05
3.51982939e-05
3.53250742e-05
3.6848074e-05
3.68080128e-05
3.57802412e-05
3.52918481e-05
3.53990274e-05
3.68501896e-05
3.68310835e-05
3.57598344e-05
3.56981758e-05
3.68636309e-05
3.68238376e-05
3.58348948e-05
3.55164173e-05
3.54910697e-05
3.51632909e-05
3.52650178e-05
3.68470777e-05
3.68361491e-05
3.6772278e-05
3.57397508e-05
3.51826387e-05
3.52875814e-05
3.68442097e-05
3.68418076e-05
3.56765203e-05
3.55102012e-05
3.68530047e-05
3.68174635e-05
3.57390379e-05
3.52322479e-05
3.52972526e-05
3.68271327e-05
3.6842892e-05
3.56609855e-05
3.54206849e-05
3.6821123e-05
3.68458194e-05
3.56143725e-05
3.54506498e-05
3.68156682e-05
3.68199492e-05
3.57597136e-05
3.52378302e-05
3.52681293e-05
3.68214841e-05
3.68180662e-05
3.57752206e-05
3.52127969e-05
3.52209451e-05
3.68205048e-05
3.68157706e-05
3.57673298e-05
3.5199709e-05
3.5198504e-05
3.67888054e-05
3.68412187e-05
3.57331158e-05
3.55041782e-05
3.67816617e-05
3.6824023e-05
3.5782242e-05
3.52596475e-05
3.52558571e-05
3.67734607e-05
3.6818224e-05
3.5807712e-05
3.52658002e-05
3.52615731e-05
3.67635026e-05
3.68200224e-05
3.58032204e-05
3.52655017e-05
3.52619528e-05
3.6760755e-05
3.68169386e-05
3.57775769e-05
3.52280952e-05
3.52302281e-05
3.67458889e-05
3.68391319e-05
3.57448532e-05
3.54971487e-05
3.67747239e-05
3.68256547e-05
3.57617327e-05
3.52691544e-05
3.52699333e-05
3.67504292e-05
3.68382618e-05
3.57485144e-05
3.55026909e-05
3.67814286e-05
3.68321383e-05
3.57726628e-05
3.53048365e-05
3.53047644e-05
3.67776898e-05
3.68174945e-05
3.57687493e-05
3.52702116e-05
3.52712552e-05
3.67667563e-05
3.68405286e-05
3.57521352e-05
3.55543366e-05
3.67941444e-05
3.68327197e-05
3.57563373e-05
3.53012552e-05
3.53013203e-05
3.67868498e-05
3.68216611e-05
3.58084473e-05
3.53790685e-05
3.53784247e-05
3.6791036e-05
3.68222615e-05
3.58249307e-05
3.54309878e-05
3.54300527e-05
3.67968397e-05
3.68198066e-05
3.58156887e-05
3.55066001e-05
3.54998477e-05
3.52024813e-05
3.52062304e-05
3.6777327e-05
3.68409148e-05
3.57154255e-05
3.53864292e-05
3.67863771e-05
3.683687e-05
3.57033651e-05
3.54362492e-05
3.68018938e-05
3.68139856e-05
3.57403627e-05
3.50908287e-05
3.50981396e-05
3.67758052e-05
3.68328628e-05
3.57157837e-05
3.53477184e-05
3.67889274e-05
3.68447424e-05
3.56182964e-05
3.53234521e-05
3.6787174e-05
3.68457053e-05
3.56025443e-05
3.5322566e-05
3.67901372e-05
3.68444153e-05
3.56183639e-05
3.53509132e-05
3.6797422e-05
3.6838162e-05
3.56541353e-05
3.53948152e-05
3.68210983e-05
3.68205189e-05
3.5734013e-05
3.50893829e-05
3.50950307e-05
3.68016327e-05
3.68314324e-05
3.57505446e-05
3.54391718e-05
3.68314803e-05
3.68261605e-05
3.5735134e-05
3.51823764e-05
3.51999322e-05
3.68172207e-05
3.68354063e-05
3.57413568e-05
3.54911431e-05
3.68343299e-05
3.68334828e-05
3.57415023e-05
3.52109919e-05
3.52648851e-05
3.68347783e-05
3.68175484e-05
3.57527152e-05
3.52170888e-05
3.53704946e-05
3.68225418e-05
3.68598925e-05
3.56713122e-05
3.54605211e-05
3.68261732e-05
3.68195704e-05
3.57751406e-05
3.52579147e-05
3.53772192e-05
3.68406034e-05
3.68219435e-05
3.57713377e-05
3.5314456e-05
3.53355614e-05
3.68247677e-05
3.68320851e-05
3.5925373e-05
3.55872156e-05
3.52898526e-05
3.52897764e-05
3.68373056e-05
3.68381451e-05
3.57193612e-05
3.5182761e-05
3.57298021e-05
3.68390743e-05
3.57362358e-05
3.54914531e-05
3.68247812e-05
3.68350051e-05
3.62833926e-05
3.56870201e-05
3.52481671e-05
3.54113626e-05
3.68274788e-05
3.68290466e-05
3.57767891e-05
3.52845306e-05
3.54249534e-05
3.68505259e-05
3.68300098e-05
3.57652335e-05
3.52625446e-05
3.54186188e-05
3.68520039e-05
3.68286742e-05
3.57609096e-05
3.52418165e-05
3.54371683e-05
3.68513626e-05
3.68274817e-05
3.5755929e-05
3.52317137e-05
3.54742733e-05
3.68510595e-05
3.68170501e-05
3.57454346e-05
3.51967899e-05
3.54821173e-05
3.68211306e-05
3.68356554e-05
3.55445368e-05
3.51801375e-05
3.68618592e-05
3.68091621e-05
3.58449668e-05
3.51368526e-05
3.51505762e-05
3.68406849e-05
3.67964343e-05
3.57976788e-05
3.51007129e-05
3.51137514e-05
3.68458972e-05
3.6803834e-05
3.57660913e-05
3.48677497e-05
3.49908552e-05
3.68432858e-05
3.68103767e-05
3.68163795e-05
3.57240141e-05
3.5374712e-05
3.68655125e-05
3.6807049e-05
3.57466476e-05
3.50929469e-05
3.5116059e-05
3.68426779e-05
3.68036024e-05
3.57747283e-05
3.5109626e-05
3.51437001e-05
3.68302514e-05
3.68185959e-05
3.57379939e-05
3.55110274e-05
3.6847865e-05
3.6799176e-05
3.58231453e-05
3.529882e-05
3.53150279e-05
3.6834866e-05
3.68145904e-05
3.57827113e-05
3.54897335e-05
3.51504512e-05
3.51533008e-05
3.68351383e-05
3.68183065e-05
3.55469367e-05
3.52981329e-05
3.68464035e-05
3.68023265e-05
3.57307926e-05
3.49478379e-05
3.49782728e-05
3.6809214e-05
3.68319107e-05
3.5551589e-05
3.52785473e-05
3.68178392e-05
3.68357916e-05
3.55092708e-05
3.53259237e-05
3.68164011e-05
3.68385448e-05
3.55156246e-05
3.533758e-05
3.68182066e-05
3.68403778e-05
3.55206703e-05
3.53477984e-05
3.6822787e-05
3.68397062e-05
3.55319523e-05
3.53732905e-05
3.68310505e-05
3.68296622e-05
3.55743954e-05
3.53774104e-05
3.68435919e-05
3.68114443e-05
3.57236972e-05
3.49333045e-05
3.49505446e-05
3.68160683e-05
3.68368752e-05
3.55097842e-05
3.52635599e-05
3.68261447e-05
3.68403548e-05
3.54989165e-05
3.53458083e-05
3.68338332e-05
3.68329847e-05
3.55578867e-05
3.53888534e-05
3.68464571e-05
3.68148921e-05
3.57198744e-05
3.49684184e-05
3.49850987e-05
3.6819191e-05
3.68381114e-05
3.55349473e-05
3.53150364e-05
3.68299037e-05
3.68397629e-05
3.55381709e-05
3.54071971e-05
3.68352951e-05
3.68299205e-05
3.56004338e-05
3.54507202e-05
3.68428262e-05
3.67947026e-05
3.5740363e-05
3.48600141e-05
3.50427167e-05
3.68070868e-05
3.68009419e-05
3.67682926e-05
3.67952414e-05
3.59679305e-05
3.5323654e-05
3.53108943e-05
3.48859563e-05
3.48956936e-05
3.68335595e-05
3.6812109e-05
3.54585261e-05
3.53680179e-05
3.68437199e-05
3.68020319e-05
3.57509493e-05
3.51943591e-05
3.52340514e-05
3.68280083e-05
3.68192676e-05
3.56700585e-05
3.55182481e-05
3.68481248e-05
3.68072441e-05
3.58005218e-05
3.52568646e-05
3.52780749e-05
3.6846727e-05
3.681529e-05
3.57908181e-05
3.51712935e-05
3.52060283e-05
3.68527002e-05
3.68173246e-05
3.57549948e-05
3.51097954e-05
3.51644636e-05
3.68378579e-05
3.68305928e-05
3.55777088e-05
3.54131168e-05
3.68549566e-05
3.68232178e-05
3.57399512e-05
3.51696329e-05
3.51985651e-05
3.68525129e-05
3.68275782e-05
3.57317337e-05
3.50494086e-05
3.51563497e-05
3.68408306e-05
3.68301969e-05
3.55231966e-05
3.53623167e-05
3.68559181e-05
3.68181491e-05
3.57166083e-05
3.50834459e-05
3.51659172e-05
3.68295011e-05
3.68416369e-05
3.55164758e-05
3.54153495e-05
3.6833923e-05
3.6831141e-05
3.5559709e-05
3.54877072e-05
3.68364719e-05
3.68216142e-05
3.57662768e-05
3.52296152e-05
3.52599919e-05
3.68364639e-05
3.68242896e-05
3.5771764e-05
3.51891239e-05
3.52147721e-05
3.68311382e-05
3.68233553e-05
3.5776934e-05
3.51955437e-05
3.52085822e-05
3.68273836e-05
3.68225718e-05
3.57838247e-05
3.52082699e-05
3.52079294e-05
3.68241182e-05
3.68227083e-05
3.57898239e-05
)
;

boundaryField
{
    closed
    {
        type            calculated;
        value           nonuniform List<scalar> 0();
    }
    open
    {
        type            calculated;
        value           nonuniform List<scalar> 0();
    }
    sides
    {
        type            empty;
    }
    procBoundary2to1
    {
        type            processor;
        value           uniform 3.68250705e-05;
    }
    procBoundary2to3
    {
        type            processor;
        value           uniform 3.52165214e-05;
    }
}


// ************************************************************************* //
