/*--------------------------------*- C++ -*----------------------------------*\
| =========                 |                                                 |
| \\      /  F ield         | OpenFOAM: The Open Source CFD Toolbox           |
|  \\    /   O peration     | Version:  2306                                  |
|   \\  /    A nd           | Website:  www.openfoam.com                      |
|    \\/     M anipulation  |                                                 |
\*---------------------------------------------------------------------------*/
FoamFile
{
    version     2.0;
    format      ascii;
    arch        "LSB;label=32;scalar=64";
    class       surfaceScalarField;
    location    "0.00152";
    object      phi;
}
// * * * * * * * * * * * * * * * * * * * * * * * * * * * * * * * * * * * * * //

dimensions      [1 0 -1 0 0 0 0];

oriented        oriented;

internalField   nonuniform List<scalar> 
529
(
2.93213378e-06
2.80761218e-06
2.66963781e-06
2.61554865e-06
2.49780846e-06
2.41403606e-06
2.26488789e-06
2.12477892e-06
2.08300731e-06
1.96035547e-06
1.84281479e-06
1.67072874e-06
1.48691342e-06
1.48414533e-06
1.34335657e-06
1.19817966e-06
1.00126878e-06
8.40652436e-07
8.28470528e-07
6.77668733e-07
5.03745858e-07
2.81146479e-07
1.41954249e-07
1.29396964e-07
-1.94917514e-08
-2.12872804e-07
-4.03533511e-07
-5.73883931e-07
-7.83811093e-07
-8.71314149e-07
-8.61545161e-07
-9.98509126e-07
-1.13953759e-06
-1.29874918e-06
-1.45118292e-06
-1.5935981e-06
-1.54682025e-06
-1.70223058e-06
-1.86640531e-06
-2.05121292e-06
-2.20161033e-06
-2.21882608e-06
-2.1478542e-06
-2.29993541e-06
-2.446906e-06
-2.59849324e-06
-2.54582681e-06
-2.46260848e-06
-2.58823907e-06
-2.6947732e-06
-2.85283357e-06
-2.93780109e-06
-2.84537295e-06
-2.72476473e-06
-2.75991624e-06
-2.74988886e-06
-2.80066101e-06
-2.91848061e-06
-2.96339942e-06
-2.81315805e-06
-2.62938547e-06
-2.62616561e-06
-2.60585902e-06
-2.60618985e-06
-2.53213462e-06
-2.24878346e-06
-2.08769093e-06
-2.00336768e-06
-1.91556609e-06
-1.81842553e-06
-1.51448831e-06
-1.31355632e-06
-1.16385345e-06
-1.04091015e-06
-8.97661396e-07
-6.29317037e-07
-4.24219558e-07
-2.14090253e-07
-4.88369921e-08
1.74050626e-07
4.22347265e-07
6.47170399e-07
8.56756059e-07
1.07141917e-06
1.29849864e-06
1.52423854e-06
1.69518842e-06
1.86658403e-06
2.0901138e-06
2.38767081e-06
2.62622603e-06
2.8596854e-06
2.96237994e-06
3.11145772e-06
3.34673739e-06
3.71448448e-06
3.91054152e-06
3.95702414e-06
4.18084812e-06
4.40929183e-06
4.65598828e-06
4.65803946e-06
4.74425366e-06
4.93918775e-06
5.40219024e-06
5.57276378e-06
5.49376432e-06
5.64513045e-06
6.09897741e-06
6.19917299e-06
6.05029243e-06
6.13258656e-06
6.246263e-06
6.34981541e-06
6.1083559e-06
6.00990406e-06
6.01284625e-06
6.06992018e-06
6.11463915e-06
5.83793716e-06
5.72095091e-06
5.69817693e-06
5.73373535e-06
5.73372129e-06
5.71022634e-06
5.40440474e-06
5.32847757e-06
5.25874438e-06
5.15435758e-06
4.95351275e-06
4.86014199e-06
4.82181496e-06
4.74298612e-06
4.67442187e-06
4.45258253e-06
4.35559258e-06
4.3159133e-06
4.22291377e-06
4.15167668e-06
3.98298113e-06
3.88923076e-06
3.84583136e-06
3.74708713e-06
3.68513869e-06
3.56697698e-06
3.48226328e-06
3.43856494e-06
3.32748151e-06
3.25458262e-06
3.18855946e-06
3.11928531e-06
3.09032666e-06
3.0082055e-06
2.97930559e-06
2.90492511e-06
2.85571016e-06
2.75680152e-06
2.63898116e-06
2.64478427e-06
2.57209243e-06
2.54283735e-06
2.47031558e-06
2.47563366e-06
2.41942167e-06
2.38189783e-06
2.30174652e-06
2.218135e-06
2.23914671e-06
2.18783756e-06
2.16389494e-06
2.08823727e-06
2.00519469e-06
2.06350585e-06
2.02751671e-06
2.02015681e-06
1.97166685e-06
2.01530892e-06
1.98550812e-06
1.9706081e-06
1.91619401e-06
1.83655501e-06
1.90128756e-06
1.87104585e-06
1.85902748e-06
1.80834724e-06
1.74850761e-06
1.80935496e-06
1.78822399e-06
1.78675192e-06
1.74963057e-06
1.69778615e-06
1.75976277e-06
1.74986822e-06
1.75527269e-06
1.75612563e-06
1.75381169e-06
1.71792118e-06
1.66207927e-06
1.73967918e-06
1.7312674e-06
1.65930132e-06
1.64319893e-06
1.69323956e-06
1.6862228e-06
1.60873162e-06
1.57934024e-06
1.63149316e-06
1.61745831e-06
1.60812403e-06
1.56744471e-06
1.52437155e-06
1.57201543e-06
1.56253417e-06
1.48726356e-06
1.46861023e-06
1.51549698e-06
1.50998224e-06
1.42407893e-06
1.40900584e-06
1.45974871e-06
1.45878651e-06
1.37172123e-06
1.36031688e-06
1.41441141e-06
1.41687915e-06
1.33134849e-06
1.32423294e-06
1.38307042e-06
1.39012181e-06
1.31401075e-06
1.30646834e-06
1.37443059e-06
1.3867301e-06
1.40119375e-06
1.39962607e-06
1.39966502e-06
1.46394507e-06
1.48509795e-06
1.5068283e-06
1.51923825e-06
1.58523821e-06
1.61212879e-06
1.64222563e-06
1.66940775e-06
1.66728172e-06
1.71478027e-06
1.7450004e-06
1.77525238e-06
1.80161218e-06
1.85170959e-06
1.88549172e-06
1.92421742e-06
1.96514144e-06
1.93728228e-06
1.97014745e-06
1.99713713e-06
2.03827027e-06
2.07710282e-06
2.01956532e-06
2.04151194e-06
2.05736822e-06
2.1238503e-06
2.13200482e-06
2.13825749e-06
2.1593812e-06
2.18872946e-06
2.22256108e-06
2.15474562e-06
2.15200729e-06
2.15630743e-06
2.18146455e-06
2.19428134e-06
2.1348173e-06
2.12140867e-06
2.11779754e-06
2.14742372e-06
2.17085682e-06
2.15350037e-06
2.1200352e-06
2.08845581e-06
2.07577631e-06
2.07656037e-06
2.08080463e-06
2.04713704e-06
2.02189359e-06
2.00985714e-06
1.98123214e-06
1.93163392e-06
1.91071658e-06
1.99369278e-06
1.97626551e-06
1.91798228e-06
1.819554e-06
1.78291693e-06
1.75824912e-06
1.7496679e-06
1.740947e-06
1.65230784e-06
1.62058884e-06
1.59491001e-06
1.58061425e-06
1.56911523e-06
1.48571213e-06
1.45567759e-06
1.43027698e-06
1.41236881e-06
1.40023083e-06
1.32104206e-06
1.29318533e-06
1.26769685e-06
1.24711579e-06
1.23473047e-06
1.15860238e-06
1.13408646e-06
1.10704528e-06
1.0833921e-06
1.06586957e-06
9.94018872e-07
9.76692496e-07
9.48237116e-07
8.99881962e-07
8.85693956e-07
8.69145145e-07
8.51268118e-07
8.08918334e-07
7.78795499e-07
7.52000376e-07
7.41269537e-07
7.24286276e-07
6.88214878e-07
6.61750699e-07
6.45905159e-07
6.39573416e-07
6.2589152e-07
5.94141124e-07
5.66093552e-07
5.91006275e-07
5.85799144e-07
5.77342551e-07
5.71764838e-07
5.50111271e-07
5.18761578e-07
5.3177024e-07
5.26663806e-07
5.06777411e-07
4.99694676e-07
5.16491985e-07
5.38855003e-07
5.45976843e-07
5.34957068e-07
5.27447856e-07
5.52092201e-07
5.7100809e-07
5.73835417e-07
5.06089829e-07
4.95895963e-07
5.26096914e-07
5.32724831e-07
5.25608686e-07
5.25416688e-07
5.44567924e-07
5.77421916e-07
5.86922728e-07
5.80047699e-07
5.73500909e-07
5.89174232e-07
6.0032713e-07
6.28136516e-07
6.32013129e-07
5.73745817e-07
5.64181678e-07
5.94998485e-07
5.99450011e-07
5.90499444e-07
5.85286282e-07
6.1077387e-07
6.33758023e-07
6.3675222e-07
5.67123021e-07
5.59142984e-07
5.8960441e-07
5.89538118e-07
5.14603206e-07
5.08904818e-07
5.42699595e-07
5.42480701e-07
4.62344113e-07
4.56570176e-07
4.93626659e-07
4.92830476e-07
4.08601782e-07
4.02457819e-07
4.42808626e-07
4.40607602e-07
3.52981574e-07
3.45034428e-07
3.88520967e-07
3.84332959e-07
2.97709313e-07
2.78057249e-07
3.2385084e-07
3.2103119e-07
3.06427106e-07
2.92797069e-07
3.28719618e-07
3.56365798e-07
3.53414208e-07
2.60760259e-07
2.46963692e-07
2.97103346e-07
2.92819848e-07
1.96032869e-07
1.86881043e-07
2.3886715e-07
2.35112647e-07
1.44209408e-07
1.25443555e-07
1.78162052e-07
1.78369904e-07
1.67408305e-07
1.60759179e-07
2.06279731e-07
2.36287925e-07
2.38352049e-07
1.54614161e-07
1.45635907e-07
1.96999181e-07
1.97913708e-07
1.14339786e-07
1.10705839e-07
1.60115527e-07
1.60244612e-07
8.53664209e-08
7.17161078e-08
1.17518388e-07
1.17492925e-07
1.10963881e-07
6.8810828e-08
1.15002822e-07
1.75666693e-07
1.85179707e-07
2.19821852e-07
2.29026781e-07
2.0971839e-07
1.87956443e-07
1.90363879e-07
2.08449853e-07
2.40648662e-07
2.68536307e-07
2.77574634e-07
2.36514592e-07
2.29230971e-07
2.62698288e-07
2.76354504e-07
2.75994947e-07
2.92615268e-07
3.34509991e-07
3.56978974e-07
3.74148968e-07
3.55692312e-07
3.61713428e-07
3.8715811e-07
4.09621039e-07
4.20216031e-07
4.52348694e-07
4.82862e-07
5.08447793e-07
5.40007179e-07
5.59376774e-07
6.00912224e-07
6.34656955e-07
6.62332102e-07
7.01350217e-07
7.31609147e-07
7.83769724e-07
8.26604961e-07
8.57143155e-07
9.01924414e-07
9.70093607e-07
1.00782262e-06
1.01965636e-06
1.07069883e-06
1.11859546e-06
1.19395401e-06
1.21847195e-06
1.24471766e-06
1.29500641e-06
1.34988435e-06
1.43183761e-06
1.45102016e-06
1.47603528e-06
1.53301501e-06
1.665725e-06
1.71089014e-06
1.69476265e-06
1.75309949e-06
1.8133606e-06
1.90034875e-06
1.89567982e-06
1.90462996e-06
1.95765973e-06
2.11712147e-06
2.16103875e-06
2.12591156e-06
2.17653216e-06
2.34676437e-06
2.38377931e-06
2.33660585e-06
2.38580043e-06
2.45391673e-06
2.54079527e-06
2.48844963e-06
2.47808886e-06
2.52041909e-06
2.5836689e-06
2.66445415e-06
2.60042462e-06
2.57981432e-06
2.61276969e-06
2.67071002e-06
2.74276669e-06
2.66837906e-06
2.64014015e-06
2.66309892e-06
2.71347524e-06
2.76387367e-06
2.75245187e-06
2.66785691e-06
2.69355456e-06
)
;

boundaryField
{
    closed
    {
        type            calculated;
        value           nonuniform List<scalar> 0();
    }
    open
    {
        type            calculated;
        value           nonuniform List<scalar> 0();
    }
    sides
    {
        type            empty;
        value           nonuniform List<scalar> 0();
    }
    procBoundary2to1
    {
        type            processor;
        value           uniform -3.00840511e-06;
    }
    procBoundary2to3
    {
        type            processor;
        value           uniform 2.74396411e-06;
    }
}


// ************************************************************************* //
