/*--------------------------------*- C++ -*----------------------------------*\
| =========                 |                                                 |
| \\      /  F ield         | OpenFOAM: The Open Source CFD Toolbox           |
|  \\    /   O peration     | Version:  2306                                  |
|   \\  /    A nd           | Website:  www.openfoam.com                      |
|    \\/     M anipulation  |                                                 |
\*---------------------------------------------------------------------------*/
FoamFile
{
    version     2.0;
    format      ascii;
    arch        "LSB;label=32;scalar=64";
    class       volScalarField;
    location    "0.00158";
    object      prefDh_H;
}
// * * * * * * * * * * * * * * * * * * * * * * * * * * * * * * * * * * * * * //

dimensions      [1 1 -3 0 0 0 0];

internalField   nonuniform List<scalar> 
531
(
23914.5706
23991.5574
23232.5427
23088.4694
23184.9508
23378.5691
23949.044
23983.2817
23346.0215
23063.7733
23369.2267
23940.8565
23990.2947
23376.6069
23058.176
23370.6022
23940.8127
23989.3959
23382.0406
23042.6159
23371.0819
23932.4884
23987.0257
23361.6135
23041.9558
23382.2471
23908.6441
23967.5287
23246.7307
23031.978
23517.874
23916.9028
23668.5097
23190.7053
23046.3179
23439.5748
23908.0177
23961.392
23960.4086
23373.9787
23065.2116
23161.7283
23142.1596
23391.791
23886.0585
23826.3691
23119.8246
23006.6193
23642.2237
23907.99
23522.9724
23072.0599
23030.2366
23704.4086
23948.0701
23421.0097
23365.5509
23398.7045
23889.9036
23716.3328
23223.3134
23083.0851
23587.5281
23938.6544
23418.4895
23324.6626
23388.6557
23892.5048
23642.0641
23332.3985
23116.5107
23073.3971
23353.7163
23783.8849
23964.786
23592.0226
23358.2746
23156.3718
23366.9622
23752.5885
23962.1915
23428.3758
23233.1518
23352.6762
23856.3731
23798.1407
23370.0203
23169.4741
23090.6468
23318.6214
23665.9463
23935.4249
23724.707
23360.6637
23061.1907
23333.6229
23824.1909
23848.1386
23364.0117
23156.1558
23333.8901
23801.0283
23949.5896
23598.7393
23383.0767
23140.9732
23097.1462
23349.1918
23813.1906
23870.2656
23365.9332
23182.1301
23350.6449
23823.5466
23851.3027
23361.2406
23146.2536
23346.0866
23842.9977
23626.0034
23387.7711
23376.9021
23860.8362
23707.9027
23369.6071
23098.9362
23353.5111
23850.9261
23782.7607
23365.124
23115.4849
23354.5336
23858.3251
23731.2011
23371.3189
23129.5986
23363.7504
23873.1484
23693.0908
23372.4019
23122.2721
23365.4834
23875.2596
23679.0539
23354.5988
23063.2532
23352.8588
23878.353
23616.8767
23397.9206
23370.8929
23879.1884
23674.2407
23343.1501
23071.9123
23356.4578
23885.4902
23625.0892
23396.0774
23378.2645
23893.5418
23685.9976
23366.2794
23101.2211
23362.3838
23894.7034
23622.5598
23396.3145
23382.7981
23901.2847
23696.3928
23387.7398
23218.0816
23161.7239
23060.9924
23355.8216
23891.0242
23586.9743
23364.4193
23373.9635
23909.5222
23920.4248
23365.6935
23098.7603
23359.4451
23904.7509
23585.9939
23379.8082
23373.0805
23919.1932
23639.8589
23302.6364
23050.6502
23363.0121
23914.2043
23557.0764
23380.267
23379.7927
23928.8211
23615.188
23278.8478
23048.2832
23367.2809
23924.7068
23528.172
23359.4463
23384.2453
23937.8195
23599.3548
23275.8864
23081.9487
23384.0676
23925.2789
23659.5197
23327.3215
23124.144
23387.7318
23932.4922
23857.872
23376.7787
23142.3587
23141.6052
23378.0518
23930.8579
23676.4773
23321.2795
23114.7038
23391.4405
23931.6668
23757.4359
23363.5597
23130.3007
23394.7864
23932.8945
23743.3167
23348.9803
23120.7394
23396.4705
23935.61
23663.4202
23306.7608
23094.1526
23392.2195
23945.1682
23504.5671
23366.243
23408.1591
23960.6727
23585.2001
23275.8705
23107.7311
23401.6847
23944.2302
23655.0599
23288.8113
23114.4394
23405.6048
23942.4789
23730.544
23321.3457
23128.572
23412.9742
23942.7797
23724.3495
23360.6221
23205.0486
23183.848
23100.438
23383.6297
23958.2881
23463.6642
23309.1552
23440.6781
23969.4431
23435.9117
23342.7036
23459.3533
23968.3944
23516.8168
23228.0886
23093.0657
23409.2409
23950.5086
23572.3079
23171.9987
23044.6576
23419.0502
23954.4201
23410.8739
23287.441
23507.7905
23963.2386
23393.5739
23313.3795
23518.7037
23960.2342
23472.698
23186.0254
23109.0763
23422.2697
23945.3979
23596.8142
23190.2665
23088.1479
23426.0599
23939.5157
23593.5861
23182.1381
23080.2907
23424.7298
23938.211
23550.1197
23149.8977
23070.371
23426.4057
23934.9322
23398.7364
23282.8773
23530.8285
23950.5609
23444.2273
23142.9499
23079.5046
23414.7074
23938.4676
23394.7425
23255.7549
23523.8216
23949.5441
23436.9806
23131.326
23061.1616
23403.8771
23944.9442
23397.3625
23242.1722
23523.0272
23946.3706
23381.8568
23271.8353
23523.0564
23953.7107
23451.0969
23162.9809
23082.1249
23401.8766
23946.7974
23563.8274
23129.085
23027.139
23404.8276
23939.0168
23403.7396
23226.991
23506.1859
23946.1771
23377.0559
23234.4338
23509.9144
23955.5805
23429.0683
23106.2779
23034.5337
23393.7675
23947.5975
23398.3575
23207.3825
23503.6492
23946.6632
23375.4927
23249.5398
23514.1544
23952.6522
23450.1878
23123.7085
23088.4091
23419.7332
23941.8801
23404.9937
23285.5369
23503.8243
23947.7073
23497.5791
23158.4603
23115.2343
23408.6386
23944.4602
23869.5601
23142.7773
23026.3856
23411.2065
23930.9481
23899.4765
23141.3309
23041.2026
23412.9279
23928.8068
23907.7521
23137.4733
23067.2005
23426.8883
23920.4063
23764.2257
23150.9743
23069.2274
23198.7739
23415.1973
23960.7182
23933.8535
23424.5468
23079.2313
23082.2056
23424.9088
23903.6125
23371.3093
23244.2997
23542.5707
23888.792
23360.3415
23293.1651
23586.2646
23900.4237
23378.1659
23047.3969
23133.4876
23485.555
23873.8161
23362.113
23327.2924
23704.0077
23855.6057
23391.2969
23378.6009
23817.3397
23831.3038
23412.4058
23380.0247
23872.5585
23866.138
23362.275
23090.9092
23265.8512
23618.2946
23840.3944
23395.0679
23378.3511
23892.109
23853.7385
23365.0521
23128.7223
23315.0383
23579.6137
23892.552
23415.1769
23063.6117
23248.6688
23629.3747
23866.1702
23378.9648
23050.6266
23264.7595
23649.1508
23860.4848
23356.7409
23039.3137
23280.3967
23704.9089
23819.6911
23389.3849
23399.673
23813.7604
23845.7881
23351.9284
23069.7986
23362.739
23794.1985
23949.0758
23820.6287
23366.3256
23112.8149
23151.288
23386.1512
23624.4676
23869.5607
23344.7645
23025.7971
23277.9978
23669.0115
23842.6649
23369.2557
23405.4714
23697.0487
23857.9572
23344.6293
23059.6915
23320.8006
23688.8054
23857.9078
23367.2328
23405.9649
23728.8657
23847.1011
23393.2664
23400.6924
23759.9495
23864.9243
23349.8766
23089.9817
23378.4055
23779.5896
23868.8165
23354.1263
23068.0289
23377.704
23814.8808
23865.0361
23353.5002
23062.8568
23380.481
23828.916
23868.6647
23354.6941
23065.8018
23379.616
23849.5913
23872.1138
23356.2406
23069.2096
23379.4372
23867.3271
23874.9404
)
;

boundaryField
{
    closed
    {
        type            calculated;
        value           nonuniform List<scalar> 0();
    }
    open
    {
        type            calculated;
        value           nonuniform List<scalar> 0();
    }
    sides
    {
        type            empty;
    }
    procBoundary1to0
    {
        type            processor;
        value           uniform 23367.6584;
    }
    procBoundary1to2
    {
        type            processor;
        value           uniform 23357.2082;
    }
}


// ************************************************************************* //
