/*--------------------------------*- C++ -*----------------------------------*\
| =========                 |                                                 |
| \\      /  F ield         | OpenFOAM: The Open Source CFD Toolbox           |
|  \\    /   O peration     | Version:  2306                                  |
|   \\  /    A nd           | Website:  www.openfoam.com                      |
|    \\/     M anipulation  |                                                 |
\*---------------------------------------------------------------------------*/
FoamFile
{
    version     2.0;
    format      ascii;
    arch        "LSB;label=32;scalar=64";
    class       volScalarField;
    location    "0.00114";
    object      mu;
}
// * * * * * * * * * * * * * * * * * * * * * * * * * * * * * * * * * * * * * //

dimensions      [1 -1 -1 0 0 0 0];

internalField   nonuniform List<scalar> 
531
(
2.02830155e-05
1.98016365e-05
1.94230765e-05
1.93914455e-05
1.9788492e-05
2.02788757e-05
2.02781094e-05
2.0285902e-05
2.01214769e-05
1.97391387e-05
1.92445006e-05
1.92623008e-05
2.02521169e-05
2.02891989e-05
1.96688399e-05
1.94974153e-05
2.0260028e-05
2.02859057e-05
1.97176743e-05
1.95479317e-05
2.026279e-05
2.02746167e-05
1.98206243e-05
1.94047946e-05
1.94016927e-05
2.02536829e-05
2.02804948e-05
1.97456994e-05
1.95582174e-05
2.02579379e-05
2.02691044e-05
1.98511576e-05
1.94172175e-05
1.94177334e-05
2.02413613e-05
2.02637449e-05
1.99378924e-05
1.93889913e-05
1.93888481e-05
2.02434476e-05
2.02701554e-05
2.02684252e-05
1.9864908e-05
1.97070154e-05
1.93925565e-05
1.93913524e-05
2.02664945e-05
2.02641466e-05
1.97902214e-05
1.92352165e-05
1.92793626e-05
2.02559834e-05
2.02791418e-05
2.02580407e-05
1.98723362e-05
1.92870605e-05
1.9297551e-05
2.02459495e-05
2.02921126e-05
1.96584704e-05
1.95013534e-05
2.02592668e-05
2.02969679e-05
1.96704352e-05
1.95435893e-05
2.02606419e-05
2.02971624e-05
1.96755997e-05
1.95430547e-05
2.02632732e-05
2.02945299e-05
1.96651189e-05
1.95124001e-05
2.02695493e-05
2.028763e-05
1.96720103e-05
1.94639342e-05
2.0276443e-05
2.02778527e-05
1.97804476e-05
1.93136841e-05
1.93175885e-05
2.02749757e-05
2.02942708e-05
1.97978e-05
1.95561713e-05
1.94232126e-05
1.97387868e-05
2.0265915e-05
2.03065267e-05
2.02567783e-05
2.02932829e-05
2.00082026e-05
1.96189046e-05
1.95223772e-05
1.92348091e-05
1.92400568e-05
2.02592502e-05
2.02855968e-05
1.96592574e-05
1.95291952e-05
2.02615329e-05
2.02919755e-05
1.97028537e-05
1.95836038e-05
2.02658684e-05
2.02957633e-05
1.97023867e-05
1.95750869e-05
2.02720948e-05
2.0295857e-05
1.96844262e-05
1.95405295e-05
2.0280219e-05
2.02896434e-05
1.9681865e-05
1.94919365e-05
2.02883255e-05
2.02752901e-05
1.97895133e-05
1.93327905e-05
1.93314817e-05
2.0285121e-05
2.02660603e-05
1.98146957e-05
1.92498422e-05
1.92774404e-05
2.02815866e-05
2.02702848e-05
2.02715965e-05
1.97694428e-05
1.94839071e-05
2.02875486e-05
2.02747345e-05
1.97048349e-05
1.9520159e-05
2.0290349e-05
2.02676983e-05
1.97908714e-05
1.9303131e-05
1.93087064e-05
2.02908349e-05
2.02622688e-05
1.98391728e-05
1.93503025e-05
1.93611511e-05
2.02855908e-05
2.02775083e-05
1.96780295e-05
1.95438132e-05
2.02826479e-05
2.02646407e-05
1.99280977e-05
1.94183389e-05
1.94199024e-05
2.02906266e-05
2.02891261e-05
1.97078179e-05
1.96294483e-05
2.02940241e-05
2.02921602e-05
1.98044945e-05
1.97678405e-05
1.94311734e-05
1.94351601e-05
2.02896894e-05
2.02868487e-05
1.9703035e-05
1.95649686e-05
2.02910322e-05
2.02697072e-05
1.98631872e-05
1.94170242e-05
1.94221189e-05
2.02989377e-05
2.02650921e-05
1.98346405e-05
1.93827964e-05
1.93929145e-05
2.03017488e-05
2.02661374e-05
1.98127202e-05
1.93591855e-05
1.93802261e-05
2.03040444e-05
2.02978815e-05
1.97986562e-05
1.96075179e-05
1.94372311e-05
1.96344192e-05
2.02848358e-05
2.03067305e-05
2.02767555e-05
2.03003477e-05
1.99030687e-05
1.95744492e-05
1.95320578e-05
1.9260352e-05
1.9485263e-05
2.02656619e-05
2.03021838e-05
2.02575574e-05
2.03041357e-05
2.02611238e-05
1.97669486e-05
1.92814596e-05
1.92906984e-05
2.02854921e-05
2.02661935e-05
1.98099017e-05
1.9345087e-05
1.93519722e-05
2.02911615e-05
2.02635852e-05
1.98287711e-05
1.93696258e-05
1.93721655e-05
2.02915035e-05
2.02604908e-05
1.98559664e-05
1.93862876e-05
1.93919229e-05
2.02814757e-05
2.02792809e-05
1.97472765e-05
1.95739981e-05
2.02779949e-05
2.02650602e-05
1.98558113e-05
1.94256272e-05
1.94248868e-05
2.02843108e-05
2.02620383e-05
1.98843343e-05
1.943287e-05
1.94366184e-05
2.02865344e-05
2.02825458e-05
1.97955177e-05
1.97009781e-05
1.93684439e-05
1.9371753e-05
2.02987615e-05
2.02862188e-05
1.97558728e-05
1.95040454e-05
1.9750681e-05
2.02644834e-05
2.03197e-05
2.02570986e-05
2.03048985e-05
1.99913523e-05
1.97652714e-05
1.930203e-05
1.93114144e-05
2.02861441e-05
2.02711625e-05
1.97820711e-05
1.92250053e-05
1.92351579e-05
2.02778418e-05
2.02796755e-05
1.97656428e-05
1.94998611e-05
1.99018702e-05
2.02369573e-05
2.02676553e-05
2.02633102e-05
1.94091866e-05
1.93242898e-05
2.02520961e-05
2.02510954e-05
1.98091402e-05
1.92994295e-05
1.93068454e-05
2.02475492e-05
2.02377238e-05
2.02465548e-05
2.01272439e-05
1.97061581e-05
1.95219362e-05
1.95475705e-05
1.93496454e-05
1.95660512e-05
2.02523174e-05
2.02936396e-05
2.02656822e-05
2.02937598e-05
1.97434027e-05
1.93774989e-05
2.0272406e-05
2.02654354e-05
1.97977221e-05
1.92894276e-05
1.92953737e-05
2.009453e-05
2.02493488e-05
2.02402671e-05
2.00277339e-05
1.93973002e-05
1.9393894e-05
2.01503045e-05
2.02674255e-05
2.02588178e-05
1.98680009e-05
1.9774521e-05
1.9418588e-05
1.94218065e-05
2.02575264e-05
2.02803586e-05
1.97988355e-05
1.96958659e-05
1.93765132e-05
1.93590953e-05
1.9930708e-05
2.02756995e-05
2.02706461e-05
2.02832195e-05
1.99785252e-05
1.97737502e-05
1.93343868e-05
1.9347454e-05
2.02507014e-05
2.0272737e-05
1.9796553e-05
1.93324694e-05
1.9320684e-05
1.98712024e-05
2.02751774e-05
2.02809172e-05
2.02844755e-05
1.99433905e-05
1.97560287e-05
1.93205172e-05
1.93348386e-05
2.02209895e-05
2.02892166e-05
1.96910593e-05
1.95443862e-05
2.01443029e-05
2.02843632e-05
2.02509874e-05
1.98565727e-05
1.93341679e-05
1.93427368e-05
2.02301839e-05
2.02746165e-05
1.98033619e-05
1.93335385e-05
1.93192482e-05
1.98800738e-05
2.02750263e-05
2.02570378e-05
2.02885345e-05
2.0240903e-05
1.96872654e-05
1.94826196e-05
1.93721337e-05
1.92634978e-05
1.97301289e-05
2.02750302e-05
2.0324033e-05
2.03040611e-05
1.99761501e-05
1.9367645e-05
1.92357805e-05
1.98010407e-05
2.03180235e-05
2.03601397e-05
2.0354324e-05
1.97089971e-05
1.92966839e-05
2.03144557e-05
2.04000273e-05
1.94582266e-05
1.92478582e-05
2.03365784e-05
2.04616768e-05
2.04477972e-05
1.9397284e-05
1.91385622e-05
2.02450256e-05
2.04295463e-05
2.03925326e-05
1.93349732e-05
1.90449361e-05
2.01202793e-05
2.03150081e-05
2.02509516e-05
2.02949724e-05
2.0273684e-05
2.02898353e-05
2.0277084e-05
2.02851104e-05
2.02734695e-05
2.02819291e-05
2.02691767e-05
2.02828714e-05
2.02777889e-05
2.02996e-05
2.03136888e-05
2.03559961e-05
2.04101276e-05
2.05627227e-05
2.07067595e-05
2.05621687e-05
2.04892586e-05
2.03628155e-05
2.02992756e-05
2.02015158e-05
2.01532725e-05
2.00883979e-05
2.00323419e-05
1.99460345e-05
1.99123859e-05
1.99513522e-05
1.98704607e-05
1.98185015e-05
1.97710513e-05
1.97351667e-05
1.97201392e-05
1.96775638e-05
1.95805175e-05
1.94225312e-05
1.93503291e-05
1.91727127e-05
1.91328e-05
1.90094651e-05
2.06234948e-05
2.01919772e-05
2.01198958e-05
1.97826614e-05
1.96406335e-05
1.93423626e-05
1.91564743e-05
1.88605386e-05
1.86023376e-05
1.83910489e-05
1.83901569e-05
1.83916411e-05
1.83908065e-05
1.83923085e-05
1.83908531e-05
1.83938208e-05
2.05493508e-05
2.08822471e-05
2.09228253e-05
2.24479432e-05
2.37659125e-05
2.47931659e-05
2.58226086e-05
2.66737018e-05
2.75810657e-05
2.83553702e-05
2.97213713e-05
3.02854383e-05
3.16507487e-05
3.23716173e-05
3.35202015e-05
3.43700326e-05
3.54404043e-05
3.6348819e-05
3.74269564e-05
3.8267055e-05
3.92331061e-05
3.99970921e-05
4.09074353e-05
4.16277406e-05
4.24482187e-05
4.31184016e-05
4.37308609e-05
4.42791721e-05
4.50242756e-05
4.55728932e-05
4.59878879e-05
4.64087994e-05
4.70230587e-05
4.73039734e-05
4.77798315e-05
4.80494805e-05
4.83124652e-05
4.85288505e-05
4.88418602e-05
4.90078964e-05
4.92911488e-05
4.93947083e-05
4.96423419e-05
4.97697919e-05
5.01645582e-05
5.00552985e-05
5.02662673e-05
5.04343114e-05
5.10214979e-05
5.07794724e-05
5.12869534e-05
5.10033186e-05
5.15087957e-05
5.14822402e-05
5.19482365e-05
5.15002889e-05
5.20727884e-05
5.21165691e-05
5.21373806e-05
5.1976929e-05
5.23758638e-05
5.24906698e-05
5.2578106e-05
5.24178195e-05
5.26623013e-05
5.28494672e-05
5.28746842e-05
5.27397438e-05
5.29165979e-05
5.31208777e-05
5.31178427e-05
5.29910256e-05
5.31222719e-05
5.33112849e-05
5.33097807e-05
5.31885285e-05
5.32889245e-05
5.34720883e-05
5.34664465e-05
5.33500137e-05
5.34263191e-05
5.36114172e-05
5.36007794e-05
5.34874876e-05
5.35438554e-05
5.37381277e-05
5.37189235e-05
)
;

boundaryField
{
    closed
    {
        type            calculated;
        value           nonuniform List<scalar> 0();
    }
    open
    {
        type            calculated;
        value           nonuniform List<scalar> 0();
    }
    sides
    {
        type            empty;
    }
    procBoundary4to3
    {
        type            processor;
        value           uniform 2.02545393e-05;
    }
    procBoundary4to5
    {
        type            processor;
        value           uniform 5.36082448e-05;
    }
}


// ************************************************************************* //
