/*--------------------------------*- C++ -*----------------------------------*\
| =========                 |                                                 |
| \\      /  F ield         | OpenFOAM: The Open Source CFD Toolbox           |
|  \\    /   O peration     | Version:  2306                                  |
|   \\  /    A nd           | Website:  www.openfoam.com                      |
|    \\/     M anipulation  |                                                 |
\*---------------------------------------------------------------------------*/
FoamFile
{
    version     2.0;
    format      ascii;
    arch        "LSB;label=32;scalar=64";
    class       volScalarField;
    location    "0.00114";
    object      prefDZ_H2;
}
// * * * * * * * * * * * * * * * * * * * * * * * * * * * * * * * * * * * * * //

dimensions      [1 -1 -1 0 0 0 0];

internalField   nonuniform List<scalar> 
531
(
6.35313139e-05
6.23532072e-05
6.14052539e-05
6.13183189e-05
6.2312944e-05
6.35158181e-05
6.35157079e-05
6.35453602e-05
6.30701137e-05
6.22670232e-05
6.09129709e-05
6.09657323e-05
6.34218065e-05
6.35496965e-05
6.20739777e-05
6.16070686e-05
6.34435165e-05
6.35438822e-05
6.22073639e-05
6.17438458e-05
6.34557837e-05
6.35092744e-05
6.23879533e-05
6.13528663e-05
6.13455852e-05
6.34265778e-05
6.35262623e-05
6.22834749e-05
6.17713182e-05
6.34418955e-05
6.34935878e-05
6.24503936e-05
6.13863643e-05
6.13879268e-05
6.33861376e-05
6.34751042e-05
6.26384497e-05
6.13094534e-05
6.13091682e-05
6.33892222e-05
6.34981418e-05
6.34894305e-05
6.24777906e-05
6.21767432e-05
6.13194983e-05
6.13155895e-05
6.34661704e-05
6.34730761e-05
6.233713e-05
6.08885246e-05
6.10116708e-05
6.3428847e-05
6.35229318e-05
6.34511597e-05
6.24921258e-05
6.10300715e-05
6.10620272e-05
6.34025913e-05
6.35588467e-05
6.20447349e-05
6.1618454e-05
6.34439876e-05
6.3577183e-05
6.20773425e-05
6.17338184e-05
6.34493228e-05
6.35784481e-05
6.20914899e-05
6.17322158e-05
6.34574309e-05
6.35700561e-05
6.20632673e-05
6.16481794e-05
6.34759933e-05
6.35480724e-05
6.20828511e-05
6.15149123e-05
6.35000222e-05
6.35157029e-05
6.23305979e-05
6.1104577e-05
6.11164702e-05
6.34958586e-05
6.35659587e-05
6.23484573e-05
6.17690466e-05
6.1403333e-05
6.2266981e-05
6.34706076e-05
6.36111166e-05
6.34510456e-05
6.35700509e-05
6.28007e-05
6.19380128e-05
6.16729029e-05
6.08884055e-05
6.09041342e-05
6.34412423e-05
6.35389561e-05
6.20460494e-05
6.16936911e-05
6.3452727e-05
6.35634158e-05
6.21648598e-05
6.18425102e-05
6.34673163e-05
6.35754048e-05
6.21639682e-05
6.18194768e-05
6.34857844e-05
6.35749017e-05
6.21155487e-05
6.17249897e-05
6.35095774e-05
6.3554865e-05
6.21093824e-05
6.15912869e-05
6.35367444e-05
6.35089695e-05
6.23444605e-05
6.11562067e-05
6.11526298e-05
6.35275629e-05
6.34785225e-05
6.2381065e-05
6.09294514e-05
6.1005131e-05
6.3507937e-05
6.34979631e-05
6.34914142e-05
6.23478296e-05
6.15682614e-05
6.35332672e-05
6.35098601e-05
6.21718216e-05
6.16671433e-05
6.3544184e-05
6.34866618e-05
6.23511485e-05
6.10748375e-05
6.1090115e-05
6.35432769e-05
6.34684694e-05
6.24242342e-05
6.12033238e-05
6.12341787e-05
6.35269914e-05
6.35167683e-05
6.20979009e-05
6.1731797e-05
6.35151815e-05
6.34805454e-05
6.2615973e-05
6.13895117e-05
6.139463e-05
6.35403632e-05
6.35536831e-05
6.21793931e-05
6.19672491e-05
6.35556763e-05
6.35694557e-05
6.2366929e-05
6.23445094e-05
6.14242055e-05
6.14373233e-05
6.35393443e-05
6.35459077e-05
6.21662519e-05
6.17900992e-05
6.35435428e-05
6.34958418e-05
6.24745877e-05
6.1386193e-05
6.13994893e-05
6.35666767e-05
6.34790687e-05
6.24164151e-05
6.1292527e-05
6.13199578e-05
6.35759314e-05
6.34811983e-05
6.23732858e-05
6.12281482e-05
6.12872319e-05
6.3582754e-05
6.35786255e-05
6.2350318e-05
6.19090045e-05
6.14416383e-05
6.19822435e-05
6.35260513e-05
6.36099089e-05
6.3511014e-05
6.35900084e-05
6.25586613e-05
6.18171596e-05
6.17026852e-05
6.09578391e-05
6.1575241e-05
6.34601068e-05
6.35949882e-05
6.34473221e-05
6.36037232e-05
6.34691954e-05
6.23125801e-05
6.10146457e-05
6.1042152e-05
6.35247863e-05
6.34795362e-05
6.23765901e-05
6.11888918e-05
6.12079722e-05
6.35416469e-05
6.34730845e-05
6.24071738e-05
6.12559817e-05
6.12628305e-05
6.35408567e-05
6.34644486e-05
6.24590944e-05
6.13010417e-05
6.13179004e-05
6.35097577e-05
6.35225398e-05
6.22861835e-05
6.18142129e-05
6.34999798e-05
6.34818426e-05
6.24611316e-05
6.14086508e-05
6.14065559e-05
6.35165552e-05
6.34704549e-05
6.25195617e-05
6.14286434e-05
6.14398205e-05
6.35244938e-05
6.35355069e-05
6.23589862e-05
6.21614976e-05
6.12533657e-05
6.12638793e-05
6.35565315e-05
6.35412468e-05
6.22805541e-05
6.16236236e-05
6.22520342e-05
6.34700973e-05
6.36497996e-05
6.34545101e-05
6.36063679e-05
6.27613438e-05
6.23369753e-05
6.10709575e-05
6.10986576e-05
6.35191559e-05
6.34917794e-05
6.23285651e-05
6.08606383e-05
6.08909552e-05
6.34913465e-05
6.35199254e-05
6.23381693e-05
6.16108247e-05
6.25546683e-05
6.33877479e-05
6.34846978e-05
6.34654207e-05
6.13634786e-05
6.11307039e-05
6.34071159e-05
6.34344291e-05
6.23855076e-05
6.10620942e-05
6.10837642e-05
6.33936122e-05
6.33925806e-05
6.34175464e-05
6.30827986e-05
6.21760036e-05
6.16694223e-05
6.17439964e-05
6.12001236e-05
6.17938201e-05
6.34206109e-05
6.35659166e-05
6.34778948e-05
6.35632297e-05
6.22773798e-05
6.12788829e-05
6.34664414e-05
6.34757725e-05
6.23599767e-05
6.10356306e-05
6.10536031e-05
6.3007796e-05
6.34290121e-05
6.3399351e-05
6.28462101e-05
6.13297177e-05
6.13221731e-05
6.31431553e-05
6.34891144e-05
6.34614778e-05
6.24858174e-05
6.23611275e-05
6.13884237e-05
6.13993619e-05
6.34280511e-05
6.35276545e-05
6.23683873e-05
6.21472089e-05
6.12758415e-05
6.12290255e-05
6.26196386e-05
6.35067837e-05
6.34884702e-05
6.35362877e-05
6.27315467e-05
6.23590543e-05
6.11574607e-05
6.11966073e-05
6.34034289e-05
6.34978389e-05
6.23560011e-05
6.1156106e-05
6.112453e-05
6.24836088e-05
6.35031568e-05
6.35228444e-05
6.35394797e-05
6.26513983e-05
6.23127149e-05
6.11192615e-05
6.11633306e-05
6.33145122e-05
6.35498985e-05
6.21321464e-05
6.17352514e-05
6.3128762e-05
6.35413741e-05
6.34330931e-05
6.24595674e-05
6.11572295e-05
6.11842031e-05
6.33373921e-05
6.35030563e-05
6.23674537e-05
6.11590401e-05
6.11205565e-05
6.2503566e-05
6.35021529e-05
6.34422176e-05
6.35492268e-05
6.33897095e-05
6.21275394e-05
6.15628228e-05
6.12693869e-05
6.09678261e-05
6.21880017e-05
6.34930409e-05
6.36546496e-05
6.35948105e-05
6.27260963e-05
6.12576615e-05
6.08960084e-05
6.23189402e-05
6.36213475e-05
6.37584998e-05
6.37373302e-05
6.2184586e-05
6.10685888e-05
6.35729564e-05
6.38726917e-05
6.15078544e-05
6.09415528e-05
6.36323178e-05
6.40570832e-05
6.40117614e-05
6.13535019e-05
6.06533121e-05
6.34013786e-05
6.39906922e-05
6.38811729e-05
6.11961866e-05
6.04149374e-05
6.31067346e-05
6.37077546e-05
6.35108315e-05
6.36769607e-05
6.36164789e-05
6.36929861e-05
6.36644555e-05
6.37131056e-05
6.3691593e-05
6.37394529e-05
6.37181968e-05
6.37784097e-05
6.37815393e-05
6.3862452e-05
6.39212209e-05
6.40572011e-05
6.42252032e-05
6.4666418e-05
6.50726894e-05
6.469138e-05
6.45015361e-05
6.41775046e-05
6.40185592e-05
6.37807836e-05
6.36697585e-05
6.35303573e-05
6.34018559e-05
6.31984258e-05
6.31247286e-05
6.3230745e-05
6.30353712e-05
6.29217071e-05
6.28342584e-05
6.27835924e-05
6.27928829e-05
6.27423497e-05
6.25269586e-05
6.21736816e-05
6.2016551e-05
6.1620943e-05
6.15389597e-05
6.13057781e-05
6.56294223e-05
6.45923883e-05
6.44244942e-05
6.36197126e-05
6.32831994e-05
6.25737525e-05
6.21315607e-05
6.14263909e-05
6.08048292e-05
6.03221113e-05
6.03936023e-05
6.04881538e-05
6.05637517e-05
6.0666964e-05
6.07339733e-05
6.08625363e-05
6.76657528e-05
6.84088604e-05
6.85910552e-05
7.36311634e-05
7.76899991e-05
8.09769126e-05
8.41451764e-05
8.69357402e-05
8.97789623e-05
9.23481931e-05
9.66570508e-05
9.85704126e-05
0.000102932144
0.00010534373
0.000109060408
0.000111897123
0.000115393314
0.000118428466
0.000121957661
0.000124763183
0.000127919239
0.000130452215
0.000133365854
0.000135685918
0.000138292421
0.000140436033
0.000142246313
0.000143926335
0.000146349203
0.000148082542
0.000149185754
0.000150459999
0.000152469064
0.000153337162
0.000154714719
0.000155540324
0.000156382374
0.000157065076
0.000158027147
0.000158564474
0.000159447362
0.000159806973
0.000160594958
0.000161002145
0.000162179474
0.00016197961
0.000162771113
0.000163124193
0.000164589342
0.000164438607
0.000166471612
0.000164819732
0.000165803485
0.00016709177
0.000169142988
0.000166391972
0.000167859443
0.000169548255
0.000169812874
0.00016817129
0.000169071719
0.000170844009
0.000171111567
0.000169745141
0.000170141145
0.000171908321
0.000171992722
0.000170860378
0.000171095332
0.00017270718
0.00017271885
0.000171705181
0.000171851468
0.00017325286
0.000173295083
0.000172356214
0.000172460308
0.000173725958
0.000173767585
0.000172877015
0.000172964292
0.000174151376
0.00017417405
0.0001733075
0.000173399213
0.000174563059
0.000174532909
)
;

boundaryField
{
    closed
    {
        type            calculated;
        value           nonuniform List<scalar> 0();
    }
    open
    {
        type            calculated;
        value           nonuniform List<scalar> 0();
    }
    sides
    {
        type            empty;
    }
    procBoundary4to3
    {
        type            processor;
        value           uniform 6.34282202e-05;
    }
    procBoundary4to5
    {
        type            processor;
        value           uniform 0.000173679757;
    }
}


// ************************************************************************* //
