/*--------------------------------*- C++ -*----------------------------------*\
| =========                 |                                                 |
| \\      /  F ield         | OpenFOAM: The Open Source CFD Toolbox           |
|  \\    /   O peration     | Version:  2306                                  |
|   \\  /    A nd           | Website:  www.openfoam.com                      |
|    \\/     M anipulation  |                                                 |
\*---------------------------------------------------------------------------*/
FoamFile
{
    version     2.0;
    format      ascii;
    arch        "LSB;label=32;scalar=64";
    class       volScalarField;
    location    "0.00042";
    object      prefDZ_T;
}
// * * * * * * * * * * * * * * * * * * * * * * * * * * * * * * * * * * * * * //

dimensions      [1 -1 -1 -1 0 0 0];

internalField   nonuniform List<scalar> 
531
(
-1.18969726e-09
-1.19915501e-09
-1.23148462e-09
-1.21212893e-09
-1.18942952e-09
-1.20038005e-09
-1.23104802e-09
-1.21028295e-09
-1.18905209e-09
-1.20179577e-09
-1.23049167e-09
-1.20799991e-09
-1.18938696e-09
-1.20281306e-09
-1.22938825e-09
-1.2335587e-09
-1.19652444e-09
-1.19318687e-09
-1.18959985e-09
-1.18915762e-09
-1.20698546e-09
-1.22926639e-09
-1.20706643e-09
-1.18977785e-09
-1.20637958e-09
-1.22873725e-09
-1.23219472e-09
-1.19116133e-09
-1.18789739e-09
-1.19093305e-09
-1.23297777e-09
-1.22631164e-09
-1.21468253e-09
-1.19124896e-09
-1.18781631e-09
-1.18719153e-09
-1.2042882e-09
-1.22979879e-09
-1.20440077e-09
-1.19018837e-09
-1.20932093e-09
-1.228673e-09
-1.23178452e-09
-1.18928802e-09
-1.18709579e-09
-1.20584781e-09
-1.22955125e-09
-1.20080181e-09
-1.18902133e-09
-1.21135201e-09
-1.22844531e-09
-1.23140621e-09
-1.18863861e-09
-1.18721732e-09
-1.20944763e-09
-1.2290377e-09
-1.21715784e-09
-1.18952217e-09
-1.18887129e-09
-1.21809446e-09
-1.22689684e-09
-1.23293969e-09
-1.19576932e-09
-1.18723972e-09
-1.18663306e-09
-1.20682719e-09
-1.2286849e-09
-1.23347808e-09
-1.18953231e-09
-1.18830896e-09
-1.20854614e-09
-1.22861197e-09
-1.232221e-09
-1.18953714e-09
-1.18764159e-09
-1.21187329e-09
-1.22870057e-09
-1.19709663e-09
-1.18835546e-09
-1.21915908e-09
-1.2281682e-09
-1.19615327e-09
-1.1876566e-09
-1.2154211e-09
-1.22845354e-09
-1.1960614e-09
-1.18763017e-09
-1.21599238e-09
-1.22844964e-09
-1.19589695e-09
-1.18749188e-09
-1.2153234e-09
-1.22838563e-09
-1.19557417e-09
-1.18784395e-09
-1.21840559e-09
-1.22818001e-09
-1.19493862e-09
-1.18773161e-09
-1.21963244e-09
-1.22812219e-09
-1.19392153e-09
-1.18828632e-09
-1.2268016e-09
-1.22799829e-09
-1.20989052e-09
-1.18803048e-09
-1.18727238e-09
-1.21539219e-09
-1.2282698e-09
-1.19517553e-09
-1.18776387e-09
-1.22434609e-09
-1.22775743e-09
-1.19301915e-09
-1.18856062e-09
-1.23137067e-09
-1.22767932e-09
-1.2090317e-09
-1.18805085e-09
-1.187817e-09
-1.21646647e-09
-1.22826933e-09
-1.21695818e-09
-1.18828631e-09
-1.18736895e-09
-1.21837383e-09
-1.22806947e-09
-1.19425391e-09
-1.1879187e-09
-1.22685724e-09
-1.22761699e-09
-1.19274703e-09
-1.18854918e-09
-1.23371768e-09
-1.22769987e-09
-1.20809756e-09
-1.1878261e-09
-1.18730795e-09
-1.21744387e-09
-1.22806782e-09
-1.19366656e-09
-1.18873474e-09
-1.23466126e-09
-1.22762641e-09
-1.20865788e-09
-1.18795854e-09
-1.18739533e-09
-1.21879392e-09
-1.22804999e-09
-1.19355622e-09
-1.18878069e-09
-1.23425639e-09
-1.22769958e-09
-1.20832694e-09
-1.18786395e-09
-1.18726803e-09
-1.22070745e-09
-1.22803462e-09
-1.19347563e-09
-1.18887183e-09
-1.23365188e-09
-1.2277651e-09
-1.20799456e-09
-1.18782398e-09
-1.1871438e-09
-1.22334068e-09
-1.22795793e-09
-1.19359036e-09
-1.18900265e-09
-1.23269289e-09
-1.22768838e-09
-1.20828849e-09
-1.18798615e-09
-1.18755899e-09
-1.22973363e-09
-1.22828853e-09
-1.21031545e-09
-1.18784342e-09
-1.18698135e-09
-1.22736795e-09
-1.22781541e-09
-1.19404193e-09
-1.18920266e-09
-1.23037482e-09
-1.22792013e-09
-1.20803337e-09
-1.18778764e-09
-1.18695381e-09
-1.22500744e-09
-1.2279872e-09
-1.19449548e-09
-1.18915067e-09
-1.22876821e-09
-1.22802297e-09
-1.20805085e-09
-1.18786512e-09
-1.18700056e-09
-1.22281228e-09
-1.22816556e-09
-1.1950466e-09
-1.18913137e-09
-1.22720891e-09
-1.22816632e-09
-1.2083141e-09
-1.18782055e-09
-1.18675276e-09
-1.22077939e-09
-1.22842155e-09
-1.19526404e-09
-1.18844102e-09
-1.22398022e-09
-1.22786006e-09
-1.19527096e-09
-1.1892662e-09
-1.22555713e-09
-1.22814832e-09
-1.20917748e-09
-1.18795347e-09
-1.18694553e-09
-1.21835342e-09
-1.22846933e-09
-1.19592239e-09
-1.18917038e-09
-1.22446115e-09
-1.22816825e-09
-1.21031158e-09
-1.18822684e-09
-1.18718357e-09
-1.2173426e-09
-1.22853053e-09
-1.1962192e-09
-1.18925475e-09
-1.22336279e-09
-1.22823384e-09
-1.21085571e-09
-1.18827412e-09
-1.18709829e-09
-1.21577821e-09
-1.22881742e-09
-1.19607254e-09
-1.18835664e-09
-1.2192942e-09
-1.22848071e-09
-1.19544797e-09
-1.18825363e-09
-1.21866725e-09
-1.22857453e-09
-1.19512008e-09
-1.18797081e-09
-1.21817857e-09
-1.22863806e-09
-1.19491914e-09
-1.18795373e-09
-1.2185928e-09
-1.22858645e-09
-1.19485728e-09
-1.18825293e-09
-1.22052998e-09
-1.22840689e-09
-1.19440381e-09
-1.18909462e-09
-1.22480666e-09
-1.22809937e-09
-1.20760975e-09
-1.18775346e-09
-1.18667047e-09
-1.22100026e-09
-1.22843773e-09
-1.19375281e-09
-1.18933963e-09
-1.22753915e-09
-1.22775383e-09
-1.20820253e-09
-1.18803282e-09
-1.18707493e-09
-1.22410076e-09
-1.22834869e-09
-1.19273915e-09
-1.1894349e-09
-1.23158627e-09
-1.22759278e-09
-1.20634006e-09
-1.18772178e-09
-1.18689775e-09
-1.22562753e-09
-1.22847191e-09
-1.19189139e-09
-1.18879976e-09
-1.23176415e-09
-1.22840154e-09
-1.19157582e-09
-1.18945472e-09
-1.23406077e-09
-1.22757413e-09
-1.20472136e-09
-1.18752144e-09
-1.18704606e-09
-1.23074913e-09
-1.22846693e-09
-1.19152377e-09
-1.18927076e-09
-1.23433493e-09
-1.22766389e-09
-1.2052258e-09
-1.18763416e-09
-1.18713303e-09
-1.23435556e-09
-1.22834968e-09
-1.19143223e-09
-1.18912705e-09
-1.2335345e-09
-1.22765843e-09
-1.2072058e-09
-1.18783163e-09
-1.18730195e-09
-1.23447845e-09
-1.22829399e-09
-1.1912888e-09
-1.18896942e-09
-1.23136253e-09
-1.227688e-09
-1.20911812e-09
-1.18792311e-09
-1.18742334e-09
-1.2340668e-09
-1.22827283e-09
-1.19117176e-09
-1.18874522e-09
-1.2311368e-09
-1.22774146e-09
-1.20993068e-09
-1.18795357e-09
-1.18743099e-09
-1.23442651e-09
-1.2282499e-09
-1.19121226e-09
-1.18879631e-09
-1.23414734e-09
-1.22775938e-09
-1.2054074e-09
-1.18773447e-09
-1.1875485e-09
-1.23214228e-09
-1.22799515e-09
-1.20588798e-09
-1.18779358e-09
-1.18740054e-09
-1.23287248e-09
-1.228221e-09
-1.19149176e-09
-1.18845908e-09
-1.23189315e-09
-1.22837522e-09
-1.1914312e-09
-1.18819946e-09
-1.23182315e-09
-1.22844927e-09
-1.19134305e-09
-1.18819596e-09
-1.23242504e-09
-1.22836792e-09
-1.19142866e-09
-1.18882338e-09
-1.23424603e-09
-1.22808611e-09
-1.20404384e-09
-1.18746636e-09
-1.18704987e-09
-1.23373177e-09
-1.22846091e-09
-1.19145324e-09
-1.18838639e-09
-1.22789298e-09
-1.22853338e-09
-1.19146448e-09
-1.18815357e-09
-1.23263575e-09
-1.22843714e-09
-1.19138063e-09
-1.18831487e-09
-1.23464206e-09
-1.22830676e-09
-1.1914838e-09
-1.18903443e-09
-1.2343987e-09
-1.22792309e-09
-1.20497106e-09
-1.18757571e-09
-1.18716065e-09
-1.23386462e-09
-1.22792822e-09
-1.20915562e-09
-1.18822087e-09
-1.1879456e-09
-1.21786916e-09
-1.22782797e-09
-1.22341164e-09
-1.18934053e-09
-1.18853385e-09
-1.21518487e-09
-1.22715704e-09
-1.22767154e-09
-1.19144816e-09
-1.1875346e-09
-1.18705244e-09
-1.21379982e-09
-1.22820313e-09
-1.23133464e-09
-1.18933912e-09
-1.18853951e-09
-1.23382646e-09
-1.227952e-09
-1.20505043e-09
-1.18771907e-09
-1.18760883e-09
-1.23188263e-09
-1.22789082e-09
-1.20592114e-09
-1.18768738e-09
-1.18735797e-09
-1.23229791e-09
-1.22805455e-09
-1.19104702e-09
-1.18941287e-09
-1.23202664e-09
-1.22756495e-09
-1.20261742e-09
-1.1874449e-09
-1.18717956e-09
-1.23144622e-09
-1.22824924e-09
-1.19081478e-09
-1.18943629e-09
-1.23154217e-09
-1.2275581e-09
-1.2012038e-09
-1.1873319e-09
-1.18734991e-09
-1.23068396e-09
-1.228405e-09
-1.19066571e-09
-1.18964645e-09
-1.23090288e-09
-1.22747537e-09
-1.20083489e-09
-1.18740636e-09
-1.18818412e-09
-1.23012348e-09
-1.22765684e-09
-1.20179347e-09
-1.18739915e-09
-1.18796927e-09
-1.23035986e-09
-1.22843871e-09
-1.19059704e-09
-1.18981108e-09
-1.23048626e-09
-1.22747503e-09
-1.20138781e-09
-1.18738317e-09
-1.18792637e-09
-1.23054255e-09
-1.22739919e-09
-1.20701673e-09
-1.18833258e-09
-1.18834764e-09
-1.23058522e-09
-1.22658697e-09
-1.21124953e-09
-1.19041087e-09
-1.18766627e-09
-1.18767095e-09
-1.23047677e-09
-1.22868798e-09
-1.19105763e-09
-1.19004745e-09
-1.23080886e-09
-1.22750455e-09
-1.20277695e-09
-1.18756061e-09
-1.18755271e-09
-1.23087188e-09
-1.22894059e-09
-1.19027185e-09
-1.18871609e-09
-1.23230869e-09
-1.22891036e-09
-1.19033635e-09
-1.18884687e-09
-1.23196767e-09
-1.2288575e-09
-1.19066399e-09
-1.18964492e-09
-1.23144948e-09
-1.22802746e-09
-1.20052114e-09
-1.1872823e-09
-1.18765347e-09
-1.2314221e-09
-1.22799964e-09
-1.20531773e-09
-1.18788679e-09
-1.18789621e-09
-1.23120277e-09
-1.22791492e-09
-1.20573089e-09
-1.18786437e-09
-1.18784159e-09
-1.23126367e-09
-1.22793287e-09
-1.20556205e-09
-1.18779166e-09
-1.18768497e-09
-1.23138759e-09
-1.22909609e-09
-1.19095172e-09
-1.18965041e-09
-1.23250379e-09
-1.22801053e-09
-1.20018573e-09
-1.18691844e-09
-1.18669332e-09
-1.21407383e-09
-1.22771239e-09
-1.229734e-09
-1.19063439e-09
-1.19000998e-09
-1.23316258e-09
-1.22908956e-09
-1.19058811e-09
)
;

boundaryField
{
    closed
    {
        type            calculated;
        value           nonuniform List<scalar> 0();
    }
    open
    {
        type            calculated;
        value           nonuniform List<scalar> 0();
    }
    sides
    {
        type            empty;
    }
    procBoundary3to2
    {
        type            processor;
        value           uniform -1.21553464e-09;
    }
    procBoundary3to4
    {
        type            processor;
        value           uniform -1.18891633e-09;
    }
}


// ************************************************************************* //
