/*--------------------------------*- C++ -*----------------------------------*\
| =========                 |                                                 |
| \\      /  F ield         | OpenFOAM: The Open Source CFD Toolbox           |
|  \\    /   O peration     | Version:  2306                                  |
|   \\  /    A nd           | Website:  www.openfoam.com                      |
|    \\/     M anipulation  |                                                 |
\*---------------------------------------------------------------------------*/
FoamFile
{
    version     2.0;
    format      ascii;
    arch        "LSB;label=32;scalar=64";
    class       surfaceScalarField;
    location    "0.00134";
    object      phi;
}
// * * * * * * * * * * * * * * * * * * * * * * * * * * * * * * * * * * * * * //

dimensions      [1 0 -1 0 0 0 0];

oriented        oriented;

internalField   nonuniform List<scalar> 
529
(
1.4583176e-06
1.46630488e-06
1.47436414e-06
1.48241204e-06
1.49037202e-06
1.49817445e-06
1.50575749e-06
1.51306404e-06
1.52004695e-06
1.52666144e-06
1.53284814e-06
1.53860096e-06
1.54389951e-06
1.54872256e-06
1.55306035e-06
1.55690264e-06
1.56024859e-06
1.56309771e-06
1.56545628e-06
1.56733199e-06
1.5687365e-06
1.56968388e-06
1.57018961e-06
1.57027238e-06
1.56995015e-06
1.56924457e-06
1.56816818e-06
1.56673367e-06
1.56497758e-06
1.56292401e-06
1.56059261e-06
1.55800705e-06
1.55518704e-06
1.55215542e-06
1.54893178e-06
1.54553807e-06
1.54199378e-06
1.53831995e-06
1.53453609e-06
1.53066247e-06
1.52671864e-06
1.52272423e-06
1.5186989e-06
1.51466168e-06
1.5106323e-06
1.50662917e-06
1.50267196e-06
1.49877835e-06
1.49496771e-06
1.49125683e-06
1.48766449e-06
1.48420618e-06
1.48090011e-06
1.47775992e-06
1.47478788e-06
1.47201044e-06
1.46944394e-06
1.46709802e-06
1.46498692e-06
1.46311843e-06
1.46150485e-06
1.4601519e-06
1.45906971e-06
1.45826209e-06
1.45773681e-06
1.457496e-06
1.45754488e-06
1.45788421e-06
1.45851658e-06
1.45944172e-06
1.46065948e-06
1.46216895e-06
1.46396719e-06
1.46605291e-06
1.46842057e-06
1.47106853e-06
1.47398903e-06
1.47717982e-06
1.48063164e-06
1.48434103e-06
1.48829826e-06
1.4924977e-06
1.49693043e-06
1.50158759e-06
1.5064623e-06
1.51154152e-06
1.51682123e-06
1.52228406e-06
1.52792837e-06
1.53373364e-06
1.53969842e-06
1.54580102e-06
1.55203787e-06
1.5583846e-06
1.56483993e-06
1.57138968e-06
1.57801801e-06
1.58470843e-06
1.59144481e-06
1.59822129e-06
1.60500743e-06
1.61180533e-06
1.61858995e-06
1.6253567e-06
1.63207973e-06
1.6387544e-06
1.64535482e-06
1.65187626e-06
1.65829307e-06
1.66460049e-06
1.67077327e-06
1.6768068e-06
1.68267606e-06
1.68837717e-06
1.69388418e-06
1.699195e-06
1.70428465e-06
1.70915059e-06
1.71376961e-06
1.71813908e-06
1.72223908e-06
1.7260649e-06
1.72959971e-06
1.7328381e-06
1.73576567e-06
1.73837704e-06
1.74065994e-06
1.74260941e-06
1.74421516e-06
1.74547285e-06
1.74637408e-06
1.74691534e-06
1.74709e-06
1.74689557e-06
1.7463271e-06
1.74538325e-06
1.74406068e-06
1.74235933e-06
1.7402774e-06
1.73781617e-06
1.73497535e-06
1.73175761e-06
1.72816414e-06
1.72419904e-06
1.71986491e-06
1.71516729e-06
1.71011018e-06
1.70470054e-06
1.6989437e-06
1.69284804e-06
1.68642017e-06
1.67966985e-06
1.67260487e-06
1.66523631e-06
1.65757312e-06
1.64962757e-06
1.64140968e-06
1.6329328e-06
1.62420796e-06
1.61524946e-06
1.60606922e-06
1.5966823e-06
1.5871015e-06
1.5773424e-06
1.56741862e-06
1.55734601e-06
1.54713896e-06
1.53681333e-06
1.52638425e-06
1.5158673e-06
1.50527827e-06
1.49463226e-06
1.48394552e-06
1.47323266e-06
1.46250991e-06
1.45179163e-06
1.44109328e-06
1.43042949e-06
1.4198141e-06
1.40926255e-06
1.39878645e-06
1.38840217e-06
1.37811813e-06
1.36795041e-06
1.35789547e-06
1.34798235e-06
1.3381072e-06
1.32862373e-06
1.31912835e-06
1.30985212e-06
1.30074708e-06
1.29183077e-06
1.28310235e-06
1.2745735e-06
1.2662438e-06
1.25812037e-06
1.25020482e-06
1.24249867e-06
1.23500508e-06
1.22772089e-06
1.22064974e-06
1.21378542e-06
1.20713111e-06
1.20067867e-06
1.19443051e-06
1.18837693e-06
1.1825166e-06
1.17684141e-06
1.1713513e-06
1.16603593e-06
1.16089302e-06
1.15591302e-06
1.15109201e-06
1.1464207e-06
1.14189433e-06
1.13750363e-06
1.13324351e-06
1.12910483e-06
1.12508238e-06
1.1211674e-06
1.11735474e-06
1.11363617e-06
1.11000678e-06
1.10645903e-06
1.10298838e-06
1.09958808e-06
1.09625412e-06
1.09298864e-06
1.08978022e-06
1.08662382e-06
1.08351676e-06
1.08045494e-06
1.07743638e-06
1.07445791e-06
1.07151827e-06
1.06861518e-06
1.06574808e-06
1.06291554e-06
1.06011764e-06
1.05735375e-06
1.05462456e-06
1.05193015e-06
1.04927176e-06
1.04665009e-06
1.04406686e-06
1.04152333e-06
1.03902164e-06
1.0365635e-06
1.03415141e-06
1.03178746e-06
1.02947446e-06
1.02721482e-06
1.02501159e-06
1.02286744e-06
1.02078563e-06
1.01876904e-06
1.01682108e-06
1.01494483e-06
1.01314383e-06
1.0114213e-06
1.00978088e-06
1.00822594e-06
1.00676019e-06
1.00538713e-06
1.00411054e-06
1.00293525e-06
1.00186398e-06
1.00090043e-06
1.00004848e-06
9.99311897e-07
9.98694623e-07
9.98200444e-07
9.97833355e-07
9.97597159e-07
9.97495858e-07
9.97533258e-07
9.97713331e-07
9.98039858e-07
9.98516742e-07
9.99147696e-07
9.9993651e-07
1.00088678e-06
1.00200214e-06
1.00328601e-06
1.00474178e-06
1.00637267e-06
1.00818177e-06
1.010172e-06
1.0123461e-06
1.0147066e-06
1.01725584e-06
1.01999592e-06
1.02292868e-06
1.02605569e-06
1.02937825e-06
1.03289737e-06
1.03661372e-06
1.04052766e-06
1.04463925e-06
1.04894808e-06
1.05345356e-06
1.05815452e-06
1.06304964e-06
1.06813698e-06
1.07341447e-06
1.0788794e-06
1.08452889e-06
1.0903726e-06
1.0963938e-06
1.1025883e-06
1.10895173e-06
1.11547916e-06
1.12216551e-06
1.12900522e-06
1.13599253e-06
1.14312129e-06
1.15038514e-06
1.15777743e-06
1.16529128e-06
1.17291963e-06
1.18065518e-06
1.18849051e-06
1.19641806e-06
1.20443016e-06
1.21251906e-06
1.22067699e-06
1.22889611e-06
1.23716866e-06
1.24548686e-06
1.25384305e-06
1.26222965e-06
1.27063921e-06
1.27906445e-06
1.28749827e-06
1.2959338e-06
1.30436441e-06
1.3127837e-06
1.32118561e-06
1.32956437e-06
1.33791452e-06
1.34623099e-06
1.35450905e-06
1.36274435e-06
1.37093294e-06
1.37907127e-06
1.38715618e-06
1.39518496e-06
1.40315528e-06
1.41106525e-06
1.41891336e-06
1.42669854e-06
1.4344201e-06
1.44207773e-06
1.44967152e-06
1.45720187e-06
1.46466957e-06
1.47207567e-06
1.47942159e-06
1.48670892e-06
1.49393962e-06
1.50111573e-06
1.50823959e-06
1.5153136e-06
1.52234038e-06
1.52932256e-06
1.53626288e-06
1.54316582e-06
1.55003247e-06
1.55686552e-06
1.56366766e-06
1.57044138e-06
1.57718918e-06
1.58391327e-06
1.59061583e-06
1.59729873e-06
1.60396373e-06
1.61061229e-06
1.61724569e-06
1.62386494e-06
1.63047081e-06
1.63706382e-06
1.64364425e-06
1.65021214e-06
1.65676729e-06
1.66330931e-06
1.66983759e-06
1.67635136e-06
1.6828497e-06
1.68933155e-06
1.69579578e-06
1.70224121e-06
1.70866663e-06
1.71507083e-06
1.72145271e-06
1.72781122e-06
1.7341455e-06
1.74045485e-06
1.74673881e-06
1.75299721e-06
1.75923019e-06
1.76543824e-06
1.77162228e-06
1.77778364e-06
1.78392414e-06
1.79004611e-06
1.79615241e-06
1.80224645e-06
1.80833226e-06
1.81441442e-06
1.82049817e-06
1.82658934e-06
1.83269442e-06
1.83882046e-06
1.84497521e-06
1.85116695e-06
1.85742022e-06
1.86372877e-06
1.87010261e-06
1.87655224e-06
1.88308867e-06
1.88972329e-06
1.89646791e-06
1.90333467e-06
1.91033602e-06
1.91748459e-06
1.92479325e-06
1.93227495e-06
1.9399427e-06
1.94780953e-06
1.95588837e-06
1.96419206e-06
1.97273323e-06
1.98152425e-06
1.99057719e-06
1.99990375e-06
2.00951521e-06
2.01942235e-06
2.02963543e-06
2.04016414e-06
2.05101753e-06
2.06220398e-06
2.07373119e-06
2.08560612e-06
2.09783495e-06
2.11042309e-06
2.12337516e-06
2.13669493e-06
2.15038537e-06
2.16444861e-06
2.17888594e-06
2.19369785e-06
2.20888398e-06
2.2244764e-06
2.24159301e-06
2.26039963e-06
2.28108014e-06
2.30383772e-06
2.3288961e-06
2.35650037e-06
2.38691757e-06
2.42043647e-06
2.45736688e-06
2.49803799e-06
2.54279545e-06
2.59199736e-06
2.64600899e-06
2.70519586e-06
2.76991529e-06
2.84050626e-06
2.91727656e-06
3.00048546e-06
3.09031896e-06
3.18685027e-06
3.28997574e-06
3.39930967e-06
3.51401824e-06
3.63257052e-06
3.75239563e-06
3.86946539e-06
3.97789601e-06
4.06980783e-06
4.13589195e-06
4.16738241e-06
4.16026768e-06
4.12233734e-06
4.0817142e-06
4.09041456e-06
4.21409177e-06
4.50568307e-06
4.97428174e-06
5.56817642e-06
6.19738135e-06
6.7968821e-06
7.3337228e-06
7.67905056e-06
7.58688638e-06
6.90233223e-06
5.75564524e-06
4.56155054e-06
3.70443604e-06
3.18870585e-06
3.42392041e-06
4.11172408e-06
3.87715826e-06
6.70624013e-07
-3.27011716e-06
-5.75977582e-06
-5.32697643e-06
-3.05922439e-06
-6.68566894e-07
8.91013512e-07
1.50797126e-06
1.5223982e-06
1.43335828e-06
1.23493817e-06
5.45204839e-07
4.14649544e-07
1.7342763e-06
3.85927531e-06
5.49883978e-06
5.57469828e-06
4.65889997e-06
3.68484192e-06
2.76736546e-06
2.096958e-06
1.94952275e-06
2.09046901e-06
2.13700357e-06
2.01846237e-06
)
;

boundaryField
{
    closed
    {
        type            calculated;
        value           nonuniform List<scalar> 0();
    }
    open
    {
        type            calculated;
        value           uniform 1.98413439e-06;
    }
    sides
    {
        type            empty;
        value           nonuniform List<scalar> 0();
    }
    procBoundary5to4
    {
        type            processor;
        value           uniform -1.45049576e-06;
    }
}


// ************************************************************************* //
