/*--------------------------------*- C++ -*----------------------------------*\
| =========                 |                                                 |
| \\      /  F ield         | OpenFOAM: The Open Source CFD Toolbox           |
|  \\    /   O peration     | Version:  2306                                  |
|   \\  /    A nd           | Website:  www.openfoam.com                      |
|    \\/     M anipulation  |                                                 |
\*---------------------------------------------------------------------------*/
FoamFile
{
    version     2.0;
    format      ascii;
    arch        "LSB;label=32;scalar=64";
    class       volScalarField;
    location    "0.00134";
    object      sourcePV;
}
// * * * * * * * * * * * * * * * * * * * * * * * * * * * * * * * * * * * * * //

dimensions      [1 -3 -1 0 0 0 0];

internalField   nonuniform List<scalar> 
530
(
0.283168646
0.276576058
0.270289238
0.263994898
0.257994048
0.251977811
0.246242703
0.240485852
0.234997823
0.22948291
0.224680147
0.220051799
0.215627151
0.211178285
0.206924998
0.202646412
0.1985556
0.19443846
0.190501815
0.186537624
0.182747347
0.178927921
0.175276651
0.171594106
0.168074873
0.164521587
0.161064257
0.157881665
0.154953611
0.151970814
0.149158708
0.146289912
0.143588657
0.140828052
0.138232763
0.13557486
0.133080854
0.130520464
0.128123241
0.125655456
0.12335069
0.120970862
0.118754388
0.116458109
0.11432592
0.112109001
0.110057241
0.107915688
0.105940648
0.103870641
0.101968762
0.09996663
0.0981345007
0.0961967068
0.0947175072
0.093176743
0.091780414
0.0902868037
0.0889398623
0.0874914301
0.0861921414
0.0847869546
0.0835336934
0.0821698538
0.0809611053
0.079636744
0.0784710994
0.077184379
0.0760605235
0.0748096473
0.0737263407
0.0725095686
0.07146562
0.0702812913
0.0692755255
0.0681220888
0.0671533064
0.0660293553
0.0650962876
0.0640005973
0.0631018636
0.0620334206
0.0611674944
0.0601255072
0.0592907074
0.0582745852
0.0574691055
0.0564783936
0.0557003816
0.054734663
0.0539823418
0.053041149
0.0523129319
0.0513957859
0.0506902588
0.049813142
0.0491171781
0.0482700611
0.0475709129
0.046768506
0.0461595096
0.0456095295
0.0450986444
0.0445776028
0.0440644513
0.0435708276
0.0430561842
0.0425883974
0.0420731034
0.0416295455
0.0411144509
0.0406935649
0.0401794379
0.039779824
0.0392673001
0.038887785
0.0383869482
0.0380205102
0.037524652
0.0371649485
0.0366832943
0.0363298211
0.0358623205
0.0355145654
0.0350611299
0.0347186123
0.0342791072
0.0339414386
0.0335156482
0.0331825639
0.0327701758
0.0324415326
0.032042147
0.031717899
0.0313310538
0.031011219
0.0306364204
0.0303210478
0.0299577986
0.0296469414
0.0292947629
0.0289884591
0.0286469053
0.0283451672
0.028013832
0.0277166412
0.0273951599
0.0271024681
0.0267905145
0.0265022472
0.0261995291
0.0259155907
0.0256218439
0.0253421232
0.0250571059
0.0247814814
0.0245049693
0.0242333139
0.0239650957
0.02369728
0.0234371542
0.0231730501
0.022920822
0.0226603053
0.0224157844
0.0221587377
0.0219217343
0.0216680506
0.0214383713
0.0211879586
0.0209654012
0.0207181861
0.0205025345
0.0202584659
0.0200494845
0.0198085354
0.0196059674
0.0193681329
0.0191717016
0.0189369931
0.01874641
0.0185148509
0.0183298199
0.0181014557
0.0179216666
0.017696573
0.0175214721
0.017300647
0.0171304569
0.0169122696
0.016745596
0.0165317511
0.0163682312
0.0161586939
0.0159980713
0.0157928503
0.0156348862
0.0154339696
0.015278438
0.0150817967
0.0149285076
0.0147360748
0.0145849049
0.0143965517
0.0142474617
0.014062983
0.0139243639
0.0138397156
0.0137715601
0.0136884479
0.0136207213
0.0135390305
0.0134717973
0.013391441
0.0133247344
0.0132456551
0.0131794881
0.0131016467
0.013036023
0.012959389
0.0128943092
0.0128188549
0.0127543185
0.012680017
0.0126160232
0.0125428482
0.0124793959
0.0124056043
0.0123393295
0.0122647176
0.0121989043
0.0121252161
0.012059859
0.0119870694
0.0119221636
0.0118502484
0.0117857891
0.0117147245
0.0116507076
0.0115804703
0.0115168921
0.0114474591
0.0113843166
0.0113156651
0.0112529557
0.0111850633
0.0111227846
0.0110556298
0.0109937791
0.0109273414
0.0108659155
0.0108001756
0.0107391707
0.010674111
0.0106135222
0.0105491271
0.0104889483
0.0104252038
0.0103654283
0.0103023222
0.0102429427
0.0101804634
0.0101214734
0.0100596091
0.0100010033
0.00993806895
0.0098745778
0.00980896227
0.00974666322
0.00968234128
0.00962120329
0.00955814185
0.00949813282
0.00943630004
0.0093773877
0.00931675213
0.00925890485
0.00919943485
0.00914262213
0.00908428565
0.00902847822
0.0089712429
0.00891641259
0.0088602459
0.00880636558
0.00875123504
0.00869827846
0.00864415174
0.00859209364
0.00853893858
0.00848775478
0.00843553939
0.00838520692
0.00833389938
0.00828439638
0.00823396542
0.00818527055
0.00813568626
0.00808777744
0.00803901272
0.00799186532
0.00794389776
0.00789748293
0.00785029631
0.00780458093
0.00775816508
0.00771311445
0.0076635182
0.00761393066
0.00756356075
0.0075143045
0.00746428688
0.00741534986
0.00736569535
0.00731707133
0.00726778581
0.007219474
0.00717055903
0.00712256216
0.00707401674
0.00702633909
0.00697816141
0.00693080748
0.00688299602
0.00683596992
0.00678852386
0.00674182923
0.00669474853
0.00664838859
0.00660167378
0.00655565152
0.00650930359
0.00646362192
0.0064176421
0.00637230394
0.00632669363
0.00628170198
0.00623646268
0.00619182062
0.00614695392
0.0061026646
0.00605817219
0.00601423877
0.00597012247
0.00592654804
0.00588280992
0.00583959743
0.00579623976
0.005753392
0.0057104172
0.00566793698
0.00562534733
0.0055832378
0.00554103493
0.00549930025
0.00545748445
0.00541613054
0.00537470011
0.00533373529
0.0052926863
0.00525212145
0.00521144827
0.00517129606
0.00513099267
0.00509126598
0.00505132784
0.00501069886
0.00496563471
0.00492134279
0.00487704844
0.0048334231
0.00478986918
0.00474690549
0.00470406375
0.00466175641
0.0046196016
0.00457794364
0.00453645419
0.0044954366
0.00445459434
0.00441420646
0.0043739958
0.00433422595
0.00429463305
0.00425546918
0.00421648132
0.00417791146
0.00413951663
0.00410152918
0.00406371587
0.00402629968
0.00398905683
0.00395220124
0.00391551821
0.00387921299
0.0038430796
0.00380731491
0.00377172142
0.00373648781
0.00370142492
0.00366671331
0.00363217207
0.00359797385
0.00356394551
0.00353025268
0.00349672845
0.00346353386
0.00343050462
0.00339780207
0.00336525823
0.0033330424
0.00330097398
0.00326924005
0.00323763719
0.00320638019
0.00317530411
0.00314504698
0.00311489546
0.00308505622
0.00305534353
0.00302591989
0.00299663711
0.00296762675
0.0029387657
0.00291016573
0.00288171924
0.00285352609
0.00282548798
0.00279769758
0.00277006248
0.0027426705
0.00271543358
0.00268843569
0.00266159247
0.00263498442
0.00260853067
0.00258230838
0.00255624006
0.00253039962
0.00250471285
0.00247925048
0.00245394152
0.0024288536
0.00240391884
0.00237920188
0.00235463782
0.00233028842
0.00230609169
0.00228210655
0.00225827386
0.00223464979
0.00221117795
0.0021878873
0.00216389948
0.00213844302
0.00211138547
0.00208270736
0.00205226974
0.00202005649
0.00198592482
0.00194986436
0.00191173249
0.00187152784
0.00182911348
0.00178450151
0.00173756836
0.00168834541
0.00163673241
0.00158278768
0.00152644693
0.00146780487
0.00140684861
0.00134372072
0.00127847735
0.00121132188
0.00114239821
0.0010719839
0.00100032775
0.000927793175
0.000854744842
0.000781638508
0.000708952549
0.000637231039
0.000567040879
0.000498993039
0.000433683613
0.000371745059
0.000313705197
0.00026014931
0.000211421786
0.000167971519
0.000129869788
9.72988965e-05
7.00186149e-05
4.78638895e-05
3.01122305e-05
1.67782039e-05
6.08440511e-06
9.9453195e-08
9.94521641e-08
9.9451588e-08
9.94514257e-08
9.94514006e-08
9.94514164e-08
9.94514329e-08
9.9451443e-08
9.94514478e-08
9.94514495e-08
9.94514501e-08
9.94514502e-08
9.94514503e-08
9.94514503e-08
9.94514503e-08
9.94514503e-08
9.94514503e-08
9.94514503e-08
9.94514503e-08
9.94514503e-08
9.94514503e-08
9.94514503e-08
9.94514503e-08
9.94514503e-08
9.94514503e-08
9.94514503e-08
9.94514503e-08
9.94514503e-08
9.94514503e-08
9.94514503e-08
9.94514503e-08
9.94514503e-08
)
;

boundaryField
{
    closed
    {
        type            calculated;
        value           nonuniform List<scalar> 0();
    }
    open
    {
        type            calculated;
        value           uniform 0;
    }
    sides
    {
        type            empty;
    }
    procBoundary5to4
    {
        type            processor;
        value           uniform 0;
    }
}


// ************************************************************************* //
