/*--------------------------------*- C++ -*----------------------------------*\
| =========                 |                                                 |
| \\      /  F ield         | OpenFOAM: The Open Source CFD Toolbox           |
|  \\    /   O peration     | Version:  2306                                  |
|   \\  /    A nd           | Website:  www.openfoam.com                      |
|    \\/     M anipulation  |                                                 |
\*---------------------------------------------------------------------------*/
FoamFile
{
    version     2.0;
    format      ascii;
    arch        "LSB;label=32;scalar=64";
    class       volScalarField;
    location    "0.00134";
    object      T;
}
// * * * * * * * * * * * * * * * * * * * * * * * * * * * * * * * * * * * * * //

dimensions      [0 0 0 1 0 0 0];

internalField   nonuniform List<scalar> 
530
(
1694.61108
1696.16467
1697.57487
1699.07132
1700.43097
1701.87439
1703.187
1704.58127
1705.85026
1707.19897
1708.38409
1709.62521
1710.75161
1711.953
1713.04168
1714.20518
1715.25817
1716.3856
1717.40478
1718.49794
1719.48508
1720.54577
1721.50255
1722.53259
1723.46059
1724.46177
1725.38583
1726.38792
1727.27121
1728.23562
1729.09055
1730.02484
1730.85223
1731.75769
1732.55838
1733.43621
1734.21103
1735.06238
1735.81218
1736.63813
1737.36373
1738.1653
1738.86755
1739.64573
1740.32547
1741.08117
1741.73926
1742.47339
1743.11067
1743.82412
1744.44145
1745.13506
1745.73331
1746.40789
1746.9635
1747.58963
1748.12247
1748.72994
1749.24327
1749.83231
1750.32665
1750.89751
1751.37335
1751.92626
1752.38406
1752.91925
1753.35945
1753.8772
1754.30016
1754.80076
1755.20681
1755.6906
1756.07997
1756.54738
1756.92023
1757.37172
1757.72814
1758.16423
1758.50426
1758.92548
1759.24912
1759.65598
1759.96331
1760.35621
1760.64743
1761.02661
1761.3021
1761.66763
1761.92805
1762.27983
1762.52605
1762.86396
1763.09686
1763.42082
1763.64114
1763.94004
1764.15441
1764.4378
1764.65251
1764.9108
1765.11877
1765.33912
1765.53692
1765.73476
1765.92808
1766.10457
1766.29245
1766.44867
1766.63019
1766.76715
1766.94146
1767.06009
1767.22642
1767.32763
1767.48526
1767.56994
1767.71476
1767.78376
1767.92222
1767.97489
1768.10382
1768.14089
1768.25983
1768.28187
1768.39049
1768.39794
1768.49599
1768.48923
1768.57652
1768.55583
1768.63224
1768.59789
1768.66331
1768.61554
1768.66988
1768.60891
1768.65212
1768.57816
1768.61019
1768.52343
1768.54426
1768.44491
1768.4545
1768.34274
1768.34108
1768.2171
1768.2042
1768.06817
1768.04402
1767.89614
1767.86075
1767.7012
1767.65458
1767.48354
1767.42572
1767.24338
1767.17436
1766.98091
1766.90073
1766.69635
1766.60504
1766.38993
1766.28752
1766.06187
1765.94841
1765.71238
1765.58795
1765.34171
1765.20639
1764.9501
1764.80401
1764.53778
1764.38108
1764.10503
1763.93794
1763.65219
1763.47492
1763.17964
1762.9924
1762.68783
1762.4908
1762.17726
1761.9705
1761.6484
1761.43187
1761.10177
1760.87492
1760.5406
1760.3056
1759.9598
1759.71209
1759.36157
1759.10085
1758.746
1758.47223
1758.11337
1757.82674
1757.46407
1757.16501
1756.79855
1756.48771
1756.11736
1755.79542
1755.42103
1755.08874
1754.71014
1754.36813
1753.98401
1753.63165
1753.24272
1752.88138
1752.48747
1752.11757
1751.71857
1751.34048
1750.93635
1750.55041
1750.14114
1749.74767
1749.33328
1748.93259
1748.51311
1748.1055
1747.68097
1747.26672
1746.83722
1746.41661
1745.98153
1745.5535
1745.11297
1744.67913
1744.23397
1743.79456
1743.3449
1742.90016
1742.44613
1741.99632
1741.53805
1741.0834
1740.62104
1740.16177
1739.69549
1739.23183
1738.76178
1738.29396
1737.82029
1737.34853
1736.87143
1736.39595
1735.91558
1735.43659
1734.95314
1734.47086
1733.98449
1733.49913
1733.01004
1732.52181
1732.03016
1731.53928
1731.04527
1730.55194
1730.05576
1729.56018
1729.06201
1728.5644
1728.0648
1727.56647
1727.06579
1726.56539
1726.06287
1725.56062
1725.05647
1724.55258
1724.04699
1723.54168
1723.03487
1722.52834
1722.0205
1721.51297
1721.0043
1720.49598
1719.98667
1719.47777
1718.96803
1718.45874
1717.94876
1717.43929
1716.92927
1716.41981
1715.90994
1715.40069
1714.89117
1714.38231
1713.87332
1713.36505
1712.85678
1712.34929
1711.84192
1711.33539
1710.8291
1710.32371
1709.81867
1709.31461
1708.811
1708.30845
1707.80643
1707.30555
1706.80375
1706.30284
1705.8028
1705.30416
1704.80649
1704.31027
1703.81511
1703.32146
1702.82895
1702.33802
1701.84829
1701.36022
1700.87341
1700.38833
1699.90458
1699.42262
1698.94206
1698.46334
1697.9861
1697.51076
1697.03696
1696.5651
1696.09486
1695.62661
1695.16004
1694.69553
1694.23274
1693.77206
1693.31316
1692.85642
1692.40152
1691.94882
1691.49803
1691.04947
1690.60286
1690.15854
1689.71622
1689.27623
1688.83828
1688.4027
1687.96922
1687.53814
1687.10919
1686.68269
1686.25836
1685.83651
1685.41687
1684.99974
1684.58486
1684.17252
1683.76247
1683.35498
1682.94982
1682.54724
1682.14703
1681.74941
1681.3542
1680.96159
1680.57144
1680.18424
1679.80064
1679.41958
1679.04094
1678.66489
1678.29127
1677.92028
1677.55173
1677.18584
1676.82241
1676.46166
1676.10339
1675.74782
1675.39474
1675.04438
1674.69652
1674.3514
1674.0088
1673.66894
1673.33161
1672.99703
1672.66501
1672.33573
1672.00901
1671.68504
1671.36365
1671.04501
1670.72894
1670.41562
1670.10489
1669.79691
1669.49151
1669.18885
1668.88878
1668.59146
1668.29671
1668.0047
1667.71527
1667.42856
1667.14443
1666.86302
1666.58417
1666.30803
1666.03445
1665.76356
1665.49523
1665.22956
1664.96646
1664.70599
1664.44772
1664.18966
1663.93418
1663.68137
1663.43111
1663.18349
1662.93841
1662.69595
1662.456
1662.21866
1661.98381
1661.75154
1661.52174
1661.29449
1661.06969
1660.84742
1660.62758
1660.41024
1660.1953
1659.98283
1659.77274
1659.56509
1659.3598
1659.15692
1658.95637
1658.7582
1658.56234
1658.36882
1658.17759
1657.98867
1657.802
1657.61762
1657.43546
1657.25555
1657.07784
1656.90234
1656.72901
1656.55769
1656.3823
1656.19699
1656.00135
1655.7951
1655.57789
1655.34949
1655.10962
1654.85815
1654.59494
1654.32
1654.03335
1653.7352
1653.4258
1653.10561
1652.7752
1652.43533
1652.08694
1651.73117
1651.3694
1651.00318
1650.63436
1650.26494
1649.89724
1649.53363
1649.17684
1648.82951
1648.49459
1648.17475
1647.87285
1647.59128
1647.33241
1647.09791
1646.88917
1646.70674
1646.55069
1646.42022
1646.31393
1646.22982
1646.16531
1646.11771
1646.08387
1646.06104
1646.04651
1646.03777
1646.03341
1646.02976
1646.02564
1646.02301
1646.02197
1646.02131
1646.02111
1646.02104
1646.02102
1646.02101
1646.02101
1646.021
1646.021
1646.021
1646.021
1646.021
1646.021
1646.021
1646.021
1646.021
1646.021
1646.021
1646.021
1646.021
1646.021
1646.021
1646.021
1646.021
1646.021
1646.021
1646.021
1646.021
1646.021
)
;

boundaryField
{
    closed
    {
        type            fixedValue;
        value           nonuniform List<scalar> 0();
    }
    open
    {
        type            zeroGradient;
    }
    sides
    {
        type            empty;
    }
    procBoundary5to4
    {
        type            processor;
        value           uniform 1693.14665;
    }
}


// ************************************************************************* //
