/*--------------------------------*- C++ -*----------------------------------*\
| =========                 |                                                 |
| \\      /  F ield         | OpenFOAM: The Open Source CFD Toolbox           |
|  \\    /   O peration     | Version:  2306                                  |
|   \\  /    A nd           | Website:  www.openfoam.com                      |
|    \\/     M anipulation  |                                                 |
\*---------------------------------------------------------------------------*/
FoamFile
{
    version     2.0;
    format      ascii;
    arch        "LSB;label=32;scalar=64";
    class       volScalarField;
    location    "0.00144";
    object      prefDh_H;
}
// * * * * * * * * * * * * * * * * * * * * * * * * * * * * * * * * * * * * * //

dimensions      [1 1 -3 0 0 0 0];

internalField   nonuniform List<scalar> 
530
(
23147.2794
23882.4361
23926.9312
23920.8602
23406.2121
23196.4914
23017.4177
23023.834
23885.379
23949.1618
23114.0832
22974.2908
23870.9368
23947.2976
23093.7662
23013.6164
23875.6294
23952.4613
23917.4336
23390.9443
22822.6979
22839.2474
23878.0089
23947.5287
23918.8008
23954.3374
23393.7398
23144.8018
23110.4279
23115.306
23889.178
23954.6999
23409.871
23254.2172
23885.3358
23940.1079
23513.8811
23295.5446
23195.2486
22990.4639
22996.5806
23880.1954
23930.1827
23923.8406
23280.169
22947.89
23856.596
23925.9809
23903.0133
23930.9116
23391.0174
22896.2317
22907.7346
22907.408
23885.0496
23932.2124
23399.5793
23181.1834
23216.6279
23927.8897
23939.3255
23381.5324
22996.8199
23034.7368
23921.3667
23965.5572
23950.8977
23372.9785
22966.8587
22971.8738
23892.9608
23961.0131
23295.14
23183.9167
23884.2078
23960.7874
23939.512
23382.5279
23167.7592
23105.7021
23072.8508
23891.5707
23940.2899
23390.7105
22951.7101
22959.6314
23878.4826
23952.6145
23427.1464
23214.8757
23876.9362
23946.1696
23475.0587
23194.0859
23130.0605
22881.9594
22888.2457
23878.6788
23958.2598
23923.8327
23963.2625
23386.013
23166.2652
23912.6843
23958.6296
23374.4655
23133.4535
23357.7395
23931.4618
23371.111
23196.2432
23900.9458
23952.3147
23484.0112
23300.2433
23209.3176
23120.9048
23126.8355
23879.0705
23964.8251
23506.2616
23301.5048
23315.5906
23932.8502
23957.2125
23380.3423
23079.5851
23189.5318
23928.586
23399.9242
23054.815
23888.4678
23959.9092
23948.0717
23348.0741
22733.5713
22877.2441
23895.1699
23952.8191
23263.2852
23229.4694
23898.0193
23386.6576
23068.5509
23894.9773
23956.1529
23299.4524
23127.2345
23889.7334
23956.2893
23316.8791
23176.1254
23882.9228
23947.7493
23334.7926
23245.0372
23864.0831
23936.0928
23552.8616
23293.3955
23141.7575
23000.6226
23004.5334
23863.6608
23946.3101
23904.5939
23955.1707
23468.0503
23316.3982
22929.2815
23182.6764
23910.6428
23397.0592
22851.7155
23873.1963
23926.4431
23180.0873
22974.3072
23863.0276
23935.0502
23178.653
23140.8328
23868.9551
23938.8578
23931.8765
23396.4389
23016.1877
22878.1474
22877.8911
23864.616
23937.1729
23911.0899
23948.7739
23950.2377
23390.2825
23021.9417
23022.1683
23902.3888
23933.3674
23384.5293
22884.5235
22907.7328
23897.442
23935.725
23118.6162
23085.1626
23885.3009
23271.262
22906.3488
23875.4325
23937.2627
23932.6799
23146.5495
22905.0361
23879.7469
23931.13
23925.3031
23927.7914
23412.6912
23113.2559
23117.7835
23877.0064
23955.1794
23372.5672
23104.4337
23003.3505
23006.4151
23895.6462
23955.5685
23944.0315
23379.715
22876.5032
23193.4748
23910.813
23374.8085
22985.0952
23926.0525
23936.0943
23376.1187
23055.5243
23408.2287
23934.8852
23972.3931
23959.1004
23380.5855
23202.3751
23128.7386
23197.8537
23939.9261
23390.2629
23106.4698
23923.2982
23943.2507
23388.1348
23197.5915
23017.218
23020.9139
23915.1314
23942.6205
23932.9611
23950.9895
23944.135
23369.3561
23011.6368
23045.2335
22991.534
23918.4032
23945.1421
23308.2612
23109.7452
23935.0173
23946.7991
23382.5876
23125.3813
23012.2097
23017.7862
23935.2669
23959.8295
23952.436
23401.9647
23009.4967
23382.8897
23939.9044
23325.3736
23022.1026
23944.6204
23940.9283
23958.0292
23288.6063
23002.325
23925.8895
23947.4536
23080.0992
23001.7218
23942.8365
23940.4314
23390.5664
23103.6577
22893.906
22899.6845
23939.9901
23955.2025
23960.9725
23959.846
23377.4966
23276.3998
23379.6738
23392.9561
23311.0581
23310.2733
23959.3678
23965.665
23354.1016
23087.2053
23096.2725
23961.1204
23969.7182
23383.309
23190.4691
23965.1292
23959.0865
23372.4529
23105.3119
23146.6415
23959.4574
23969.0574
23966.3607
23969.9264
23386.9683
23182.6837
23285.2688
23301.8028
23166.4814
23222.3818
23956.9533
23952.8802
23004.439
22950.4195
23957.1197
23951.3354
23963.8683
23953.7156
23380.2755
23136.3915
23134.9511
23075.8137
23950.9571
23940.1386
23183.8899
22839.2947
22968.2868
23920.8543
23941.6257
23584.2917
23101.1516
23384.4006
23956.7914
23374.7007
23067.4878
23980.611
23958.0255
23363.6662
22997.4614
23061.1098
23966.7952
23972.472
23975.1073
23966.7856
23376.0752
23196.6714
23374.6507
23114.4666
23224.8693
23904.1603
23971.4594
23938.9208
23282.5469
23242.8789
23983.7079
23939.0503
23368.4224
23123.2525
23178.0704
23965.4132
23978.426
23396.0455
23292.9603
23314.149
23347.5388
23222.5055
23182.9267
23712.9401
23956.5407
23474.8165
22964.3105
22993.2551
23961.7016
23950.7786
23958.316
23387.9798
23166.492
23969.9646
23943.7862
23438.3697
23234.6003
23096.4125
23096.6849
23954.9052
23947.293
23360.5084
22968.9756
23076.0565
23944.7603
23956.7021
23140.8911
23123.0006
23955.5786
23952.4958
23272.425
22935.096
23019.4746
23960.3795
23946.8943
23414.2697
23107.429
23269.4056
23962.5504
23981.0851
23151.3902
23050.9206
23981.6215
23967.7641
23368.155
23138.1698
24003.6224
23962.5426
23359.3899
23121.5667
23368.6213
23961.523
23972.1227
23285.1847
22871.7468
22942.3416
23953.9481
23953.8872
23125.2727
23014.3033
23973.7575
23951.0208
23353.6041
23122.243
23994.2044
23948.7719
23361.9608
23017.398
23159.8305
23968.1539
23975.81
23965.3871
23373.2735
23288.3329
23287.668
23349.8482
23097.8212
23114.5592
23985.5367
23963.3746
23981.7291
23964.4676
23313.6777
23212.3265
23372.1063
23207.1861
23209.4107
23951.5024
23975.4635
23070.3557
23072.2082
23956.5145
23955.5256
23061.8337
23020.7145
23961.3152
23915.498
23944.2669
23624.1568
23277.0871
23263.5598
23161.0181
23245.2651
23954.7822
23960.6231
23148.2083
23253.3688
23950.1208
23950.6893
23500.9483
23318.7624
23206.2564
23098.8742
23036.719
23973.1542
23881.2878
23003.5386
23400.0554
23983.4537
23368.8797
23369.4959
23990.4064
23372.5705
23235.3645
23996.2947
23956.7072
23412.1931
23279.8206
23222.3122
23058.55
23072.3795
23961.2886
23947.7104
22986.2614
23040.5144
23978.541
23945.5519
23970.7922
23390.0139
23196.781
23914.6544
23952.84
)
;

boundaryField
{
    closed
    {
        type            calculated;
        value           nonuniform List<scalar> 0();
    }
    open
    {
        type            calculated;
        value           nonuniform List<scalar> 0();
    }
    sides
    {
        type            empty;
    }
    procBoundary2to1
    {
        type            processor;
        value           uniform 23138.7106;
    }
    procBoundary2to3
    {
        type            processor;
        value           uniform 23816.2946;
    }
}


// ************************************************************************* //
