/*--------------------------------*- C++ -*----------------------------------*\
| =========                 |                                                 |
| \\      /  F ield         | OpenFOAM: The Open Source CFD Toolbox           |
|  \\    /   O peration     | Version:  2306                                  |
|   \\  /    A nd           | Website:  www.openfoam.com                      |
|    \\/     M anipulation  |                                                 |
\*---------------------------------------------------------------------------*/
FoamFile
{
    version     2.0;
    format      ascii;
    arch        "LSB;label=32;scalar=64";
    class       volScalarField;
    location    "0.00144";
    object      rho;
}
// * * * * * * * * * * * * * * * * * * * * * * * * * * * * * * * * * * * * * //

dimensions      [1 -3 0 0 0 0 0];

internalField   nonuniform List<scalar> 
530
(
0.951898543
0.90524998
0.904427697
0.904384308
0.935381666
0.949360796
0.958599592
0.958281261
0.905040323
0.903143102
0.95361926
0.960838693
0.905523402
0.903210819
0.954671255
0.958814809
0.905238893
0.903197526
0.904442573
0.939149569
0.968630428
0.967810749
0.905430023
0.903171797
0.904460625
0.902990325
0.936484112
0.952060237
0.953838379
0.953588129
0.905001614
0.903090932
0.938381368
0.946419801
0.905220368
0.903853561
0.926644648
0.9442929
0.949483377
0.960047913
0.959742602
0.905348889
0.904141075
0.904319129
0.945105298
0.962251113
0.906126983
0.904062094
0.905001324
0.903845375
0.93937111
0.964932754
0.964345342
0.964370116
0.905120164
0.903992225
0.936397328
0.950254561
0.94842655
0.903971676
0.903812067
0.938425765
0.959779665
0.957832305
0.903928566
0.902813188
0.903400015
0.939479886
0.96133156
0.961088436
0.9051432
0.902863115
0.944410218
0.950152044
0.90529303
0.903106553
0.903960644
0.938553944
0.951004973
0.954212851
0.95591248
0.90493129
0.903670078
0.939471568
0.962157699
0.961767157
0.90572953
0.903246994
0.937509818
0.948603117
0.905712606
0.90366206
0.929503277
0.949684688
0.952996685
0.965791455
0.965484563
0.905358974
0.90293193
0.904374241
0.902835703
0.938553507
0.95115939
0.904336242
0.903110276
0.937839975
0.952872017
0.939472216
0.903955941
0.938636736
0.949641288
0.904723578
0.903511984
0.928829724
0.944271757
0.948979103
0.953558559
0.95325529
0.905716469
0.902989746
0.927392872
0.944221991
0.943508013
0.903987664
0.903332318
0.93817952
0.955714675
0.950036706
0.903876272
0.938606281
0.957001869
0.905024704
0.903152256
0.903333541
0.941825105
0.973547548
0.966180195
0.905200418
0.903406481
0.946248375
0.947994996
0.905073621
0.938352416
0.956316602
0.905147537
0.903263687
0.944388271
0.953291199
0.905291794
0.903300982
0.943496307
0.950770933
0.905628314
0.903732514
0.942581586
0.947217623
0.906349696
0.904324807
0.924350625
0.944720844
0.952564339
0.959845579
0.959654922
0.906346147
0.903708773
0.905350717
0.903445056
0.930184033
0.94352798
0.96352939
0.950457633
0.904561042
0.939293784
0.967530519
0.905956992
0.904410605
0.950606321
0.961228888
0.906315264
0.904170564
0.950690072
0.952644861
0.906216719
0.904234601
0.904267844
0.9393083
0.959084832
0.966199561
0.966219178
0.906185907
0.904103386
0.904903067
0.903787487
0.903588377
0.939160362
0.958815234
0.958810165
0.905281665
0.904204289
0.940062145
0.965885066
0.964700613
0.905295249
0.9041734
0.953816955
0.955543438
0.905626907
0.945922225
0.96475833
0.905846296
0.90405479
0.90415584
0.952361334
0.964821897
0.905720061
0.904289654
0.904552333
0.904538163
0.934374644
0.954071694
0.953836577
0.906211528
0.903372716
0.94066023
0.954520653
0.959733338
0.959580535
0.905269518
0.903477571
0.903804083
0.939703174
0.966244514
0.949889023
0.904728776
0.938653684
0.960641002
0.904207954
0.904085188
0.94039926
0.956994667
0.934240712
0.904082808
0.902747089
0.9033137
0.940143642
0.949380263
0.953181094
0.949606361
0.903644311
0.938436154
0.954314644
0.904425167
0.903858262
0.936774555
0.949588882
0.958901039
0.958705092
0.904335536
0.903784176
0.903897805
0.903524263
0.90353378
0.940645782
0.959140243
0.957402824
0.960167487
0.904318112
0.903555069
0.943781213
0.954042111
0.903827
0.903541195
0.939486875
0.953209489
0.959049011
0.958753504
0.903472016
0.903032514
0.903142732
0.934911421
0.959145884
0.939652695
0.903452614
0.94278404
0.958466055
0.90309807
0.903720314
0.9027394
0.944670245
0.959454097
0.903931136
0.903284223
0.955416762
0.959452713
0.903230217
0.903602328
0.935704731
0.954161374
0.964983193
0.964672008
0.903115131
0.902859449
0.902701253
0.902792209
0.937294781
0.945168354
0.939807366
0.939019899
0.943349896
0.94338297
0.902692376
0.902541372
0.941080242
0.954888778
0.954411968
0.902604257
0.902270619
0.939341226
0.949515593
0.902463145
0.902758311
0.937824092
0.953886884
0.951742115
0.902523748
0.902234949
0.902429179
0.902179446
0.939171262
0.949841248
0.944528234
0.943670239
0.950658539
0.947763749
0.902516267
0.902852646
0.959001534
0.961778886
0.902327615
0.90278266
0.902372927
0.902788626
0.937997995
0.952142922
0.952209666
0.955256518
0.902686809
0.903175592
0.949656777
0.967414166
0.960774336
0.903748093
0.903183729
0.921568315
0.953897671
0.939253769
0.902412244
0.938074714
0.955614397
0.901676042
0.902454762
0.938835589
0.959208634
0.955920794
0.901950002
0.901827404
0.901804776
0.902145856
0.939404061
0.94889995
0.939291268
0.953135055
0.94742064
0.904224304
0.902059622
0.902587753
0.944421016
0.946496336
0.901442819
0.903340024
0.939708652
0.952653421
0.94981134
0.902141193
0.901688611
0.934941006
0.943857583
0.94277569
0.941028885
0.947513058
0.949542624
0.913460702
0.902449031
0.928717147
0.960821819
0.959321837
0.901971808
0.90280644
0.902232466
0.938383067
0.950371965
0.901888447
0.903100903
0.931226336
0.946844923
0.953978531
0.953962533
0.902478228
0.90275289
0.940321204
0.960536721
0.955018742
0.902767334
0.902382631
0.951667594
0.952590036
0.902427797
0.902523519
0.944865202
0.962276061
0.957926886
0.90216638
0.902777807
0.933089666
0.953385596
0.945008513
0.902081983
0.901387328
0.951111799
0.956302047
0.901371368
0.901907688
0.939728996
0.951797305
0.900558673
0.902164755
0.939516216
0.952656993
0.938985706
0.902242532
0.901769163
0.944203347
0.965545182
0.961911335
0.902338644
0.90237887
0.952475132
0.95820311
0.901701625
0.902609748
0.940663968
0.952641931
0.901009678
0.902730948
0.938144617
0.958060542
0.950705269
0.901845854
0.901818511
0.902131459
0.938045946
0.94408244
0.944112894
0.940908423
0.953933548
0.953072733
0.90108663
0.902060008
0.90137547
0.902060581
0.942781556
0.948043072
0.937156187
0.948314845
0.948188628
0.902617692
0.901691405
0.955385745
0.955293529
0.902362882
0.902468821
0.955834953
0.957956251
0.902166939
0.904020387
0.903031872
0.918966573
0.944737225
0.945436949
0.950733047
0.946374871
0.902003904
0.902451033
0.951400159
0.945963902
0.9026978
0.902989311
0.926930895
0.942589157
0.948414452
0.953957351
0.957158111
0.901736684
0.904490538
0.958893561
0.934594161
0.90148962
0.938834304
0.938934335
0.901261926
0.936940478
0.94693727
0.900994466
0.902739344
0.933254333
0.944665921
0.947639521
0.95610563
0.955397463
0.90224971
0.902861598
0.959857803
0.957060333
0.901453328
0.903211399
0.901847648
0.939025924
0.949011032
0.904076371
0.90298958
)
;

boundaryField
{
    closed
    {
        type            calculated;
        value           nonuniform List<scalar> 0();
    }
    open
    {
        type            calculated;
        value           nonuniform List<scalar> 0();
    }
    sides
    {
        type            empty;
    }
    procBoundary2to1
    {
        type            processor;
        value           uniform 0.952340413;
    }
    procBoundary2to3
    {
        type            processor;
        value           uniform 0.907455705;
    }
}


// ************************************************************************* //
