/*--------------------------------*- C++ -*----------------------------------*\
| =========                 |                                                 |
| \\      /  F ield         | OpenFOAM: The Open Source CFD Toolbox           |
|  \\    /   O peration     | Version:  2306                                  |
|   \\  /    A nd           | Website:  www.openfoam.com                      |
|    \\/     M anipulation  |                                                 |
\*---------------------------------------------------------------------------*/
FoamFile
{
    version     2.0;
    format      ascii;
    arch        "LSB;label=32;scalar=64";
    class       volScalarField;
    location    "0.00142";
    object      prefDh_H;
}
// * * * * * * * * * * * * * * * * * * * * * * * * * * * * * * * * * * * * * //

dimensions      [1 1 -3 0 0 0 0];

internalField   nonuniform List<scalar> 
531
(
23242.2702
23151.7566
23427.3232
23759.1983
23943.1685
23397.95
23221.5367
23370.8485
23742.2942
23942.2954
23400.6104
23198.4062
23324.5528
23737.4052
23940.2927
23396.9615
23177.4038
23299.5262
23741.3553
23937.2067
23392.2472
23181.0169
23314.5655
23744.343
23950.2382
23432.6859
23273.7432
23370.7538
23783.249
23942.5712
23390.5131
23169.634
23350.2324
23685.1012
23961.5822
23951.2104
23391.3971
23281.9104
23256.5479
23182.2262
23365.6778
23816.1441
23945.5319
23396.052
23157.8623
23294.6945
23798.0224
23932.4192
23377.5827
23090.7159
23300.7202
23830.6074
23911.0781
23406.2934
23422.7055
23822.1072
23908.3988
23409.9384
23420.3328
23810.0458
23922.1197
23374.941
23107.6643
23356.1583
23856.0907
23935.8679
23381.4369
23157.5984
23082.3399
23219.631
23640.3775
23972.2248
23903.548
23357.5385
23103.6483
23348.3452
23880.8757
23933.4572
23380.3531
23202.4837
23364.6629
23933.4044
23951.6912
23389.6211
23233.3152
23117.3954
23381.4594
23926.081
23925.7573
23380.7339
23154.6278
23380.8702
23940.0903
23931.5343
23372.4961
23121.8174
23362.2468
23833.6381
23988.7704
23880.1661
23375.7604
23168.3386
23085.2636
23351.9536
23948.8376
23931.1301
23380.1588
23151.5128
23376.399
23954.5956
23931.1416
23380.1182
23088.3737
23379.902
23939.096
23876.0937
23398.8588
23404.1368
23976.9807
23904.8637
23382.7214
23040.9226
23371.4344
23959.4243
23910.8135
23390.2322
23058.05
23372.999
23958.3556
23900.3953
23367.7202
23071.0452
23373.8007
23957.3871
23887.5067
23334.9317
23079.2111
23375.1291
23955.7335
23872.9294
23309.4601
23100.4507
23379.2971
23953.8442
23857.2964
23301.5755
23134.4627
23388.9447
23949.9134
23835.3446
23250.0543
23124.3044
23394.768
23923.9082
23608.284
23341.3359
23387.5168
23934.2127
23537.0558
23315.4896
23387.1992
23957.5599
23713.2126
23151.3237
23171.4343
23436.3263
23933.9335
23669.0923
23186.8262
23184.5376
23242.0204
23275.2724
23463.5857
23910.6879
23460.8095
23405.0834
23435.576
23931.7475
23515.3019
23116.0089
23215.3989
23517.8461
23881.4085
23402.0934
23408.7566
23475.3796
23915.7885
23451.0251
23095.8802
23243.135
23576.9087
23869.0279
23375.9371
23411.5332
23515.3713
23909.3541
23410.4239
23063.8905
23242.3387
23628.5314
23871.3644
23366.8495
23381.7021
23546.6321
23912.4543
23388.5658
23056.1149
23257.2833
23625.8139
23908.7636
23403.9355
23113.1441
23332.9188
23696.493
23922.6756
23440.6764
23154.0743
23137.7019
23391.8917
23678.6156
23924.3888
23412.4157
23129.1396
23312.9452
23757.2452
23917.589
23415.171
23151.6902
23322.8901
23807.1705
23920.0717
23412.515
23136.8255
23282.3995
23798.5724
23919.923
23400.3997
23087.9564
23236.7173
23846.3081
23932.177
23406.4757
23424.7257
23801.555
23924.3223
23379.6219
23057.1462
23216.9064
23823.6336
23930.3504
23402.8774
23114.8151
23245.829
23842.3149
23931.809
23413.9504
23145.3127
23257.8266
23844.8376
23942.5411
23422.0474
23217.1254
23214.4312
23133.6008
23185.1269
23838.8064
23952.425
23406.362
23420.5811
23767.4673
23953.7342
23404.5838
23416.4085
23699.9279
23927.5875
23406.3458
23074.523
23121.5596
23839.1893
23928.2327
23407.4519
23031.4757
23058.5805
23830.9406
23947.4602
23404.8829
23308.6321
23713.6322
23950.1923
23401.5002
23330.7645
23726.0212
23928.5606
23400.0967
23064.5632
23125.6611
23852.6021
23929.158
23422.8585
23093.7417
23122.691
23861.7754
23927.129
23414.5566
23054.3863
23096.6371
23870.8521
23930.0249
23401.5632
22999.6527
23057.4642
23865.9991
23958.4634
23427.8498
23276.8979
23860.0813
23934.1685
23392.8771
22979.4196
23089.5122
23883.0153
23963.8086
23429.8537
23273.2059
23892.7973
23935.4506
23391.8761
22945.0755
23073.7902
23896.1596
23964.7479
23402.6475
23221.3546
23902.687
23961.3433
23362.8065
23241.187
23937.8699
23934.394
23393.8177
22989.3804
23152.6819
23946.9134
23934.6197
23392.8287
22980.644
23121.5333
23936.2859
23959.8951
23346.9814
23249.8605
23952.567
23947.6771
23227.5767
23198.3101
23966.4215
23916.466
23398.5171
22878.9264
23096.3524
23945.7464
23932.3047
23303.9802
23284.1771
23958.9735
23917.7455
23301.7544
23332.4798
23972.2325
23912.8186
23392.7461
22953.9597
23191.0071
23955.1061
23911.1246
23364.7638
23388.4765
23974.1804
23910.9439
23389.5664
23005.1094
23268.7058
23964.7247
23909.8939
23386.0703
23017.6748
23269.6345
23965.4196
23908.5645
23386.7852
23028.181
23270.742
23967.8887
23912.5936
23387.2301
23062.67
23259.1406
23967.845
23925.7595
23396.7848
23108.1492
23018.338
23214.6252
23937.8363
23959.1915
23855.1326
23379.3051
22973.8547
23205.388
23972.2677
23917.2215
23382.0578
22968.3581
23194.0909
23963.7755
23929.6807
23326.1177
23345.1765
23994.9623
23924.7322
23386.9529
22930.8124
23148.8439
23960.5396
23945.1961
23289.1003
23276.6872
23975.2304
23944.1176
23266.0158
23283.9817
23977.0674
23948.1042
23274.9098
23312.7285
23991.0538
23937.6291
23390.1999
22949.448
23177.239
23960.6989
23962.6987
23326.0382
23323.0432
23989.5333
23948.1863
23380.2173
23042.6866
23341.6052
23971.0464
23962.499
23380.5765
23032.2908
23356.0349
23970.5352
23966.0065
23383.2189
23002.6962
23326.3395
23968.6859
23961.7654
23383.9354
23003.3453
23305.9824
23954.553
23978.8566
23254.7424
23217.821
23976.1308
23942.8917
23370.991
22988.981
23287.9304
23937.9036
23971.782
23948.9416
23375.1046
23100.891
23105.8102
23261.6069
23981.4316
23953.7432
23365.9057
22983.5247
23314.9735
23950.7625
23998.9384
23233.7889
23242.9427
23978.2424
23961.0214
23368.9197
23019.13
23375.1077
23945.0207
23679.4659
23201.5692
23386.5363
23950.8901
23633.3435
23262.6099
23394.6465
23965.6512
23979.0183
23366.5035
23061.5948
23373.5028
23951.5035
23985.5872
23371.4549
23038.8855
23374.763
23942.8658
23980.5901
23371.6692
23056.1572
23359.0111
23936.892
23979.0445
23371.1628
23073.5552
23347.1557
23933.0065
23978.388
23371.029
23085.1545
23333.6061
23931.0144
23978.0516
23370.9035
23091.3505
)
;

boundaryField
{
    closed
    {
        type            calculated;
        value           nonuniform List<scalar> 0();
    }
    open
    {
        type            calculated;
        value           nonuniform List<scalar> 0();
    }
    sides
    {
        type            empty;
    }
    procBoundary1to0
    {
        type            processor;
        value           uniform 23387.9029;
    }
    procBoundary1to2
    {
        type            processor;
        value           uniform 23321.496;
    }
}


// ************************************************************************* //
