/*--------------------------------*- C++ -*----------------------------------*\
| =========                 |                                                 |
| \\      /  F ield         | OpenFOAM: The Open Source CFD Toolbox           |
|  \\    /   O peration     | Version:  2306                                  |
|   \\  /    A nd           | Website:  www.openfoam.com                      |
|    \\/     M anipulation  |                                                 |
\*---------------------------------------------------------------------------*/
FoamFile
{
    version     2.0;
    format      ascii;
    arch        "LSB;label=32;scalar=64";
    class       volScalarField;
    location    "0.00142";
    object      prefDh_T;
}
// * * * * * * * * * * * * * * * * * * * * * * * * * * * * * * * * * * * * * //

dimensions      [1 1 -3 -1 0 0 0];

internalField   nonuniform List<scalar> 
531
(
-0.000559593696
-0.000534884687
-0.000612168126
-0.000696747432
-0.000743727378
-0.000592819202
-0.000554547248
-0.000595840776
-0.000691689329
-0.00074371678
-0.000593456059
-0.000548041446
-0.00058310157
-0.000690256255
-0.000743373173
-0.000592456393
-0.000542145261
-0.000576111466
-0.000691466103
-0.000742763615
-0.000591296283
-0.000543237108
-0.000579995177
-0.000692357218
-0.000745364536
-0.000602005
-0.000569077793
-0.000595758358
-0.000704090165
-0.000743924863
-0.000590705097
-0.000540004245
-0.000588835251
-0.000674653351
-0.000747157053
-0.000744443981
-0.000591223492
-0.000570604226
-0.000562975438
-0.000543777886
-0.000594335286
-0.000714050979
-0.000744424398
-0.000592717039
-0.000536915269
-0.000574548299
-0.00070860742
-0.000741588609
-0.00058859579
-0.000518208774
-0.000576005348
-0.000718040949
-0.000737259812
-0.000602825755
-0.000610034091
-0.000715881873
-0.000736397263
-0.000604217945
-0.000609113519
-0.000712254131
-0.000738929659
-0.000589447807
-0.000523244766
-0.000591103329
-0.000724144881
-0.000742550264
-0.000592223179
-0.000535683563
-0.000514756154
-0.000552811853
-0.000661357011
-0.000749862973
-0.000733471909
-0.000585822123
-0.000522039213
-0.000588296452
-0.000730029742
-0.000741681023
-0.000590830215
-0.000549500283
-0.000587292833
-0.000741466345
-0.00074551735
-0.00059354938
-0.000557072969
-0.000525395246
-0.000598415364
-0.000740785536
-0.00073934566
-0.000591076769
-0.000536155215
-0.000595452246
-0.000743784468
-0.000740849895
-0.000589441519
-0.000527130386
-0.000589377753
-0.000718139183
-0.000753448759
-0.000727897803
-0.00059293566
-0.000539135358
-0.000515895896
-0.000589797456
-0.000746353442
-0.000740468145
-0.000591187631
-0.000534941939
-0.000593116976
-0.000746876949
-0.000740578887
-0.000593674187
-0.000517198906
-0.000594186064
-0.000742982461
-0.000729021743
-0.000603846484
-0.000602520225
-0.000752281024
-0.000734598682
-0.000598045051
-0.000503938744
-0.000591110321
-0.000748131205
-0.000736287835
-0.000600508667
-0.000508721059
-0.000590809622
-0.000747698876
-0.000733823025
-0.000594474391
-0.00051241616
-0.000590317301
-0.000747373831
-0.000730841046
-0.00058553849
-0.000514731511
-0.000589933589
-0.000746883386
-0.000727426699
-0.000578642341
-0.000520722231
-0.000590301144
-0.000746250901
-0.000723641112
-0.000576627859
-0.00053027244
-0.000592077792
-0.000745123519
-0.000718470063
-0.00056246576
-0.000527602704
-0.000593137259
-0.000739078611
-0.000651832696
-0.000587836327
-0.000592910446
-0.000741843987
-0.000630902799
-0.000580109984
-0.000592483565
-0.000747336515
-0.000683075665
-0.00053469572
-0.000540448693
-0.000603255792
-0.000741069948
-0.000669903203
-0.000545037691
-0.000544291468
-0.000559421365
-0.000568869421
-0.000610461582
-0.000735981818
-0.000609020939
-0.00060452565
-0.000603199212
-0.000740759894
-0.00062465891
-0.000524558699
-0.000552507426
-0.000625651931
-0.000729107728
-0.000593169527
-0.000605741335
-0.00061376056
-0.000736993381
-0.000606296483
-0.000518934321
-0.000560016439
-0.000642696893
-0.000726328494
-0.000587324661
-0.000606796384
-0.000624926373
-0.000735611258
-0.000595044472
-0.000509945219
-0.00055950658
-0.000657849635
-0.000727202632
-0.000586671907
-0.000598852325
-0.00063385646
-0.000736494272
-0.000589314065
-0.000507876877
-0.000563262912
-0.000657047082
-0.000735382187
-0.000593637281
-0.000524424023
-0.000584238343
-0.000677998534
-0.000738182158
-0.000603777263
-0.000535302889
-0.0005308862
-0.000601180632
-0.00067269313
-0.000738874014
-0.000596253513
-0.000528953791
-0.000579150538
-0.000696230339
-0.000737083296
-0.000597151222
-0.000535595509
-0.000582103794
-0.000711283235
-0.000737686696
-0.000596644996
-0.000531329683
-0.000570960194
-0.00070872613
-0.00073795556
-0.000593559823
-0.000517423202
-0.000558255867
-0.000721365994
-0.000742009017
-0.000602942782
-0.000611256147
-0.000709712996
-0.000739215863
-0.000589429454
-0.000508939017
-0.000552598422
-0.000716353209
-0.000740552898
-0.000594654237
-0.00052516388
-0.000560962422
-0.000720590391
-0.00074055289
-0.000597468085
-0.000533753844
-0.000564358026
-0.000721188187
-0.000743086402
-0.000599580993
-0.000553055358
-0.000551706254
-0.000530365379
-0.000544483816
-0.000720055376
-0.000746340027
-0.000601459335
-0.000609899064
-0.000699404922
-0.000746417393
-0.000600965895
-0.000608840708
-0.000679129011
-0.000739559733
-0.000595836924
-0.000513913831
-0.000526476439
-0.000720524411
-0.000739930119
-0.000596259896
-0.000501746195
-0.000508665806
-0.000718341339
-0.00074541769
-0.000601975834
-0.000578841755
-0.000683241643
-0.000745804504
-0.000600910861
-0.000585047336
-0.000686979712
-0.000739779983
-0.00059476113
-0.000511151328
-0.000527587326
-0.000723478805
-0.000739609357
-0.000600343511
-0.000519283016
-0.000526911798
-0.000725611269
-0.000739100453
-0.000598435724
-0.000508160899
-0.000519461583
-0.000727900847
-0.000740013089
-0.000595645671
-0.000492676629
-0.000508070901
-0.000726276183
-0.000747517574
-0.00061127803
-0.000569846025
-0.000725897617
-0.000740877095
-0.000595423701
-0.000486915243
-0.000516874306
-0.000730090666
-0.000748574387
-0.000612358512
-0.000568701116
-0.000733410674
-0.000741064778
-0.000595851028
-0.000477163659
-0.000512287162
-0.000733230306
-0.000748860052
-0.000605855231
-0.000553894841
-0.000735322742
-0.000747655246
-0.000594570763
-0.000559739641
-0.00074385409
-0.000740468184
-0.000596499468
-0.000489375056
-0.000534577286
-0.000745213433
-0.000740551687
-0.000594899466
-0.000486893924
-0.000525477992
-0.000742140033
-0.000747300913
-0.00059016585
-0.000561703429
-0.000746647954
-0.00074430203
-0.000556443811
-0.000547293198
-0.000750510358
-0.000736554723
-0.000601092434
-0.000458223265
-0.000518001659
-0.000744579851
-0.000741083313
-0.000577967676
-0.000570915417
-0.000747989892
-0.000737242753
-0.000576919803
-0.000584504409
-0.000751316282
-0.000735503207
-0.000598903834
-0.000479093141
-0.000544242332
-0.000746402452
-0.000735751598
-0.000594373102
-0.000599979036
-0.000751450202
-0.000734700656
-0.000596571933
-0.000493388987
-0.000566121729
-0.000748985931
-0.000734530353
-0.00059355447
-0.000496886338
-0.000566412494
-0.000749131682
-0.000734066931
-0.000593031991
-0.000499832906
-0.000566707915
-0.000749747596
-0.000734948423
-0.000592221757
-0.000509407353
-0.000563299269
-0.000749243412
-0.000738403057
-0.000597037865
-0.000521869747
-0.000497454021
-0.000550925956
-0.000743179787
-0.000745329502
-0.00072142145
-0.000591653319
-0.000484843257
-0.000548243567
-0.000750604855
-0.000736493243
-0.000593225811
-0.000482863012
-0.000545007136
-0.000748267993
-0.000740049536
-0.000583016627
-0.000587911171
-0.000756238392
-0.000738147794
-0.000597427309
-0.000472233833
-0.000532340764
-0.000747474669
-0.00074396122
-0.000572878054
-0.000568581706
-0.000751247337
-0.000743422147
-0.000566282493
-0.000570739105
-0.000751674166
-0.000744306384
-0.000568501904
-0.000579042115
-0.000755109599
-0.000741306178
-0.000599355936
-0.000477435036
-0.000540443964
-0.000747173583
-0.000747825334
-0.000582696217
-0.000581791775
-0.000754527189
-0.000743700628
-0.000595245138
-0.000503392112
-0.000586461164
-0.000749577201
-0.000747292857
-0.000595650356
-0.000500241355
-0.000590405232
-0.000749482964
-0.000748188505
-0.000597240641
-0.00049185098
-0.000582169256
-0.000749126064
-0.000747130488
-0.000597978933
-0.000492227358
-0.000576288423
-0.000745385137
-0.00075126051
-0.000562233716
-0.000552091398
-0.000751294614
-0.000742280555
-0.00059189748
-0.000488667223
-0.000571154685
-0.000741818119
-0.000748032809
-0.000743955332
-0.000591959837
-0.000519805314
-0.00052010971
-0.000564917132
-0.000752105889
-0.000744740841
-0.000592664677
-0.000486685778
-0.000578759607
-0.000744616672
-0.000756719581
-0.000556145491
-0.00055910248
-0.000750980412
-0.000746366409
-0.000592579617
-0.000496590958
-0.000591687697
-0.000743013611
-0.000673002429
-0.000547528943
-0.000594104061
-0.000744029142
-0.000659273479
-0.000564322168
-0.00060066995
-0.000747914724
-0.000750994769
-0.000590649888
-0.000508190379
-0.000593974653
-0.000744990499
-0.000752970805
-0.000592748303
-0.000501872012
-0.000595435095
-0.000742996596
-0.000751642815
-0.00059214178
-0.000506818188
-0.000591186981
-0.000741568323
-0.000751191483
-0.000591152984
-0.000511719385
-0.000587937164
-0.000740670109
-0.000750972802
-0.000590482163
-0.000514958285
-0.000584189246
-0.000740245066
-0.000750858343
-0.000590064748
-0.000516664714
)
;

boundaryField
{
    closed
    {
        type            calculated;
        value           nonuniform List<scalar> 0();
    }
    open
    {
        type            calculated;
        value           nonuniform List<scalar> 0();
    }
    sides
    {
        type            empty;
    }
    procBoundary1to0
    {
        type            processor;
        value           uniform -0.000590586061;
    }
    procBoundary1to2
    {
        type            processor;
        value           uniform -0.000580802005;
    }
}


// ************************************************************************* //
