/*--------------------------------*- C++ -*----------------------------------*\
| =========                 |                                                 |
| \\      /  F ield         | OpenFOAM: The Open Source CFD Toolbox           |
|  \\    /   O peration     | Version:  2306                                  |
|   \\  /    A nd           | Website:  www.openfoam.com                      |
|    \\/     M anipulation  |                                                 |
\*---------------------------------------------------------------------------*/
FoamFile
{
    version     2.0;
    format      ascii;
    arch        "LSB;label=32;scalar=64";
    class       volScalarField;
    location    "0.00152";
    object      T;
}
// * * * * * * * * * * * * * * * * * * * * * * * * * * * * * * * * * * * * * //

dimensions      [0 0 0 1 0 0 0];

internalField   nonuniform List<scalar> 
531
(
334.230265
339.877018
329.576005
325.803875
336.627959
339.785487
331.292088
325.036941
323.00409
329.764732
339.466917
334.561467
325.102776
321.887972
329.653389
339.547125
329.134499
325.95387
334.938691
339.188819
339.395088
334.659829
329.584598
325.253556
325.7286
322.977003
320.892471
328.550383
339.306173
340.700703
329.922576
328.061517
339.562373
340.107207
330.233455
329.393256
325.676795
323.515115
329.294068
339.640248
329.546239
324.436343
331.080515
339.727583
329.044711
323.621453
330.883284
339.67093
330.381247
322.525703
327.422719
340.053356
340.542174
340.157076
329.091763
325.056969
332.208511
340.271739
328.939167
326.689723
331.710809
329.824822
323.522106
329.446477
339.484206
340.305507
331.078403
328.596789
323.633438
321.843147
329.615121
339.681576
331.169367
324.318911
320.732278
328.775438
339.532276
329.819099
322.808267
329.94161
339.685033
328.944449
323.95844
329.171332
339.934501
340.40562
329.802793
323.935784
328.78786
339.714735
339.860999
339.683636
335.211996
328.708595
320.220939
320.229953
331.59077
339.578172
330.384156
323.629781
322.237536
329.566302
339.728503
329.408644
325.519298
339.55658
339.992888
329.953769
326.655099
339.653388
339.995487
329.622179
328.32061
324.949626
322.085348
329.072977
339.759332
329.02193
323.44733
333.838748
339.886195
329.059517
325.25556
339.170137
339.740108
339.232402
329.623753
325.663644
339.695351
339.395554
330.210231
320.989717
321.152974
339.223022
339.696061
330.016384
323.988528
322.089471
329.238627
339.730547
328.999264
323.071243
334.700992
339.959716
329.055606
323.316499
332.565806
339.930832
329.137841
324.463194
335.399837
339.720443
339.719006
329.688029
325.41804
339.403224
339.055674
339.105028
336.002968
329.425346
326.623716
326.468585
326.341684
321.099957
321.146759
339.354952
329.757975
322.15625
339.396233
339.725699
328.883919
325.676246
339.481761
339.974788
329.629739
326.08966
332.871879
339.48671
339.552339
332.383195
322.450028
321.534685
332.967854
339.565728
330.26757
321.934807
321.5154
330.892696
338.743631
339.875337
336.236233
327.80913
325.346018
320.93113
320.925814
331.573025
339.392421
339.945275
329.56324
324.932681
339.454499
339.961344
328.645323
325.004132
339.218743
340.036221
328.807418
325.596382
335.353699
339.846024
339.616459
329.599299
327.265152
320.816086
320.897386
334.435604
329.175569
320.55754
328.740327
339.431604
340.695039
329.43996
325.327894
333.861879
339.786087
339.471554
330.070699
319.609013
319.582474
339.49741
339.329468
329.610495
319.086543
319.211777
339.326466
339.542513
328.965133
324.84032
339.433294
339.339232
329.983738
321.630211
321.587348
339.453884
339.212058
329.841891
319.98096
320.163829
339.202409
339.718875
327.550907
327.451354
339.130781
329.447681
319.285436
339.577334
339.501753
327.484016
324.310379
339.371995
339.805627
328.42364
324.964777
339.641826
340.09777
329.62556
326.482836
323.574868
328.973785
339.96745
340.18157
340.163145
329.448891
327.445663
339.500974
332.122241
318.302408
328.824488
339.210714
329.443372
322.779982
329.145621
339.412286
330.428661
323.828589
328.60729
339.477751
340.569884
331.518748
326.923814
324.798297
321.866513
328.623913
339.544236
340.80753
331.237141
326.672346
322.203327
328.624956
339.985077
340.413642
340.309918
329.310559
328.595314
339.498005
329.278862
319.159505
339.562699
339.727163
327.598949
324.826394
339.346674
339.82163
330.462749
329.55646
321.664757
321.681646
339.295775
339.364386
330.632019
322.626292
322.700999
339.203585
329.431706
322.270957
339.349418
339.247697
339.244272
331.456296
328.637923
321.463722
321.494481
339.30067
339.256256
329.84074
321.546089
321.643838
339.253848
339.278975
329.978468
319.956251
320.072847
339.376603
339.541649
339.517412
329.668917
323.979506
339.575738
339.431968
329.637874
320.957649
321.013895
339.202597
339.310756
331.967429
323.41999
323.432235
339.271821
339.32411
329.904128
322.279922
322.287808
339.46456
339.421012
329.755843
321.352606
321.402869
339.45154
339.360931
329.576308
320.106861
320.333507
339.207836
339.728256
328.740946
323.092446
339.497673
339.709773
329.441127
320.644649
320.373772
330.038349
339.510842
340.232594
339.584649
339.800132
330.736438
327.906392
320.533922
320.665164
339.195095
339.869952
327.639016
323.701728
339.23492
339.850028
328.45108
324.387477
339.476779
339.481157
329.535902
321.416982
321.566683
339.224275
339.750564
329.845077
325.28987
339.409719
339.468938
329.898061
322.643529
322.701414
339.154128
330.748253
323.263029
339.442595
339.357708
329.824364
322.933049
322.942793
339.389049
339.403367
329.88028
322.088584
322.158492
339.336959
339.450404
329.527106
317.978406
318.144973
339.326975
339.550014
339.51742
327.176622
323.640508
339.256824
339.87908
339.259319
329.452017
317.877875
318.113433
339.366324
339.677905
339.581689
329.493335
325.425859
339.519563
339.876941
329.689813
328.015004
322.575901
322.643283
339.204083
339.940227
329.237665
325.591488
339.301816
339.887255
329.705463
327.338437
321.311596
321.393963
338.94205
339.779436
326.477188
322.995421
338.898642
339.787741
324.607478
323.09175
339.130141
339.549708
339.447129
327.592374
321.961223
339.078181
339.692951
326.274322
322.071978
339.348791
339.75798
328.696818
322.412212
330.606698
339.416595
339.966186
339.551532
330.611214
328.012829
322.267076
322.31206
339.203742
329.578536
320.779093
339.232796
339.552337
339.381615
329.264612
322.953525
321.668702
319.241293
328.785271
339.219092
340.464458
328.983855
323.420987
339.276387
339.515516
339.42932
329.313909
322.850147
338.924179
339.619545
326.248825
324.961918
338.914325
339.58962
339.180377
329.965584
325.878527
320.692731
320.64169
339.038568
339.261345
329.677958
316.139578
316.253119
338.966534
339.234092
339.229542
326.609462
)
;

boundaryField
{
    closed
    {
        type            fixedValue;
        value           nonuniform List<scalar> 0();
    }
    open
    {
        type            zeroGradient;
    }
    sides
    {
        type            empty;
    }
    procBoundary1to0
    {
        type            processor;
        value           uniform 325.460793;
    }
    procBoundary1to2
    {
        type            processor;
        value           uniform 323.915726;
    }
}


// ************************************************************************* //
