/*--------------------------------*- C++ -*----------------------------------*\
| =========                 |                                                 |
| \\      /  F ield         | OpenFOAM: The Open Source CFD Toolbox           |
|  \\    /   O peration     | Version:  2306                                  |
|   \\  /    A nd           | Website:  www.openfoam.com                      |
|    \\/     M anipulation  |                                                 |
\*---------------------------------------------------------------------------*/
FoamFile
{
    version     2.0;
    format      ascii;
    arch        "LSB;label=32;scalar=64";
    class       volScalarField;
    location    "2e-05";
    object      prefDZ_H;
}
// * * * * * * * * * * * * * * * * * * * * * * * * * * * * * * * * * * * * * //

dimensions      [1 -1 -1 0 0 0 0];

internalField   nonuniform List<scalar> 
3810
(
0.000110244624
0.000110421812
0.000106795687
0.00010666821
0.00011026103
0.000110387715
0.000106750729
0.000106572883
0.00011028913
0.000110366319
0.000106656425
0.000106530033
0.000110303728
0.000110361061
0.000106619087
0.000106541319
0.000110312907
0.000110361008
0.000106645381
0.000106618738
0.000110315601
0.000110365281
0.000106693563
0.000106792581
0.000110341709
0.000110357683
0.000106487028
0.000107354483
0.000110421923
0.000107055161
0.000107140534
0.000110412978
0.000107062509
0.000106700816
0.000110335516
0.000110377734
0.000106827996
0.000106810564
0.000110361916
0.000110337841
0.000106728009
0.000106872802
0.000110383892
0.00011030762
0.000106666253
0.000106910449
0.000110399074
0.000110267412
0.000106544244
0.000106257558
0.000106863499
0.00011027721
0.000110371298
0.000106724945
0.00010681333
0.000110324527
0.000110314969
0.000106735359
0.000106874172
0.000110364601
0.000110267584
0.000106704212
0.000106848724
0.000110383302
0.000110242072
0.000106635143
0.000106305471
0.00010679203
0.000110259644
0.000110336239
0.000106680634
0.000106723232
0.000110306521
0.000110296435
0.000106637821
0.000106707493
0.000110331655
0.000110282006
0.000106572323
0.000106719031
0.000110347627
0.00011026712
0.000106553308
0.000106787422
0.000110371342
0.000110239448
0.000106593726
0.00010685506
0.000110384342
0.000110214396
0.000106640689
0.000106000757
0.000106663347
0.000110239632
0.000110302274
0.000106720202
0.000106719272
0.0001103087
0.000110270026
0.000106603946
0.00010668322
0.000110329979
0.00011026
0.00010652249
0.000106662173
0.000110335306
0.000110250813
0.000106503927
0.00010670295
0.000110343874
0.000110239997
0.000106550762
0.000106828188
0.000110370452
0.0001102137
0.000106648492
0.000106934955
0.000110403508
0.000110200291
0.000106900577
0.000106100219
0.00010670672
0.000110261887
0.000110264185
0.000106966409
0.000107041438
0.000110362709
0.000110220977
0.00010685251
0.000107048936
0.000110423725
0.000110195758
0.000107059272
0.00010607705
0.000106591745
0.00011027267
0.000110260869
0.000106865883
0.000106791939
0.000110337476
0.000110248406
0.000106730311
0.000106709237
0.000110337544
0.000110247485
0.000106668424
0.000106649561
0.000110337641
0.000110250725
0.000106666555
0.000106651143
0.000110333715
0.000110258668
0.000106733611
0.000106715648
0.00011033497
0.000110276218
0.000106848458
0.000106745301
0.000110408072
0.000110211546
0.000107495673
0.000106107145
0.000106293294
0.000110225426
0.000110325204
0.000107328434
0.000106794908
0.000110220196
0.000110320394
0.000107311212
0.000106814845
0.000110239509
0.000110236236
0.000107751982
0.00010625461
0.000106312658
0.000110065623
0.00011033765
0.000107467301
0.000106681699
0.000109991584
0.00011034055
0.000107369351
0.000106656893
0.000109959726
0.000110318842
0.000107339092
0.000106676498
0.000109962137
0.000110291757
0.0001073353
0.000106683355
0.000110015736
0.000110240668
0.000107482273
0.000106222616
0.0001062476
0.000110029068
0.000110359833
0.000107257648
0.000106590368
0.000109960519
0.000110360235
0.00010709165
0.000106510852
0.000110004808
0.000110348456
0.000106934125
0.000106447692
0.000110059046
0.000110346722
0.000106810106
0.000106422482
0.000110111954
0.000110350586
0.000106745668
0.000106454867
0.000110165592
0.000110357557
0.000106748145
0.000106552711
0.000110218619
0.000110366314
0.000106822396
0.000106723473
0.000110263574
0.000110369532
0.000106953384
0.000106971503
0.000110309572
0.000110355484
0.000106912365
0.00010685424
0.000106865655
0.000107210597
0.000110352819
0.000110386791
0.00010705418
0.000107173858
0.000110387564
0.000110378895
0.000107057655
0.000107240941
0.000110405643
0.000110330807
0.000106959622
0.000106606317
0.000107404727
0.000110326605
0.000110384739
0.000106909673
0.000106540184
0.000107364063
0.000110341928
0.000110390527
0.000106897628
0.000107132017
0.000110378503
0.000110332868
0.000106858678
0.000107087356
0.000110399778
0.000110266231
0.000106606835
0.000106150922
0.000107057514
0.000110266524
0.000110376625
0.000106611589
0.000106759448
0.000110306401
0.000110311362
0.000106573023
0.00010666933
0.00011032664
0.000110274984
0.000106471681
0.000106603627
0.000110328012
0.000110255223
0.000106403733
0.000106571053
0.000110324558
0.000110243132
0.000106370019
0.000106563443
0.000110321856
0.000110236566
0.000106366062
0.000106578635
0.000110321284
0.000110234168
0.000106386953
0.000106616886
0.000110323067
0.000110234257
0.000106441386
0.000106693079
0.00011032756
0.000110235024
0.000106530058
0.000106817056
0.000110331653
0.000110239263
0.000106631816
0.000107018693
0.000110321688
0.000110259647
0.000106508564
0.000107611069
0.000110310385
0.000107031826
0.000107291386
0.000110323269
0.000106897461
0.000106801447
0.000110313361
0.00011025434
0.000106789298
0.000106966951
0.000110356595
0.000110216545
0.00010670436
0.000107004641
0.000110372713
0.000110213236
0.000106703382
0.00010708383
0.00011039582
0.000110202833
0.000106787652
0.000107248917
0.000110396814
0.000110232232
0.000106875441
0.000106333175
0.000107438341
0.000110332956
0.000110246895
0.000106948322
0.000106306455
0.000107368097
0.000110289416
0.000110204199
0.000106885158
0.000107247034
0.00011035919
0.000110136688
0.000106777364
0.000107243531
0.00011037302
0.000110107161
0.000106700246
0.000107292937
0.000110364686
0.000110104601
0.000106495567
0.000107768649
0.000110303409
0.000106985724
0.000106732148
0.000110367303
0.000110044602
0.000106827143
0.000107257428
0.00011038888
0.00011004247
0.000106822891
0.00010737462
0.000110428401
0.000110115825
0.000106904351
0.000106149128
0.000107175726
0.000110287344
0.000110128496
0.000106933616
0.000107199871
0.000110356284
0.000110113764
0.000106856682
0.000107213352
0.000110358981
0.000110134268
0.000106747985
0.000107474436
0.000110321685
0.000107370732
0.000106466608
0.000110392469
0.000110177373
0.000106901845
0.000106954329
0.000110355871
0.000110238602
0.000106802164
0.000107118577
0.000110347721
0.000107566143
0.000106088276
0.000110313448
0.000110288175
0.000107084967
0.000106521264
0.000110165469
0.000110334134
0.000107111829
0.000106513763
0.000110066378
0.000110324904
0.00010720385
0.000106532165
0.00010998201
0.000110307825
0.000107303369
0.000106597754
0.000109910559
0.000110290738
0.000107377413
0.000106706203
0.00010986405
0.000110272958
0.000107283923
0.000106967698
0.000109849314
0.000107910325
0.000106150585
0.000109773245
0.000110273066
0.000107646
0.000106533867
0.000109730825
0.000110308942
0.000107518167
0.000106489267
0.000109745619
0.000110302295
0.000107379348
0.000106438497
0.00010978067
0.000110300089
0.000107241135
0.000106417489
0.000109833859
0.000110301202
0.000107120892
0.000106431066
0.000109900159
0.000110302753
0.000107033772
0.00010649278
0.000109975149
0.000110302014
0.000106989742
0.00010659553
0.000110055105
0.000110286765
0.000106954685
0.000106699534
0.00011016077
0.000110239811
0.000106954459
0.000106262543
0.000106591444
0.000110168698
0.000110377012
0.000106914311
0.000106668386
0.000110171383
0.000110364694
0.000106856642
0.000106653163
0.000110224221
0.000110338188
0.000106741825
0.000106712741
0.000110277468
0.000110302476
0.000106434856
0.00010698862
0.000110391731
0.000107088668
0.000106394118
0.000110253941
0.0001103678
0.000106776806
0.000106503847
0.000110268587
0.000110349386
0.000106654861
0.000106524639
0.000110282214
0.000110336745
0.000106599435
0.000106563654
0.00011029013
0.000110325744
0.000106537768
0.000106683816
0.000110340222
0.000110302359
0.000106312691
0.000107011178
0.000110403394
0.000106989082
0.000106412696
0.000110254323
0.000110380765
0.000106780734
0.000106541113
0.000110274882
0.000110358308
0.000106707466
0.000106606273
0.000110297266
0.00011034047
0.000106678735
0.000106677202
0.000110318175
0.000110317141
0.00010667015
0.000106771838
0.000110354828
0.000110276346
0.000106629603
0.000106406766
0.000106822444
0.000110262049
0.000110397613
0.000106782787
0.000106825424
0.000110309261
0.000110353167
0.000106801508
0.000106869585
0.000110361722
0.000110291112
0.000106668448
0.000106440969
0.000106841358
0.000110269894
0.000110408765
0.00010665733
0.000106689555
0.000110300857
0.000110388209
0.000106650909
0.000106632714
0.000110322221
0.000110365368
0.000106600255
0.000106654517
0.000110346572
0.000110346663
0.000106552764
0.000106801541
0.000110370604
0.000110318169
0.000106419389
0.000107074782
0.00011042246
0.000106891289
0.000106629879
0.000110306089
0.000110364552
0.000106754506
0.000106839616
0.000110347804
0.000110307048
0.000106492378
0.000107041984
0.000110411586
0.000106832583
0.000106537695
0.000110274739
0.000110368224
0.000106658732
0.000106513939
0.000110291688
0.000110337649
0.0001065275
0.000106460483
0.000110303027
0.000110320907
0.000106436814
0.000106413225
0.000110309663
0.000110312548
0.000106378388
0.000106388741
0.000110314215
0.000110308635
0.000106351933
0.00010638904
0.00011031857
0.000110306916
0.000106356395
0.000106418176
0.000110324022
0.000110305667
0.000106391376
0.000106484233
0.000110332083
0.000110302824
0.000106446254
0.000106597858
0.000110345164
0.000110297018
0.000106485368
0.000106783261
0.000110368628
0.000110284782
0.000106410878
0.00010711483
0.000110412176
0.000106978465
0.000106608555
0.000110307949
0.000110344745
0.000106846668
0.00010690262
0.000110357947
0.000110300575
0.000106601265
0.000107225497
0.000110401987
0.000107015656
0.000106706925
0.000110323743
0.000110324305
0.00010681386
0.000106939522
0.000110371893
0.000110278083
0.000106499214
0.000107216736
0.000110409449
0.000106900309
0.000106545659
0.000110305409
0.000110322882
0.000106686208
0.000106657186
0.000110336009
0.000110287023
0.000106592419
0.000106696415
0.000110350151
0.000110267329
0.000106545123
0.00010677291
0.000110365183
0.000110249332
0.000106516544
0.000106930458
0.000110383516
0.000110239911
0.000106365869
0.000107334703
0.000110395103
0.000106905397
0.000106637358
0.000110323222
0.000110281616
0.000106859662
0.000106946347
0.000110361381
0.000110246645
0.000106858648
0.000107188971
0.000110362207
0.00011024688
0.000106738578
0.000107675694
0.000110307955
0.000107202149
0.000107472097
0.000110270658
0.00010714405
0.000107214018
0.000110353137
0.00011023925
0.000106728412
0.00010770713
0.000110363153
0.000107021519
0.000106828468
0.000110315882
0.000110234232
0.000106765406
0.0001069093
0.000110350823
0.000110198216
0.000106590335
0.000106864323
0.000110352328
0.000110190624
0.000106499863
0.00010684103
0.000110353382
0.000110181238
0.000106481319
0.000106881384
0.000110360624
0.00011017057
0.000106518335
0.000106973159
0.000110382674
0.00011016214
0.000106575525
0.000107064638
0.000110399813
0.00011018883
0.000106511209
0.000106153538
0.000107001269
0.00011027576
0.000110270657
0.000106756618
0.000106946815
0.000110350969
0.000110233837
0.000106733676
0.000106986561
0.000110377216
0.000110236035
0.000106767609
0.000107083765
0.000110404863
0.000110235647
0.000106877385
0.00010719667
0.000110445376
0.000110261356
0.000107062477
0.000106777533
0.000107183733
0.000110339528
0.00011038167
0.00010737736
0.000107125651
0.000107074294
0.000107232
0.00011038352
0.000110341402
0.00010723203
0.000107260427
0.000110411095
0.000110344774
0.000107081516
0.000107123251
0.00011046921
0.000110310576
0.00010723771
0.000106578497
0.000106667458
0.000110325422
0.000110420727
0.000107269958
0.000106929072
0.00011032674
0.000110405924
0.00010730223
0.00010700177
0.000110325852
0.00011033797
0.000107594286
0.000106610194
0.000106633442
0.00011031657
0.000110307625
0.000107676009
0.000106567624
0.000106590093
0.000110160737
0.000110384059
0.00010748202
0.000106824202
0.000110085271
0.000110381295
0.000107351734
0.000106764708
0.000110051815
0.000110362149
0.000107276849
0.000106755579
0.000110049728
0.000110339641
0.00010721643
0.000106782611
0.00011009778
0.000110286958
0.000107277814
0.000106415997
0.000106467484
0.000110146788
0.000110382931
0.000107220041
0.000106806318
0.000110085746
0.000110354197
0.000107142653
0.000106838317
0.000110167168
0.000110298128
0.000107085397
0.000106527581
0.000106686345
0.000110211286
0.000110382527
0.000106927283
0.000106771013
0.000110200559
0.000110355585
0.000106874091
0.000106739026
0.000110253218
0.000110312882
0.000106780573
0.00010673723
0.000110321241
0.000110260886
0.000106747751
0.000106404994
0.000106680775
0.000110229922
0.000110385152
0.000106639995
0.000106621428
0.000110248521
0.000110361183
0.000106590759
0.000106511211
0.000110276059
0.000110338593
0.000106475768
0.000106405439
0.000110294778
0.000110321873
0.000106377351
0.000106330955
0.00011030571
0.000110309984
0.000106319855
0.00010630647
0.000110309371
0.000110302988
0.000106312328
0.000106326179
0.000110313711
0.000110299983
0.000106347904
0.000106389783
0.000110320394
0.000110298161
0.000106415255
0.000106485633
0.000110330971
0.00011029263
0.000106505755
0.000106603736
0.000110352976
0.000110272851
0.000106574883
0.000106674612
0.000110399443
0.000110241752
0.000106679432
0.000106275147
0.000106671735
0.000110264271
0.000110387482
0.000106665985
0.000106678111
0.000110309198
0.000110379191
0.000106705241
0.000106657463
0.000110334354
0.000110358286
0.000106704731
0.000106690342
0.000110361315
0.00011032366
0.000106694451
0.000106707678
0.000110412706
0.000110277713
0.000106799091
0.00010631921
0.000106679687
0.000110270436
0.000110418455
0.000106823055
0.000106772976
0.000110272878
0.000110411046
0.000106976428
0.000106856994
0.00011027676
0.000110389624
0.00010703997
0.000106925507
0.000110295085
0.000110366614
0.000107066962
0.000106884606
0.000106813301
0.000106869101
0.000110305766
0.000110361809
0.000107000656
0.000106853642
0.000110283195
0.000110373363
0.000106851442
0.000106694326
0.000110277431
0.000110371684
0.000106754832
0.00010661184
0.000110274319
0.000110364978
0.000106728772
0.000106643011
0.000110278287
0.000110347266
0.000106714398
0.000106795205
0.000110346425
0.000110313534
0.000106579373
0.000107142198
0.00011039664
0.000107141851
0.00010675306
0.000110275045
0.000110344226
0.000106667315
0.000107082899
0.000110378967
0.000106986636
0.000106562137
0.000110257682
0.000110372987
0.000106727268
0.00010653915
0.000110274837
0.000110351317
0.000106576033
0.000106501302
0.000110297115
0.000110336571
0.000106474962
0.000106457832
0.000110318283
0.00011033094
0.000106424226
0.000106452137
0.000110338369
0.000110327847
0.000106426698
0.000106508725
0.000110351978
0.00011031526
0.000106480329
0.000106621149
0.00011036609
0.000110288184
0.000106530027
0.000106737447
0.000110394613
0.000110251315
0.000106471322
0.000106257158
0.000106879021
0.000110264645
0.000110389805
0.000106583505
0.000106808418
0.000110296513
0.00011036172
0.000106713523
0.000106804047
0.000110319151
0.000110331397
0.000106789995
0.000106902828
0.000110328797
0.000110301821
0.000106855233
0.000107030285
0.000110332208
0.00011027656
0.000106762535
0.000106762926
0.000106792807
0.00010725805
0.000110320074
0.000110279266
0.000106741764
0.000106995346
0.000110325094
0.000110255835
0.000106635651
0.000106838039
0.000110328066
0.00011023356
0.00010650167
0.000106715591
0.000110326743
0.000110216504
0.000106401275
0.000106632567
0.000110322137
0.000110204191
0.000106340586
0.000106587009
0.000110317223
0.000110195872
0.000106307764
0.000106568541
0.0001103145
0.000110191707
0.0001062942
0.000106570195
0.000110315488
0.0001101918
0.000106304057
0.000106595045
0.000110321371
0.000110195057
0.000106341764
0.000106652223
0.00011033337
0.000110199147
0.000106411736
0.00010674886
0.000110350969
0.000110201993
0.000106518414
0.000106888089
0.000110368592
0.000110206911
0.000106643776
0.000107117188
0.000110381213
0.000110210601
0.000106379749
0.000106293058
0.000107431635
0.000110265798
0.000110346395
0.00010684923
0.000107246732
0.000110311321
0.000110292551
0.000107030112
0.000107394398
0.000110330997
0.000110258374
0.000106767669
0.000106770106
0.000106886147
0.000107627112
0.000110356559
0.000110277852
0.000106894448
0.000107291188
0.000110383837
0.000110234248
0.000106871658
0.000107283643
0.00011039995
0.00011021408
0.000106848803
0.000107421365
0.000110391674
0.000110226221
0.0001063948
0.000106314857
0.000107728947
0.000110304596
0.000110269894
0.000106819655
0.000107547118
0.000110336532
0.000110230178
0.000106366055
0.000106313162
0.000107786138
0.000110289749
0.000110226033
0.000106767094
0.000107386083
0.000110323015
0.00011016809
0.000106751818
0.000107435408
0.000110305393
0.000110160799
0.000106181959
0.000107844729
0.000110145956
0.000106981607
0.000106983976
0.000110339259
0.000110130381
0.000106724232
0.00010714256
0.000110370121
0.000110104445
0.000106691199
0.000107284132
0.000110383134
0.000110120512
0.000106741056
0.000107546585
0.000110354721
0.000110136946
0.000106160629
0.00010612152
0.00010782727
0.000110245125
0.000110282771
0.000106806502
0.000107499937
0.000110251751
0.000110268356
0.000106328134
0.000107851277
0.000110271806
0.000107165012
0.000107127856
0.000110275478
0.000110293046
0.000106309953
0.000107879617
0.000110336199
0.000106948626
0.000106854362
0.000110309704
0.000110270995
0.000106696102
0.00010691083
0.000110349953
0.000110238727
0.000106578344
0.000106912631
0.000110361917
0.000110231958
0.000106543647
0.000106924917
0.000110369619
0.000110224592
0.000106579563
0.00010702976
0.000110375307
0.000110213958
0.000106678771
0.000107334684
0.000110350995
0.000110188923
0.000106309318
0.000106131356
0.000107703799
0.000110268198
0.000110231078
0.000106829652
0.00010755754
0.00011031894
0.000110156507
0.000106322739
0.000106168798
0.0001077485
0.000110254325
0.000110097118
0.000106714473
0.000107352871
0.000110315039
0.000109972847
0.000106659091
0.000107353877
0.000110336188
0.000109899851
0.000106619248
0.000107418934
0.000110335817
0.000109853338
0.000106652002
0.000107556635
0.000110329796
0.00010982388
0.000106734102
0.000107749607
0.000110273072
0.000109829807
0.000106412039
0.000107898007
0.00010987845
0.00010684027
0.000107859996
0.000109840163
0.000107074484
0.000107519654
0.000110299118
0.000109837376
0.000106760281
0.000107608042
0.000110313477
0.000109862825
0.000106629186
0.000107485993
0.000110317608
0.000109922213
0.000106535983
0.000107350135
0.000110321376
0.000109985356
0.000106511471
0.000107256974
0.000110327068
0.000110047991
0.000106531582
0.000107211024
0.000110332964
0.000110108069
0.000106536824
0.000107211458
0.000110327653
0.000110195329
0.000106280849
0.000107651789
0.000110360397
0.000106908833
0.000106623315
0.000110323347
0.000110277884
0.000106746579
0.000106800309
0.000110353367
0.000110302001
0.000106670556
0.000106784012
0.000110375348
0.000110289158
0.000106531062
0.000106835935
0.000110398181
0.000107347762
0.000106376002
0.000110257931
0.000110359464
0.000107087086
0.000106622659
0.00011021463
0.000110357868
0.000107184155
0.00010673851
0.000110182781
0.000110334495
0.00010732562
0.000106847639
0.00011024072
0.000110241605
0.000107874587
0.000106189056
0.000106235763
0.000110099609
0.000110312268
0.000107918278
0.000106969081
0.000110134447
0.000110244012
0.000107868486
0.000106063819
0.000106104587
0.000109966628
0.000110319111
0.000108000522
0.000106755872
0.000109891565
0.000110359866
0.000107794789
0.000106643113
0.000109785879
0.000110344688
0.000107793719
0.000106636068
0.000109719188
0.000110332913
0.000107853246
0.000106741341
0.000109741845
0.000110307729
0.000107934706
0.00010688627
0.000109840743
0.000110230968
0.000107886005
0.000106196995
0.000106220479
0.000109921566
0.000110214077
0.000107823036
0.000106253224
0.000106277414
0.000109915601
0.000110322756
0.000107976794
0.000106826807
0.000109872813
0.000110365273
0.000107645182
0.000106666773
0.000109874925
0.000110357232
0.000107466747
0.000106587675
0.000109902782
0.000110351978
0.000107375587
0.000106592223
0.00010993577
0.000110346491
0.000107374396
0.000106680039
0.000109978531
0.000110334666
0.000107401901
0.000106757939
0.000110062118
0.000110315393
0.000107661558
0.000106681531
0.000106666724
0.000106671745
0.000110087633
0.000110313781
0.000107517176
0.00010690311
0.000110141955
0.00011035645
0.0001071811
0.00010672659
0.0001101572
0.000110355412
0.000107015668
0.0001066514
0.000110181302
0.000110337962
0.000106941341
0.000106666158
0.000110217518
0.000110298641
0.000106913256
0.000106624636
0.000110281458
0.000110241497
0.000107144319
0.000105917533
0.000106439732
0.000110190591
0.000110362062
0.000106925463
0.000106620776
0.000110194152
0.000110365542
0.000106831221
0.000106507187
0.000110209545
0.000110350826
0.000106724615
0.000106459515
0.000110221339
0.000110337559
0.00010666837
0.00010646577
0.000110227377
0.000110330161
0.000106654693
0.000106520889
0.000110242932
0.000110315031
0.000106612209
0.000106614205
0.000110285535
0.000110281621
0.000106418564
0.00010687964
0.000110371066
0.000107378745
0.000106173044
0.000110283152
0.000110329767
0.000106804107
0.000106424297
0.000110294783
0.000110327068
0.000106618076
0.000106460021
0.00011030261
0.000110329746
0.000106558729
0.000106481559
0.000110313462
0.000110329132
0.00010656532
0.000106553987
0.00011032873
0.000110312369
0.000106590882
0.000106704843
0.000110363561
0.000110279651
0.000106522928
0.000107027674
0.000110403603
0.000107262279
0.000106616794
0.000110349178
0.000110315396
0.000106654125
0.000107065041
0.00011040699
0.000107281561
0.000106418962
0.000110337497
0.000110358315
0.00010683369
0.000106554566
0.000110354905
0.000110351741
0.00010662669
0.000106559145
0.000110364817
0.000110350451
0.000106561819
0.000106577087
0.000110378429
0.00011034013
0.000106583695
0.000106665618
0.000110400404
0.000110312411
0.000106656362
0.000106756813
0.000110426883
0.000110280679
0.000106730937
0.000106570405
0.000106911408
0.000110294995
0.000110375588
0.000106924123
0.000107076088
0.000110327723
0.000110320198
0.000106929703
0.000107272981
0.000110293787
0.000107007257
0.000107319652
0.000110301821
0.000107054322
0.000107035436
0.000110333439
0.000110254133
0.000106864827
0.000107012634
0.000110350939
0.000110204158
0.000106715313
0.000107038182
0.000110365827
0.000110162504
0.000106582224
0.000107189519
0.000110370802
0.000110141665
0.000106300368
0.000107668791
0.000110191269
0.000106974221
0.00010698323
0.000110340096
0.000110132593
0.000106838099
0.000107184321
0.000110378652
0.000110093871
0.000106803801
0.000107320033
0.000110374536
0.000110159391
0.000106272166
0.000106193068
0.000107566405
0.000110275088
0.000110214043
0.000106745584
0.000107273925
0.000110338042
0.000110169159
0.000106812086
0.000107276827
0.0001103768
0.000110191199
0.000106830522
0.000107376172
0.00011036692
0.000110220341
0.000106318024
0.000106189276
0.000107632468
0.000110255312
0.000110392117
0.000106785361
0.000107338897
0.000110274849
0.000110386901
0.000106347232
0.000107869257
0.00011037766
0.000107214779
0.000106944253
0.000110286299
0.000110421769
0.000106424253
0.000107775294
0.000110409621
0.000107121563
0.000106681888
0.000110293037
0.000110397017
0.000106846691
0.000106730651
0.000110327411
0.000110366895
0.000106734512
0.000106780331
0.00011034597
0.000110367689
0.000106748176
0.000106847744
0.000110357077
0.000110378204
0.00010682487
0.000107052015
0.00011036118
0.000110313504
0.000106693509
0.000106205625
0.000107469934
0.000110270627
0.00011036641
0.000106712681
0.000106222613
0.000107297437
0.000110290753
0.000110421907
0.000106815136
0.000106873421
0.000110331148
0.000110389453
0.000106768749
0.000106784066
0.000110369099
0.000110360845
0.000106666708
0.000106788027
0.000110382381
0.000110331431
0.00010664389
0.000106868712
0.000110385654
0.000110257973
0.000106540963
0.000105912046
0.000106962139
0.000110253725
0.000110412874
0.000106595272
0.000106701082
0.000110301734
0.000110368557
0.000106598025
0.000106642002
0.000110338817
0.000110337167
0.000106543022
0.000106643735
0.00011035706
0.000110316374
0.000106534829
0.000106710794
0.000110375744
0.000110288285
0.000106591201
0.000106742229
0.000110385119
0.000110244082
0.000106666528
0.000106174187
0.000106765267
0.000110246018
0.000110368011
0.000106711762
0.000106724997
0.000110300805
0.000110319837
0.000106686569
0.000106774689
0.000110334854
0.000110298673
0.000106595508
0.000106859663
0.000110352605
0.000110288047
0.000106392767
0.000107290269
0.000110392072
0.00010708399
0.000106348379
0.000110337679
0.000110278597
0.000106733092
0.00010675544
0.000110364433
0.000110261214
0.00010667694
0.000106867725
0.000110393979
0.00011023295
0.000106683133
0.000106888678
0.000110422431
0.000110201282
0.000106976351
0.000105917844
0.0001066428
0.000110241446
0.000110306768
0.000106779664
0.000106744799
0.000110315124
0.000110274006
0.000106679639
0.000106735724
0.000110328052
0.000110259346
0.000106613743
0.000106752003
0.000110327251
0.000110241378
0.0001065623
0.000106828679
0.000110327361
0.000110227828
0.00010637428
0.00010734633
0.000110345605
0.000107436751
0.000105958708
0.000110370381
0.000110179186
0.000106651592
0.000106634558
0.000110318673
0.000110201218
0.000106646292
0.000106625388
0.000110307835
0.000110215785
0.000106617621
0.000106600759
0.000110305993
0.00011021435
0.000106625705
0.000106605606
0.000110304123
0.000110210672
0.000106681058
0.000106655213
0.000110299098
0.000110210271
0.000106739871
0.000106732424
0.000110293242
0.000110207519
0.000106731186
0.000107178039
0.000110259904
0.000107946502
0.000105615075
0.000110323036
0.000110181237
0.000107164444
0.000106468384
0.000110148142
0.000110285919
0.000107223508
0.000106465021
0.000110035086
0.000110295218
0.00010732137
0.000106428254
0.000109884544
0.000110286359
0.000107451641
0.000106404194
0.000109700275
0.000110277725
0.000107562795
0.000106390772
0.000109574118
0.000110271846
0.000107623139
0.000106383752
0.000109518064
0.00011026927
0.000107638743
0.000106383144
0.000109512873
0.000110270254
0.00010762056
0.000106387812
0.000109544856
0.000110274725
0.000107581469
0.00010640172
0.000109602322
0.000110282082
0.000107536185
0.000106434975
0.000109672637
0.000110291149
0.0001075014
0.000106501126
0.000109736904
0.000110300175
0.000107480087
0.000106610134
0.000109807905
0.000110307217
0.000107451528
0.000106764877
0.000109906107
0.000110315893
0.000107424564
0.000107023089
0.000110004327
0.000107778841
0.000106881497
0.000110109066
0.000107770379
0.000106520658
0.000110121267
0.000110348788
0.000107286807
0.000106793109
0.00011021801
0.000110363348
0.000107064242
0.000106863479
0.00011031755
0.000110361207
0.000106933769
0.000107001505
0.000110367594
0.000110304076
0.000106937541
0.000106864254
0.000106790644
0.00010710945
0.000110338719
0.000110138869
0.000106849975
0.000107200996
0.000110341807
0.000110045187
0.000106696071
0.000107191498
0.000110335235
0.000109967175
0.000106542842
0.000107162162
0.000110322785
0.000109899558
0.000106436127
0.000107157799
0.000110308181
0.000109847098
0.000106373419
0.000107170185
0.000110293943
0.000109813873
0.000106341716
0.000107185002
0.000110282174
0.000109802351
0.000106331836
0.000107191937
0.00011027405
0.000109812753
0.00010633501
0.000107180606
0.000110269297
0.0001098434
0.000106341917
0.000107146693
0.000110267361
0.000109891476
0.000106344529
0.000107084846
0.000110267014
0.000109953676
0.000106337877
0.000106985322
0.000110267923
0.000110029729
0.000106333801
0.000106877785
0.000110272439
0.000110112266
0.000106324563
0.000106750193
0.000110275007
0.00011018592
0.000106323813
0.000106629153
0.000110267432
0.000110243134
0.000106336239
0.000106533827
0.000110244058
0.000110267627
0.000106379799
0.000106482514
0.000110202602
0.000110275024
0.000106441627
0.000106453195
0.000110167141
0.00011028067
0.00010650126
0.000106434976
0.000110141301
0.000110283549
0.000106561237
0.000106425124
0.000110125498
0.000110286315
0.000106611495
0.000106422208
0.000110118195
0.000110289285
0.000106647834
0.000106429281
0.000110118469
0.000110291972
0.00010667702
0.000106447522
0.000110125687
0.000110294532
0.000106705031
0.000106489371
0.000110136464
0.000110298213
0.000106727624
0.000106552757
0.000110140825
0.000110310581
0.00010672059
0.000106633571
0.000110147124
0.000110321801
0.000106279786
0.000107145628
0.000110337576
0.000107367317
0.000106305057
0.000110184946
0.000110340587
0.000106884284
0.000106486862
0.000110213105
0.00011033635
0.000106749574
0.000106519636
0.000110243989
0.00011033627
0.000106725296
0.000106575441
0.000110267371
0.000110340354
0.000106786906
0.000106694987
0.000110284098
0.000110327265
0.000106905655
0.000106871349
0.000110316559
0.000110262215
0.000106939358
0.000106297844
0.000107140575
0.000110269063
0.000110312302
0.00010688559
0.000106343251
0.000106957488
0.000110271235
0.000110364591
0.000106911513
0.000106730368
0.000110271619
0.000110366016
0.000106777853
0.000106586215
0.000110286858
0.000110344342
0.000106619862
0.000106483507
0.000110292202
0.000110332946
0.000106530501
0.000106420225
0.000110291835
0.00011032653
0.000106484892
0.000106394857
0.000110291724
0.000110321126
0.000106463158
0.000106395948
0.000110294105
0.000110316263
0.000106461281
0.000106421176
0.000110299622
0.000110311136
0.000106480691
0.000106476157
0.000110308223
0.00011030261
0.000106534908
0.000106562317
0.000110323226
0.000110279118
0.000106611901
0.000106617451
0.000110359272