/*--------------------------------*- C++ -*----------------------------------*\
| =========                 |                                                 |
| \\      /  F ield         | OpenFOAM: The Open Source CFD Toolbox           |
|  \\    /   O peration     | Version:  2306                                  |
|   \\  /    A nd           | Website:  www.openfoam.com                      |
|    \\/     M anipulation  |                                                 |
\*---------------------------------------------------------------------------*/
FoamFile
{
    version     2.0;
    format      ascii;
    arch        "LSB;label=32;scalar=64";
    class       volScalarField;
    location    "2e-05";
    object      prefDh_H2;
}
// * * * * * * * * * * * * * * * * * * * * * * * * * * * * * * * * * * * * * //

dimensions      [1 1 -3 0 0 0 0];

internalField   nonuniform List<scalar> 
3810
(
38.1484276
38.782209
25.3103554
24.7921246
38.2082472
38.6645711
25.1293955
24.4443908
38.3133195
38.5871102
24.7681681
24.2854802
38.3668474
38.5672054
24.6249665
24.327493
38.3980411
38.5649152
24.7239142
24.6175627
38.403712
38.5762522
24.9060694
25.2717653
38.4957505
38.5356943
24.1129961
27.3962698
38.785803
26.2621071
26.5828858
38.7482404
26.2986364
24.9134932
38.4571092
38.6209321
25.4078033
25.3395541
38.5584406
38.4762128
25.0200452
25.5844647
38.641273
38.36713
24.7804864
25.7383664
38.6991631
38.2249602
24.3119271
23.293839
25.5125624
38.2571773
38.6066061
25.0376461
25.3463456
38.4227493
38.4030648
25.0581428
25.5961613
38.5698415
38.2313551
24.9282492
25.5141299
38.6383582
38.1371187
24.6615127
23.4818986
25.2505947
38.192256
38.4886111
24.8759169
25.0163581
38.3593092
38.3452304
24.7001513
24.9662464
38.4531459
38.293934
24.4466619
25.0149306
38.5132721
38.2394486
24.3686283
25.281447
38.600254
38.1371764
24.511644
25.5486926
38.6452052
38.0437741
24.6903038
22.3410828
24.7767275
38.122496
38.3719812
25.0294468
25.013158
38.3689175
38.255706
24.5744598
24.8818289
38.4506318
38.2214344
24.2647728
24.8046003
38.4723171
38.1888022
24.193765
24.9608039
38.5042092
38.1478623
24.366539
25.4385915
38.6008948
38.0481509
24.7220661
25.8512824
38.7159264
37.9935315
25.673027
22.7176628
24.9447471
38.2011619
38.2321206
25.9527083
26.2321182
38.5685843
38.0678828
25.4975928
26.2728539
38.7913931
37.9753121
26.2697029
22.6316685
24.5064127
38.2452983
38.221344
25.5851608
25.2752998
38.4865359
38.1747509
25.0713957
24.960899
38.4945705
38.1706987
24.8445262
24.7354585
38.5016811
38.1791105
24.843681
24.7419285
38.4946407
38.202235
25.1022408
24.9893503
38.5066126
38.2561607
25.5285442
25.1194669
38.7740896
38.0245003
27.9240114
22.7638068
23.3933924
38.1073176
38.4330364
27.371746
25.2893927
38.1117645
38.408874
27.2990651
25.3807074
38.192623
38.1084794
28.8855006
23.3299408
23.469261
37.5565136
38.4790802
27.9004079
24.8549726
37.3139955
38.4878512
27.5289857
24.7665822
37.2024536
38.4084766
27.4008149
24.8493754
37.2101747
38.308632
27.3661872
24.8892421
37.3992661
38.1272339
27.8523427
23.188361
23.2193808
37.4061356
38.5592827
27.0714191
24.5012163
37.1799742
38.5615564
26.4456771
24.2079027
37.333744
38.5206538
25.837619
23.9735282
37.5231228
38.5160009
25.3593471
23.879353
37.7060044
38.5306028
25.1079679
24.0009864
37.8899133
38.5548877
25.1095245
24.3685693
38.0703214
38.5837603
25.3828978
25.0111828
38.2200864
38.5897899
25.8743686
25.9516564
38.3750678
38.5365772
25.7162055
25.5135691
25.5503045
26.8467156
38.5246387
38.6478691
26.24485
26.709133
38.6468806
38.6196086
26.2509096
26.9711022
38.7130347
38.4480274
25.8744343
24.5961722
27.5528751
38.4317526
38.6443895
25.7102658
24.3339897
27.4105191
38.4890882
38.6674963
25.6670294
26.5523955
38.6164634
38.4641163
25.5054924
26.4056846
38.6978955
38.2252793
24.5481733
22.8967787
26.2414196
38.221924
38.6347529
24.6150408
25.1448397
38.3605629
38.4048823
24.4555732
24.8229204
38.4363961
38.276976
24.0691334
24.5834018
38.4436693
38.2082653
23.8133513
24.4654605
38.4323997
38.1663121
23.6873084
24.4401707
38.4230471
38.1434572
23.6730786
24.4996396
38.4208131
38.1348773
23.7519105
24.6450012
38.4264486
38.1343749
23.9565027
24.9327528
38.4411504
38.1352115
24.2897211
25.3998068
38.453803
38.1472724
24.6746821
26.1551512
38.4174988
38.2124718
24.2191823
28.3705363
38.410811
26.1907157
27.1625171
38.4442141
25.6920842
25.3128003
38.3787753
38.2114373
25.2647642
25.9614231
38.5417124
38.0724676
24.9355948
26.1044632
38.6023885
38.062229
24.925944
26.402324
38.6864533
38.024165
25.2355831
27.021419
38.6854126
38.1161692
25.5800633
23.5748266
27.6933339
38.4568484
38.1715074
25.8636365
23.4860666
27.4279808
38.3015334
38.0416493
25.6340715
27.0128343
38.5532699
37.8013886
25.2148793
27.0093636
38.6081714
37.6982202
24.9248014
27.1984584
38.5825859
37.6884995
24.1670884
28.9578537
38.4084915
26.0293505
25.0674573
38.5837613
37.4851646
25.4036378
27.0756039
38.6697161
37.4664993
25.3804139
27.5066015
38.8116029
37.7051983
25.692527
22.9109133
26.6984365
38.3018997
37.7770374
25.8309085
26.8285295
38.5537318
37.7125137
25.5362082
26.879416
38.5692762
37.7728557
25.1338929
27.8529772
38.4684595
27.4763293
24.0662984
38.687493
37.9118628
25.7124887
25.9011534
38.5684512
38.1176447
25.34718
26.5243161
38.5658789
28.2229768
22.6503464
38.4284077
38.3023573
26.4513783
24.2587585
37.9181146
38.4667878
26.5718748
24.227154
37.5811935
38.4348257
26.9247012
24.3026639
37.2937352
38.3730531
27.3022489
24.5567363
37.0484918
38.3098211
27.5793074
24.9724253
36.8907867
38.2412812
27.2124548
25.9661883
36.8430411
29.4857212
22.9232765
36.5627021
38.2534805
28.5971961
24.3122124
36.4073824
38.3823069
28.1049615
24.1435973
36.4582668
38.3580173
27.5676356
23.9532003
36.5781913
38.3491853
27.0335437
23.8736054
36.759757
38.3515157
26.5681812
23.9243087
36.9856811
38.3545189
26.2286866
24.1573034
37.2413737
38.348355
26.052182
24.5479879
37.5150548
38.2886106
25.9052781
24.9531204
37.8841325
38.121162
25.865
23.3304737
24.5057387
37.8817185
38.615976
25.7693545
24.7942271
37.8960015
38.572471
25.5438866
24.7462332
38.083126
38.4745443
25.0976222
24.9815663
38.2762461
38.3372119
23.9175785
26.0388709
38.6898705
26.4120193
23.7590266
38.1753183
38.5893545
25.2340739
24.180719
38.2330024
38.5199435
24.7688479
24.2646045
38.2843614
38.4726687
24.5556208
24.4153448
38.3142335
38.4295565
24.3164216
24.8758415
38.4970655
38.3362082
23.4508143
26.121808
38.7310925
26.0372979
23.8244531
38.1752447
38.6366677
25.2480304
24.3181585
38.2545335
38.5519972
24.9628705
24.5715198
38.3376777
38.4846477
24.8466249
24.8463432
38.4136681
38.3968627
24.8049136
25.2159258
38.5479093
38.2509112
24.6320929
23.8567682
25.3601719
38.2044703
38.6869219
25.2563798
25.3873471
38.3706819
38.524563
25.3075842
25.5759238
38.5645071
38.3028033
24.780236
23.9825832
25.4294806
38.2321579
38.729324
24.7854933
24.8655672
38.3409619
38.6583599
24.7497828
24.6604858
38.4201538
38.5755648
24.5505056
24.7510123
38.508657
38.5048596
24.3652461
25.313173
38.5992187
38.3943098
23.8506801
26.3570853
38.7901689
25.6678946
24.6436659
38.3524737
38.5726356
25.1392198
25.4558921
38.5113316
38.3562405
24.131919
26.2402
38.7518469
25.4558421
24.296618
38.2398551
38.593375
24.7928005
24.2209875
38.3060562
38.4826552
24.2915696
24.0277656
38.3504772
38.422919
23.9457101
23.8535596
38.3767216
38.3934604
23.7230275
23.7629677
38.3944983
38.379687
23.6215477
23.7647415
38.4107553
38.3732907
23.6366979
23.8748493
38.4302283
38.3678393
23.766477
24.1244904
38.4586056
38.3555185
23.9700785
24.5543951
38.5053757
38.3308176
24.1117822
25.256156
38.5923132
38.2792311
23.8199179
26.5115558
38.7565758
25.9989622
24.5655984
38.3559699
38.5072
25.4828628
25.6936394
38.5455598
38.3374608
24.5409861
26.9211613
38.7174225
26.1336199
24.9396304
38.4137772
38.4351139
25.3530331
25.8375367
38.5985514
38.2602944
24.1514635
26.8910051
38.7514359
25.7039635
24.3260105
38.3499851
38.4426634
24.8805965
24.7655256
38.4673203
38.3122751
24.5193032
24.9204524
38.5211018
38.241926
24.3359394
25.2138989
38.5774112
38.17621
24.2221433
25.8120858
38.6472827
38.1376232
23.6486063
27.3299939
38.7092038
25.720401
24.67467
38.4126742
38.3050837
25.5257138
25.8644911
38.554701
38.1723575
25.5159246
26.7840633
38.5594088
38.1662361
25.0736187
28.6060194
38.3989422
26.834136
27.8263328
38.2545767
26.6024328
26.8731662
38.5222039
38.1451606
25.0265348
28.7358756
38.5972701
26.1648363
25.4074091
38.3864883
38.1473286
25.1736254
25.7428876
38.5226811
38.0171737
24.5098939
25.5773964
38.5323328
37.9924256
24.1691478
25.4922661
38.5381424
37.9589518
24.0986483
25.6486206
38.5649137
37.9182677
24.2340737
25.9996396
38.6448576
37.8842294
24.4395571
26.3429266
38.7053514
37.9619575
24.1999875
22.9158885
26.0405538
38.2548555
38.2789457
25.152457
25.8717939
38.5235851
38.1414515
25.0496502
26.0240503
38.6205851
38.1429418
25.1707868
26.3890688
38.7210528
38.1317997
25.5717969
26.81355
38.8639929
38.2061797
26.258757
25.2474066
26.7041087
38.4706115
38.6368496
27.4886183
26.5167913
26.346032
26.9023431
38.6348399
38.4892277
26.9284189
27.0199148
38.744291
38.4943697
26.3523922
26.5153223
38.9639364
38.3737698
26.9143984
24.497412
24.7678958
38.4400414
38.7753247
27.1009707
25.7615249
38.4654632
38.7166269
27.2257649
26.0523009
38.4737924
38.4721902
28.2851441
24.6147154
24.681897
38.4278441
38.3645639
28.5656314
24.4708059
24.4974992
37.8784472
38.6432724
27.9082162
25.3784907
37.6349965
38.6338489
27.4244111
25.159869
37.5190549
38.5642944
27.1346815
25.1318713
37.5119105
38.4810041
26.8931917
25.2467987
37.6826039
38.2917451
27.0708041
23.8983418
24.0385048
37.8170108
38.6373086
26.9041161
25.3135325
37.6126055
38.5302133
26.6047824
25.4530419
37.9009816
38.3284559
26.3496978
24.3103589
24.8581136
38.0340554
38.632571
25.7963199
25.181548
37.9996751
38.5353515
25.5886073
25.0754238
38.1860569
38.3796513
25.2233585
25.0879958
38.4301239
38.1944938
25.0779644
23.8577843
24.829314
38.0895943
38.6450562
24.7324754
24.6163536
38.1564443
38.5608295
24.5397225
24.2104649
38.2560776
38.4812313
24.1001632
23.8188468
38.3249178
38.4229404
23.7254295
23.5424887
38.3657311
38.3818549
23.5068226
23.4523498
38.3803614
38.3575314
23.4774943
23.5278116
38.3963294
38.3461343
23.6104464
23.7685041
38.4198544
38.3376201
23.8622742
24.1315524
38.4568777
38.3144332
24.198981
24.5822619
38.5356323
38.2389157
24.4470922
24.8616516
38.7036396
38.1284863
24.8227947
23.368617
24.7939523
38.2122133
38.6543309
24.8256528
24.8261901
38.3740533
38.6242329
24.9618997
24.7545419
38.4676641
38.5477743
24.9497762
24.8895784
38.5690915
38.4202467
24.8957371
24.9714214
38.7589233
38.2579416
25.2630428
23.5275998
24.8139843
38.2398008
38.7649643
25.4187244
25.1708511
38.2502132
38.7366951
25.9962226
25.4944903
38.2647317
38.6563089
26.2306221
25.7623938
38.3330824
38.5721844
26.3139833
25.6195563
25.3677799
25.5584928
38.36399
38.5541932
26.0686182
25.4944306
38.2948505
38.6003193
25.5078285
24.8924052
38.2776515
38.5977066
25.1417579
24.5830041
38.2669557
38.5738946
25.041315
24.7043238
38.2795347
38.5054751
24.9778855
25.2915199
38.5193427
38.3731395
24.4514958
26.6122511
38.7011544
26.6046444
25.1130066
38.2554857
38.4877184
24.7985371
26.3837956
38.6343733
26.0220228
24.3921182
38.1871096
38.6059815
25.0441444
24.3131548
38.252656
38.5279454
24.468002
24.1779128
38.3350466
38.4754162
24.0811552
24.0180964
38.4115345
38.4555603
23.8857499
23.9988064
38.4829087
38.4439829
23.8921361
24.2148733
38.5307467
38.3974043
24.0908132
24.6446694
38.5807455
38.2975842
24.2710628
25.0940939
38.6855957
38.1660131
24.0348228
23.2964698
25.5672147
38.211375
38.6692375
24.5118322
25.3122216
38.3230703
38.571613
24.9910569
25.3066375
38.4027195
38.4625929
25.2726491
25.6890462
38.4358825
38.3540798
25.5168382
26.1792765
38.4490081
38.2653264
25.166172
25.179331
25.2898102
27.0301405
38.4068272
38.2751057
25.0921256
26.0501026
38.426482
38.1991276
24.6890291
25.4644812
38.4404233
38.1250355
24.1824102
25.0087559
38.4386251
38.0686334
23.8042726
24.7002155
38.4238201
38.0280269
23.5768163
24.532148
38.4070245
38.0006227
23.4542852
24.4655293
38.3976736
37.9872317
23.4034306
24.473832
38.4013771
37.9883163
23.4395008
24.5686319
38.4223496
37.9997844
23.5787369
24.7847816
38.4649312
38.0130118
23.8374306
25.14989
38.5270739
38.0204001
24.2331687
25.6755618
38.5883783
38.0337473
24.7007838
26.5374809
38.6360412
38.0320051
23.6988359
23.4417478
27.6469784
38.2151446
38.53396
25.5113791
26.9793313
38.3702574
38.3388437
26.1805018
27.5528543
38.4427251
38.2165859
25.1844241
25.2094942
25.635039
28.4122638
38.5381698
38.2897268
25.6495517
27.1641958
38.6368564
38.1385199
25.5534286
27.1458445
38.6963946
38.0671083
25.465578
27.6636337
38.6715569
38.095707
23.7592768
23.5114754
28.7656763
38.3586744
38.2709632
25.3863087
28.1181257
38.4705294
38.1136418
23.667048
23.5080612
28.9912636
38.3053553
38.1232958
25.1937289
27.5245309
38.4189512
37.9220521
25.1291004
27.7221331
38.3617576
37.8938296
23.0073605
29.1977021
37.8643891
25.9938624
26.0298644
38.476389
37.8039831
25.0116104
26.64338
38.5930281
37.7051152
24.8776603
27.1859138
38.640603
37.7569789
25.0689239
28.168839
38.5419721
37.7901276
22.890933
22.8086228
29.1432749
38.145018
38.3316674
25.3620933
27.9618105
38.1626983
38.2758464
23.5702219
29.205852
38.2984439
26.704582
26.5754054
38.2443534
38.3641364
23.4874164
29.3533807
38.5229653
25.8906351
25.5388586
38.367397
38.2911564
24.9149175
25.770257
38.5204057
38.1688029
24.4619511
25.7801196
38.5662694
38.1424367
24.3282507
25.8224707
38.5944398
38.1141758
24.460662
26.2128558
38.6134687
38.0722309
24.8380504
27.3577257
38.5268004
37.9634262
23.4544882
22.8354587
28.6876518
38.2280345
38.1357547
25.4332449
28.1721028
38.40633
37.8530106
23.5136307
22.9796024
28.8547544
38.1792174
37.6800633
25.0020933
27.4132978
38.3937941
37.2489355
24.7752712
27.439606
38.473773
36.9972111
24.6214967
27.6963746
38.4736097
36.83767
24.7461862
28.2263992
38.4511741
36.7347341
25.0629998
28.9634605
38.2453381
36.7579815
23.9100846
29.4066088
36.9426175
25.5394437
29.2657883
36.8014178
26.3580391
28.1071364
38.3368802
36.798208
25.1696458
28.4611151
38.3960456
36.8847059
24.6741816
28.002108
38.4145163
37.094023
24.3231471
27.4867506
38.4295395
37.3122042
24.230235
27.1304048
38.4497207
37.5241836
24.3049509
26.9492499
38.4699681
37.7236959
24.323935
26.9361603
38.4521084
38.0170458
23.3648355
28.5554301
38.6046376
25.7497262
24.6591602
38.4199729
38.2940432
25.1060405
25.3365488
38.5333271
38.3550038
24.8134532
25.2629355
38.6173321
38.2896877
24.2756941
25.4664151
38.7150497
27.397382
23.696736
38.2102521
38.5586053
26.4326138
24.62919
38.0797185
38.5498921
26.8178359
25.0712061
37.9833986
38.4628937
27.3522792
25.5030954
38.2075671
38.1312715
29.3417159
23.0825533
23.1955963
37.677488
38.3865501
29.5925941
25.9616756
37.8506662
38.143166
29.2810318
22.6194223
22.7069906
37.2251686
38.4184255
29.9308066
25.1382262
37.0005253
38.5684339
29.172492
24.7128331
36.63261
38.5153217
29.1660023
24.6899728
36.3636116
38.4709725
29.385935
25.0917073
36.4555317
38.3742592
29.6796578
25.6554492
36.824919
38.098014
29.3412131
23.1054574
23.164049
37.0666203
38.0343186
29.053306
23.3135858
23.3536048
37.0333043
38.4238265
29.7964928
25.3980655
36.911672
38.5803021
28.5649546
24.7926073
36.9174051
38.5528573
27.887443
24.4965047
37.0122648
38.5334665
27.537679
24.5152392
37.1216043
38.5110345
27.5276114
24.8499054
37.2636476
38.4643604
27.6189054
25.1505248
37.5531808
38.3944219
28.5553164
24.8787653
24.8365815
24.8375954
37.6139918
38.381991
28.0311002
25.6923873
37.8196167
38.5390927
26.7679317
25.0196192
37.8741085
38.5383363
26.1438897
24.7398219
37.9578422
38.4749689
25.8595424
24.805989
38.0846427
38.3308327
25.7396452
24.6697718
38.3092266
38.1334305
26.5783143
22.0292623
23.9347654
37.9659235
38.5640592
25.8167735
24.6166933
37.985806
38.5776298
25.4568994
24.1914232
38.0414755
38.5259608
25.0496439
24.0174399
38.0836728
38.4778335
24.8354768
24.0445672
38.1033571
38.4497875
24.7830104
24.2557884
38.1575762
38.3921151
24.6139924
24.61746
38.3115496
38.2637353
23.8633586
25.631505
38.620542
27.5031204
22.9407904
38.2811184
38.4544534
25.3344985
23.8921773
38.3316685
38.4398764
24.6346836
24.0254136
38.3605249
38.4487697
24.4110424
24.1058771
38.3981318
38.4452751
24.4344412
24.3811732
38.4517168
38.3818387
24.522758
24.9590083
38.5785966
38.2557566
24.2491561
26.1856984
38.724644
27.0640167
24.6086059
38.5136198
38.3874311
24.7457088
26.3163594
38.7370265
27.1304114
23.8562918
38.4650539
38.5543605
25.4313368
24.3737307
38.5380844
38.5273244
24.644924
24.390669
38.577281
38.5223454
24.3946065
24.4598395
38.6264962
38.4841756
24.4699428
24.8007434
38.7043227
38.3823302
24.7340069
25.1558518
38.797697
38.2686039
25.0033071
24.4675868
25.6829119
38.3148375
38.6156506
25.7845227
26.3253985
38.4290228
38.4153063
25.7983367
27.0748474
38.3260556
26.0836692
27.2587597
38.363064
26.2689262
26.1784888
38.4494736
38.1994359
25.5474573
26.1038991
38.5182868
38.0271949
24.9767952
26.2096397
38.5770565
37.8829415
24.4700116
26.7862605
38.601192
37.8091034
23.421434
28.5688872
38.0055585
25.9644921
25.9997167
38.4754549
37.7967298
25.4370448
26.7864228
38.6198441
37.6563057
25.2990905
27.3001874
38.6094112
37.8681379
23.3043105
23.065636
28.1633906
38.2523278
38.0938221
25.1110894
27.1221154
38.4731481
37.9292075
25.3411696
27.1515262
38.6136299
38.0023475
25.4037775
27.5221757
38.5821826
38.0800962
23.4770069
23.0563149
28.4173035
38.1796409
38.7091678
25.2771255
27.3480915
38.2467895
38.6779261
23.623828
29.3118116
38.6602257
26.8811904
25.8608263
38.2850379
38.7993814
23.8975738
28.9834388
38.7703782
26.527014
24.863714
38.3101695
38.7172247
25.4763498
25.0587287
38.4429721
38.6000683
25.0435653
25.2483154
38.5117474
38.5966437
25.0919075
25.4964588
38.5481171
38.6269229
25.3855627
26.2697218
38.5618231
38.388873
24.8870967
23.1011472
27.8141595
38.2398413
38.5769784
24.9823972
23.1485516
27.1668985
38.3108605
38.7766418
25.3756474
25.5662102
38.4477068
38.665586
25.1822218
25.2423844
38.5880348
38.5611048
24.7879093
25.2633235
38.637469
38.4528289
24.69998
25.5851621
38.6510132
38.1931815
24.3040691
21.9994705
25.8858806
38.1774585
38.7507976
24.5590812
24.9145058
38.3432161
38.595762
24.5491671
24.7094862
38.4797724
38.4828447
24.3318072
24.7249829
38.5473834
38.4067286
24.2941759
24.9868131
38.6151215
38.3035822
24.5001021
25.1178967
38.6463635
38.1439051
24.7786082
22.991119
25.1506049
38.1437115
38.5964118
24.99751
25.0215681
38.3369426
38.4215118
24.8847424
25.2195786
38.4640527
38.3441914
24.5333295
25.5436249
38.5336703
38.3001015
23.7624829
27.1652115
38.6970421
26.3886128
23.6024152
38.4659744
38.284057
25.0483062
25.1567103
38.572412
38.2152198
24.8312035
25.5846648
38.6823805
38.1109596
24.8400457
25.678833
38.7803548
37.9970437
25.9465628
22.0334123
24.6950376
38.1307901
38.3866385
25.2556876
25.107984
38.3942146
38.2669035
24.8658598
25.0798973
38.4462486
38.2138569
24.6198813
25.1461783
38.4471946
38.1477357
24.4288968
25.4401296
38.4531631
38.0916633
23.7241285
27.3862863
38.5514247
27.7251805
22.1625875
38.5984239
37.9258329
24.7704145
24.7131529
38.4237374
38.0036105
24.7685433
24.6639961
38.3894416
38.0577778
24.6686194
24.5662738
38.3901129
38.0518395
24.7076454
24.5843619
38.3900994
38.0360648
24.9253383
24.7727699
38.3798899
38.0300059
25.1549072
25.0678246
38.368429
38.0114813
25.1331291
26.7577463
38.279587
29.6469235
20.9045203
38.4904064
37.9221262
26.7925142
24.0878064
37.8769003
38.2958109
27.0417449
24.0601437
37.4906197
38.3319093
27.4140094
23.922385
36.9695509
38.3022047
27.8961351
23.8341053
36.2882101
38.2728401
28.2992611
23.784879
35.778059
38.2526803
28.5149962
23.7584901
35.5516025
38.2436762
28.5679537
23.7551229
35.5307553
38.2468553
28.4970818
23.7705781
35.6601952
38.2620401
28.3485684
23.8199822
35.892838
38.2869972
28.1752391
23.9418211
36.1778087
38.3172446
28.0357882
24.1878843
36.4347936
38.3461608
27.9387153
24.5966658
36.6741777
38.3664619
27.808995
25.1791561
37.0088217
38.3912676
27.686837
26.1479707
37.3428935
28.964731
25.6487018
37.7104095
28.9518349
24.2663906
37.7295863
38.514296
27.1457421
25.2704535
38.0648117
38.5625476
26.2983717
25.5351794
38.4064484
38.552418
25.8024727
26.0588735
38.5752336
38.3546517
25.8208783
25.553556
25.2737386
26.4671059
38.4743112
37.7941324
25.4933504
26.8368408
38.4879306
37.4733636
24.9127006
26.8123452
38.4692603
37.2106107
24.337477
26.7139232
38.4282514
36.9830551
23.9391657
26.7109393
38.3780605
36.8066638
23.7074319
26.7713775
38.3279772
36.6959025
23.5923632
26.8401214
38.2859007
36.6594807
23.5587599
26.8774107
38.2563085
36.6981689
23.573235
26.8435853
38.2383026
36.8060046
23.6006621
26.7218804
38.2302113
36.9730826
23.6110538
26.4919256
38.2278041
37.1880505
23.5858958
26.116168
38.2299409
37.4504851
23.5697993
25.7062053
38.2457494
37.7342432
23.533811
25.2177321
38.2547064
37.9856535
23.5297718
24.7514423
38.2284326
38.1790021
23.5756763
24.3805626
38.1475011
38.2584024
23.7394293
24.1757192
38.0047356
38.2797097
23.9741238
24.0561499
37.8842937
38.2962774
24.2025091
23.9808994
37.7978506
38.304196
24.432399
23.9387976
37.746117
38.3118665
24.6250901
23.9233568
37.7231907
38.3200749
24.7642339
23.9457561
37.7259541
38.3272281
24.8748923
24.0107005
37.7520769
38.3336101
24.9798219
24.1646439
37.7894773
38.3430323
25.0653616
24.3983785
37.8019993
38.3842161
25.0427804
24.6930876
37.8256317
38.4137065
23.3616479
26.6372954
38.5152096
27.4663476
23.4469403
37.9430247
38.4966282
25.6512574
24.130769
38.0495408
38.4771196
25.1347155
24.2540314
38.1606031
38.4746467
25.0369083
24.4622116
38.2421082
38.4864211
25.2659832
24.9123305
38.2975093
38.4336079
25.7095327
25.5921682
38.411368
38.199554
25.8188666
23.4550546
26.5864901
38.2373142
38.3765231
25.6328685
23.6108001
25.8960256
38.2426074
38.5660165
25.749271
25.0305638
38.2455014
38.5777471
25.2402592
24.4936047
38.304738
38.5013972
24.6395422
24.1117913
38.3269471
38.461696
24.3015877
23.8755522
38.3265808
38.4392004
24.1299889
23.7816214
38.3261409
38.4195603
24.0482893
23.7874244
38.3341975
38.4012762
24.0407195
23.8843247
38.3532622
38.3813122
24.1123874
24.0940738
38.3829169
38.3482249
24.3137196
24.4249828
38.4352681
38.2601917
24.5956156
24.6467436
38.563915
38.1153709
24.9665341
23.2215974
24.4794969
38.112733
38.5801025
25.2885025
24.8984791
38.2637853
38.467333
25.1878968
25.2177108
38.46677
38.2930682
24.523682
25.8103596
38.7061356
26.5668561
23.6165589
38.2549216
38.5250942
25.2237044
24.057293
38.3193
38.4368955
24.4851526
23.9681812
38.3442087
38.3986627
24.0287751
23.7466927
38.3570172
38.3779315
23.7276697
23.6133151
38.3688852
38.3492354
23.6068869
23.6278062
38.3637723
38.3095147
23.5706679
23.708414
38.3632682
38.2659441
23.6009223
23.8785026
38.3672547
38.2153531
23.7098553
24.1714263
38.3801148
38.1459911
23.8733661
24.5846537
38.4192875
38.0408662
23.9527061
25.1555648
38.4933402
37.9281555
23.5497999
26.4994158
38.5090006
26.3944408
23.6332192
38.2784863
37.9776441
24.7358157
24.9347672
38.352108
37.7906979
24.3078307
25.0640223
38.3434808
37.7039161
24.012745
25.0430907
38.3331901
37.6194237
23.81266
25.0442579
38.3267325
37.54948
23.6946328
25.0740286
38.3225071
37.5109807
23.6302367
25.0768292
38.3217473
37.5143402
23.5905765
25.0393478
38.3267209
37.5648168
23.5644365
24.9585408
38.3388407
37.6612736
23.5811412
24.843356
38.3570553
37.7941578
23.6736988
24.7530387
38.3805703
37.9509444
23.893391
24.7371115
38.4072018
38.1123192
24.250232
24.860242
38.4429591
38.264466
24.7255962
25.1335557
38.4908242
38.399114
25.3041516
25.4500154
38.452582
38.4362721
26.2867661
25.0300756
24.8927709
25.0178586
38.3599526
38.4884399
25.9872104
25.4580456
38.2721771
38.5094081
25.6202046
25.0675357
38.2437807
38.5392906
25.2654824
24.6523171
38.2048093
38.5385956
25.1676925
24.5430522
38.1762225
38.497503
25.3768752
24.7388004
38.1776384
38.4087316
25.8190619
24.7546554
38.2398285
38.2827491
26.9803631
23.9947211
24.0518993
38.1125054
38.4537993
26.904094
25.1639579
38.2310079
38.2506741
27.336621
23.8315755
23.8703286
37.9581783
38.5729185
26.509317
24.6632089
38.049721
38.5779164
25.8073324
24.3051376
38.0798875
38.5642454
25.43896
24.0475942
38.1169438
38.5555089
25.3244031
24.0262369
38.1366797
38.5481726
25.5355588
24.2740979
38.1385087
38.534077
26.0231426
24.8159813
38.1506118
38.4971668
26.6112017
25.4289859
38.294075
38.4283418
28.1598865
25.4591066
24.8027938
24.8037583
38.0916982
38.4329269
27.3987455
25.695477
38.0727148
38.4633044
26.7059089
25.4343277
38.0612866
38.4234688
26.2228561
25.3269514
38.1070528
38.3386889
25.6481841
25.9664815
38.1782122
28.3398412
23.0702821
37.9249042
38.4466177
26.4441649
24.2369608
37.8451934
38.5075838
25.8647351
24.2578118
37.8904644
38.4516242
25.5157566
24.3593723
37.962408
38.3779229
25.3323253
24.564676
38.0781818
38.2629345
25.2495083
24.5646683
38.2572988
38.1091313
25.6339441
23.0251033
23.7384057
37.9527289
38.5465666
25.206471
24.2806093
37.9898666
38.487871
24.8802515
24.1089964
38.0841479
38.4305983
24.4848775
23.9455074
38.1465641
38.3889106
24.1643768
23.8350446
38.1958065
38.3647985
23.9321187
23.7439025
38.2343848
38.3535746
23.7957262
23.6898777
38.2663597
38.3518365
23.7297336
23.6683588
38.293731
38.3556733
23.7256241
23.6980104
38.3158888
38.342231
23.8224459
23.8097515
38.3263932
38.3221665
24.0085163
24.1030571
38.3510167
38.2738492
24.2813157
24.4489277
38.4050221
38.1879081
24.5040489
24.5125839
38.5275851
38.0586125
24.8928848
23.1658652
24.1195519
38.0207186
38.5568303
24.8589977
24.3407891
38.0836361
38.4921258
24.8625673
24.1225968
38.1218109
38.4390878
24.6063398
23.8574707
38.1386906
38.4029569
24.3748894
23.6698861
38.1388409
38.3797096
24.2292203
23.5766143
38.1338818
38.3671357
24.1677437
23.5519011
38.1374071
38.3623378
24.1470641
23.5808987
38.1600972
38.3643973
24.1216276
23.6393219
38.2062654
38.3728047
24.08373
23.7273143
38.2752283
38.384378
24.0699512
23.8849143
38.35983
38.3816279
24.1655162
24.206895
38.4308959
38.3301283
24.4569444
24.7744942
38.4846906
38.231792
24.8858983
25.4240964
38.5401106
38.1889929
25.0754879
24.6375464
26.257204
38.3645691
38.3138303
24.8792985
24.7939021
26.2678687
38.3389676
38.3234876
25.1591989
25.8349304
38.4284186
38.2674779
24.9451761
25.5177615
38.4969971
38.2343859
24.6291411
25.4649111
38.5650009
38.1972921
24.3589319
25.7620052
38.5991945
38.2047815
23.513964
26.9532853
38.658984
25.5434614
24.6871728
38.3890089
38.5568389
24.8430738
24.7819012
38.4859184
38.5353483
24.5603991
24.8297467
38.5629743
38.5467517
24.5744611
25.074342
38.6181359
38.5650571
24.7442949
25.8867091
38.6608119
38.5577252
24.4846439
27.6546009
38.9116434
26.9851354
25.8164255
38.457859
38.6786239
26.6124285
25.0271666
27.6309367
38.627169
38.5956151
25.9453749
25.6604491
26.8797316
38.4127719
38.8669418
26.4628661
26.4848049
38.5105459
38.7551572
26.5292639
26.3599384
38.5367032
38.6958989
26.0473873
25.7290854
25.5865114
26.4774302
38.5616761
38.7275358
25.5750834
25.4957511
38.5702424
38.7095716
25.2020269
24.9619592
38.5700434
38.6758313
24.9505265
24.8002837
38.5645877
38.624136
25.0382846
25.0720172
38.5580301
38.5281261
25.3448853
25.5383548
38.6019737
38.3586143
25.5365585
24.3996339
26.0829521
38.4108921
38.4598203
25.1312404
24.5326867
25.5574471
38.3503007
38.5894997
25.0844278
24.9798621
38.3774061
38.5751434
24.7818327
24.4508632
38.4379035
38.5421482
24.3088178
24.0792486
38.483123
38.510478
24.0327425
23.9348445
38.5028702
38.4782397
23.9788868
23.9917946
38.5071124
38.4565331
24.1216254
24.244082
38.5094484
38.4368254
24.461564
24.7671242
38.5208276
38.3945386
24.7237956
25.9305899
38.5984586
38.312923
24.5516352
27.5142366
38.5787434
26.7116163
26.7481158
38.508367
26.2583608
26.192291
38.5311178
38.2632445
25.6954996
26.2077866
38.6561895
38.1388784
24.6861605
23.846786
26.1182103
38.2305593
38.4199263
24.6502057
25.4490827
38.3272965
38.3164462
24.5876996
24.9905211
38.4022663
38.2292125
24.1962976
24.7119063
38.4522627
38.1727473
23.9463286
24.6217113
38.4822081
38.1509689
23.8845491
24.6974742
38.5072721
38.151574
24.0006484
24.9392335
38.5351981
38.1555577
24.3139851
25.3736231
38.5730743
38.1558864
24.6447403
25.9707493
38.6273079
38.1687446
24.1073531
23.6881755
26.8673706
38.2929257
38.5332012
25.0972783
26.8082055
38.5146919
38.3563752
24.5214904
24.132555
26.9443905
38.318723
38.7457275
25.365963
26.3683166
38.3996897
38.7178641
25.4904496
26.6904642
38.4805091
38.6663829
24.2309585
28.2996642
38.7967766
26.3112645
27.1067559
38.8120302
26.0105708
25.3063593
38.4684284
38.7052398
25.263703
25.0830273
38.4823082
38.6138695
24.887452
25.1285258
38.4857261
38.5785657
24.466324
25.5854074
38.4911841
38.5081343
23.0655876
27.2425351
38.7750654
25.6840921
23.8245359
38.2636297
38.6352669
24.7472849
24.0362986
38.3189463
38.5125737
24.3747239
24.1456014
38.3566092
38.4536357
24.2199522
24.213343
38.3646347
38.444028
24.2180344
24.3871568
38.3757867
38.4695517
24.1441265
25.1364642
38.3878428
38.4329645
22.899675
27.2526889
38.7008049
25.5562667
23.7413737
38.2340629
38.5829372
24.6551318
24.1316528
38.3435759
38.4693737
24.3038892
24.3487583
38.4341914
38.4253841
24.1629163
24.5331568
38.4838041
38.3923794
24.2495851
24.9681643
38.4983848
38.3082803
24.3702189
25.7035803
38.5305289
38.0877086
23.4414598
22.1718841
26.1430242
38.0979275
38.5940058
24.3627091
25.0997517
38.2552616
38.4396285
24.4785145
24.8458927
38.3884879
38.3307941
24.2238895
24.7888579
38.458717
38.2734845
24.1251847
24.9477814
38.5067354
38.2252731
24.208744
25.331453
38.5439839
38.1613464
24.3832897
25.9086693
38.5518961
38.0322214
23.5059523
22.2652952
26.3048462
38.1144257
38.4772902
24.5518473
25.375551
38.2940468
38.2821743
24.7026569
25.4063044
38.4204532
38.1770617
24.5467977
25.5931627
38.4676042
38.141359
24.3852307
26.153322
38.4697001
38.1499837
23.3901036
28.4573509
38.4842648
25.3689653
24.7666443
38.3270811
38.1494016
24.9851978
25.7218389
38.4727148
37.9792926
24.6738962
26.5548554
38.4611404
38.0166539
23.560324
28.9665566
38.471557
25.3774829
24.8859751
38.3454605
37.9758893
24.902793
25.9628271
38.5258519
37.7772511