/*--------------------------------*- C++ -*----------------------------------*\
| =========                 |                                                 |
| \\      /  F ield         | OpenFOAM: The Open Source CFD Toolbox           |
|  \\    /   O peration     | Version:  2306                                  |
|   \\  /    A nd           | Website:  www.openfoam.com                      |
|    \\/     M anipulation  |                                                 |
\*---------------------------------------------------------------------------*/
FoamFile
{
    version     2.0;
    format      ascii;
    arch        "LSB;label=32;scalar=64";
    class       volVectorField;
    location    "2e-05";
    object      U;
}
// * * * * * * * * * * * * * * * * * * * * * * * * * * * * * * * * * * * * * //

dimensions      [0 1 -1 0 0 0 0];

internalField   nonuniform List<vector> 
3810
(
(0.322684746 0 0)
(0.313063845 0 0)
(0.299746391 0 0)
(0.290888433 0 0)
(0.286990624 0 0)
(0.279761442 0 0)
(0.266837179 0 0)
(0.256229945 0 0)
(0.250944294 0 0)
(0.243242183 0 0)
(0.230189728 0 0)
(0.219503307 0 0)
(0.213647375 0 0)
(0.205267329 0 0)
(0.192224335 0 0)
(0.181551388 0 0)
(0.174739798 0 0)
(0.165690907 0 0)
(0.15312774 0 0)
(0.142700914 0 0)
(0.135340464 0 0)
(0.125909002 0 0)
(0.113824317 0 0)
(0.103078846 0 0)
(0.0949309595 0 0)
(0.0859137483 0 0)
(0.0804661823 0 0)
(0.0680590103 0 0)
(0.0490810683 0 0)
(0.0413624083 0 0)
(0.0269407103 0 0)
(0.0097831284 0 0)
(0.000943925044 0 0)
(-0.00827916069 0 0)
(-0.0183760789 0 0)
(-0.0291671841 0 0)
(-0.0385203024 0 0)
(-0.0487636642 0 0)
(-0.062137153 0 0)
(-0.0738727293 0 0)
(-0.0818124219 0 0)
(-0.0918467131 0 0)
(-0.106553059 0 0)
(-0.118919551 0 0)
(-0.126608525 0 0)
(-0.137530801 0 0)
(-0.153628789 0 0)
(-0.165920186 0 0)
(-0.172326218 0 0)
(-0.177399194 0 0)
(-0.185958982 0 0)
(-0.200105015 0 0)
(-0.210960338 0 0)
(-0.216262579 0 0)
(-0.224656176 0 0)
(-0.238704159 0 0)
(-0.247528281 0 0)
(-0.248214227 0 0)
(-0.253950191 0 0)
(-0.267489303 0 0)
(-0.273932054 0 0)
(-0.271183598 0 0)
(-0.273615447 0 0)
(-0.284099374 0 0)
(-0.289761135 0 0)
(-0.290890017 0 0)
(-0.293394075 0 0)
(-0.295450804 0 0)
(-0.300930493 0 0)
(-0.301822859 0 0)
(-0.297414667 0 0)
(-0.300930015 0 0)
(-0.311239407 0 0)
(-0.312975329 0 0)
(-0.306772884 0 0)
(-0.309265748 0 0)
(-0.319876496 0 0)
(-0.321743124 0 0)
(-0.315597004 0 0)
(-0.318546855 0 0)
(-0.32973541 0 0)
(-0.33192941 0 0)
(-0.326133541 0 0)
(-0.329933987 0 0)
(-0.342298217 0 0)
(-0.344858131 0 0)
(-0.338837967 0 0)
(-0.342489745 0 0)
(-0.355569887 0 0)
(-0.361326198 0 0)
(-0.364659192 0 0)
(-0.369387518 0 0)
(-0.368279067 0 0)
(-0.372589131 0 0)
(-0.374901603 0 0)
(-0.373037326 0 0)
(-0.381097947 0 0)
(-0.396182297 0 0)
(-0.400703081 0 0)
(-0.395015489 0 0)
(-0.399499242 0 0)
(-0.413489892 0 0)
(-0.416790213 0 0)
(-0.410211414 0 0)
(-0.414263361 0 0)
(-0.427436158 0 0)
(-0.429246806 0 0)
(-0.42168938 0 0)
(-0.425395539 0 0)
(-0.437597123 0 0)
(-0.438214703 0 0)
(-0.430640787 0 0)
(-0.434906056 0 0)
(-0.446690103 0 0)
(-0.446007146 0 0)
(-0.437699065 0 0)
(-0.440761595 0 0)
(-0.452462562 0 0)
(-0.456484189 0 0)
(-0.46453732 0 0)
(-0.474178729 0 0)
(-0.468127399 0 0)
(-0.468146786 0 0)
(-0.4713201 0 0)
(-0.473728168 0 0)
(-0.487388265 0 0)
(-0.504302718 0 0)
(-0.51145549 0 0)
(-0.513624411 0 0)
(-0.524230466 0 0)
(-0.541298818 0 0)
(-0.552367232 0 0)
(-0.573772732 0 0)
(-0.597070359 0 0)
(-0.589881532 0 0)
(-0.593818447 0 0)
(-0.607351734 0 0)
(-0.616421117 0 0)
(-0.631726759 0 0)
(-0.651231991 0 0)
(-0.663566863 0 0)
(-0.672350765 0 0)
(-0.686932136 0 0)
(-0.704229568 0 0)
(-0.716743957 0 0)
(-0.727550835 0 0)
(-0.739940456 0 0)
(-0.7516334 0 0)
(-0.759472231 0 0)
(-0.770393812 0 0)
(-0.780289558 0 0)
(-0.779751777 0 0)
(-0.775844548 0 0)
(-0.781415873 0 0)
(-0.778592574 0 0)
(-0.750359883 0 0)
(-0.712820983 0 0)
(-0.715658672 0 0)
(-0.717712983 0 0)
(-0.668182682 0 0)
(-0.602468759 0 0)
(-0.5858908 0 0)
(-0.576934023 0 0)
(-0.48710002 0 0)
(-0.390575738 0 0)
(-0.269286668 0 0)
(-0.236611636 0 0)
(-0.210535572 0 0)
(-0.0821064053 0 0)
(0.067469921 0 0)
(0.137940769 0 0)
(0.192072312 0 0)
(0.323680937 0 0)
(0.48944045 0 0)
(0.587409219 0 0)
(0.655041709 0 0)
(0.761894671 0 0)
(0.902471568 0 0)
(1.0548733 0 0)
(1.1367458 0 0)
(1.22261844 0 0)
(1.36511683 0 0)
(1.49610739 0 0)
(1.55815955 0 0)
(1.6382705 0 0)
(1.77087695 0 0)
(1.8702728 0 0)
(1.90695725 0 0)
(1.97640337 0 0)
(2.08897738 0 0)
(2.14872272 0 0)
(2.15423731 0 0)
(2.2049883 0 0)
(2.29074238 0 0)
(2.31285482 0 0)
(2.30272777 0 0)
(2.30721254 0 0)
(2.31689204 0 0)
(2.34283484 0 0)
(2.29001457 0 0)
(2.2356615 0 0)
(2.24978474 0 0)
(2.27571101 0 0)
(2.21820228 0 0)
(2.13538831 0 0)
(2.12493599 0 0)
(2.12681174 0 0)
(2.0463145 0 0)
(1.95021708 0 0)
(1.92755562 0 0)
(1.91222781 0 0)
(1.8195538 0 0)
(1.71878317 0 0)
(1.68829627 0 0)
(1.66118354 0 0)
(1.56539053 0 0)
(1.46791349 0 0)
(1.43433137 0 0)
(1.40079405 0 0)
(1.30924206 0 0)
(1.22154083 0 0)
(1.1890942 0 0)
(1.15330445 0 0)
(1.0702707 0 0)
(0.995221249 0 0)
(0.964994346 0 0)
(0.927293538 0 0)
(0.852249344 0 0)
(0.789307833 0 0)
(0.760863877 0 0)
(0.719901374 0 0)
(0.651931774 0 0)
(0.602143399 0 0)
(0.5833789 0 0)
(0.544716756 0 0)
(0.489367223 0 0)
(0.445616465 0 0)
(0.403468035 0 0)
(0.367201649 0 0)
(0.333925865 0 0)
(0.295968567 0 0)
(0.265659689 0 0)
(0.235413452 0 0)
(0.197329879 0 0)
(0.163266738 0 0)
(0.140527995 0 0)
(0.120452562 0 0)
(0.111141805 0 0)
(0.0749562009 0 0)
(0.0412953558 0 0)
(0.0255942152 0 0)
(0.00744411975 0 0)
(-0.00305332513 0 0)
(-0.0292814524 0 0)
(-0.0582171648 0 0)
(-0.0757269401 0 0)
(-0.0945561083 0 0)
(-0.119373695 0 0)
(-0.145862927 0 0)
(-0.164656032 0 0)
(-0.178626759 0 0)
(-0.199770922 0 0)
(-0.226446842 0 0)
(-0.244988845 0 0)
(-0.254983689 0 0)
(-0.264559887 0 0)
(-0.280430966 0 0)
(-0.302446173 0 0)
(-0.317107847 0 0)
(-0.323287463 0 0)
(-0.335366266 0 0)
(-0.355672809 0 0)
(-0.366436323 0 0)
(-0.364924347 0 0)
(-0.372092103 0 0)
(-0.3902907 0 0)
(-0.397049744 0 0)
(-0.390629788 0 0)
(-0.394632362 0 0)
(-0.410136571 0 0)
(-0.412806741 0 0)
(-0.402865197 0 0)
(-0.40510485 0 0)
(-0.418656594 0 0)
(-0.418131095 0 0)
(-0.40595802 0 0)
(-0.407641192 0 0)
(-0.420398972 0 0)
(-0.418394451 0 0)
(-0.405899265 0 0)
(-0.408687581 0 0)
(-0.422646915 0 0)
(-0.421813071 0 0)
(-0.41118651 0 0)
(-0.416585274 0 0)
(-0.433739615 0 0)
(-0.436543699 0 0)
(-0.429157073 0 0)
(-0.437554462 0 0)
(-0.458583271 0 0)
(-0.465691956 0 0)
(-0.461107663 0 0)
(-0.471393177 0 0)
(-0.495367905 0 0)
(-0.505786355 0 0)
(-0.50295243 0 0)
(-0.513401334 0 0)
(-0.53783626 0 0)
(-0.55092645 0 0)
(-0.554715028 0 0)
(-0.569772398 0 0)
(-0.587939463 0 0)
(-0.59779238 0 0)
(-0.607805063 0 0)
(-0.630544472 0 0)
(-0.638649361 0 0)
(-0.640175476 0 0)
(-0.662611534 0 0)
(-0.676667279 0 0)
(-0.674457638 0 0)
(-0.688728672 0 0)
(-0.724464115 0 0)
(-0.745605072 0 0)
(-0.745297949 0 0)
(-0.760789443 0 0)
(-0.799748277 0 0)
(-0.825189461 0 0)
(-0.827331033 0 0)
(-0.845191509 0 0)
(-0.889090297 0 0)
(-0.9183396 0 0)
(-0.920061959 0 0)
(-0.934475036 0 0)
(-0.976876618 0 0)
(-1.00979756 0 0)
(-1.03026672 0 0)
(-1.0592994 0 0)
(-1.07290216 0 0)
(-1.10260247 0 0)
(-1.13103578 0 0)
(-1.15284757 0 0)
(-1.18565721 0 0)
(-1.20068566 0 0)
(-1.23170419 0 0)
(-1.25609459 0 0)
(-1.25285027 0 0)
(-1.26956085 0 0)
(-1.31877075 0 0)
(-1.34702193 0 0)
(-1.33967084 0 0)
(-1.35442959 0 0)
(-1.40418983 0 0)
(-1.43001018 0 0)
(-1.41928741 0 0)
(-1.43251243 0 0)
(-1.4803603 0 0)
(-1.50093924 0 0)
(-1.49096273 0 0)
(-1.49764832 0 0)
(-1.51466637 0 0)
(-1.53180049 0 0)
(-1.54112731 0 0)
(-1.56678141 0 0)
(-1.56983552 0 0)
(-1.53555883 0 0)
(-1.5308871 0 0)
(-1.55492562 0 0)
(-1.54492678 0 0)
(-1.50515874 0 0)
(-1.48766015 0 0)
(-1.49593834 0 0)
(-1.48504424 0 0)
(-1.47634769 0 0)
(-1.48227837 0 0)
(-1.45847177 0 0)
(-1.44195849 0 0)
(-1.41213091 0 0)
(-1.36747416 0 0)
(-1.35236429 0 0)
(-1.3498654 0 0)
(-1.31514317 0 0)
(-1.26806365 0 0)
(-1.24664212 0 0)
(-1.2321974 0 0)
(-1.18957599 0 0)
(-1.14762219 0 0)
(-1.11856063 0 0)
(-1.07253403 0 0)
(-1.0449271 0 0)
(-1.0182535 0 0)
(-0.978374936 0 0)
(-0.92761009 0 0)
(-0.875476034 0 0)
(-0.828761917 0 0)
(-0.767496522 0 0)
(-0.695025134 0 0)
(-0.645368338 0 0)
(-0.592807963 0 0)
(-0.493695511 0 0)
(-0.424047172 0 0)
(-0.385204219 0 0)
(-0.284870988 0 0)
(-0.145551424 0 0)
(-0.0925800458 0 0)
(-0.0498697792 0 0)
(0.0869642253 0 0)
(0.250811461 0 0)
(0.335427778 0 0)
(0.401446555 0 0)
(0.549614999 0 0)
(0.728947453 0 0)
(0.822509375 0 0)
(0.902755649 0 0)
(1.06491056 0 0)
(1.24464052 0 0)
(1.33422538 0 0)
(1.42177835 0 0)
(1.58991577 0 0)
(1.75720125 0 0)
(1.83237154 0 0)
(1.91640477 0 0)
(2.07415438 0 0)
(2.20987141 0 0)
(2.26284374 0 0)
(2.34859102 0 0)
(2.47457762 0 0)
(2.55238686 0 0)
(2.5882621 0 0)
(2.69050866 0 0)
(2.77410147 0 0)
(2.77259227 0 0)
(2.82304722 0 0)
(2.94093585 0 0)
(2.99512783 0 0)
(2.97489163 0 0)
(3.01887535 0 0)
(3.11760107 0 0)
(3.12922999 0 0)
(3.07501839 0 0)
(3.09747069 0 0)
(3.16196014 0 0)
(3.12317114 0 0)
(3.03240387 0 0)
(3.03021369 0 0)
(3.05851081 0 0)
(2.97619261 0 0)
(2.85703998 0 0)
(2.83287038 0 0)
(2.82820443 0 0)
(2.71413326 0 0)
(2.57788757 0 0)
(2.53681272 0 0)
(2.50607041 0 0)
(2.37498515 0 0)
(2.23442776 0 0)
(2.18336153 0 0)
(2.13611884 0 0)
(2.00228248 0 0)
(1.86845155 0 0)
(1.81279888 0 0)
(1.7567684 0 0)
(1.63372865 0 0)
(1.52683601 0 0)
(1.46637418 0 0)
(1.36824244 0 0)
(1.29129504 0 0)
(1.19290215 0 0)
(1.10140271 0 0)
(1.06199794 0 0)
(1.01979279 0 0)
(0.936684023 0 0)
(0.859471702 0 0)
(0.82509598 0 0)
(0.791821117 0 0)
(0.726908393 0 0)
(0.667735161 0 0)
(0.643676522 0 0)
(0.620639286 0 0)
(0.572987467 0 0)
(0.53363428 0 0)
(0.511090628 0 0)
(0.479450501 0 0)
(0.447608866 0 0)
(0.434153208 0 0)
(0.422989019 0 0)
(0.397585069 0 0)
(0.373881045 0 0)
(0.366677386 0 0)
(0.36218306 0 0)
(0.345074033 0 0)
(0.327908279 0 0)
(0.324775816 0 0)
(0.324606869 0 0)
(0.313442773 0 0)
(0.301004 0 0)
(0.300952774 0 0)
(0.304552122 0 0)
(0.297734999 0 0)
(0.289001047 0 0)
(0.286818051 0 0)
(0.287391055 0 0)
(0.283525775 0 0)
(0.281673007 0 0)
(0.281906905 0 0)
(0.2760948 0 0)
(0.273945874 0 0)
(0.276745145 0 0)
(0.28141193 0 0)
(0.279084896 0 0)
(0.273160823 0 0)
(0.275213899 0 0)
(0.280626059 0 0)
(0.277795435 0 0)
(0.271296085 0 0)
(0.272959708 0 0)
(0.277629789 0 0)
(0.273677241 0 0)
(0.266584924 0 0)
(0.268011006 0 0)
(0.271780384 0 0)
(0.266703214 0 0)
(0.258863319 0 0)
(0.25779499 0 0)
(0.25802032 0 0)
(0.251944511 0 0)
(0.249106573 0 0)
(0.25269859 0 0)
(0.244868551 0 0)
(0.237747879 0 0)
(0.229621844 0 0)
(0.22101673 0 0)
(0.215896441 0 0)
(0.210554602 0 0)
(0.201471362 0 0)
(0.192311494 0 0)
(0.188714015 0 0)
(0.18197224 0 0)
(0.169760869 0 0)
(0.163919145 0 0)
(0.164298511 0 0)
(0.154203279 0 0)
(0.143789826 0 0)
(0.133870932 0 0)
(0.124300584 0 0)
(0.11771087 0 0)
(0.110767814 0 0)
(0.101619983 0 0)
(0.0930634975 0 0)
(0.0886000633 0 0)
(0.0832129034 0 0)
(0.0745393696 0 0)
(0.0671435422 0 0)
(0.0616695906 0 0)
(0.0556061923 0 0)
(0.0485047535 0 0)
(0.0422872449 0 0)
(0.0375878795 0 0)
(0.0327938203 0 0)
(0.0274252887 0 0)
(0.0254368386 0 0)
(0.0177496454 0 0)
(0.00911173322 0 0)
(0.00858804977 0 0)
(0.00492663386 0 0)
(0.000329328328 0 0)
(-0.00145862975 0 0)
(-0.00379909105 0 0)
(-0.0075655815 0 0)
(-0.0106016058 0 0)
(-0.0113392761 0 0)
(-0.0117030168 0 0)
(-0.0161489353 0 0)
(-0.0201014932 0 0)
(-0.0213278826 0 0)
(-0.0238424653 0 0)
(-0.0268437163 0 0)
(-0.0273853302 0 0)
(-0.0275446916 0 0)
(-0.0303374654 0 0)
(-0.0338205958 0 0)
(-0.0346462992 0 0)
(-0.0346899343 0 0)
(-0.0372896079 0 0)
(-0.0408109092 0 0)
(-0.0418142059 0 0)
(-0.0417576041 0 0)
(-0.0441491649 0 0)
(-0.0477426785 0 0)
(-0.0489436534 0 0)
(-0.0488171384 0 0)
(-0.0511495579 0 0)
(-0.0550935291 0 0)
(-0.0567616573 0 0)
(-0.056813939 0 0)
(-0.0593434613 0 0)
(-0.0639897967 0 0)
(-0.0665475774 0 0)
(-0.0670942942 0 0)
(-0.0700516279 0 0)
(-0.0757351652 0 0)
(-0.0795621477 0 0)
(-0.0808070652 0 0)
(-0.0842763497 0 0)
(-0.0911414674 0 0)
(-0.0963752844 0 0)
(-0.0983279436 0 0)
(-0.102236346 0 0)
(-0.110198463 0 0)
(-0.116830493 0 0)
(-0.119540231 0 0)
(-0.123787773 0 0)
(-0.132495091 0 0)
(-0.140054464 0 0)
(-0.142798103 0 0)
(-0.148106695 0 0)
(-0.158193377 0 0)
(-0.166302695 0 0)
(-0.172211018 0 0)
(-0.181893424 0 0)
(-0.191238748 0 0)
(-0.194095358 0 0)
(-0.198894076 0 0)
(-0.211437402 0 0)
(-0.222182572 0 0)
(-0.224995265 0 0)
(-0.230559392 0 0)
(-0.243208456 0 0)
(-0.253691873 0 0)
(-0.261072909 0 0)
(-0.274345334 0 0)
(-0.287227942 0 0)
(-0.29045625 0 0)
(-0.296715178 0 0)
(-0.314501521 0 0)
(-0.329711874 0 0)
(-0.333676922 0 0)
(-0.341374471 0 0)
(-0.358865843 0 0)
(-0.373401133 0 0)
(-0.383554152 0 0)
(-0.402727484 0 0)
(-0.420632694 0 0)
(-0.422999912 0 0)
(-0.429508079 0 0)
(-0.453588403 0 0)
(-0.473202872 0 0)
(-0.474757412 0 0)
(-0.480867564 0 0)
(-0.505395775 0 0)
(-0.524469799 0 0)
(-0.524153812 0 0)
(-0.529652853 0 0)
(-0.554577667 0 0)
(-0.572585723 0 0)
(-0.570318328 0 0)
(-0.575474225 0 0)
(-0.600331565 0 0)
(-0.616828012 0 0)
(-0.614150287 0 0)
(-0.618687323 0 0)
(-0.635177618 0 0)
(-0.648001445 0 0)
(-0.655764775 0 0)
(-0.675648705 0 0)
(-0.689300401 0 0)
(-0.681318572 0 0)
(-0.683662783 0 0)
(-0.707978575 0 0)
(-0.720520969 0 0)
(-0.710846838 0 0)
(-0.712397104 0 0)
(-0.734710845 0 0)
(-0.745458833 0 0)
(-0.74117093 0 0)
(-0.745802345 0 0)
(-0.753993007 0 0)
(-0.756391973 0 0)
(-0.75779918 0 0)
(-0.764351992 0 0)
(-0.760539993 0 0)
(-0.757924577 0 0)
(-0.77493896 0 0)
(-0.779204553 0 0)
(-0.768583285 0 0)
(-0.771020592 0 0)
(-0.793233818 0 0)
(-0.795455238 0 0)
(-0.787831101 0 0)
(-0.807728516 0 0)
(-0.811561941 0 0)
(-0.793989512 0 0)
(-0.79629114 0 0)
(-0.819502686 0 0)
(-0.821445986 0 0)
(-0.802166946 0 0)
(-0.803731856 0 0)
(-0.825404407 0 0)
(-0.824666562 0 0)
(-0.803497782 0 0)
(-0.804239844 0 0)
(-0.824275291 0 0)
(-0.820600382 0 0)
(-0.797465825 0 0)
(-0.797321233 0 0)
(-0.81517876 0 0)
(-0.808489389 0 0)
(-0.784097493 0 0)
(-0.78348882 0 0)
(-0.79923321 0 0)
(-0.789161509 0 0)
(-0.762449626 0 0)
(-0.756046286 0 0)
(-0.76482377 0 0)
(-0.756933574 0 0)
(-0.743779719 0 0)
(-0.740234428 0 0)
(-0.73681557 0 0)
(-0.733300939 0 0)
(-0.714124274 0 0)
(-0.688116893 0 0)
(-0.685968484 0 0)
(-0.692754539 0 0)
(-0.674721328 0 0)
(-0.646424511 0 0)
(-0.641265101 0 0)
(-0.644720099 0 0)
(-0.625335588 0 0)
(-0.599264646 0 0)
(-0.594497315 0 0)
(-0.595845426 0 0)
(-0.576609039 0 0)
(-0.553002571 0 0)
(-0.545602437 0 0)
(-0.542915316 0 0)
(-0.529563503 0 0)
(-0.521454901 0 0)
(-0.519219591 0 0)
(-0.505081614 0 0)
(-0.491583044 0 0)
(-0.479677798 0 0)
(-0.475701952 0 0)
(-0.481136214 0 0)
(-0.472806761 0 0)
(-0.454873263 0 0)
(-0.442987226 0 0)
(-0.430222717 0 0)
(-0.419247406 0 0)
(-0.414428877 0 0)
(-0.404044708 0 0)
(-0.39054555 0 0)
(-0.382849181 0 0)
(-0.374963783 0 0)
(-0.354937123 0 0)
(-0.327525708 0 0)
(-0.320289365 0 0)
(-0.320804048 0 0)
(-0.282599601 0 0)
(-0.245252139 0 0)
(-0.198454036 0 0)
(-0.188782446 0 0)
(-0.184063251 0 0)
(-0.119018726 0 0)
(-0.0382688917 0 0)
(-0.0151216157 0 0)
(0.00223454796 0 0)
(0.084544686 0 0)
(0.193531742 0 0)
(0.258393653 0 0)
(0.301030731 0 0)
(0.383973047 0 0)
(0.477694523 0 0)
(0.590336832 0 0)
(0.674295038 0 0)
(0.737139446 0 0)
(0.822183986 0 0)
(0.928680459 0 0)
(1.04077666 0 0)
(1.10469417 0 0)
(1.1777156 0 0)
(1.29339297 0 0)
(1.39334687 0 0)
(1.43839232 0 0)
(1.50308003 0 0)
(1.60856327 0 0)
(1.67998768 0 0)
(1.7011193 0 0)
(1.75522614 0 0)
(1.84287485 0 0)
(1.88044185 0 0)
(1.87543654 0 0)
(1.91500911 0 0)
(1.98042979 0 0)
(1.98802839 0 0)
(1.97556161 0 0)
(1.98319475 0 0)
(1.95535246 0 0)
(1.95156074 0 0)
(1.91336509 0 0)
(1.86282743 0 0)
(1.87123115 0 0)
(1.87787806 0 0)
(1.81227944 0 0)
(1.73488101 0 0)
(1.71896398 0 0)
(1.70291801 0 0)
(1.62132944 0 0)
(1.5458487 0 0)
(1.50776971 0 0)
(1.42764794 0 0)
(1.36665295 0 0)
(1.27902815 0 0)
(1.19620254 0 0)
(1.16632794 0 0)
(1.12544819 0 0)
(1.03538127 0 0)
(0.952823692 0 0)
(0.916765887 0 0)
(0.874886529 0 0)
(0.794277745 0 0)
(0.721862235 0 0)
(0.685909073 0 0)
(0.645000238 0 0)
(0.577355261 0 0)
(0.521264948 0 0)
(0.487638682 0 0)
(0.438895609 0 0)
(0.397863929 0 0)
(0.350419026 0 0)
(0.3078723 0 0)
(0.284224467 0 0)
(0.258512289 0 0)
(0.221400554 0 0)
(0.188672497 0 0)
(0.169337431 0 0)
(0.150043455 0 0)
(0.123997305 0 0)
(0.100996554 0 0)
(0.0865205109 0 0)
(0.0726147035 0 0)
(0.0556340096 0 0)
(0.0405150917 0 0)
(0.0288794866 0 0)
(0.0185453796 0 0)
(0.00918891141 0 0)
(5.28256662e-05 0 0)
(-0.00866454657 0 0)
(-0.0148070751 0 0)
(-0.0195234447 0 0)
(-0.0246370394 0 0)
(-0.029798112 0 0)
(-0.0329883753 0 0)
(-0.0345428557 0 0)
(-0.0368209361 0 0)
(-0.0398379487 0 0)
(-0.0408391868 0 0)
(-0.0400506591 0 0)
(-0.0405017582 0 0)
(-0.0421084119 0 0)
(-0.0412999138 0 0)
(-0.0387414983 0 0)
(-0.0383330509 0 0)
(-0.0393588403 0 0)
(-0.0369454124 0 0)
(-0.0325698427 0 0)
(-0.0312550129 0 0)
(-0.0328509641 0 0)
(-0.0312037362 0 0)
(-0.0264621295 0 0)
(-0.0247090178 0 0)
(-0.0212730156 0 0)
(-0.0150405587 0 0)
(-0.0103527992 0 0)
(-0.00414609571 0 0)
(-0.00408174943 0 0)
(-0.00545607993 0 0)
(-0.000477323086 0 0)
(0.00650324147 0 0)
(0.00462584764 0 0)
(0.00284936599 0 0)
(0.0114137286 0 0)
(0.0173450054 0 0)
(0.0160868697 0 0)
(0.0138648038 0 0)
(0.0213198938 0 0)
(0.0300336836 0 0)
(0.0297441813 0 0)
(0.0260448169 0 0)
(0.0323134637 0 0)
(0.0437581669 0 0)
(0.0475133005 0 0)
(0.0482390939 0 0)
(0.0573932225 0 0)
(0.0664433285 0 0)
(0.0774128255 0 0)
(0.0804414013 0 0)
(0.0811833258 0 0)
(0.0949025801 0 0)
(0.111084537 0 0)
(0.113312821 0 0)
(0.114261137 0 0)
(0.130638881 0 0)
(0.149430993 0 0)
(0.153393779 0 0)
(0.156347977 0 0)
(0.175366912 0 0)
(0.197516702 0 0)
(0.209467109 0 0)
(0.217880543 0 0)
(0.231675466 0 0)
(0.245108923 0 0)
(0.259692977 0 0)
(0.27613837 0 0)
(0.285569684 0 0)
(0.298823496 0 0)
(0.322305397 0 0)
(0.339758651 0 0)
(0.344741978 0 0)
(0.357150357 0 0)
(0.380415283 0 0)
(0.394050033 0 0)
(0.396187313 0 0)
(0.408595754 0 0)
(0.429948553 0 0)
(0.438095162 0 0)
(0.436317928 0 0)
(0.447778418 0 0)
(0.466089201 0 0)
(0.467948001 0 0)
(0.463121404 0 0)
(0.46578911 0 0)
(0.47011749 0 0)
(0.465208606 0 0)
(0.462325792 0 0)
(0.464043137 0 0)
(0.453451108 0 0)
(0.444574286 0 0)
(0.447773433 0 0)
(0.449746413 0 0)
(0.434956987 0 0)
(0.421609112 0 0)
(0.413712939 0 0)
(0.395721492 0 0)
(0.380624672 0 0)
(0.377767456 0 0)
(0.371003849 0 0)
(0.349279303 0 0)
(0.328031839 0 0)
(0.320555955 0 0)
(0.31099947 0 0)
(0.28776075 0 0)
(0.265939168 0 0)
(0.255633064 0 0)
(0.242944499 0 0)
(0.219779816 0 0)
(0.198974179 0 0)
(0.186979239 0 0)
(0.17191896 0 0)
(0.149193398 0 0)
(0.129480481 0 0)
(0.114398446 0 0)
(0.0962924619 0 0)
(0.0750345497 0 0)
(0.0570733982 0 0)
(0.0392947733 0 0)
(0.01947538 0 0)
(0.00171178575 0 0)
(-0.0154083267 0 0)
(-0.0328601972 0 0)
(-0.0524071251 0 0)
(-0.0710311476 0 0)
(-0.0861239129 0 0)
(-0.102453961 0 0)
(-0.12350281 0 0)
(-0.141701163 0 0)
(-0.15286227 0 0)
(-0.163754082 0 0)
(-0.177893172 0 0)
(-0.200457908 0 0)
(-0.220731305 0 0)
(-0.230401671 0 0)
(-0.241078769 0 0)
(-0.261744714 0 0)
(-0.281047102 0 0)
(-0.289021263 0 0)
(-0.298142932 0 0)
(-0.319001011 0 0)
(-0.33756534 0 0)
(-0.342864304 0 0)
(-0.350423165 0 0)
(-0.371368072 0 0)
(-0.389351926 0 0)
(-0.393889171 0 0)
(-0.402848785 0 0)
(-0.425072981 0 0)
(-0.439436111 0 0)
(-0.443118012 0 0)
(-0.455267409 0 0)
(-0.468102145 0 0)
(-0.478550385 0 0)
(-0.498237606 0 0)
(-0.512591205 0 0)
(-0.511254368 0 0)
(-0.516637801 0 0)
(-0.538379688 0 0)
(-0.552134908 0 0)
(-0.547856714 0 0)
(-0.551576178 0 0)
(-0.573014613 0 0)
(-0.584225475 0 0)
(-0.576024196 0 0)
(-0.57765132 0 0)
(-0.597760569 0 0)
(-0.605512708 0 0)
(-0.593348451 0 0)
(-0.592867307 0 0)
(-0.610810819 0 0)
(-0.614418389 0 0)
(-0.59860108 0 0)
(-0.596459529 0 0)
(-0.612165357 0 0)
(-0.611853706 0 0)
(-0.593357308 0 0)
(-0.590495402 0 0)
(-0.604638925 0 0)
(-0.601483779 0 0)
(-0.581694232 0 0)
(-0.579223429 0 0)
(-0.592944417 0 0)
(-0.588612795 0 0)
(-0.569094869 0 0)
(-0.568063447 0 0)
(-0.58260573 0 0)
(-0.57886014 0 0)
(-0.560905789 0 0)
(-0.561994389 0 0)
(-0.578384856 0 0)
(-0.576661645 0 0)
(-0.561044052 0 0)
(-0.564463147 0 0)
(-0.58333659 0 0)
(-0.584536814 0 0)
(-0.571537051 0 0)
(-0.57705992 0 0)
(-0.598513219 0 0)
(-0.603461987 0 0)
(-0.59433257 0 0)
(-0.601167186 0 0)
(-0.622987614 0 0)
(-0.631063935 0 0)
(-0.626416666 0 0)
(-0.632811462 0 0)
(-0.650529515 0 0)
(-0.675522207 0 0)
(-0.686882893 0 0)
(-0.683507654 0 0)
(-0.694740076 0 0)
(-0.72366359 0 0)
(-0.740071741 0 0)
(-0.738864172 0 0)
(-0.75382788 0 0)
(-0.789473256 0 0)
(-0.804667603 0 0)
(-0.804433903 0 0)
(-0.820630138 0 0)
(-0.839321286 0 0)
(-0.859393208 0 0)
(-0.890705478 0 0)
(-0.910330379 0 0)
(-0.907544136 0 0)
(-0.920874478 0 0)
(-0.960430864 0 0)
(-0.984538222 0 0)
(-0.980644489 0 0)
(-0.994275144 0 0)
(-1.03736433 0 0)
(-1.06369763 0 0)
(-1.05952466 0 0)
(-1.07132328 0 0)
(-1.1121334 0 0)
(-1.13705363 0 0)
(-1.13922234 0 0)
(-1.16047789 0 0)
(-1.18771633 0 0)
(-1.22815457 0 0)
(-1.25109181 0 0)
(-1.24259845 0 0)
(-1.25201429 0 0)
(-1.29141943 0 0)
(-1.31235703 0 0)
(-1.30912857 0 0)
(-1.3278623 0 0)
(-1.35203696 0 0)
(-1.38747606 0 0)
(-1.40011838 0 0)
(-1.3788757 0 0)
(-1.38285507 0 0)
(-1.42029675 0 0)
(-1.42955505 0 0)
(-1.40111284 0 0)
(-1.40076735 0 0)
(-1.43309681 0 0)
(-1.43188978 0 0)
(-1.40684106 0 0)
(-1.4211165 0 0)
(-1.42968482 0 0)
(-1.39424214 0 0)
(-1.37183094 0 0)
(-1.38702203 0 0)
(-1.36654183 0 0)
(-1.31412599 0 0)
(-1.29752573 0 0)
(-1.30799264 0 0)
(-1.27657917 0 0)
(-1.21859811 0 0)
(-1.19998856 0 0)
(-1.20347686 0 0)
(-1.16334777 0 0)
(-1.10323683 0 0)
(-1.08023049 0 0)
(-1.07337867 0 0)
(-1.02304016 0 0)
(-0.95977471 0 0)
(-0.919840195 0 0)
(-0.905655029 0 0)
(-0.886738085 0 0)
(-0.830077946 0 0)
(-0.775179765 0 0)
(-0.760720945 0 0)
(-0.751291167 0 0)
(-0.701097206 0 0)
(-0.662841563 0 0)
(-0.641644197 0 0)
(-0.593353991 0 0)
(-0.560061416 0 0)
(-0.562317627 0 0)
(-0.561109152 0 0)
(-0.526213545 0 0)
(-0.5008347 0 0)
(-0.489299449 0 0)
(-0.462333439 0 0)
(-0.444687163 0 0)
(-0.455404075 0 0)
(-0.469221341 0 0)
(-0.453629254 0 0)
(-0.437723056 0 0)
(-0.460537883 0 0)
(-0.493879752 0 0)
(-0.49768519 0 0)
(-0.496174735 0 0)
(-0.52875955 0 0)
(-0.576815363 0 0)
(-0.60098515 0 0)
(-0.613291054 0 0)
(-0.654110438 0 0)
(-0.717501691 0 0)
(-0.762698291 0 0)
(-0.786992441 0 0)
(-0.835078672 0 0)
(-0.915141951 0 0)
(-0.983080751 0 0)
(-1.020029 0 0)
(-1.07519338 0 0)
(-1.16820608 0 0)
(-1.25052695 0 0)
(-1.30506386 0 0)
(-1.38555015 0 0)
(-1.46547771 0 0)
(-1.57468287 0 0)
(-1.68342176 0 0)
(-1.73711154 0 0)
(-1.80076662 0 0)
(-1.92163359 0 0)
(-2.03366888 0 0)
(-2.10290737 0 0)
(-2.20716902 0 0)
(-2.28926393 0 0)
(-2.40680667 0 0)
(-2.5179185 0 0)
(-2.54259602 0 0)
(-2.58327978 0 0)
(-2.70488986 0 0)
(-2.80125611 0 0)
(-2.79734332 0 0)
(-2.81800706 0 0)
(-2.92453458 0 0)
(-2.99393205 0 0)
(-2.96238484 0 0)
(-2.96411634 0 0)
(-3.04710881 0 0)
(-3.08075609 0 0)
(-3.01910033 0 0)
(-2.99928942 0 0)
(-3.05150474 0 0)
(-3.04538913 0 0)
(-2.95984241 0 0)
(-2.92754191 0 0)
(-2.95728849 0 0)
(-2.92150145 0 0)
(-2.84874495 0 0)
(-2.83957574 0 0)
(-2.80922609 0 0)
(-2.74913279 0 0)
(-2.71463141 0 0)
(-2.65283952 0 0)
(-2.54530242 0 0)
(-2.4716477 0 0)
(-2.43536604 0 0)
(-2.32104169 0 0)
(-2.18117851 0 0)
(-2.11647238 0 0)
(-2.06977465 0 0)
(-1.93120403 0 0)
(-1.78190848 0 0)
(-1.71282524 0 0)
(-1.65234539 0 0)
(-1.50181912 0 0)
(-1.3583324 0 0)
(-1.2991285 0 0)
(-1.24134791 0 0)
(-1.09767813 0 0)
(-0.973396255 0 0)
(-0.932420858 0 0)
(-0.885935672 0 0)
(-0.759220571 0 0)
(-0.658402108 0 0)
(-0.6357841 0 0)
(-0.602442326 0 0)
(-0.495853766 0 0)
(-0.417922944 0 0)
(-0.409222768 0 0)
(-0.386984285 0 0)
(-0.302136368 0 0)
(-0.252763096 0 0)
(-0.244085886 0 0)
(-0.200885553 0 0)
(-0.159190738 0 0)
(-0.152082807 0 0)
(-0.13155565 0 0)
(-0.0745428829 0 0)
(-0.0350865212 0 0)
(-0.0352374526 0 0)
(-0.0193786385 0 0)
(0.0211982975 0 0)
(0.0474736063 0 0)
(0.0608466435 0 0)
(0.0853912617 0 0)
(0.115751736 0 0)
(0.137328134 0 0)
(0.155516726 0 0)
(0.187143514 0 0)
(0.20982911 0 0)
(0.211834192 0 0)
(0.239836768 0 0)
(0.282171508 0 0)
(0.285665466 0 0)
(0.276615777 0 0)
(0.31238665 0 0)
(0.365472911 0 0)
(0.363155397 0 0)
(0.349894009 0 0)
(0.400008789 0 0)
(0.473207664 0 0)
(0.480346854 0 0)
(0.476462111 0 0)
(0.547779291 0 0)
(0.654926887 0 0)
(0.717157046 0 0)
(0.751419562 0 0)
(0.814468434 0 0)
(0.911944168 0 0)
(1.02808112 0 0)
(1.06857231 0 0)
(1.10710094 0 0)
(1.22306972 0 0)
(1.36328137 0 0)
(1.43791198 0 0)
(1.48346037 0 0)
(1.55475938 0 0)
(1.69143568 0 0)
(1.8476575 0 0)
(1.89955208 0 0)
(1.96337141 0 0)
(2.10630046 0 0)
(2.24038459 0 0)
(2.27546945 0 0)
(2.33064019 0 0)
(2.48859012 0 0)
(2.62477269 0 0)
(2.6461675 0 0)
(2.69327657 0 0)
(2.82087323 0 0)
(2.91273974 0 0)
(2.9133043 0 0)
(2.9496393 0 0)
(3.0594233 0 0)
(3.12346485 0 0)
(3.10216711 0 0)
(3.12477895 0 0)
(3.22480996 0 0)
(3.27192891 0 0)
(3.21717196 0 0)
(3.15783804 0 0)
(3.20410579 0 0)
(3.28512653 0 0)
(3.25636009 0 0)
(3.1767161 0 0)
(3.10429812 0 0)
(3.1135424 0 0)
(3.15819153 0 0)
(3.10673587 0 0)
(3.03135076 0 0)
(3.01749364 0 0)
(3.04998206 0 0)
(3.00546524 0 0)
(2.91099202 0 0)
(2.88927062 0 0)
(2.91733204 0 0)
(2.86528235 0 0)
(2.76663686 0 0)
(2.74258192 0 0)
(2.76322028 0 0)
(2.70313316 0 0)
(2.60193226 0 0)
(2.57519574 0 0)
(2.58716806 0 0)
(2.52058408 0 0)
(2.41894366 0 0)
(2.38857613 0 0)
(2.39062137 0 0)
(2.31920706 0 0)
(2.22006472 0 0)
(2.18727341 0 0)
(2.18137404 0 0)
(2.11157163 0 0)
(2.03081258 0 0)
(1.98538744 0 0)
(1.9182087 0 0)
(1.87019541 0 0)
(1.84372573 0 0)
(1.75601006 0 0)
(1.66768228 0 0)
(1.63317085 0 0)
(1.61318693 0 0)
(1.53860161 0 0)
(1.45183239 0 0)
(1.41587779 0 0)
(1.39417438 0 0)
(1.32449018 0 0)
(1.24424005 0 0)
(1.21035705 0 0)
(1.19120836 0 0)
(1.13174471 0 0)
(1.06227785 0 0)
(1.03244982 0 0)
(1.01694148 0 0)
(0.96888004 0 0)
(0.911706652 0 0)
(0.885754248 0 0)
(0.873175318 0 0)
(0.838079951 0 0)
(0.797906522 0 0)
(0.774127124 0 0)
(0.751393785 0 0)
(0.738323201 0 0)
(0.712642598 0 0)
(0.679154721 0 0)
(0.668296354 0 0)
(0.668649831 0 0)
(0.648615677 0 0)
(0.617540613 0 0)
(0.608241322 0 0)
(0.611381814 0 0)
(0.594778383 0 0)
(0.567396758 0 0)
(0.559782877 0 0)
(0.562902749 0 0)
(0.547174595 0 0)
(0.521449077 0 0)
(0.514009449 0 0)
(0.515785004 0 0)
(0.499342074 0 0)
(0.473617724 0 0)
(0.464939822 0 0)
(0.464100082 0 0)
(0.445963579 0 0)
(0.419810087 0 0)
(0.409929004 0 0)
(0.4054817 0 0)
(0.38572888 0 0)
(0.362912093 0 0)
(0.348935119 0 0)
(0.329975893 0 0)
(0.303844348 0 0)
(0.285481156 0 0)
(0.273454618 0 0)
(0.251136315 0 0)
(0.225509806 0 0)
(0.208262441 0 0)
(0.193788248 0 0)
(0.17153491 0 0)
(0.145743614 0 0)
(0.126731341 0 0)
(0.111596797 0 0)
(0.0918444942 0 0)
(0.067757917 0 0)
(0.0479371296 0 0)
(0.0341339737 0 0)
(0.0210901504 0 0)
(-0.0014742633 0 0)
(-0.0219474875 0 0)
(-0.0303327388 0 0)
(-0.0394999973 0 0)
(-0.0554134289 0 0)
(-0.0675288138 0 0)
(-0.0710763543 0 0)
(-0.075632886 0 0)
(-0.0819843033 0 0)
(-0.0851928069 0 0)
(-0.0837678699 0 0)
(-0.0925526769 0 0)
(-0.0990576243 0 0)
(-0.0939841321 0 0)
(-0.0902883464 0 0)
(-0.0861890498 0 0)
(-0.0811439804 0 0)
(-0.0741518514 0 0)
(-0.0755968094 0 0)
(-0.075793453 0 0)
(-0.0672651585 0 0)
(-0.0607796872 0 0)
(-0.0569448532 0 0)
(-0.0540393572 0 0)
(-0.0493701324 0 0)
(-0.0456478367 0 0)
(-0.045115854 0 0)
(-0.0452841856 0 0)
(-0.0449498427 0 0)
(-0.0473740697 0 0)
(-0.0514747013 0 0)
(-0.0560802532 0 0)
(-0.0637730926 0 0)
(-0.0752082712 0 0)
(-0.0859603991 0 0)
(-0.0972806041 0 0)
(-0.115825104 0 0)
(-0.138728002 0 0)
(-0.156009834 0 0)
(-0.173196032 0 0)
(-0.202843233 0 0)
(-0.235841638 0 0)
(-0.263554143 0 0)
(-0.295675733 0 0)
(-0.320878447 0 0)
(-0.362129838 0 0)
(-0.410892759 0 0)
(-0.442622596 0 0)
(-0.471924606 0 0)
(-0.524461919 0 0)
(-0.582742357 0 0)
(-0.620526911 0 0)
(-0.653514045 0 0)
(-0.711066948 0 0)
(-0.757143774 0 0)
(-0.791264256 0 0)
(-0.851813966 0 0)
(-0.891680085 0 0)
(-0.919600104 0 0)
(-0.986534134 0 0)
(-1.05462605 0 0)
(-1.08058221 0 0)
(-1.10595658 0 0)
(-1.17521553 0 0)
(-1.23982663 0 0)
(-1.25443665 0 0)
(-1.27268448 0 0)
(-1.33794711 0 0)
(-1.39208321 0 0)
(-1.39158466 0 0)
(-1.40155803 0 0)
(-1.45898425 0 0)
(-1.49758503 0 0)
(-1.4894885 0 0)
(-1.49577026 0 0)
(-1.51791462 0 0)
(-1.50179091 0 0)
(-1.47984641 0 0)
(-1.50437376 0 0)
(-1.50403306 0 0)
(-1.45642238 0 0)
(-1.43054694 0 0)
(-1.44047439 0 0)
(-1.41474544 0 0)
(-1.34990388 0 0)
(-1.30879637 0 0)
(-1.29340835 0 0)
(-1.24875282 0 0)
(-1.18781532 0 0)
(-1.14273054 0 0)
(-1.11299712 0 0)
(-1.07681056 0 0)
(-0.998809298 0 0)
(-0.915829207 0 0)
(-0.876409847 0 0)
(-0.843119694 0 0)
(-0.760266632 0 0)
(-0.677175792 0 0)
(-0.641246944 0 0)
(-0.605823423 0 0)
(-0.520352273 0 0)
(-0.443668852 0 0)
(-0.41134118 0 0)
(-0.373267068 0 0)
(-0.297718771 0 0)
(-0.228383971 0 0)
(-0.165347324 0 0)
(-0.147905366 0 0)
(-0.118433482 0 0)
(-0.0419829539 0 0)
(0.015768361 0 0)
(0.0187306737 0 0)
(0.0274425599 0 0)
(0.0932023296 0 0)
(0.132319004 0 0)
(0.160368941 0 0)
(0.210458943 0 0)
(0.254805834 0 0)
(0.261711666 0 0)
(0.259594959 0 0)
(0.285276755 0 0)
(0.30168608 0 0)
(0.288934322 0 0)
(0.276833826 0 0)
(0.295521723 0 0)
(0.293332662 0 0)
(0.283661532 0 0)
(0.294070272 0 0)
(0.302752764 0 0)
(0.293951878 0 0)
(0.285184823 0 0)
(0.288999133 0 0)
(0.290556138 0 0)
(0.279211774 0 0)
(0.26768302 0 0)
(0.264631236 0 0)
(0.261427426 0 0)
(0.250406924 0 0)
(0.236812582 0 0)
(0.226624189 0 0)
(0.21812925 0 0)
(0.198546718 0 0)
(0.179405994 0 0)
(0.171454534 0 0)
(0.16999255 0 0)
(0.175890371 0 0)
(0.151414129 0 0)
(0.125106365 0 0)
(0.115763611 0 0)
(0.11005327 0 0)
(0.114628786 0 0)
(0.0973636534 0 0)
(0.0758488621 0 0)
(0.0664413793 0 0)
(0.0522357638 0 0)
(0.0349928203 0 0)
(0.0208102532 0 0)
(0.012371565 0 0)
(0.00425468176 0 0)
(-0.0109499916 0 0)
(-0.0240690577 0 0)
(-0.0313360232 0 0)
(-0.0373984717 0 0)
(-0.0463043694 0 0)
(-0.0559024769 0 0)
(-0.061768079 0 0)
(-0.0634291941 0 0)
(-0.0716231703 0 0)
(-0.0809809491 0 0)
(-0.0799542742 0 0)
(-0.0737080119 0 0)
(-0.0601960371 0 0)
(-0.0589034387 0 0)
(-0.0647636808 0 0)