/*--------------------------------*- C++ -*----------------------------------*\
| =========                 |                                                 |
| \\      /  F ield         | OpenFOAM: The Open Source CFD Toolbox           |
|  \\    /   O peration     | Version:  2306                                  |
|   \\  /    A nd           | Website:  www.openfoam.com                      |
|    \\/     M anipulation  |                                                 |
\*---------------------------------------------------------------------------*/
FoamFile
{
    version     2.0;
    format      ascii;
    arch        "LSB;label=32;scalar=64";
    class       volScalarField;
    location    "0.00122";
    object      prefDZ_H2;
}
// * * * * * * * * * * * * * * * * * * * * * * * * * * * * * * * * * * * * * //

dimensions      [1 -1 -1 0 0 0 0];

internalField   nonuniform List<scalar> 
530
(
6.4721695e-05
6.26753584e-05
6.2336981e-05
6.23310721e-05
6.23304799e-05
6.23304613e-05
6.23304598e-05
6.23304598e-05
6.23304597e-05
6.23304597e-05
6.23304597e-05
6.23304597e-05
6.23304597e-05
6.23304597e-05
6.23304597e-05
6.23304597e-05
6.23304597e-05
6.23304597e-05
6.23304597e-05
6.23304597e-05
6.23304597e-05
6.23304597e-05
6.23304597e-05
6.23304597e-05
6.23304597e-05
6.23304597e-05
6.23304597e-05
6.23304597e-05
6.23304597e-05
6.23304597e-05
6.23304597e-05
6.23304597e-05
6.23304597e-05
6.23304597e-05
6.23304597e-05
6.23304597e-05
6.23304597e-05
6.23304597e-05
6.23304597e-05
6.23304597e-05
6.23304597e-05
6.23304597e-05
6.23304597e-05
6.23304597e-05
6.23304597e-05
6.23304597e-05
6.23304597e-05
6.23304597e-05
6.23304597e-05
6.23304597e-05
6.23304597e-05
6.23304597e-05
6.23304597e-05
6.23304597e-05
6.23304597e-05
6.23304597e-05
6.23304597e-05
6.23304597e-05
6.23304597e-05
6.23304597e-05
6.23304597e-05
6.23304598e-05
6.23304598e-05
6.23304598e-05
6.23304599e-05
6.23304603e-05
6.23304608e-05
6.23304637e-05
6.23304654e-05
6.23304835e-05
6.23304922e-05
6.23305718e-05
6.23306126e-05
6.23308802e-05
6.2331125e-05
6.23316996e-05
6.2331732e-05
6.23325352e-05
6.23324376e-05
6.23445762e-05
6.23448791e-05
6.2324149e-05
6.23149884e-05
6.2374589e-05
6.23995147e-05
6.22721618e-05
6.21669296e-05
6.22680027e-05
6.3556983e-05
6.3607311e-05
6.22726863e-05
6.15963337e-05
6.1592724e-05
6.27090037e-05
6.35989548e-05
6.33044308e-05
6.22152309e-05
6.12748223e-05
6.22512911e-05
6.3423689e-05
6.3657202e-05
6.3557092e-05
6.22985752e-05
6.19009548e-05
6.18674384e-05
6.12305009e-05
6.12303875e-05
6.31814843e-05
6.35237939e-05
6.34221954e-05
6.35268787e-05
6.26340631e-05
6.17414484e-05
6.17019641e-05
6.33240789e-05
6.35311326e-05
6.23349527e-05
6.17272994e-05
6.17173225e-05
6.09280791e-05
6.09498579e-05
6.29935615e-05
6.35561549e-05
6.3466183e-05
6.359001e-05
6.35003636e-05
6.23605834e-05
6.16084742e-05
6.15986451e-05
6.33140614e-05
6.36079952e-05
6.25158235e-05
6.22709847e-05
6.22773126e-05
6.22714178e-05
6.18879857e-05
6.18809987e-05
6.3359473e-05
6.36600303e-05
6.23617268e-05
6.21158762e-05
6.33669033e-05
6.36925804e-05
6.23825242e-05
6.21816646e-05
6.32608257e-05
6.36530316e-05
6.29919696e-05
6.2243185e-05
6.22283231e-05
6.23037465e-05
6.22990786e-05
6.20378335e-05
6.20242159e-05
6.33479401e-05
6.3632707e-05
6.23652206e-05
6.21814027e-05
6.33596547e-05
6.35743351e-05
6.23896449e-05
6.15420552e-05
6.15360996e-05
6.31800933e-05
6.36017976e-05
6.24071516e-05
6.18874139e-05
6.32889502e-05
6.36048876e-05
6.24090004e-05
6.19536833e-05
6.33131124e-05
6.35369553e-05
6.24042059e-05
6.16334344e-05
6.16397784e-05
6.31652841e-05
6.35559442e-05
6.2383933e-05
6.20452515e-05
6.13606953e-05
6.1371884e-05
6.30505609e-05
6.35596288e-05
6.24172422e-05
6.18377531e-05
6.32114033e-05
6.35717381e-05
6.2426587e-05
6.19455729e-05
6.33060033e-05
6.35154215e-05
6.23884232e-05
6.15246239e-05
6.1537312e-05
6.30648881e-05
6.35498506e-05
6.24165762e-05
6.20232093e-05
6.33215695e-05
6.35160951e-05
6.24087873e-05
6.15419073e-05
6.1545456e-05
6.30924643e-05
6.34898331e-05
6.23701696e-05
6.12216302e-05
6.12277898e-05
6.28783729e-05
6.35573041e-05
6.23940926e-05
6.16730506e-05
6.31746113e-05
6.35891157e-05
6.24297124e-05
6.1838841e-05
6.32747711e-05
6.35947281e-05
6.24283718e-05
6.19566714e-05
6.33730898e-05
6.35388457e-05
6.24148713e-05
6.15858272e-05
6.15981389e-05
6.29478433e-05
6.35524219e-05
6.29840054e-05
6.23204593e-05
6.21829514e-05
6.17637804e-05
6.17726026e-05
6.33692308e-05
6.35907691e-05
6.24097171e-05
6.21994767e-05
6.33879046e-05
6.3620058e-05
6.24106177e-05
6.19722625e-05
6.34112453e-05
6.35456011e-05
6.23665522e-05
6.12394374e-05
6.12416243e-05
6.28272699e-05
6.3574987e-05
6.23952806e-05
6.17302431e-05
6.33245868e-05
6.3584713e-05
6.24451989e-05
6.18916012e-05
6.3398292e-05
6.35199508e-05
6.24034507e-05
6.14451416e-05
6.1453377e-05
6.30153702e-05
6.35594326e-05
6.24121587e-05
6.19359326e-05
6.34095125e-05
6.35162624e-05
6.24293726e-05
6.14983756e-05
6.15027944e-05
6.30676604e-05
6.35749216e-05
6.24196116e-05
6.19758091e-05
6.34174177e-05
6.35907727e-05
6.23849038e-05
6.21091974e-05
6.13580766e-05
6.13697818e-05
6.2958735e-05
6.35733826e-05
6.23819799e-05
6.2038527e-05
6.27117058e-05
6.35664582e-05
6.34403201e-05
6.23084352e-05
6.11671585e-05
6.12153782e-05
6.34185097e-05
6.35065116e-05
6.34704284e-05
6.24710816e-05
6.22906088e-05
6.12908948e-05
6.13008407e-05
6.34537653e-05
6.34668572e-05
6.24193455e-05
6.13921328e-05
6.14079335e-05
6.31460471e-05
6.35403939e-05
6.24350493e-05
6.18936987e-05
6.34616635e-05
6.35064878e-05
6.2394098e-05
6.13570823e-05
6.1364573e-05
6.2898685e-05
6.35467818e-05
6.23805104e-05
6.18053285e-05
6.34819595e-05
6.34980928e-05
6.24005771e-05
6.13492663e-05
6.13651539e-05
6.34453998e-05
6.34651548e-05
6.24632693e-05
6.14089408e-05
6.14252831e-05
6.34346689e-05
6.35208729e-05
6.24166052e-05
6.16295874e-05
6.13581577e-05
6.22850655e-05
6.34739561e-05
6.35430764e-05
6.35195568e-05
6.30081515e-05
6.17729803e-05
6.11974354e-05
6.23131485e-05
6.35201243e-05
6.23186562e-05
6.16844513e-05
6.33190215e-05
6.35727665e-05
6.22909429e-05
6.1790237e-05
6.34918274e-05
6.3545728e-05
6.23721713e-05
6.152238e-05
6.14503855e-05
6.25141763e-05
6.35589732e-05
6.23471839e-05
6.18631887e-05
6.34757525e-05
6.35975225e-05
6.23314748e-05
6.19936912e-05
6.34657788e-05
6.35282616e-05
6.25260164e-05
6.16528838e-05
6.16594753e-05
6.30017366e-05
6.3561889e-05
6.2577864e-05
6.2298088e-05
6.19414892e-05
6.19268941e-05
6.16148236e-05
6.14228505e-05
6.23560127e-05
6.35416935e-05
6.3625845e-05
6.36178541e-05
6.23194083e-05
6.22916966e-05
6.35249714e-05
6.36398188e-05
6.2429606e-05
6.21605527e-05
6.19381944e-05
6.18952307e-05
6.1585064e-05
6.15017991e-05
6.23229525e-05
6.35288119e-05
6.36485665e-05
6.23412864e-05
6.23240853e-05
6.35073666e-05
6.35760809e-05
6.25516733e-05
6.18443371e-05
6.15538762e-05
6.26395407e-05
6.35690271e-05
6.23425453e-05
6.19510962e-05
6.35515388e-05
6.36148722e-05
6.23457061e-05
6.18028821e-05
6.13702841e-05
6.22400888e-05
6.35388717e-05
6.24052653e-05
6.16515128e-05
6.23821266e-05
6.35721728e-05
6.2282e-05
6.17782488e-05
6.29730133e-05
6.35715843e-05
6.23199168e-05
6.17749134e-05
6.22654966e-05
6.35463661e-05
6.36246764e-05
6.35839649e-05
6.35957672e-05
6.22747161e-05
6.18662656e-05
6.19720059e-05
6.18679832e-05
6.18195363e-05
6.1291366e-05
6.20990102e-05
6.34414902e-05
6.36540563e-05
6.35608104e-05
6.22670648e-05
6.23216251e-05
6.35681442e-05
6.36150609e-05
6.23490712e-05
6.21431725e-05
6.14862673e-05
6.1497719e-05
6.34759458e-05
6.36120056e-05
6.21861125e-05
6.22772966e-05
6.35188331e-05
6.35778381e-05
6.2545764e-05
6.17676176e-05
6.16357517e-05
6.26349141e-05
6.35552078e-05
6.2727297e-05
6.19596469e-05
6.14630524e-05
6.22980047e-05
6.35201571e-05
6.30267873e-05
6.1848157e-05
6.13551963e-05
6.23009354e-05
6.35053974e-05
6.29673806e-05
6.18417559e-05
6.143948e-05
6.2352892e-05
6.35217946e-05
6.2607632e-05
6.21570738e-05
6.1694937e-05
6.15112374e-05
6.2256486e-05
6.34162936e-05
6.36610457e-05
6.29358409e-05
6.2275646e-05
6.23080907e-05
6.36153535e-05
6.36461841e-05
6.22732975e-05
6.16106398e-05
6.15136462e-05
6.22706475e-05
6.35526771e-05
6.23070461e-05
6.1742418e-05
6.27020873e-05
6.35516273e-05
6.23599973e-05
6.18081541e-05
6.34785699e-05
6.35141865e-05
6.18766601e-05
6.23262274e-05
6.352552e-05
6.36112271e-05
6.23062617e-05
6.15439217e-05
6.15328912e-05
6.23982864e-05
6.35630721e-05
6.23210179e-05
6.20271608e-05
6.34826538e-05
6.31779966e-05
6.19105578e-05
6.23009133e-05
6.35328278e-05
6.3596674e-05
6.2312579e-05
6.14331666e-05
6.14418367e-05
6.26367368e-05
6.35936674e-05
6.23283252e-05
6.22899995e-05
6.35039208e-05
6.26566695e-05
6.19711014e-05
6.2296094e-05
6.35637826e-05
6.3569593e-05
6.22995264e-05
6.15060761e-05
6.15139644e-05
6.24280403e-05
6.35585008e-05
6.23332736e-05
6.19002535e-05
6.34485577e-05
6.35854293e-05
6.21657346e-05
6.20460546e-05
6.3427882e-05
)
;

boundaryField
{
    closed
    {
        type            calculated;
        value           uniform 8.15180866e-05;
    }
    open
    {
        type            calculated;
        value           nonuniform List<scalar> 0();
    }
    sides
    {
        type            empty;
    }
    procBoundary0to1
    {
        type            processor;
        value           uniform 6.28354398e-05;
    }
}


// ************************************************************************* //
