/*--------------------------------*- C++ -*----------------------------------*\
| =========                 |                                                 |
| \\      /  F ield         | OpenFOAM: The Open Source CFD Toolbox           |
|  \\    /   O peration     | Version:  2306                                  |
|   \\  /    A nd           | Website:  www.openfoam.com                      |
|    \\/     M anipulation  |                                                 |
\*---------------------------------------------------------------------------*/
FoamFile
{
    version     2.0;
    format      ascii;
    arch        "LSB;label=32;scalar=64";
    class       volScalarField;
    location    "0.0001";
    object      p;
}
// * * * * * * * * * * * * * * * * * * * * * * * * * * * * * * * * * * * * * //

dimensions      [1 -1 -2 0 0 0 0];

internalField   nonuniform List<scalar> 
530
(
101684.444
101682.379
101678.368
101672.393
101664.47
101654.65
101643.016
101629.684
101614.802
101598.543
101581.104
101562.7
101543.56
101523.924
101504.033
101484.129
101464.449
101445.217
101426.646
101408.929
101392.238
101376.725
101362.516
101349.709
101338.381
101328.581
101320.333
101313.641
101308.483
101304.82
101302.594
101301.731
101302.144
101303.735
101306.398
101310.021
101314.483
101319.667
101325.449
101331.71
101338.333
101345.204
101352.214
101359.263
101366.255
101373.104
101379.732
101386.069
101392.058
101397.647
101402.798
101407.48
101411.674
101415.371
101418.571
101421.283
101423.524
101425.319
101426.699
101427.704
101428.377
101428.768
101428.931
101428.92
101428.795
101428.614
101428.436
101428.319
101428.319
101428.49
101428.881
101429.54
101430.506
101431.815
101433.499
101435.58
101438.076
101440.999
101444.354
101448.139
101452.348
101456.965
101461.974
101467.35
101473.063
101479.083
101485.373
101491.893
101498.601
101505.456
101512.412
101519.425
101526.449
101533.44
101540.355
101547.152
101553.79
101560.233
101566.445
101572.393
101578.048
101583.384
101588.379
101593.011
101597.265
101601.128
101604.59
101607.645
101610.287
101612.516
101614.334
101615.744
101616.753
101617.367
101617.597
101617.454
101616.949
101616.096
101614.908
101613.399
101611.585
101609.48
101607.098
101604.454
101601.562
101598.434
101595.084
101591.523
101587.763
101583.812
101579.681
101575.377
101570.906
101566.274
101561.486
101556.543
101551.448
101546.201
101540.803
101535.25
101529.542
101523.675
101517.644
101511.444
101505.072
101498.52
101491.785
101484.86
101477.74
101470.422
101462.901
101455.175
101447.243
101439.106
101430.765
101422.225
101413.493
101404.577
101395.49
101386.245
101376.859
101367.352
101357.748
101348.071
101338.351
101328.618
101318.905
101309.249
101299.686
101290.257
101281.001
101271.961
101263.178
101254.695
101246.554
101238.796
101231.461
101224.588
101218.214
101212.372
101207.095
101202.412
101198.346
101194.922
101192.155
101190.062
101188.652
101187.932
101187.903
101188.565
101189.912
101191.935
101194.619
101197.949
101201.904
101206.462
101211.595
101217.278
101223.481
101230.172
101237.32
101244.889
101252.845
101261.152
101269.774
101278.676
101287.822
101297.177
101306.705
101316.374
101326.15
101336.003
101345.901
101355.816
101365.721
101375.591
101385.4
101395.127
101404.751
101414.252
101423.615
101432.822
101441.86
101450.716
101459.38
101467.841
101476.093
101484.128
101491.941
101499.528
101506.886
101514.013
101520.908
101527.571
101534.003
101540.205
101546.181
101551.933
101557.464
101562.78
101567.883
101572.781
101577.477
101581.978
101586.29
101590.419
101594.371
101598.153
101601.771
101605.233
101608.544
101611.712
101614.744
101617.645
101620.422
101623.083
101625.632
101628.077
101630.423
101632.677
101634.843
101636.928
101638.935
101640.872
101642.741
101644.548
101646.298
101647.993
101649.637
101651.236
101652.79
101654.304
101655.781
101657.222
101658.631
101660.008
101661.357
101662.678
101663.974
101665.245
101666.492
101667.717
101668.919
101670.1
101671.26
101672.399
101673.518
101674.616
101675.694
101676.75
101677.786
101678.801
101679.795
101680.767
101681.717
101682.645
101683.551
101684.434
101685.294
101686.131
101686.945
101687.735
101688.501
101689.244
101689.964
101690.66
101691.333
101691.984
101692.612
101693.218
101693.803
101694.367
101694.91
101695.435
101695.941
101696.43
101696.903
101697.36
101697.803
101698.233
101698.652
101699.06
101699.459
101699.851
101700.237
101700.618
101700.996
101701.373
101701.75
101702.127
101702.508
101702.893
101703.285
101703.683
101704.09
101704.507
101704.935
101705.376
101705.831
101706.301
101706.787
101707.289
101707.81
101708.349
101708.908
101709.487
101710.087
101710.708
101711.351
101712.016
101712.703
101713.412
101714.143
101714.896
101715.671
101716.467
101717.284
101718.121
101718.978
101719.853
101720.746
101721.655
101722.58
101723.518
101724.468
101725.429
101726.398
101727.374
101728.354
101729.337
101730.319
101731.298
101732.271
101733.236
101734.189
101735.127
101736.046
101736.943
101737.815
101738.657
101739.465
101740.235
101740.963
101741.645
101742.276
101742.851
101743.366
101743.815
101744.195
101744.499
101744.724
101744.864
101744.914
101744.869
101744.725
101744.477
101744.119
101743.648
101743.06
101742.349
101741.512
101740.545
101739.444
101738.207
101736.83
101735.311
101733.647
101731.838
101729.88
101727.774
101725.519
101723.115
101720.562
101717.861
101715.015
101712.024
101708.891
101705.62
101702.214
101698.677
101695.014
101691.231
101687.332
101683.325
101679.215
101675.011
101670.719
101666.347
101661.905
101657.4
101652.841
101648.238
101643.6
101638.936
101634.257
101629.572
101624.891
101620.223
101615.579
101610.968
101606.4
101601.884
101597.428
101593.043
101588.736
101584.515
101580.389
101576.364
101572.448
101568.647
101564.967
101561.414
101557.989
101554.579
101551.094
101547.557
101543.999
101540.457
101536.974
101533.603
101530.403
101527.442
101524.79
101522.527
101520.729
101519.474
101518.828
101518.844
101519.55
101520.946
101522.986
101525.58
101528.581
101531.785
101534.931
101537.705
101539.741
101540.634
101539.949
101537.243
101532.126
101524.399
101514.297
101502.878
101492.478
101486.815
101490.158
101505.368
101531.332
101560.347
101580.424
101582.628
101566.142
101537.799
101506.662
101484.14
101466.735
101435.462
101393.048
101380.356
101420.704
101501.461
101592.618
101672.64
101708.555
101685.717
101653.431
101666.542
101700.373
101672.954
101586.417
101503.265
101466.719
101459.916
101495.636
101572.679
101641.333
101652.489
101633.223
101620.942
101603.258
101597.492
101606.885
101602.46
101592.976
101605.209
101630.588
101653.328
101656.158
101638.805
)
;

boundaryField
{
    closed
    {
        type            zeroGradient;
    }
    open
    {
        type            waveTransmissive;
        gamma           1.25;
        fieldInf        101325;
        lInf            1;
        value           uniform 101636.818;
    }
    sides
    {
        type            empty;
    }
    procBoundary5to4
    {
        type            processor;
        value           uniform 101684.612;
    }
}


// ************************************************************************* //
