/*--------------------------------*- C++ -*----------------------------------*\
| =========                 |                                                 |
| \\      /  F ield         | OpenFOAM: The Open Source CFD Toolbox           |
|  \\    /   O peration     | Version:  2306                                  |
|   \\  /    A nd           | Website:  www.openfoam.com                      |
|    \\/     M anipulation  |                                                 |
\*---------------------------------------------------------------------------*/
FoamFile
{
    version     2.0;
    format      ascii;
    arch        "LSB;label=32;scalar=64";
    class       volScalarField;
    location    "0.00108";
    object      H2;
}
// * * * * * * * * * * * * * * * * * * * * * * * * * * * * * * * * * * * * * //

dimensions      [0 0 0 0 0 0 0];

internalField   nonuniform List<scalar> 
530
(
0.000169496554
0.000167355187
0.000165144488
0.000163036777
0.000160915165
0.000158896271
0.000156859427
0.000154924308
0.000152967941
0.000151112128
0.000149231968
0.000147451496
0.000145643326
0.000143895532
0.000142040917
0.000140220367
0.000138423669
0.000136666926
0.000134943106
0.000133247653
0.000131592769
0.000129956063
0.000128366507
0.000126785979
0.000125258442
0.000123731521
0.000122262949
0.000120787075
0.000119374637
0.000117947273
0.000116588338
0.000115206967
0.000113899087
0.00011254304
0.000111257905
0.000109935179
0.000108696563
0.000107413606
0.000106220009
0.000104973404
0.00010381995
0.000102605696
0.000101495686
0.000100315028
9.92473297e-05
9.80979965e-05
9.70717232e-05
9.59513019e-05
9.49658462e-05
9.3871722e-05
9.29268093e-05
9.18560949e-05
9.09518452e-05
8.99013001e-05
8.90382966e-05
8.80042271e-05
8.71835966e-05
8.61617524e-05
8.53852475e-05
8.44073704e-05
8.36518879e-05
8.2685935e-05
8.19162239e-05
8.09909671e-05
8.0222473e-05
7.934148e-05
7.85767291e-05
7.77362914e-05
7.69768784e-05
7.61741851e-05
7.54209872e-05
7.46539383e-05
7.39072468e-05
7.31743472e-05
7.24339337e-05
7.17342579e-05
7.09993762e-05
7.03325914e-05
6.96015541e-05
6.89663337e-05
6.82359857e-05
6.76351274e-05
6.69044745e-05
6.63397165e-05
6.56054248e-05
6.50792849e-05
6.43604765e-05
6.38308503e-05
6.31449341e-05
6.26159116e-05
6.19582742e-05
6.14328682e-05
6.07998897e-05
6.02802548e-05
5.96691263e-05
5.91567059e-05
5.8565276e-05
5.80609592e-05
5.7487579e-05
5.69918514e-05
5.64352396e-05
5.59483022e-05
5.54074433e-05
5.4929295e-05
5.44033704e-05
5.39338603e-05
5.34222015e-05
5.29610656e-05
5.24631179e-05
5.20094498e-05
5.15229844e-05
5.10758682e-05
5.06012285e-05
5.01607814e-05
4.96977756e-05
4.92637855e-05
4.88122093e-05
4.83844926e-05
4.79441243e-05
4.75225279e-05
4.70931284e-05
4.66775275e-05
4.62588433e-05
4.58491367e-05
4.54409048e-05
4.50370096e-05
4.46389632e-05
4.42408077e-05
4.38526831e-05
4.34601998e-05
4.30817442e-05
4.26948615e-05
4.23258404e-05
4.19444755e-05
4.15846793e-05
4.12087322e-05
4.08579805e-05
4.04873302e-05
4.01454736e-05
3.97799774e-05
3.94468953e-05
3.90863905e-05
3.8761986e-05
3.84062936e-05
3.80904834e-05
3.77394165e-05
3.74321081e-05
3.70854987e-05
3.67865369e-05
3.64443057e-05
3.61533824e-05
3.58156437e-05
3.55324067e-05
3.51988913e-05
3.49258517e-05
3.45996664e-05
3.43284945e-05
3.40071673e-05
3.37421304e-05
3.3427217e-05
3.3166943e-05
3.28588833e-05
3.26029287e-05
3.23016855e-05
3.20499434e-05
3.17553023e-05
3.15077905e-05
3.12195001e-05
3.09762633e-05
3.06940866e-05
3.04551591e-05
3.01788863e-05
2.99442805e-05
2.9673731e-05
2.94434343e-05
2.91784559e-05
2.89524312e-05
2.86928966e-05
2.84710861e-05
2.82168875e-05
2.7999219e-05
2.77502612e-05
2.75366549e-05
2.72928478e-05
2.70832248e-05
2.68444745e-05
2.6636491e-05
2.6397759e-05
2.61909521e-05
2.5957098e-05
2.57536546e-05
2.5524556e-05
2.53243973e-05
2.50999386e-05
2.49029851e-05
2.4683052e-05
2.44892259e-05
2.42737031e-05
2.40829299e-05
2.38717e-05
2.36839087e-05
2.34768518e-05
2.3291976e-05
2.30889678e-05
2.29069478e-05
2.27078577e-05
2.2528643e-05
2.23333311e-05
2.21568839e-05
2.19651977e-05
2.17914941e-05
2.16032675e-05
2.14322924e-05
2.12473524e-05
2.10804387e-05
2.09125847e-05
2.07583262e-05
2.05925658e-05
2.04395711e-05
2.02758171e-05
2.01241693e-05
1.99623335e-05
1.9810242e-05
1.96460488e-05
1.94934206e-05
1.9332207e-05
1.91819482e-05
1.90236324e-05
1.88757301e-05
1.8720244e-05
1.85746781e-05
1.84219622e-05
1.82787081e-05
1.81287092e-05
1.79877385e-05
1.7840408e-05
1.77016901e-05
1.75569828e-05
1.74204854e-05
1.72783579e-05
1.71440488e-05
1.70044582e-05
1.68723061e-05
1.67352088e-05
1.6605185e-05
1.64705351e-05
1.63426147e-05
1.6210363e-05
1.60845261e-05
1.59546202e-05
1.58308517e-05
1.57032367e-05
1.55815254e-05
1.54561463e-05
1.53364827e-05
1.5213287e-05
1.50938353e-05
1.4968163e-05
1.48474343e-05
1.47233177e-05
1.46038154e-05
1.44812317e-05
1.43629793e-05
1.42419082e-05
1.41249265e-05
1.40053514e-05
1.3889657e-05
1.37715658e-05
1.36571708e-05
1.35405554e-05
1.34274678e-05
1.33123225e-05
1.32005479e-05
1.30868682e-05
1.29764104e-05
1.28641922e-05
1.27550541e-05
1.26442932e-05
1.2536477e-05
1.24271686e-05
1.23206765e-05
1.22128155e-05
1.21076491e-05
1.20012297e-05
1.18973903e-05
1.17924066e-05
1.1689895e-05
1.15863406e-05
1.14851574e-05
1.13830254e-05
1.12831706e-05
1.1182454e-05
1.10839272e-05
1.09846186e-05
1.08874187e-05
1.07895105e-05
1.06936358e-05
1.05971208e-05
1.05025682e-05
1.04074397e-05
1.03142045e-05
1.02204573e-05
1.01285322e-05
1.00361633e-05
9.9455377e-06
9.85454737e-06
9.7652071e-06
9.67559931e-06
9.58752679e-06
9.49930884e-06
9.41248454e-06
9.32566527e-06
9.24007048e-06
9.15465652e-06
9.07027706e-06
8.98595465e-06
8.89860702e-06
8.81178235e-06
8.72612075e-06
8.64083296e-06
8.55680241e-06
8.473034e-06
8.39057759e-06
8.30831223e-06
8.22737676e-06
8.14659577e-06
8.06713425e-06
7.9878155e-06
7.90978731e-06
7.83190553e-06
7.75527535e-06
7.67880306e-06
7.60353958e-06
7.52844816e-06
7.45452288e-06
7.38078338e-06
7.30816973e-06
7.23575351e-06
7.16442628e-06
7.09330544e-06
7.02324028e-06
6.95338811e-06
6.8845611e-06
6.81595248e-06
6.74833954e-06
6.68095152e-06
6.61452778e-06
6.54833999e-06
6.48307927e-06
6.41807396e-06
6.35394862e-06
6.29010989e-06
6.22709157e-06
6.16440379e-06
6.10275735e-06
6.04226249e-06
5.98247719e-06
5.92296419e-06
5.86419064e-06
5.80565713e-06
5.74787573e-06
5.69031744e-06
5.63351077e-06
5.57692079e-06
5.52107388e-06
5.46544308e-06
5.41054287e-06
5.35586079e-06
5.30189548e-06
5.24815099e-06
5.19510949e-06
5.14229134e-06
5.09016289e-06
5.03825989e-06
4.98703388e-06
4.93603504e-06
4.88570096e-06
4.83559542e-06
4.78614285e-06
4.73691994e-06
4.68833855e-06
4.63998769e-06
4.59226724e-06
4.544778e-06
4.49790836e-06
4.45127039e-06
4.4052415e-06
4.35944458e-06
4.3142465e-06
4.26928049e-06
4.22490333e-06
4.18075818e-06
4.13719216e-06
4.09385793e-06
4.05109331e-06
4.00856014e-06
3.96658726e-06
3.92484537e-06
3.88365463e-06
3.84269433e-06
3.8022762e-06
3.76208784e-06
3.72243284e-06
3.68300688e-06
3.64410559e-06
3.60543253e-06
3.56727558e-06
3.52934599e-06
3.49192405e-06
3.45472857e-06
3.41803238e-06
3.38156168e-06
3.34558201e-06
3.30982683e-06
3.2745545e-06
3.23950564e-06
3.20493152e-06
3.1705798e-06
3.13669479e-06
3.1030311e-06
3.06982616e-06
3.03684141e-06
3.00430752e-06
2.97199269e-06
2.94012088e-06
2.90846698e-06
2.87724831e-06
2.84624639e-06
2.81567197e-06
2.78531312e-06
2.75537408e-06
2.72564942e-06
2.69633695e-06
2.66723766e-06
2.63854296e-06
2.61006024e-06
2.58197457e-06
2.55409967e-06
2.52661431e-06
2.49933851e-06
2.47244481e-06
2.44575942e-06
2.41944874e-06
2.39334513e-06
2.36760887e-06
2.34207844e-06
2.31690805e-06
2.29194224e-06
2.26732922e-06
2.24291951e-06
2.21885538e-06
2.19499329e-06
2.17144485e-06
2.14724099e-06
2.1217031e-06
2.09463059e-06
2.06611919e-06
2.03595997e-06
2.00426688e-06
1.97082706e-06
1.93577581e-06
1.89890278e-06
1.86036799e-06
1.8199722e-06
1.77790366e-06
1.73398571e-06
1.6884379e-06
1.64112051e-06
1.59228683e-06
1.54185132e-06
1.49010172e-06
1.43702639e-06
1.38294551e-06
1.32794194e-06
1.27236213e-06
1.21640239e-06
1.16042326e-06
1.10474755e-06
1.04972984e-06
9.95820802e-07
9.43339195e-07
8.92846611e-07
8.44584834e-07
7.99184648e-07
7.56760501e-07
7.17939191e-07
6.82664952e-07
6.51438471e-07
6.2405845e-07
6.00678584e-07
5.81145645e-07
5.64968159e-07
5.52035999e-07
5.42008595e-07
5.3557507e-07
5.35544188e-07
5.35529651e-07
5.35522024e-07
5.35518623e-07
5.35517185e-07
5.35516693e-07
5.35516495e-07
5.35516402e-07
5.35516373e-07
5.35516365e-07
5.35516364e-07
5.35516363e-07
5.35516363e-07
5.35516363e-07
5.35516363e-07
5.35516363e-07
5.35516363e-07
5.35516363e-07
5.35516363e-07
5.35516363e-07
5.35516363e-07
5.35516363e-07
5.35516363e-07
5.35516363e-07
5.35516363e-07
5.35516363e-07
5.35516363e-07
5.35516363e-07
5.35516363e-07
5.35516363e-07
5.35516363e-07
5.35516363e-07
5.35516363e-07
5.35516363e-07
5.35516363e-07
)
;

boundaryField
{
    closed
    {
        type            calculated;
        value           nonuniform List<scalar> 0();
    }
    open
    {
        type            calculated;
        value           uniform 5.35516363e-07;
    }
    sides
    {
        type            empty;
    }
    procBoundary5to4
    {
        type            processor;
        value           uniform 0.000171744769;
    }
}


// ************************************************************************* //
