/*--------------------------------*- C++ -*----------------------------------*\
| =========                 |                                                 |
| \\      /  F ield         | OpenFOAM: The Open Source CFD Toolbox           |
|  \\    /   O peration     | Version:  2306                                  |
|   \\  /    A nd           | Website:  www.openfoam.com                      |
|    \\/     M anipulation  |                                                 |
\*---------------------------------------------------------------------------*/
FoamFile
{
    version     2.0;
    format      ascii;
    arch        "LSB;label=32;scalar=64";
    class       volScalarField;
    location    "0.00108";
    object      prefDZ_H2O;
}
// * * * * * * * * * * * * * * * * * * * * * * * * * * * * * * * * * * * * * //

dimensions      [1 -1 -1 0 0 0 0];

internalField   nonuniform List<scalar> 
530
(
2.20143686e-06
2.20429271e-06
2.20691561e-06
2.20953945e-06
2.21205715e-06
2.21458038e-06
2.21699899e-06
2.21942665e-06
2.22175183e-06
2.22408884e-06
2.22632587e-06
2.22857702e-06
2.23073091e-06
2.2329458e-06
2.235075e-06
2.23721201e-06
2.23919862e-06
2.24125921e-06
2.24316602e-06
2.2451539e-06
2.24698483e-06
2.2489034e-06
2.25066226e-06
2.25251472e-06
2.25420517e-06
2.25599463e-06
2.25762018e-06
2.25934961e-06
2.26091366e-06
2.2625859e-06
2.26409183e-06
2.26570956e-06
2.26716072e-06
2.2687108e-06
2.27008568e-06
2.27157589e-06
2.27289714e-06
2.27433616e-06
2.27560598e-06
2.27699716e-06
2.27822127e-06
2.27956821e-06
2.28074297e-06
2.2820442e-06
2.28317091e-06
2.2844291e-06
2.28550865e-06
2.28672681e-06
2.28775961e-06
2.28894115e-06
2.28992709e-06
2.29107593e-06
2.2920143e-06
2.29313507e-06
2.2940245e-06
2.29512272e-06
2.295961e-06
2.29704337e-06
2.29782737e-06
2.29884464e-06
2.29960374e-06
2.30058299e-06
2.30131447e-06
2.30221078e-06
2.3029381e-06
2.30377936e-06
2.30449854e-06
2.30528988e-06
2.30599839e-06
2.30674354e-06
2.30743987e-06
2.30814156e-06
2.30882496e-06
2.30948506e-06
2.31015545e-06
2.31077515e-06
2.31143305e-06
2.31201289e-06
2.31265953e-06
2.3131996e-06
2.31383686e-06
2.31433565e-06
2.31496576e-06
2.31542151e-06
2.31604799e-06
2.31645806e-06
2.31706386e-06
2.31746628e-06
2.31803636e-06
2.31842683e-06
2.31896593e-06
2.31934157e-06
2.31985315e-06
2.32021219e-06
2.32069876e-06
2.32104021e-06
2.32150357e-06
2.32182705e-06
2.32226852e-06
2.32257399e-06
2.32299456e-06
2.32328229e-06
2.32368274e-06
2.32395315e-06
2.32433412e-06
2.32458774e-06
2.32494982e-06
2.32518721e-06
2.32553099e-06
2.32574696e-06
2.32606237e-06
2.32625912e-06
2.32655677e-06
2.32673816e-06
2.32701825e-06
2.32718456e-06
2.32744726e-06
2.32759877e-06
2.32784427e-06
2.32798125e-06
2.32820975e-06
2.32833243e-06
2.32854415e-06
2.32865278e-06
2.32884792e-06
2.32894272e-06
2.32912147e-06
2.32920274e-06
2.32936522e-06
2.32943328e-06
2.32957958e-06
2.32963481e-06
2.32976496e-06
2.3298078e-06
2.32992175e-06
2.3299527e-06
2.33005041e-06
2.33006995e-06
2.33015141e-06
2.33015997e-06
2.33022527e-06
2.33022317e-06
2.33027257e-06
2.33025997e-06
2.3302939e-06
2.33027078e-06
2.3302899e-06
2.33025605e-06
2.33026113e-06
2.33021618e-06
2.33020796e-06
2.33015157e-06
2.33013031e-06
2.33006253e-06
2.33003291e-06
2.32995506e-06
2.32990809e-06
2.32981933e-06
2.32975931e-06
2.32966182e-06
2.32958807e-06
2.32948157e-06
2.32939485e-06
2.32927886e-06
2.32918e-06
2.32905433e-06
2.32894398e-06
2.32880865e-06
2.32868723e-06
2.32854245e-06
2.32841023e-06
2.32825632e-06
2.32811348e-06
2.32795079e-06
2.32779749e-06
2.32762634e-06
2.32746277e-06
2.32728346e-06
2.32710985e-06
2.32692263e-06
2.32673923e-06
2.32654431e-06
2.32635146e-06
2.32614901e-06
2.32594702e-06
2.32573723e-06
2.32552308e-06
2.32529873e-06
2.32507302e-06
2.32484175e-06
2.32460824e-06
2.32437027e-06
2.32412935e-06
2.3238849e-06
2.32363692e-06
2.32338623e-06
2.32313155e-06
2.32287487e-06
2.32261384e-06
2.32235144e-06
2.32208442e-06
2.32181656e-06
2.32154389e-06
2.32127086e-06
2.32099288e-06
2.32071499e-06
2.32043203e-06
2.3201496e-06
2.319862e-06
2.31957534e-06
2.31928342e-06
2.31899289e-06
2.318697e-06
2.31840293e-06
2.31810433e-06
2.31781642e-06
2.31752256e-06
2.31723186e-06
2.31693536e-06
2.31664206e-06
2.31634308e-06
2.3160474e-06
2.31574657e-06
2.31544938e-06
2.31514614e-06
2.31484563e-06
2.3145393e-06
2.31423574e-06
2.31392656e-06
2.31362019e-06
2.31330839e-06
2.31299944e-06
2.31268526e-06
2.31237398e-06
2.31205764e-06
2.31174425e-06
2.31142598e-06
2.3111107e-06
2.31079074e-06
2.31047378e-06
2.31015236e-06
2.30983394e-06
2.30951127e-06
2.30919161e-06
2.30886792e-06
2.30854722e-06
2.30822271e-06
2.30790119e-06
2.30757607e-06
2.30725393e-06
2.30692839e-06
2.30660586e-06
2.30628007e-06
2.30595735e-06
2.30563151e-06
2.3053088e-06
2.30497887e-06
2.30464645e-06
2.30431182e-06
2.30398064e-06
2.30364754e-06
2.30331775e-06
2.30298629e-06
2.30265804e-06
2.30232834e-06
2.30200177e-06
2.30167395e-06
2.30134921e-06
2.30102338e-06
2.3007006e-06
2.30037689e-06
2.30005617e-06
2.29973469e-06
2.29941617e-06
2.29909704e-06
2.29878083e-06
2.29846415e-06
2.29815035e-06
2.29783624e-06
2.29752496e-06
2.29721351e-06
2.29690487e-06
2.29659618e-06
2.29629026e-06
2.29598443e-06
2.29568134e-06
2.29537845e-06
2.29507828e-06
2.29477843e-06
2.29448126e-06
2.29418452e-06
2.29389044e-06
2.29359691e-06
2.293306e-06
2.29301574e-06
2.29272808e-06
2.29244116e-06
2.29215682e-06
2.29187331e-06
2.29159237e-06
2.29131234e-06
2.29103485e-06
2.29075836e-06
2.29048438e-06
2.29021149e-06
2.28994108e-06
2.28967186e-06
2.28940505e-06
2.28913956e-06
2.28887638e-06
2.28861468e-06
2.28835518e-06
2.28809732e-06
2.28784151e-06
2.28758754e-06
2.28733568e-06
2.28708845e-06
2.28684293e-06
2.2865991e-06
2.28635713e-06
2.28611678e-06
2.28587842e-06
2.28564162e-06
2.28540692e-06
2.28517376e-06
2.28494275e-06
2.28471331e-06
2.28448603e-06
2.28426035e-06
2.28403685e-06
2.28381499e-06
2.2835953e-06
2.28337729e-06
2.28316146e-06
2.28294734e-06
2.28273539e-06
2.28252518e-06
2.28231714e-06
2.28211088e-06
2.28190677e-06
2.28170446e-06
2.28150431e-06
2.28130598e-06
2.28110979e-06
2.28091544e-06
2.28072323e-06
2.28053287e-06
2.28034464e-06
2.28015828e-06
2.27997402e-06
2.27979166e-06
2.27961137e-06
2.27943302e-06
2.27925668e-06
2.27907995e-06
2.27889865e-06
2.27871949e-06
2.27854248e-06
2.27836755e-06
2.27819478e-06
2.27802406e-06
2.2778555e-06
2.27768896e-06
2.27752457e-06
2.27736217e-06
2.2772019e-06
2.27704361e-06
2.27688742e-06
2.2767332e-06
2.27658105e-06
2.27643085e-06
2.27628271e-06
2.27613649e-06
2.27599229e-06
2.27585e-06
2.27570971e-06
2.2755713e-06
2.27543487e-06
2.27530029e-06
2.27516766e-06
2.27503686e-06
2.27490798e-06
2.27478091e-06
2.27465573e-06
2.27453233e-06
2.27441079e-06
2.27429101e-06
2.27417305e-06
2.27405683e-06
2.2739424e-06
2.27382968e-06
2.27371872e-06
2.27360945e-06
2.2735019e-06
2.27339601e-06
2.27329181e-06
2.27318924e-06
2.27308833e-06
2.27298902e-06
2.27289135e-06
2.27279524e-06
2.27270073e-06
2.27260776e-06
2.27251635e-06
2.27242646e-06
2.2723381e-06
2.27225122e-06
2.27216583e-06
2.2720819e-06
2.27199944e-06
2.27191839e-06
2.27183878e-06
2.27176056e-06
2.27168374e-06
2.27160828e-06
2.27153419e-06
2.27146143e-06
2.27139e-06
2.27131987e-06
2.27125104e-06
2.27118349e-06
2.2711172e-06
2.27105215e-06
2.27098834e-06
2.27092573e-06
2.27086434e-06
2.27080412e-06
2.27074507e-06
2.27068717e-06
2.27063042e-06
2.27057478e-06
2.27052026e-06
2.27046682e-06
2.27041446e-06
2.27036317e-06
2.27031292e-06
2.27026371e-06
2.27021551e-06
2.27016831e-06
2.27012211e-06
2.27007688e-06
2.27003261e-06
2.26998928e-06
2.26994688e-06
2.26990541e-06
2.26986483e-06
2.26982514e-06
2.26978633e-06
2.26974838e-06
2.26971128e-06
2.26967501e-06
2.26963957e-06
2.26960489e-06
2.26956977e-06
2.26953308e-06
2.26949483e-06
2.26945503e-06
2.26941373e-06
2.26937096e-06
2.26932682e-06
2.26928139e-06
2.26923479e-06
2.26918716e-06
2.2691387e-06
2.26908958e-06
2.26904007e-06
2.26899041e-06
2.26894093e-06
2.26889192e-06
2.26884381e-06
2.2687969e-06
2.2687517e-06
2.26870853e-06
2.26866792e-06
2.26863018e-06
2.26859583e-06
2.2685651e-06
2.26853844e-06
2.26851595e-06
2.26849792e-06
2.26848428e-06
2.26847504e-06
2.26846996e-06
2.26846874e-06
2.26847095e-06
2.26847597e-06
2.26848328e-06
2.26849212e-06
2.26850187e-06
2.26851193e-06
2.26852164e-06
2.26853086e-06
2.26853915e-06
2.26854646e-06
2.26855137e-06
2.26854736e-06
2.26854547e-06
2.26854449e-06
2.26854406e-06
2.26854388e-06
2.26854382e-06
2.26854379e-06
2.26854378e-06
2.26854378e-06
2.26854378e-06
2.26854378e-06
2.26854378e-06
2.26854378e-06
2.26854378e-06
2.26854378e-06
2.26854378e-06
2.26854378e-06
2.26854378e-06
2.26854378e-06
2.26854378e-06
2.26854378e-06
2.26854378e-06
2.26854378e-06
2.26854378e-06
2.26854378e-06
2.26854378e-06
2.26854378e-06
2.26854378e-06
2.26854378e-06
2.26854378e-06
2.26854378e-06
2.26854378e-06
2.26854378e-06
2.26854378e-06
2.26854378e-06
)
;

boundaryField
{
    closed
    {
        type            calculated;
        value           nonuniform List<scalar> 0();
    }
    open
    {
        type            calculated;
        value           uniform 2.26854378e-06;
    }
    sides
    {
        type            empty;
    }
    procBoundary5to4
    {
        type            processor;
        value           uniform 2.19856683e-06;
    }
}


// ************************************************************************* //
