/*--------------------------------*- C++ -*----------------------------------*\
| =========                 |                                                 |
| \\      /  F ield         | OpenFOAM: The Open Source CFD Toolbox           |
|  \\    /   O peration     | Version:  2306                                  |
|   \\  /    A nd           | Website:  www.openfoam.com                      |
|    \\/     M anipulation  |                                                 |
\*---------------------------------------------------------------------------*/
FoamFile
{
    version     2.0;
    format      ascii;
    arch        "LSB;label=32;scalar=64";
    class       volScalarField;
    location    "0.00046";
    object      H2;
}
// * * * * * * * * * * * * * * * * * * * * * * * * * * * * * * * * * * * * * //

dimensions      [0 0 0 0 0 0 0];

internalField   nonuniform List<scalar> 
530
(
0.0109894122
0.0110139733
0.0107333087
0.0106680879
0.0106609162
0.0106824114
0.0110137446
0.0110039225
0.0107672412
0.0106629143
0.0106814972
0.0110174868
0.0109947606
0.0108092803
0.0106794581
0.0106623031
0.010662727
0.0110261385
0.0110069309
0.0108480792
0.0106745447
0.0106903896
0.0110223472
0.0109973047
0.0108653473
0.010687024
0.0106785087
0.0106621776
0.0106781571
0.0110343715
0.0110048802
0.0108750843
0.0106710464
0.0106769719
0.0110469122
0.0110234456
0.0106816371
0.0106756495
0.0110713399
0.0110193155
0.0106835349
0.0106573535
0.0110405436
0.0110301014
0.0106856862
0.0106764299
0.01104972
0.0110187789
0.0107885128
0.0106641976
0.0106664606
0.0110681176
0.0110235577
0.0107014552
0.0106778218
0.0110167033
0.0110212865
0.0107889021
0.0106637069
0.0106686378
0.01106049
0.0110420634
0.0107004913
0.0106886035
0.0109958234
0.0110463942
0.0107030509
0.0106773816
0.0109604679
0.0110243705
0.0108206606
0.0106670702
0.0106806356
0.0110593209
0.0110749457
0.0106904041
0.0106849212
0.0109918408
0.0110189388
0.0108289903
0.0106673264
0.0106820325
0.0110548891
0.0110570577
0.0106902186
0.010685349
0.0109893225
0.0110198501
0.0108426081
0.0106701373
0.0106677141
0.0109856776
0.0110230337
0.0108218059
0.0106682715
0.0106871421
0.0110711003
0.0110528372
0.0106919004
0.010684021
0.0109677771
0.0110198612
0.0108743884
0.0106731208
0.0106667482
0.0109509312
0.0110233681
0.0108342697
0.0106685121
0.0106898431
0.0110642162
0.0110627697
0.0106920293
0.0106787333
0.0108961531
0.0110213072
0.0109580096
0.0106776455
0.0106677343
0.0108929296
0.0110225508
0.0109387288
0.0106757152
0.0106674639
0.0109034208
0.0110220403
0.0109239841
0.0106767466
0.0106719301
0.0109781072
0.0110212043
0.0108346943
0.0106693869
0.0106838013
0.0110516011
0.0110331098
0.0107138528
0.0106701805
0.0108092432
0.0110308829
0.0109537367
0.0106774826
0.010675068
0.0110332607
0.0110274003
0.0107688115
0.0106693838
0.0107474237
0.0110311922
0.0109797502
0.0106964393
0.0106991263
0.0108529589
0.0108837821
0.0107807732
0.0107568837
0.0108033039
0.01082896
0.0108081333
0.0107921471
0.0107990782
0.01080787
0.0108061733
0.0108019652
0.0108021229
0.0108039598
0.010804069
0.0108033877
0.0108031112
0.0108033073
0.0108038581
0.010803934
0.0108029004
0.010802216
0.0108041162
0.0108068179
0.0108036833
0.0107950877
0.0107987935
0.0108224728
0.010821958
0.010768066
0.0107644021
0.0108591915
0.0108828349
0.0107493376
0.0106996799
0.0108316014
0.011056086
0.0108205732
0.0106735179
0.0107164381
0.0110372991
0.0109733137
0.0106768435
0.0107016245
0.0110339302
0.0110315637
0.0106886487
0.0106691633
0.0108161832
0.011034039
0.0108945784
0.010670293
0.0106948161
0.0110469288
0.0110058328
0.010679264
0.0106944016
0.011040754
0.0110256744
0.0107126535
0.010664994
0.0107289268
0.0110431843
0.01099851
0.0106801827
0.0106924733
0.0110448085
0.0110247507
0.0107219559
0.0106658404
0.010727889
0.0110453283
0.0110009004
0.0106798285
0.0106889193
0.0110490812
0.0110207788
0.0107437702
0.010669755
0.0107087969
0.0110467041
0.011030874
0.0107130438
0.0106655576
0.0107486444
0.0110432796
0.0109865927
0.0106818841
0.0106893306
0.011053502
0.0110188857
0.0107654589
0.0106665746
0.0106860523
0.0110587345
0.0110233991
0.0107540649
0.0106681428
0.0106948796
0.0110553133
0.0110310492
0.0107132008
0.0106695044
0.0108117172
0.0110320789
0.0109438834
0.0106906562
0.0106910326
0.0108655147
0.0109659293
0.0107914427
0.010731187
0.0107792511
0.010843592
0.0108255917
0.0107851876
0.0107883184
0.0108097833
0.0108112652
0.0108025888
0.0108002055
0.0108029911
0.0108046833
0.0108039485
0.010803068
0.0108032017
0.0108035764
0.0108035753
0.0108034365
0.0108034215
0.0108034596
0.0108034727
0.0108034634
0.010803457
0.0108034588
0.0108034611
0.0108034609
0.0108034601
0.0108034601
0.0108034603
0.0108034603
0.0108034603
0.0108034603
0.0108034603
0.0108034603
0.0108034603
0.0108034603
0.0108034603
0.0108034603
0.0108034603
0.0108034603
0.0108034603
0.0108034603
0.0108034603
0.0108034603
0.0108034603
0.0108034603
0.0108034603
0.0108034603
0.0108034603
0.0108034603
0.0108034603
0.0108034603
0.0108034603
0.0108034603
0.0108034603
0.0108034603
0.0108034603
0.0108034603
0.0108034603
0.0108034603
0.0108034603
0.0108034603
0.0108034603
0.0108034603
0.0108034603
0.0108034603
0.0108034603
0.0108034603
0.0108034603
0.0108034603
0.0108034603
0.0108034603
0.0108034603
0.0108034603
0.0108034603
0.0108034603
0.0108034603
0.0108034603
0.0108034603
0.0108034603
0.0108034603
0.0108034603
0.0108034603
0.0108034603
0.0108034603
0.0108034603
0.0108034603
0.0108034603
0.0108034603
0.0108034603
0.0108034603
0.0108034603
0.0108034603
0.0108034603
0.0108034603
0.0108034603
0.0108034603
0.0108034603
0.0108034603
0.0108034602
0.0108034603
0.0108034605
0.0108034605
0.0108034596
0.0108034593
0.0108034622
0.0108034643
0.0108034567
0.0108034463
0.0108034629
0.0108035061
0.0108034807
0.0108033237
0.0108033231
0.0108038344
0.0108038959
0.0108027008
0.0108021667
0.0108047149
0.0108070381
0.0108023532
0.010794566
0.0108016205
0.0108233173
0.0108171237
0.010766784
0.0107661398
0.0108652691
0.0108810395
0.0107389769
0.0107021628
0.0108574106
0.0110790641
0.0107434917
0.0106752055
0.010893303
0.0110330727
0.0108783619
0.0106788837
0.0106743245
0.010977987
0.0110291192
0.0107448676
0.0106685286
0.0108733442
0.0110372633
0.0107586174
0.0106743419
0.0108835308
0.0110325027
0.0108871184
0.0106756801
0.010666577
0.0109348344
0.0110308711
0.0107572623
0.0106777978
0.0108909669
0.0110289487
0.0108977223
0.0106744472
0.010666207
0.0109412082
0.0110315308
0.0107554429
0.0106790268
0.0108916568
0.0110270672
0.0108995656
0.0106751111
0.01066692
0.0109547301
0.0110258323
0.0107678603
0.0106745614
0.0108501879
0.0110303552
0.0109374402
0.0106774112
0.0106647368
0.0108939342
0.0110257999
0.0108262585
0.0106722841
0.0107313617
0.0110394081
0.0110550101
0.0107053883
0.0106796814
0.0107610779
0.0110649646
0.0109038163
0.0107124794
0.0107222733
0.0108013366
0.0108700387
0.0108733244
0.0107867489
0.0107110151
0.0107343784
0.0109995282
0.010989017
0.0106917797
0.0106797498
0.0109297274
0.0110299435
0.0107677182
0.0106680334
0.0108029459
0.0110357164
0.0108162623
0.0106730333
0.0108074379
0.0110339016
0.0107993609
0.0106722689
0.0107957643
0.0110286575
0.0110034649
0.0106808345
0.0106635536
0.0108406338
0.0110260071
0.0108044465
0.0106810219
0.0108160418
0.0110149366
0.0110673448
0.0107216657
0.0106664577
0.0106581324
0.0108190023
0.0110263789
0.0108386504
0.010682036
0.0107459057
0.0110326039
0.0110016054
0.0108773329
0.0106894721
0.0106633366
0.0106602762
0.0108634884
0.0110249048
0.0107766767
0.0106811036
0.010919163
0.0110183869
0.010766994
0.0106792138
0.0108696228
0.0110183895
0.0110097949
0.01067688
0.0106630438
0.0108312445
0.0110180369
0.0110650616
0.0107060476
0.0106581881
0.0106505836
0.0110783785
0.0110187283
0.0107397091
0.0106762439
0.0109317377
0.0110210438
)
;

boundaryField
{
    closed
    {
        type            calculated;
        value           nonuniform List<scalar> 0();
    }
    open
    {
        type            calculated;
        value           nonuniform List<scalar> 0();
    }
    sides
    {
        type            empty;
    }
    procBoundary2to1
    {
        type            processor;
        value           uniform 0.0110348576;
    }
    procBoundary2to3
    {
        type            processor;
        value           uniform 0.0107570566;
    }
}


// ************************************************************************* //
