/*--------------------------------*- C++ -*----------------------------------*\
| =========                 |                                                 |
| \\      /  F ield         | OpenFOAM: The Open Source CFD Toolbox           |
|  \\    /   O peration     | Version:  2306                                  |
|   \\  /    A nd           | Website:  www.openfoam.com                      |
|    \\/     M anipulation  |                                                 |
\*---------------------------------------------------------------------------*/
FoamFile
{
    version     2.0;
    format      ascii;
    arch        "LSB;label=32;scalar=64";
    class       surfaceScalarField;
    location    "0.00046";
    object      phi;
}
// * * * * * * * * * * * * * * * * * * * * * * * * * * * * * * * * * * * * * //

dimensions      [1 0 -1 0 0 0 0];

oriented        oriented;

internalField   nonuniform List<scalar> 
529
(
3.19872856e-06
3.40983662e-06
3.59083236e-06
3.80968549e-06
4.00625814e-06
3.96234668e-06
4.06394356e-06
4.24391362e-06
4.52338959e-06
4.80530764e-06
4.77759875e-06
4.89506455e-06
5.1083662e-06
5.45504611e-06
5.81679707e-06
6.11601457e-06
6.13978416e-06
6.29979947e-06
6.63676099e-06
7.23121068e-06
7.73269849e-06
7.68720847e-06
7.90170925e-06
8.30109308e-06
9.00007928e-06
9.58128447e-06
1.00296547e-05
1.04514873e-05
1.03084578e-05
1.04389865e-05
1.08077897e-05
1.16010275e-05
1.23003784e-05
1.26809416e-05
1.24870943e-05
1.28886452e-05
1.42086485e-05
1.4634961e-05
1.44270619e-05
1.48357055e-05
1.64383065e-05
1.70086932e-05
1.62213556e-05
1.66901379e-05
1.83299667e-05
1.88665352e-05
1.81186108e-05
1.85904723e-05
1.94759956e-05
2.0327243e-05
1.98379101e-05
1.97981521e-05
2.00994216e-05
2.05225498e-05
2.09261451e-05
1.9909569e-05
2.01449424e-05
2.08360562e-05
2.13871373e-05
2.10542359e-05
1.98986459e-05
1.99841104e-05
1.99857966e-05
1.98220544e-05
1.85467632e-05
1.83481422e-05
1.82066656e-05
1.80219016e-05
1.6728201e-05
1.63082342e-05
1.63319202e-05
1.61988296e-05
1.49723119e-05
1.42652547e-05
1.40451413e-05
1.43738007e-05
1.3811131e-05
1.25871542e-05
1.20521962e-05
1.18985333e-05
1.16053036e-05
1.05308529e-05
9.97253388e-06
9.77878817e-06
9.78442981e-06
9.14395014e-06
8.24291158e-06
7.80451899e-06
7.61365007e-06
7.35374794e-06
6.9611766e-06
6.22254163e-06
5.82943979e-06
5.60365345e-06
5.26831682e-06
4.60829022e-06
4.46312617e-06
4.66721821e-06
4.34305248e-06
3.92319578e-06
3.51503457e-06
3.25106053e-06
3.06621849e-06
2.81335063e-06
2.53312209e-06
2.22345509e-06
1.99883296e-06
1.81951348e-06
1.53470314e-06
1.38689721e-06
1.35907927e-06
1.37700494e-06
1.13608225e-06
8.2950581e-07
6.14829526e-07
4.76241734e-07
4.04820299e-07
1.88597426e-07
-1.64817349e-08
-1.56136352e-07
-2.49006521e-07
-3.42883282e-07
-5.66217801e-07
-7.22925754e-07
-7.93272943e-07
-8.92403498e-07
-1.00572087e-06
-1.2582215e-06
-1.36870381e-06
-1.25180414e-06
-1.35269669e-06
-1.51616068e-06
-1.67725517e-06
-1.73550025e-06
-1.58367689e-06
-1.59365063e-06
-1.61768163e-06
-1.66566836e-06
-1.62237575e-06
-1.57741241e-06
-1.53450289e-06
-1.63885938e-06
-1.61956084e-06
-1.21436488e-06
-1.1532763e-06
-1.12832171e-06
-1.12181704e-06
-1.03443394e-06
-9.07457351e-07
-6.78534202e-07
-6.05130671e-07
-5.09787461e-07
-3.96525523e-07
-2.64113982e-07
-1.86062351e-07
-1.06253052e-07
-1.37025592e-08
9.12956357e-08
1.86908992e-07
2.7168768e-07
3.57449832e-07
4.44731636e-07
5.27241361e-07
6.03683534e-07
6.77104607e-07
7.48998153e-07
8.18892531e-07
8.86797301e-07
9.53365605e-07
1.01930718e-06
1.08526304e-06
1.15138287e-06
1.21738424e-06
1.28332501e-06
1.35045621e-06
1.42010963e-06
1.48900355e-06
1.55173182e-06
1.61186658e-06
1.68513329e-06
1.7616224e-06
1.81113921e-06
1.85594548e-06
1.92281078e-06
2.01052371e-06
2.0601311e-06
1.98303526e-06
1.98843336e-06
2.12556233e-06
2.23808013e-06
2.20429228e-06
2.25223993e-06
2.2911166e-06
2.64035012e-06
2.66071064e-06
2.72643935e-06
2.7812729e-06
2.87430855e-06
3.06177661e-06
3.04245974e-06
2.97658746e-06
3.00542923e-06
3.23276372e-06
3.28128554e-06
3.38838686e-06
3.44786324e-06
3.90155929e-06
3.91911486e-06
3.62453888e-06
3.66676099e-06
3.71751233e-06
3.76909602e-06
3.76663828e-06
3.7500274e-06
3.73231802e-06
4.10790386e-06
4.05085753e-06
3.68005576e-06
3.66132223e-06
3.6213741e-06
3.58721222e-06
3.49397645e-06
3.42298925e-06
3.40026032e-06
3.76483987e-06
3.70223369e-06
3.38043157e-06
3.40333664e-06
3.36452522e-06
3.35060587e-06
3.2646636e-06
3.20560399e-06
3.22903166e-06
3.25180374e-06
3.24968513e-06
3.17967799e-06
3.12372621e-06
3.15292223e-06
3.5201589e-06
3.50370914e-06
3.28379254e-06
3.4171012e-06
3.47596054e-06
3.59148734e-06
3.63871533e-06
3.48686375e-06
3.63718488e-06
3.72018739e-06
3.84070647e-06
3.88811904e-06
3.96628479e-06
4.10149319e-06
4.23387751e-06
4.33374035e-06
4.38391187e-06
4.32142614e-06
4.41584335e-06
4.79099108e-06
4.91543822e-06
4.88637293e-06
4.8474572e-06
5.03505753e-06
5.15492577e-06
5.22299641e-06
5.25862664e-06
5.33353319e-06
5.43359922e-06
5.50375662e-06
5.56540918e-06
5.63729879e-06
5.71346591e-06
5.78625129e-06
5.850662e-06
5.91006414e-06
5.9659297e-06
6.01593717e-06
6.05856439e-06
6.09435046e-06
6.12392074e-06
6.14735876e-06
6.16502496e-06
6.17745223e-06
6.18540538e-06
6.18966381e-06
6.19099331e-06
6.19013844e-06
6.1877504e-06
6.18428872e-06
6.17995828e-06
6.1746878e-06
6.16814801e-06
6.15981065e-06
6.14904324e-06
6.1352193e-06
6.11782468e-06
6.0965433e-06
6.07131317e-06
6.04235085e-06
6.0101481e-06
5.97544752e-06
5.93920392e-06
5.90253652e-06
5.86667524e-06
5.83290296e-06
5.80249576e-06
5.77666409e-06
5.75649913e-06
5.7429293e-06
5.73669115e-06
5.73831775e-06
5.74814475e-06
5.76633188e-06
5.79289546e-06
5.82774608e-06
5.87072578e-06
5.92163992e-06
5.98028073e-06
6.04644138e-06
6.11992146e-06
6.20052576e-06
6.28805916e-06
6.38232019e-06
6.4830957e-06
6.59015822e-06
6.70326672e-06
6.82217101e-06
6.94661948e-06
7.0763694e-06
7.21119902e-06
7.35092058e-06
7.49539334e-06
7.64453568e-06
7.7983354e-06
7.95685734e-06
8.1202474e-06
8.28873228e-06
8.46261452e-06
8.64226244e-06
8.82809539e-06
9.02056463e-06
9.22013087e-06
9.42723956e-06
9.64229533e-06
9.86563709e-06
1.00975154e-05
1.03380738e-05
1.05873351e-05
1.08451954e-05
1.11114262e-05
1.13856861e-05
1.1667543e-05
1.19565071e-05
1.2252073e-05
1.25537683e-05
1.28612048e-05
1.31741254e-05
1.3492438e-05
1.38162267e-05
1.41457288e-05
1.44812682e-05
1.48231364e-05
1.51714233e-05
1.5525805e-05
1.58853141e-05
1.62481317e-05
1.66114488e-05
1.69714549e-05
1.73234858e-05
1.76623505e-05
1.79827987e-05
1.82800085e-05
1.85499731e-05
1.87897847e-05
1.89977865e-05
1.91732194e-05
1.93154429e-05
1.94243783e-05
1.9500228e-05
1.95441353e-05
1.95573527e-05
1.9537271e-05
1.94830319e-05
1.94068493e-05
1.93169742e-05
1.91921536e-05
1.90187569e-05
1.88494067e-05
1.87317211e-05
1.85476772e-05
1.83172987e-05
1.78911911e-05
1.76628327e-05
1.744248e-05
1.71822575e-05
1.64366577e-05
1.62223383e-05
1.60503804e-05
1.58159311e-05
1.46779974e-05
1.42898599e-05
1.4424084e-05
1.44150803e-05
1.40614596e-05
1.29018463e-05
1.25287538e-05
1.23195303e-05
1.20885283e-05
1.12416521e-05
1.08759808e-05
1.06648944e-05
1.04024747e-05
9.59927923e-06
9.26084738e-06
9.25711015e-06
9.13922138e-06
8.79926438e-06
8.02884566e-06
7.70374527e-06
7.47943383e-06
7.19073513e-06
6.59319144e-06
6.32514396e-06
6.29795109e-06
6.15574705e-06
5.87214166e-06
5.36209595e-06
5.13494827e-06
4.94883426e-06
4.68595557e-06
4.27218499e-06
4.06852192e-06
4.01133917e-06
3.82859607e-06
3.58151097e-06
3.26255031e-06
3.0720899e-06
2.89492297e-06
2.65499055e-06
2.35147756e-06
2.20386023e-06
2.16569944e-06
1.96441656e-06
1.72670439e-06
1.49425357e-06
1.34030804e-06
1.19926478e-06
9.64588984e-07
8.16408143e-07
7.82043038e-07
8.36684684e-07
7.12524465e-07
4.09526306e-07
2.81842438e-07
3.28272712e-07
3.13969586e-07
2.18088071e-07
1.20590661e-07
2.57535103e-08
-2.03495009e-08
-6.844039e-08
-1.3947184e-07
-1.88354914e-07
-2.51243657e-07
-9.83994971e-08
3.39370102e-08
-1.32570108e-07
-2.60789712e-07
-1.4033239e-07
-1.04671141e-07
-1.04923307e-07
-1.70509814e-07
-1.14038084e-07
-1.24842987e-08
3.68635462e-08
-9.35543566e-09
5.44420859e-08
1.69384273e-07
2.42779743e-07
2.38339909e-07
2.97036447e-07
4.46881502e-07
7.75920536e-07
8.6114136e-07
9.13288489e-07
1.03152774e-06
1.1947033e-06
1.3700897e-06
1.47483585e-06
1.54702372e-06
1.72205136e-06
2.15688973e-06
2.32516157e-06
2.45879134e-06
2.65041419e-06
2.73306834e-06
2.91291665e-06
3.21156298e-06
3.37442409e-06
3.52106957e-06
3.69757855e-06
3.88761862e-06
4.18277365e-06
4.44968843e-06
4.68615338e-06
4.88507485e-06
4.86803183e-06
5.03286993e-06
5.28775274e-06
5.47679706e-06
5.46826052e-06
5.6275449e-06
5.87944549e-06
6.08203139e-06
5.97223726e-06
6.11187598e-06
6.75658846e-06
7.13578502e-06
7.24699187e-06
7.06768937e-06
7.13115226e-06
7.8844366e-06
8.02062592e-06
8.06975162e-06
8.051524e-06
7.92713769e-06
7.9918297e-06
8.11114764e-06
8.21352708e-06
7.92049617e-06
)
;

boundaryField
{
    closed
    {
        type            calculated;
        value           nonuniform List<scalar> 0();
    }
    open
    {
        type            calculated;
        value           nonuniform List<scalar> 0();
    }
    sides
    {
        type            empty;
        value           nonuniform List<scalar> 0();
    }
    procBoundary2to1
    {
        type            processor;
        value           uniform -3.05442614e-06;
    }
    procBoundary2to3
    {
        type            processor;
        value           uniform 7.95526942e-06;
    }
}


// ************************************************************************* //
