/*--------------------------------*- C++ -*----------------------------------*\
| =========                 |                                                 |
| \\      /  F ield         | OpenFOAM: The Open Source CFD Toolbox           |
|  \\    /   O peration     | Version:  2306                                  |
|   \\  /    A nd           | Website:  www.openfoam.com                      |
|    \\/     M anipulation  |                                                 |
\*---------------------------------------------------------------------------*/
FoamFile
{
    version     2.0;
    format      ascii;
    arch        "LSB;label=32;scalar=64";
    class       volScalarField;
    location    "0.0018";
    object      sourcePV;
}
// * * * * * * * * * * * * * * * * * * * * * * * * * * * * * * * * * * * * * //

dimensions      [1 -3 -1 0 0 0 0];

internalField   nonuniform List<scalar> 
531
(
0.159540221
0.158975746
0.00376962818
0.00570082249
0.0901994388
0.160560361
0.15990905
0.00370765878
0.00567250121
0.0942589819
0.163197722
0.162682091
0.00364269431
0.00555096334
0.0986780213
0.167470324
0.165982632
0.00341619909
0.00590624773
0.123425952
0.144531184
0.00342428147
0.00610814497
0.123649629
0.143865266
0.00353926319
0.0057583842
0.100147143
0.167781969
0.166610539
0.00311602334
0.00611334312
0.00582816031
0.108015112
0.157209516
0.156458206
0.186682702
0.185391251
0.0137954514
0.00514818385
0.00430439659
0.00530286892
0.00550022148
0.00548805475
0.0754561146
0.168745784
0.16769572
0.00305116178
0.0053730672
0.106791611
0.182168985
0.181411921
0.00298960076
0.00591235041
0.00558203639
0.118859487
0.149814971
0.00340382702
0.00611787556
0.124009982
0.140061425
0.00357052772
0.0062593623
0.0903989613
0.136065345
0.137095975
0.146235775
0.147507136
0.169756668
0.168303213
0.00266375232
0.00579562162
0.00494374853
0.00609552196
0.101041089
0.134368949
0.00377941186
0.00605821789
0.0948980303
0.157147178
0.156309492
0.00356840826
0.00570454558
0.0998066289
0.164630999
0.163658142
0.00345819862
0.00553490603
0.101689665
0.171848771
0.171216617
0.00337316382
0.00603588277
0.00576459675
0.112306042
0.14382944
0.00362472936
0.00609120612
0.107189966
0.142778371
0.162410087
0.161305205
0.00325537269
0.00585024408
0.126000064
0.146635209
0.00344824663
0.00574870797
0.106846461
0.163435953
0.162322292
0.00346220595
0.00556602528
0.103431825
0.16671688
0.165689442
0.00338521965
0.00540595825
0.108998475
0.177366225
0.176219309
0.00281083736
0.00545357304
0.00509141269
0.005562172
0.091504043
0.165522081
0.164062448
0.00342184222
0.00587508345
0.123409974
0.147122921
0.003624158
0.00580153573
0.10910753
0.163608318
0.16248642
0.00361618598
0.00566366391
0.104469304
0.163384954
0.162547488
0.00369639069
0.00562546182
0.103566783
0.165378365
0.164257639
0.00367691973
0.00621498644
0.00595101079
0.109378059
0.159951164
0.158271782
0.00373669983
0.00605312816
0.121793846
0.142919389
0.00394235543
0.00598510759
0.106263306
0.15706115
0.156375671
0.0040149789
0.0057952803
0.0996015459
0.157503924
0.156210619
0.00400331141
0.00612109155
0.118411944
0.137873227
0.00415941271
0.00624983588
0.107816145
0.139628926
0.156856039
0.156207945
0.00382159544
0.00554173697
0.118991583
0.177101143
0.176460273
0.00383155271
0.00579346331
0.00570033792
0.136652621
0.147236356
0.00341907704
0.127160227
0.181534384
0.00293544673
0.0054066525
0.00482264679
0.0057096362
0.136757725
0.147912629
0.00355932738
0.125964996
0.169846085
0.00349173169
0.0059515206
0.0055208523
0.122439787
0.174187084
0.173239199
0.00406648495
0.00529128663
0.119627173
0.180208523
0.176947757
0.00423015918
0.00580542887
0.00560021226
0.134038751
0.145358083
0.00398545889
0.124611719
0.166410836
0.00393284278
0.00599937078
0.00558177375
0.122698161
0.169668521
0.168864417
0.00445233563
0.00536578812
0.122510654
0.176097646
0.175588826
0.004356141
0.0049870241
0.130804688
0.201277912
0.196920442
0.00352001458
0.00519716843
0.00440654447
0.00552607156
0.00513766686
0.00597306398
0.00583068479
0.127983023
0.166723661
0.182890177
0.182617473
0.00375005096
0.00549922645
0.160372866
0.160316101
0.0036583667
0.00618301799
0.0050750344
0.105079292
0.181719441
0.159274546
0.00447354738
0.125819352
0.17253373
0.00452488728
0.00568642365
0.148239907
0.150778162
0.00412627031
0.00630320398
0.00546537059
0.10980306
0.16836595
0.161797297
0.00487863261
0.0061934391
0.00594376557
0.12049066
0.160413827
0.155618736
0.185455042
0.184525775
0.0038185356
0.00559686253
0.00496569952
0.00599033545
0.00586317085
0.131693498
0.153051547
0.00498703099
0.0058910028
0.125026761
0.152351765
0.162936316
0.162821357
0.00451562016
0.00579058798
0.137509973
0.152664206
0.00493102864
0.00567850977
0.123540284
0.16561808
0.164603136
0.00484935268
0.00580898984
0.132987989
0.153958073
0.00496996789
0.00560996305
0.125822491
0.173058799
0.171949927
0.004665474
0.00579191223
0.148174638
0.154364532
0.00414697703
0.00610651374
0.00541512801
0.137035399
0.15499302
0.00433126238
0.00625966873
0.00561667284
0.127903511
0.177156385
0.175896845
0.00466966329
0.00574076526
0.139285645
0.15611401
0.00457998428
0.00598476382
0.137994252
0.149869567
0.00482068898
0.00597750621
0.125174029
0.151138017
0.16562904
0.164914743
0.00430233311
0.00576378418
0.147179059
0.157930444
0.00433251385
0.0058787831
0.150354625
0.155614687
0.0041196561
0.00587671604
0.00547148631
0.00593071479
0.108793652
0.147450284
0.158830124
0.159300251
0.00464661586
0.00541970624
0.132345229
0.181280689
0.180014734
0.00458083298
0.00557560199
0.149930528
0.164657266
0.00425989395
0.00579738265
0.157559293
0.158372177
0.00405361637
0.00604543878
0.00537504601
0.135754033
0.160132155
0.0047897296
0.0057921998
0.141662874
0.155555615
0.00501099256
0.00560574143
0.127162221
0.170006689
0.168944595
0.00499667749
0.00578871122
0.134927333
0.1525398
0.00514249474
0.00570673828
0.124107829
0.166747177
0.165858812
0.00508356707
0.00581894673
0.13454164
0.152193266
0.00522734931
0.00567202133
0.125964093
0.169802048
0.168520375
0.00499352218
0.00586447054
0.138718132
0.15294007
0.00489420194
0.00607175278
0.141990763
0.150171994
0.00497002025
0.00605198335
0.140167576
0.151367049
0.00528977103
0.00570835966
0.126962336
0.170315803
0.169068862
0.00509025246
0.0058750477
0.14152534
0.154501483
0.00491155373
0.00611216187
0.149209368
0.148700516
0.00481929832
0.00633124423
0.00584077424
0.132726245
0.152412433
0.00557582171
0.00580029314
0.122505087
0.162463505
0.161285214
0.00550309384
0.00612582271
0.127621628
0.140114398
0.00560900404
0.00638572907
0.105967604
0.13617629
0.147193848
0.146863054
0.00549485399
0.00615891859
0.118476163
0.142188831
0.154920378
0.154025878
0.00522285985
0.123516841
0.165234726
0.00530639921
0.00568882957
0.141062884
0.161121977
0.00532076471
0.0054256833
0.132294786
0.183311455
0.177992091
0.00461233827
0.00578495977
0.00523186437
0.00619796616
0.00585941285
0.124899854
0.163070482
0.162157962
0.00535742207
0.00556481661
0.118236714
0.175938024
0.157381279
0.00482454817
0.131420532
0.175727101
0.00494191867
0.00552407784
0.158639814
0.165951238
0.00435160096
0.00566332818
0.00522496484
0.00572619697
0.135502329
0.158606547
0.00543912822
0.00557889376
0.128670066
0.174628527
0.170349286
0.00509535954
0.00601505576
0.00585177976
0.132710086
0.158262941
0.174275254
0.173904526
0.00463468186
0.00600098294
0.00521344225
0.124894054
0.156349735
0.00543729079
0.00605542273
0.132716236
0.140612255
0.00558084251
0.00629328986
0.104334458
0.137257065
0.149111195
0.148977965
0.0054294623
0.00590294275
0.119343155
0.15796501
0.15730552
0.00556400592
0.00584355491
0.114948875
0.15916
0.158863002
0.00556420074
0.00570633172
0.116532369
0.166172452
0.159881966
0.00515171561
0.00626539603
0.00584596598
)
;

boundaryField
{
    closed
    {
        type            calculated;
        value           nonuniform List<scalar> 0();
    }
    open
    {
        type            calculated;
        value           nonuniform List<scalar> 0();
    }
    sides
    {
        type            empty;
    }
    procBoundary3to2
    {
        type            processor;
        value           uniform 0;
    }
    procBoundary3to4
    {
        type            processor;
        value           uniform 0;
    }
}


// ************************************************************************* //
