/*--------------------------------*- C++ -*----------------------------------*\
| =========                 |                                                 |
| \\      /  F ield         | OpenFOAM: The Open Source CFD Toolbox           |
|  \\    /   O peration     | Version:  2306                                  |
|   \\  /    A nd           | Website:  www.openfoam.com                      |
|    \\/     M anipulation  |                                                 |
\*---------------------------------------------------------------------------*/
FoamFile
{
    version     2.0;
    format      ascii;
    arch        "LSB;label=32;scalar=64";
    class       volScalarField;
    location    "0.00026";
    object      h;
}
// * * * * * * * * * * * * * * * * * * * * * * * * * * * * * * * * * * * * * //

dimensions      [0 2 -2 0 0 0 0];

internalField   nonuniform List<scalar> 
530
(
5983.88664
3238.47782
-346.077621
1191.75206
3618.52636
3107.07744
1569.76889
1725.3645
2585.59743
2567.601
2154.14766
2142.01037
2307.16262
2328.44591
2268.11973
2254.34277
2273.42259
2279.74455
2274.61077
2273.07287
2274.28909
2273.69242
2272.17221
2273.68941
2276.18841
2275.39909
2271.66411
2271.71058
2274.97453
2276.1339
2274.16992
2272.06448
2272.72937
2275.09523
2275.03689
2273.42632
2273.19797
2274.02778
2274.22243
2273.64949
2273.59796
2274.43054
2274.46317
2273.21562
2272.96004
2274.39974
2275.0833
2273.80521
2272.67028
2273.53782
2274.95417
2274.54939
2273.09215
2273.18211
2274.43457
2274.46804
2273.5737
2273.43651
2274.13121
2274.33168
2273.70133
2273.38685
2273.97923
2274.4992
2274.03085
2273.24898
2273.47275
2274.4874
2274.45493
2273.52058
2273.35738
2274.01311
2274.3272
2273.93943
2273.5884
2273.78863
2274.10118
2274.00552
2273.74741
2273.79054
2274.00713
2273.99485
2273.80854
2273.80902
2273.95048
2273.96382
2273.85974
2273.83455
2273.9106
2273.95667
2273.92305
2273.8245
2273.82325
2273.91695
2274.01187
2273.97851
2273.74601
2273.70415
2273.97534
2274.1862
2273.99151
2273.54412
2273.59083
2274.17731
2274.30968
2273.85988
2273.4658
2273.61481
2274.24586
2274.27621
2273.83324
2273.53713
2273.66862
2274.16519
2274.18994
2273.83413
2273.62566
2273.79134
2274.0985
2274.06505
2273.77093
2273.7488
2273.93308
2273.99758
2273.90131
2273.83145
2273.87343
2273.9287
2273.91483
2273.87787
2273.88064
2273.90195
2273.90198
2273.89236
2273.89129
2273.895
2273.89592
2273.89468
2273.8941
2273.89452
2273.8948
2273.89465
2273.89455
2273.89459
2273.89463
2273.89462
2273.8946
2273.89461
2273.89461
2273.89461
2273.89461
2273.89461
2273.89461
2273.89461
2273.89461
2273.89461
2273.89461
2273.89461
2273.89461
2273.89461
2273.89461
2273.89461
2273.89461
2273.89461
2273.89461
2273.89461
2273.89461
2273.89461
2273.89461
2273.89461
2273.89461
2273.89461
2273.89461
2273.89461
2273.89461
2273.89461
2273.89461
2273.89461
2273.89461
2273.89461
2273.89461
2273.89461
2273.89461
2273.89461
2273.89461
2273.89461
2273.89461
2273.89461
2273.89462
2273.89462
2273.89458
2273.89457
2273.89468
2273.89475
2273.89454
2273.8942
2273.89443
2273.89569
2273.89575
2273.8926
2273.89099
2273.89631
2273.90394
2273.89923
2273.87488
2273.87534
2273.92197
2273.94083
2273.87746
2273.80713
2273.86321
2274.02841
2274.01234
2273.74359
2273.68629
2273.98087
2274.18553
2273.95319
2273.56034
2273.64653
2274.21241
2274.22775
2273.72942
2273.55105
2273.8838
2274.18707
2274.03858
2273.68793
2273.71347
2273.99509
2274.03536
2273.8879
2273.80563
2273.85819
2273.94119
2273.93354
2273.87851
2273.87084
2273.89269
2273.90618
2273.90126
2273.88966
2273.88998
2273.89567
2273.89682
2273.89495
2273.89362
2273.89419
2273.895
2273.89486
2273.89446
2273.8945
2273.89466
2273.89465
2273.8946
2273.8946
2273.89461
2273.89461
2273.89461
2273.89461
2273.89461
2273.89461
2273.89461
2273.89461
2273.89461
2273.89461
2273.89461
2273.89461
2273.89461
2273.89461
2273.89461
2273.89461
2273.89461
2273.89461
2273.89461
2273.89461
2273.89461
2273.89461
2273.89461
2273.89461
2273.89461
2273.89461
2273.89461
2273.89461
2273.89461
2273.89461
2273.89461
2273.89461
2273.89461
2273.89461
2273.89461
2273.89461
2273.89461
2273.89461
2273.89461
2273.89461
2273.89461
2273.89461
2273.89461
2273.89461
2273.89461
2273.89461
2273.89461
2273.89461
2273.89461
2273.89461
2273.89461
2273.89461
2273.89461
2273.89461
2273.89461
2273.89461
2273.89461
2273.89461
2273.89461
2273.89461
2273.89461
2273.89461
2273.89461
2273.89461
2273.89461
2273.89461
2273.89461
2273.89461
2273.89461
2273.89461
2273.89461
2273.89461
2273.89461
2273.89461
2273.89461
2273.89461
2273.89461
2273.89461
2273.89461
2273.89461
2273.89461
2273.89461
2273.89461
2273.89461
2273.89461
2273.89461
2273.89461
2273.89461
2273.89461
2273.89461
2273.89461
2273.89461
2273.89461
2273.89461
2273.89461
2273.89461
2273.89461
2273.89461
2273.89461
2273.89461
2273.89461
2273.89461
2273.89461
2273.89461
2273.89461
2273.89461
2273.89461
2273.89461
2273.89461
2273.89461
2273.89461
2273.89461
2273.89461
2273.89461
2273.89461
2273.89461
2273.89461
2273.89461
2273.89461
2273.89461
2273.89461
2273.89461
2273.89461
2273.89461
2273.89461
2273.89461
2273.89461
2273.89461
2273.89461
2273.89461
2273.89461
2273.89461
2273.89461
2273.89461
2273.89461
2273.89461
2273.89461
2273.89461
2273.89461
2273.89463
2273.89461
2273.89455
2273.89456
2273.89477
2273.89482
2273.89434
2273.89399
2273.89478
2273.8963
2273.89576
2273.89072
2273.89057
2273.90014
2273.90496
2273.89114
2273.87363
2273.88676
2273.92841
2273.92443
2273.85388
2273.84091
2273.92245
2273.97027
2273.89812
2273.80719
2273.85011
2273.97901
2273.96891
2273.83086
2273.8174
2273.92298
2273.96144
2273.89429
2273.8446
2273.87993
2273.92716
2273.91298
2273.87607
2273.8793
2273.90386
2273.90377
2273.89156
2273.88987
2273.89515
2273.89679
2273.89479
2273.89364
2273.89438
2273.89502
2273.89473
2273.89446
2273.89455
2273.89466
2273.89463
2273.8946
2273.8946
2273.89461
2273.89461
2273.89461
2273.89461
2273.89461
2273.89461
2273.89461
2273.89461
2273.8946
2273.8946
2273.89462
2273.89464
2273.89459
2273.89454
2273.8946
2273.89475
2273.89469
2273.89434
2273.89434
2273.89505
2273.89544
2273.89429
2273.89253
2273.89309
2273.90025
2273.90397
2273.88894
2273.86095
2273.8751
2274.01823
2274.05196
2273.62967
2273.24669
2274.24711
2276.41048
2275.41911
2266.42837
2266.00595
2291.42462
2306.48701
2253.1647
2177.16593
2258.6778
2527.28019
2496.89155
1780.39488
1583.41167
2942.11822
3788.05294
1927.92997
-1309.25644
466.924084
7879.81643
6672.61702
-2893.36875
-3702.40091
2161.40012
10217.713
8468.1743
-4922.13924
-4847.37479
3770.7415
10024.1753
7569.87422
-5553.75441
-3681.51354
9939.96722
9317.39992
-1838.06414
-4824.25374
1156.10612
9977.96701
7747.79434
-5289.88853
-2724.88622
10013.5485
8262.25425
-4434.6969
)
;

boundaryField
{
    closed
    {
        type            lookUpEnthalpy;
        h0              nonuniform List<scalar> 0();
        value           nonuniform List<scalar> 0();
    }
    open
    {
        type            zeroGradient;
    }
    sides
    {
        type            empty;
    }
    procBoundary2to1
    {
        type            processor;
        value           uniform 2191.3021;
    }
    procBoundary2to3
    {
        type            processor;
        value           uniform -4187.26133;
    }
}


// ************************************************************************* //
