/*--------------------------------*- C++ -*----------------------------------*\
| =========                 |                                                 |
| \\      /  F ield         | OpenFOAM: The Open Source CFD Toolbox           |
|  \\    /   O peration     | Version:  2306                                  |
|   \\  /    A nd           | Website:  www.openfoam.com                      |
|    \\/     M anipulation  |                                                 |
\*---------------------------------------------------------------------------*/
FoamFile
{
    version     2.0;
    format      ascii;
    arch        "LSB;label=32;scalar=64";
    class       volScalarField;
    location    "0.00026";
    object      H2O;
}
// * * * * * * * * * * * * * * * * * * * * * * * * * * * * * * * * * * * * * //

dimensions      [0 0 0 0 0 0 0];

internalField   nonuniform List<scalar> 
530
(
0.00233280352
0.00398306385
0.00577170909
0.00506541087
0.00378679099
0.00406040673
0.00487947492
0.00479821594
0.00434263736
0.00435259798
0.00457128756
0.00457821974
0.00448952523
0.00447845939
0.00451022499
0.00451766101
0.00450739084
0.00450405557
0.00450675678
0.00450758182
0.00450692743
0.0045072453
0.00450805321
0.00450724518
0.0045059145
0.00450633455
0.00450832286
0.00450829805
0.00450656052
0.0045059432
0.00450698887
0.00450810966
0.00450775573
0.00450649623
0.00450652728
0.00450738473
0.00450750629
0.00450706453
0.00450696091
0.00450726592
0.00450729335
0.00450685011
0.00450683274
0.00450749689
0.00450763294
0.0045068665
0.00450650258
0.00450718302
0.00450778718
0.00450732537
0.00450657133
0.00450678683
0.00450756261
0.00450751473
0.00450684796
0.00450683015
0.00450730626
0.0045073793
0.00450700946
0.00450690274
0.00450723832
0.00450740573
0.00450709038
0.00450681355
0.0045070629
0.00450747913
0.00450736001
0.00450681984
0.00450683712
0.00450733454
0.00450742142
0.00450707234
0.00450690512
0.00450711156
0.00450729844
0.00450719184
0.00450702545
0.00450707638
0.00450721379
0.00450719083
0.00450707552
0.00450708206
0.00450718125
0.00450718099
0.00450710568
0.00450709858
0.00450715399
0.0045071674
0.00450712691
0.00450710239
0.00450712029
0.00450717275
0.00450717341
0.00450712353
0.004507073
0.00450709076
0.00450721453
0.00450723682
0.00450709245
0.00450698019
0.00450708384
0.00450732201
0.00450729715
0.00450698493
0.00450691445
0.00450715392
0.00450736371
0.00450728438
0.00450694843
0.00450693227
0.0045071681
0.00450732573
0.00450725573
0.00450699138
0.0045069782
0.00450716762
0.0045072786
0.0045071904
0.00450702688
0.00450704469
0.00450720127
0.00450721305
0.00450711494
0.00450708061
0.00450713186
0.00450716905
0.0045071467
0.00450711728
0.00450712466
0.00450714434
0.00450714286
0.00450713151
0.0045071315
0.00450713662
0.00450713719
0.00450713522
0.00450713473
0.00450713539
0.0045071357
0.00450713547
0.00450713532
0.0045071354
0.00450713546
0.00450713543
0.00450713541
0.00450713542
0.00450713543
0.00450713543
0.00450713542
0.00450713542
0.00450713542
0.00450713542
0.00450713542
0.00450713542
0.00450713542
0.00450713542
0.00450713542
0.00450713542
0.00450713542
0.00450713542
0.00450713542
0.00450713542
0.00450713542
0.00450713542
0.00450713542
0.00450713542
0.00450713542
0.00450713542
0.00450713542
0.00450713542
0.00450713542
0.00450713542
0.00450713542
0.00450713542
0.00450713542
0.00450713542
0.00450713542
0.00450713542
0.00450713542
0.00450713542
0.00450713542
0.00450713542
0.00450713542
0.00450713542
0.00450713542
0.00450713543
0.00450713543
0.00450713542
0.00450713542
0.00450713542
0.00450713544
0.00450713544
0.00450713539
0.00450713535
0.00450713546
0.00450713564
0.00450713552
0.00450713485
0.00450713482
0.00450713649
0.00450713735
0.00450713452
0.00450713046
0.00450713296
0.00450714593
0.00450714568
0.00450712086
0.00450711082
0.00450714456
0.004507182
0.00450715214
0.00450706419
0.00450707275
0.00450721582
0.00450724633
0.0045070895
0.00450698055
0.00450710424
0.00450731338
0.00450726749
0.00450696623
0.00450695807
0.00450722337
0.00450731832
0.00450714118
0.00450697973
0.00450705878
0.00450724545
0.00450723186
0.00450708193
0.00450706049
0.004507139
0.00450718279
0.00450715481
0.00450711063
0.0045071147
0.00450714399
0.00450714808
0.00450713645
0.00450712927
0.00450713189
0.00450713806
0.00450713789
0.00450713486
0.00450713425
0.00450713525
0.00450713595
0.00450713565
0.00450713522
0.00450713529
0.0045071355
0.00450713548
0.0045071354
0.0045071354
0.00450713543
0.00450713543
0.00450713542
0.00450713542
0.00450713542
0.00450713543
0.00450713542
0.00450713542
0.00450713542
0.00450713542
0.00450713542
0.00450713542
0.00450713542
0.00450713542
0.00450713542
0.00450713542
0.00450713542
0.00450713542
0.00450713542
0.00450713542
0.00450713542
0.00450713542
0.00450713542
0.00450713542
0.00450713542
0.00450713542
0.00450713542
0.00450713542
0.00450713542
0.00450713542
0.00450713542
0.00450713542
0.00450713542
0.00450713542
0.00450713542
0.00450713542
0.00450713542
0.00450713542
0.00450713542
0.00450713542
0.00450713542
0.00450713542
0.00450713542
0.00450713542
0.00450713542
0.00450713542
0.00450713542
0.00450713542
0.00450713542
0.00450713542
0.00450713542
0.00450713542
0.00450713542
0.00450713542
0.00450713542
0.00450713542
0.00450713542
0.00450713542
0.00450713542
0.00450713542
0.00450713542
0.00450713542
0.00450713542
0.00450713542
0.00450713542
0.00450713542
0.00450713542
0.00450713542
0.00450713542
0.00450713542
0.00450713542
0.00450713542
0.00450713542
0.00450713542
0.00450713542
0.00450713542
0.00450713542
0.00450713542
0.00450713542
0.00450713542
0.00450713542
0.00450713542
0.00450713542
0.00450713542
0.00450713542
0.00450713542
0.00450713542
0.00450713542
0.00450713542
0.00450713542
0.00450713542
0.00450713542
0.00450713542
0.00450713542
0.00450713542
0.00450713542
0.00450713542
0.00450713542
0.00450713542
0.00450713542
0.00450713542
0.00450713542
0.00450713542
0.00450713542
0.00450713542
0.00450713542
0.00450713542
0.00450713542
0.00450713542
0.00450713542
0.00450713542
0.00450713542
0.00450713542
0.00450713542
0.00450713542
0.00450713542
0.00450713542
0.00450713542
0.00450713542
0.00450713542
0.00450713542
0.00450713542
0.00450713542
0.00450713542
0.00450713542
0.00450713542
0.00450713542
0.00450713542
0.00450713542
0.00450713542
0.00450713542
0.00450713542
0.00450713542
0.00450713542
0.00450713542
0.00450713542
0.00450713542
0.00450713542
0.00450713543
0.00450713543
0.00450713542
0.00450713541
0.00450713542
0.00450713546
0.00450713545
0.00450713534
0.00450713531
0.00450713557
0.00450713576
0.00450713534
0.00450713453
0.00450713481
0.00450713749
0.00450713758
0.00450713248
0.00450712991
0.00450713727
0.0045071466
0.0045071396
0.00450711743
0.00450711955
0.00450715711
0.00450716401
0.0045071206
0.00450709514
0.00450713355
0.00450718197
0.00450715911
0.00450709049
0.00450709587
0.00450716937
0.00450717653
0.00450712032
0.00450709985
0.0045071356
0.00450716205
0.00450714324
0.0045071181
0.00450712564
0.0045071453
0.00450714358
0.0045071305
0.00450713055
0.00450713705
0.00450713795
0.00450713514
0.00450713426
0.00450713533
0.00450713594
0.00450713555
0.00450713521
0.00450713536
0.00450713551
0.00450713546
0.0045071354
0.00450713541
0.00450713543
0.00450713543
0.00450713542
0.00450713542
0.00450713542
0.00450713543
0.00450713543
0.00450713542
0.00450713542
0.00450713542
0.00450713543
0.00450713543
0.00450713542
0.00450713541
0.00450713543
0.00450713546
0.00450713543
0.00450713535
0.00450713538
0.00450713557
0.00450713557
0.0045071352
0.004507135
0.00450713562
0.00450713658
0.00450713632
0.00450713259
0.00450713072
0.00450713895
0.00450715425
0.00450714732
0.00450707249
0.00450705629
0.00450728506
0.00450749476
0.00450697298
0.00450584058
0.0045063965
0.00451124569
0.00451154761
0.00449819254
0.0044903993
0.00451926967
0.0045601579
0.00451833841
0.00437568383
0.00439627691
0.00477358814
0.00488112384
0.00416769886
0.0037187419
0.00472722022
0.00615909791
0.00542398736
0.000747615211
0.00168849905
0.00666033554
0.00688968964
0.00469431473
0.00106656156
0.000801075705
0.00723633987
0.0072161122
0.00394991155
0.00103962769
0.000671525888
0.0074166146
0.00688359076
0.00102375297
0.000937686968
0.0063345856
0.00721096265
0.00515292065
0.00103134158
0.000689891204
0.00733953142
0.00661476645
0.00103568365
0.000818028717
0.00709827547
)
;

boundaryField
{
    closed
    {
        type            calculated;
        value           nonuniform List<scalar> 0();
    }
    open
    {
        type            calculated;
        value           nonuniform List<scalar> 0();
    }
    sides
    {
        type            empty;
    }
    procBoundary2to1
    {
        type            processor;
        value           uniform 0.00458289274;
    }
    procBoundary2to3
    {
        type            processor;
        value           uniform 0.00703140969;
    }
}


// ************************************************************************* //
