/*--------------------------------*- C++ -*----------------------------------*\
| =========                 |                                                 |
| \\      /  F ield         | OpenFOAM: The Open Source CFD Toolbox           |
|  \\    /   O peration     | Version:  2306                                  |
|   \\  /    A nd           | Website:  www.openfoam.com                      |
|    \\/     M anipulation  |                                                 |
\*---------------------------------------------------------------------------*/
FoamFile
{
    version     2.0;
    format      ascii;
    arch        "LSB;label=32;scalar=64";
    class       volScalarField;
    location    "0.00026";
    object      mu;
}
// * * * * * * * * * * * * * * * * * * * * * * * * * * * * * * * * * * * * * //

dimensions      [1 -1 -1 0 0 0 0];

internalField   nonuniform List<scalar> 
530
(
2.0003675e-05
1.98364628e-05
1.97630424e-05
1.97714286e-05
1.98536882e-05
1.98305265e-05
1.97792552e-05
1.97827954e-05
1.98095275e-05
1.98088639e-05
1.97946956e-05
1.97943352e-05
1.97996472e-05
1.9800371e-05
1.97983454e-05
1.97978951e-05
1.97985203e-05
1.97987306e-05
1.97985596e-05
1.97985089e-05
1.97985489e-05
1.97985292e-05
1.97984789e-05
1.9798529e-05
1.97986118e-05
1.97985856e-05
1.9798462e-05
1.97984636e-05
1.97985716e-05
1.97986099e-05
1.97985449e-05
1.97984753e-05
1.97984973e-05
1.97985756e-05
1.97985736e-05
1.97985203e-05
1.97985128e-05
1.97985402e-05
1.97985467e-05
1.97985277e-05
1.9798526e-05
1.97985536e-05
1.97985546e-05
1.97985134e-05
1.97985049e-05
1.97985525e-05
1.97985752e-05
1.97985329e-05
1.97984953e-05
1.9798524e-05
1.97985709e-05
1.97985575e-05
1.97985093e-05
1.97985122e-05
1.97985537e-05
1.97985548e-05
1.97985252e-05
1.97985207e-05
1.97985436e-05
1.97985503e-05
1.97985294e-05
1.9798519e-05
1.97985386e-05
1.97985558e-05
1.97985403e-05
1.97985145e-05
1.97985219e-05
1.97985554e-05
1.97985544e-05
1.97985234e-05
1.9798518e-05
1.97985397e-05
1.97985501e-05
1.97985373e-05
1.97985257e-05
1.97985323e-05
1.97985427e-05
1.97985395e-05
1.97985309e-05
1.97985324e-05
1.97985395e-05
1.97985391e-05
1.9798533e-05
1.9798533e-05
1.97985377e-05
1.97985381e-05
1.97985347e-05
1.97985338e-05
1.97985363e-05
1.97985379e-05
1.97985368e-05
1.97985335e-05
1.97985335e-05
1.97985366e-05
1.97985397e-05
1.97985386e-05
1.97985309e-05
1.97985295e-05
1.97985385e-05
1.97985455e-05
1.9798539e-05
1.97985242e-05
1.97985258e-05
1.97985452e-05
1.97985496e-05
1.97985347e-05
1.97985216e-05
1.97985266e-05
1.97985474e-05
1.97985484e-05
1.97985338e-05
1.9798524e-05
1.97985283e-05
1.97985448e-05
1.97985456e-05
1.97985338e-05
1.97985269e-05
1.97985324e-05
1.97985426e-05
1.97985415e-05
1.97985317e-05
1.9798531e-05
1.97985371e-05
1.97985392e-05
1.9798536e-05
1.97985337e-05
1.97985351e-05
1.97985369e-05
1.97985365e-05
1.97985353e-05
1.97985354e-05
1.97985361e-05
1.97985361e-05
1.97985357e-05
1.97985357e-05
1.97985358e-05
1.97985359e-05
1.97985358e-05
1.97985358e-05
1.97985358e-05
1.97985358e-05
1.97985358e-05
1.97985358e-05
1.97985358e-05
1.97985358e-05
1.97985358e-05
1.97985358e-05
1.97985358e-05
1.97985358e-05
1.97985358e-05
1.97985358e-05
1.97985358e-05
1.97985358e-05
1.97985358e-05
1.97985358e-05
1.97985358e-05
1.97985358e-05
1.97985358e-05
1.97985358e-05
1.97985358e-05
1.97985358e-05
1.97985358e-05
1.97985358e-05
1.97985358e-05
1.97985358e-05
1.97985358e-05
1.97985358e-05
1.97985358e-05
1.97985358e-05
1.97985358e-05
1.97985358e-05
1.97985358e-05
1.97985358e-05
1.97985358e-05
1.97985358e-05
1.97985358e-05
1.97985358e-05
1.97985358e-05
1.97985358e-05
1.97985358e-05
1.97985358e-05
1.97985358e-05
1.97985358e-05
1.97985358e-05
1.97985358e-05
1.97985358e-05
1.97985358e-05
1.97985358e-05
1.97985358e-05
1.97985358e-05
1.97985358e-05
1.97985358e-05
1.97985358e-05
1.97985358e-05
1.97985358e-05
1.97985358e-05
1.97985358e-05
1.97985359e-05
1.97985359e-05
1.97985358e-05
1.97985357e-05
1.97985359e-05
1.97985361e-05
1.9798536e-05
1.97985352e-05
1.97985352e-05
1.97985367e-05
1.97985373e-05
1.97985352e-05
1.97985329e-05
1.97985348e-05
1.97985402e-05
1.97985397e-05
1.97985308e-05
1.97985289e-05
1.97985387e-05
1.97985454e-05
1.97985378e-05
1.97985248e-05
1.97985276e-05
1.97985463e-05
1.97985468e-05
1.97985304e-05
1.97985244e-05
1.97985355e-05
1.97985455e-05
1.97985406e-05
1.9798529e-05
1.97985298e-05
1.97985391e-05
1.97985405e-05
1.97985356e-05
1.97985329e-05
1.97985346e-05
1.97985374e-05
1.97985371e-05
1.97985353e-05
1.9798535e-05
1.97985358e-05
1.97985362e-05
1.9798536e-05
1.97985357e-05
1.97985357e-05
1.97985359e-05
1.97985359e-05
1.97985358e-05
1.97985358e-05
1.97985358e-05
1.97985358e-05
1.97985358e-05
1.97985358e-05
1.97985358e-05
1.97985358e-05
1.97985358e-05
1.97985358e-05
1.97985358e-05
1.97985358e-05
1.97985358e-05
1.97985358e-05
1.97985358e-05
1.97985358e-05
1.97985358e-05
1.97985358e-05
1.97985358e-05
1.97985358e-05
1.97985358e-05
1.97985358e-05
1.97985358e-05
1.97985358e-05
1.97985358e-05
1.97985358e-05
1.97985358e-05
1.97985358e-05
1.97985358e-05
1.97985358e-05
1.97985358e-05
1.97985358e-05
1.97985358e-05
1.97985358e-05
1.97985358e-05
1.97985358e-05
1.97985358e-05
1.97985358e-05
1.97985358e-05
1.97985358e-05
1.97985358e-05
1.97985358e-05
1.97985358e-05
1.97985358e-05
1.97985358e-05
1.97985358e-05
1.97985358e-05
1.97985358e-05
1.97985358e-05
1.97985358e-05
1.97985358e-05
1.97985358e-05
1.97985358e-05
1.97985358e-05
1.97985358e-05
1.97985358e-05
1.97985358e-05
1.97985358e-05
1.97985358e-05
1.97985358e-05
1.97985358e-05
1.97985358e-05
1.97985358e-05
1.97985358e-05
1.97985358e-05
1.97985358e-05
1.97985358e-05
1.97985358e-05
1.97985358e-05
1.97985358e-05
1.97985358e-05
1.97985358e-05
1.97985358e-05
1.97985358e-05
1.97985358e-05
1.97985358e-05
1.97985358e-05
1.97985358e-05
1.97985358e-05
1.97985358e-05
1.97985358e-05
1.97985358e-05
1.97985358e-05
1.97985358e-05
1.97985358e-05
1.97985358e-05
1.97985358e-05
1.97985358e-05
1.97985358e-05
1.97985358e-05
1.97985358e-05
1.97985358e-05
1.97985358e-05
1.97985358e-05
1.97985358e-05
1.97985358e-05
1.97985358e-05
1.97985358e-05
1.97985358e-05
1.97985358e-05
1.97985358e-05
1.97985358e-05
1.97985358e-05
1.97985358e-05
1.97985358e-05
1.97985358e-05
1.97985358e-05
1.97985358e-05
1.97985358e-05
1.97985358e-05
1.97985358e-05
1.97985358e-05
1.97985358e-05
1.97985358e-05
1.97985358e-05
1.97985358e-05
1.97985358e-05
1.97985358e-05
1.97985358e-05
1.97985358e-05
1.97985358e-05
1.97985358e-05
1.97985358e-05
1.97985358e-05
1.97985358e-05
1.97985358e-05
1.97985358e-05
1.97985358e-05
1.97985358e-05
1.97985358e-05
1.97985358e-05
1.97985358e-05
1.97985358e-05
1.97985358e-05
1.97985358e-05
1.97985358e-05
1.97985358e-05
1.97985358e-05
1.97985358e-05
1.97985358e-05
1.97985358e-05
1.97985358e-05
1.97985358e-05
1.97985358e-05
1.97985358e-05
1.97985358e-05
1.97985358e-05
1.97985358e-05
1.97985358e-05
1.97985358e-05
1.97985358e-05
1.97985358e-05
1.97985358e-05
1.97985358e-05
1.97985358e-05
1.97985358e-05
1.97985358e-05
1.97985358e-05
1.97985358e-05
1.97985359e-05
1.97985359e-05
1.97985357e-05
1.97985357e-05
1.9798536e-05
1.97985362e-05
1.97985357e-05
1.97985351e-05
1.97985356e-05
1.97985369e-05
1.97985368e-05
1.97985345e-05
1.9798534e-05
1.97985367e-05
1.97985383e-05
1.97985359e-05
1.97985329e-05
1.97985343e-05
1.97985386e-05
1.97985383e-05
1.97985337e-05
1.97985333e-05
1.97985368e-05
1.9798538e-05
1.97985358e-05
1.97985342e-05
1.97985353e-05
1.97985369e-05
1.97985364e-05
1.97985352e-05
1.97985353e-05
1.97985361e-05
1.97985361e-05
1.97985357e-05
1.97985357e-05
1.97985358e-05
1.97985359e-05
1.97985358e-05
1.97985358e-05
1.97985358e-05
1.97985358e-05
1.97985358e-05
1.97985358e-05
1.97985358e-05
1.97985358e-05
1.97985358e-05
1.97985358e-05
1.97985358e-05
1.97985358e-05
1.97985358e-05
1.97985358e-05
1.97985358e-05
1.97985358e-05
1.97985358e-05
1.97985358e-05
1.97985358e-05
1.97985358e-05
1.97985358e-05
1.97985358e-05
1.97985358e-05
1.97985358e-05
1.97985358e-05
1.97985358e-05
1.97985358e-05
1.97985358e-05
1.97985358e-05
1.97985358e-05
1.97985358e-05
1.97985358e-05
1.97985358e-05
1.97985357e-05
1.97985358e-05
1.9798536e-05
1.97985361e-05
1.97985356e-05
1.97985347e-05
1.97985352e-05
1.979854e-05
1.97985412e-05
1.97985273e-05
1.97985148e-05
1.97985482e-05
1.97986203e-05
1.97985883e-05
1.9798293e-05
1.97982812e-05
1.97991284e-05
1.97996375e-05
1.97978851e-05
1.97954582e-05
1.97981241e-05
1.98074036e-05
1.98063665e-05
1.9784446e-05
1.9780336e-05
1.98233345e-05
1.98607078e-05
1.97902171e-05
1.97756127e-05
1.97661436e-05
2.02164679e-05
2.00854471e-05
1.97041469e-05
1.96256642e-05
1.98019175e-05
2.02928187e-05
2.0261948e-05
1.95070374e-05
1.9513788e-05
1.98527691e-05
2.02763077e-05
2.02335731e-05
1.94451261e-05
1.96276386e-05
2.03179539e-05
2.02484204e-05
1.97558654e-05
1.95152969e-05
1.97817879e-05
2.02866705e-05
2.0238921e-05
1.94719484e-05
1.97185906e-05
2.02972693e-05
2.01992914e-05
1.95542604e-05
)
;

boundaryField
{
    closed
    {
        type            calculated;
        value           nonuniform List<scalar> 0();
    }
    open
    {
        type            calculated;
        value           nonuniform List<scalar> 0();
    }
    sides
    {
        type            empty;
    }
    procBoundary2to1
    {
        type            processor;
        value           uniform 1.979706e-05;
    }
    procBoundary2to3
    {
        type            processor;
        value           uniform 1.95767138e-05;
    }
}


// ************************************************************************* //
