/*--------------------------------*- C++ -*----------------------------------*\
| =========                 |                                                 |
| \\      /  F ield         | OpenFOAM: The Open Source CFD Toolbox           |
|  \\    /   O peration     | Version:  2306                                  |
|   \\  /    A nd           | Website:  www.openfoam.com                      |
|    \\/     M anipulation  |                                                 |
\*---------------------------------------------------------------------------*/
FoamFile
{
    version     2.0;
    format      ascii;
    arch        "LSB;label=32;scalar=64";
    class       volScalarField;
    location    "0.00026";
    object      prefDZ_H2;
}
// * * * * * * * * * * * * * * * * * * * * * * * * * * * * * * * * * * * * * //

dimensions      [1 -1 -1 0 0 0 0];

internalField   nonuniform List<scalar> 
530
(
6.2790622e-05
6.24093185e-05
6.22960672e-05
6.22834419e-05
6.24472421e-05
6.23967328e-05
6.22957524e-05
6.230147e-05
6.23526698e-05
6.235133e-05
6.23230382e-05
6.23223877e-05
6.23326558e-05
6.23341064e-05
6.23300871e-05
6.23292123e-05
6.23304296e-05
6.23308449e-05
6.23305066e-05
6.23304075e-05
6.23304856e-05
6.23304469e-05
6.2330348e-05
6.23304465e-05
6.23306089e-05
6.23305576e-05
6.23303149e-05
6.23303179e-05
6.23305299e-05
6.23306053e-05
6.23304776e-05
6.23303409e-05
6.23303841e-05
6.23305378e-05
6.2330534e-05
6.23304293e-05
6.23304145e-05
6.23304684e-05
6.23304811e-05
6.23304438e-05
6.23304405e-05
6.23304946e-05
6.23304967e-05
6.23304156e-05
6.2330399e-05
6.23304926e-05
6.2330537e-05
6.23304539e-05
6.23303802e-05
6.23304366e-05
6.23305286e-05
6.23305023e-05
6.23304076e-05
6.23304135e-05
6.23304948e-05
6.2330497e-05
6.23304389e-05
6.233043e-05
6.23304751e-05
6.23304882e-05
6.23304472e-05
6.23304268e-05
6.23304652e-05
6.2330499e-05
6.23304686e-05
6.23304178e-05
6.23304323e-05
6.23304983e-05
6.23304962e-05
6.23304354e-05
6.23304248e-05
6.23304674e-05
6.23304879e-05
6.23304627e-05
6.23304399e-05
6.23304529e-05
6.23304732e-05
6.2330467e-05
6.23304502e-05
6.2330453e-05
6.23304671e-05
6.23304663e-05
6.23304542e-05
6.23304542e-05
6.23304634e-05
6.23304642e-05
6.23304575e-05
6.23304558e-05
6.23304608e-05
6.23304638e-05
6.23304616e-05
6.23304552e-05
6.23304551e-05
6.23304612e-05
6.23304674e-05
6.23304652e-05
6.23304501e-05
6.23304474e-05
6.2330465e-05
6.23304787e-05
6.2330466e-05
6.2330437e-05
6.233044e-05
6.23304781e-05
6.23304867e-05
6.23304575e-05
6.23304319e-05
6.23304416e-05
6.23304826e-05
6.23304845e-05
6.23304558e-05
6.23304365e-05
6.23304451e-05
6.23304773e-05
6.23304789e-05
6.23304558e-05
6.23304423e-05
6.2330453e-05
6.2330473e-05
6.23304708e-05
6.23304517e-05
6.23304503e-05
6.23304622e-05
6.23304664e-05
6.23304602e-05
6.23304556e-05
6.23304584e-05
6.2330462e-05
6.23304611e-05
6.23304587e-05
6.23304588e-05
6.23304602e-05
6.23304602e-05
6.23304596e-05
6.23304595e-05
6.23304598e-05
6.23304598e-05
6.23304598e-05
6.23304597e-05
6.23304597e-05
6.23304598e-05
6.23304598e-05
6.23304597e-05
6.23304597e-05
6.23304597e-05
6.23304597e-05
6.23304597e-05
6.23304597e-05
6.23304597e-05
6.23304597e-05
6.23304597e-05
6.23304597e-05
6.23304597e-05
6.23304597e-05
6.23304597e-05
6.23304597e-05
6.23304597e-05
6.23304597e-05
6.23304597e-05
6.23304597e-05
6.23304597e-05
6.23304597e-05
6.23304597e-05
6.23304597e-05
6.23304597e-05
6.23304597e-05
6.23304597e-05
6.23304597e-05
6.23304597e-05
6.23304597e-05
6.23304597e-05
6.23304597e-05
6.23304597e-05
6.23304597e-05
6.23304597e-05
6.23304597e-05
6.23304597e-05
6.23304597e-05
6.23304597e-05
6.23304597e-05
6.23304597e-05
6.23304597e-05
6.23304597e-05
6.23304597e-05
6.23304597e-05
6.23304597e-05
6.23304597e-05
6.23304597e-05
6.23304597e-05
6.23304597e-05
6.23304597e-05
6.23304597e-05
6.23304598e-05
6.23304598e-05
6.23304597e-05
6.23304597e-05
6.23304597e-05
6.23304598e-05
6.23304598e-05
6.23304596e-05
6.23304595e-05
6.23304599e-05
6.23304604e-05
6.233046e-05
6.23304585e-05
6.23304585e-05
6.23304615e-05
6.23304628e-05
6.23304586e-05
6.23304541e-05
6.23304577e-05
6.23304684e-05
6.23304674e-05
6.23304499e-05
6.23304462e-05
6.23304654e-05
6.23304787e-05
6.23304636e-05
6.2330438e-05
6.23304436e-05
6.23304804e-05
6.23304814e-05
6.2330449e-05
6.23304374e-05
6.2330459e-05
6.23304788e-05
6.23304691e-05
6.23304463e-05
6.2330448e-05
6.23304663e-05
6.23304689e-05
6.23304593e-05
6.2330454e-05
6.23304574e-05
6.23304628e-05
6.23304623e-05
6.23304587e-05
6.23304582e-05
6.23304596e-05
6.23304605e-05
6.23304602e-05
6.23304594e-05
6.23304594e-05
6.23304598e-05
6.23304599e-05
6.23304598e-05
6.23304597e-05
6.23304597e-05
6.23304598e-05
6.23304598e-05
6.23304597e-05
6.23304597e-05
6.23304598e-05
6.23304598e-05
6.23304597e-05
6.23304597e-05
6.23304597e-05
6.23304597e-05
6.23304597e-05
6.23304597e-05
6.23304597e-05
6.23304597e-05
6.23304597e-05
6.23304597e-05
6.23304597e-05
6.23304597e-05
6.23304597e-05
6.23304597e-05
6.23304597e-05
6.23304597e-05
6.23304597e-05
6.23304597e-05
6.23304597e-05
6.23304597e-05
6.23304597e-05
6.23304597e-05
6.23304597e-05
6.23304597e-05
6.23304597e-05
6.23304597e-05
6.23304597e-05
6.23304597e-05
6.23304597e-05
6.23304597e-05
6.23304597e-05
6.23304597e-05
6.23304597e-05
6.23304597e-05
6.23304597e-05
6.23304597e-05
6.23304597e-05
6.23304597e-05
6.23304597e-05
6.23304597e-05
6.23304597e-05
6.23304597e-05
6.23304597e-05
6.23304597e-05
6.23304597e-05
6.23304597e-05
6.23304597e-05
6.23304597e-05
6.23304597e-05
6.23304597e-05
6.23304597e-05
6.23304597e-05
6.23304597e-05
6.23304597e-05
6.23304597e-05
6.23304597e-05
6.23304597e-05
6.23304597e-05
6.23304597e-05
6.23304597e-05
6.23304597e-05
6.23304597e-05
6.23304597e-05
6.23304597e-05
6.23304597e-05
6.23304597e-05
6.23304597e-05
6.23304597e-05
6.23304597e-05
6.23304597e-05
6.23304597e-05
6.23304597e-05
6.23304597e-05
6.23304597e-05
6.23304597e-05
6.23304597e-05
6.23304597e-05
6.23304597e-05
6.23304597e-05
6.23304597e-05
6.23304597e-05
6.23304597e-05
6.23304597e-05
6.23304597e-05
6.23304597e-05
6.23304597e-05
6.23304597e-05
6.23304597e-05
6.23304597e-05
6.23304597e-05
6.23304597e-05
6.23304597e-05
6.23304597e-05
6.23304597e-05
6.23304597e-05
6.23304597e-05
6.23304597e-05
6.23304597e-05
6.23304597e-05
6.23304597e-05
6.23304597e-05
6.23304597e-05
6.23304597e-05
6.23304597e-05
6.23304597e-05
6.23304597e-05
6.23304597e-05
6.23304597e-05
6.23304597e-05
6.23304597e-05
6.23304597e-05
6.23304597e-05
6.23304597e-05
6.23304597e-05
6.23304597e-05
6.23304597e-05
6.23304597e-05
6.23304597e-05
6.23304597e-05
6.23304597e-05
6.23304597e-05
6.23304597e-05
6.23304597e-05
6.23304597e-05
6.23304597e-05
6.23304597e-05
6.23304597e-05
6.23304597e-05
6.23304597e-05
6.23304597e-05
6.23304597e-05
6.23304597e-05
6.23304597e-05
6.23304597e-05
6.23304597e-05
6.23304597e-05
6.23304597e-05
6.23304597e-05
6.23304597e-05
6.23304597e-05
6.23304597e-05
6.23304597e-05
6.23304597e-05
6.23304597e-05
6.23304597e-05
6.23304598e-05
6.23304598e-05
6.23304597e-05
6.23304597e-05
6.23304598e-05
6.23304599e-05
6.23304598e-05
6.23304595e-05
6.23304595e-05
6.23304601e-05
6.23304604e-05
6.23304595e-05
6.23304584e-05
6.23304592e-05
6.23304619e-05
6.23304617e-05
6.23304571e-05
6.23304563e-05
6.23304616e-05
6.23304647e-05
6.233046e-05
6.23304541e-05
6.23304569e-05
6.23304652e-05
6.23304646e-05
6.23304556e-05
6.23304547e-05
6.23304616e-05
6.23304641e-05
6.23304597e-05
6.23304565e-05
6.23304588e-05
6.23304619e-05
6.23304609e-05
6.23304585e-05
6.23304588e-05
6.23304603e-05
6.23304603e-05
6.23304595e-05
6.23304594e-05
6.23304598e-05
6.23304599e-05
6.23304598e-05
6.23304597e-05
6.23304597e-05
6.23304598e-05
6.23304598e-05
6.23304597e-05
6.23304597e-05
6.23304598e-05
6.23304597e-05
6.23304597e-05
6.23304597e-05
6.23304597e-05
6.23304597e-05
6.23304597e-05
6.23304597e-05
6.23304597e-05
6.23304597e-05
6.23304597e-05
6.23304597e-05
6.23304597e-05
6.23304597e-05
6.23304597e-05
6.23304598e-05
6.23304597e-05
6.23304597e-05
6.23304597e-05
6.23304598e-05
6.23304598e-05
6.23304597e-05
6.23304597e-05
6.23304598e-05
6.23304598e-05
6.23304597e-05
6.23304596e-05
6.23304597e-05
6.23304601e-05
6.23304604e-05
6.23304594e-05
6.23304577e-05
6.23304587e-05
6.23304681e-05
6.23304706e-05
6.23304436e-05
6.23304195e-05
6.23304858e-05
6.2330629e-05
6.2330568e-05
6.23299931e-05
6.23299756e-05
6.23316529e-05
6.23326728e-05
6.23292653e-05
6.23245925e-05
6.23298806e-05
6.23484399e-05
6.23465976e-05
6.23048047e-05
6.22988323e-05
6.23821641e-05
6.24632836e-05
6.23184664e-05
6.23507841e-05
6.22869677e-05
6.33023022e-05
6.29855195e-05
6.21689565e-05
6.19559343e-05
6.23492395e-05
6.35653985e-05
6.34449498e-05
6.16329824e-05
6.16508579e-05
6.24527364e-05
6.35130267e-05
6.33462186e-05
6.14644071e-05
6.19619351e-05
6.36361872e-05
6.34185784e-05
6.23048878e-05
6.16543222e-05
6.23166175e-05
6.35432325e-05
6.33643237e-05
6.15381e-05
6.2210106e-05
6.3575469e-05
6.32578691e-05
6.17611005e-05
)
;

boundaryField
{
    closed
    {
        type            calculated;
        value           nonuniform List<scalar> 0();
    }
    open
    {
        type            calculated;
        value           nonuniform List<scalar> 0();
    }
    sides
    {
        type            empty;
    }
    procBoundary2to1
    {
        type            processor;
        value           uniform 6.2330171e-05;
    }
    procBoundary2to3
    {
        type            processor;
        value           uniform 6.18199346e-05;
    }
}


// ************************************************************************* //
