/*--------------------------------*- C++ -*----------------------------------*\
| =========                 |                                                 |
| \\      /  F ield         | OpenFOAM: The Open Source CFD Toolbox           |
|  \\    /   O peration     | Version:  2306                                  |
|   \\  /    A nd           | Website:  www.openfoam.com                      |
|    \\/     M anipulation  |                                                 |
\*---------------------------------------------------------------------------*/
FoamFile
{
    version     2.0;
    format      ascii;
    arch        "LSB;label=32;scalar=64";
    class       volScalarField;
    location    "0.00098";
    object      H;
}
// * * * * * * * * * * * * * * * * * * * * * * * * * * * * * * * * * * * * * //

dimensions      [0 0 0 0 0 0 0];

internalField   nonuniform List<scalar> 
530
(
4.48725495e-05
4.38550111e-05
4.29127979e-05
4.1934122e-05
4.10317391e-05
4.00891857e-05
3.92336336e-05
3.84229064e-05
3.76780232e-05
3.68943777e-05
3.61769824e-05
3.54192086e-05
3.47279145e-05
3.39838611e-05
3.32851141e-05
3.25348471e-05
3.18689057e-05
3.11457924e-05
3.05105815e-05
2.98128268e-05
2.92654276e-05
2.8666087e-05
2.81496939e-05
2.75712043e-05
2.70772811e-05
2.65189053e-05
2.60460516e-05
2.55070298e-05
2.50539788e-05
2.45335416e-05
2.40991474e-05
2.35964977e-05
2.31797664e-05
2.26940021e-05
2.22941832e-05
2.18241657e-05
2.14408848e-05
2.09850921e-05
2.06184711e-05
2.02009715e-05
1.98999483e-05
1.95268008e-05
1.9240994e-05
1.88747224e-05
1.86047494e-05
1.82441081e-05
1.7989868e-05
1.76341918e-05
1.73949388e-05
1.70611615e-05
1.68269844e-05
1.65003945e-05
1.6262426e-05
1.59570976e-05
1.57170885e-05
1.54302225e-05
1.51901512e-05
1.49191218e-05
1.46808367e-05
1.44233562e-05
1.41881978e-05
1.39425325e-05
1.3711202e-05
1.34762566e-05
1.32488233e-05
1.30241549e-05
1.28000754e-05
1.25858983e-05
1.23969243e-05
1.22305229e-05
1.20490973e-05
1.18930809e-05
1.17101285e-05
1.15661084e-05
1.13799094e-05
1.12490129e-05
1.1058911e-05
1.09406251e-05
1.07548006e-05
1.06330378e-05
1.04582308e-05
1.03328311e-05
1.01666446e-05
1.00405803e-05
9.88170824e-06
9.75678979e-06
9.60363481e-06
9.48095049e-06
9.33260975e-06
9.21258728e-06
9.0686638e-06
8.95131611e-06
8.81168236e-06
8.69683442e-06
8.56146076e-06
8.44889392e-06
8.31775635e-06
8.20727671e-06
8.08032167e-06
7.97177981e-06
7.84892015e-06
7.74220727e-06
7.62333053e-06
7.51836716e-06
7.4033455e-06
7.30007162e-06
7.18876803e-06
7.08713878e-06
6.97940736e-06
6.87939569e-06
6.7750759e-06
6.67667902e-06
6.57558798e-06
6.47882662e-06
6.38075904e-06
6.28565328e-06
6.20205266e-06
6.13245091e-06
6.06418062e-06
5.99535556e-06
5.92908444e-06
5.86112889e-06
5.7967314e-06
5.72969697e-06
5.66707392e-06
5.60099536e-06
5.54005093e-06
5.47497401e-06
5.41559081e-06
5.35159437e-06
5.293616e-06
5.23081925e-06
5.17405527e-06
5.11259011e-06
5.05686886e-06
4.99679097e-06
4.94208073e-06
4.88322965e-06
4.82978398e-06
4.77174037e-06
4.7200424e-06
4.66255465e-06
4.61259463e-06
4.55654862e-06
4.50681196e-06
4.45302737e-06
4.40556909e-06
4.35122486e-06
4.30354941e-06
4.25066996e-06
4.20441325e-06
4.1522611e-06
4.10750957e-06
4.05599055e-06
4.01263243e-06
3.96183047e-06
3.91968036e-06
3.86973101e-06
3.82860989e-06
3.77962745e-06
3.73940092e-06
3.69145633e-06
3.65203687e-06
3.60516232e-06
3.56649766e-06
3.52069837e-06
3.48275898e-06
3.43802334e-06
3.40079475e-06
3.35709934e-06
3.32058254e-06
3.27789182e-06
3.2420719e-06
3.19900689e-06
3.16263361e-06
3.12056845e-06
3.08481574e-06
3.04369219e-06
3.00856103e-06
2.96834444e-06
2.93382696e-06
2.89449024e-06
2.86057706e-06
2.82209476e-06
2.78877644e-06
2.7511237e-06
2.71839046e-06
2.6815432e-06
2.64938467e-06
2.61331976e-06
2.58172495e-06
2.54642011e-06
2.51537759e-06
2.48081121e-06
2.45030926e-06
2.41646032e-06
2.38648686e-06
2.35333507e-06
2.3238774e-06
2.29140361e-06
2.26244785e-06
2.2306345e-06
2.20216505e-06
2.17099556e-06
2.14299571e-06
2.11245101e-06
2.08490694e-06
2.05494743e-06
2.027763e-06
1.99840219e-06
1.9718057e-06
1.9431595e-06
1.91713722e-06
1.8891648e-06
1.86370516e-06
1.8363552e-06
1.8114678e-06
1.78465076e-06
1.76038895e-06
1.73395919e-06
1.71827162e-06
1.70436588e-06
1.69172815e-06
1.67823089e-06
1.6657795e-06
1.65263695e-06
1.64041442e-06
1.62758215e-06
1.61560483e-06
1.6030591e-06
1.59132659e-06
1.57905605e-06
1.56756149e-06
1.55555843e-06
1.54429471e-06
1.53254979e-06
1.52151375e-06
1.51001204e-06
1.49920989e-06
1.48753473e-06
1.47610242e-06
1.46417621e-06
1.4528265e-06
1.44104585e-06
1.4297896e-06
1.41814501e-06
1.40698924e-06
1.39547549e-06
1.38442345e-06
1.37303786e-06
1.36209066e-06
1.35083176e-06
1.33998955e-06
1.32885641e-06
1.31811908e-06
1.3071109e-06
1.29647833e-06
1.2855944e-06
1.27506655e-06
1.26430612e-06
1.25388309e-06
1.24324542e-06
1.23292739e-06
1.22241176e-06
1.21219899e-06
1.20180467e-06
1.19169747e-06
1.1814238e-06
1.17142252e-06
1.16126882e-06
1.15137384e-06
1.14133951e-06
1.13155123e-06
1.12163565e-06
1.11195447e-06
1.10215708e-06
1.09258342e-06
1.08290367e-06
1.07343793e-06
1.06387532e-06
1.05451787e-06
1.04507196e-06
1.03582307e-06
1.02649353e-06
1.01735337e-06
1.00814002e-06
9.99108562e-07
9.9001143e-07
9.81088423e-07
9.72107783e-07
9.63292723e-07
9.5442911e-07
9.4572129e-07
9.36975378e-07
9.28374105e-07
9.19746306e-07
9.11251519e-07
9.02740887e-07
8.94354744e-07
8.8564803e-07
8.76466088e-07
8.67304916e-07
8.58289501e-07
8.49295969e-07
8.40446857e-07
8.31616401e-07
8.22930205e-07
8.14259743e-07
8.05732261e-07
7.97219069e-07
7.88846168e-07
7.80487482e-07
7.72265363e-07
7.64058287e-07
7.55983517e-07
7.47925036e-07
7.39994494e-07
7.3208152e-07
7.2429234e-07
7.1652176e-07
7.08871271e-07
7.01239992e-07
6.93725665e-07
6.86230668e-07
6.78850057e-07
6.7148848e-07
6.64239132e-07
6.57008388e-07
6.49887717e-07
6.42785624e-07
6.3579079e-07
6.28815583e-07
6.21943496e-07
6.1509353e-07
6.0844127e-07
6.01844421e-07
5.95341708e-07
5.88857659e-07
5.82467319e-07
5.76094906e-07
5.69814423e-07
5.63552233e-07
5.57379468e-07
5.51225833e-07
5.45158989e-07
5.39112121e-07
5.33149609e-07
5.2720772e-07
5.21348048e-07
5.15509409e-07
5.09751129e-07
5.04014097e-07
4.9835578e-07
4.92718793e-07
4.87159033e-07
4.81620602e-07
4.76158017e-07
4.70716718e-07
4.6534996e-07
4.60004419e-07
4.54732175e-07
4.49481067e-07
4.44302061e-07
4.39144101e-07
4.34057093e-07
4.28991034e-07
4.2399482e-07
4.1901945e-07
4.14112859e-07
4.09226997e-07
4.04408887e-07
3.99611385e-07
3.94880643e-07
3.90170378e-07
3.85525916e-07
3.80901795e-07
3.7634255e-07
3.71803499e-07
3.67328429e-07
3.62873401e-07
3.58481482e-07
3.54109449e-07
3.49799678e-07
3.45509629e-07
3.41281017e-07
3.3707196e-07
3.32923534e-07
3.28794492e-07
3.2472529e-07
3.20675299e-07
3.16684374e-07
3.12712484e-07
3.08798895e-07
3.04904167e-07
3.01066986e-07
2.97248489e-07
2.93486796e-07
2.8974361e-07
2.8605649e-07
2.82387702e-07
2.78774247e-07
2.75178951e-07
2.71638259e-07
2.68115554e-07
2.64646727e-07
2.61195719e-07
2.57797863e-07
2.5441766e-07
2.51089885e-07
2.47779601e-07
2.44521018e-07
2.41279769e-07
2.38089492e-07
2.34916398e-07
2.31793544e-07
2.28687726e-07
2.25631413e-07
2.22591994e-07
2.1960134e-07
2.16627446e-07
2.13701572e-07
2.10792329e-07
2.07930355e-07
2.05084891e-07
2.0228594e-07
1.99503384e-07
1.96766577e-07
1.9404606e-07
1.91370521e-07
1.88711172e-07
1.86096027e-07
1.83496977e-07
1.80941351e-07
1.78401733e-07
1.75904751e-07
1.734237e-07
1.70984489e-07
1.68561137e-07
1.66178826e-07
1.63812311e-07
1.6148603e-07
1.59175486e-07
1.56904366e-07
1.54648933e-07
1.52432107e-07
1.50230923e-07
1.48067526e-07
1.45919732e-07
1.43808902e-07
1.4171364e-07
1.39654517e-07
1.37610932e-07
1.35600541e-07
1.33532512e-07
1.31357545e-07
1.29050523e-07
1.26629181e-07
1.24067095e-07
1.21384475e-07
1.18554072e-07
1.15598777e-07
1.12491245e-07
1.09257183e-07
1.05870159e-07
1.02358728e-07
9.86987407e-08
9.49214274e-08
9.10066856e-08
8.6987972e-08
8.2851389e-08
7.86317735e-08
7.43239223e-08
6.99627067e-08
6.55542204e-08
6.11314504e-08
5.67141112e-08
5.23308129e-08
4.8016283e-08
4.3791836e-08
3.97067627e-08
3.57721025e-08
3.20483181e-08
2.85339028e-08
2.5292958e-08
2.23114167e-08
1.96444692e-08
1.72689129e-08
1.52184602e-08
1.34538958e-08
1.20145057e-08
1.07624609e-08
9.84388382e-09
9.16151089e-09
9.02816906e-09
9.02779125e-09
9.02759622e-09
9.02750377e-09
9.02746289e-09
9.027447e-09
9.0274414e-09
9.02743907e-09
9.02743809e-09
9.02743783e-09
9.02743777e-09
9.02743775e-09
9.02743775e-09
9.02743774e-09
9.02743774e-09
9.02743774e-09
9.02743774e-09
9.02743774e-09
9.02743774e-09
9.02743774e-09
9.02743774e-09
9.02743774e-09
9.02743774e-09
9.02743774e-09
9.02743774e-09
9.02743774e-09
9.02743774e-09
9.02743774e-09
9.02743774e-09
9.02743774e-09
9.02743774e-09
9.02743774e-09
9.02743774e-09
9.02743774e-09
9.02743774e-09
9.02743774e-09
9.02743774e-09
)
;

boundaryField
{
    closed
    {
        type            calculated;
        value           nonuniform List<scalar> 0();
    }
    open
    {
        type            calculated;
        value           uniform 9.02743774e-09;
    }
    sides
    {
        type            empty;
    }
    procBoundary5to4
    {
        type            processor;
        value           uniform 4.58583507e-05;
    }
}


// ************************************************************************* //
