/*--------------------------------*- C++ -*----------------------------------*\
| =========                 |                                                 |
| \\      /  F ield         | OpenFOAM: The Open Source CFD Toolbox           |
|  \\    /   O peration     | Version:  2306                                  |
|   \\  /    A nd           | Website:  www.openfoam.com                      |
|    \\/     M anipulation  |                                                 |
\*---------------------------------------------------------------------------*/
FoamFile
{
    version     2.0;
    format      ascii;
    arch        "LSB;label=32;scalar=64";
    class       volScalarField;
    location    "0.00098";
    object      mu;
}
// * * * * * * * * * * * * * * * * * * * * * * * * * * * * * * * * * * * * * //

dimensions      [1 -1 -1 0 0 0 0];

internalField   nonuniform List<scalar> 
530
(
5.9836446e-05
5.9876725e-05
5.99132913e-05
5.99519823e-05
5.99868942e-05
6.00241553e-05
6.00573165e-05
6.00910448e-05
6.01210728e-05
6.01535236e-05
6.01823168e-05
6.02135796e-05
6.02411882e-05
6.02719154e-05
6.03002262e-05
6.03315731e-05
6.03586707e-05
6.03888785e-05
6.04148289e-05
6.0444024e-05
6.0467438e-05
6.04937929e-05
6.05159539e-05
6.0541388e-05
6.05624917e-05
6.05870348e-05
6.06071276e-05
6.063081e-05
6.06499351e-05
6.06727932e-05
6.06909904e-05
6.07130586e-05
6.07303733e-05
6.0751674e-05
6.07681675e-05
6.07887049e-05
6.08044547e-05
6.08242224e-05
6.08393003e-05
6.08578165e-05
6.08712241e-05
6.08884184e-05
6.09009779e-05
6.09176668e-05
6.09292574e-05
6.09456367e-05
6.09561582e-05
6.09723035e-05
6.09818427e-05
6.09960955e-05
6.10053465e-05
6.10193642e-05
6.10289652e-05
6.10415898e-05
6.10512022e-05
6.10627244e-05
6.10721266e-05
6.10827224e-05
6.10918346e-05
6.1101591e-05
6.11104026e-05
6.11193672e-05
6.11278825e-05
6.11360966e-05
6.1144312e-05
6.11518283e-05
6.11597227e-05
6.11666145e-05
6.11735351e-05
6.11790789e-05
6.11854894e-05
6.11904029e-05
6.11964801e-05
6.12006839e-05
6.12065371e-05
6.12099055e-05
6.12156588e-05
6.12181166e-05
6.12235143e-05
6.12256737e-05
6.12305433e-05
6.12323089e-05
6.12367548e-05
6.12380255e-05
6.12420755e-05
6.12428293e-05
6.12464944e-05
6.124674e-05
6.12500199e-05
6.12497745e-05
6.12526677e-05
6.12519485e-05
6.12544537e-05
6.12532768e-05
6.12553934e-05
6.1253774e-05
6.1255502e-05
6.12534544e-05
6.12547943e-05
6.12523328e-05
6.12532856e-05
6.1250424e-05
6.12509915e-05
6.12477435e-05
6.12479284e-05
6.1244307e-05
6.12441132e-05
6.12401308e-05
6.12395639e-05
6.12352319e-05
6.1234299e-05
6.12296302e-05
6.12283365e-05
6.12233509e-05
6.12216942e-05
6.12164237e-05
6.12142314e-05
6.12082987e-05
6.12055897e-05
6.11993246e-05
6.11962533e-05
6.11896768e-05
6.11862424e-05
6.11793581e-05
6.11755698e-05
6.11683772e-05
6.11642458e-05
6.11567449e-05
6.11522802e-05
6.11444735e-05
6.11396806e-05
6.11315779e-05
6.11264501e-05
6.11180787e-05
6.11125827e-05
6.11040017e-05
6.10980664e-05
6.10893606e-05
6.10829086e-05
6.10741072e-05
6.10671843e-05
6.1058165e-05
6.10510226e-05
6.10419422e-05
6.10344539e-05
6.10255092e-05
6.10177067e-05
6.10078108e-05
6.09997412e-05
6.09896296e-05
6.09814658e-05
6.0971051e-05
6.09626744e-05
6.09520306e-05
6.09433692e-05
6.09325483e-05
6.09235758e-05
6.09126009e-05
6.09033175e-05
6.08921965e-05
6.0882614e-05
6.08713487e-05
6.08614821e-05
6.08500733e-05
6.08399378e-05
6.08283867e-05
6.08179967e-05
6.08063057e-05
6.07956744e-05
6.07838467e-05
6.07729865e-05
6.07610264e-05
6.0749947e-05
6.07378014e-05
6.07264692e-05
6.07142032e-05
6.07026807e-05
6.06903003e-05
6.06785986e-05
6.06661098e-05
6.065424e-05
6.0641649e-05
6.0629622e-05
6.0616935e-05
6.06047618e-05
6.05919853e-05
6.05796764e-05
6.05668171e-05
6.05543832e-05
6.05414479e-05
6.05288994e-05
6.05158952e-05
6.05032424e-05
6.04901764e-05
6.04774296e-05
6.04643092e-05
6.04514786e-05
6.04383111e-05
6.04254069e-05
6.04121999e-05
6.03992321e-05
6.03859931e-05
6.03729719e-05
6.03597085e-05
6.03466437e-05
6.03333636e-05
6.03202654e-05
6.03069781e-05
6.02938645e-05
6.02805735e-05
6.02674264e-05
6.02541241e-05
6.02409532e-05
6.02276485e-05
6.02144636e-05
6.02011654e-05
6.01879764e-05
6.01746931e-05
6.0161512e-05
6.01482463e-05
6.01350721e-05
6.01217985e-05
6.01086148e-05
6.00953749e-05
6.0082208e-05
6.0068999e-05
6.00558588e-05
6.0042684e-05
6.00295762e-05
6.00164415e-05
6.00033711e-05
5.99902819e-05
5.9977254e-05
5.99642154e-05
5.99512349e-05
5.99382517e-05
5.99253234e-05
5.99124004e-05
5.98995287e-05
5.98866353e-05
5.98737581e-05
5.98609067e-05
5.98481123e-05
5.9835347e-05
5.98226388e-05
5.98099631e-05
5.97973443e-05
5.97847616e-05
5.97722355e-05
5.9759749e-05
5.97473189e-05
5.97349317e-05
5.97226008e-05
5.97103158e-05
5.96980874e-05
5.96859077e-05
5.96737849e-05
5.96617132e-05
5.96496992e-05
5.96377385e-05
5.96258362e-05
5.96139891e-05
5.96022015e-05
5.95904709e-05
5.95788008e-05
5.95671893e-05
5.95556395e-05
5.95441498e-05
5.95327229e-05
5.95213574e-05
5.95100561e-05
5.94988173e-05
5.9487644e-05
5.94765344e-05
5.94654914e-05
5.94545132e-05
5.9443603e-05
5.94327584e-05
5.94219831e-05
5.94112742e-05
5.94006358e-05
5.93900648e-05
5.93795653e-05
5.93691339e-05
5.93587753e-05
5.93484853e-05
5.93382693e-05
5.93281224e-05
5.93180507e-05
5.93080484e-05
5.92981225e-05
5.92882663e-05
5.92784877e-05
5.92687789e-05
5.92591488e-05
5.92495885e-05
5.92401081e-05
5.92306976e-05
5.92213678e-05
5.92121241e-05
5.92029913e-05
5.91939253e-05
5.9184938e-05
5.9176018e-05
5.91671775e-05
5.91584047e-05
5.91497119e-05
5.91410876e-05
5.91325435e-05
5.91240683e-05
5.91156739e-05
5.91073487e-05
5.90991046e-05
5.90909298e-05
5.90828366e-05
5.90748128e-05
5.90668708e-05
5.90589983e-05
5.90512077e-05
5.90434866e-05
5.90358475e-05
5.90282779e-05
5.90207903e-05
5.90133721e-05
5.90060358e-05
5.89987688e-05
5.89915834e-05
5.89844672e-05
5.89774323e-05
5.89704664e-05
5.89635815e-05
5.89567654e-05
5.89500298e-05
5.89433626e-05
5.89366931e-05
5.89300652e-05
5.89235194e-05
5.89170434e-05
5.89106486e-05
5.89043233e-05
5.88980783e-05
5.88919022e-05
5.88858058e-05
5.88797776e-05
5.88738282e-05
5.88679464e-05
5.88621425e-05
5.88564057e-05
5.88507458e-05
5.88451522e-05
5.88396346e-05
5.88341828e-05
5.88288058e-05
5.88234939e-05
5.88182559e-05
5.88130821e-05
5.88079812e-05
5.88029438e-05
5.87979781e-05
5.87930753e-05
5.8788243e-05
5.87834727e-05
5.87787718e-05
5.87741321e-05
5.87695608e-05
5.87650498e-05
5.87606059e-05
5.87562215e-05
5.87519031e-05
5.87476433e-05
5.87434483e-05
5.8739311e-05
5.87352373e-05
5.87312204e-05
5.87272659e-05
5.87233673e-05
5.87195298e-05
5.87157474e-05
5.87120249e-05
5.87083564e-05
5.87047467e-05
5.870119e-05
5.86976909e-05
5.86942438e-05
5.86908532e-05
5.86875135e-05
5.86842291e-05
5.86809946e-05
5.86778143e-05
5.86746828e-05
5.86716044e-05
5.86685737e-05
5.8665595e-05
5.86626629e-05
5.86597817e-05
5.8656946e-05
5.86541601e-05
5.86514186e-05
5.86487258e-05
5.86460764e-05
5.86434745e-05
5.8640915e-05
5.86384018e-05
5.863593e-05
5.86335035e-05
5.86311172e-05
5.86287751e-05
5.86264722e-05
5.86242126e-05
5.8621991e-05
5.86198116e-05
5.86176691e-05
5.86155679e-05
5.86135026e-05
5.86114775e-05
5.86094872e-05
5.86075361e-05
5.86056188e-05
5.86037397e-05
5.86018935e-05
5.86000844e-05
5.85983071e-05
5.85965661e-05
5.85948559e-05
5.8593181e-05
5.85915359e-05
5.85899252e-05
5.85883432e-05
5.85867948e-05
5.85852742e-05
5.85837862e-05
5.8582325e-05
5.85808956e-05
5.85794921e-05
5.85781194e-05
5.85767719e-05
5.85754542e-05
5.85741607e-05
5.85728963e-05
5.85716552e-05
5.85704423e-05
5.8569252e-05
5.8568089e-05
5.85669477e-05
5.85658329e-05
5.85647391e-05
5.85636709e-05
5.8562623e-05
5.85615998e-05
5.85605962e-05
5.85596165e-05
5.85586557e-05
5.8557717e-05
5.85567628e-05
5.8555767e-05
5.85547249e-05
5.85536413e-05
5.85525118e-05
5.85513426e-05
5.85501298e-05
5.85488808e-05
5.85475925e-05
5.85462736e-05
5.85449224e-05
5.85435489e-05
5.85421529e-05
5.85407455e-05
5.85393287e-05
5.85379141e-05
5.85365064e-05
5.8535117e-05
5.85337534e-05
5.85324257e-05
5.85311444e-05
5.85299171e-05
5.85287564e-05
5.85276665e-05
5.85266608e-05
5.85257391e-05
5.85249136e-05
5.85241799e-05
5.8523546e-05
5.85230041e-05
5.85225564e-05
5.85221924e-05
5.85219088e-05
5.8521693e-05
5.85215382e-05
5.85214322e-05
5.85213656e-05
5.85213298e-05
5.85213198e-05
5.85213275e-05
5.85212375e-05
5.8521177e-05
5.85211457e-05
5.85211309e-05
5.85211243e-05
5.85211217e-05
5.85211208e-05
5.85211205e-05
5.85211203e-05
5.85211203e-05
5.85211203e-05
5.85211203e-05
5.85211203e-05
5.85211203e-05
5.85211203e-05
5.85211203e-05
5.85211203e-05
5.85211203e-05
5.85211203e-05
5.85211203e-05
5.85211203e-05
5.85211203e-05
5.85211203e-05
5.85211203e-05
5.85211203e-05
5.85211203e-05
5.85211203e-05
5.85211203e-05
5.85211203e-05
5.85211203e-05
5.85211203e-05
5.85211203e-05
5.85211203e-05
5.85211203e-05
5.85211203e-05
5.85211203e-05
5.85211203e-05
)
;

boundaryField
{
    closed
    {
        type            calculated;
        value           nonuniform List<scalar> 0();
    }
    open
    {
        type            calculated;
        value           uniform 5.85211203e-05;
    }
    sides
    {
        type            empty;
    }
    procBoundary5to4
    {
        type            processor;
        value           uniform 5.97980938e-05;
    }
}


// ************************************************************************* //
