/*--------------------------------*- C++ -*----------------------------------*\
| =========                 |                                                 |
| \\      /  F ield         | OpenFOAM: The Open Source CFD Toolbox           |
|  \\    /   O peration     | Version:  2306                                  |
|   \\  /    A nd           | Website:  www.openfoam.com                      |
|    \\/     M anipulation  |                                                 |
\*---------------------------------------------------------------------------*/
FoamFile
{
    version     2.0;
    format      ascii;
    arch        "LSB;label=32;scalar=64";
    class       volScalarField;
    location    "0.00098";
    object      prefDPV_H2O;
}
// * * * * * * * * * * * * * * * * * * * * * * * * * * * * * * * * * * * * * //

dimensions      [1 -1 -1 0 0 0 0];

internalField   nonuniform List<scalar> 
530
(
1.08587379e-06
1.08744793e-06
1.08889049e-06
1.09039881e-06
1.09177449e-06
1.09322223e-06
1.09453057e-06
1.09586595e-06
1.0970749e-06
1.09836015e-06
1.0995199e-06
1.10075775e-06
1.10187056e-06
1.10308446e-06
1.10421777e-06
1.10545127e-06
1.10653421e-06
1.1077242e-06
1.10875977e-06
1.10991006e-06
1.11085744e-06
1.1119137e-06
1.11281503e-06
1.11383665e-06
1.11469906e-06
1.11568709e-06
1.11651262e-06
1.11746813e-06
1.11825865e-06
1.11918288e-06
1.11994007e-06
1.12083428e-06
1.12155978e-06
1.12242516e-06
1.12312064e-06
1.12395836e-06
1.12462535e-06
1.12543684e-06
1.12607628e-06
1.12685704e-06
1.12745441e-06
1.12820506e-06
1.12876988e-06
1.12950399e-06
1.13003349e-06
1.13075581e-06
1.13124848e-06
1.13196108e-06
1.13241928e-06
1.13307373e-06
1.13352128e-06
1.13416313e-06
1.13462175e-06
1.1352143e-06
1.13567621e-06
1.13622778e-06
1.13668685e-06
1.13720363e-06
1.13765621e-06
1.13814254e-06
1.13858674e-06
1.13904562e-06
1.1394806e-06
1.13991412e-06
1.1403397e-06
1.1407493e-06
1.1411658e-06
1.14155244e-06
1.14194645e-06
1.14229289e-06
1.14267769e-06
1.14299858e-06
1.14338087e-06
1.14367229e-06
1.14405662e-06
1.14431464e-06
1.14470413e-06
1.14492826e-06
1.14530559e-06
1.14553164e-06
1.1458831e-06
1.14610809e-06
1.14643835e-06
1.14665708e-06
1.14696987e-06
1.14717912e-06
1.1474771e-06
1.14767531e-06
1.14795987e-06
1.14814666e-06
1.14841837e-06
1.14859398e-06
1.14885305e-06
1.14901798e-06
1.14926445e-06
1.14941925e-06
1.14965317e-06
1.14979834e-06
1.15001982e-06
1.1501558e-06
1.15036499e-06
1.15049213e-06
1.15068926e-06
1.15080788e-06
1.15099318e-06
1.15110356e-06
1.15127732e-06
1.1513797e-06
1.15154223e-06
1.15163682e-06
1.15178848e-06
1.15187547e-06
1.15201664e-06
1.1520963e-06
1.15222723e-06
1.15230005e-06
1.15241853e-06
1.15247946e-06
1.15258561e-06
1.15263975e-06
1.15273607e-06
1.15278357e-06
1.1528703e-06
1.15291109e-06
1.15298857e-06
1.15302255e-06
1.15309116e-06
1.15311822e-06
1.15317835e-06
1.15319836e-06
1.1532504e-06
1.15326323e-06
1.15330752e-06
1.15331327e-06
1.15334968e-06
1.15334909e-06
1.15337662e-06
1.15337132e-06
1.15338823e-06
1.15337959e-06
1.15338545e-06
1.15337219e-06
1.15337083e-06
1.15335343e-06
1.1533463e-06
1.15332587e-06
1.15330891e-06
1.15327505e-06
1.15325438e-06
1.15321395e-06
1.15318862e-06
1.15314188e-06
1.15310989e-06
1.15305814e-06
1.15301865e-06
1.15296248e-06
1.15291549e-06
1.15285495e-06
1.15280086e-06
1.1527358e-06
1.15267507e-06
1.15260537e-06
1.15253841e-06
1.15246401e-06
1.15239114e-06
1.15231205e-06
1.15223355e-06
1.15214982e-06
1.15206593e-06
1.15197765e-06
1.15188854e-06
1.15179585e-06
1.15170153e-06
1.15160097e-06
1.15149888e-06
1.15139413e-06
1.15128756e-06
1.15117883e-06
1.15106795e-06
1.1509554e-06
1.15084041e-06
1.15072419e-06
1.15060527e-06
1.15048554e-06
1.15036288e-06
1.15023979e-06
1.15011358e-06
1.14998729e-06
1.14985772e-06
1.14972838e-06
1.14959562e-06
1.14946339e-06
1.14932765e-06
1.14919269e-06
1.14905415e-06
1.14891662e-06
1.14877545e-06
1.14863552e-06
1.14849192e-06
1.14834974e-06
1.1482039e-06
1.14805963e-06
1.14791174e-06
1.14776554e-06
1.14761579e-06
1.14746782e-06
1.14731641e-06
1.14716695e-06
1.14701467e-06
1.14686396e-06
1.14670967e-06
1.14655703e-06
1.14640091e-06
1.14624655e-06
1.14608877e-06
1.14593294e-06
1.14577364e-06
1.14561665e-06
1.14545591e-06
1.14529808e-06
1.14513902e-06
1.14498477e-06
1.1448264e-06
1.14467113e-06
1.14451241e-06
1.14435628e-06
1.14419719e-06
1.14404043e-06
1.14388098e-06
1.14372378e-06
1.14356403e-06
1.14340652e-06
1.14324657e-06
1.14308885e-06
1.1429288e-06
1.14277098e-06
1.14261091e-06
1.14245311e-06
1.14229305e-06
1.14213304e-06
1.14196837e-06
1.1418063e-06
1.14164261e-06
1.14148129e-06
1.14131858e-06
1.14115812e-06
1.14099641e-06
1.14083688e-06
1.14067621e-06
1.14051767e-06
1.14035809e-06
1.1402006e-06
1.14004217e-06
1.13988577e-06
1.13972854e-06
1.1395733e-06
1.13941731e-06
1.13926327e-06
1.13910859e-06
1.1389558e-06
1.13880246e-06
1.13865097e-06
1.13849903e-06
1.13834889e-06
1.13819838e-06
1.13804964e-06
1.13790062e-06
1.13775332e-06
1.13760583e-06
1.13746001e-06
1.13731409e-06
1.1371698e-06
1.13702549e-06
1.13688277e-06
1.13674011e-06
1.13659901e-06
1.13645802e-06
1.13631857e-06
1.13617931e-06
1.13604155e-06
1.13590404e-06
1.13576801e-06
1.13563228e-06
1.13549801e-06
1.1353641e-06
1.13523162e-06
1.13509955e-06
1.1349689e-06
1.13483871e-06
1.1347099e-06
1.13458161e-06
1.13445467e-06
1.13432832e-06
1.13420327e-06
1.13407888e-06
1.13395574e-06
1.13383332e-06
1.13371212e-06
1.13359169e-06
1.13347304e-06
1.13335625e-06
1.13324051e-06
1.1331255e-06
1.13301154e-06
1.13289833e-06
1.1327862e-06
1.13267482e-06
1.13256455e-06
1.13245504e-06
1.13234665e-06
1.13223904e-06
1.13213255e-06
1.13202687e-06
1.13192232e-06
1.13181859e-06
1.13171598e-06
1.13161422e-06
1.13151358e-06
1.13141381e-06
1.13131516e-06
1.13121739e-06
1.13112073e-06
1.13102497e-06
1.13093032e-06
1.13083658e-06
1.13074395e-06
1.13065223e-06
1.13056162e-06
1.13047193e-06
1.13038334e-06
1.13029568e-06
1.13020911e-06
1.13012348e-06
1.13003893e-06
1.12995173e-06
1.12986444e-06
1.1297782e-06
1.12969311e-06
1.12960905e-06
1.12952614e-06
1.12944425e-06
1.12936349e-06
1.12928375e-06
1.12920513e-06
1.12912753e-06
1.12905102e-06
1.12897552e-06
1.12890111e-06
1.1288277e-06
1.12875536e-06
1.12868401e-06
1.12861372e-06
1.1285444e-06
1.12847613e-06
1.12840882e-06
1.12834255e-06
1.12827722e-06
1.12821292e-06
1.12814954e-06
1.12808718e-06
1.12802573e-06
1.12796528e-06
1.12790573e-06
1.12784716e-06
1.12778947e-06
1.12773275e-06
1.1276769e-06
1.127622e-06
1.12756796e-06
1.12751485e-06
1.12746257e-06
1.12741122e-06
1.12736068e-06
1.12731105e-06
1.12726223e-06
1.12721429e-06
1.12716713e-06
1.12712085e-06
1.12707534e-06
1.12703068e-06
1.12698678e-06
1.12694371e-06
1.12690138e-06
1.12685987e-06
1.12681908e-06
1.12677909e-06
1.12673981e-06
1.12670131e-06
1.12666349e-06
1.12662644e-06
1.12659007e-06
1.12655444e-06
1.12651946e-06
1.12648522e-06
1.12645161e-06
1.12641872e-06
1.12638645e-06
1.12635487e-06
1.1263239e-06
1.1262936e-06
1.1262639e-06
1.12623485e-06
1.12620637e-06
1.12617854e-06
1.12615127e-06
1.12612461e-06
1.1260985e-06
1.126073e-06
1.12604802e-06
1.12602363e-06
1.12599975e-06
1.12597644e-06
1.12595363e-06
1.12593137e-06
1.12590959e-06
1.12588835e-06
1.12586757e-06
1.12584731e-06
1.12582751e-06
1.12580821e-06
1.12578935e-06
1.12577096e-06
1.12575301e-06
1.12573553e-06
1.12571845e-06
1.12570183e-06
1.12568561e-06
1.12566982e-06
1.12565441e-06
1.12563943e-06
1.12562482e-06
1.12561061e-06
1.12559677e-06
1.12558331e-06
1.1255702e-06
1.12555746e-06
1.12554506e-06
1.12553302e-06
1.1255213e-06
1.12550992e-06
1.12549887e-06
1.12548813e-06
1.1254777e-06
1.12546759e-06
1.12545777e-06
1.12544825e-06
1.12543901e-06
1.12543006e-06
1.12542137e-06
1.12541297e-06
1.12540482e-06
1.12539694e-06
1.1253893e-06
1.12538164e-06
1.12537372e-06
1.12536556e-06
1.12535718e-06
1.12534862e-06
1.12533988e-06
1.12533103e-06
1.12532209e-06
1.12531313e-06
1.12530419e-06
1.12529535e-06
1.12528667e-06
1.12527825e-06
1.12527014e-06
1.12526247e-06
1.1252553e-06
1.12524876e-06
1.12524291e-06
1.12523791e-06
1.12523377e-06
1.12523065e-06
1.12522854e-06
1.12522759e-06
1.12522772e-06
1.12522904e-06
1.12523143e-06
1.12523491e-06
1.12523933e-06
1.12524458e-06
1.12525053e-06
1.12525693e-06
1.12526366e-06
1.12527041e-06
1.12527708e-06
1.12528338e-06
1.12528928e-06
1.12529444e-06
1.12529932e-06
1.12530319e-06
1.12530633e-06
1.1253053e-06
1.12530422e-06
1.12530367e-06
1.12530341e-06
1.12530329e-06
1.12530325e-06
1.12530323e-06
1.12530322e-06
1.12530322e-06
1.12530322e-06
1.12530322e-06
1.12530322e-06
1.12530322e-06
1.12530322e-06
1.12530322e-06
1.12530322e-06
1.12530322e-06
1.12530322e-06
1.12530322e-06
1.12530322e-06
1.12530322e-06
1.12530322e-06
1.12530322e-06
1.12530322e-06
1.12530322e-06
1.12530322e-06
1.12530322e-06
1.12530322e-06
1.12530322e-06
1.12530322e-06
1.12530322e-06
1.12530322e-06
1.12530322e-06
1.12530322e-06
1.12530322e-06
1.12530322e-06
1.12530322e-06
)
;

boundaryField
{
    closed
    {
        type            calculated;
        value           nonuniform List<scalar> 0();
    }
    open
    {
        type            calculated;
        value           uniform 1.12530322e-06;
    }
    sides
    {
        type            empty;
    }
    procBoundary5to4
    {
        type            processor;
        value           uniform 1.08435852e-06;
    }
}


// ************************************************************************* //
