/*--------------------------------*- C++ -*----------------------------------*\
| =========                 |                                                 |
| \\      /  F ield         | OpenFOAM: The Open Source CFD Toolbox           |
|  \\    /   O peration     | Version:  2306                                  |
|   \\  /    A nd           | Website:  www.openfoam.com                      |
|    \\/     M anipulation  |                                                 |
\*---------------------------------------------------------------------------*/
FoamFile
{
    version     2.0;
    format      ascii;
    arch        "LSB;label=32;scalar=64";
    class       volScalarField;
    location    "0.00044";
    object      prefDPV_H2;
}
// * * * * * * * * * * * * * * * * * * * * * * * * * * * * * * * * * * * * * //

dimensions      [1 -1 -1 0 0 0 0];

internalField   nonuniform List<scalar> 
530
(
-3.15243818e-05
-3.08921671e-05
-3.07278971e-05
-3.05582669e-05
-3.07226637e-05
-3.1547679e-05
-3.15344339e-05
-3.09448374e-05
-3.06042203e-05
-3.06791824e-05
-3.1544964e-05
-3.15749013e-05
-3.09653827e-05
-3.08923531e-05
-3.07106812e-05
-3.07231064e-05
-3.10747086e-05
-3.15368862e-05
-3.10276071e-05
-3.07936067e-05
-3.09116457e-05
-3.15433066e-05
-3.15631558e-05
-3.09935217e-05
-3.08097387e-05
-3.07734215e-05
-3.06152817e-05
-3.07621082e-05
-3.15240487e-05
-3.15352008e-05
-3.105417e-05
-3.06414435e-05
-3.08295374e-05
-3.15314913e-05
-3.12288948e-05
-3.06225708e-05
-3.09154417e-05
-3.15307795e-05
-3.15437471e-05
-3.08334458e-05
-3.04299792e-05
-3.10981214e-05
-3.14997263e-05
-3.08215065e-05
-3.0680458e-05
-3.15552585e-05
-3.15052155e-05
-3.09261935e-05
-3.0477456e-05
-3.08285756e-05
-3.15178634e-05
-3.12745052e-05
-3.06276446e-05
-3.08850904e-05
-3.15521125e-05
-3.15395253e-05
-3.08923786e-05
-3.04679752e-05
-3.08954785e-05
-3.15121453e-05
-3.10515385e-05
-3.06020823e-05
-3.09005798e-05
-3.15128155e-05
-3.10029791e-05
-3.063244e-05
-3.08985724e-05
-3.15598317e-05
-3.15505734e-05
-3.08868088e-05
-3.04430267e-05
-3.08837425e-05
-3.15069334e-05
-3.09498699e-05
-3.06447634e-05
-3.09043947e-05
-3.15361215e-05
-3.15393432e-05
-3.07907968e-05
-3.04402968e-05
-3.0899991e-05
-3.15006079e-05
-3.09302891e-05
-3.06499828e-05
-3.09284946e-05
-3.15297983e-05
-3.14398382e-05
-3.0753282e-05
-3.04455756e-05
-3.08991247e-05
-3.15124424e-05
-3.1535817e-05
-3.07600866e-05
-3.04514437e-05
-3.09262098e-05
-3.15039952e-05
-3.09259395e-05
-3.06535248e-05
-3.09126608e-05
-3.15394873e-05
-3.15354733e-05
-3.08029406e-05
-3.04354481e-05
-3.08876656e-05
-3.15155099e-05
-3.15593314e-05
-3.0820827e-05
-3.04588089e-05
-3.09348664e-05
-3.15077638e-05
-3.09372543e-05
-3.06444222e-05
-3.08832671e-05
-3.15510919e-05
-3.1569678e-05
-3.08800504e-05
-3.04573258e-05
-3.08774527e-05
-3.15281314e-05
-3.15688372e-05
-3.08901394e-05
-3.04714096e-05
-3.08823705e-05
-3.15194429e-05
-3.15683241e-05
-3.08935415e-05
-3.05033133e-05
-3.08890525e-05
-3.15080307e-05
-3.1552937e-05
-3.08900996e-05
-3.04921698e-05
-3.09095552e-05
-3.14794715e-05
-3.11788417e-05
-3.063805e-05
-3.06094036e-05
-3.14545278e-05
-3.15279857e-05
-3.09000469e-05
-3.05726181e-05
-3.08883836e-05
-3.15103108e-05
-3.11575079e-05
-3.08468114e-05
-3.09220897e-05
-3.10559602e-05
-3.10739552e-05
-3.08978787e-05
-3.08955095e-05
-3.09385988e-05
-3.0958146e-05
-3.09180877e-05
-3.09068231e-05
-3.09179348e-05
-3.09259889e-05
-3.09210114e-05
-3.09165768e-05
-3.09177842e-05
-3.09197702e-05
-3.09194614e-05
-3.09185499e-05
-3.09185603e-05
-3.09189029e-05
-3.0918918e-05
-3.09187992e-05
-3.0918767e-05
-3.09187963e-05
-3.09188368e-05
-3.09188442e-05
-3.09187856e-05
-3.09187118e-05
-3.09188009e-05
-3.0919093e-05
-3.09190211e-05
-3.09180934e-05
-3.09180755e-05
-3.09204779e-05
-3.09213861e-05
-3.09161527e-05
-3.09131751e-05
-3.09224999e-05
-3.09370301e-05
-3.09193061e-05
-3.08987582e-05
-3.09082374e-05
-3.10014991e-05
-3.0984443e-05
-3.09170055e-05
-3.09274171e-05
-3.10931674e-05
-3.13285483e-05
-3.0908055e-05
-3.06401154e-05
-3.14070403e-05
-3.15219999e-05
-3.09107362e-05
-3.05962643e-05
-3.09133113e-05
-3.1449805e-05
-3.14377337e-05
-3.06596921e-05
-3.05460238e-05
-3.1326998e-05
-3.15268449e-05
-3.08722219e-05
-3.05832165e-05
-3.13556724e-05
-3.15116373e-05
-3.0926676e-05
-3.05588389e-05
-3.07980264e-05
-3.14445282e-05
-3.15485965e-05
-3.08688172e-05
-3.05613352e-05
-3.13372583e-05
-3.15051796e-05
-3.09301399e-05
-3.05755778e-05
-3.0802668e-05
-3.14339855e-05
-3.15575927e-05
-3.08711842e-05
-3.05167435e-05
-3.13049889e-05
-3.15099283e-05
-3.09650667e-05
-3.06361485e-05
-3.07321917e-05
-3.14645767e-05
-3.155165e-05
-3.08922585e-05
-3.05547873e-05
-3.0884624e-05
-3.14229523e-05
-3.15592715e-05
-3.09203552e-05
-3.05301461e-05
-3.12596658e-05
-3.15005651e-05
-3.10075728e-05
-3.0624314e-05
-3.05805168e-05
-3.12875994e-05
-3.15175555e-05
-3.09550724e-05
-3.06342705e-05
-3.06278793e-05
-3.14133573e-05
-3.15430645e-05
-3.09016278e-05
-3.06903292e-05
-3.08937153e-05
-3.12873733e-05
-3.10930754e-05
-3.09166738e-05
-3.09006263e-05
-3.09611687e-05
-3.09858724e-05
-3.09168418e-05
-3.09004723e-05
-3.0915743e-05
-3.09322077e-05
-3.09245924e-05
-3.09147634e-05
-3.09158759e-05
-3.09205009e-05
-3.09205579e-05
-3.09185291e-05
-3.09181951e-05
-3.0918797e-05
-3.09190611e-05
-3.09188823e-05
-3.09187338e-05
-3.09187715e-05
-3.09188323e-05
-3.09188262e-05
-3.09188019e-05
-3.0918801e-05
-3.09188082e-05
-3.09188092e-05
-3.09188072e-05
-3.09188065e-05
-3.09188069e-05
-3.09188071e-05
-3.09188071e-05
-3.0918807e-05
-3.0918807e-05
-3.0918807e-05
-3.0918807e-05
-3.0918807e-05
-3.0918807e-05
-3.0918807e-05
-3.0918807e-05
-3.0918807e-05
-3.0918807e-05
-3.0918807e-05
-3.0918807e-05
-3.0918807e-05
-3.0918807e-05
-3.0918807e-05
-3.0918807e-05
-3.0918807e-05
-3.0918807e-05
-3.0918807e-05
-3.0918807e-05
-3.0918807e-05
-3.0918807e-05
-3.0918807e-05
-3.0918807e-05
-3.0918807e-05
-3.0918807e-05
-3.0918807e-05
-3.0918807e-05
-3.0918807e-05
-3.0918807e-05
-3.0918807e-05
-3.0918807e-05
-3.0918807e-05
-3.0918807e-05
-3.0918807e-05
-3.0918807e-05
-3.0918807e-05
-3.0918807e-05
-3.0918807e-05
-3.0918807e-05
-3.0918807e-05
-3.0918807e-05
-3.0918807e-05
-3.0918807e-05
-3.0918807e-05
-3.0918807e-05
-3.0918807e-05
-3.0918807e-05
-3.0918807e-05
-3.0918807e-05
-3.0918807e-05
-3.0918807e-05
-3.0918807e-05
-3.0918807e-05
-3.0918807e-05
-3.0918807e-05
-3.0918807e-05
-3.0918807e-05
-3.0918807e-05
-3.0918807e-05
-3.0918807e-05
-3.0918807e-05
-3.0918807e-05
-3.0918807e-05
-3.0918807e-05
-3.0918807e-05
-3.0918807e-05
-3.0918807e-05
-3.0918807e-05
-3.0918807e-05
-3.0918807e-05
-3.0918807e-05
-3.0918807e-05
-3.0918807e-05
-3.0918807e-05
-3.0918807e-05
-3.0918807e-05
-3.0918807e-05
-3.09188069e-05
-3.0918807e-05
-3.09188072e-05
-3.0918807e-05
-3.09188063e-05
-3.09188065e-05
-3.09188095e-05
-3.09188097e-05
-3.09188001e-05
-3.09187973e-05
-3.09188228e-05
-3.09188413e-05
-3.09187807e-05
-3.09187062e-05
-3.09188184e-05
-3.09191173e-05
-3.09189619e-05
-3.09180381e-05
-3.09180162e-05
-3.09208114e-05
-3.09212613e-05
-3.09157319e-05
-3.09133448e-05
-3.09236141e-05
-3.09352672e-05
-3.09170369e-05
-3.08990373e-05
-3.09117536e-05
-3.09919838e-05
-3.0969353e-05
-3.09111194e-05
-3.09153583e-05
-3.11553936e-05
-3.12315128e-05
-3.09015173e-05
-3.07054516e-05
-3.09727787e-05
-3.14941916e-05
-3.09560536e-05
-3.06287831e-05
-3.08705391e-05
-3.14517311e-05
-3.10811526e-05
-3.06704585e-05
-3.08837894e-05
-3.14582844e-05
-3.14834948e-05
-3.0905416e-05
-3.05591142e-05
-3.09058281e-05
-3.14811253e-05
-3.09772896e-05
-3.07190752e-05
-3.08806541e-05
-3.14740075e-05
-3.13759229e-05
-3.08285901e-05
-3.05413077e-05
-3.09404997e-05
-3.15006279e-05
-3.09426883e-05
-3.07308932e-05
-3.08985637e-05
-3.14830614e-05
-3.12638613e-05
-3.07708667e-05
-3.05716661e-05
-3.10074594e-05
-3.15064271e-05
-3.09806082e-05
-3.06721169e-05
-3.08853166e-05
-3.14722057e-05
-3.14914363e-05
-3.08995103e-05
-3.0548134e-05
-3.08939711e-05
-3.14640404e-05
-3.11944093e-05
-3.07062516e-05
-3.06705183e-05
-3.13695102e-05
-3.15311518e-05
-3.08999083e-05
-3.08795881e-05
-3.09102518e-05
-3.10377747e-05
-3.09484998e-05
-3.08975366e-05
-3.09032461e-05
-3.09409436e-05
-3.093724e-05
-3.09273538e-05
-3.0920564e-05
-3.09031734e-05
-3.09019697e-05
-3.09763146e-05
-3.10038412e-05
-3.08980472e-05
-3.09397592e-05
-3.09638247e-05
-3.1317578e-05
-3.09025396e-05
-3.06600212e-05
-3.08812334e-05
-3.14631816e-05
-3.10890147e-05
-3.06741394e-05
-3.08777224e-05
-3.14582053e-05
-3.10626579e-05
-3.06597649e-05
-3.08969916e-05
-3.14521979e-05
-3.15187777e-05
-3.08841855e-05
-3.05307107e-05
-3.08768378e-05
-3.14639302e-05
-3.10703928e-05
-3.08083129e-05
-3.0889442e-05
-3.14799311e-05
-3.1533295e-05
-3.09025963e-05
-3.06489122e-05
-3.05722234e-05
-3.08828911e-05
-3.14644155e-05
-3.1132371e-05
-3.08659513e-05
-3.08825842e-05
-3.14502599e-05
-3.15689945e-05
-3.10132262e-05
-3.09073917e-05
-3.06355562e-05
-3.05678784e-05
-3.08936854e-05
-3.14840491e-05
-3.10085024e-05
-3.08330922e-05
-3.09294325e-05
-3.15091937e-05
-3.09848915e-05
-3.07784491e-05
-3.08840924e-05
-3.14911547e-05
-3.15056016e-05
-3.08796452e-05
-3.05388214e-05
-3.08790489e-05
-3.14712519e-05
-3.14988901e-05
-3.08969346e-05
-3.04881263e-05
-3.04951355e-05
-3.10531504e-05
-3.15172732e-05
-3.09495182e-05
-3.07819076e-05
-3.09286547e-05
-3.15057265e-05
-3.09796193e-05
-3.07188298e-05
)
;

boundaryField
{
    closed
    {
        type            calculated;
        value           nonuniform List<scalar> 0();
    }
    open
    {
        type            calculated;
        value           nonuniform List<scalar> 0();
    }
    sides
    {
        type            empty;
    }
    procBoundary2to1
    {
        type            processor;
        value           uniform -3.15820577e-05;
    }
    procBoundary2to3
    {
        type            processor;
        value           uniform -3.08760883e-05;
    }
}


// ************************************************************************* //
