/*--------------------------------*- C++ -*----------------------------------*\
| =========                 |                                                 |
| \\      /  F ield         | OpenFOAM: The Open Source CFD Toolbox           |
|  \\    /   O peration     | Version:  2306                                  |
|   \\  /    A nd           | Website:  www.openfoam.com                      |
|    \\/     M anipulation  |                                                 |
\*---------------------------------------------------------------------------*/
FoamFile
{
    version     2.0;
    format      ascii;
    arch        "LSB;label=32;scalar=64";
    class       volScalarField;
    location    "0.00044";
    object      prefDZ_H2;
}
// * * * * * * * * * * * * * * * * * * * * * * * * * * * * * * * * * * * * * //

dimensions      [1 -1 -1 0 0 0 0];

internalField   nonuniform List<scalar> 
530
(
6.35512623e-05
6.22767553e-05
6.19455969e-05
6.16036325e-05
6.19350467e-05
6.35982279e-05
6.35715268e-05
6.23829355e-05
6.16962719e-05
6.18473909e-05
6.35927548e-05
6.36531066e-05
6.24243537e-05
6.22771304e-05
6.19108906e-05
6.19359391e-05
6.26447481e-05
6.35764705e-05
6.25497942e-05
6.20780634e-05
6.2316023e-05
6.35894134e-05
6.36294283e-05
6.24810801e-05
6.21105847e-05
6.20373714e-05
6.1718571e-05
6.20145645e-05
6.35505907e-05
6.35730727e-05
6.26033435e-05
6.17713116e-05
6.21504976e-05
6.35655945e-05
6.29555781e-05
6.17332654e-05
6.23236756e-05
6.35641596e-05
6.35903016e-05
6.21583768e-05
6.13450123e-05
6.26919469e-05
6.35015583e-05
6.21343077e-05
6.18499626e-05
6.36135078e-05
6.35126242e-05
6.23453505e-05
6.14407227e-05
6.21485587e-05
6.35381215e-05
6.30475259e-05
6.17434939e-05
6.22624891e-05
6.36071657e-05
6.35817906e-05
6.22771817e-05
6.14216099e-05
6.22834309e-05
6.35265942e-05
6.25980384e-05
6.16919619e-05
6.22937148e-05
6.35279452e-05
6.25001457e-05
6.17531611e-05
6.2289668e-05
6.36227271e-05
6.3604063e-05
6.22659533e-05
6.13713153e-05
6.22597718e-05
6.35160873e-05
6.23930807e-05
6.17780043e-05
6.23014055e-05
6.35749288e-05
6.35814235e-05
6.20723989e-05
6.1365812e-05
6.22925278e-05
6.35033356e-05
6.23536071e-05
6.17885263e-05
6.23499894e-05
6.35621816e-05
6.33808274e-05
6.19967712e-05
6.13764536e-05
6.22907815e-05
6.35271931e-05
6.35743149e-05
6.20104889e-05
6.13882834e-05
6.23453835e-05
6.35101642e-05
6.23448384e-05
6.17956668e-05
6.23180693e-05
6.35817141e-05
6.3573622e-05
6.209688e-05
6.13560372e-05
6.22676807e-05
6.3533377e-05
6.36217186e-05
6.2132938e-05
6.14031311e-05
6.23628346e-05
6.35177614e-05
6.23676485e-05
6.17773165e-05
6.22588134e-05
6.36051082e-05
6.36425766e-05
6.22523287e-05
6.14001413e-05
6.22470919e-05
6.35588213e-05
6.36408816e-05
6.22726677e-05
6.14285335e-05
6.22570059e-05
6.35413057e-05
6.36398473e-05
6.2279526e-05
6.14928495e-05
6.22704765e-05
6.35182994e-05
6.36088279e-05
6.22725873e-05
6.14703848e-05
6.23118087e-05
6.34607259e-05
6.28546742e-05
6.17644706e-05
6.1706721e-05
6.34104407e-05
6.35585275e-05
6.22926406e-05
6.16325637e-05
6.22691281e-05
6.35228959e-05
6.28116665e-05
6.21853209e-05
6.23370775e-05
6.26069524e-05
6.26432293e-05
6.22882696e-05
6.22834934e-05
6.2370359e-05
6.24097649e-05
6.23290098e-05
6.2306301e-05
6.23287015e-05
6.2344938e-05
6.23349038e-05
6.23259639e-05
6.2328398e-05
6.23324015e-05
6.23317791e-05
6.23299415e-05
6.23299624e-05
6.23306531e-05
6.23306836e-05
6.23304441e-05
6.23303791e-05
6.23304382e-05
6.23305198e-05
6.23305348e-05
6.23304167e-05
6.23302679e-05
6.23304475e-05
6.23310363e-05
6.23308913e-05
6.23290212e-05
6.23289852e-05
6.23338282e-05
6.23356591e-05
6.23251089e-05
6.23191061e-05
6.23379044e-05
6.23671964e-05
6.2331466e-05
6.22900426e-05
6.23091521e-05
6.2497162e-05
6.24627781e-05
6.2326828e-05
6.23478173e-05
6.26819598e-05
6.31564737e-05
6.23087844e-05
6.17686342e-05
6.33147089e-05
6.35464604e-05
6.23141896e-05
6.16802331e-05
6.23193808e-05
6.34009199e-05
6.3376585e-05
6.18080998e-05
6.15789512e-05
6.31533483e-05
6.35562278e-05
6.2236547e-05
6.16539295e-05
6.32111542e-05
6.352557e-05
6.23463231e-05
6.16047857e-05
6.20869733e-05
6.33902821e-05
6.36000776e-05
6.22296834e-05
6.1609818e-05
6.31740325e-05
6.35125518e-05
6.23533062e-05
6.16385304e-05
6.20963306e-05
6.33690287e-05
6.36182135e-05
6.2234455e-05
6.15199238e-05
6.31089794e-05
6.35221248e-05
6.24237167e-05
6.17606372e-05
6.19542545e-05
6.34306987e-05
6.36062333e-05
6.22769395e-05
6.15966179e-05
6.2261549e-05
6.33467865e-05
6.36215977e-05
6.23335809e-05
6.15469426e-05
6.30176107e-05
6.35032492e-05
6.25094062e-05
6.17367795e-05
6.16484871e-05
6.30739232e-05
6.35375008e-05
6.24035686e-05
6.17568512e-05
6.17439669e-05
6.33274434e-05
6.35889255e-05
6.22958276e-05
6.18698623e-05
6.22798764e-05
6.30734673e-05
6.26817745e-05
6.23261594e-05
6.22938085e-05
6.24158585e-05
6.24656597e-05
6.2326498e-05
6.22934981e-05
6.2324283e-05
6.23574748e-05
6.23421228e-05
6.23223081e-05
6.23245508e-05
6.23338747e-05
6.23339895e-05
6.23298995e-05
6.23292262e-05
6.23304397e-05
6.2330972e-05
6.23306116e-05
6.23303123e-05
6.23303882e-05
6.23305107e-05
6.23304984e-05
6.23304495e-05
6.23304478e-05
6.23304622e-05
6.23304642e-05
6.23304603e-05
6.23304588e-05
6.23304596e-05
6.23304601e-05
6.23304599e-05
6.23304597e-05
6.23304597e-05
6.23304598e-05
6.23304598e-05
6.23304597e-05
6.23304597e-05
6.23304597e-05
6.23304598e-05
6.23304597e-05
6.23304597e-05
6.23304597e-05
6.23304597e-05
6.23304597e-05
6.23304597e-05
6.23304597e-05
6.23304597e-05
6.23304597e-05
6.23304597e-05
6.23304597e-05
6.23304597e-05
6.23304597e-05
6.23304597e-05
6.23304597e-05
6.23304597e-05
6.23304597e-05
6.23304597e-05
6.23304597e-05
6.23304597e-05
6.23304597e-05
6.23304597e-05
6.23304597e-05
6.23304597e-05
6.23304597e-05
6.23304597e-05
6.23304597e-05
6.23304597e-05
6.23304597e-05
6.23304597e-05
6.23304597e-05
6.23304597e-05
6.23304597e-05
6.23304597e-05
6.23304597e-05
6.23304597e-05
6.23304597e-05
6.23304597e-05
6.23304597e-05
6.23304597e-05
6.23304597e-05
6.23304597e-05
6.23304597e-05
6.23304597e-05
6.23304597e-05
6.23304597e-05
6.23304597e-05
6.23304597e-05
6.23304597e-05
6.23304597e-05
6.23304597e-05
6.23304597e-05
6.23304597e-05
6.23304597e-05
6.23304597e-05
6.23304597e-05
6.23304597e-05
6.23304597e-05
6.23304597e-05
6.23304597e-05
6.23304597e-05
6.23304597e-05
6.23304597e-05
6.23304597e-05
6.23304597e-05
6.23304597e-05
6.23304597e-05
6.23304598e-05
6.23304598e-05
6.23304597e-05
6.23304597e-05
6.23304598e-05
6.23304601e-05
6.23304597e-05
6.23304584e-05
6.23304587e-05
6.23304648e-05
6.23304653e-05
6.23304458e-05
6.23304401e-05
6.23304917e-05
6.2330529e-05
6.23304068e-05
6.23302566e-05
6.23304827e-05
6.23310853e-05
6.23307721e-05
6.23289097e-05
6.23288656e-05
6.23345006e-05
6.23354076e-05
6.23242605e-05
6.23194483e-05
6.23401507e-05
6.23636426e-05
6.23268914e-05
6.22906053e-05
6.23162406e-05
6.24779798e-05
6.24323575e-05
6.2314962e-05
6.23235073e-05
6.28074041e-05
6.29608559e-05
6.22956047e-05
6.19003481e-05
6.24392634e-05
6.34904007e-05
6.24055467e-05
6.17457891e-05
6.22331545e-05
6.34048027e-05
6.26577387e-05
6.18298041e-05
6.22598664e-05
6.34180139e-05
6.34688365e-05
6.23034642e-05
6.16053406e-05
6.23042952e-05
6.34640598e-05
6.24483571e-05
6.19278124e-05
6.22535458e-05
6.34497108e-05
6.32519779e-05
6.2148588e-05
6.15694438e-05
6.23741909e-05
6.35033758e-05
6.23786031e-05
6.19516367e-05
6.22896504e-05
6.34679627e-05
6.30260686e-05
6.2032221e-05
6.16306446e-05
6.25091778e-05
6.35150665e-05
6.24550473e-05
6.18331473e-05
6.22629452e-05
6.34460784e-05
6.3484846e-05
6.22915587e-05
6.15832052e-05
6.22803922e-05
6.34296177e-05
6.28860575e-05
6.19019608e-05
6.18299246e-05
6.32390503e-05
6.35649102e-05
6.22923612e-05
6.22513968e-05
6.2313213e-05
6.25702916e-05
6.23903187e-05
6.22875799e-05
6.22990898e-05
6.23750858e-05
6.23676197e-05
6.23476896e-05
6.23340018e-05
6.22989434e-05
6.22965168e-05
6.24463918e-05
6.25018836e-05
6.22886093e-05
6.23726981e-05
6.24212129e-05
6.31343582e-05
6.22976658e-05
6.18087631e-05
6.22547136e-05
6.34278863e-05
6.26735884e-05
6.18372245e-05
6.22476358e-05
6.34178544e-05
6.26204546e-05
6.18082465e-05
6.22864813e-05
6.34057437e-05
6.35399647e-05
6.2260665e-05
6.1548081e-05
6.22458524e-05
6.34293955e-05
6.26360477e-05
6.21077103e-05
6.22712616e-05
6.34616523e-05
6.35692307e-05
6.229778e-05
6.17863681e-05
6.1631768e-05
6.22580555e-05
6.34303738e-05
6.27609921e-05
6.22239058e-05
6.22574369e-05
6.3401837e-05
6.36411988e-05
6.25208031e-05
6.23074473e-05
6.17594432e-05
6.16230088e-05
6.22798161e-05
6.3469954e-05
6.25112804e-05
6.21576639e-05
6.23518802e-05
6.35206439e-05
6.24636822e-05
6.20475067e-05
6.22604771e-05
6.34842784e-05
6.35134025e-05
6.22515119e-05
6.15644315e-05
6.22503099e-05
6.34441556e-05
6.34998725e-05
6.22863663e-05
6.14622334e-05
6.14763635e-05
6.26012881e-05
6.35369317e-05
6.23923717e-05
6.20544787e-05
6.23503121e-05
6.35136542e-05
6.24530538e-05
6.19273177e-05
)
;

boundaryField
{
    closed
    {
        type            calculated;
        value           nonuniform List<scalar> 0();
    }
    open
    {
        type            calculated;
        value           nonuniform List<scalar> 0();
    }
    sides
    {
        type            empty;
    }
    procBoundary2to1
    {
        type            processor;
        value           uniform 6.36675334e-05;
    }
    procBoundary2to3
    {
        type            processor;
        value           uniform 6.22443415e-05;
    }
}


// ************************************************************************* //
