/*--------------------------------*- C++ -*----------------------------------*\
| =========                 |                                                 |
| \\      /  F ield         | OpenFOAM: The Open Source CFD Toolbox           |
|  \\    /   O peration     | Version:  2306                                  |
|   \\  /    A nd           | Website:  www.openfoam.com                      |
|    \\/     M anipulation  |                                                 |
\*---------------------------------------------------------------------------*/
FoamFile
{
    version     2.0;
    format      ascii;
    arch        "LSB;label=32;scalar=64";
    class       volScalarField;
    location    "0.00018";
    object      prefDPV_T;
}
// * * * * * * * * * * * * * * * * * * * * * * * * * * * * * * * * * * * * * //

dimensions      [1 -1 -1 -1 0 0 0];

internalField   nonuniform List<scalar> 
531
(
5.9753396e-10
5.9757069e-10
5.97565001e-10
5.97540756e-10
5.97541105e-10
5.97552265e-10
5.97553736e-10
5.97549526e-10
5.97548154e-10
5.97549601e-10
5.9755038e-10
5.9754992e-10
5.97549566e-10
5.97549701e-10
5.97549841e-10
5.97549805e-10
5.97549754e-10
5.97549764e-10
5.9754978e-10
5.97549778e-10
5.97549773e-10
5.97549773e-10
5.97549775e-10
5.97549775e-10
5.97549774e-10
5.97549774e-10
5.97549775e-10
5.97549775e-10
5.97549775e-10
5.97549775e-10
5.97549775e-10
5.97549775e-10
5.97549775e-10
5.97549775e-10
5.97549775e-10
5.97549775e-10
5.97549775e-10
5.97549775e-10
5.97549775e-10
5.97549775e-10
5.97549775e-10
5.97549775e-10
5.97549775e-10
5.97549775e-10
5.97549775e-10
5.97549775e-10
5.97549775e-10
5.97549775e-10
5.97549775e-10
5.97549775e-10
5.97549775e-10
5.97549775e-10
5.97549775e-10
5.97549775e-10
5.97549775e-10
5.97549775e-10
5.97549775e-10
5.97549775e-10
5.97549775e-10
5.97549775e-10
5.97549775e-10
5.97549775e-10
5.97549775e-10
5.97549775e-10
5.97549775e-10
5.97549775e-10
5.97549775e-10
5.97549775e-10
5.97549775e-10
5.97549775e-10
5.97549775e-10
5.97549775e-10
5.97549775e-10
5.97549775e-10
5.97549775e-10
5.97549775e-10
5.97549775e-10
5.97549775e-10
5.97549775e-10
5.97549775e-10
5.97549775e-10
5.97549775e-10
5.97549775e-10
5.97549775e-10
5.97549775e-10
5.97549775e-10
5.97549775e-10
5.97549775e-10
5.97549775e-10
5.97549775e-10
5.97549775e-10
5.97549775e-10
5.97549775e-10
5.97549775e-10
5.97549775e-10
5.97549775e-10
5.97549775e-10
5.97549775e-10
5.97549775e-10
5.97549775e-10
5.97549775e-10
5.97549775e-10
5.97549775e-10
5.97549775e-10
5.97549775e-10
5.97549775e-10
5.97549775e-10
5.97549775e-10
5.97549775e-10
5.97549775e-10
5.97549775e-10
5.97549775e-10
5.97549775e-10
5.97549775e-10
5.97549775e-10
5.97549775e-10
5.97549775e-10
5.97549775e-10
5.97549775e-10
5.97549775e-10
5.97549775e-10
5.97549775e-10
5.97549775e-10
5.97549775e-10
5.97549775e-10
5.97549775e-10
5.97549775e-10
5.97549775e-10
5.97549775e-10
5.97549775e-10
5.97549775e-10
5.97549775e-10
5.97549775e-10
5.97549775e-10
5.97549775e-10
5.97549775e-10
5.97549775e-10
5.97549775e-10
5.97549775e-10
5.97549775e-10
5.97549775e-10
5.97549775e-10
5.97549775e-10
5.97549775e-10
5.97549775e-10
5.97549775e-10
5.97549775e-10
5.97549775e-10
5.97549775e-10
5.97549775e-10
5.97549775e-10
5.97549775e-10
5.97549775e-10
5.97549775e-10
5.97549775e-10
5.97549775e-10
5.97549775e-10
5.97549775e-10
5.97549775e-10
5.97549775e-10
5.97549775e-10
5.97549775e-10
5.97549775e-10
5.97549775e-10
5.97549775e-10
5.97549775e-10
5.97549775e-10
5.97549775e-10
5.97549775e-10
5.97549775e-10
5.97549775e-10
5.97549775e-10
5.97549775e-10
5.97549775e-10
5.97549775e-10
5.97549775e-10
5.97549775e-10
5.97549775e-10
5.97549775e-10
5.97549775e-10
5.97549775e-10
5.97549775e-10
5.97549775e-10
5.97549775e-10
5.97549775e-10
5.97549775e-10
5.97549775e-10
5.97549775e-10
5.97549775e-10
5.97549775e-10
5.97549775e-10
5.97549775e-10
5.97549775e-10
5.97549775e-10
5.97549775e-10
5.97549775e-10
5.97549775e-10
5.97549775e-10
5.97549775e-10
5.97549775e-10
5.97549775e-10
5.97549775e-10
5.97549775e-10
5.97549775e-10
5.97549775e-10
5.97549775e-10
5.97549775e-10
5.97549775e-10
5.97549775e-10
5.97549775e-10
5.97549775e-10
5.97549775e-10
5.97549775e-10
5.97549775e-10
5.97549775e-10
5.97549775e-10
5.97549775e-10
5.97549775e-10
5.97549775e-10
5.97549775e-10
5.97549775e-10
5.97549775e-10
5.97549775e-10
5.97549775e-10
5.97549775e-10
5.97549775e-10
5.97549775e-10
5.97549775e-10
5.97549775e-10
5.97549774e-10
5.97549774e-10
5.97549775e-10
5.97549775e-10
5.97549775e-10
5.97549774e-10
5.97549775e-10
5.97549775e-10
5.97549775e-10
5.97549775e-10
5.97549775e-10
5.97549775e-10
5.97549775e-10
5.97549775e-10
5.97549775e-10
5.97549775e-10
5.97549775e-10
5.97549775e-10
5.97549775e-10
5.97549775e-10
5.97549775e-10
5.97549775e-10
5.97549775e-10
5.97549775e-10
5.97549775e-10
5.97549775e-10
5.97549775e-10
5.97549775e-10
5.97549775e-10
5.97549775e-10
5.97549775e-10
5.97549775e-10
5.97549775e-10
5.97549775e-10
5.97549775e-10
5.97549775e-10
5.97549775e-10
5.97549774e-10
5.97549774e-10
5.97549775e-10
5.97549775e-10
5.97549775e-10
5.97549774e-10
5.97549774e-10
5.97549775e-10
5.97549775e-10
5.97549775e-10
5.97549774e-10
5.97549774e-10
5.97549774e-10
5.97549775e-10
5.97549775e-10
5.97549775e-10
5.97549775e-10
5.97549774e-10
5.97549774e-10
5.97549774e-10
5.97549775e-10
5.97549775e-10
5.97549775e-10
5.97549774e-10
5.97549774e-10
5.97549775e-10
5.97549775e-10
5.97549775e-10
5.97549774e-10
5.97549774e-10
5.97549775e-10
5.97549775e-10
5.97549774e-10
5.97549774e-10
5.97549774e-10
5.97549775e-10
5.97549775e-10
5.97549774e-10
5.97549774e-10
5.97549774e-10
5.97549775e-10
5.97549775e-10
5.97549774e-10
5.97549774e-10
5.97549774e-10
5.97549775e-10
5.97549775e-10
5.97549774e-10
5.97549774e-10
5.97549774e-10
5.97549775e-10
5.97549775e-10
5.97549775e-10
5.97549775e-10
5.97549774e-10
5.97549774e-10
5.97549775e-10
5.97549775e-10
5.97549774e-10
5.97549774e-10
5.97549774e-10
5.97549775e-10
5.97549775e-10
5.97549774e-10
5.97549775e-10
5.97549775e-10
5.97549774e-10
5.97549774e-10
5.97549774e-10
5.97549775e-10
5.97549775e-10
5.97549774e-10
5.97549774e-10
5.97549775e-10
5.97549775e-10
5.97549775e-10
5.97549775e-10
5.97549774e-10
5.97549774e-10
5.97549775e-10
5.97549775e-10
5.97549775e-10
5.97549774e-10
5.97549774e-10
5.97549775e-10
5.97549775e-10
5.97549774e-10
5.97549775e-10
5.97549775e-10
5.97549775e-10
5.97549774e-10
5.97549774e-10
5.97549774e-10
5.97549775e-10
5.97549775e-10
5.97549775e-10
5.97549774e-10
5.97549773e-10
5.97549774e-10
5.97549776e-10
5.97549775e-10
5.97549772e-10
5.97549771e-10
5.97549774e-10
5.97549774e-10
5.97549768e-10
5.97549765e-10
5.97549769e-10
5.97549766e-10
5.97549754e-10
5.97549747e-10
5.97549746e-10
5.97549734e-10
5.9754971e-10
5.97549691e-10
5.97549672e-10
5.9754963e-10
5.97549563e-10
5.97549504e-10
5.97549456e-10
5.97549305e-10
5.97549157e-10
5.97549341e-10
5.97548279e-10
5.97545569e-10
5.97553388e-10
5.97569221e-10
5.97528127e-10
5.97427445e-10
5.9754051e-10
5.97998235e-10
5.97902618e-10
5.95965985e-10
5.95221977e-10
6.01016036e-10
6.0356134e-10
5.94105438e-10
5.89969462e-10
5.90417745e-10
6.07110863e-10
6.08409216e-10
6.0765338e-10
5.85874692e-10
5.85618711e-10
6.05326893e-10
6.05846184e-10
6.05518794e-10
6.03060254e-10
6.01727172e-10
5.99753377e-10
5.97444004e-10
5.95517912e-10
5.92812714e-10
5.90732877e-10
5.87994465e-10
5.85788755e-10
5.83951281e-10
5.81157784e-10
5.78198349e-10
5.74033545e-10
5.71501647e-10
5.65452311e-10
5.67637512e-10
5.46571847e-10
5.36849496e-10
5.51046222e-10
5.1462291e-10
5.13504577e-10
5.06033079e-10
4.86179399e-10
4.84459718e-10
4.67065517e-10
4.62972462e-10
4.45662089e-10
4.3531987e-10
4.23599452e-10
4.39217528e-10
3.99571265e-10
3.8369237e-10
3.5948359e-10
3.38191256e-10
3.1595824e-10
2.80665667e-10
2.58092222e-10
2.36157817e-10
2.17747231e-10
1.99237579e-10
1.83099124e-10
1.67618346e-10
1.53504648e-10
1.40162953e-10
1.27188393e-10
1.15352596e-10
1.02293185e-10
9.06861802e-11
7.91912472e-11
6.92388728e-11
5.87870348e-11
4.91970219e-11
4.03407262e-11
3.27568673e-11
2.59058483e-11
2.03304032e-11
1.52421164e-11
1.09589996e-11
7.59829818e-12
4.64257086e-12
1.35487013e-12
-1.47305714e-12
-4.29145023e-12
-6.5243489e-12
-8.81102097e-12
-1.07200343e-11
-1.25494727e-11
-1.40028316e-11
-1.53609596e-11
-1.65451946e-11
-1.76623389e-11
-1.87085134e-11
-1.95334621e-11
-2.03551782e-11
-2.10780777e-11
-2.17459412e-11
-2.23525136e-11
-2.2932987e-11
-2.35944156e-11
-2.41805583e-11
-2.47170587e-11
-2.52055427e-11
-2.56789408e-11
-2.6121073e-11
-2.65372298e-11
-2.69276681e-11
-2.7287894e-11
-2.76399081e-11
-2.79676541e-11
-2.82992735e-11
-2.86031979e-11
-2.89105922e-11
-2.91931807e-11
-2.94964008e-11
-2.977206e-11
-3.00572089e-11
-3.03124033e-11
-3.05807658e-11
-3.08202687e-11
-3.10774209e-11
-3.13022072e-11
-3.15401139e-11
-3.17466428e-11
-3.19715747e-11
-3.21694945e-11
-3.23868362e-11
-3.25764006e-11
-3.27809342e-11
-3.29619276e-11
-3.31544183e-11
-3.33275121e-11
-3.35097343e-11
-3.36772596e-11
-3.38501776e-11
-3.40106068e-11
-3.41739631e-11
-3.43275637e-11
-3.44821337e-11
)
;

boundaryField
{
    closed
    {
        type            calculated;
        value           nonuniform List<scalar> 0();
    }
    open
    {
        type            calculated;
        value           nonuniform List<scalar> 0();
    }
    sides
    {
        type            empty;
    }
    procBoundary4to3
    {
        type            processor;
        value           uniform 5.97507547e-10;
    }
    procBoundary4to5
    {
        type            processor;
        value           uniform -3.46291686e-11;
    }
}


// ************************************************************************* //
