/*--------------------------------*- C++ -*----------------------------------*\
| =========                 |                                                 |
| \\      /  F ield         | OpenFOAM: The Open Source CFD Toolbox           |
|  \\    /   O peration     | Version:  2306                                  |
|   \\  /    A nd           | Website:  www.openfoam.com                      |
|    \\/     M anipulation  |                                                 |
\*---------------------------------------------------------------------------*/
FoamFile
{
    version     2.0;
    format      ascii;
    arch        "LSB;label=32;scalar=64";
    class       volScalarField;
    location    "0.00018";
    object      prefDh_H;
}
// * * * * * * * * * * * * * * * * * * * * * * * * * * * * * * * * * * * * * //

dimensions      [1 1 -3 0 0 0 0];

internalField   nonuniform List<scalar> 
531
(
23392.8801
23393.4303
23393.3447
23392.9816
23392.9868
23393.1536
23393.1757
23393.1126
23393.0921
23393.1137
23393.1254
23393.1185
23393.1132
23393.1152
23393.1173
23393.1167
23393.116
23393.1161
23393.1164
23393.1163
23393.1163
23393.1163
23393.1163
23393.1163
23393.1163
23393.1163
23393.1163
23393.1163
23393.1163
23393.1163
23393.1163
23393.1163
23393.1163
23393.1163
23393.1163
23393.1163
23393.1163
23393.1163
23393.1163
23393.1163
23393.1163
23393.1163
23393.1163
23393.1163
23393.1163
23393.1163
23393.1163
23393.1163
23393.1163
23393.1163
23393.1163
23393.1163
23393.1163
23393.1163
23393.1163
23393.1163
23393.1163
23393.1163
23393.1163
23393.1163
23393.1163
23393.1163
23393.1163
23393.1163
23393.1163
23393.1163
23393.1163
23393.1163
23393.1163
23393.1163
23393.1163
23393.1163
23393.1163
23393.1163
23393.1163
23393.1163
23393.1163
23393.1163
23393.1163
23393.1163
23393.1163
23393.1163
23393.1163
23393.1163
23393.1163
23393.1163
23393.1163
23393.1163
23393.1163
23393.1163
23393.1163
23393.1163
23393.1163
23393.1163
23393.1163
23393.1163
23393.1163
23393.1163
23393.1163
23393.1163
23393.1163
23393.1163
23393.1163
23393.1163
23393.1163
23393.1163
23393.1163
23393.1163
23393.1163
23393.1163
23393.1163
23393.1163
23393.1163
23393.1163
23393.1163
23393.1163
23393.1163
23393.1163
23393.1163
23393.1163
23393.1163
23393.1163
23393.1163
23393.1163
23393.1163
23393.1163
23393.1163
23393.1163
23393.1163
23393.1163
23393.1163
23393.1163
23393.1163
23393.1163
23393.1163
23393.1163
23393.1163
23393.1163
23393.1163
23393.1163
23393.1163
23393.1163
23393.1163
23393.1163
23393.1163
23393.1163
23393.1163
23393.1163
23393.1163
23393.1163
23393.1163
23393.1163
23393.1163
23393.1163
23393.1163
23393.1163
23393.1163
23393.1163
23393.1163
23393.1163
23393.1163
23393.1163
23393.1163
23393.1163
23393.1163
23393.1163
23393.1163
23393.1163
23393.1163
23393.1163
23393.1163
23393.1163
23393.1163
23393.1163
23393.1163
23393.1163
23393.1163
23393.1163
23393.1163
23393.1163
23393.1163
23393.1163
23393.1163
23393.1163
23393.1163
23393.1163
23393.1163
23393.1163
23393.1163
23393.1163
23393.1163
23393.1163
23393.1163
23393.1163
23393.1163
23393.1163
23393.1163
23393.1163
23393.1163
23393.1163
23393.1163
23393.1163
23393.1163
23393.1163
23393.1163
23393.1163
23393.1163
23393.1163
23393.1163
23393.1163
23393.1163
23393.1163
23393.1163
23393.1163
23393.1163
23393.1163
23393.1163
23393.1163
23393.1163
23393.1163
23393.1163
23393.1163
23393.1163
23393.1163
23393.1163
23393.1163
23393.1163
23393.1163
23393.1163
23393.1163
23393.1163
23393.1163
23393.1163
23393.1163
23393.1163
23393.1163
23393.1163
23393.1163
23393.1163
23393.1163
23393.1163
23393.1163
23393.1163
23393.1163
23393.1163
23393.1163
23393.1163
23393.1163
23393.1163
23393.1163
23393.1163
23393.1163
23393.1163
23393.1163
23393.1163
23393.1163
23393.1163
23393.1163
23393.1163
23393.1163
23393.1163
23393.1163
23393.1163
23393.1163
23393.1163
23393.1163
23393.1163
23393.1163
23393.1163
23393.1163
23393.1163
23393.1163
23393.1163
23393.1163
23393.1163
23393.1163
23393.1163
23393.1163
23393.1163
23393.1163
23393.1163
23393.1163
23393.1163
23393.1163
23393.1163
23393.1163
23393.1163
23393.1163
23393.1163
23393.1163
23393.1163
23393.1163
23393.1163
23393.1163
23393.1163
23393.1163
23393.1163
23393.1163
23393.1163
23393.1163
23393.1163
23393.1163
23393.1163
23393.1163
23393.1163
23393.1163
23393.1163
23393.1163
23393.1163
23393.1163
23393.1163
23393.1163
23393.1163
23393.1163
23393.1163
23393.1163
23393.1163
23393.1163
23393.1163
23393.1163
23393.1163
23393.1163
23393.1163
23393.1163
23393.1163
23393.1163
23393.1163
23393.1163
23393.1163
23393.1163
23393.1163
23393.1163
23393.1163
23393.1163
23393.1163
23393.1163
23393.1163
23393.1163
23393.1163
23393.1163
23393.1163
23393.1163
23393.1163
23393.1163
23393.1163
23393.1163
23393.1163
23393.1163
23393.1163
23393.1163
23393.1163
23393.1163
23393.1163
23393.1163
23393.1163
23393.1163
23393.1163
23393.1163
23393.1162
23393.1162
23393.1162
23393.1162
23393.1161
23393.116
23393.116
23393.1159
23393.1157
23393.1153
23393.1149
23393.1144
23393.1137
23393.1125
23393.111
23393.109
23393.1062
23393.1021
23393.0967
23393.0896
23393.0797
23393.0664
23393.0487
23393.0252
23392.9939
23392.9526
23392.8984
23392.8296
23392.7367
23392.6235
23392.4743
23392.2826
23391.9921
23391.8444
23391.7498
23390.6716
23388.5915
23389.7121
23396.2141
23394.1979
23364.1617
23357.3248
23455.4321
23526.4102
23320.3613
23229.5066
23269.8281
23641.4999
24104.1194
23668.027
22704.363
22748.9646
24081.0303
24090.9007
24023.8673
24028.1173
24014.1594
24025.6084
24076.1732
24100.9902
24174.6136
24221.9987
24319.8807
24437.5288
24646.0742
24548.9669
24343.9384
24118.7124
24026.6424
23840.2222
23996.0995
23769.8847
23979.38
25315.52
26085.1986
26417.1243
26800.1487
27843.8926
27999.7425
28805.8791
28855.4424
29414.1362
30373.0031
30869.4305
27873.7659
31479.9607
33178.3334
35265.646
37597.3413
39999.5799
44337.3656
47353.1905
49898.727
52299.2097
54441.6585
56497.8758
58259.6361
59940.4886
61463.2368
62970.246
64340.553
65843.1406
67208.9842
68538.5114
69738.155
70978.4798
72184.6749
73296.2156
74319.0982
75250.5132
76065.4619
76818.716
77519.9166
78121.7148
78650.1639
79245.9531
79796.2007
80358.6348
80835.412
81352.6698
81825.0369
82286.9086
82679.1067
83061.5095
83427.3579
83776.8469
84119.8073
84396.7773
84691.1488
84949.7111
85202.5794
85438.7488
85671.4862
85975.4726
86236.4185
86490.6625
86711.6099
86935.6404
87142.1253
87339.8638
87513.5443
87679.7177
87831.007
87979.4699
88119.3809
88255.7414
88380.2856
88505.2592
88629.8689
88752.2001
88864.4754
88974.8982
89078.8506
89178.0835
89272.5829
89359.2127
89444.5246
89519.0999
89598.8705
89669.5364
89741.3614
89804.562
89870.2974
89929.3292
89989.8757
90045.0612
90098.8727
90145.4175
90192.3009
90235.4402
90279.0321
90318.9876
90359.9478
)
;

boundaryField
{
    closed
    {
        type            calculated;
        value           nonuniform List<scalar> 0();
    }
    open
    {
        type            calculated;
        value           nonuniform List<scalar> 0();
    }
    sides
    {
        type            empty;
    }
    procBoundary4to3
    {
        type            processor;
        value           uniform 23392.4878;
    }
    procBoundary4to5
    {
        type            processor;
        value           uniform 90397.008;
    }
}


// ************************************************************************* //
