/*--------------------------------*- C++ -*----------------------------------*\
| =========                 |                                                 |
| \\      /  F ield         | OpenFOAM: The Open Source CFD Toolbox           |
|  \\    /   O peration     | Version:  2306                                  |
|   \\  /    A nd           | Website:  www.openfoam.com                      |
|    \\/     M anipulation  |                                                 |
\*---------------------------------------------------------------------------*/
FoamFile
{
    version     2.0;
    format      ascii;
    arch        "LSB;label=32;scalar=64";
    class       volScalarField;
    location    "0.0009";
    object      H2;
}
// * * * * * * * * * * * * * * * * * * * * * * * * * * * * * * * * * * * * * //

dimensions      [0 0 0 0 0 0 0];

internalField   nonuniform List<scalar> 
530
(
8.77023879e-05
5.179464e-06
3.83377358e-08
7.68637657e-05
8.59545638e-05
4.66147415e-05
4.16209891e-08
1.78918375e-05
8.18000357e-05
6.46981368e-05
4.40703846e-08
4.45735339e-08
7.52258997e-05
6.07944185e-05
4.67315332e-08
4.65997392e-08
7.14953973e-05
5.53114726e-05
4.9595772e-08
4.92305304e-08
6.71171453e-05
5.19685307e-05
5.20275534e-08
5.17373086e-08
6.33325089e-05
4.91077391e-05
5.44535591e-08
5.41253676e-08
5.97832019e-05
4.69558882e-05
5.64905676e-08
5.63248273e-08
5.63647696e-05
4.51316806e-05
5.87237833e-08
5.88384558e-08
5.40746121e-05
4.34592544e-05
6.08749821e-08
6.11293538e-08
5.24288595e-05
4.23643718e-05
6.28975107e-08
6.32145794e-08
5.08296366e-05
4.18205456e-05
6.48821882e-08
6.52558354e-08
4.93112228e-05
4.09955609e-05
6.68589801e-08
6.72787287e-08
4.83594795e-05
3.99880078e-05
6.88139081e-08
6.9341038e-08
4.74815176e-05
3.89947147e-05
7.13390238e-08
7.19859123e-08
4.68616957e-05
3.81356224e-05
7.40544513e-08
7.46896987e-08
4.57208694e-05
3.73704349e-05
7.6867181e-08
7.74818255e-08
4.47259075e-05
3.62506436e-05
7.97758916e-08
8.03448585e-08
4.35138487e-05
3.52550072e-05
8.28244911e-08
8.33056363e-08
4.19734527e-05
3.42958185e-05
8.61149137e-08
8.6570235e-08
4.05038436e-05
3.27569547e-05
9.0133273e-08
9.05958997e-08
3.94059436e-05
3.09769638e-05
9.43773186e-08
9.48455481e-08
3.73781332e-05
2.9293409e-05
9.89453571e-08
9.94772599e-08
3.43014993e-05
2.69432381e-05
1.0410778e-07
1.04613843e-07
2.93471051e-05
2.28726516e-05
4.14919786e-06
3.04639144e-06
2.06180351e-05
1.59698043e-05
2.23952708e-05
1.71427519e-05
5.23200859e-06
4.13162342e-06
3.45482167e-05
2.69147091e-05
1.21686876e-07
1.22667385e-07
3.51201939e-05
2.8512202e-05
1.26471951e-07
1.27553758e-07
3.42980915e-05
2.78293157e-05
1.32768617e-07
1.33463955e-07
3.32980372e-05
2.71966783e-05
1.39192955e-07
1.3978226e-07
3.22712193e-05
2.64093415e-05
1.46650662e-07
1.47281659e-07
3.11979092e-05
2.58482353e-05
1.54327783e-07
1.55208568e-07
3.02774541e-05
2.49403306e-05
1.62209961e-07
1.63271999e-07
2.92236126e-05
2.39878309e-05
1.69858046e-07
1.71128991e-07
2.87378111e-05
2.3308676e-05
1.77509944e-07
1.79007573e-07
2.82369467e-05
2.26962716e-05
1.85187886e-07
1.87068086e-07
2.77743936e-05
2.20307854e-05
1.94011461e-07
1.96221324e-07
2.7378111e-05
2.13874036e-05
2.02907111e-07
2.05292643e-07
2.70693143e-05
2.07317698e-05
2.11735549e-07
2.14411344e-07
2.66870963e-05
2.01357785e-05
2.20871302e-07
2.23453186e-07
2.60384986e-05
1.96289163e-05
2.30287821e-07
2.32687269e-07
2.51490345e-05
1.89669019e-05
2.39763586e-07
2.41966554e-07
2.42275754e-05
1.83616081e-05
2.495525e-07
2.517473e-07
2.32401233e-05
1.78286425e-05
2.60356234e-07
2.62182388e-07
2.22228206e-05
1.73847023e-05
2.71020101e-07
2.72442439e-07
2.12294768e-05
1.70178632e-05
2.812756e-07
2.82535397e-07
2.05428329e-05
1.67058434e-05
2.91139906e-07
2.92404462e-07
2.02171486e-05
1.64685095e-05
3.00483979e-07
3.02010544e-07
2.01090197e-05
1.62354545e-05
3.09310956e-07
3.11256032e-07
2.01706346e-05
1.6115747e-05
3.17709507e-07
3.19833897e-07
2.0355504e-05
1.571898e-05
3.2600985e-07
3.28657036e-07
2.02573339e-05
1.54489946e-05
3.35708852e-07
3.39265786e-07
1.98523988e-05
1.49009341e-05
3.46596507e-07
3.50409243e-07
1.92020683e-05
1.43531638e-05
3.57521792e-07
3.61344996e-07
1.8327345e-05
1.35210268e-05
3.68606086e-07
3.72631424e-07
1.70884641e-05
1.2978183e-05
3.79625027e-07
3.82960841e-07
1.61306517e-05
1.26107153e-05
3.89989259e-07
3.92773362e-07
1.54728308e-05
1.23982753e-05
3.99746732e-07
4.02016434e-07
1.5059818e-05
1.21859316e-05
4.08932028e-07
4.10952462e-07
1.45694484e-05
1.18665259e-05
4.17780312e-07
4.19703821e-07
1.39551303e-05
1.14088953e-05
4.26340787e-07
4.27873695e-07
1.32712061e-05
1.08341397e-05
4.34562326e-07
4.35631213e-07
1.25856917e-05
1.02961781e-05
4.42392421e-07
4.43010939e-07
1.19570528e-05
9.77809369e-06
4.49812009e-07
4.50042078e-07
1.13411171e-05
9.25132362e-06
4.56372628e-07
4.56685398e-07
1.07116234e-05
8.72327592e-06
4.62553534e-07
4.62912438e-07
1.0126713e-05
8.22688741e-06
4.68412711e-07
4.68776601e-07
9.55214088e-06
7.74680644e-06
4.74004113e-07
4.74179868e-07
8.98098794e-06
7.31243515e-06
4.79563045e-07
4.7921591e-07
8.12026275e-06
7.18466429e-06
4.84926046e-07
4.84383194e-07
7.19856006e-06
6.76460953e-06
4.89888694e-07
4.90368146e-07
6.47739036e-06
5.67117e-06
4.94166617e-07
4.9958024e-07
6.14371657e-06
2.22409257e-06
4.97750998e-07
2.63860051e-06
5.95784949e-06
5.03411176e-07
5.01283511e-07
4.10895581e-06
5.70236818e-06
5.05583165e-07
5.04601053e-07
4.30029768e-06
5.43564306e-06
5.08428767e-07
5.07697972e-07
4.1866094e-06
5.14588684e-06
5.1122534e-07
5.10566711e-07
3.98760228e-06
4.85194466e-06
5.13834476e-07
5.13199122e-07
3.77135595e-06
4.56560871e-06
5.16221789e-07
5.15600137e-07
3.5597485e-06
4.29151838e-06
5.18388343e-07
5.17781718e-07
3.35897799e-06
4.03087393e-06
5.20345599e-07
5.19758401e-07
3.17082206e-06
3.78339483e-06
5.22107338e-07
5.21545559e-07
2.99593411e-06
3.54805815e-06
5.23687672e-07
5.23158458e-07
2.83412107e-06
3.32392978e-06
5.25101297e-07
5.24611143e-07
2.68535996e-06
3.10970974e-06
5.26361975e-07
5.2591733e-07
2.54900692e-06
2.90455751e-06
5.27482709e-07
5.27089891e-07
2.42527691e-06
2.70683951e-06
5.28476061e-07
5.28140544e-07
2.31345476e-06
2.51576193e-06
5.29344128e-07
5.29088091e-07
2.22859702e-06
2.31538872e-06
5.30090807e-07
5.2994416e-07
2.16882321e-06
2.10581595e-06
5.30728161e-07
5.30682934e-07
2.13541075e-06
1.91056009e-06
5.31234902e-07
5.312606e-07
2.08607777e-06
1.80420218e-06
5.31713687e-07
5.31810356e-07
1.97535593e-06
1.71450017e-06
5.3219358e-07
5.32286771e-07
1.87853075e-06
1.62446709e-06
5.32626539e-07
5.32719097e-07
1.78356314e-06
1.54081953e-06
5.3300974e-07
5.33097407e-07
1.69265819e-06
1.46473931e-06
5.33346565e-07
5.33427374e-07
1.60658122e-06
1.3949529e-06
5.33641604e-07
5.33714789e-07
1.5256369e-06
1.33040619e-06
5.33899264e-07
5.33965019e-07
1.44996506e-06
1.27022367e-06
5.34123507e-07
5.34182842e-07
1.37962257e-06
1.21374478e-06
5.34317982e-07
5.34372375e-07
1.31449434e-06
1.16062414e-06
5.34486181e-07
5.34537056e-07
1.25421802e-06
1.11080349e-06
5.34631496e-07
5.34679755e-07
1.19824878e-06
1.064346e-06
5.34757145e-07
5.34802951e-07
1.14598091e-06
1.0213055e-06
5.3486606e-07
5.34908895e-07
1.09683981e-06
9.8163932e-07
5.34960786e-07
5.34999705e-07
1.0503776e-06
9.4515069e-07
5.35043434e-07
5.35077419e-07
1.00631562e-06
9.11488396e-07
5.35115695e-07
5.35144053e-07
9.64506145e-07
8.80165634e-07
5.35178931e-07
5.35201412e-07
9.24923233e-07
8.50594517e-07
5.35234185e-07
5.3525277e-07
8.87451976e-07
8.22048064e-07
5.35283286e-07
5.35297936e-07
8.52861068e-07
7.95203887e-07
5.3532628e-07
5.35338453e-07
8.20820896e-07
7.68035221e-07
5.35375813e-07
5.35388163e-07
7.76456817e-07
7.29430883e-07
5.35529796e-07
5.35512682e-07
7.25540711e-07
6.78887678e-07
6.1613417e-07
5.9043212e-07
6.37847791e-07
6.11966397e-07
6.23170369e-07
6.02529368e-07
6.15514394e-07
5.98857678e-07
6.06624696e-07
5.93382089e-07
5.97725186e-07
5.87205285e-07
5.88794696e-07
5.80316391e-07
5.79899708e-07
5.72898918e-07
5.71102743e-07
5.6518155e-07
5.62500266e-07
5.57414878e-07
5.54234261e-07
5.498673e-07
5.46480302e-07
5.42354144e-07
5.39363963e-07
5.35564087e-07
5.35552535e-07
5.35541849e-07
5.35533969e-07
5.35528071e-07
5.35523756e-07
5.35520897e-07
5.35518962e-07
5.35517804e-07
5.35517105e-07
5.35516729e-07
5.3551653e-07
5.35516435e-07
5.35516392e-07
5.35516375e-07
5.35516367e-07
5.35516364e-07
5.35516363e-07
5.35516363e-07
5.35516363e-07
5.35516363e-07
5.35516363e-07
5.35516363e-07
5.35516363e-07
5.35516363e-07
5.35516363e-07
5.35516363e-07
5.35516363e-07
5.35516363e-07
5.35516363e-07
5.35516363e-07
5.35516363e-07
5.35516363e-07
5.35516363e-07
5.35516363e-07
5.35516363e-07
5.35516363e-07
5.35516363e-07
5.35516363e-07
5.35516363e-07
5.35516363e-07
5.35516363e-07
5.35516363e-07
5.35516363e-07
5.35516363e-07
5.35516363e-07
5.35516363e-07
5.35516363e-07
5.35516363e-07
5.35516363e-07
)
;

boundaryField
{
    closed
    {
        type            calculated;
        value           nonuniform List<scalar> 0();
    }
    open
    {
        type            calculated;
        value           uniform 5.35516363e-07;
    }
    sides
    {
        type            empty;
    }
    procBoundary5to4
    {
        type            processor;
        value           uniform 0.000101905465;
    }
}


// ************************************************************************* //
