/*--------------------------------*- C++ -*----------------------------------*\
| =========                 |                                                 |
| \\      /  F ield         | OpenFOAM: The Open Source CFD Toolbox           |
|  \\    /   O peration     | Version:  2306                                  |
|   \\  /    A nd           | Website:  www.openfoam.com                      |
|    \\/     M anipulation  |                                                 |
\*---------------------------------------------------------------------------*/
FoamFile
{
    version     2.0;
    format      ascii;
    arch        "LSB;label=32;scalar=64";
    class       volVectorField;
    location    "0.00014";
    object      U;
}
// * * * * * * * * * * * * * * * * * * * * * * * * * * * * * * * * * * * * * //

dimensions      [0 1 -1 0 0 0 0];

internalField   nonuniform List<vector> 
531
(
(-0.658361093 0 0)
(-0.655216857 0 0)
(-0.651904771 0 0)
(-0.648406434 0 0)
(-0.644702803 0 0)
(-0.640775533 0 0)
(-0.636607223 0 0)
(-0.63218073 0 0)
(-0.62747921 0 0)
(-0.622487253 0 0)
(-0.617191025 0 0)
(-0.611578286 0 0)
(-0.605638709 0 0)
(-0.599364232 0 0)
(-0.592749308 0 0)
(-0.585791133 0 0)
(-0.578489874 0 0)
(-0.570848884 0 0)
(-0.562874889 0 0)
(-0.554578157 0 0)
(-0.545972636 0 0)
(-0.537076062 0 0)
(-0.527910042 0 0)
(-0.518500099 0 0)
(-0.508875689 0 0)
(-0.499070175 0 0)
(-0.489120772 0 0)
(-0.479068445 0 0)
(-0.46895778 0 0)
(-0.458836803 0 0)
(-0.448756771 0 0)
(-0.438771917 0 0)
(-0.428939162 0 0)
(-0.419317785 0 0)
(-0.409969061 0 0)
(-0.400955863 0 0)
(-0.392342225 0 0)
(-0.384192887 0 0)
(-0.376572802 0 0)
(-0.36954662 0 0)
(-0.363178156 0 0)
(-0.357529835 0 0)
(-0.352662126 0 0)
(-0.348632974 0 0)
(-0.34549722 0 0)
(-0.34330603 0 0)
(-0.342106333 0 0)
(-0.341940272 0 0)
(-0.342844681 0 0)
(-0.344850583 0 0)
(-0.347982733 0 0)
(-0.352259196 0 0)
(-0.357690977 0 0)
(-0.364281707 0 0)
(-0.37202739 0 0)
(-0.380916218 0 0)
(-0.390928461 0 0)
(-0.40203643 0 0)
(-0.414204529 0 0)
(-0.427389383 0 0)
(-0.441540059 0 0)
(-0.456598368 0 0)
(-0.472499255 0 0)
(-0.489171274 0 0)
(-0.506537136 0 0)
(-0.524514341 0 0)
(-0.543015867 0 0)
(-0.561950933 0 0)
(-0.581225803 0 0)
(-0.600744635 0 0)
(-0.620410371 0 0)
(-0.640125637 0 0)
(-0.659793656 0 0)
(-0.679319156 0 0)
(-0.698609254 0 0)
(-0.717574326 0 0)
(-0.736128825 0 0)
(-0.754192057 0 0)
(-0.771688899 0 0)
(-0.78855044 0 0)
(-0.804714556 0 0)
(-0.820126396 0 0)
(-0.834738781 0 0)
(-0.84851251 0 0)
(-0.861416581 0 0)
(-0.873428299 0 0)
(-0.884533306 0 0)
(-0.894725509 0 0)
(-0.904006918 0 0)
(-0.912387399 0 0)
(-0.919884345 0 0)
(-0.926522272 0 0)
(-0.93233234 0 0)
(-0.937351823 0 0)
(-0.941623511 0 0)
(-0.945195078 0 0)
(-0.948118403 0 0)
(-0.950448867 0 0)
(-0.952244624 0 0)
(-0.953565864 0 0)
(-0.954474069 0 0)
(-0.955031272 0 0)
(-0.955299327 0 0)
(-0.9553392 0 0)
(-0.955210284 0 0)
(-0.954969746 0 0)
(-0.954671908 0 0)
(-0.954367683 0 0)
(-0.954104046 0 0)
(-0.953923568 0 0)
(-0.953864005 0 0)
(-0.953957945 0 0)
(-0.954232521 0 0)
(-0.954709186 0 0)
(-0.955403553 0 0)
(-0.956325306 0 0)
(-0.957478175 0 0)
(-0.958859973 0 0)
(-0.960462701 0 0)
(-0.962272719 0 0)
(-0.964270964 0 0)
(-0.966433241 0 0)
(-0.968730548 0 0)
(-0.971129465 0 0)
(-0.973592578 0 0)
(-0.976078941 0 0)
(-0.978544574 0 0)
(-0.980942983 0 0)
(-0.983225707 0 0)
(-0.985342879 0 0)
(-0.987243785 0 0)
(-0.988877441 0 0)
(-0.990193159 0 0)
(-0.991141101 0 0)
(-0.991672823 0 0)
(-0.991741804 0 0)
(-0.99130394 0 0)
(-0.990318023 0 0)
(-0.988746175 0 0)
(-0.98655426 0 0)
(-0.983712248 0 0)
(-0.980194545 0 0)
(-0.975980275 0 0)
(-0.971053531 0 0)
(-0.965403567 0 0)
(-0.959024953 0 0)
(-0.951917691 0 0)
(-0.944087273 0 0)
(-0.935544706 0 0)
(-0.926306492 0 0)
(-0.916394563 0 0)
(-0.905836175 0 0)
(-0.894663766 0 0)
(-0.882914774 0 0)
(-0.870631412 0 0)
(-0.857860421 0 0)
(-0.844652773 0 0)
(-0.831063355 0 0)
(-0.817150613 0 0)
(-0.802976171 0 0)
(-0.788604423 0 0)
(-0.774102094 0 0)
(-0.759537781 0 0)
(-0.744981469 0 0)
(-0.730504032 0 0)
(-0.716176712 0 0)
(-0.702070587 0 0)
(-0.688256025 0 0)
(-0.674802127 0 0)
(-0.66177617 0 0)
(-0.649243047 0 0)
(-0.637264705 0 0)
(-0.625899595 0 0)
(-0.615202136 0 0)
(-0.605222191 0 0)
(-0.596004573 0 0)
(-0.587588574 0 0)
(-0.580007533 0 0)
(-0.573288446 0 0)
(-0.567451623 0 0)
(-0.562510398 0 0)
(-0.558470901 0 0)
(-0.555331897 0 0)
(-0.553084692 0 0)
(-0.551713119 0 0)
(-0.551193601 0 0)
(-0.551495302 0 0)
(-0.552580351 0 0)
(-0.554404168 0 0)
(-0.55691586 0 0)
(-0.56005871 0 0)
(-0.563770742 0 0)
(-0.56798536 0 0)
(-0.572632063 0 0)
(-0.577637213 0 0)
(-0.58292486 0 0)
(-0.588417614 0 0)
(-0.59403754 0 0)
(-0.599707084 0 0)
(-0.605349993 0 0)
(-0.610892246 0 0)
(-0.616262948 0 0)
(-0.621395196 0 0)
(-0.626226905 0 0)
(-0.630701564 0 0)
(-0.634768932 0 0)
(-0.638385648 0 0)
(-0.641515753 0 0)
(-0.644131115 0 0)
(-0.646211744 0 0)
(-0.647746006 0 0)
(-0.648730719 0 0)
(-0.649171134 0 0)
(-0.649080803 0 0)
(-0.64848134 0 0)
(-0.647402066 0 0)
(-0.645879554 0 0)
(-0.643957079 0 0)
(-0.64168398 0 0)
(-0.639114937 0 0)
(-0.636309186 0 0)
(-0.633329672 0 0)
(-0.630242159 0 0)
(-0.627114303 0 0)
(-0.62401471 0 0)
(-0.621011976 0 0)
(-0.618173746 0 0)
(-0.615565786 0 0)
(-0.613251088 0 0)
(-0.61128902 0 0)
(-0.609734531 0 0)
(-0.608637416 0 0)
(-0.608041669 0 0)
(-0.607984902 0 0)
(-0.608497868 0 0)
(-0.60960407 0 0)
(-0.611319474 0 0)
(-0.61365232 0 0)
(-0.616603036 0 0)
(-0.620164257 0 0)
(-0.624320929 0 0)
(-0.629050524 0 0)
(-0.634323333 0 0)
(-0.64010284 0 0)
(-0.646346173 0 0)
(-0.653004618 0 0)
(-0.660024189 0 0)
(-0.667346237 0 0)
(-0.6749081 0 0)
(-0.682643769 0 0)
(-0.690484573 0 0)
(-0.698359865 0 0)
(-0.706197702 0 0)
(-0.713925514 0 0)
(-0.721470747 0 0)
(-0.728761486 0 0)
(-0.735727035 0 0)
(-0.742298479 0 0)
(-0.748409198 0 0)
(-0.75399535 0 0)
(-0.758996321 0 0)
(-0.76335514 0 0)
(-0.76701886 0 0)
(-0.769938921 0 0)
(-0.772071479 0 0)
(-0.773377727 0 0)
(-0.773824192 0 0)
(-0.773383026 0 0)
(-0.772032285 0 0)
(-0.769756209 0 0)
(-0.766545486 0 0)
(-0.762397529 0 0)
(-0.757316737 0 0)
(-0.751314754 0 0)
(-0.744410722 0 0)
(-0.73663152 0 0)
(-0.728011988 0 0)
(-0.718595124 0 0)
(-0.708432254 0 0)
(-0.697583161 0 0)
(-0.686116167 0 0)
(-0.674108162 0 0)
(-0.661644558 0 0)
(-0.648819182 0 0)
(-0.635734074 0 0)
(-0.622499196 0 0)
(-0.609232033 0 0)
(-0.59605709 0 0)
(-0.583105281 0 0)
(-0.57051319 0 0)
(-0.558422229 0 0)
(-0.546977661 0 0)
(-0.536327515 0 0)
(-0.52662138 0 0)
(-0.518009091 0 0)
(-0.510639316 0 0)
(-0.504658054 0 0)
(-0.500207053 0 0)
(-0.497422171 0 0)
(-0.496431694 0 0)
(-0.497354633 0 0)
(-0.500299024 0 0)
(-0.505360254 0 0)
(-0.512619441 0 0)
(-0.522141895 0 0)
(-0.533975691 0 0)
(-0.548150383 0 0)
(-0.564675885 0 0)
(-0.583541549 0 0)
(-0.604715476 0 0)
(-0.628144061 0 0)
(-0.653751824 0 0)
(-0.681441513 0 0)
(-0.711094515 0 0)
(-0.742571566 0 0)
(-0.77571377 0 0)
(-0.81034391 0 0)
(-0.846268052 0 0)
(-0.883277407 0 0)
(-0.92115044 0 0)
(-0.959655186 0 0)
(-0.998551736 0 0)
(-1.03759487 0 0)
(-1.07653678 0 0)
(-1.1151298 0 0)
(-1.15312914 0 0)
(-1.1902956 0 0)
(-1.22639811 0 0)
(-1.26121623 0 0)
(-1.29454235 0 0)
(-1.32618385 0 0)
(-1.35596483 0 0)
(-1.38372776 0 0)
(-1.40933473 0 0)
(-1.43266848 0 0)
(-1.45363316 0 0)
(-1.47215475 0 0)
(-1.48818124 0 0)
(-1.50168258 0 0)
(-1.51265029 0 0)
(-1.52109697 0 0)
(-1.52705549 0 0)
(-1.53057808 0 0)
(-1.53173521 0 0)
(-1.53061435 0 0)
(-1.52731866 0 0)
(-1.52196551 0 0)
(-1.51468503 0 0)
(-1.50561853 0 0)
(-1.49491696 0 0)
(-1.48273928 0 0)
(-1.46925096 0 0)
(-1.45462231 0 0)
(-1.43902705 0 0)
(-1.42264071 0 0)
(-1.40563922 0 0)
(-1.38819746 0 0)
(-1.37048793 0 0)
(-1.3526794 0 0)
(-1.33493564 0 0)
(-1.31741431 0 0)
(-1.30026577 0 0)
(-1.28363205 0 0)
(-1.26764591 0 0)
(-1.25242989 0 0)
(-1.23809551 0 0)
(-1.22474257 0 0)
(-1.21245844 0 0)
(-1.20131758 0 0)
(-1.19138104 0 0)
(-1.18269613 0 0)
(-1.1752962 0 0)
(-1.16920051 0 0)
(-1.16441425 0 0)
(-1.16092862 0 0)
(-1.15872113 0 0)
(-1.15775597 0 0)
(-1.15798451 0 0)
(-1.15934594 0 0)
(-1.16176802 0 0)
(-1.16516797 0 0)
(-1.16945348 0 0)
(-1.17452371 0 0)
(-1.18027059 0 0)
(-1.18657995 0 0)
(-1.1933329 0 0)
(-1.20040717 0 0)
(-1.20767844 0 0)
(-1.21502176 0 0)
(-1.22231288 0 0)
(-1.22942959 0 0)
(-1.23625297 0 0)
(-1.24266858 0 0)
(-1.24856753 0 0)
(-1.2538475 0 0)
(-1.25841357 0 0)
(-1.26217892 0 0)
(-1.26506544 0 0)
(-1.26700412 0 0)
(-1.26793534 0 0)
(-1.26780896 0 0)
(-1.2665843 0 0)
(-1.26422993 0 0)
(-1.26072335 0 0)
(-1.25605053 0 0)
(-1.25020535 0 0)
(-1.24318892 0 0)
(-1.23500881 0 0)
(-1.22567826 0 0)
(-1.21521531 0 0)
(-1.20364189 0 0)
(-1.19098295 0 0)
(-1.17726555 0 0)
(-1.16251808 0 0)
(-1.14676938 0 0)
(-1.13004809 0 0)
(-1.11238198 0 0)
(-1.09379741 0 0)
(-1.07431895 0 0)
(-1.053969 0 0)
(-1.03276771 0 0)
(-1.01073284 0 0)
(-0.98787991 0 0)
(-0.964222412 0 0)
(-0.939772134 0 0)
(-0.914539641 0 0)
(-0.888534849 0 0)
(-0.861767692 0 0)
(-0.83424888 0 0)
(-0.805990718 0 0)
(-0.777007969 0 0)
(-0.747318756 0 0)
(-0.716945456 0 0)
(-0.685915594 0 0)
(-0.654262691 0 0)
(-0.622027064 0 0)
(-0.589256544 0 0)
(-0.556007101 0 0)
(-0.522343351 0 0)
(-0.488338939 0 0)
(-0.454076768 0 0)
(-0.419649077 0 0)
(-0.385157357 0 0)
(-0.350712086 0 0)
(-0.316432293 0 0)
(-0.282444943 0 0)
(-0.248884146 0 0)
(-0.215890186 0 0)
(-0.183608386 0 0)
(-0.152187805 0 0)
(-0.121779773 0 0)
(-0.0925363024 0 0)
(-0.0646083178 0 0)
(-0.038143148 0 0)
(-0.0132765648 0 0)
(0.00988861681 0 0)
(0.031424516 0 0)
(0.050814091 0 0)
(0.0679340245 0 0)
(0.0829982028 0 0)
(0.0957127338 0 0)
(0.106055854 0 0)
(0.113916452 0 0)
(0.119452569 0 0)
(0.122334543 0 0)
(0.122566198 0 0)
(0.120428063 0 0)
(0.115780194 0 0)
(0.108748403 0 0)
(0.0993376327 0 0)
(0.087674358 0 0)
(0.0738029743 0 0)
(0.0579849765 0 0)
(0.040107045 0 0)
(0.0202784094 0 0)
(-0.00110530075 0 0)
(-0.0240417483 0 0)
(-0.0483430799 0 0)
(-0.0738926184 0 0)
(-0.100494206 0 0)
(-0.128039167 0 0)
(-0.15625152 0 0)
(-0.185147063 0 0)
(-0.214602406 0 0)
(-0.244245213 0 0)
(-0.274045343 0 0)
(-0.303832324 0 0)
(-0.333486749 0 0)
(-0.362830744 0 0)
(-0.391778073 0 0)
(-0.42013096 0 0)
(-0.447834967 0 0)
(-0.474788176 0 0)
(-0.500743186 0 0)
(-0.525639086 0 0)
(-0.549343416 0 0)
(-0.571747728 0 0)
(-0.592710732 0 0)
(-0.612153767 0 0)
(-0.629911251 0 0)
(-0.64592376 0 0)
(-0.660162497 0 0)
(-0.672415525 0 0)
(-0.682621065 0 0)
(-0.690719553 0 0)
(-0.69664184 0 0)
(-0.700335686 0 0)
(-0.701780073 0 0)
(-0.700905462 0 0)
(-0.697821667 0 0)
(-0.692568867 0 0)
(-0.685065075 0 0)
(-0.675441347 0 0)
(-0.663788332 0 0)
(-0.65023366 0 0)
(-0.634904763 0 0)
(-0.617969476 0 0)
(-0.599560503 0 0)
(-0.579995264 0 0)
(-0.559500207 0 0)
(-0.538197074 0 0)
(-0.516384872 0 0)
(-0.494327741 0 0)
(-0.472312426 0 0)
(-0.450604239 0 0)
(-0.429462676 0 0)
(-0.409120621 0 0)
(-0.389919637 0 0)
(-0.372105963 0 0)
(-0.355851179 0 0)
(-0.341390677 0 0)
)
;

boundaryField
{
    closed
    {
        type            noSlip;
    }
    open
    {
        type            inletOutlet;
        inletValue      nonuniform List<vector> 0();
        value           nonuniform List<vector> 0();
    }
    sides
    {
        type            empty;
    }
    procBoundary3to2
    {
        type            processor;
        value           uniform (-0.661353679 0 0);
    }
    procBoundary3to4
    {
        type            processor;
        value           uniform (-0.328896936 0 0);
    }
}


// ************************************************************************* //
