/*--------------------------------*- C++ -*----------------------------------*\
| =========                 |                                                 |
| \\      /  F ield         | OpenFOAM: The Open Source CFD Toolbox           |
|  \\    /   O peration     | Version:  2306                                  |
|   \\  /    A nd           | Website:  www.openfoam.com                      |
|    \\/     M anipulation  |                                                 |
\*---------------------------------------------------------------------------*/
FoamFile
{
    version     2.0;
    format      ascii;
    arch        "LSB;label=32;scalar=64";
    class       volScalarField;
    location    "0.00018";
    object      H2O;
}
// * * * * * * * * * * * * * * * * * * * * * * * * * * * * * * * * * * * * * //

dimensions      [0 0 0 0 0 0 0];

internalField   nonuniform List<scalar> 
531
(
0.00450730619
0.00450987045
0.00450769819
0.0045054288
0.00450642934
0.00450807955
0.00450770162
0.00450667002
0.00450677538
0.00450733739
0.00450732421
0.0045070637
0.00450706056
0.00450714798
0.00450715198
0.00450713786
0.00450714199
0.00450714118
0.00450711971
0.00450712046
0.00450714886
0.00450715446
0.00450713268
0.00450711728
0.0045071254
0.00450714983
0.0045071495
0.00450713045
0.00450712313
0.00450713256
0.00450714318
0.00450714116
0.00450713309
0.00450713282
0.00450713255
0.00450713211
0.00450714079
0.00450714507
0.00450713107
0.00450711947
0.00450713468
0.00450715722
0.00450714601
0.00450710943
0.00450711256
0.00450716066
0.00450716725
0.00450712111
0.00450709697
0.00450713202
0.00450717597
0.00450716118
0.00450709778
0.00450709893
0.00450715525
0.00450717243
0.00450713869
0.00450710673
0.004507115
0.00450714847
0.00450715237
0.00450714622
0.00450713351
0.00450711463
0.00450711517
0.00450715182
0.00450717128
0.00450713682
0.00450709228
0.00450711111
0.00450717698
0.00450717379
0.0045071068
0.00450709636
0.00450714521
0.00450716813
0.0045071393
0.00450711306
0.00450712623
0.00450714708
0.00450714226
0.00450713201
0.004507134
0.00450713651
0.00450713091
0.00450713138
0.00450714493
0.00450714456
0.0045071238
0.00450712178
0.00450714516
0.004507152
0.00450713034
0.00450711841
0.00450713501
0.00450715036
0.00450714003
0.00450712409
0.00450712923
0.00450714317
0.00450714088
0.00450713004
0.00450713109
0.00450714037
0.00450713971
0.00450712987
0.00450712999
0.00450714121
0.00450714225
0.00450713071
0.00450712767
0.00450713804
0.00450714333
0.00450713527
0.00450712806
0.00450713295
0.00450714195
0.00450714056
0.0045071302
0.00450712904
0.00450713703
0.00450714304
0.00450713851
0.00450712683
0.00450712781
0.00450714363
0.00450714598
0.00450712979
0.00450712281
0.0045071377
0.00450714951
0.00450713694
0.00450712004
0.00450712892
0.00450715217
0.00450714897
0.00450711805
0.00450711654
0.00450714729
0.00450715931
0.00450713378
0.00450710872
0.00450712301
0.00450716139
0.0045071584
0.00450711722
0.00450711001
0.00450713987
0.00450715846
0.00450714315
0.00450711809
0.00450712124
0.00450714562
0.00450714826
0.00450713277
0.00450712552
0.00450713484
0.00450714383
0.00450713662
0.00450712552
0.00450713248
0.00450714952
0.00450714462
0.00450711673
0.00450711768
0.00450715308
0.00450716096
0.00450712747
0.00450710506
0.00450712705
0.00450716508
0.0045071594
0.0045071137
0.00450710767
0.00450713978
0.00450716064
0.00450714613
0.00450711618
0.00450711862
0.00450714632
0.00450715085
0.00450713226
0.00450712245
0.0045071342
0.00450714693
0.0045071398
0.00450712473
0.00450712704
0.0045071448
0.0045071451
0.00450713192
0.004507127
0.00450713122
0.00450714054
0.00450714173
0.00450713791
0.00450713006
0.0045071297
0.0045071371
0.00450714024
0.00450713547
0.00450713295
0.00450713761
0.00450713788
0.00450712799
0.00450712831
0.00450714833
0.00450714981
0.00450712145
0.00450711371
0.00450714489
0.00450716222
0.00450713456
0.0045071069
0.00450712598
0.00450716269
0.0045071547
0.00450711156
0.00450711251
0.00450715077
0.00450715788
0.00450712976
0.00450711557
0.00450713285
0.00450715154
0.00450714396
0.00450712348
0.00450712448
0.00450714209
0.00450714618
0.00450713468
0.00450712517
0.00450713106
0.004507145
0.00450714346
0.00450712748
0.00450712653
0.00450713988
0.00450714357
0.00450713397
0.00450712949
0.00450713555
0.00450713884
0.00450713433
0.00450713311
0.00450713947
0.00450713929
0.00450712767
0.00450712785
0.00450714553
0.00450714706
0.00450712576
0.00450712091
0.00450714265
0.00450715088
0.00450713073
0.00450712046
0.00450713893
0.00450715029
0.00450713183
0.00450711841
0.00450713844
0.00450715735
0.00450713649
0.00450710727
0.00450712463
0.00450716865
0.00450716164
0.00450710005
0.00450709973
0.00450716045
0.00450717701
0.00450712723
0.00450709241
0.00450712369
0.00450717482
0.00450716587
0.00450710382
0.00450709934
0.00450714808
0.00450717264
0.00450714209
0.00450710006
0.00450711132
0.00450716734
0.00450716624
0.00450711448
0.00450710388
0.00450714464
0.00450716434
0.00450713489
0.00450711123
0.00450713119
0.0045071549
0.00450714136
0.00450711908
0.00450712832
0.0045071508
0.00450714544
0.00450712009
0.00450712122
0.0045071484
0.00450715285
0.00450712984
0.00450711619
0.00450713033
0.00450715369
0.00450715033
0.00450712212
0.00450711725
0.00450713783
0.00450715409
0.00450714396
0.00450711837
0.00450712014
0.00450714754
0.00450715239
0.00450713079
0.00450711883
0.00450713348
0.00450715037
0.00450714208
0.00450712281
0.00450712575
0.0045071458
0.00450714539
0.00450712853
0.00450712595
0.00450713862
0.00450714423
0.00450713586
0.00450712793
0.00450713167
0.00450714113
0.00450714045
0.00450713225
0.00450713106
0.00450713625
0.00450713902
0.00450713559
0.00450713209
0.00450713491
0.00450713936
0.0045071364
0.00450713034
0.00450713334
0.00450714181
0.00450713926
0.00450712805
0.00450712948
0.00450714319
0.0045071429
0.00450712837
0.00450712738
0.00450714081
0.00450714347
0.00450713184
0.0045071279
0.00450713733
0.00450714211
0.00450713474
0.00450712974
0.00450713548
0.00450714033
0.00450713547
0.00450713086
0.00450713525
0.00450714016
0.00450713599
0.00450713049
0.00450713414
0.00450714034
0.00450713732
0.00450713078
0.00450713326
0.00450713999
0.00450713781
0.00450713045
0.00450713207
0.00450714128
0.00450714064
0.00450712915
0.00450712832
0.00450714018
0.00450714443
0.00450713392
0.0045071253
0.00450713202
0.00450714542
0.00450714363
0.00450712768
0.00450712562
0.00450713713
0.00450714496
0.00450714075
0.00450712769
0.00450712772
0.00450713681
0.00450714245
0.00450714017
0.00450713143
0.00450712956
0.00450713249
0.00450714013
0.00450714195
0.00450713712
0.00450712749
0.00450712764
0.00450713974
0.00450714743
0.00450714031
0.00450712139
0.00450712197
0.00450714384
0.00450715377
0.00450714096
0.00450711637
0.00450711783
0.0045071451
0.00450715807
0.00450714465
0.0045071124
0.00450711321
0.00450714752
0.00450716318
0.00450714066
0.00450710722
0.00450711395
0.00450715969
0.00450716203
0.0045071236
0.0045071088
0.00450713536
0.00450715899
0.0045071438
0.00450711645
0.00450712308
0.00450714988
0.00450714851
0.00450712452
0.00450712323
0.0045071427
0.00450714822
0.00450713213
0.0045071208
0.00450713222
0.00450715163
0.00450714766
0.00450711994
0.00450711815
0.00450714262
0.00450715478
0.0045071394
0.00450711777
0.00450712191
0.00450714782
0.00450715021
0.00450713302
0.00450712347
0.00450713002
0.00450714285
0.00450714225
0.004507134
0.00450713134
0.0045071326
0.00450713604
0.00450713861
0.00450713808
0.00450713331
0.00450713159
0.00450713568
0.00450713971
0.00450713668
0.00450713127
0.00450713309
0.00450713902
0.00450713825
0.00450713275
0.00450713285
0.00450713678
0.00450713709
0.00450713569
0.00450713532
0.00450713417
0.0045071328
0.00450713629
0.00450714132
0.00450713735
0.00450712716
0.00450712846
0.00450714281
0.00450714494
0.00450713865
0.00450713147
0.00450711596
0.00450710009
0.00450717246
0.00450729741
0.0045071562
0.00450661107
0.00450669224
0.00450851071
0.00450893969
0.00450463572
0.0045014348
0.00450936307
0.0045220914
0.00451246741
0.00447469347
0.00447857699
0.00456201741
0.00458063778
0.00444645359
0.00435864346
0.00452625642
0.00475129762
0.0046147155
0.00415402082
0.00420874589
0.00486628706
0.00493249896
0.00424335516
0.0039427156
0.00457917243
0.00502286401
0.00462712528
0.0040165207
0.00425440645
0.00485092249
0.00478284949
0.00427320742
)
;

boundaryField
{
    closed
    {
        type            calculated;
        value           nonuniform List<scalar> 0();
    }
    open
    {
        type            calculated;
        value           nonuniform List<scalar> 0();
    }
    sides
    {
        type            empty;
    }
    procBoundary3to2
    {
        type            processor;
        value           uniform 0.00450325481;
    }
    procBoundary3to4
    {
        type            processor;
        value           uniform 0.00427768755;
    }
}


// ************************************************************************* //
