/*--------------------------------*- C++ -*----------------------------------*\
| =========                 |                                                 |
| \\      /  F ield         | OpenFOAM: The Open Source CFD Toolbox           |
|  \\    /   O peration     | Version:  2306                                  |
|   \\  /    A nd           | Website:  www.openfoam.com                      |
|    \\/     M anipulation  |                                                 |
\*---------------------------------------------------------------------------*/
FoamFile
{
    version     2.0;
    format      ascii;
    arch        "LSB;label=32;scalar=64";
    class       volScalarField;
    location    "0.0016";
    object      prefDZ_T;
}
// * * * * * * * * * * * * * * * * * * * * * * * * * * * * * * * * * * * * * //

dimensions      [1 -1 -1 -1 0 0 0];

internalField   nonuniform List<scalar> 
531
(
-1.22729238e-09
-1.2274765e-09
-1.22733503e-09
-1.19848866e-09
-1.18767955e-09
-1.18811993e-09
-1.18523768e-09
-1.18493766e-09
-1.22962266e-09
-1.22775295e-09
-1.18906559e-09
-1.18728246e-09
-1.22910864e-09
-1.22737625e-09
-1.19015044e-09
-1.18827855e-09
-1.22817863e-09
-1.22770608e-09
-1.19496204e-09
-1.18707876e-09
-1.18669348e-09
-1.22889469e-09
-1.22740005e-09
-1.18883674e-09
-1.1875954e-09
-1.23017827e-09
-1.22716256e-09
-1.22844621e-09
-1.18840018e-09
-1.18712806e-09
-1.23042082e-09
-1.22666921e-09
-1.22893992e-09
-1.19102798e-09
-1.18322519e-09
-1.1841701e-09
-1.23022192e-09
-1.22764919e-09
-1.22849907e-09
-1.18923682e-09
-1.18768334e-09
-1.22986851e-09
-1.22648028e-09
-1.22821904e-09
-1.19334002e-09
-1.18624465e-09
-1.18605755e-09
-1.22835841e-09
-1.2277834e-09
-1.1912472e-09
-1.18773463e-09
-1.18530308e-09
-1.18540985e-09
-1.23045678e-09
-1.22723559e-09
-1.22918891e-09
-1.19087264e-09
-1.18662971e-09
-1.22894294e-09
-1.22748007e-09
-1.18934656e-09
-1.18807951e-09
-1.2292264e-09
-1.2268482e-09
-1.1891491e-09
-1.18919105e-09
-1.22884315e-09
-1.19569348e-09
-1.18609003e-09
-1.22824445e-09
-1.22783641e-09
-1.19030471e-09
-1.18785347e-09
-1.22804453e-09
-1.22786832e-09
-1.19363853e-09
-1.18630026e-09
-1.18621163e-09
-1.22899146e-09
-1.22704398e-09
-1.22724841e-09
-1.18970653e-09
-1.18773049e-09
-1.22818286e-09
-1.22768619e-09
-1.19383548e-09
-1.18745123e-09
-1.1879048e-09
-1.18445235e-09
-1.18412575e-09
-1.23074694e-09
-1.22757753e-09
-1.2293411e-09
-1.22653508e-09
-1.22777637e-09
-1.19158754e-09
-1.18626969e-09
-1.18569404e-09
-1.22922096e-09
-1.22737724e-09
-1.18924383e-09
-1.18740503e-09
-1.22950725e-09
-1.2269201e-09
-1.18870987e-09
-1.18872917e-09
-1.22909455e-09
-1.19313936e-09
-1.18556938e-09
-1.22880548e-09
-1.2277967e-09
-1.18905899e-09
-1.18759058e-09
-1.22946029e-09
-1.22709254e-09
-1.18821974e-09
-1.1881799e-09
-1.22960945e-09
-1.22611641e-09
-1.22832069e-09
-1.19550763e-09
-1.18616148e-09
-1.18604039e-09
-1.22810199e-09
-1.22799022e-09
-1.19253417e-09
-1.18617823e-09
-1.18590078e-09
-1.22863987e-09
-1.22721401e-09
-1.19031077e-09
-1.18819161e-09
-1.22859507e-09
-1.22663315e-09
-1.19061224e-09
-1.18919984e-09
-1.22803843e-09
-1.22647721e-09
-1.19411134e-09
-1.18951662e-09
-1.18742695e-09
-1.18723001e-09
-1.22936941e-09
-1.22717998e-09
-1.18800534e-09
-1.18782346e-09
-1.23020197e-09
-1.22667682e-09
-1.22855353e-09
-1.19014492e-09
-1.18670697e-09
-1.22906017e-09
-1.22743778e-09
-1.18884544e-09
-1.18769728e-09
-1.22946612e-09
-1.22706386e-09
-1.18844012e-09
-1.18848805e-09
-1.22940974e-09
-1.22623465e-09
-1.22810353e-09
-1.19579371e-09
-1.18771381e-09
-1.1864033e-09
-1.18622052e-09
-1.23011696e-09
-1.22770142e-09
-1.18814431e-09
-1.18704303e-09
-1.23004484e-09
-1.22735618e-09
-1.18797075e-09
-1.18775469e-09
-1.23019433e-09
-1.22641132e-09
-1.22893943e-09
-1.19203261e-09
-1.18524319e-09
-1.18496248e-09
-1.22949666e-09
-1.22792576e-09
-1.18860573e-09
-1.18676399e-09
-1.23017728e-09
-1.22753363e-09
-1.22811453e-09
-1.22728664e-09
-1.19793091e-09
-1.18880523e-09
-1.18878362e-09
-1.18784214e-09
-1.18474315e-09
-1.1847339e-09
-1.23001234e-09
-1.22815035e-09
-1.2280294e-09
-1.2275963e-09
-1.19591264e-09
-1.18878648e-09
-1.18672906e-09
-1.18678183e-09
-1.22975696e-09
-1.22698053e-09
-1.22846722e-09
-1.19034912e-09
-1.18830368e-09
-1.22934047e-09
-1.22618851e-09
-1.22799735e-09
-1.19605095e-09
-1.18635874e-09
-1.18627168e-09
-1.22815727e-09
-1.22807715e-09
-1.19126094e-09
-1.18538621e-09
-1.18514609e-09
-1.22913607e-09
-1.22738891e-09
-1.18838734e-09
-1.18768639e-09
-1.23004933e-09
-1.22612391e-09
-1.22829031e-09
-1.19372921e-09
-1.18557741e-09
-1.18616217e-09
-1.22900455e-09
-1.22675697e-09
-1.22720889e-09
-1.19071542e-09
-1.18996391e-09
-1.22883413e-09
-1.20182624e-09
-1.18686766e-09
-1.22799397e-09
-1.22709282e-09
-1.19433588e-09
-1.18893281e-09
-1.18758739e-09
-1.18738287e-09
-1.23091598e-09
-1.22651074e-09
-1.23037817e-09
-1.1904901e-09
-1.18733389e-09
-1.18820312e-09
-1.18599127e-09
-1.18569821e-09
-1.22953386e-09
-1.22714101e-09
-1.22772547e-09
-1.19035733e-09
-1.18842748e-09
-1.22987703e-09
-1.22971431e-09
-1.2287341e-09
-1.23189211e-09
-1.1867351e-09
-1.18613652e-09
-1.22946707e-09
-1.22840676e-09
-1.19088803e-09
-1.18625303e-09
-1.18579205e-09
-1.22896674e-09
-1.22707943e-09
-1.18935214e-09
-1.18855606e-09
-1.22995136e-09
-1.22591625e-09
-1.22779503e-09
-1.1977055e-09
-1.18728224e-09
-1.18790407e-09
-1.18443934e-09
-1.18405197e-09
-1.23094123e-09
-1.22762218e-09
-1.22912494e-09
-1.22668693e-09
-1.22748227e-09
-1.1905303e-09
-1.18603043e-09
-1.18553477e-09
-1.22941173e-09
-1.22735115e-09
-1.18885344e-09
-1.18811906e-09
-1.23033294e-09
-1.22621325e-09
-1.22783735e-09
-1.19530254e-09
-1.187251e-09
-1.18825071e-09
-1.18475368e-09
-1.18451602e-09
-1.23099386e-09
-1.22802042e-09
-1.22883231e-09
-1.18814725e-09
-1.18550611e-09
-1.23112209e-09
-1.22830511e-09
-1.22872541e-09
-1.22805843e-09
-1.1887286e-09
-1.18648979e-09
-1.23013222e-09
-1.22773996e-09
-1.2274051e-09
-1.22754733e-09
-1.19500942e-09
-1.1872371e-09
-1.18792416e-09
-1.18519338e-09
-1.18483533e-09
-1.23046006e-09
-1.22763489e-09
-1.18839919e-09
-1.18773284e-09
-1.23033392e-09
-1.22636949e-09
-1.22762028e-09
-1.20295946e-09
-1.18730004e-09
-1.1882375e-09
-1.18516306e-09
-1.18509816e-09
-1.22962518e-09
-1.22716506e-09
-1.22800545e-09
-1.18961142e-09
-1.18775711e-09
-1.22970877e-09
-1.2261266e-09
-1.22721237e-09
-1.1908944e-09
-1.1854603e-09
-1.1857181e-09
-1.22878628e-09
-1.2267821e-09
-1.18795958e-09
-1.1872512e-09
-1.22970587e-09
-1.22563531e-09
-1.22704167e-09
-1.19429894e-09
-1.18461619e-09
-1.1857272e-09
-1.18129031e-09
-1.18110547e-09
-1.23066051e-09
-1.22813395e-09
-1.22770272e-09
-1.22762507e-09
-1.22568376e-09
-1.22683483e-09
-1.186812e-09
-1.17921366e-09
-1.18029963e-09
-1.22815426e-09
-1.2249416e-09
-1.22517217e-09
-1.18115629e-09
-1.17884461e-09
-1.2256079e-09
-1.22267719e-09
-1.22157313e-09
-1.22059603e-09
-1.18055167e-09
-1.22089218e-09
-1.21718456e-09
-1.17577385e-09
-1.17364702e-09
-1.21625059e-09
-1.21379171e-09
-1.21104745e-09
-1.21096102e-09
-1.168691e-09
-1.20992566e-09
-1.20250521e-09
-1.20438835e-09
-1.19851034e-09
-1.19905843e-09
-1.19408038e-09
-1.19366892e-09
-1.18936342e-09
-1.18815625e-09
-1.18449321e-09
-1.18267317e-09
-1.17970573e-09
-1.17765359e-09
-1.17565954e-09
-1.17463181e-09
-1.17451655e-09
-1.17070439e-09
-1.16754675e-09
-1.16308493e-09
-1.15956208e-09
-1.15452014e-09
-1.15063995e-09
-1.14494789e-09
-1.14075846e-09
-1.13432926e-09
-1.13024452e-09
-1.12439709e-09
-1.12217214e-09
-1.12136345e-09
-1.11795239e-09
-1.11125192e-09
-1.10671914e-09
-1.09757975e-09
-1.09237924e-09
-1.08123641e-09
-1.07464499e-09
-1.06019334e-09
-1.05252282e-09
-1.03786132e-09
-1.02959067e-09
-1.0149245e-09
-1.00578504e-09
-9.9664703e-10
-1.02120774e-09
-1.00386294e-09
-9.92919132e-10
-9.74886315e-10
-9.63673616e-10
-9.44691235e-10
-9.33068599e-10
-9.12782119e-10
-9.00029209e-10
-8.7833608e-10
-8.65623688e-10
-8.50910642e-10
-8.40929532e-10
-8.24847291e-10
-8.14447075e-10
-7.97215965e-10
-7.86747596e-10
-7.67764179e-10
-7.71083571e-10
-7.41733985e-10
-7.24084194e-10
-7.0002349e-10
-6.76922738e-10
-6.41307306e-10
-7.15856116e-10
-6.10865882e-10
-5.98053496e-10
-5.66001342e-10
-5.53194338e-10
-5.22885112e-10
-5.08570912e-10
-4.81494603e-10
-4.66311117e-10
-4.42118882e-10
-4.26394378e-10
-4.05008091e-10
-3.89453863e-10
-3.70914378e-10
-3.56016841e-10
-3.40108307e-10
-3.26086319e-10
-3.12585692e-10
-2.99618002e-10
-2.88175528e-10
-2.76156617e-10
-2.66420862e-10
-2.55381376e-10
-2.47048093e-10
-2.36447483e-10
-2.29434803e-10
-2.19782843e-10
-2.13854016e-10
-2.05177567e-10
-2.00074568e-10
-1.92312731e-10
-1.87835533e-10
-1.8094932e-10
-1.76882028e-10
-1.70261513e-10
-1.66358557e-10
-1.60741067e-10
-1.56918882e-10
-1.5181382e-10
-1.49350042e-10
-1.45220777e-10
-1.40456169e-10
-1.35892748e-10
-1.38091947e-10
-1.36357245e-10
-1.24082314e-10
-1.19334213e-10
-1.33873089e-10
-1.34530535e-10
-1.05777617e-10
-9.78823208e-11
-1.3000898e-10
-1.30285113e-10
-8.947217e-11
-8.68315649e-11
-1.18323631e-10
-1.19756249e-10
-8.62618728e-11
-8.64575309e-11
-1.06066492e-10
-1.12759454e-10
-8.66438847e-11
-8.68413794e-11
-1.00264962e-10
-1.06354778e-10
-8.69886561e-11
-8.7103035e-11
-9.69245977e-11
-1.02482073e-10
-8.72353785e-11
-8.73221196e-11
-9.50345309e-11
-9.99208597e-11
-8.7416558e-11
-8.74753092e-11
-9.3893386e-11
-9.81025339e-11
-8.75609934e-11
-8.75845545e-11
-9.33139928e-11
-9.67150221e-11
-8.76657766e-11
-8.76681369e-11
)
;

boundaryField
{
    closed
    {
        type            calculated;
        value           nonuniform List<scalar> 0();
    }
    open
    {
        type            calculated;
        value           nonuniform List<scalar> 0();
    }
    sides
    {
        type            empty;
    }
    procBoundary4to3
    {
        type            processor;
        value           uniform -1.22954557e-09;
    }
    procBoundary4to5
    {
        type            processor;
        value           uniform -9.29446387e-11;
    }
}


// ************************************************************************* //
