/*--------------------------------*- C++ -*----------------------------------*\
| =========                 |                                                 |
| \\      /  F ield         | OpenFOAM: The Open Source CFD Toolbox           |
|  \\    /   O peration     | Version:  2306                                  |
|   \\  /    A nd           | Website:  www.openfoam.com                      |
|    \\/     M anipulation  |                                                 |
\*---------------------------------------------------------------------------*/
FoamFile
{
    version     2.0;
    format      ascii;
    arch        "LSB;label=32;scalar=64";
    class       volScalarField;
    location    "0.00024";
    object      H;
}
// * * * * * * * * * * * * * * * * * * * * * * * * * * * * * * * * * * * * * //

dimensions      [0 0 0 0 0 0 0];

internalField   nonuniform List<scalar> 
3801
(
3.66114666e-08
4.48462142e-08
4.2506867e-08
4.66114565e-08
4.65792138e-08
1.05621188e-09
1.14483989e-09
3.58907018e-08
4.93634338e-08
4.76961084e-08
9.27899277e-10
1.18361724e-09
1.11032766e-09
1.18697499e-09
3.98160515e-08
4.75517758e-08
8.49954939e-10
1.0931234e-09
3.73824779e-08
5.45856721e-08
4.95676923e-08
7.44182287e-10
1.1880769e-09
9.8332179e-10
1.24074135e-09
1.15436923e-09
3.86087707e-08
4.79558821e-08
6.34476401e-10
1.19388697e-09
3.97286213e-08
4.4442232e-08
6.05787324e-10
1.23557251e-09
3.70629236e-08
4.17264823e-08
6.47634898e-10
1.23934269e-09
3.34194838e-08
4.25254499e-08
4.0964091e-08
4.22084164e-08
4.06592652e-08
4.17777287e-08
3.94819898e-08
4.31229794e-08
4.27696483e-08
8.45389001e-10
1.28241974e-09
1.18226969e-09
1.31249639e-09
1.35552546e-09
1.34666438e-09
2.99166339e-08
4.96427865e-08
4.41884631e-08
7.82306927e-10
1.37583367e-09
1.33152188e-09
3.10850406e-08
4.95263797e-08
4.78443029e-08
7.87877759e-10
1.26352799e-09
3.38489114e-08
4.2463433e-08
4.62031741e-08
4.58719919e-08
4.96728092e-10
1.21055724e-09
1.14287706e-09
1.21375308e-09
3.00879977e-08
4.743775e-08
4.7094415e-08
7.65328439e-10
1.26685333e-09
3.24160704e-08
3.98896642e-08
4.49252965e-08
4.49031861e-08
7.68938868e-10
1.32173399e-09
1.26734157e-09
3.12719785e-08
4.51775248e-08
4.79195372e-08
4.79362337e-08
5.27121228e-10
1.14378243e-09
1.07528787e-09
1.13535186e-09
3.19048811e-08
5.11002132e-08
5.05965986e-08
8.36720999e-10
1.21795033e-09
3.70321182e-08
4.29170467e-08
6.93167463e-10
1.26270771e-09
3.79817323e-08
4.25635979e-08
7.35669368e-10
1.25989709e-09
3.90877476e-08
4.33721296e-08
7.78583981e-10
1.24174301e-09
4.04144402e-08
4.49775535e-08
8.72801038e-10
1.20751057e-09
3.67954372e-08
4.60066568e-08
5.08482701e-08
5.07450339e-08
8.3876164e-10
1.13002491e-09
1.10155855e-09
1.13721966e-09
3.17808701e-08
5.05667278e-08
5.03820908e-08
1.12718854e-09
1.15019392e-09
3.32180869e-08
4.95220237e-08
4.94970768e-08
1.17144678e-09
1.12223832e-09
3.15078639e-08
5.12212151e-08
4.69861229e-08
9.95599389e-10
1.21349364e-09
1.11853682e-09
1.23176657e-09
1.27128405e-09
1.25543069e-09
2.73777542e-08
4.33866265e-08
4.47150387e-08
4.50314501e-08
1.16444803e-09
1.25187722e-09
3.17853197e-08
4.23500696e-08
4.070288e-08
4.24910178e-08
4.5672229e-08
4.56162286e-08
1.17072415e-09
1.24909022e-09
3.52567896e-08
4.13135901e-08
1.28898821e-09
1.26262529e-09
2.85754651e-08
4.57286499e-08
4.4739356e-08
1.2777417e-09
1.28791536e-09
2.71479277e-08
4.10095121e-08
2.51660203e-08
1.29021704e-09
2.58357396e-09
4.0673891e-08
3.79487289e-08
1.26108546e-09
1.25003562e-09
4.03602689e-08
4.15092907e-08
1.18127242e-09
1.29250688e-09
4.03554349e-08
4.19690935e-08
1.17357391e-09
1.32277937e-09
3.98662667e-08
4.15019579e-08
1.18554942e-09
1.35017698e-09
3.84993303e-08
4.01364765e-08
1.2144437e-09
1.37053865e-09
3.66193729e-08
3.86544294e-08
1.24922383e-09
1.33347632e-09
3.53238064e-08
4.21073068e-08
3.91367398e-08
3.86482016e-08
4.02667087e-08
3.29218109e-08
1.24594906e-09
1.38375898e-09
3.84938126e-08
4.28074244e-08
1.09452128e-09
1.28958289e-09
4.45039041e-08
4.37263598e-08
1.1208033e-09
1.34849535e-09
1.20438544e-09
3.58638329e-08
5.09210582e-08
3.46888515e-08
1.0685553e-09
1.38221251e-09
1.2458417e-09
4.14420632e-08
4.68963588e-08
4.64627385e-08
4.04594834e-08
1.16699223e-09
1.28204922e-09
4.08608814e-08
4.53996589e-08
4.54838693e-08
3.67152605e-08
1.16853082e-09
1.34612947e-09
3.95236372e-08
4.12068809e-08
1.10396189e-09
1.30656895e-09
3.83908866e-08
4.0653972e-08
1.1429914e-09
1.23768518e-09
3.63934687e-08
4.72016829e-08
3.8793236e-08
1.17363252e-09
1.24327526e-09
3.52141189e-08
4.94386657e-08
4.20209731e-08
1.0494663e-09
1.29105385e-09
2.24885669e-08
4.12299425e-08
2.56217848e-08
1.19696408e-09
1.9256208e-08
4.40172868e-08
4.4305026e-08
4.37670658e-08
1.27324153e-08
1.17953125e-09
2.04872179e-08
4.5604896e-08
4.52652775e-08
1.40635826e-08
1.21738973e-09
1.52782921e-08
4.13201746e-08
2.48226888e-08
1.09931531e-09
1.73089362e-08
4.97731793e-08
4.25369018e-08
7.07166212e-10
1.24733468e-09
8.16007886e-10
1.25340743e-09
9.57084523e-10
1.34034119e-09
1.07923324e-09
3.12900955e-08
5.03975323e-08
4.48271763e-08
4.47091861e-08
4.28589182e-08
1.41049072e-08
1.21131338e-09
2.38510947e-08
4.30525324e-08
1.67813657e-08
1.1293802e-09
2.73736545e-08
4.24050661e-08
1.0943722e-08
1.01784659e-09
3.21639144e-08
4.27000059e-08
7.59643571e-09
8.27175051e-10
3.5390267e-08
5.28089936e-08
4.01759226e-08
6.13300696e-10
7.27777036e-10
3.94892184e-08
5.21254974e-08
3.38306388e-08
9.80003602e-10
1.23217723e-09
8.87704462e-10
1.64263633e-08
4.02384908e-08
2.77948648e-08
9.33284494e-10
1.0200438e-08
4.08718383e-08
3.37681185e-08
7.64973922e-10
4.841161e-10
3.9137826e-08
4.89477986e-08
2.55692003e-08
7.18810871e-10
1.52337467e-08
3.91420689e-08
2.76020087e-08
1.10588116e-09
1.08673937e-09
1.08483101e-09
8.85590423e-10
3.36006882e-08
4.90309951e-08
4.51280745e-08
4.28055713e-08
3.07685135e-08
7.92769892e-10
6.50069516e-09
4.05840131e-08
3.71379341e-08
5.58146799e-10
6.58862431e-10
3.28985148e-08
4.89312499e-08
3.7310138e-08
6.93868971e-10
6.36414927e-10
3.67891191e-08
4.96099175e-08
3.41784819e-08
9.49083947e-10
8.05847752e-10
3.73492967e-08
4.55025931e-08
4.06657098e-08
4.02756637e-08
2.49602779e-08
1.40103793e-09
1.4346919e-09
8.32842632e-10
3.48489117e-08
3.31507851e-08
1.38820123e-09
1.03501503e-09
3.5412078e-08
4.51753033e-08
4.32425647e-08
4.44637027e-08
4.81504365e-08
3.92620947e-08
1.18252695e-09
9.33659128e-10
4.38779028e-08
4.17371832e-08
1.19715975e-09
9.99157163e-10
4.38460807e-08
4.18753257e-08
1.0733327e-09
1.17829214e-09
1.00421103e-09
1.13807654e-09
1.01116094e-09
1.12691759e-09
1.04237835e-08
4.77817328e-08
4.74861464e-08
1.12327985e-09
1.16574063e-09
4.26543163e-08
4.37438375e-08
1.12339489e-09
1.23428577e-09
4.0194725e-08
4.12416603e-08
1.16368528e-09
1.27880967e-09
3.77363866e-08
3.87409413e-08
1.24854069e-09
1.24062826e-09
3.27036173e-08
4.45219793e-08
4.18164297e-08
4.25289372e-08
4.65123201e-08
3.99276182e-08
1.08628611e-09
1.28253157e-09
3.9663058e-08
3.90454618e-08
1.05695568e-09
1.18052513e-09
1.13519074e-09
1.11156858e-09
3.36159724e-08
3.79524159e-08
9.49211651e-10
1.07167496e-09
3.66153447e-08
4.6149305e-08
4.47388931e-08
3.83412113e-08
6.57939789e-10
1.08711403e-09
3.7436837e-08
4.04633606e-08
2.59221494e-09
1.03170069e-09
1.08816213e-09
6.83110528e-10
4.01952536e-08
5.03774271e-08
4.41953318e-08
4.43033018e-08
4.36369616e-08
4.33388387e-08
4.31642698e-08
4.26128966e-08
4.14659563e-08
4.11192304e-08
3.12219184e-08
9.27058772e-10
1.24012275e-09
1.06752353e-09
9.87572378e-10
2.38828756e-08
3.38173724e-08
1.24889212e-08
1.038103e-09
2.29404384e-08
3.5451198e-08
1.47189745e-08
1.00599097e-09
2.1564533e-08
4.27861164e-08
3.54513151e-08
6.24152707e-09
1.19249338e-09
1.08061978e-09
9.04174644e-10
2.09953506e-08
4.44528144e-08
2.68946881e-08
1.07291424e-09
1.22330097e-08
4.65859682e-08
4.5362959e-08
2.44762531e-08
1.12420448e-09
5.37958568e-09
4.45725556e-08
4.42950746e-08
4.13016285e-08
3.07773813e-08
1.22002517e-09
2.04518715e-09
4.34095632e-08
3.21434567e-08
1.24237571e-09
1.33820524e-09
1.14249282e-09
1.29186442e-09
8.08879783e-10
4.43061076e-08
4.63822384e-08
4.14908078e-08
4.4292569e-08
3.60181359e-08
1.32816205e-09
1.0616952e-09
3.88529753e-08
4.48291294e-08
3.48799149e-08
1.2982555e-09
9.90634982e-10
4.01932301e-08
3.68878994e-08
1.37860319e-09
1.04109428e-09
3.85728519e-08
3.62032715e-08
1.42916907e-09
1.20581725e-09
3.72682194e-08
4.21629679e-08
3.93109744e-08
4.25971364e-08
3.84427e-08
1.40942684e-09
1.23409451e-09
3.36662187e-08
4.18355552e-08
3.51547682e-08
1.34363692e-09
1.20329375e-09
4.00168898e-08
3.99836029e-08
4.26109088e-08
3.56986909e-08
1.28469647e-09
1.43266863e-09
1.21999392e-09
3.51821987e-08
4.28644135e-08
4.01025799e-08
3.99108695e-08
1.36506898e-09
1.22909582e-09
4.03744398e-08
3.96489647e-08
1.36476116e-09
1.2533154e-09
4.09022972e-08
4.01243223e-08
1.36127296e-09
1.28006475e-09
4.12648573e-08
4.05455769e-08
1.36365028e-09
1.31256157e-09
4.11075126e-08
4.05133005e-08
1.37738484e-09
1.34875785e-09
3.99532156e-08
3.93858497e-08
1.40280868e-09
1.37930708e-09
3.69433313e-08
3.6464965e-08
1.4151488e-09
1.37681219e-09
2.56001088e-08
4.03624368e-08
3.77796446e-08
4.21199942e-08
4.0246989e-08
1.30296854e-09
1.34572516e-09
1.37441574e-09
1.32014567e-09
3.57651918e-08
4.43530314e-08
4.13730636e-08
1.26556229e-09
1.30396748e-09
3.75087623e-08
4.40674621e-08
4.27392913e-08
1.20977633e-09
1.31737687e-09
3.75536306e-08
4.17916266e-08
4.29080358e-08
4.27306347e-08
1.06924046e-09
1.29153546e-09
3.65840633e-08
4.2117517e-08
4.32109209e-08
4.31270638e-08
1.00932835e-09
1.27800927e-09
3.85402273e-08
4.25133803e-08
9.8823731e-10
1.24727604e-09
3.59227652e-08
4.48583951e-08
4.22025382e-08
4.56838507e-08
4.31275453e-08
4.79097749e-08
4.69136561e-08
9.19850052e-10
1.27631138e-09
1.12237971e-09
1.33946637e-09
1.24509506e-09
3.45257293e-08
4.33315935e-08
8.47778178e-10
1.29030414e-09
3.69690949e-08
4.1388135e-08
8.08656047e-10
1.31025762e-09
3.55208214e-08
3.99592077e-08
8.40089646e-10
1.30331274e-09
3.1375002e-08
4.05117852e-08
3.86384815e-08
4.10179032e-08
3.93726414e-08
4.35262859e-08
4.3086213e-08
7.63874174e-10
1.30087592e-09
1.15945841e-09
1.3257053e-09
3.28485888e-08
4.10873485e-08
7.45827801e-10
1.30831264e-09
3.78219111e-08
4.25621771e-08
5.74415746e-10
1.24904513e-09
1.01014787e-09
1.23918627e-09
3.65846777e-08
4.59515718e-08
7.7289472e-10
1.24533373e-09
3.38386701e-08
4.23342511e-08
4.52940343e-08
4.4970877e-08
8.38764563e-10
1.23508274e-09
4.0025853e-08
4.3712658e-08
6.95564844e-10
1.20520275e-09
9.23960907e-10
1.1890515e-09
1.1988038e-09
1.19644276e-09
3.14384897e-08
4.67769638e-08
4.25296439e-08
4.58365224e-08
4.35691535e-08
4.69756103e-08
4.6395824e-08
1.17872949e-09
1.11840023e-09
3.48580457e-08
5.01076825e-08
4.78857088e-08
1.18948087e-09
1.19856525e-09
3.88832576e-08
3.99537429e-08
1.23623852e-09
1.15915029e-09
4.08137376e-08
3.72734283e-08
1.1564558e-09
1.28416651e-09
1.09302641e-09
1.7346629e-08
4.4846506e-08
4.02328263e-08
1.26235989e-09
1.09627447e-09
4.00263156e-08
4.63303494e-08
4.79244423e-08
4.34832502e-08
1.23240251e-09
1.01512639e-09
4.35773882e-08
4.72197335e-08
4.99280345e-08
4.07196713e-08
1.06300884e-09
1.26566434e-09
8.99849959e-10
4.18409581e-08
4.18166019e-08
1.28400873e-09
8.53256402e-10
4.39642464e-08
3.71676675e-08
1.28606921e-09
1.190033e-09
1.31264393e-09
1.0112083e-09
3.73369367e-08
4.58875246e-08
4.14937651e-08
4.70919336e-08
3.7966508e-08
1.24416373e-09
9.649987e-10
4.10413024e-08
3.82299338e-08
1.31974925e-09
9.6972008e-10
4.13597443e-08
3.74126349e-08
1.30951638e-09
1.08107387e-09
4.34424128e-08
4.8617992e-08
3.6897075e-08
1.24532594e-09
1.1062079e-09
4.23791357e-08
4.99285523e-08
3.7028609e-08
1.25792564e-09
1.37658225e-09
1.15765451e-09
1.34727298e-09
1.08826412e-09
3.99267207e-08
4.58972185e-08
4.38103744e-08
4.08417224e-08
1.28440511e-09
1.2074799e-09
4.31414473e-08
4.24543309e-08
1.28164449e-09
1.24605851e-09
4.29055116e-08
4.26640409e-08
1.2317227e-09
1.27488775e-09
4.2481246e-08
4.29264527e-08
1.18823727e-09
1.29198491e-09
4.21099004e-08
4.30994246e-08
1.14594096e-09
1.30528696e-09
4.07628287e-08
4.22148747e-08
1.10878551e-09
1.30786699e-09
3.93765076e-08
4.13435104e-08
1.10622876e-09
1.2399125e-09
3.75736471e-08
4.61380008e-08
4.14733586e-08
4.92469032e-08
4.31179448e-08
9.80074117e-10
1.32589435e-09
1.15188408e-09
3.82648007e-08
5.12211867e-08
4.8236431e-08
4.91372074e-08
1.53288007e-08
1.1268401e-09
1.09221264e-09
1.20369865e-09
1.09163956e-09
4.14946472e-08
5.04011e-08
9.31330898e-10
1.0661243e-09
4.04382794e-08
5.61392682e-08
4.92343286e-08
8.30043641e-10
1.14727741e-09
1.03861992e-09
1.17779443e-09
3.95510172e-08
4.71140407e-08
8.47672839e-10
1.22036506e-09
4.1880742e-08
4.57400298e-08
8.64930867e-10
1.16235759e-09
3.80729976e-08
5.22430114e-08
4.61934424e-08
9.67445949e-10
1.28498769e-09
3.99682435e-08
4.47794433e-08
8.45131796e-10
1.21008109e-09
3.83429333e-08
5.1821938e-08
4.44067533e-08
9.73186886e-10
1.35146232e-09
3.89835438e-08
4.33769113e-08
4.51580109e-08
3.83597539e-08
1.01678345e-09
1.46275127e-09
1.25058561e-09
3.56835821e-08
4.30349463e-08
9.41231438e-10
1.36523967e-09
3.84239362e-08
4.15876538e-08
1.01815482e-09
1.39520273e-09
3.49821429e-08
3.97225198e-08
3.15939588e-08
3.71472863e-08
3.4485037e-08
1.24824867e-09
1.47446548e-09
4.27356545e-08
4.2871695e-08
1.09503238e-09
1.40344252e-09
1.20724015e-09
4.315598e-08
4.80001763e-08
1.19332869e-09
1.25313561e-09
4.81848173e-08
4.85809899e-08
1.23946609e-09
1.19972044e-09
5.30320197e-08
5.44184873e-08
5.4637279e-08
4.40861752e-08
1.25619061e-09
1.29460122e-09
1.21601576e-09
1.18077605e-09
1.19678183e-09
1.0515184e-09
1.2282801e-09
9.6525349e-10
5.25673311e-08
5.21383177e-08
1.37447112e-09
1.14537987e-09
4.89366271e-08
5.82062594e-08
4.23019926e-08
1.32885108e-09
1.33307557e-09
4.83131322e-08
5.79024299e-08
4.355948e-08
1.36225946e-09
1.40380529e-09
4.96194454e-08
4.9901268e-08
1.42233093e-09
1.33289187e-09
5.23593873e-08
5.57691613e-08
5.8934827e-08
4.62754142e-08
1.31349777e-09
1.5578679e-09
1.19938553e-09
4.9025858e-08
5.1644021e-08
1.4158369e-09
1.56149213e-09
1.17941416e-09
4.72051721e-08
5.23294473e-08
1.58210127e-09
1.29424499e-09
4.94085469e-08
4.79152677e-08
1.74837886e-09
1.61379182e-09
1.73150787e-09
1.6878947e-09
1.66745663e-09
1.7628799e-09
1.69676391e-09
1.67465457e-09
4.93812364e-08
5.12924243e-08
2.69207514e-09
2.20144849e-09
2.33389006e-09
2.29544214e-09
2.01583887e-09
2.38321825e-09
2.04893553e-09
2.44554928e-09
2.2132529e-09
2.49020115e-09
2.38032678e-09
2.53107749e-09
2.51670937e-09
2.58249269e-09
2.62464064e-09
2.64949687e-09
2.71645284e-09
2.73154034e-09
2.80362284e-09
2.82638789e-09
2.8938748e-09
2.93222341e-09
2.99251426e-09
3.0480425e-09
3.10488684e-09
3.17368221e-09
3.2385437e-09
3.31117735e-09
3.40352075e-09
3.47035427e-09
3.60704823e-09
3.68131638e-09
3.8392709e-09
3.99901505e-09
4.07029178e-09
4.41092949e-09
4.17596359e-09
1.01303396e-08
7.77538207e-09
2.84588625e-08
2.57364315e-08
1.37393816e-08
2.20112964e-08
2.72248689e-08
4.37789085e-08
3.99098397e-08
4.3466656e-08
4.90908272e-08
4.01455232e-08
4.45973916e-08
4.42403953e-08
3.80200002e-08
3.85872261e-08
5.09493029e-08
4.88857729e-08
3.80741183e-08
5.8922041e-08
1.00747703e-07
1.02060881e-07
5.88548773e-08
9.8670693e-08
1.1735406e-07
1.20362307e-07
1.35775281e-07
1.68500366e-07
1.97387498e-07
2.68478162e-07
2.91365744e-07
3.05533125e-07
3.46646756e-07
4.02318588e-07
3.11327242e-07
2.44542954e-07
3.16769391e-07
5.5916871e-07
5.22137525e-07
4.24852536e-07
3.9357158e-07
4.03151157e-07
7.26573893e-07
7.41966415e-07
7.10472802e-07
6.74053479e-07
4.0134241e-07
4.06410501e-07
1.20980548e-07
1.05369458e-07
3.70353966e-07
4.34411607e-07
6.30521863e-08
8.74961964e-10
2.43456669e-08
3.99419114e-09
1.13247064e-08
1.54120003e-08
3.17662789e-08
7.05294708e-08
1.15001604e-07
1.60031384e-07
3.01217139e-07
4.76082567e-07
8.23919828e-07
1.20231239e-06
1.86317321e-06
2.56768403e-06
3.63761333e-06
4.83144705e-06
6.34298067e-06
8.17833059e-06
1.025448e-05
1.23310866e-05
1.45470469e-05
1.68288011e-05
1.92652139e-05
2.18762171e-05
2.45908853e-05
2.75631694e-05
3.06370265e-05
3.38026568e-05
3.71387609e-05
4.05178215e-05
4.41464248e-05
4.77520074e-05
5.16566773e-05
5.5449515e-05
5.96059744e-05
6.35562588e-05
6.79424739e-05
7.20273007e-05
7.66214284e-05
8.08282583e-05
8.55623235e-05
8.97242694e-05
9.45118512e-05
9.87589147e-05
0.000103701239
0.000108004504
0.000113035849
0.000117362791
0.000122446239
0.000126774601
0.000131883725
0.00013619836
0.000141315117
0.000145608857
0.000150722361
0.000155975088
0.000161994903
0.000167385269
0.00017327791
0.000179685714
0.000185590678
0.000191913068
0.000197546337
0.000203727436
0.000209131333
0.000215360697
0.000220732444
0.00022708411
0.000232334416
0.000238665636
0.000243790438
0.000250074764
0.000255083515
0.000261283726
0.000266199333
0.000273748982
0.000279635095
0.000288312952
0.000293895344
0.000300768079
0.000305879866
0.000311004711
0.000315982856
0.000319900124
0.000324688629
0.000327011975
0.00033215477
0.000334889099
0.000338615073
0.000338045171
0.000346678378
0.000352562466
0.000348629051
0.000341298932
0.000365362737
0.000384397953
0.000351316002
0.000329606176
0.000398741444
0.0004265189
0.000336515216
0.000315105711
0.000427318783
0.000458707097
0.000322419257
0.000304063968
0.000427948601
0.00045776822
0.00033177521
0.000320762417
0.000403511073
0.000426661027
0.000362260271
0.000347575642
0.000381802472
0.000396036174
0.000371985098
0.00037005578
0.000371924049
0.00037565848
0.000368979598
0.000369250967
0.000366269408
0.00036666206
0.000363921914
0.000363650722
0.000361166816
0.000360640165
0.000358307569
0.000357257081
0.000354705779
0.000353606198
0.000351318782
0.000349700105
0.000346838362
0.000345507528
0.000343215796
0.000340994907
0.000337706806
0.000336483305
0.000334388665
0.000331345295
0.00032742314
0.000326764246
0.00032509525
0.000320581484
0.000315900022
0.000316510002
0.000315524707
0.000308542906
0.0003030891
0.000306015809
0.000305910795
0.000294999829
0.000288341182
0.000296538784
0.000298476083
0.000277702118
0.00026831942
0.000289623904
0.000294458959
0.000253805103
0.000240944565
0.000287730028
0.000295147331
0.000220778405
0.000205823681
0.00029157408
0.000297479342
0.000181008875
0.000168664188
0.000296894609
0.00029593737
0.000142929975
0.000135945612
0.000298435114
0.000289439185
0.000112285231
0.000112041636
0.000292588724
0.000279815454
9.23556493e-05
9.51988201e-05
0.000281150944
0.000270184763
8.09508987e-05
8.19112533e-05
0.000265390044
0.000263369299
7.56082058e-05
7.10469503e-05
0.000245570768
0.000255546067
7.8782338e-05
6.42506947e-05
0.000219020261
0.000246668683
8.90489902e-05
5.91550831e-05
0.000188456405
0.000238123723
0.000105027575
5.54667057e-05
0.00015582626
0.000229372718
0.000124908376
5.3481125e-05
0.000123593992
0.000219669381
0.000145945116
5.3943208e-05
9.52191541e-05
0.000206929515
0.000166781669
5.68045655e-05
7.19391476e-05
0.000191204032
0.000184781211
6.31170844e-05
5.67369922e-05
0.000169921703
0.000192170181
7.88021605e-05
5.11441274e-05
0.00013844996
0.000190131746
0.000100569542
5.04972892e-05
0.000107085515
0.000182019444
0.00012279156
5.33697818e-05
8.1887739e-05
0.00016899028
0.000141381238
5.94766004e-05
6.39746004e-05
0.000153446821
0.00015471834
6.77759421e-05
5.44238415e-05
0.000134329547
0.00015844292
8.08501791e-05
5.18506874e-05
0.000112383882
0.000155257432
9.49568443e-05
5.29359041e-05
9.39824462e-05
0.000147804629
0.000106500449
5.63840259e-05
8.08136169e-05
0.000137777195
0.000114092585
6.11867366e-05
7.26040608e-05
0.000126824192
0.000117279862
6.6469541e-05
6.83036083e-05
0.000116259163
0.000116644912
7.13494401e-05
6.72318527e-05
0.000106501883
0.000112544498
7.60067441e-05
6.82661803e-05
9.78292925e-05
0.000106788986
7.95328791e-05
7.00096819e-05
9.1051325e-05
0.000100804338
8.15584875e-05
7.17768637e-05
8.60344042e-05
9.52174731e-05
8.2234739e-05
7.32016749e-05
8.24643167e-05
9.03383674e-05
8.18756768e-05
7.41103694e-05
7.99117157e-05
8.62496721e-05
8.08293862e-05
7.44778508e-05
7.80094979e-05
8.28968135e-05
7.94188683e-05
7.43845784e-05
7.64987425e-05
8.01146593e-05
7.78420439e-05
7.39674103e-05
7.51824651e-05
7.77847296e-05
7.6236079e-05
7.33174583e-05
7.40072793e-05
7.57607579e-05
7.46739611e-05
7.24806976e-05
7.28289324e-05
7.40069175e-05
7.31650788e-05
7.15141647e-05
7.16604119e-05
7.24311135e-05
7.17701127e-05
7.04619527e-05
7.05050713e-05
7.0994759e-05
7.0454155e-05
6.93828277e-05
6.93674985e-05
6.96576974e-05
6.91849791e-05
6.83205436e-05
6.824881e-05
6.8389363e-05
6.79649792e-05
6.72860961e-05
6.71708532e-05
6.71911426e-05
6.68172752e-05
6.62594286e-05
6.61114508e-05
6.60575556e-05
6.57143716e-05
6.52414711e-05
6.50685802e-05
6.49717812e-05
6.46452502e-05
6.42352646e-05
6.40421137e-05
6.39223783e-05
6.36049236e-05
6.32482991e-05
6.30360797e-05
6.29048177e-05
6.2590946e-05
6.2282146e-05
6.205026e-05
6.19149175e-05
6.16004989e-05
6.13371043e-05
6.10875922e-05
6.09577555e-05
6.06485383e-05
6.04349912e-05
6.01665193e-05
6.00451563e-05
5.97282076e-05
5.95523503e-05
5.92618646e-05
5.91558721e-05
5.88267471e-05
5.86861072e-05
5.83734428e-05
5.82877448e-05
5.79430066e-05
5.78364433e-05
5.75009671e-05
5.74391264e-05
5.70760997e-05
5.7003212e-05
5.66441119e-05
5.6608677e-05
5.62253186e-05
5.61860505e-05
5.58025437e-05
5.57952335e-05
5.53900787e-05
5.53844404e-05
5.49759355e-05
5.49977233e-05
5.45703571e-05
5.46000213e-05
5.41820656e-05
5.42344441e-05
5.379993e-05
5.38611677e-05
5.34191067e-05
5.35001355e-05
5.30433749e-05
5.3134854e-05
5.26697899e-05
5.27786509e-05
5.2300572e-05
5.24204523e-05
5.19340837e-05
5.20690658e-05
5.15714438e-05
5.17168766e-05
5.12115154e-05
5.13663372e-05
5.08415596e-05
5.10001761e-05
5.0466091e-05
5.06296809e-05
5.0086025e-05
5.02529803e-05
4.97019426e-05
4.98704798e-05
4.93130431e-05
4.94827354e-05
4.89203203e-05
4.90877478e-05
4.85226618e-05
4.86886791e-05
4.81236616e-05
4.82806534e-05
4.77418549e-05
4.78948223e-05
4.73570414e-05
4.74985134e-05
4.69679815e-05
4.71040755e-05
4.65760962e-05
4.66936339e-05
4.61805882e-05
4.62936651e-05
4.57818788e-05
4.58653449e-05
4.53816196e-05
4.5467844e-05
4.49754231e-05
4.50116696e-05
4.45745976e-05
4.46362248e-05
4.41566775e-05
4.41247356e-05
4.37670202e-05
4.38221072e-05
4.3320561e-05
4.3178249e-05
4.29781279e-05
4.30830236e-05
4.24440417e-05
4.20846768e-05
4.2261307e-05
4.25975899e-05
4.14665644e-05
4.06881627e-05
4.18298863e-05
4.30427237e-05
4.00100849e-05
3.80206523e-05
4.24147654e-05
4.50930903e-05
3.74371278e-05
3.47396117e-05
4.41289102e-05
4.74668708e-05
3.45296862e-05
3.17589367e-05
4.59658299e-05
4.97837606e-05
3.19132139e-05
2.90707548e-05
4.77939546e-05
5.19913856e-05
2.94744821e-05
2.66246765e-05
4.95337361e-05
5.45004902e-05
2.72092514e-05
2.43590201e-05
5.14309595e-05
5.69469183e-05
2.52722784e-05
2.186951e-05
5.35926431e-05
5.97526325e-05
2.33627969e-05
1.94738043e-05
5.59201667e-05
6.3179598e-05
2.14723417e-05
1.71344973e-05
5.85555962e-05
6.74277191e-05
1.99411229e-05
1.45912196e-05
6.1313787e-05
7.200041e-05
1.87516068e-05
1.22400884e-05
6.39631e-05
7.59743344e-05
1.75128477e-05
1.01281889e-05
6.64040928e-05
8.03068516e-05
1.62076564e-05
8.91925767e-06
6.84383781e-05
8.46432602e-05
1.49954425e-05
7.86929353e-06
7.00527105e-05
8.82094321e-05
1.39548572e-05
6.95516062e-06
7.13310889e-05
9.09820113e-05
1.29547432e-05
6.24031689e-06
7.21747226e-05
9.30868542e-05
1.20576191e-05
5.83285829e-06
7.24785634e-05
9.41266007e-05
1.1325117e-05
5.73546244e-06
7.23024681e-05
9.38304509e-05
1.088355e-05
5.94316812e-06
7.18578739e-05
9.22495769e-05
1.05383197e-05
6.47948158e-06
7.13188824e-05
9.00638301e-05
1.04342886e-05
7.15962359e-06
7.03577571e-05
8.74201646e-05
1.07917164e-05
8.00221644e-06
6.82640996e-05
8.41142369e-05
1.20485384e-05
9.1864779e-06
6.32306073e-05
7.96072193e-05
1.56049932e-05
1.11773535e-05
5.4665181e-05
7.30206358e-05
2.42460552e-05
1.50472296e-05
4.40569895e-05
6.04479894e-05
3.19997286e-05
2.21420181e-05
3.69303386e-05
4.72267211e-05
3.4410958e-05
2.99860441e-05
3.48455089e-05
3.88335435e-05
3.43359206e-05
3.28114217e-05
3.39016612e-05
3.54198829e-05
3.3634675e-05
3.32079189e-05
3.3145418e-05
3.37383737e-05
3.28259649e-05
3.27690378e-05
3.24022379e-05
3.2652466e-05
3.20422948e-05
3.20810014e-05
3.16565016e-05
3.17813195e-05
3.12796476e-05
3.13496784e-05
3.09002042e-05
3.09996721e-05
3.05274806e-05
3.06127387e-05
3.01858463e-05
3.02740606e-05
2.98547357e-05
2.99373069e-05
2.95255949e-05
2.96076111e-05
2.91992977e-05
2.92773196e-05
2.88746492e-05
2.89497592e-05
2.85517202e-05
2.86229205e-05
2.82299514e-05
2.82974216e-05
2.79092127e-05
2.7972646e-05
2.75892126e-05
2.76485981e-05
2.72697988e-05
2.73250157e-05
2.69507883e-05
2.70017851e-05
2.66320426e-05
2.66787412e-05
2.63134192e-05
2.63557553e-05
2.59947873e-05
2.60326888e-05
2.56760127e-05
2.57094101e-05
2.53569599e-05
2.53857823e-05
2.50374869e-05
2.50616658e-05
2.47174449e-05
2.47369146e-05
2.43966767e-05
2.44113765e-05
2.40750169e-05
2.40848921e-05
2.37607965e-05
2.37682077e-05
2.34724775e-05
2.34754436e-05
2.31829553e-05
2.31814506e-05
2.2892063e-05
2.28860685e-05
2.25996315e-05
2.25891316e-05
2.23143098e-05
2.23110855e-05
2.2053463e-05
2.20464461e-05
2.17911052e-05
2.17802739e-05
2.15270455e-05
2.15123757e-05
2.12610969e-05
2.12425641e-05
2.09930795e-05
2.09706596e-05
2.07228235e-05
2.06964936e-05
2.04501702e-05
2.0419911e-05
2.01749747e-05
2.01407722e-05
1.98971076e-05
1.98589556e-05
1.96164565e-05
1.95743587e-05
1.93329276e-05
1.92869003e-05
1.90464473e-05
1.89965209e-05
1.87569631e-05
1.87031842e-05
1.84644445e-05
1.84068771e-05
1.81688838e-05
1.81076102e-05
1.78702962e-05
1.78054177e-05
1.75772676e-05
1.75182019e-05
1.73097164e-05
1.72475561e-05
1.70394185e-05
1.6974305e-05
1.67664735e-05
1.66985639e-05
1.6491e-05
1.64204674e-05
1.62131356e-05
1.6140167e-05
1.5933035e-05
1.58578304e-05
1.56508684e-05
1.55736398e-05
1.53668203e-05
1.52877894e-05
1.50810876e-05
1.50004846e-05
1.4793877e-05
1.47119385e-05
1.45054039e-05
1.4422372e-05
1.42158898e-05
1.41320077e-05
1.39255605e-05
1.38410759e-05
1.36346429e-05
1.35497926e-05
1.33433679e-05
1.3258389e-05
1.30519616e-05
1.29670786e-05
1.2760646e-05
1.26760588e-05
1.2469652e-05
1.23854716e-05
1.21792225e-05
1.20955862e-05
1.19065235e-05
1.18360926e-05
1.16592819e-05
1.15898201e-05
1.14128114e-05
1.13445819e-05
1.11673277e-05
1.11004231e-05
1.09230603e-05
1.08574934e-05
1.06801594e-05
1.06159854e-05
1.04387168e-05
1.03759971e-05
1.01988311e-05
1.01376171e-05
9.9606002e-06
9.90092444e-06
9.72410881e-06
9.66599743e-06
9.48942778e-06
9.4328907e-06
9.2566206e-06
9.20165764e-06
9.02573946e-06
8.97233992e-06
8.79682787e-06
8.7449735e-06
8.56992126e-06
8.51958733e-06
8.34504851e-06
8.29620597e-06
8.12223301e-06
8.07484997e-06
7.90149415e-06
7.85553754e-06
7.68284865e-06
7.63828554e-06
7.46631182e-06
7.42311041e-06
7.25792768e-06
7.2245435e-06
7.085879e-06
7.05347195e-06
6.91562142e-06
6.88418029e-06
6.74718188e-06
6.71670023e-06
6.58059084e-06
6.55106762e-06
6.41588316e-06
6.38732303e-06
6.25309872e-06
6.22551211e-06
6.09228281e-06
6.06568595e-06
5.9334864e-06
5.9079012e-06
5.77676624e-06
5.7522201e-06
5.62218488e-06
5.59871039e-06
5.4698105e-06
5.44744502e-06
5.31971664e-06
5.2985018e-06
5.17198186e-06
5.15196292e-06
5.02668917e-06
5.00791434e-06
4.88392552e-06
4.86644518e-06
4.74378118e-06
4.72764703e-06
4.606349e-06
4.59161319e-06
4.47172376e-06
4.458438e-06
4.34000132e-06
4.32821602e-06
4.2112778e-06
4.20104121e-06
4.08564857e-06
4.07700592e-06
3.96320709e-06
3.95619972e-06
3.84404363e-06
3.8387081e-06
3.72824397e-06
3.72461093e-06
3.615888e-06
3.61398066e-06
3.52392318e-06
3.52434384e-06
3.44853538e-06
3.45003747e-06
3.37576102e-06
3.37846517e-06
3.30583733e-06
3.30974579e-06
3.23880302e-06
3.24391141e-06
3.17469049e-06
3.18098793e-06
3.11352621e-06
3.12099545e-06
3.05533103e-06
3.06394878e-06
3.00012048e-06
3.00985784e-06
2.94790511e-06
2.95872806e-06
2.89869085e-06
2.91056082e-06
2.85247953e-06
2.86535403e-06
2.80926941e-06
2.82310275e-06
2.76905602e-06
2.78380003e-06
2.73183304e-06
2.74743794e-06
2.69759347e-06
2.71400869e-06
2.66633096e-06
2.68350604e-06
2.63804135e-06
2.65592695e-06
2.61272458e-06
2.63127345e-06
2.59038682e-06
2.60989906e-06
2.5715981e-06
2.59198997e-06
2.55611069e-06
2.57703821e-06
2.54365832e-06
2.56509503e-06
2.53430483e-06
2.55623295e-06
2.5281384e-06
2.55055107e-06
2.52527729e-06
2.54818143e-06
2.52587648e-06
2.54929668e-06
2.53013539e-06
2.55411922e-06
2.5383071e-06
2.5629321e-06
2.5507089e-06
2.57609199e-06
2.56773517e-06
2.59404398e-06
2.58987187e-06
2.61734009e-06
2.61771629e-06
2.64665734e-06
2.65140788e-06
2.6833038e-06
2.69187415e-06
2.72824599e-06
2.74016188e-06
2.78272709e-06
2.79752718e-06
2.84820149e-06
2.86534759e-06
2.9266523e-06
2.94545318e-06
3.01994944e-06
3.03927948e-06
3.13200012e-06
3.15075384e-06
3.26272814e-06
3.2787469e-06
3.42373978e-06
3.4330932e-06
3.6039591e-06
3.60347892e-06
3.8508531e-06
3.82448821e-06
4.15459556e-06
4.09510201e-06
4.70680653e-06
4.57282237e-06
4.95756546e-06
4.7852159e-06
6.07107874e-06
5.66817429e-06
5.79214749e-06
5.42818851e-06
8.6864117e-06
7.45862786e-06
6.009933e-06
5.60782639e-06
1.45326045e-05
1.14825668e-05
4.61573399e-06
4.67157975e-06
2.39114597e-05
1.88519869e-05
2.57458536e-06
3.05205593e-06
3.39248164e-05
2.72106453e-05
1.41958096e-06
1.64862645e-06
4.18009797e-05
3.40446936e-05
9.74831653e-07
1.01594783e-06
4.71987781e-05
3.93129932e-05
8.18853239e-07
8.79819804e-07
5.22196845e-05
4.28479763e-05
7.10160814e-07
7.79416911e-07
5.64780148e-05
4.50308966e-05
6.17995882e-07
7.02987329e-07
6.0057651e-05
4.6227518e-05
5.3727128e-07
6.58201202e-07
6.31907351e-05
4.64843975e-05
4.74346501e-07
6.43577921e-07
6.56799297e-05
4.59950066e-05
4.22952101e-07
6.47739284e-07
6.74820289e-05
4.4922698e-05
3.90368657e-07
6.66772571e-07
6.86971482e-05
4.34765845e-05
3.67347117e-07
6.96089905e-07
6.95091333e-05
4.18053246e-05
3.49442022e-07
7.24097824e-07
6.99872371e-05
4.00758292e-05
3.34883192e-07
7.53520634e-07
7.01996382e-05
3.84134202e-05
3.20231435e-07
7.81244517e-07
7.01395182e-05
3.68806859e-05
2.94645204e-07
8.03649558e-07
6.99602954e-05
3.56481696e-05
2.72209685e-07
8.18978106e-07
6.97106934e-05
3.46650044e-05
2.49812544e-07