/*--------------------------------*- C++ -*----------------------------------*\
| =========                 |                                                 |
| \\      /  F ield         | OpenFOAM: The Open Source CFD Toolbox           |
|  \\    /   O peration     | Version:  2306                                  |
|   \\  /    A nd           | Website:  www.openfoam.com                      |
|    \\/     M anipulation  |                                                 |
\*---------------------------------------------------------------------------*/
FoamFile
{
    version     2.0;
    format      ascii;
    arch        "LSB;label=32;scalar=64";
    class       volScalarField;
    location    "0.00024";
    object      Z;
}
// * * * * * * * * * * * * * * * * * * * * * * * * * * * * * * * * * * * * * //

dimensions      [0 0 0 0 0 0 0];

internalField   nonuniform List<scalar> 
3801
(
0.0147128017
0.0148129068
0.0147840785
0.014834308
0.0148339899
0.0140933974
0.0140885229
0.0147048549
0.0148707229
0.014845745
0.0141056652
0.0140837983
0.0140913322
0.0140828184
0.0147531959
0.0148450366
0.0141089875
0.0140922085
0.014722803
0.0149345546
0.0148692038
0.0141215709
0.0140838897
0.0141020247
0.0140783945
0.0140854987
0.0147380344
0.0148477868
0.0141302478
0.0140813027
0.0147563511
0.014806261
0.0141357705
0.0140785283
0.0147248015
0.0147748742
0.0141307094
0.0140785644
0.0146643086
0.0147848281
0.0147636034
0.0147803574
0.0147603522
0.0147755549
0.014747485
0.014793684
0.0147887064
0.0141136645
0.0140743457
0.0140836552
0.0140696666
0.0140656027
0.0140669661
0.0145937652
0.0148692942
0.0148006974
0.0141158872
0.014064192
0.0140701455
0.0146154335
0.0148699517
0.0148445271
0.0141182349
0.0140740339
0.0146716007
0.0147811073
0.0148310161
0.0148228072
0.0141480974
0.0140809207
0.0140887226
0.0140805199
0.0145996573
0.0148451957
0.0148365668
0.0141217963
0.0140749992
0.0146467749
0.0147523658
0.0148148715
0.0148133718
0.014119599
0.0140713932
0.0140760885
0.0146229775
0.0148158128
0.014850451
0.0148497467
0.0141399956
0.0140878773
0.014094395
0.0140883878
0.0146332347
0.0148908478
0.0148781679
0.0141149472
0.0140790063
0.0147245108
0.0147871961
0.0141271435
0.0140750292
0.0147377589
0.0147830604
0.0141231064
0.0140754106
0.0147503151
0.0147927426
0.0141175868
0.014076961
0.0147640233
0.0148120686
0.0141065939
0.0140801567
0.014718142
0.0148266296
0.0148859354
0.014882946
0.0141088042
0.0140883881
0.0140907766
0.0140870725
0.0146347474
0.0148804719
0.0148759298
0.0140851614
0.014084568
0.014660721
0.0148672047
0.0148671436
0.0140813609
0.0140888832
0.0146280357
0.0148905943
0.0148353549
0.0140968814
0.0140797147
0.0140877362
0.0140775775
0.0140755062
0.0140754649
0.0145543774
0.0147926665
0.0148072575
0.0148118428
0.014081032
0.014076279
0.0146316458
0.0147820365
0.014760653
0.0147836043
0.0148198889
0.0148199579
0.0140822524
0.0140771468
0.0146936961
0.0147698435
0.0140693875
0.0140752607
0.0145719927
0.0148191773
0.0148068931
0.0140714848
0.014072538
0.0145470456
0.014764086
0.0145148602
0.0140731921
0.0141787218
0.0147587737
0.0147327269
0.0140739556
0.0140712553
0.0147544606
0.0147699676
0.0140806397
0.0140693655
0.0147548325
0.0147734527
0.0140807852
0.0140667737
0.0147490934
0.0147670071
0.0140796445
0.0140646259
0.0147330827
0.0147509053
0.0140773807
0.0140636492
0.0147110819
0.0147347167
0.0140744097
0.0140677258
0.01469484
0.0147768859
0.0147414619
0.0147357512
0.0147565721
0.0146512587
0.0140774168
0.0140627285
0.014736107
0.0147826239
0.0140899069
0.0140690555
0.0148061898
0.0147952822
0.0140858704
0.0140675757
0.0140799003
0.0147004387
0.0148855889
0.0146818119
0.0140900439
0.0140635666
0.0140752288
0.014766762
0.0148346601
0.0148283238
0.014758906
0.0140817967
0.0140716288
0.0147612729
0.0148154883
0.0148183062
0.0147135874
0.0140832648
0.0140650736
0.0147476815
0.0147654109
0.0140887871
0.0140702403
0.0147340953
0.0147608286
0.0140833575
0.0140775277
0.0147082915
0.0148407022
0.014738634
0.0140818015
0.0140774736
0.0146953169
0.0148687746
0.014776985
0.0140876802
0.0140731966
0.0144696511
0.014767323
0.0145210255
0.0140799496
0.0144162282
0.0148009172
0.0148032001
0.0147996791
0.0143162111
0.0140837677
0.0144369027
0.0148206875
0.0148148656
0.0143361953
0.0140795975
0.0143548369
0.0147704667
0.0145068485
0.0140925943
0.0143855892
0.0148796627
0.0147828864
0.0141266433
0.0140774805
0.0141241755
0.0140746928
0.0141081424
0.0140655967
0.0140926578
0.014618511
0.0148806802
0.0148069035
0.0148121542
0.0147861765
0.0143374444
0.0140794194
0.0144893025
0.0147905002
0.0143763755
0.0140869431
0.0145489696
0.0147837557
0.0142909738
0.0140969441
0.0146374871
0.0147891647
0.0142446676
0.0141147565
0.0146942188
0.0149148721
0.0147514111
0.0141334574
0.014120662
0.0147458428
0.0149069505
0.0146605654
0.0141028875
0.0140773133
0.0141160527
0.0143689914
0.0147625044
0.0145590559
0.0141033368
0.0142804244
0.0147713046
0.0146721992
0.0141189881
0.0141501991
0.0147415038
0.0148697719
0.0145164108
0.0141265401
0.0143525466
0.0147511588
0.0145567957
0.0140904707
0.014094874
0.0140907512
0.0141566568
0.0146577588
0.0148672752
0.0148118797
0.014793387
0.0146114498
0.0141185585
0.0142300403
0.014769546
0.0147227242
0.0141435462
0.0141351317
0.0146457303
0.014867165
0.0147159768
0.0141281036
0.0141347943
0.0147148486
0.0148756456
0.0146662078
0.0141002579
0.0141161073
0.0147224746
0.0148199823
0.0147565517
0.0147542871
0.0145086024
0.0140629029
0.0140584781
0.0141131774
0.0146839481
0.0146560032
0.0140576479
0.0140972162
0.0146961144
0.0148164814
0.0147911104
0.0148060501
0.0148507035
0.0147420255
0.0140804393
0.0141063341
0.0148010042
0.0147733435
0.0140808205
0.0141001453
0.0148024345
0.0147760778
0.0140913804
0.0140839275
0.0140988877
0.014086091
0.0140992757
0.0140879332
0.0142843093
0.014847581
0.0148439613
0.0140849657
0.0140820137
0.0147875704
0.0147974669
0.0140854591
0.0140759769
0.0147580304
0.0147677303
0.0140818955
0.0140722561
0.0147274611
0.0147394337
0.0140733095
0.0140769654
0.0146492924
0.0148086758
0.014775628
0.0147837876
0.0148336969
0.0147507315
0.0140866767
0.0140691391
0.0147542311
0.0147413614
0.0140905267
0.0140835868
0.0140880626
0.0140871133
0.0146744952
0.0147329625
0.0140992229
0.0140920842
0.014716255
0.0148298268
0.0148142071
0.0147344307
0.014127413
0.0140869997
0.0147290249
0.0147607544
0.0141786832
0.0141007674
0.0140929329
0.0141239287
0.0147558051
0.0148843396
0.0148019267
0.0148075312
0.0147959799
0.0147934826
0.0147898876
0.0147842179
0.0147682721
0.014770638
0.0146176077
0.0141068242
0.0140783825
0.0140956256
0.0141008013
0.0144896305
0.0146698963
0.0143144932
0.0140949054
0.0144708242
0.0146971669
0.0143479876
0.0140992456
0.0144478185
0.0147879376
0.0146954103
0.0142270746
0.0140821133
0.0140914651
0.0141077273
0.0144352783
0.0148048483
0.0145429156
0.014092109
0.0143075528
0.0148309752
0.014820682
0.0145054251
0.0140903314
0.0142149869
0.0148100075
0.0148075741
0.0147694951
0.0146149017
0.0140789251
0.0141719689
0.0147921036
0.014639584
0.0140761736
0.0140689411
0.0140866429
0.0140742756
0.0141170331
0.0148062467
0.0148306359
0.0147692645
0.014803492
0.0147016588
0.0140690288
0.0140925303
0.0147380141
0.0148104942
0.0146842592
0.0140710522
0.0140996701
0.0147523662
0.0147146444
0.0140628106
0.0140957572
0.0147315472
0.0147065921
0.0140579488
0.0140797753
0.0147166635
0.0147766945
0.0147399688
0.0147798923
0.0147292471
0.0140593849
0.014076208
0.0146601614
0.0147733499
0.0146875876
0.0140665666
0.0140788776
0.0147500991
0.0147497721
0.0147808766
0.0146973069
0.0140703007
0.0140589702
0.0140758482
0.0146915362
0.0147840226
0.0147506146
0.0147482326
0.0140635303
0.0140759846
0.0147532751
0.014746402
0.0140634199
0.014073909
0.0147591879
0.0147517872
0.0140634259
0.014071182
0.0147631646
0.0147564254
0.0140630115
0.0140680928
0.0147609878
0.0147558501
0.0140616521
0.0140650546
0.0147470682
0.0147428943
0.0140596696
0.0140634518
0.0147116165
0.0147098244
0.0140587209
0.0140649233
0.0145176038
0.0147548691
0.0147219448
0.014775375
0.014751519
0.0140694432
0.0140654415
0.0140635431
0.0140671786
0.014699151
0.0148018069
0.0147663954
0.0140727812
0.014070379
0.014719349
0.0148006815
0.0147822342
0.0140792956
0.0140691529
0.0147223131
0.0147727657
0.0147878586
0.0147836
0.0140924346
0.0140722154
0.0147121371
0.0147778585
0.0147923265
0.0147894789
0.0140977248
0.0140740542
0.0147366416
0.0147828266
0.014097995
0.0140769466
0.0147021358
0.0148118447
0.0147763496
0.0148216314
0.014788522
0.0148495074
0.0148349274
0.0141050901
0.014074334
0.0140880826
0.0140682664
0.0140757578
0.0146828555
0.0147906308
0.0141102982
0.0140715315
0.0147199016
0.0147677424
0.0141147296
0.0140703282
0.0147027628
0.0147517172
0.0141107404
0.0140716342
0.0146245665
0.0147594783
0.014734617
0.0147662883
0.0147437668
0.0147992044
0.0147880871
0.0141215008
0.014071127
0.0140882197
0.0140678784
0.0146570338
0.0147625456
0.0141200552
0.014069164
0.0147330742
0.0147807781
0.0141348202
0.0140744825
0.0141008002
0.0140745921
0.0147148373
0.0148208753
0.0141138673
0.0140752506
0.01467491
0.0147812703
0.0148214493
0.0148129712
0.0141133284
0.014078774
0.0147610169
0.0147975934
0.0141211732
0.0140801569
0.0141062047
0.0140805966
0.0140817999
0.0140801517
0.0146255731
0.014834627
0.0147817998
0.0148246708
0.0147964443
0.014838779
0.0148314261
0.0140803552
0.0140907374
0.0146914312
0.0148776879
0.0148453379
0.0140812619
0.0140811562
0.0147432347
0.0147529584
0.0140769382
0.0140875179
0.0147658364
0.0147216212
0.0140841549
0.0140757375
0.0140929127
0.0143871932
0.0148134205
0.0147555582
0.014075315
0.0140913961
0.0147548882
0.0148296193
0.0148461223
0.014793195
0.0140762253
0.0140977123
0.014796911
0.0148408543
0.0148717116
0.0147594287
0.0140909033
0.0140762938
0.0141052328
0.0147763531
0.0147773029
0.014071951
0.0141105122
0.01479622
0.0147212196
0.0140682833
0.0140834297
0.0140678191
0.0140984289
0.0147207307
0.0148273156
0.0147690803
0.0148390961
0.0147275316
0.0140761467
0.0140986732
0.0147640339
0.0147352021
0.0140681121
0.0140994349
0.0147661486
0.0147249159
0.0140692335
0.0140902319
0.0147924871
0.0148569198
0.0147153461
0.0140758193
0.0140867478
0.0147789696
0.014872648
0.0147140168
0.0140755778
0.0140634807
0.0140837097
0.0140676071
0.0140888522
0.0147509537
0.014825561
0.0147958682
0.0147640114
0.0140709357
0.0140772395
0.0147866666
0.0147829698
0.0140715862
0.0140744784
0.0147843087
0.0147841985
0.0140770279
0.0140723856
0.0147798668
0.0147862091
0.0140815421
0.0140713748
0.0147760252
0.0147874999
0.0140855098
0.0140701716
0.0147609929
0.0147770645
0.0140881806
0.0140705114
0.014745223
0.0147688324
0.0140864775
0.014078297
0.0147213499
0.0148293593
0.0147681418
0.0148670769
0.0147889215
0.0140968319
0.0140693129
0.0140837394
0.0147297577
0.0148874254
0.0148487253
0.0148635215
0.0143537206
0.0140883597
0.014086777
0.0140806588
0.0140876064
0.0147700132
0.014878264
0.0140961461
0.0140934186
0.0147585978
0.0149526652
0.0148640699
0.0141121657
0.0140844165
0.0140974221
0.014079633
0.0147510758
0.0148353415
0.01410788
0.0140768249
0.0147784412
0.0148202817
0.014105654
0.0140831468
0.0147279825
0.014900982
0.0148238766
0.0140993381
0.0140701762
0.0147523626
0.0148055133
0.0141079766
0.0140768493
0.0147279472
0.0148931987
0.0147999924
0.0140984704
0.0140624704
0.0147370131
0.0147850389
0.0148119881
0.0147278297
0.0140932685
0.0140531025
0.0140710166
0.0146909872
0.014781103
0.0140982887
0.0140589081
0.0147251694
0.0147628331
0.0140913453
0.0140562356
0.0146746333
0.0147418845
0.0146139436
0.0147127313
0.0146653708
0.014072006
0.0140470969
0.0147753357
0.0147761898
0.014081177
0.0140559853
0.0140697292
0.0147774077
0.0148389904
0.0140734039
0.0140666919
0.014836465
0.0148449024
0.0140683367
0.0140699795
0.0148945296
0.0149107664
0.014913239
0.0147893598
0.0140643209
0.0140631391
0.0140666521
0.0140721629
0.0140689368
0.0140826048
0.0140668256
0.0140871425
0.0148840825
0.0148841225
0.0140527834
0.0140719534
0.0148389008
0.0149520052
0.0147613319
0.0140562134
0.0140537824
0.0148310515
0.014943247
0.0147739116
0.0140515786
0.0140460588
0.0148436923
0.0148451521
0.0140448736
0.0140508355
0.0148769358
0.0149093524
0.0149528809
0.0147983233
0.0140496802
0.0140336372
0.0140588159
0.0148319063
0.0148601852
0.0140445138
0.0140320963
0.0140587927
0.0148056679
0.0148664757
0.0140261746
0.0140522729
0.0148280476
0.0148089981
0.0140224915
0.014022815
0.014039482
0.0140284962
0.0140368363
0.0140391568
0.0140267816
0.0140621783
0.0148192059
0.0148371555
0.0140276079
0.0140178479
0.0140401863
0.0140188058
0.014033531
0.0140173973
0.0140253817
0.0140138925
0.0140171715
0.0140091262
0.0140092496
0.014003789
0.0140020158
0.0139981857
0.0139953831
0.0139924263
0.0139891441
0.0139865385
0.0139831336
0.0139805634
0.0139772671
0.0139745679
0.0139715029
0.0139686342
0.0139657845
0.013962844
0.0139599949
0.0139572354
0.0139539605
0.0139516312
0.0139475223
0.0139451481
0.0139405367
0.0139352654
0.0139321299
0.0139155661
0.0139216395
0.0140960787
0.014189016
0.0141822525
0.0141951358
0.0142159535
0.0142217274
0.0142295576
0.0142306384
0.0142458064
0.0142580544
0.0142670222
0.0142926107
0.0143061717
0.0143253704
0.0143528724
0.0143744207
0.014386857
0.0144153778
0.0144589152
0.0144562508
0.0143753263
0.0144013719
0.014445617
0.0144607707
0.014479835
0.0145150307
0.0145252821
0.0145012397
0.0145131961
0.0143650992
0.0143661097
0.0144111395
0.0144241728
0.0144305431
0.0142598053
0.0142579669
0.0143050788
0.0143051748
0.0142416254
0.0142833517
0.0143423884
0.014252169
0.0142008352
0.0142576035
0.0143049973
0.0141540882
0.0140773307
0.0139949435
0.0138781439
0.0138275306
0.0139419479
0.0139412229
0.0136587106
0.0135763039
0.0135958591
0.0135785119
0.0135679374
0.0135927574
0.0136044015
0.0136324287
0.0136563693
0.0136770316
0.0137195512
0.0137576287
0.0138138795
0.0138602015
0.0139229805
0.0139775045
0.0140426879
0.0141076299
0.014169233
0.0142420939
0.0143043387
0.014363241
0.0144101016
0.0144584633
0.014497787
0.0145455394
0.0145837339
0.0146325959
0.014672193
0.0147179922
0.0147562246
0.0148005076
0.0148394163
0.0148832442
0.01492277
0.0149660134
0.0150061086
0.0150488337
0.0150893194
0.0151316969
0.015172351
0.0152145421
0.0152542614
0.0152933278
0.0153308458
0.015370019
0.0154078381
0.0154469635
0.0154844364
0.0155232918
0.015560221
0.0155986862
0.0156349468
0.0156730245
0.0157085698
0.0157463663
0.0157812357
0.0158313374
0.0158769119
0.0159285835
0.0159715018
0.0160395485
0.0160825829
0.0161507816
0.0161902483
0.0162581036
0.0162948755
0.0163658318
0.0164030479
0.0164771456
0.0165126172
0.016587459
0.0166210503
0.0166966592
0.0167283685
0.0168048627
0.0168349761
0.0169277355
0.0169676895
0.0170733516
0.0171098621
0.0171945146
0.0172268
0.0172953553
0.0173267937
0.0173838965
0.0174151426
0.0174581329
0.0174901341
0.0175341578
0.0175603449
0.0175864709
0.0176366319
0.0176995276
0.0176794432
0.0176706278
0.0178073779
0.0180363133
0.0177452626
0.0175975748
0.0181355039
0.0184542697
0.0176305898
0.0174536703
0.0184478128
0.0186019024
0.017559115
0.0174827157
0.0184422807
0.0186033128
0.0177674967
0.0176836682
0.0182808401
0.0184608187
0.0180766603
0.017973832
0.018203719
0.0182930133
0.0181796921
0.0181902399
0.0181916802
0.0182205786
0.0181960695
0.0182086716
0.0181979811
0.0182081349
0.0182044857
0.0182118311
0.018208839
0.0182144831
0.0182121761
0.0182149964
0.0182111325
0.0182136596
0.0182107416
0.0182105668
0.0182044664
0.0182055327
0.0182020609
0.0181983165
0.0181889753
0.0181897147
0.0181860509
0.0181768057
0.0181630927
0.0181660506
0.0181638226
0.0181459412
0.0181271898
0.0181360547
0.0181364006
0.018104325
0.0180798921
0.0181009089
0.0181055028
0.0180479622
0.0180146134
0.0180657583
0.0180810057
0.0179681548
0.017920612
0.0180435329
0.0180745281
0.0178536696
0.0177887443
0.0180476516
0.0180911524
0.0176958756
0.0176226456
0.0180786067
0.0181128553
0.0175054905
0.0174468384
0.0181113284
0.01810921
0.0173216792
0.0172893735
0.0181194364
0.0180774556
0.0171731239
0.017180217
0.0180919834
0.0180343015
0.0170785678
0.0171034967
0.018039758
0.017991271
0.0170318691
0.0170436808
0.0179696645
0.0179608979
0.0170187756
0.0169945168
0.0178824787
0.0179258016
0.0170539682
0.0169670457
0.0177647815
0.0178858892
0.0171266435
0.0169474604
0.0176286427
0.0178468579
0.0172213198
0.0169343686
0.0174778688
0.0178067159
0.0173282718
0.0169300679
0.017322806
0.0177621954
0.0174323847
0.0169394305
0.0171789831
0.0177041418
0.0175272529
0.0169618417
0.0170527548
0.0176326167
0.0176036483
0.0170028781
0.0169637773
0.0175362243
0.0176306337
0.0170922237
0.016929853
0.0173896081
0.0176162466
0.0172044498
0.0169255826
0.0172351579
0.0175757078
0.0173089188
0.0169416489
0.0171008793
0.0175135675
0.0173882856
0.0169749376
0.0169970948
0.0174391234
0.0174397547
0.0170174761
0.0169368041
0.0173464847
0.01744788
0.0170825953
0.016916289
0.0172369038
0.0174256806
0.0171476563
0.0169169147
0.0171386264
0.0173850934
0.0171955639
0.016930222
0.0170625634
0.0173321434
0.017221928
0.0169498561
0.0170099955
0.0172733554
0.0172264694
0.0169705247
0.0169773095
0.0172146972
0.0172128355
0.0169873079
0.0169615908
0.0171581761
0.0171825974
0.0170013805
0.016956728
0.017105234
0.0171442017
0.0170082848
0.0169549063
0.0170601389
0.0171036624
0.0170065574
0.0169524103
0.01702281
0.0170641778
0.0169973091
0.0169473346
0.0169919388
0.0170272383
0.0169822898
0.0169388893
0.0169655877
0.0169934515
0.0169633081
0.0169270836
0.0169420323
0.0169626703
0.0169420401
0.0169124028
0.0169200155
0.0169341728
0.0169194995
0.0168955832
0.0168985703
0.0169074965
0.0168963824
0.0168771599
0.0168773613
0.01688199
0.0168730201
0.0168575643
0.0168558241
0.0168575628
0.0168496232
0.0168370401
0.016833984
0.0168337857
0.016826504
0.0168157195
0.0168119374
0.0168103204
0.0168035098
0.0167938863
0.0167896804
0.0167870138
0.0167804557
0.0167718373
0.0167672677
0.0167637683
0.0167573444
0.0167495597
0.0167446608
0.0167404717
0.0167342045
0.0167269987
0.0167218723
0.0167172528
0.0167110874
0.0167042775
0.0166989657
0.016694084
0.0166879502
0.016681428
0.0166759603
0.0166709257
0.0166647899
0.0166585122
0.0166528991
0.0166477755
0.0166416138
0.0166355568
0.0166297996
0.0166246303
0.0166184257
0.0166125825
0.0166066671
0.0166014639
0.0165951799
0.016589525
0.0165834415
0.0165782701
0.016571914
0.0165664489
0.0165602186
0.0165551207
0.0165486717
0.0165433876
0.016537013
0.016532019
0.0165254622
0.0165203574
0.0165138383
0.0165089714
0.0165022959
0.0164973722
0.0164907079
0.0164859853
0.016479184
0.0164744446
0.0164676349
0.016463069
0.0164561383
0.0164515862
0.0164446324
0.0164402309
0.01643317
0.0164288038
0.0164216839
0.0164174489
0.0164102364
0.0164060568
0.0163988024
0.0163947384
0.0163874042
0.0163834045
0.0163760268
0.0163721295
0.0163646839
0.016360854
0.0163533679
0.0163496275
0.0163420864
0.0163384126
0.0163308385
0.0163272493
0.016319665
0.016316165
0.0163085768
0.0163051633
0.0162975716
0.0162942352
0.0162866543
0.0162833841
0.0162758221
0.016272614
0.0162650823
0.0162619147
0.0162544303
0.0162513046
0.0162438698
0.0162407565
0.016233352
0.0162302542
0.0162229311
0.0162197942
0.0162126005
0.016209453
0.0162023691
0.0161991218
0.0161922324
0.016188961
0.0161821929
0.016178732
0.0161722603
0.0161687989
0.0161624061
0.0161586051
0.0161526996
0.0161490213
0.0161429972
0.0161386823
0.0161335841
0.0161297722
0.0161239146
0.016118781
0.0161150174
0.0161114162
0.0161049773
0.0160983496
0.0160973402
0.016095147
0.0160856603
0.0160755328
0.0160818589
0.0160832978
0.0160630209
0.016044209
0.0160702585
0.0160771621
0.0160327396
0.016008149
0.0160624677
0.0160725115
0.0159994372
0.0159719323
0.0160548202
0.0160673094
0.0159660523
0.0159370499
0.0160467142
0.0160611233
0.0159333659
0.0159033257
0.0160376197
0.0160556732
0.0159013784
0.0158692472
0.0160288582
0.0160495589
0.0158701425
0.0158323976
0.0160208113
0.0160448694
0.0158385263
0.0157945032
0.0160127486
0.0160418247
0.0158062943
0.0157538684
0.0160055812
0.0160405585
0.0157751289
0.015711213
0.015998412
0.0160395069
0.0157449993
0.0156694698
0.0159906934
0.016035718
0.0157148249
0.0156315816
0.0159815061
0.0160319715
0.0156847691
0.0156004034
0.0159701618
0.0160276309
0.0156561832
0.0155710655
0.0159569614
0.0160201719
0.0156283427
0.01554335
0.0159423594
0.0160096815
0.0156013203
0.0155179577
0.0159260168
0.015996859
0.0155755995
0.0154956876
0.0159076228
0.0159809188
0.0155518398
0.0154774591
0.0158876765
0.0159618523
0.0155311995
0.015463919
0.015866976
0.0159404215
0.0155116102
0.0154542846
0.0158463477
0.0159161487
0.0154946273
0.0154460074
0.0158245183
0.0158899219
0.0154826451
0.0154397124
0.0157989887
0.0158611208
0.0154808744
0.0154375561
0.0157641924
0.0158276788
0.0155005383
0.0154449199
0.0157152404
0.0157848016
0.0155445439
0.0154672222
0.0156503404
0.015724738
0.0155707411
0.0155067015
0.0155955353
0.0156523656
0.0155715092
0.0155388409
0.0155676368
0.0155914314
0.0155573063
0.0155439841
0.0155474169
0.0155547827
0.0155386703
0.0155327597
0.0155283629
0.015529648
0.015519312
0.0155161068
0.0155096376
0.0155085337
0.0155004077
0.0154977482
0.0154910234
0.015489002
0.0154817101
0.0154793155
0.0154723976
0.0154702001
0.0154631621
0.0154608477
0.0154538848
0.0154516221
0.0154446581
0.0154423436
0.0154354797
0.0154331579
0.0154263585
0.0154240072
0.0154172876
0.0154149197
0.0154082703
0.0154058816
0.0153993047
0.0153969002
0.0153903925
0.0153879726
0.0153815337
0.0153791008
0.0153727293
0.0153702844
0.0153639797
0.0153615241
0.0153552854
0.0153528197
0.0153466467
0.0153441713
0.0153380636
0.0153355787
0.0153295361
0.0153270415
0.0153210638
0.0153185593
0.0153126463
0.0153101313
0.0153042827
0.0153017569
0.0152959724
0.015293435
0.0152877141
0.0152851647
0.0152794776
0.0152769063
0.0152711978
0.0152686076
0.0152629624
0.0152603527
0.0152547696
0.01525214
0.0152466177
0.0152439678
0.0152384406
0.0152356819
0.0152301135
0.0152273229
0.0152218188
0.0152189969
0.0152135553
0.0152107026
0.0152053218
0.0152024389
0.0151971172
0.0151942048
0.0151889405
0.0151859993
0.0151807908
0.0151778218
0.0151726676
0.0151696717
0.0151645702
0.0151615485
0.0151564983
0.015153452
0.0151484517
0.0151453822
0.0151404306
0.0151373393
0.0151324349
0.0151293236
0.0151244652
0.0151213357
0.0151165221
0.0151133762
0.0151086062
0.0151054462
0.0151006885
0.0150974831
0.0150926998
0.015089481
0.0150847384
0.0150815091
0.015076806
0.015073569
0.0150689043
0.0150656626
0.0150610354
0.0150577918
0.0150532012
0.0150499589
0.015045404
0.0150421662
0.0150376462
0.0150344159
0.0150299302
0.0150267105
0.0150222585
0.0150190526
0.0150146336
0.0150114447
0.0150070583
0.0150038893
0.0149995351
0.0149963891
0.0149920666
0.0149889465
0.0149846554
0.0149815641
0.014977304
0.014974244
0.0149700148
0.0149669884
0.0149627904
0.0149597985
0.0149556333
0.014952676
0.014948484
0.014945519
0.014941317
0.0149384006
0.0149342221
0.0149313503
0.0149272019
0.0149243737
0.014920259
0.0149174756
0.0149133948
0.0149106571
0.0149066103
0.0149039186
0.0148999062
0.0148972606
0.0148932833
0.0148906837
0.0148867421
0.0148841883
0.014880283
0.0148777745
0.0148739061
0.0148714425
0.0148676114
0.014865192
0.0148613989
0.014859023
0.0148552683
0.0148529351
0.0148492192
0.014846928
0.0148432511
0.0148410011
0.0148373635
0.0148351541
0.0148315559
0.0148293863
0.0148258275
0.0148236971
0.0148201538
0.0148180276
0.0148144269
0.0148123369
0.0148087809
0.0148067268
0.0148032155
0.0148011972
0.0147977304
0.0147957479
0.0147923253
0.0147903787
0.0147870003
0.0147850896
0.0147817552
0.0147798808
0.0147765902
0.0147747524
0.0147715056
0.0147697048
0.0147665016
0.0147647383
0.0147615787
0.0147598535
0.0147567376
0.0147550511
0.0147519788
0.0147503317
0.0147473031
0.0147456962
0.0147427113
0.0147411453
0.0147382043
0.0147366799
0.014733783
0.014732301
0.0147294482
0.0147280094
0.014725201
0.0147238062
0.0147210422
0.0147196921
0.014716973
0.0147156681
0.014712994
0.014711735
0.0147091063
0.0147078936
0.0147053106
0.0147041446
0.0147016074
0.0147004884
0.0146979143
0.0146968369
0.0146942603
0.0146932299
0.0146907128
0.0146897287
0.0146872704
0.0146863328
0.0146839334
0.014683042
0.0146807015
0.014679856
0.0146775745
0.0146767743
0.0146745521
0.0146737964
0.0146716338
0.0146709218
0.014668819
0.0146681496
0.014666107
0.014665479
0.014663497
0.0146629092
0.0146609882
0.0146604392
0.0146585796
0.0146580681
0.0146562702
0.0146557948
0.0146540592
0.0146536185
0.0146519455
0.014651538
0.0146499282
0.0146495525
0.0146480065
0.0146476612
0.0146461795
0.0146458596
0.0146444406
0.0146441453
0.014642792
0.0146425235
0.014641237
0.0146409941
0.0146397755
0.0146395574
0.014638408
0.0146382141
0.0146371355
0.0146369653
0.0146359594
0.0146358129
0.0146348819
0.0146347594
0.014633906
0.0146338083
0.0146330356
0.0146329644
0.014632276
0.0146322337
0.014631634
0.0146316241
0.0146311181
0.0146311456
0.0146307444
0.014630821
0.0146305104
0.0146306644
0.0146304333
0.0146306948
0.0146305342
0.0146309358
0.0146308365
0.0146314199
0.0146313711
0.0146321811
0.0146321656
0.0146332824
0.0146332846
0.0146347407
0.0146347252
0.0146367317
0.0146366402
0.0146391325
0.0146389115
0.0146425377
0.0146420414
0.0146454935
0.0146447347
0.0146509961
0.0146495055
0.014653749
0.0146518694
0.0146649945
0.0146608785
0.0146632646
0.0146594148
0.0146907578
0.0146798137
0.0146673356
0.0146636
0.0147335354
0.0147131651
0.0146545912
0.0146567471
0.0147838669
0.0147590907
0.0146243728
0.0146360583
0.0148255656
0.0147987338
0.0146028689
0.0146101092
0.0148610457
0.0148289567
0.0145924493
0.0145977296
0.0148892763
0.0148522561
0.0145852541
0.0145910269
0.0149140143
0.0148700051
0.0145800936
0.0145859059
0.0149346794
0.0148810617
0.0145757939
0.014582014
0.0149519837
0.0148873353
0.0145721522
0.0145797903
0.014966201
0.0148890534
0.0145693604
0.0145792163
0.0149777736
0.0148872441
0.0145672956
0.0145797815
0.0149868913
0.0148826878
0.0145662527
0.0145812201
0.0149940469
0.0148764315
0.0145658372
0.0145832647
0.0149995516
0.0148691965
0.0145658668
0.0145853376
0.0150037153
0.0148618787
0.0145662656
0.014587639
0.0150068326
0.0148550946
0.0145669042
0.0145900266
0.0150089131
0.014849157
0.0145673186
0.0145923461
0.0150105549
0.0148442667
0.0145679979
0.01459448
0.0150120148
0.0148405816
0.0145688249
0.0145965683
0.0150133889
0.0148380089
0.0145697599
0.0145987462
0.015014761
0.0148364659
0.0145707548
0.0146011028
0.0150161485
0.0148359153
0.0145717919
0.0146034739
0.0150175463
0.0148361873
0.0145728664
0.014605836
0.015018938
0.0148371615
0.0145739845
0.0146081647
0.0150202951
0.0148387196
0.0145751676
0.0146104349
0.0150215743
0.0148407393
0.0145764354
0.0146126554
0.0150227275
0.0148432285
0.014577761
0.0146149788
0.0150237662
0.0148460348
0.0145792224
0.0146172709
0.0150247223
0.0148490007
0.0145808473
0.0146195848
0.015025628
0.0148520142
0.0145824928
0.0146219634
0.0150267041
0.0148548474
0.0145839098
0.0146244613
0.0150282356
0.0148573753
0.0145849954
0.0146270844
0.01503029
0.0148595478
0.0145860031
0.0146298946
0.0150323434
0.014861702
0.0145870418
0.0146335187
0.015033744
0.0148633448
0.0145883476
0.0146372112
0.0150350896
0.0148647038
0.0145897208
0.0146408174
0.0150366697
0.0148659008
0.0145911032
0.0146443467
0.0150384784
0.0148669889
0.0145924902
0.0146478035
0.015040489
0.014868003
0.0145938818
0.0146511775
0.0150426721
0.0148689813
0.0145952849
0.0146544496
0.0150450002
0.0148699691
0.0145967051
0.0146576007
0.0150474506
0.014871004
0.014598146
0.0146606429
0.0150499714
0.0148721115
0.0145996101
0.0146636418
0.015052347
0.0148731995
0.0146015066
0.0146673317
0.0150523781
0.0148735173
0.0146059473
0.0146705031
0.0150550819
0.0148748185
0.0146076226
0.014673102
0.0150578149
0.0148765576
0.0146091962
0.014675398
0.0150601989
0.014878527
0.0146107658
0.0146774325
0.0150628112
0.0148806429
0.0146123538
0.0146792417
0.0150655542
0.0148830181
0.0146137864
0.0146809614
0.015067907
0.014885524
0.0146154947
0.0146824055
0.0150701631
0.0148884799
0.0146168329
0.0146835458
0.0150729394
0.0148915088
0.0146183121
0.0146842446
0.0150756997
0.014895723
0.0146169949
0.0146844804
0.0150797991
0.0148992745
0.0146184699
0.0146851219
0.0150815191
0.0149030678
0.0146202293
0.0146855272
0.0150829174
0.0149070554
0.0146220017
0.0146857982
0.0150840668
0.0149112007
0.014623821
0.0146859582
0.0150849699
0.0149154713
0.0146256851
0.0146860205
0.0150856164
0.0149198464
0.0146275884
0.01468596
0.0150860067
0.0149243436
0.0146295236
0.0146856978
0.0150861514
0.014928992
0.0146314681
0.0146853629
0.0150860636
0.0149337007
0.0146333857
0.0146850449
0.0150857607
0.0149383749
0.0146352617
0.0146847629
0.0150852491
0.0149429628
0.0146371038
0.0146845562
0.0150845873
0.0149473152
0.0146388979
0.014684374
0.0150839621
0.0149513572
0.0146406121
0.0146842632
0.0150834068
0.0149550354
0.0146422333
0.0146843221
0.0150829085
0.0149583142
0.0146437757
0.0146844289
0.0150825056
0.0149612881
0.0146452548
0.014684559
0.0150821306
0.0149639899
0.0146467455
0.0146846925
0.0150816849
0.0149664427
0.0146483487
0.0146847864
0.0150811193
0.0149686296
0.0146499907
0.0146848836
0.015080544
0.0149704871
0.0146516623
0.0146850265
0.0150799275
0.0149721035
0.0146533382
0.014685234
0.0150792197
0.0149734935
0.0146549275
0.0146854689
0.0150785646
0.0149746462
0.014656302
0.0146857255
0.0150780553
0.0149755854
0.0146574578
0.0146859888
0.0150776605
0.0149763529
0.0146584282
0.0146862429
0.0150773541
0.0149769808
0.0146592285
0.0146864762
0.0150771214
0.0149774959
0.0146598679
0.0146866787
0.0150769516
0.0149779247
0.0146603536
0.0146868365
0.0150768353
0.0149782893
0.0146606921
0.0146869413
0.0150767646
0.0149786033
0.0146608891
0.0146869921
0.0150767323
0.0149788808
0.0146609507
0.0146869866
0.0150767314
0.0149791348
0.014660883
0.01468692
0.0150767552
0.0149793768
0.0146606921
0.014686788
0.0150767973
0.0149796146
0.0146603841
0.0146865869
0.0150768519
0.014979853
0.0146599648
0.0146863146
0.015076914
0.0149800931
0.0146594393
0.0146859698
0.0150769794
0.0149803334
0.0146588122
0.0146855519
0.0150770443
0.0149805704
0.0146580875
0.0146850608
0.0150771059
0.0149808
0.0146572692
0.0146844966
0.0150771608
0.0149810177
0.0146563623
0.0146838595