/*--------------------------------*- C++ -*----------------------------------*\
| =========                 |                                                 |
| \\      /  F ield         | OpenFOAM: The Open Source CFD Toolbox           |
|  \\    /   O peration     | Version:  2306                                  |
|   \\  /    A nd           | Website:  www.openfoam.com                      |
|    \\/     M anipulation  |                                                 |
\*---------------------------------------------------------------------------*/
FoamFile
{
    version     2.0;
    format      ascii;
    arch        "LSB;label=32;scalar=64";
    class       volScalarField;
    location    "0.00044";
    object      prefDPV_H2O;
}
// * * * * * * * * * * * * * * * * * * * * * * * * * * * * * * * * * * * * * //

dimensions      [1 -1 -1 0 0 0 0];

internalField   nonuniform List<scalar> 
531
(
-3.84297998e-07
-3.71605448e-07
-3.64250698e-07
-3.64158886e-07
-3.85849789e-07
-3.84222779e-07
-3.67093639e-07
-3.65397317e-07
-3.86591787e-07
-3.84258471e-07
-3.72901363e-07
-3.64370723e-07
-3.64332977e-07
-3.86311558e-07
-3.84367103e-07
-3.73590286e-07
-3.64443365e-07
-3.64358444e-07
-3.85845123e-07
-3.84253167e-07
-3.67795822e-07
-3.65304948e-07
-3.82289533e-07
-3.84424165e-07
-3.75250983e-07
-3.64450713e-07
-3.64390019e-07
-3.8614872e-07
-3.84315533e-07
-3.73460212e-07
-3.64685168e-07
-3.64679474e-07
-3.8522838e-07
-3.84202313e-07
-3.68866047e-07
-3.6542888e-07
-3.77510458e-07
-3.84406264e-07
-3.77622877e-07
-3.6460158e-07
-3.64475589e-07
-3.82197642e-07
-3.84436607e-07
-3.74957871e-07
-3.64543926e-07
-3.64622647e-07
-3.85717676e-07
-3.84195506e-07
-3.69732089e-07
-3.65535442e-07
-3.74699527e-07
-3.84320419e-07
-3.79656365e-07
-3.64983026e-07
-3.64593289e-07
-3.80310713e-07
-3.84411602e-07
-3.75891094e-07
-3.64546952e-07
-3.64721087e-07
-3.8534716e-07
-3.84269859e-07
-3.6953797e-07
-3.65413901e-07
-3.73191043e-07
-3.84280238e-07
-3.81791507e-07
-3.65336876e-07
-3.64533537e-07
-3.75471381e-07
-3.84493874e-07
-3.79352108e-07
-3.64885746e-07
-3.64839316e-07
-3.87051909e-07
-3.84479477e-07
-3.68661117e-07
-3.65110476e-07
-3.75474014e-07
-3.84474249e-07
-3.74360817e-07
-3.65397294e-07
-3.70853073e-07
-3.84531674e-07
-3.81626679e-07
-3.64794506e-07
-3.64476721e-07
-3.82965521e-07
-3.8453078e-07
-3.7067119e-07
-3.65223778e-07
-3.71626799e-07
-3.84590028e-07
-3.82102594e-07
-3.64749918e-07
-3.64811774e-07
-3.85385874e-07
-3.84721021e-07
-3.67733176e-07
-3.64738464e-07
-3.72314783e-07
-3.84454558e-07
-3.79945824e-07
-3.65669084e-07
-3.68892912e-07
-3.84347288e-07
-3.85515985e-07
-3.6561768e-07
-3.64499011e-07
-3.72719728e-07
-3.84253826e-07
-3.80901614e-07
-3.66264281e-07
-3.6986541e-07
-3.84059003e-07
-3.86724448e-07
-3.66547255e-07
-3.65790523e-07
-3.65402389e-07
-3.65103922e-07
-3.75328619e-07
-3.84111451e-07
-3.79686741e-07
-3.66315156e-07
-3.70353853e-07
-3.84237057e-07
-3.85046772e-07
-3.65858567e-07
-3.64548354e-07
-3.72521671e-07
-3.84486986e-07
-3.78679912e-07
-3.65876373e-07
-3.70700309e-07
-3.84473526e-07
-3.81906566e-07
-3.65404084e-07
-3.64237949e-07
-3.72647622e-07
-3.84551939e-07
-3.77039754e-07
-3.65921087e-07
-3.719611e-07
-3.84452259e-07
-3.81703773e-07
-3.65678758e-07
-3.64762e-07
-3.75227804e-07
-3.84555479e-07
-3.78905744e-07
-3.65452013e-07
-3.64501863e-07
-3.73725475e-07
-3.84632554e-07
-3.75019131e-07
-3.65513946e-07
-3.73684079e-07
-3.84569233e-07
-3.73552346e-07
-3.65346306e-07
-3.73762161e-07
-3.84620638e-07
-3.79978714e-07
-3.65535469e-07
-3.64762461e-07
-3.76076333e-07
-3.84490907e-07
-3.72633205e-07
-3.65761201e-07
-3.77738878e-07
-3.84555954e-07
-3.74725483e-07
-3.64614052e-07
-3.64205821e-07
-3.77588318e-07
-3.84452559e-07
-3.71330085e-07
-3.65917758e-07
-3.80934392e-07
-3.84405929e-07
-3.73787182e-07
-3.6469906e-07
-3.64440067e-07
-3.80076292e-07
-3.8429945e-07
-3.70294569e-07
-3.65900146e-07
-3.83350092e-07
-3.84305591e-07
-3.72914871e-07
-3.64680332e-07
-3.64504705e-07
-3.82090908e-07
-3.84161882e-07
-3.69932489e-07
-3.66034412e-07
-3.84733113e-07
-3.84160985e-07
-3.72984013e-07
-3.65033863e-07
-3.64873574e-07
-3.84883054e-07
-3.84025597e-07
-3.72284979e-07
-3.65813209e-07
-3.64982497e-07
-3.64795703e-07
-3.85175725e-07
-3.83928557e-07
-3.70050122e-07
-3.66270727e-07
-3.85345765e-07
-3.84038407e-07
-3.72742196e-07
-3.65090367e-07
-3.6496292e-07
-3.86264026e-07
-3.84163127e-07
-3.72510833e-07
-3.64737819e-07
-3.64539078e-07
-3.85529327e-07
-3.83974929e-07
-3.69266048e-07
-3.65779233e-07
-3.84512863e-07
-3.84179365e-07
-3.71723763e-07
-3.64817471e-07
-3.6466971e-07
-3.86028169e-07
-3.84230612e-07
-3.71872376e-07
-3.64686561e-07
-3.64484853e-07
-3.85395456e-07
-3.84073876e-07
-3.68610715e-07
-3.65261181e-07
-3.82694845e-07
-3.84246876e-07
-3.68312371e-07
-3.65044646e-07
-3.82222389e-07
-3.84314048e-07
-3.68334736e-07
-3.65409802e-07
-3.83101467e-07
-3.8448376e-07
-3.7058284e-07
-3.64233255e-07
-3.64028754e-07
-3.85159389e-07
-3.84227394e-07
-3.68368653e-07
-3.65222258e-07
-3.82529851e-07
-3.84289716e-07
-3.68515733e-07
-3.65592769e-07
-3.83368616e-07
-3.84447815e-07
-3.70574092e-07
-3.64298085e-07
-3.64149651e-07
-3.85876645e-07
-3.84236356e-07
-3.68263792e-07
-3.65175294e-07
-3.82608088e-07
-3.84369016e-07
-3.68200104e-07
-3.65230142e-07
-3.82427305e-07
-3.84423482e-07
-3.68367477e-07
-3.65110977e-07
-3.74218303e-07
-3.8466296e-07
-3.84312906e-07
-3.70910451e-07
-3.65163974e-07
-3.64726372e-07
-3.64639374e-07
-3.75253808e-07
-3.84546089e-07
-3.84247326e-07
-3.71701392e-07
-3.64791434e-07
-3.65098868e-07
-3.86234325e-07
-3.84001941e-07
-3.72024634e-07
-3.65045973e-07
-3.65358458e-07
-3.86006248e-07
-3.84019267e-07
-3.71531469e-07
-3.64793977e-07
-3.64844227e-07
-3.86235781e-07
-3.84043795e-07
-3.67694992e-07
-3.65492397e-07
-3.85398156e-07
-3.84225946e-07
-3.70961089e-07
-3.64745797e-07
-3.64954835e-07
-3.86208396e-07
-3.84084392e-07
-3.67118841e-07
-3.65122627e-07
-3.85518288e-07
-3.84183981e-07
-3.7218622e-07
-3.65208338e-07
-3.65652688e-07
-3.85682271e-07
-3.84097203e-07
-3.69936839e-07
-3.63945687e-07
-3.63788455e-07
-3.86902822e-07
-3.8416906e-07
-3.72858255e-07
-3.65568721e-07
-3.66583283e-07
-3.85248293e-07
-3.83787279e-07
-3.69775448e-07
-3.64955198e-07
-3.6682496e-07
-3.85339712e-07
-3.83765968e-07
-3.68605243e-07
-3.64983312e-07
-3.68404643e-07
-3.85076401e-07
-3.83786842e-07
-3.68810095e-07
-3.65153651e-07
-3.64928854e-07
-3.6586862e-07
-3.85507119e-07
-3.83951301e-07
-3.66719075e-07
-3.65316345e-07
-3.86864326e-07
-3.84032789e-07
-3.7227638e-07
-3.65483344e-07
-3.66370205e-07
-3.85134018e-07
-3.8394454e-07
-3.68197867e-07
-3.64270002e-07
-3.65691226e-07
-3.8541793e-07
-3.83899529e-07
-3.66815507e-07
-3.65602243e-07
-3.86298997e-07
-3.84163587e-07
-3.67441297e-07
-3.64186862e-07
-3.65681329e-07
-3.85304265e-07
-3.83855064e-07
-3.66765046e-07
-3.65749322e-07
-3.85922591e-07
-3.84119298e-07
-3.67230638e-07
-3.64166353e-07
-3.65608035e-07
-3.8516282e-07
-3.83867623e-07
-3.66555242e-07
-3.65745667e-07
-3.85567256e-07
-3.84126581e-07
-3.66977668e-07
-3.64046833e-07
-3.65487359e-07
-3.85016588e-07
-3.83847129e-07
-3.66498782e-07
-3.65934728e-07
-3.85146831e-07
-3.84096851e-07
-3.66618341e-07
-3.63887223e-07
-3.65396605e-07
-3.85013401e-07
-3.84021421e-07
-3.6587022e-07
-3.65220372e-07
-3.85303751e-07
-3.84200403e-07
-3.65459711e-07
-3.64924607e-07
-3.85251396e-07
-3.84313164e-07
-3.65188791e-07
-3.64768298e-07
-3.85134683e-07
-3.84392297e-07
-3.64829548e-07
-3.64519778e-07
-3.84969646e-07
-3.84361224e-07
-3.64909092e-07
-3.64753995e-07
-3.84682993e-07
-3.84294714e-07
-3.64954347e-07
-3.64917351e-07
-3.8441768e-07
-3.84273688e-07
-3.65171598e-07
-3.6553323e-07
-3.84005157e-07
-3.84347492e-07
-3.65870778e-07
-3.63689804e-07
-3.65964195e-07
-3.84537954e-07
-3.84383104e-07
-3.64921866e-07
-3.65254626e-07
-3.84203006e-07
-3.8462669e-07
-3.65002881e-07
-3.65445456e-07
-3.84073942e-07
-3.84689499e-07
-3.65253684e-07
-3.66097581e-07
-3.83849191e-07
-3.8458797e-07
-3.65756898e-07
-3.63824854e-07
-3.6635767e-07
-3.843763e-07
-3.84729913e-07
-3.65548674e-07
-3.66631469e-07
-3.83804081e-07
-3.84524004e-07
-3.66109287e-07
-3.64290132e-07
-3.6758401e-07
-3.84142557e-07
-3.8450069e-07
-3.66055137e-07
-3.64105639e-07
-3.66866902e-07
-3.8446216e-07
-3.85136856e-07
-3.6540342e-07
-3.66292661e-07
-3.84153849e-07
-3.85328924e-07
-3.65546821e-07
-3.66777637e-07
-3.83983497e-07
-3.8485124e-07
-3.65694659e-07
-3.63790698e-07
-3.66541295e-07
-3.84692502e-07
-3.85439785e-07
-3.65170228e-07
-3.66177447e-07
-3.8437186e-07
-3.85640663e-07
-3.65372945e-07
-3.6638343e-07
-3.84267449e-07
-3.85537055e-07
-3.65745934e-07
-3.66974913e-07
-3.83977399e-07
-3.84408431e-07
-3.67686448e-07
-3.65134171e-07
-3.6493209e-07
-3.67861654e-07
-3.84277946e-07
-3.84517119e-07
-3.66089081e-07
-3.64468974e-07
-3.71456405e-07
-3.84876384e-07
-3.76898138e-07
-3.65375162e-07
-3.68928086e-07
-3.84143401e-07
-3.84250501e-07
-3.66619426e-07
-3.64459885e-07
-3.71405287e-07
-3.85052755e-07
-3.73523729e-07
-3.6516319e-07
-3.74831925e-07
-3.84863619e-07
-3.71181832e-07
-3.65505859e-07
-3.75843446e-07
-3.84705633e-07
-3.75448578e-07
-3.65085775e-07
-3.66673165e-07
-3.8503129e-07
-3.84844656e-07
-3.6521232e-07
-3.64867659e-07
-3.86336909e-07
-3.84603255e-07
-3.71869117e-07
-3.6413709e-07
-3.64257915e-07
-3.8572163e-07
-3.85044992e-07
-3.65908561e-07
-3.65347225e-07
-3.86125781e-07
-3.84715041e-07
-3.66123958e-07
)
;

boundaryField
{
    closed
    {
        type            calculated;
        value           nonuniform List<scalar> 0();
    }
    open
    {
        type            calculated;
        value           nonuniform List<scalar> 0();
    }
    sides
    {
        type            empty;
    }
    procBoundary1to0
    {
        type            processor;
        value           uniform -3.86640397e-07;
    }
    procBoundary1to2
    {
        type            processor;
        value           uniform -3.65509452e-07;
    }
}


// ************************************************************************* //
