/*--------------------------------*- C++ -*----------------------------------*\
| =========                 |                                                 |
| \\      /  F ield         | OpenFOAM: The Open Source CFD Toolbox           |
|  \\    /   O peration     | Version:  2306                                  |
|   \\  /    A nd           | Website:  www.openfoam.com                      |
|    \\/     M anipulation  |                                                 |
\*---------------------------------------------------------------------------*/
FoamFile
{
    version     2.0;
    format      ascii;
    arch        "LSB;label=32;scalar=64";
    class       volScalarField;
    location    "0.00044";
    object      prefDZ_H2O;
}
// * * * * * * * * * * * * * * * * * * * * * * * * * * * * * * * * * * * * * //

dimensions      [1 -1 -1 0 0 0 0];

internalField   nonuniform List<scalar> 
531
(
-7.74721706e-07
-7.49134287e-07
-7.34307553e-07
-7.34122464e-07
-7.77850023e-07
-7.7457007e-07
-7.4003875e-07
-7.36619068e-07
-7.79345847e-07
-7.74642021e-07
-7.51746774e-07
-7.34549516e-07
-7.34473422e-07
-7.78780921e-07
-7.74861017e-07
-7.53135601e-07
-7.34695958e-07
-7.34524761e-07
-7.77840617e-07
-7.7463133e-07
-7.41454309e-07
-7.36432856e-07
-7.70672761e-07
-7.7497605e-07
-7.56483466e-07
-7.3471077e-07
-7.34588414e-07
-7.7845265e-07
-7.74757056e-07
-7.52873379e-07
-7.35183417e-07
-7.35171939e-07
-7.76597301e-07
-7.74528812e-07
-7.43611818e-07
-7.36682697e-07
-7.61038432e-07
-7.74939963e-07
-7.61265062e-07
-7.35014909e-07
-7.34760919e-07
-7.70487515e-07
-7.75001134e-07
-7.55892571e-07
-7.34898682e-07
-7.35057379e-07
-7.77583692e-07
-7.74515089e-07
-7.45357707e-07
-7.3689752e-07
-7.55371765e-07
-7.74766905e-07
-7.65364452e-07
-7.35783882e-07
-7.34998194e-07
-7.66683579e-07
-7.74950725e-07
-7.57773892e-07
-7.34904782e-07
-7.35255828e-07
-7.76836755e-07
-7.74664981e-07
-7.44966376e-07
-7.36652499e-07
-7.52330752e-07
-7.74685904e-07
-7.69668771e-07
-7.36497223e-07
-7.34877739e-07
-7.56927776e-07
-7.75116581e-07
-7.64751088e-07
-7.3558777e-07
-7.35494171e-07
-7.80273426e-07
-7.75087557e-07
-7.43198693e-07
-7.36040813e-07
-7.56933083e-07
-7.75077018e-07
-7.54688945e-07
-7.36619021e-07
-7.47617545e-07
-7.75192784e-07
-7.69336487e-07
-7.35403836e-07
-7.347632e-07
-7.72035513e-07
-7.75190981e-07
-7.47250878e-07
-7.36269222e-07
-7.49177329e-07
-7.75310422e-07
-7.70295904e-07
-7.35313949e-07
-7.35438647e-07
-7.76914799e-07
-7.75574495e-07
-7.41328018e-07
-7.35290859e-07
-7.50564265e-07
-7.75037322e-07
-7.65947985e-07
-7.37166933e-07
-7.43665976e-07
-7.74821072e-07
-7.77177096e-07
-7.37063306e-07
-7.34808136e-07
-7.51380609e-07
-7.74632658e-07
-7.678748e-07
-7.38366814e-07
-7.45626475e-07
-7.74239906e-07
-7.79613283e-07
-7.38937273e-07
-7.37411748e-07
-7.36629293e-07
-7.360276e-07
-7.56639976e-07
-7.74345639e-07
-7.65425689e-07
-7.38469375e-07
-7.46611146e-07
-7.74598853e-07
-7.7623119e-07
-7.3754892e-07
-7.34907609e-07
-7.50981338e-07
-7.75102694e-07
-7.63395982e-07
-7.37584816e-07
-7.4730958e-07
-7.75075561e-07
-7.69900724e-07
-7.3663271e-07
-7.34281851e-07
-7.51235247e-07
-7.75233635e-07
-7.60089522e-07
-7.37674956e-07
-7.49851259e-07
-7.75032688e-07
-7.69491905e-07
-7.37186435e-07
-7.35338306e-07
-7.56436739e-07
-7.75240772e-07
-7.63851246e-07
-7.3672933e-07
-7.34813886e-07
-7.53408134e-07
-7.75396151e-07
-7.56016067e-07
-7.36854184e-07
-7.53324682e-07
-7.75268501e-07
-7.53059116e-07
-7.36516233e-07
-7.53482091e-07
-7.75372129e-07
-7.66014289e-07
-7.36897574e-07
-7.35339236e-07
-7.58147323e-07
-7.75110599e-07
-7.51206184e-07
-7.37352637e-07
-7.61498913e-07
-7.7524173e-07
-7.55424091e-07
-7.35040051e-07
-7.34217083e-07
-7.61195394e-07
-7.75033293e-07
-7.48579171e-07
-7.37668245e-07
-7.67940879e-07
-7.74939289e-07
-7.53532532e-07
-7.35211423e-07
-7.3468931e-07
-7.66211001e-07
-7.74724634e-07
-7.46491633e-07
-7.3763274e-07
-7.72810784e-07
-7.74737014e-07
-7.51774005e-07
-7.35173668e-07
-7.34819614e-07
-7.70272345e-07
-7.74447304e-07
-7.45761702e-07
-7.37903413e-07
-7.75598871e-07
-7.74445495e-07
-7.51913391e-07
-7.35886365e-07
-7.35563232e-07
-7.75901145e-07
-7.74172563e-07
-7.50504181e-07
-7.3745748e-07
-7.35782815e-07
-7.35406249e-07
-7.7649115e-07
-7.73976936e-07
-7.45998842e-07
-7.38379809e-07
-7.76833942e-07
-7.74198387e-07
-7.51425902e-07
-7.36000274e-07
-7.35743348e-07
-7.78685101e-07
-7.74449815e-07
-7.50959488e-07
-7.3528956e-07
-7.3488891e-07
-7.77203991e-07
-7.74070419e-07
-7.44418197e-07
-7.37388988e-07
-7.75154861e-07
-7.7448255e-07
-7.49372804e-07
-7.35450132e-07
-7.35152255e-07
-7.78209627e-07
-7.74585859e-07
-7.49672398e-07
-7.35186226e-07
-7.34779595e-07
-7.76934116e-07
-7.7426989e-07
-7.43097085e-07
-7.36344625e-07
-7.71489846e-07
-7.74618648e-07
-7.42495641e-07
-7.35908103e-07
-7.70537402e-07
-7.74754062e-07
-7.42540728e-07
-7.36644237e-07
-7.72309571e-07
-7.75096191e-07
-7.4707277e-07
-7.34272388e-07
-7.33860126e-07
-7.76458219e-07
-7.74579372e-07
-7.42609103e-07
-7.36266158e-07
-7.71157228e-07
-7.74705011e-07
-7.42905607e-07
-7.37013086e-07
-7.72848128e-07
-7.75023729e-07
-7.47055135e-07
-7.34403082e-07
-7.34103848e-07
-7.77904163e-07
-7.74597439e-07
-7.42397708e-07
-7.36171483e-07
-7.71314948e-07
-7.74864875e-07
-7.42269318e-07
-7.36282053e-07
-7.70950501e-07
-7.74974674e-07
-7.42606731e-07
-7.36041823e-07
-7.54401645e-07
-7.75457447e-07
-7.74751759e-07
-7.47733215e-07
-7.36148663e-07
-7.35266481e-07
-7.35091099e-07
-7.56489162e-07
-7.75221843e-07
-7.74619554e-07
-7.49327704e-07
-7.35397644e-07
-7.36017412e-07
-7.78625224e-07
-7.74124874e-07
-7.4997934e-07
-7.35910779e-07
-7.3654073e-07
-7.78165436e-07
-7.74159801e-07
-7.48985149e-07
-7.3540277e-07
-7.35504071e-07
-7.7862816e-07
-7.74209248e-07
-7.41251043e-07
-7.36810743e-07
-7.76939558e-07
-7.74576453e-07
-7.47835297e-07
-7.35305642e-07
-7.35727049e-07
-7.78572955e-07
-7.7429109e-07
-7.40089557e-07
-7.36065309e-07
-7.77181737e-07
-7.74491854e-07
-7.50305089e-07
-7.36238096e-07
-7.37133879e-07
-7.77512318e-07
-7.74316916e-07
-7.45770472e-07
-7.33692669e-07
-7.33375697e-07
-7.79972874e-07
-7.74461775e-07
-7.5165987e-07
-7.36964607e-07
-7.39009904e-07
-7.76637444e-07
-7.73692127e-07
-7.45445117e-07
-7.35727782e-07
-7.3949711e-07
-7.76821739e-07
-7.73649166e-07
-7.43086053e-07
-7.35784458e-07
-7.42681656e-07
-7.7629092e-07
-7.73691245e-07
-7.43499024e-07
-7.36127852e-07
-7.35674674e-07
-7.37569185e-07
-7.77159222e-07
-7.74022787e-07
-7.39283652e-07
-7.36455833e-07
-7.79895269e-07
-7.74187061e-07
-7.50486846e-07
-7.36792492e-07
-7.38580351e-07
-7.76407072e-07
-7.74009155e-07
-7.42264808e-07
-7.34346469e-07
-7.3721157e-07
-7.76979421e-07
-7.73918417e-07
-7.39478053e-07
-7.37032186e-07
-7.78755599e-07
-7.74450743e-07
-7.40739608e-07
-7.34178862e-07
-7.37191617e-07
-7.76750281e-07
-7.73828777e-07
-7.39376326e-07
-7.37328688e-07
-7.77996789e-07
-7.74361458e-07
-7.40314933e-07
-7.34137517e-07
-7.37043862e-07
-7.76465135e-07
-7.73854097e-07
-7.38953375e-07
-7.3732132e-07
-7.77280454e-07
-7.74376139e-07
-7.39804961e-07
-7.33896573e-07
-7.36800587e-07
-7.76170341e-07
-7.7381278e-07
-7.38839555e-07
-7.37702456e-07
-7.76432902e-07
-7.74316206e-07
-7.39080579e-07
-7.33574808e-07
-7.36617631e-07
-7.76163915e-07
-7.74164144e-07
-7.37572412e-07
-7.36262357e-07
-7.76749244e-07
-7.74524961e-07
-7.3674485e-07
-7.35666112e-07
-7.76643698e-07
-7.7475228e-07
-7.36198692e-07
-7.35351003e-07
-7.76408412e-07
-7.74911807e-07
-7.35474479e-07
-7.34850002e-07
-7.76075707e-07
-7.74849167e-07
-7.35634835e-07
-7.35322169e-07
-7.75497832e-07
-7.74715085e-07
-7.35726065e-07
-7.35651485e-07
-7.74962979e-07
-7.74672699e-07
-7.36164031e-07
-7.3689306e-07
-7.74131356e-07
-7.74821484e-07
-7.37573537e-07
-7.33176823e-07
-7.37761858e-07
-7.75205443e-07
-7.74893276e-07
-7.35660587e-07
-7.36331411e-07
-7.74530209e-07
-7.75384329e-07
-7.35823909e-07
-7.36716113e-07
-7.74270024e-07
-7.75510948e-07
-7.36329512e-07
-7.38030758e-07
-7.73816938e-07
-7.75306273e-07
-7.37343961e-07
-7.33449076e-07
-7.38555081e-07
-7.74879558e-07
-7.7559242e-07
-7.36924194e-07
-7.39107044e-07
-7.73726e-07
-7.7517732e-07
-7.38054356e-07
-7.34387048e-07
-7.41027309e-07
-7.74408347e-07
-7.75130321e-07
-7.37945192e-07
-7.34015123e-07
-7.39581662e-07
-7.75052646e-07
-7.76412794e-07
-7.36631371e-07
-7.38424027e-07
-7.7443111e-07
-7.76799991e-07
-7.36920459e-07
-7.39401709e-07
-7.74087691e-07
-7.75837008e-07
-7.3721849e-07
-7.33380221e-07
-7.38925258e-07
-7.75517003e-07
-7.77023481e-07
-7.36161269e-07
-7.38191763e-07
-7.74870608e-07
-7.77428438e-07
-7.36569936e-07
-7.38607013e-07
-7.7466012e-07
-7.77219571e-07
-7.37321858e-07
-7.39799405e-07
-7.74075397e-07
-7.74944332e-07
-7.41233819e-07
-7.3608858e-07
-7.35681198e-07
-7.41587022e-07
-7.74681282e-07
-7.7516344e-07
-7.38013621e-07
-7.34747584e-07
-7.48833826e-07
-7.75887698e-07
-7.59804033e-07
-7.36574405e-07
-7.43736885e-07
-7.74410048e-07
-7.74625956e-07
-7.39082765e-07
-7.3472926e-07
-7.48730775e-07
-7.7624325e-07
-7.53001426e-07
-7.36147081e-07
-7.55638671e-07
-7.75861964e-07
-7.48280302e-07
-7.36837881e-07
-7.57677837e-07
-7.75543473e-07
-7.56881806e-07
-7.35991017e-07
-7.391911e-07
-7.76199979e-07
-7.75823736e-07
-7.36246124e-07
-7.35551309e-07
-7.78832029e-07
-7.75337087e-07
-7.49665827e-07
-7.34078525e-07
-7.34322101e-07
-7.77591664e-07
-7.76227602e-07
-7.37649704e-07
-7.36518086e-07
-7.78406406e-07
-7.7556244e-07
-7.38083931e-07
)
;

boundaryField
{
    closed
    {
        type            calculated;
        value           nonuniform List<scalar> 0();
    }
    open
    {
        type            calculated;
        value           nonuniform List<scalar> 0();
    }
    sides
    {
        type            empty;
    }
    procBoundary1to0
    {
        type            processor;
        value           uniform -7.79443841e-07;
    }
    procBoundary1to2
    {
        type            processor;
        value           uniform -7.36845124e-07;
    }
}


// ************************************************************************* //
