/*--------------------------------*- C++ -*----------------------------------*\
| =========                 |                                                 |
| \\      /  F ield         | OpenFOAM: The Open Source CFD Toolbox           |
|  \\    /   O peration     | Version:  2306                                  |
|   \\  /    A nd           | Website:  www.openfoam.com                      |
|    \\/     M anipulation  |                                                 |
\*---------------------------------------------------------------------------*/
FoamFile
{
    version     2.0;
    format      ascii;
    arch        "LSB;label=32;scalar=64";
    class       volScalarField;
    location    "0.00168";
    object      H;
}
// * * * * * * * * * * * * * * * * * * * * * * * * * * * * * * * * * * * * * //

dimensions      [0 0 0 0 0 0 0];

internalField   nonuniform List<scalar> 
530
(
5.02803344e-08
3.75457748e-08
9.60627951e-10
1.43159457e-09
1.23180028e-09
3.27934964e-08
5.07638983e-08
4.85415999e-08
9.35951305e-10
1.22464363e-09
4.36938439e-08
4.76651521e-08
7.6533952e-10
1.21907161e-09
4.40290392e-08
4.54823712e-08
7.78194142e-10
1.27778437e-09
1.21810288e-09
3.67997473e-08
4.65757355e-08
4.70976514e-08
4.81268514e-08
7.57687756e-10
1.16853102e-09
1.14724402e-09
1.16753742e-09
3.40232872e-08
4.89227216e-08
4.71450191e-08
9.84510461e-10
1.23160947e-09
4.22737379e-08
4.45895252e-08
8.24099595e-10
1.27673643e-09
1.2132331e-09
3.79495304e-08
4.70290144e-08
4.97405424e-08
4.96275013e-08
7.88021226e-10
1.22111112e-09
1.10763242e-09
3.97706396e-08
4.98157414e-08
8.58936871e-10
1.17515061e-09
1.19466553e-09
1.21699975e-09
3.07745402e-08
4.30256117e-08
4.2391735e-08
4.42930627e-08
9.53502874e-10
1.20206476e-09
3.7532911e-08
4.71416421e-08
4.68287261e-08
9.73436406e-10
1.16596585e-09
3.53024508e-08
5.04191988e-08
4.51895011e-08
9.98255162e-10
1.32606379e-09
1.24654814e-09
3.40217607e-08
4.77123813e-08
4.54355902e-08
1.04973439e-09
1.28220606e-09
4.00720997e-08
4.12961312e-08
9.42265733e-10
1.3592348e-09
1.25457834e-09
2.797589e-08
4.26024035e-08
4.26219393e-08
4.50160222e-08
9.64301958e-10
1.17358519e-09
3.88455336e-08
5.01036877e-08
4.97584139e-08
9.05276467e-10
1.15536385e-09
4.43666758e-08
4.91481008e-08
8.01697765e-10
1.13246101e-09
1.07504635e-09
1.13061884e-09
4.10617383e-08
5.05762638e-08
5.27197306e-08
5.27491127e-08
8.31862253e-10
1.18217799e-09
1.08490156e-09
4.01857456e-08
4.5661956e-08
9.14728904e-10
1.26641701e-09
1.17621053e-09
3.7158983e-08
4.0738644e-08
1.00164296e-09
3.59412208e-08
4.46375653e-08
9.67849661e-10
1.31337677e-09
1.20010204e-09
3.48781942e-08
4.52323212e-08
4.67997338e-08
4.68233226e-08
9.41900776e-10
1.29514618e-09
1.15120846e-09
3.57958097e-08
4.79451989e-08
1.0874349e-09
1.16705325e-09
3.36100362e-08
4.83340677e-08
4.39319777e-08
1.05040948e-09
3.87808253e-08
4.58379699e-08
9.58706851e-10
1.30088814e-09
1.1929661e-09
3.47636656e-08
4.94877469e-08
4.60791164e-08
1.06786652e-09
1.25648275e-09
4.19310629e-08
4.17889842e-08
9.54423328e-10
3.50179088e-08
4.88764073e-08
1.03009184e-09
1.17997768e-09
4.02088278e-08
4.61818411e-08
9.73927361e-10
1.20008962e-09
4.22879878e-08
4.56493916e-08
9.50635215e-10
1.1897811e-09
4.37794136e-08
4.65634023e-08
9.22213766e-10
1.15254258e-09
1.18228516e-09
1.14672525e-09
3.5104058e-08
4.78800461e-08
4.13732181e-08
5.04336801e-08
4.49464066e-08
9.63366795e-10
1.25135953e-09
1.09988174e-09
1.25752201e-09
4.34671007e-08
4.42890446e-08
8.69828652e-10
3.90005265e-08
5.27205702e-08
9.41083133e-10
1.10050364e-09
4.41043735e-08
4.92221571e-08
8.71633805e-10
1.11988648e-09
4.65709939e-08
4.98741729e-08
7.8554396e-10
1.08729771e-09
1.01996625e-09
1.08071921e-09
4.20030215e-08
5.22421699e-08
5.64589312e-08
5.63809527e-08
7.15841586e-10
1.07555433e-09
9.14423085e-10
1.15212744e-09
1.08323957e-09
4.2117273e-08
5.18658541e-08
9.61014923e-10
1.07812426e-09
3.89782248e-08
5.12876535e-08
5.00643829e-08
1.00792113e-09
1.19688369e-09
4.24499979e-08
4.37928394e-08
9.22027878e-10
3.92015058e-08
4.79108987e-08
9.49961603e-10
1.26385989e-09
1.17840674e-09
3.65854678e-08
5.01607329e-08
4.85822403e-08
1.03811401e-09
1.22198262e-09
1.22241754e-09
1.25846877e-09
3.42116669e-08
4.19674036e-08
1.12492891e-09
1.27183616e-09
3.50135787e-08
4.23804472e-08
4.56104904e-08
4.55709064e-08
9.96379697e-10
1.30953823e-09
1.16938838e-09
2.34480492e-08
4.94600135e-08
4.2282993e-08
1.02104785e-09
3.27089866e-08
4.95150973e-08
1.08214301e-09
1.13043506e-09
3.54514824e-08
4.87034124e-08
4.85077675e-08
9.54688353e-10
1.07514617e-09
1.15749938e-09
1.05059502e-09
3.58998848e-08
5.28143624e-08
4.40054265e-08
9.43379579e-10
3.3425179e-08
4.75538062e-08
1.05637165e-09
1.13865983e-09
3.79096248e-08
4.6182316e-08
5.1016185e-08
5.09727191e-08
8.07223818e-10
1.11181622e-09
9.97300833e-10
1.13249844e-09
1.15752323e-09
1.15859751e-09
3.99033371e-08
5.2070299e-08
5.17583173e-08
9.56250008e-10
1.15464158e-09
4.10365776e-08
4.67911887e-08
9.67701599e-10
1.17831488e-09
3.95703712e-08
4.72253516e-08
5.11979433e-08
5.10482581e-08
8.45416175e-10
1.16718342e-09
1.07365424e-09
1.21594195e-09
4.15845895e-08
4.34600925e-08
9.29338564e-10
3.8946909e-08
4.86311554e-08
8.89852295e-10
1.25420006e-09
1.0978876e-09
3.65365253e-08
4.7280874e-08
1.01043912e-09
1.1891734e-09
3.92799264e-08
4.53410801e-08
9.91815826e-10
1.18114786e-09
3.92801234e-08
4.69413023e-08
5.2003164e-08
5.19677422e-08
7.94394082e-10
1.10887959e-09
1.00956914e-09
1.1303616e-09
1.18452143e-09
1.15187256e-09
3.70022876e-08
4.77345501e-08
4.8866758e-08
4.90395761e-08
8.81584543e-10
1.11718047e-09
3.90366297e-08
4.95672399e-08
4.91251977e-08
9.45747212e-10
1.14951395e-09
3.84726938e-08
4.73020351e-08
9.69017682e-10
1.10265094e-09
3.66085684e-08
5.20872049e-08
5.1096191e-08
8.89236262e-10
1.11056171e-09
1.04806608e-09
1.11792539e-09
1.18536624e-09
1.12304583e-09
3.8118353e-08
5.07965921e-08
5.28734109e-08
5.27768016e-08
7.92384529e-10
1.11969546e-09
4.62671797e-08
4.92123793e-08
8.12894449e-10
1.16406706e-09
1.13036017e-09
1.19837924e-09
3.22380789e-08
4.35049464e-08
4.33901401e-08
4.57347038e-08
9.66372243e-10
1.15970878e-09
3.7500967e-08
5.13452652e-08
4.96699474e-08
9.85907121e-10
1.22625113e-09
1.19000547e-09
3.93759722e-08
4.06120836e-08
9.18987774e-10
3.1048814e-08
5.12441421e-08
1.04436729e-09
1.08680833e-09
3.74823904e-08
5.4362031e-08
5.08339386e-08
9.25522413e-10
1.2134632e-09
1.11798186e-09
1.28767696e-09
1.27207926e-09
3.64741863e-08
4.34970231e-08
4.71681647e-08
4.71794606e-08
9.39163201e-10
1.27939662e-09
1.11827324e-09
3.45047977e-08
4.76918265e-08
1.07284726e-09
1.14011286e-09
3.42060842e-08
4.87171868e-08
4.41327956e-08
1.02230475e-09
1.31982412e-09
1.22187036e-09
3.27642395e-08
4.73502175e-08
4.36558966e-08
5.25089942e-08
5.22698287e-08
8.76285381e-10
1.14330637e-09
1.13968384e-09
4.62427183e-08
4.84680913e-08
8.19370277e-10
1.21328828e-09
1.07640072e-09
4.09226168e-08
4.63210733e-08
9.16057031e-10
1.26922003e-09
1.14986996e-09
3.58378755e-08
4.86551841e-08
4.84554205e-08
1.04535814e-09
1.14839183e-09
3.70543482e-08
4.95238609e-08
4.92311148e-08
1.00577489e-09
1.16256979e-09
3.97429393e-08
4.89872875e-08
1.01837389e-09
1.11397881e-09
3.72727684e-08
5.31731935e-08
4.90526107e-08
9.62233624e-10
1.24667569e-09
1.14228886e-09
3.82091445e-08
4.70527749e-08
1.02964576e-09
1.20883927e-09
3.9702877e-08
4.4646975e-08
1.04583919e-09
1.23484296e-09
3.79811975e-08
4.36037204e-08
1.10798801e-09
1.22318515e-09
3.47324502e-08
4.45569513e-08
4.42383864e-08
1.11167963e-09
1.22942844e-09
3.50754362e-08
4.63704869e-08
4.60421533e-08
1.06236101e-09
1.23041907e-09
3.87562344e-08
4.48330106e-08
1.0461379e-09
1.20785243e-09
3.88452933e-08
4.60962988e-08
1.06098067e-09
1.10955743e-09
3.73127842e-08
5.27152158e-08
5.03447706e-08
8.25843469e-10
1.14555016e-09
9.35426804e-10
1.16367319e-09
1.09917979e-09
4.6077014e-08
5.47858205e-08
5.65400943e-08
5.61493219e-08
8.15877363e-10
1.12560181e-09
9.84241887e-10
1.24676048e-09
1.10988443e-09
3.46121971e-08
4.64146338e-08
4.69620839e-08
4.69027543e-08
9.29610962e-10
1.18940023e-09
4.55665275e-08
4.74736805e-08
9.43089487e-10
1.19788465e-09
4.53119771e-08
4.67932341e-08
9.50434179e-10
1.21420363e-09
1.19096232e-09
1.23903449e-09
3.43173167e-08
4.25472332e-08
4.4468826e-08
4.44355639e-08
1.03390537e-09
1.25647329e-09
4.31143781e-08
4.31187947e-08
9.91570596e-10
1.3423218e-09
1.16845395e-09
2.88697885e-08
4.40228011e-08
4.33588677e-08
4.34951345e-08
1.05791064e-09
1.28986383e-09
4.03316763e-08
4.03011319e-08
1.10757337e-09
3.43830918e-08
4.21722853e-08
1.12543847e-09
3.71721805e-08
4.33695493e-08
1.04250469e-09
1.3406402e-09
1.17481078e-09
3.10090714e-08
4.53948992e-08
4.59872733e-08
4.63492458e-08
9.85610584e-10
1.22015756e-09
4.70067119e-08
4.69060175e-08
9.42988099e-10
1.25981791e-09
1.1184507e-09
3.96170292e-08
4.50090174e-08
1.04346476e-09
1.3156207e-09
)
;

boundaryField
{
    closed
    {
        type            calculated;
        value           nonuniform List<scalar> 0();
    }
    open
    {
        type            calculated;
        value           nonuniform List<scalar> 0();
    }
    sides
    {
        type            empty;
    }
    procBoundary2to1
    {
        type            processor;
        value           uniform 3.38469762e-08;
    }
    procBoundary2to3
    {
        type            processor;
        value           uniform 1.20240603e-09;
    }
}


// ************************************************************************* //
