/*--------------------------------*- C++ -*----------------------------------*\
| =========                 |                                                 |
| \\      /  F ield         | OpenFOAM: The Open Source CFD Toolbox           |
|  \\    /   O peration     | Version:  2306                                  |
|   \\  /    A nd           | Website:  www.openfoam.com                      |
|    \\/     M anipulation  |                                                 |
\*---------------------------------------------------------------------------*/
FoamFile
{
    version     2.0;
    format      ascii;
    arch        "LSB;label=32;scalar=64";
    class       volScalarField;
    location    "0.00168";
    object      Z;
}
// * * * * * * * * * * * * * * * * * * * * * * * * * * * * * * * * * * * * * //

dimensions      [0 0 0 0 0 0 0];

internalField   nonuniform List<scalar> 
530
(
0.0148798756
0.0147214995
0.014102
0.0140600199
0.0140791067
0.0146473197
0.0148854696
0.0148514528
0.014106289
0.0140770007
0.0148007957
0.0148419155
0.0141213848
0.0140785478
0.0148055067
0.0148176683
0.0141190675
0.0140752491
0.0140809682
0.0147155462
0.0148336254
0.014840577
0.0148507635
0.0141216788
0.0140849423
0.0140884794
0.0140852603
0.0146747635
0.0148636845
0.01483782
0.0141020226
0.0140783237
0.0147831847
0.0148074225
0.0141144348
0.0140752772
0.0140807944
0.01472874
0.0148384819
0.0148706936
0.0148682758
0.0141165566
0.0140800741
0.0140886723
0.01475099
0.0148708245
0.0141120456
0.0140838174
0.0140840961
0.014080155
0.0146167167
0.0147905674
0.0147833746
0.0148049038
0.0141030522
0.0140819104
0.0147233235
0.0148415225
0.014833555
0.0141024266
0.0140837181
0.0146974659
0.0148798497
0.0148145588
0.0140979558
0.0140707992
0.0140771163
0.0146730754
0.014847971
0.0148161695
0.0140957722
0.0140731977
0.0147564032
0.0147676307
0.0141040522
0.0140682511
0.0140776874
0.0145662924
0.0147852003
0.0147861412
0.0148133257
0.0141022176
0.0140842763
0.0147396562
0.0148776761
0.0148693749
0.0141098193
0.0140855693
0.0148087555
0.0148635784
0.0141167308
0.0140883537
0.0140937058
0.0140879793
0.0147660719
0.0148817048
0.0149064084
0.0149069469
0.0141128293
0.0140844242
0.0140920302
0.0147568025
0.0148224372
0.0141058214
0.0140772494
0.0140842771
0.0147203398
0.0147637185
0.0140973757
0.0147058661
0.0148093469
0.0141003001
0.0140720744
0.0140805785
0.0146891908
0.014815953
0.0148336491
0.0148336836
0.014100919
0.0140731361
0.0140838927
0.0147029145
0.0148482445
0.0140906765
0.0140841011
0.014666764
0.0148549827
0.0147994517
0.0140933647
0.0147379375
0.0148234813
0.0140993162
0.0140734282
0.0140805843
0.0146880739
0.0148677838
0.0148247453
0.014092146
0.0140763389
0.0147768229
0.0147748757
0.0141007327
0.0146946545
0.0148607883
0.0140967454
0.0140835218
0.0147581071
0.0148280851
0.0141013498
0.0140823714
0.0147829049
0.0148224086
0.0141028274
0.0140839688
0.0148001333
0.0148340752
0.0141041358
0.014087688
0.0140827328
0.0140879975
0.0146920142
0.0148524167
0.0147681183
0.0148829731
0.014811896
0.0141028182
0.0140776592
0.014092245
0.0140763283
0.0147976876
0.0148040443
0.0141093065
0.0147419125
0.0149097771
0.0141041691
0.0140925006
0.014806207
0.0148670639
0.0141115218
0.0140913344
0.0148373175
0.0148753259
0.0141187284
0.0140946241
0.0141005311
0.0140945159
0.0147806132
0.0149047136
0.0149550736
0.0149532262
0.0141243751
0.0140947548
0.0141088977
0.0140878911
0.0140937433
0.0147808492
0.0148987004
0.0141020822
0.0140941224
0.0147426196
0.0148936207
0.0148739733
0.0141000639
0.0140821096
0.0147858675
0.0147989101
0.0141042443
0.0147435641
0.0148499216
0.0140996753
0.0140770389
0.0140825451
0.0147125003
0.0148760008
0.0148541536
0.0140945863
0.0140787147
0.0140803945
0.0140752635
0.0146798626
0.0147765529
0.0140867552
0.0140750377
0.0146932633
0.0147826132
0.0148205098
0.0148195379
0.0140967202
0.0140726534
0.0140842027
0.0144875533
0.0148665969
0.0147804164
0.0140942029
0.0146518884
0.0148685366
0.0140919787
0.0140891873
0.0147018599
0.0148631954
0.0148578186
0.0141047518
0.0140935697
0.0140878078
0.0140951921
0.0147054647
0.0149139455
0.0148023836
0.0141063813
0.014667639
0.0148502106
0.0140949848
0.0140907275
0.0147308362
0.0148323513
0.0148880166
0.0148875717
0.0141149105
0.0140908134
0.014100243
0.0140882109
0.0140861015
0.0140859996
0.0147519653
0.0149016839
0.014893093
0.0141046078
0.0140854904
0.0147697464
0.0148357369
0.0141019841
0.0140841834
0.0147501869
0.0148413576
0.0148892601
0.0148854828
0.0141109077
0.014084125
0.0140934277
0.0140793684
0.0147734582
0.0147943776
0.0141023472
0.014740857
0.014857615
0.0141058319
0.014078065
0.01408997
0.0147134521
0.0148417593
0.0140977945
0.0140832252
0.0147471814
0.0148190742
0.014099185
0.0140847042
0.0147460967
0.0148394482
0.0148989525
0.0148985464
0.014115732
0.0140908363
0.014099227
0.0140885211
0.0140840329
0.0140864816
0.0147183829
0.0148484461
0.0148616396
0.0148633953
0.0141092079
0.0140910935
0.0147440724
0.0148743286
0.0148636967
0.0141076117
0.0140873318
0.0147410178
0.0148442468
0.0141043316
0.0140928912
0.014716537
0.0149047206
0.0148886457
0.0141108439
0.0140912099
0.0140971833
0.0140897435
0.0140844176
0.014088549
0.0147316894
0.0148846272
0.0149093766
0.0149071704
0.0141170636
0.0140892451
0.0148322102
0.0148646468
0.0141157393
0.0140858479
0.0140906331
0.0140824992
0.0146456428
0.0147972916
0.014796504
0.0148224428
0.0141018342
0.0140849453
0.0147244733
0.0148909036
0.0148688109
0.0140988513
0.014080055
0.0140820118
0.0147469617
0.0147611625
0.0141039742
0.0146213268
0.0148899175
0.0140945542
0.0140918478
0.0147228314
0.0149282333
0.0148813264
0.0141044333
0.0140799744
0.0140888396
0.0140737209
0.0140758049
0.0147109298
0.0147965814
0.0148393583
0.0148399282
0.0141021538
0.014076202
0.0140881522
0.0146857321
0.0148474248
0.0140930779
0.0140882824
0.014679485
0.014862034
0.0148030869
0.014097279
0.0140727411
0.0140807548
0.0146529911
0.0148443017
0.0147971049
0.0149065447
0.0148998605
0.0141099361
0.014087209
0.0140878756
0.0148293925
0.0148553192
0.014112904
0.0140815082
0.0140923513
0.0147651261
0.01483064
0.0141043354
0.0140773771
0.0140859126
0.0147047749
0.0148598611
0.0148543482
0.0140960245
0.0140863892
0.0147189401
0.0148707504
0.0148627939
0.0140998078
0.0140841832
0.0147524903
0.0148615235
0.0140975117
0.0140889931
0.0147212914
0.0149136653
0.0148608984
0.0141010267
0.0140780972
0.0140859919
0.014732469
0.0148380519
0.0140957297
0.0140807559
0.0147505938
0.0148092324
0.0140941746
0.0140786499
0.0147297238
0.0147973086
0.0140885278
0.0140801292
0.0146863257
0.0148105452
0.0148020464
0.0140895819
0.0140780909
0.0146941116
0.014831276
0.0148237721
0.0140943167
0.0140779783
0.014740214
0.0148111895
0.0140950332
0.0140814166
0.0147411166
0.0148288782
0.0140939611
0.0140922515
0.0147221414
0.0149138861
0.0148773588
0.0141178099
0.0140875105
0.0141067106
0.0140855651
0.0140913399
0.0148259435
0.0149354024
0.014952584
0.0149509947
0.0141141443
0.0140905176
0.0141012605
0.0140796527
0.014090341
0.0146882717
0.014833117
0.0148385146
0.014836933
0.0141048208
0.0140829592
0.0148217052
0.0148425459
0.0141033702
0.0140816377
0.0148181232
0.0148341065
0.0141021161
0.0140802792
0.0140831377
0.0140777224
0.0146815976
0.0147846994
0.0148075989
0.0148059437
0.0140948311
0.0140763766
0.0147908696
0.0147899783
0.0140978413
0.0140698451
0.0140833518
0.0145814277
0.0148011898
0.0147934423
0.0147938181
0.0140923577
0.0140731537
0.0147570928
0.0147567313
0.0140877892
0.0146811756
0.0147799096
0.0140859538
0.0147202719
0.0147931699
0.0140935118
0.0140699598
0.0140825481
0.0146195959
0.0148177643
0.0148243499
0.0148278856
0.0140978304
0.0140789033
0.0148360028
0.0148341683
0.0141008322
0.0140759481
0.0140866664
0.0147476675
0.0148127756
0.0140924445
0.0140721389
)
;

boundaryField
{
    closed
    {
        type            zeroGradient;
    }
    open
    {
        type            zeroGradient;
    }
    sides
    {
        type            empty;
    }
    procBoundary2to1
    {
        type            processor;
        value           uniform 0.0146656252;
    }
    procBoundary2to3
    {
        type            processor;
        value           uniform 0.0140800401;
    }
}


// ************************************************************************* //
