/*--------------------------------*- C++ -*----------------------------------*\
| =========                 |                                                 |
| \\      /  F ield         | OpenFOAM: The Open Source CFD Toolbox           |
|  \\    /   O peration     | Version:  2306                                  |
|   \\  /    A nd           | Website:  www.openfoam.com                      |
|    \\/     M anipulation  |                                                 |
\*---------------------------------------------------------------------------*/
FoamFile
{
    version     2.0;
    format      ascii;
    arch        "LSB;label=32;scalar=64";
    class       volScalarField;
    location    "0.00178";
    object      mu;
}
// * * * * * * * * * * * * * * * * * * * * * * * * * * * * * * * * * * * * * //

dimensions      [1 -1 -1 0 0 0 0];

internalField   nonuniform List<scalar> 
531
(
1.97600695e-05
1.94628382e-05
1.97289853e-05
2.03021516e-05
2.02951232e-05
1.97776088e-05
1.95121645e-05
1.94748673e-05
1.96407572e-05
2.03196301e-05
2.02827366e-05
1.97846215e-05
1.95070341e-05
1.96879342e-05
2.03188506e-05
2.02867859e-05
1.97733703e-05
1.9487446e-05
1.9671598e-05
2.0317603e-05
2.02896704e-05
1.97797384e-05
1.94948126e-05
1.96566907e-05
2.03185995e-05
2.02894688e-05
1.97768863e-05
1.94816013e-05
1.96436887e-05
2.03187945e-05
2.02922501e-05
1.97842653e-05
1.95150276e-05
1.96915966e-05
2.03198503e-05
2.02876798e-05
1.97601417e-05
1.94552446e-05
1.96993883e-05
2.02948689e-05
2.02934118e-05
2.02814476e-05
2.02844981e-05
1.95787866e-05
1.94131243e-05
1.94149733e-05
1.95380638e-05
2.03060688e-05
2.02716584e-05
1.96428359e-05
1.970075e-05
2.03169365e-05
2.0276423e-05
1.97503804e-05
1.94662273e-05
1.96706827e-05
2.03063097e-05
2.02777932e-05
1.96562997e-05
1.97190817e-05
2.03158584e-05
2.02819382e-05
1.97623318e-05
1.95289086e-05
1.97023768e-05
2.03142286e-05
2.0273341e-05
1.97078855e-05
1.9749573e-05
2.03171404e-05
2.02803814e-05
1.97572962e-05
1.96089515e-05
1.9644392e-05
1.95228989e-05
1.97389982e-05
2.0309366e-05
2.02980184e-05
1.98304528e-05
1.95905683e-05
1.95845452e-05
1.97742044e-05
2.02995372e-05
2.02691363e-05
1.9710576e-05
1.97474202e-05
2.03049717e-05
2.02875644e-05
1.99061555e-05
1.9562299e-05
1.95516069e-05
1.95106821e-05
1.97513958e-05
2.0314243e-05
2.02841575e-05
1.97574566e-05
1.95740336e-05
1.9752763e-05
2.03139108e-05
2.02819705e-05
1.97029401e-05
1.94660533e-05
1.97447247e-05
2.0306706e-05
2.03042417e-05
2.02863431e-05
1.98524819e-05
1.948895e-05
1.94438786e-05
1.97540372e-05
2.03120739e-05
2.02913342e-05
1.96538975e-05
1.94874552e-05
1.97559419e-05
2.03050613e-05
2.02984612e-05
1.9694149e-05
1.95027181e-05
1.97525564e-05
2.03094571e-05
2.03102515e-05
1.97118378e-05
1.9760338e-05
2.03163232e-05
2.02992199e-05
1.96610661e-05
1.94998537e-05
1.97534068e-05
2.03020905e-05
2.03087929e-05
1.96631342e-05
1.9476767e-05
1.97571519e-05
2.02981928e-05
2.03051788e-05
1.96348623e-05
1.94314358e-05
1.97568841e-05
2.0292211e-05
2.03102471e-05
1.96106396e-05
1.96410339e-05
2.02923199e-05
2.03019697e-05
1.96367932e-05
1.94225601e-05
1.97394261e-05
2.02798816e-05
2.03135541e-05
1.96938133e-05
1.97223791e-05
2.02787675e-05
2.03023332e-05
1.96866056e-05
1.94638159e-05
1.97400067e-05
2.02736554e-05
2.03152941e-05
1.97438646e-05
1.97625081e-05
2.0260091e-05
2.03037993e-05
1.97404395e-05
1.95018641e-05
1.97490244e-05
2.0266542e-05
2.03169931e-05
1.97491516e-05
1.97696019e-05
2.02478618e-05
2.03028352e-05
1.97472251e-05
1.95703216e-05
1.96142191e-05
1.95098896e-05
1.96404758e-05
2.02627671e-05
2.03155852e-05
1.97466582e-05
1.97386626e-05
2.02475173e-05
2.03028262e-05
1.97461159e-05
1.94723509e-05
1.96805035e-05
2.02653133e-05
2.03183365e-05
1.97510336e-05
1.97418544e-05
2.02588886e-05
2.03048373e-05
1.97486023e-05
1.94608583e-05
1.96603227e-05
2.02744181e-05
2.03199555e-05
1.97515262e-05
1.97092467e-05
2.02768567e-05
2.03052284e-05
1.97495713e-05
1.94503567e-05
1.96501957e-05
2.02875134e-05
2.03208054e-05
1.97392957e-05
1.97036645e-05
2.03013565e-05
2.03032551e-05
1.97480471e-05
1.94711089e-05
1.97006083e-05
2.03087659e-05
2.03051133e-05
1.97543767e-05
1.95360468e-05
1.97468867e-05
2.03103669e-05
2.03043078e-05
1.97628081e-05
1.95856802e-05
1.95495595e-05
1.96833984e-05
2.03160705e-05
2.02828482e-05
1.97492959e-05
1.94859504e-05
1.97417048e-05
2.03113057e-05
2.02833949e-05
1.97548668e-05
1.95173074e-05
1.97447752e-05
2.03122293e-05
2.02752167e-05
1.97545392e-05
1.95171112e-05
1.97429144e-05
2.03109239e-05
2.02666793e-05
1.97560294e-05
1.95078002e-05
1.97406078e-05
2.0307468e-05
2.02352754e-05
1.97628191e-05
1.97553914e-05
2.03146157e-05
2.02534221e-05
1.97581482e-05
1.95003653e-05
1.97414536e-05
2.0308149e-05
2.02555261e-05
1.97573573e-05
1.95167375e-05
1.97432872e-05
2.03118389e-05
2.02521423e-05
1.97521191e-05
1.95046997e-05
1.973819e-05
2.02994025e-05
2.028041e-05
1.98797339e-05
1.95581044e-05
1.9542093e-05
1.94577462e-05
1.97002054e-05
2.03039988e-05
2.02003324e-05
1.96912303e-05
1.97641357e-05
2.03067317e-05
2.02022813e-05
1.9689677e-05
1.97644381e-05
2.03128103e-05
2.02452276e-05
1.97584709e-05
1.94572465e-05
1.97401943e-05
2.03093705e-05
2.02571189e-05
1.97579623e-05
1.94506351e-05
1.97478121e-05
2.03036482e-05
2.02322343e-05
1.9698283e-05
1.97834933e-05
2.03064599e-05
2.02388423e-05
1.96755785e-05
1.97819157e-05
2.03187758e-05
2.02622231e-05
1.97309128e-05
1.94533587e-05
1.97451178e-05
2.03125817e-05
2.02793297e-05
1.97557991e-05
1.94554005e-05
1.97504917e-05
2.03140453e-05
2.02855641e-05
1.9754283e-05
1.94441648e-05
1.97517809e-05
2.03114961e-05
2.02922396e-05
1.97521046e-05
1.94287355e-05
1.97565459e-05
2.02837742e-05
1.97780163e-05
1.96938192e-05
2.03120564e-05
2.02763046e-05
1.98157592e-05
1.94700828e-05
1.97025111e-05
2.02601729e-05
1.98064202e-05
1.95595757e-05
2.02554406e-05
2.02915303e-05
1.98223444e-05
1.9613065e-05
1.95128673e-05
1.97583958e-05
2.02846608e-05
1.97845948e-05
1.97006764e-05
2.02714472e-05
2.03017907e-05
1.97747076e-05
1.97359497e-05
2.02587217e-05
2.02981905e-05
1.9826067e-05
1.97077988e-05
1.94960759e-05
1.94963513e-05
2.00090229e-05
2.02712888e-05
1.9920724e-05
1.95147559e-05
1.96292029e-05
2.02281218e-05
1.9815682e-05
1.95790615e-05
2.0217191e-05
2.02903699e-05
1.97847181e-05
1.96351814e-05
2.02306957e-05
2.02872003e-05
1.98143477e-05
1.94616032e-05
1.94409163e-05
1.99417473e-05
2.02912965e-05
1.97764718e-05
1.96259475e-05
2.0218771e-05
2.03011641e-05
1.97876368e-05
1.96500408e-05
2.02294631e-05
2.02831203e-05
1.98257149e-05
1.94438197e-05
1.94436066e-05
2.0192064e-05
2.0298931e-05
1.97970894e-05
1.97163565e-05
2.02250101e-05
2.02999493e-05
1.98357366e-05
1.97654002e-05
1.947328e-05
1.94781027e-05
2.01907337e-05
2.02727236e-05
1.98823334e-05
1.95208751e-05
1.95105577e-05
2.01582371e-05
2.0271113e-05
1.98803752e-05
1.95216811e-05
1.9510618e-05
2.01360352e-05
2.02717171e-05
1.9886141e-05
1.95319095e-05
1.95182034e-05
2.01101848e-05
2.02905376e-05
1.98290316e-05
1.97140288e-05
1.94338754e-05
1.94298173e-05
1.99784996e-05
2.02546047e-05
2.02645012e-05
2.00954336e-05
1.95746288e-05
1.95005773e-05
2.00539529e-05
1.98511786e-05
1.9594278e-05
2.00759229e-05
2.02793375e-05
1.98371086e-05
1.95341897e-05
1.94961529e-05
1.99325167e-05
2.02796417e-05
1.99836731e-05
1.95744479e-05
1.954858e-05
2.00690015e-05
1.98404341e-05
1.95827715e-05
2.00119518e-05
2.02985246e-05
1.97758366e-05
1.9646623e-05
2.00426523e-05
2.03029684e-05
1.97818259e-05
1.96847832e-05
2.00425212e-05
2.02917503e-05
1.98492501e-05
1.95971271e-05
1.95413956e-05
1.99244144e-05
2.02807143e-05
1.99216098e-05
1.96340212e-05
1.95533188e-05
1.99250826e-05
2.02793982e-05
1.9922185e-05
1.96345693e-05
1.954966e-05
1.99258882e-05
2.02805645e-05
1.98872956e-05
1.96049755e-05
1.95310258e-05
1.99163497e-05
2.02813896e-05
1.9870946e-05
1.95846495e-05
1.95189064e-05
1.991575e-05
2.02809166e-05
1.98560556e-05
1.9563348e-05
1.95092941e-05
1.99125544e-05
2.02918573e-05
1.97933832e-05
1.97117303e-05
2.00108689e-05
2.02873893e-05
1.98375691e-05
1.95638804e-05
1.9540974e-05
1.99461868e-05
2.02799489e-05
2.02796354e-05
1.98636618e-05
1.97262747e-05
1.95362789e-05
1.95346724e-05
1.995638e-05
2.02784823e-05
1.9812024e-05
1.95224322e-05
1.94928272e-05
1.99184763e-05
2.02900131e-05
1.97865671e-05
1.96728539e-05
2.00321093e-05
2.02856135e-05
1.98036944e-05
1.95324783e-05
1.9509908e-05
1.99396327e-05
2.02947428e-05
1.97895164e-05
1.96874162e-05
2.00452429e-05
2.03009169e-05
1.97914243e-05
1.9712464e-05
2.00811673e-05
2.02879619e-05
1.98170628e-05
1.95857027e-05
1.95718698e-05
2.00195125e-05
2.02824086e-05
1.98378563e-05
1.95875852e-05
1.95694586e-05
2.00356294e-05
2.02833511e-05
1.98341123e-05
1.95864573e-05
1.95703283e-05
2.00495803e-05
2.02849174e-05
1.9831475e-05
1.95865545e-05
1.95724058e-05
2.00653772e-05
2.02858974e-05
1.98295314e-05
1.95882565e-05
1.95761275e-05
2.00812571e-05
)
;

boundaryField
{
    closed
    {
        type            calculated;
        value           nonuniform List<scalar> 0();
    }
    open
    {
        type            calculated;
        value           nonuniform List<scalar> 0();
    }
    sides
    {
        type            empty;
    }
    procBoundary1to0
    {
        type            processor;
        value           uniform 2.02529851e-05;
    }
    procBoundary1to2
    {
        type            processor;
        value           uniform 2.02865972e-05;
    }
}


// ************************************************************************* //
