/*--------------------------------*- C++ -*----------------------------------*\
| =========                 |                                                 |
| \\      /  F ield         | OpenFOAM: The Open Source CFD Toolbox           |
|  \\    /   O peration     | Version:  2306                                  |
|   \\  /    A nd           | Website:  www.openfoam.com                      |
|    \\/     M anipulation  |                                                 |
\*---------------------------------------------------------------------------*/
FoamFile
{
    version     2.0;
    format      ascii;
    arch        "LSB;label=32;scalar=64";
    class       volScalarField;
    location    "0.00178";
    object      prefDPV_H2O;
}
// * * * * * * * * * * * * * * * * * * * * * * * * * * * * * * * * * * * * * //

dimensions      [1 -1 -1 0 0 0 0];

internalField   nonuniform List<scalar> 
531
(
-3.69758853e-07
-3.64509675e-07
-3.66240138e-07
-3.84043633e-07
-3.84274655e-07
-3.69769463e-07
-3.64710159e-07
-3.64433459e-07
-3.65673387e-07
-3.84253642e-07
-3.84324785e-07
-3.71577095e-07
-3.64705253e-07
-3.660256e-07
-3.8407343e-07
-3.84256111e-07
-3.70660707e-07
-3.64550902e-07
-3.65884928e-07
-3.84127097e-07
-3.84186636e-07
-3.71193991e-07
-3.64584382e-07
-3.65777602e-07
-3.8408023e-07
-3.84195819e-07
-3.7100443e-07
-3.64476357e-07
-3.65661264e-07
-3.84112952e-07
-3.84122755e-07
-3.71658816e-07
-3.64693213e-07
-3.66045294e-07
-3.83893638e-07
-3.84227677e-07
-3.68977512e-07
-3.64341506e-07
-3.66112499e-07
-3.84545533e-07
-3.84302968e-07
-3.84476832e-07
-3.84884262e-07
-3.65328386e-07
-3.64016047e-07
-3.63982678e-07
-3.64891468e-07
-3.8423229e-07
-3.84978635e-07
-3.656393e-07
-3.66122589e-07
-3.83857576e-07
-3.84460917e-07
-3.67572208e-07
-3.64355952e-07
-3.65747704e-07
-3.84082102e-07
-3.84957865e-07
-3.65750222e-07
-3.66190114e-07
-3.83998277e-07
-3.84317902e-07
-3.70286262e-07
-3.64778539e-07
-3.65969938e-07
-3.83925038e-07
-3.85099234e-07
-3.66109909e-07
-3.6704076e-07
-3.83797246e-07
-3.84230381e-07
-3.69814512e-07
-3.6543472e-07
-3.6558828e-07
-3.64760534e-07
-3.66704837e-07
-3.84001271e-07
-3.83973164e-07
-3.7450648e-07
-3.6516533e-07
-3.65206915e-07
-3.7128835e-07
-3.83932331e-07
-3.8522094e-07
-3.66228699e-07
-3.66844904e-07
-3.843423e-07
-3.84013583e-07
-3.7767385e-07
-3.6508815e-07
-3.64986535e-07
-3.64642663e-07
-3.66656455e-07
-3.83948725e-07
-3.84392223e-07
-3.69430707e-07
-3.65127822e-07
-3.68188209e-07
-3.83841124e-07
-3.84568251e-07
-3.66103062e-07
-3.64363619e-07
-3.667864e-07
-3.84068918e-07
-3.83674999e-07
-3.84509464e-07
-3.75514249e-07
-3.64486179e-07
-3.64110379e-07
-3.66506255e-07
-3.84010881e-07
-3.84471126e-07
-3.65726269e-07
-3.64485034e-07
-3.68514482e-07
-3.83890207e-07
-3.84261959e-07
-3.66063883e-07
-3.64599592e-07
-3.67865824e-07
-3.8387141e-07
-3.84361297e-07
-3.66163533e-07
-3.67313241e-07
-3.8352933e-07
-3.84124733e-07
-3.65734655e-07
-3.64577988e-07
-3.68343902e-07
-3.83935978e-07
-3.84111535e-07
-3.65788914e-07
-3.64373791e-07
-3.67944408e-07
-3.84084029e-07
-3.84156758e-07
-3.65551168e-07
-3.64061473e-07
-3.66613235e-07
-3.84382343e-07
-3.84516771e-07
-3.65325254e-07
-3.65715031e-07
-3.84238055e-07
-3.84222642e-07
-3.6551383e-07
-3.64041312e-07
-3.66396893e-07
-3.84587495e-07
-3.84473616e-07
-3.65975593e-07
-3.66361788e-07
-3.84501193e-07
-3.84147012e-07
-3.65891037e-07
-3.64353691e-07
-3.66424663e-07
-3.84752601e-07
-3.84444384e-07
-3.66655302e-07
-3.66669395e-07
-3.85003106e-07
-3.84091078e-07
-3.66692755e-07
-3.64652459e-07
-3.66492415e-07
-3.84906298e-07
-3.84354115e-07
-3.67676501e-07
-3.67223301e-07
-3.85288865e-07
-3.83991608e-07
-3.67363374e-07
-3.65200108e-07
-3.6541701e-07
-3.64717877e-07
-3.65707933e-07
-3.85152734e-07
-3.84445304e-07
-3.66968243e-07
-3.66485893e-07
-3.85618201e-07
-3.84116295e-07
-3.67290731e-07
-3.64450512e-07
-3.65977268e-07
-3.85059933e-07
-3.84268682e-07
-3.67104405e-07
-3.66487068e-07
-3.8537529e-07
-3.84032175e-07
-3.67477109e-07
-3.6434749e-07
-3.65794263e-07
-3.84882765e-07
-3.84141269e-07
-3.66648764e-07
-3.66213604e-07
-3.84962946e-07
-3.83968845e-07
-3.67460241e-07
-3.64241689e-07
-3.65677292e-07
-3.8455944e-07
-3.83970658e-07
-3.66380197e-07
-3.6614254e-07
-3.84331534e-07
-3.83925251e-07
-3.67842521e-07
-3.64342249e-07
-3.66041283e-07
-3.84072354e-07
-3.83924564e-07
-3.68753196e-07
-3.6483646e-07
-3.66633612e-07
-3.83878209e-07
-3.83893337e-07
-3.68960567e-07
-3.65191006e-07
-3.64908093e-07
-3.65937878e-07
-3.84038845e-07
-3.84473572e-07
-3.67919394e-07
-3.64484189e-07
-3.66469265e-07
-3.84109141e-07
-3.84501423e-07
-3.68323304e-07
-3.6471699e-07
-3.66968247e-07
-3.84112242e-07
-3.84681583e-07
-3.68266796e-07
-3.64728092e-07
-3.67039342e-07
-3.84165281e-07
-3.84911854e-07
-3.67871243e-07
-3.6468525e-07
-3.6664141e-07
-3.84146584e-07
-3.86043987e-07
-3.66634342e-07
-3.67885355e-07
-3.84243744e-07
-3.8516353e-07
-3.67341633e-07
-3.6464621e-07
-3.67291381e-07
-3.84220674e-07
-3.85204267e-07
-3.67888654e-07
-3.64749552e-07
-3.67591425e-07
-3.84181274e-07
-3.85251844e-07
-3.67833012e-07
-3.64694755e-07
-3.67631727e-07
-3.84324528e-07
-3.8429209e-07
-3.7661908e-07
-3.65084394e-07
-3.64963531e-07
-3.64243255e-07
-3.66028235e-07
-3.84350942e-07
-3.86705329e-07
-3.66105724e-07
-3.67345166e-07
-3.84295485e-07
-3.86775335e-07
-3.66088887e-07
-3.67733331e-07
-3.84101153e-07
-3.85416361e-07
-3.66596359e-07
-3.64325285e-07
-3.67058094e-07
-3.84114933e-07
-3.85270574e-07
-3.66980538e-07
-3.64274598e-07
-3.66861357e-07
-3.84213547e-07
-3.86372849e-07
-3.66136623e-07
-3.67680754e-07
-3.8396459e-07
-3.86592703e-07
-3.65909037e-07
-3.67923282e-07
-3.83702484e-07
-3.85064501e-07
-3.6630565e-07
-3.64312444e-07
-3.66988307e-07
-3.84061338e-07
-3.84780705e-07
-3.67412731e-07
-3.6430391e-07
-3.66904684e-07
-3.84078341e-07
-3.84688725e-07
-3.67044429e-07
-3.64224716e-07
-3.66903456e-07
-3.84163339e-07
-3.84588105e-07
-3.66642968e-07
-3.64199351e-07
-3.69059448e-07
-3.84968932e-07
-3.71063098e-07
-3.66126863e-07
-3.85083333e-07
-3.84406419e-07
-3.73697151e-07
-3.64597993e-07
-3.66083497e-07
-3.86411038e-07
-3.72964167e-07
-3.65139503e-07
-3.86728688e-07
-3.84287625e-07
-3.73730945e-07
-3.65421009e-07
-3.64750064e-07
-3.68965725e-07
-3.85060746e-07
-3.71529482e-07
-3.66132348e-07
-3.8583909e-07
-3.84264695e-07
-3.67416196e-07
-3.66423061e-07
-3.859875e-07
-3.83900654e-07
-3.73770536e-07
-3.66216209e-07
-3.64663129e-07
-3.64610772e-07
-3.81115082e-07
-3.84631253e-07
-3.78125771e-07
-3.64926715e-07
-3.65676713e-07
-3.87071791e-07
-3.73292026e-07
-3.65343429e-07
-3.8695414e-07
-3.84362398e-07
-3.672966e-07
-3.65694515e-07
-3.87066005e-07
-3.84341235e-07
-3.7318246e-07
-3.64340166e-07
-3.64098262e-07
-3.78950371e-07
-3.84594801e-07
-3.68352635e-07
-3.65556848e-07
-3.87010936e-07
-3.84042669e-07
-3.67706089e-07
-3.65780844e-07
-3.8711625e-07
-3.84244987e-07
-3.7374839e-07
-3.6434696e-07
-3.64150907e-07
-3.86281756e-07
-3.84061395e-07
-3.68613985e-07
-3.6626021e-07
-3.86941448e-07
-3.83654743e-07
-3.73929767e-07
-3.66736496e-07
-3.64640245e-07
-3.64485866e-07
-3.86251887e-07
-3.84369992e-07
-3.76417873e-07
-3.64947597e-07
-3.64781129e-07
-3.85374383e-07
-3.84382273e-07
-3.76329943e-07
-3.64942019e-07
-3.6477323e-07
-3.84756143e-07
-3.8439238e-07
-3.76634709e-07
-3.65012028e-07
-3.64768518e-07
-3.84050832e-07
-3.84107167e-07
-3.735551e-07
-3.66266103e-07
-3.6422354e-07
-3.64091835e-07
-3.80149738e-07
-3.84899368e-07
-3.84642557e-07
-3.83835886e-07
-3.65298178e-07
-3.6473698e-07
-3.8247203e-07
-3.75141601e-07
-3.65419203e-07
-3.83063287e-07
-3.84367388e-07
-3.74379006e-07
-3.64924683e-07
-3.64568831e-07
-3.78637876e-07
-3.84487486e-07
-3.80334764e-07
-3.65243184e-07
-3.65053346e-07
-3.82892209e-07
-3.74695766e-07
-3.65250222e-07
-3.81181336e-07
-3.84164903e-07
-3.69743915e-07
-3.65661475e-07
-3.82097819e-07
-3.84008413e-07
-3.70126997e-07
-3.65993437e-07
-3.82106867e-07
-3.84163871e-07
-3.75040912e-07
-3.65373849e-07
-3.64920553e-07
-3.78353583e-07
-3.84444063e-07
-3.78126581e-07
-3.65672241e-07
-3.65050402e-07
-3.78372783e-07
-3.84447143e-07
-3.78147862e-07
-3.65671479e-07
-3.65013724e-07
-3.78408383e-07
-3.84492755e-07
-3.76781432e-07
-3.65434566e-07
-3.64838695e-07
-3.78083499e-07
-3.84548081e-07
-3.76100155e-07
-3.6527033e-07
-3.64732968e-07
-3.78073928e-07
-3.84601882e-07
-3.75473817e-07
-3.65110579e-07
-3.6461398e-07
-3.7795566e-07
-3.84391458e-07
-3.7165244e-07
-3.66224776e-07
-3.81154576e-07
-3.84303923e-07
-3.74497101e-07
-3.65139883e-07
-3.64897546e-07
-3.79107683e-07
-3.84260018e-07
-3.84165692e-07
-3.75734222e-07
-3.66330369e-07
-3.64943762e-07
-3.6486029e-07
-3.79446186e-07
-3.8462716e-07
-3.73241193e-07
-3.64832461e-07
-3.64477872e-07
-3.78162153e-07
-3.84459695e-07
-3.70872183e-07
-3.65925186e-07
-3.81784638e-07
-3.84371587e-07
-3.72635667e-07
-3.64920964e-07
-3.64602527e-07
-3.78881298e-07
-3.84349025e-07
-3.70758802e-07
-3.65994384e-07
-3.82189483e-07
-3.8400655e-07
-3.70335034e-07
-3.66218986e-07
-3.83229262e-07
-3.84153195e-07
-3.73220162e-07
-3.65368465e-07
-3.65141582e-07
-3.81422737e-07
-3.84329742e-07
-3.74417829e-07
-3.65376851e-07
-3.65124189e-07
-3.81907512e-07
-3.84296276e-07
-3.74228516e-07
-3.65366989e-07
-3.65121593e-07
-3.82321961e-07
-3.84259894e-07
-3.74086673e-07
-3.65367194e-07
-3.65133405e-07
-3.82786655e-07
-3.84223438e-07
-3.73973999e-07
-3.65382912e-07
-3.65160585e-07
-3.83249597e-07
)
;

boundaryField
{
    closed
    {
        type            calculated;
        value           nonuniform List<scalar> 0();
    }
    open
    {
        type            calculated;
        value           nonuniform List<scalar> 0();
    }
    sides
    {
        type            empty;
    }
    procBoundary1to0
    {
        type            processor;
        value           uniform -3.85401359e-07;
    }
    procBoundary1to2
    {
        type            processor;
        value           uniform -3.84187918e-07;
    }
}


// ************************************************************************* //
