/*--------------------------------*- C++ -*----------------------------------*\
| =========                 |                                                 |
| \\      /  F ield         | OpenFOAM: The Open Source CFD Toolbox           |
|  \\    /   O peration     | Version:  2306                                  |
|   \\  /    A nd           | Website:  www.openfoam.com                      |
|    \\/     M anipulation  |                                                 |
\*---------------------------------------------------------------------------*/
FoamFile
{
    version     2.0;
    format      ascii;
    arch        "LSB;label=32;scalar=64";
    class       volScalarField;
    location    "0.00064";
    object      prefDPV_T;
}
// * * * * * * * * * * * * * * * * * * * * * * * * * * * * * * * * * * * * * //

dimensions      [1 -1 -1 -1 0 0 0];

internalField   nonuniform List<scalar> 
530
(
-3.83749803e-11
-4.14081123e-11
-4.13647519e-11
-4.06750408e-11
-3.8693276e-11
-4.0337413e-11
-4.15892514e-11
-4.22432069e-11
-3.84377267e-11
-4.02111284e-11
-4.19198937e-11
-4.24178509e-11
-3.85648203e-11
-4.01923983e-11
-4.20278363e-11
-4.23866891e-11
-3.87598188e-11
-4.01616189e-11
-4.20830387e-11
-4.23619878e-11
-3.89023184e-11
-4.02232852e-11
-4.21548618e-11
-4.23377254e-11
-3.90820807e-11
-4.03022044e-11
-4.22007561e-11
-4.23149576e-11
-3.91762777e-11
-4.03831831e-11
-4.21880487e-11
-4.23019482e-11
-3.94768079e-11
-4.049096e-11
-4.21213949e-11
-4.22950972e-11
-3.9747347e-11
-4.06757534e-11
-4.19151496e-11
-4.23008404e-11
-4.01988293e-11
-4.09216758e-11
-4.12420916e-11
-4.16624756e-11
-4.1232723e-11
-4.15580339e-11
-4.0063802e-11
-4.07718147e-11
-4.19636363e-11
-4.22793946e-11
-3.94903372e-11
-4.05294768e-11
-4.2266172e-11
-4.22502222e-11
-3.93595128e-11
-4.0567625e-11
-4.22650204e-11
-4.22491219e-11
-3.93919354e-11
-4.06050246e-11
-4.22761836e-11
-4.22643733e-11
-3.96382407e-11
-4.0702365e-11
-4.23070195e-11
-4.22831435e-11
-3.9755314e-11
-4.0804928e-11
-4.23276583e-11
-4.23068049e-11
-3.99296425e-11
-4.09043377e-11
-4.23324312e-11
-4.23336684e-11
-4.00939395e-11
-4.10170096e-11
-4.23284594e-11
-4.23650089e-11
-4.03099461e-11
-4.11349718e-11
-4.23114921e-11
-4.24001271e-11
-4.05847574e-11
-4.12882496e-11
-4.2274055e-11
-4.24439149e-11
-4.09277804e-11
-4.15041707e-11
-4.19999993e-11
-4.21782862e-11
-4.16067346e-11
-4.18888179e-11
-4.1277664e-11
-4.16487105e-11
-4.22587896e-11
-4.24569783e-11
-4.07233554e-11
-4.13476169e-11
-4.25507896e-11
-4.25485088e-11
-4.07254572e-11
-4.13974236e-11
-4.25900145e-11
-4.25857435e-11
-4.10662251e-11
-4.15251658e-11
-4.24712755e-11
-4.26393979e-11
-4.1705073e-11
-4.15894972e-11
-4.17335368e-11
-4.27020084e-11
-4.25831524e-11
-4.18639965e-11
-4.13158234e-11
-4.24822845e-11
-4.27278648e-11
-4.22941717e-11
-4.12818969e-11
-4.21871564e-11
-4.27612776e-11
-4.26594763e-11
-4.13994262e-11
-4.19386821e-11
-4.28077391e-11
-4.28529931e-11
-4.15854902e-11
-4.18522497e-11
-4.28603601e-11
-4.28893629e-11
-4.17633805e-11
-4.18973918e-11
-4.29087125e-11
-4.29325125e-11
-4.19049013e-11
-4.19830683e-11
-4.29535377e-11
-4.29743456e-11
-4.19936466e-11
-4.21092276e-11
-4.29961777e-11
-4.30238487e-11
-4.20690437e-11
-4.23045872e-11
-4.30362676e-11
-4.30083257e-11
-4.21460651e-11
-4.25635732e-11
-4.30789506e-11
-4.28593301e-11
-4.22454963e-11
-4.28329043e-11
-4.31226688e-11
-4.27218834e-11
-4.2363862e-11
-4.30404708e-11
-4.31641449e-11
-4.26623756e-11
-4.24690912e-11
-4.31740958e-11
-4.32046789e-11
-4.26450453e-11
-4.259733e-11
-4.32411777e-11
-4.32462952e-11
-4.26456691e-11
-4.27977377e-11
-4.327031e-11
-4.31287069e-11
-4.26942225e-11
-4.31861725e-11
-4.32979179e-11
-4.29536648e-11
-4.2933673e-11
-4.33251281e-11
-4.30903479e-11
-4.2918347e-11
-4.32889087e-11
-4.33476568e-11
-4.29279663e-11
-4.29561003e-11
-4.3377995e-11
-4.33700592e-11
-4.28381922e-11
-4.3032429e-11
-4.34044718e-11
-4.33962854e-11
-4.28463797e-11
-4.30617345e-11
-4.34283766e-11
-4.34207013e-11
-4.28662527e-11
-4.30914874e-11
-4.34518853e-11
-4.34436081e-11
-4.2886807e-11
-4.31027213e-11
-4.34719532e-11
-4.34650282e-11
-4.28939939e-11
-4.31295325e-11
-4.3493218e-11
-4.34862862e-11
-4.29255441e-11
-4.31568214e-11
-4.3513487e-11
-4.3506414e-11
-4.29538887e-11
-4.3183778e-11
-4.35323791e-11
-4.35256099e-11
-4.29860501e-11
-4.32105496e-11
-4.35501185e-11
-4.35436804e-11
-4.30204992e-11
-4.32390703e-11
-4.35667352e-11
-4.3560673e-11
-4.30546451e-11
-4.32679228e-11
-4.35821979e-11
-4.357658e-11
-4.30895926e-11
-4.32958464e-11
-4.3596608e-11
-4.3591368e-11
-4.31262675e-11
-4.33217602e-11
-4.36100985e-11
-4.36051734e-11
-4.31657525e-11
-4.3346237e-11
-4.36226307e-11
-4.36180152e-11
-4.3204243e-11
-4.33721032e-11
-4.36341923e-11
-4.36299002e-11
-4.32384833e-11
-4.33976306e-11
-4.36448017e-11
-4.36408677e-11
-4.3271293e-11
-4.34208803e-11
-4.36546292e-11
-4.3650932e-11
-4.33050323e-11
-4.34402853e-11
-4.36637244e-11
-4.36602113e-11
-4.33404204e-11
-4.34589368e-11
-4.36720685e-11
-4.36686927e-11
-4.33712323e-11
-4.34787548e-11
-4.36796329e-11
-4.36764823e-11
-4.33977525e-11
-4.3498131e-11
-4.36864308e-11
-4.36836127e-11
-4.3421896e-11
-4.3516983e-11
-4.36925949e-11
-4.36901205e-11
-4.3444922e-11
-4.35352541e-11
-4.36982146e-11
-4.36960663e-11
-4.34678548e-11
-4.35529385e-11
-4.37033766e-11
-4.37015193e-11
-4.34917158e-11
-4.35698841e-11
-4.3708224e-11
-4.37065444e-11
-4.35175143e-11
-4.35853342e-11
-4.37131057e-11
-4.3711241e-11
-4.35551659e-11
-4.35963812e-11
-4.37197977e-11
-4.3716388e-11
-4.36131682e-11
-4.36041153e-11
-4.36306976e-11
-4.37207996e-11
-4.37237716e-11
-4.36193841e-11
-4.36150279e-11
-4.37248265e-11
-4.37239717e-11
-4.36414741e-11
-4.36208797e-11
-4.37279092e-11
-4.37261406e-11
-4.36534669e-11
-4.36357148e-11
-4.37301523e-11
-4.37285134e-11
-4.3661809e-11
-4.36500426e-11
-4.37319006e-11
-4.37306988e-11
-4.36658362e-11
-4.36648853e-11
-4.37332923e-11
-4.37325827e-11
-4.36671124e-11
-4.36808598e-11
-4.37344396e-11
-4.37338986e-11
-4.3664916e-11
-4.36905337e-11
-4.37356483e-11
-4.3735364e-11
-4.36726785e-11
-4.36935818e-11
-4.37367195e-11
-4.373661e-11
-4.36811782e-11
-4.36985245e-11
-4.37378528e-11
-4.3737731e-11
-4.36882759e-11
-4.37034396e-11
-4.37388472e-11
-4.37387274e-11
-4.36943089e-11
-4.37077585e-11
-4.37396963e-11
-4.37395833e-11
-4.36993828e-11
-4.37114873e-11
-4.37404207e-11
-4.37403206e-11
-4.37037014e-11
-4.37147508e-11
-4.37410366e-11
-4.37409537e-11
-4.37073873e-11
-4.37176318e-11
-4.37415604e-11
-4.37414911e-11
-4.37105397e-11
-4.37201527e-11
-4.37420065e-11
-4.37419553e-11
-4.37134081e-11
-4.37225475e-11
-4.37424023e-11
-4.37423705e-11
-4.37162135e-11
-4.3724826e-11
-4.37427572e-11
-4.37427424e-11
-4.37189732e-11
-4.37270646e-11
-4.37430904e-11
-4.3743087e-11
-4.37218283e-11
-4.3729386e-11
-4.37434451e-11
-4.37434433e-11
-4.37254732e-11
-4.37322005e-11
-4.37439514e-11
-4.37438707e-11
-4.37315125e-11
-4.37358689e-11
-4.37411555e-11
-4.37436908e-11
-4.37441774e-11
-4.37433377e-11
-4.37373764e-11
-4.37402683e-11
-4.37443063e-11
-4.37443112e-11
-4.37351901e-11
-4.37382431e-11
-4.37443242e-11
-4.3744305e-11
-4.37347292e-11
-4.37382687e-11
-4.37443987e-11
-4.37443572e-11
-4.3734876e-11
-4.37384565e-11
-4.37444611e-11
-4.37444206e-11
-4.37353523e-11
-4.3738869e-11
-4.37445236e-11
-4.37444871e-11
-4.37360521e-11
-4.37393462e-11
-4.37445828e-11
-4.37445505e-11
-4.37368607e-11
-4.37398578e-11
-4.37446384e-11
-4.3744609e-11
-4.37376899e-11
-4.37403758e-11
-4.37446887e-11
-4.37446622e-11
-4.37384995e-11
-4.37408837e-11
-4.37447337e-11
-4.37447104e-11
-4.3739276e-11
-4.37413715e-11
-4.3744774e-11
-4.37447536e-11
-4.3740014e-11
-4.37418344e-11
-4.37448101e-11
-4.37447925e-11
-4.37407118e-11
-4.37422715e-11
-4.37448425e-11
-4.37448275e-11
-4.37413693e-11
-4.37426838e-11
-4.37448718e-11
-4.37448592e-11
-4.37419884e-11
-4.37430725e-11
-4.37448983e-11
-4.3744888e-11
-4.37425731e-11
-4.37434391e-11
-4.37449227e-11
-4.37449143e-11
-4.37431303e-11
-4.3743783e-11
-4.3744945e-11
-4.37449388e-11
-4.37436609e-11
-4.37441173e-11
-4.37449655e-11
-4.37449615e-11
-4.37441496e-11
-4.37444341e-11
-4.37449828e-11
-4.37449827e-11
-4.3744596e-11
-4.37447755e-11
-4.37450007e-11
-4.37449992e-11
-4.37449587e-11
-4.37450054e-11
-4.37450046e-11
-4.37449979e-11
-4.37449992e-11
-4.37449934e-11
-4.37449933e-11
-4.37449884e-11
-4.37449877e-11
-4.37449836e-11
-4.37449824e-11
-4.37449791e-11
-4.37449777e-11
-4.3744975e-11
-4.37449735e-11
-4.37449713e-11
-4.374497e-11
-4.37449683e-11
-4.37449671e-11
-4.37449658e-11
-4.37449649e-11
-4.3744964e-11
-4.37449634e-11
-4.37449628e-11
-4.37449624e-11
-4.3744962e-11
-4.37449618e-11
-4.37449616e-11
-4.37449615e-11
-4.37449615e-11
-4.37449614e-11
-4.37449614e-11
-4.37449614e-11
-4.37449614e-11
-4.37449614e-11
-4.37449614e-11
-4.37449614e-11
-4.37449614e-11
-4.37449614e-11
-4.37449614e-11
-4.37449614e-11
-4.37449614e-11
-4.37449614e-11
-4.37449614e-11
-4.37449614e-11
-4.37449614e-11
-4.37449614e-11
-4.37449614e-11
-4.37449614e-11
-4.37449614e-11
-4.37449614e-11
-4.37449614e-11
-4.37449614e-11
-4.37449614e-11
-4.37449614e-11
-4.37449614e-11
-4.37449614e-11
-4.37449614e-11
-4.37449614e-11
-4.37449614e-11
-4.37449614e-11
-4.37449614e-11
-4.37449614e-11
-4.37449614e-11
-4.37449614e-11
-4.37449614e-11
-4.37449614e-11
-4.37449614e-11
-4.37449614e-11
-4.37449614e-11
-4.37449614e-11
-4.37449614e-11
-4.37449614e-11
-4.37449614e-11
-4.37449614e-11
-4.37449614e-11
)
;

boundaryField
{
    closed
    {
        type            calculated;
        value           nonuniform List<scalar> 0();
    }
    open
    {
        type            calculated;
        value           uniform -4.37449614e-11;
    }
    sides
    {
        type            empty;
    }
    procBoundary5to4
    {
        type            processor;
        value           uniform -3.8716988e-11;
    }
}


// ************************************************************************* //
