/*--------------------------------*- C++ -*----------------------------------*\
| =========                 |                                                 |
| \\      /  F ield         | OpenFOAM: The Open Source CFD Toolbox           |
|  \\    /   O peration     | Version:  2306                                  |
|   \\  /    A nd           | Website:  www.openfoam.com                      |
|    \\/     M anipulation  |                                                 |
\*---------------------------------------------------------------------------*/
FoamFile
{
    version     2.0;
    format      ascii;
    arch        "LSB;label=32;scalar=64";
    class       volScalarField;
    location    "0.00154";
    object      prefDZ_H2;
}
// * * * * * * * * * * * * * * * * * * * * * * * * * * * * * * * * * * * * * //

dimensions      [1 -1 -1 0 0 0 0];

internalField   nonuniform List<scalar> 
530
(
0.000173569077
0.000173670169
0.000174732696
0.000174759239
0.000173931964
0.000174015002
0.000175065869
0.000175054807
0.000174259946
0.000174331418
0.000175353357
0.000175328536
0.000174546964
0.000174631736
0.00017559839
0.000175580894
0.000174796123
0.000174923564
0.00017581162
0.000175793072
0.000175021799
0.00017518449
0.000176037417
0.000176023509
0.000175280766
0.000175414097
0.000176266624
0.000176241242
0.000175536727
0.000175640421
0.000176493374
0.000176456684
0.000175779258
0.000175869654
0.000176716668
0.000176671411
0.000176011919
0.000176092707
0.000176914441
0.000176885772
0.000176237358
0.000176311706
0.000177090898
0.000177095517
0.000176458351
0.000176525559
0.000177266968
0.000177299615
0.000176675226
0.000176732823
0.000177455657
0.00017749933
0.000176893564
0.000176931584
0.000177657109
0.000177680366
0.000177088157
0.000177133812
0.000177861425
0.000177849657
0.000177256024
0.000177297705
0.000178010488
0.000178007368
0.000177421125
0.000177456221
0.000178159209
0.000178159502
0.000177583779
0.000177616275
0.00017830921
0.000178310461
0.000177744033
0.000177776754
0.000178458374
0.000178462242
0.00017790134
0.000177938006
0.000178604735
0.000178612648
0.000178056182
0.000178099327
0.000178747471
0.000178761647
0.000178207063
0.000178260468
0.000178899436
0.000178911046
0.00017835707
0.00017841757
0.000179055381
0.000179067226
0.000178527175
0.000178583545
0.000179215803
0.0001792275
0.000178696883
0.000178755971
0.00017937645
0.000179390137
0.000178865483
0.000178926897
0.000179536893
0.000179553642
0.000179034181
0.000179096392
0.000179696755
0.000179716361
0.000179203025
0.000179265225
0.000179856278
0.000179878429
0.000179372122
0.000179434046
0.000180016349
0.000180040931
0.000179541346
0.000179603259
0.000180176691
0.000180204371
0.000179711089
0.000179773079
0.000180336883
0.000180368254
0.000179879084
0.000179943428
0.000180497833
0.000180533039
0.000180047107
0.000180113418
0.000180660162
0.000180698046
0.000180216214
0.000180284024
0.000180824158
0.000180863472
0.000180386584
0.000180456133
0.000180989927
0.000181030434
0.000180558406
0.000180629629
0.000181156604
0.000181197897
0.000180731865
0.000180804216
0.000181325479
0.00018136693
0.000180907104
0.000180980095
0.0001814971
0.000181536581
0.000181082426
0.000181157333
0.000181679469
0.000181712478
0.00018126946
0.000181336028
0.000181867938
0.000181896335
0.000181465618
0.00018152789
0.000182059974
0.000182083968
0.000181662775
0.000181720807
0.000182253893
0.000182274412
0.000181860689
0.000181914592
0.000182447809
0.000182465264
0.000182059362
0.000182109193
0.000182642056
0.000182657175
0.00018225868
0.000182304803
0.000182835841
0.000182850071
0.000182457922
0.000182501429
0.000183029629
0.000183044281
0.000182658757
0.000182698677
0.000183207365
0.000183231092
0.000182838361
0.000182888478
0.000183375489
0.000183405714
0.00018300667
0.000183061534
0.000183537498
0.000183575317
0.000183173991
0.000183234088
0.000183698464
0.000183742169
0.000183340455
0.000183405632
0.000183858151
0.000183905086
0.000183505635
0.000183575617
0.000184016621
0.00018406661
0.000183669825
0.000183742463
0.000184173662
0.000184221207
0.000183831086
0.000183906485
0.0001843291
0.000184376642
0.000183993857
0.000184070056
0.000184485615
0.000184528629
0.00018415524
0.000184230325
0.000184648381
0.000184687743
0.000184326784
0.000184390051
0.000184813584
0.000184845144
0.000184494514
0.000184554749
0.00018497529
0.000185001856
0.000184657923
0.000184715588
0.000185133616
0.000185155567
0.00018481788
0.000184873082
0.000185286471
0.000185306093
0.000184974261
0.000185027583
0.000185434242
0.000185453447
0.000185126895
0.000185179269
0.000185578075
0.000185598417
0.000185276485
0.000185329581
0.000185718579
0.000185740741
0.000185423013
0.000185474965
0.000185855427
0.0001858755
0.000185564801
0.000185619081
0.000185990052
0.000186011133
0.000185706804
0.000185758001
0.000186124401
0.000186144471
0.000185846999
0.000185894412
0.00018625582
0.000186275255
0.000185983854
0.000186028482
0.000186383816
0.000186403112
0.000186115535
0.000186157649
0.000186508722
0.00018652784
0.000186244336
0.000186284391
0.000186631337
0.000186648075
0.000186370862
0.000186415941
0.000186753501
0.000186768267
0.000186496418
0.000186539913
0.000186870996
0.00018687984
0.000186612938
0.000186655345
0.00018697897
0.000186985231
0.000186720668
0.000186763557
0.000187080377
0.000187085528
0.000186824201
0.000186867213
0.000187178238
0.000187183295
0.000186926444
0.000186976482
0.000187275968
0.000187280998
0.00018702426
0.000187084277
0.000187370071
0.00018737782
0.000187122769
0.00018718345
0.000187458884
0.000187471931
0.00018721939
0.000187283355
0.000187547522
0.000187559395
0.000187313904
0.000187381787
0.00018763279
0.000187643053
0.000187402906
0.000187476082
0.000187713278
0.000187723327
0.000187489528
0.000187564574
0.000187790366
0.000187799974
0.000187574424
0.000187649114
0.000187863443
0.000187873565
0.000187659997
0.000187730247
0.000187933922
0.000187944005
0.000187743066
0.000187808565
0.000188001896
0.000188011737
0.000187823038
0.00018788458
0.000188067397
0.000188076776
0.000187900328
0.000187957466
0.000188130054
0.000188139113
0.000187973858
0.000188028159
0.00018818983
0.000188198684
0.000188043495
0.000188095367
0.000188246909
0.000188255306
0.000188110583
0.000188158533
0.000188301522
0.000188309019
0.000188175218
0.000188218045
0.000188353543
0.000188360088
0.00018823644
0.000188275073
0.000188402727
0.000188408649
0.000188293437
0.000188329625
0.00018844914
0.000188454662
0.000188347285
0.000188380867
0.000188492981
0.000188498109
0.000188398438
0.000188429374
0.000188534374
0.00018853908
0.000188446316
0.000188475343
0.000188573116
0.000188577568
0.000188491217
0.000188518763
0.000188609575
0.000188613645
0.000188533421
0.000188558943
0.000188643865
0.000188647568
0.000188573924
0.00018859704
0.000188676107
0.000188679266
0.000188610824
0.000188632676
0.000188706091
0.000188708857
0.000188645706
0.000188665522
0.000188733973
0.000188736412
0.000188678092
0.000188696172
0.000188759903
0.000188762083
0.000188708269
0.000188724652
0.000188784072
0.00018878591
0.000188736556
0.000188751716
0.000188806997
0.00018880802
0.000188763097
0.000188776069
0.000188827823
0.000188828556
0.000188787416
0.000188798928
0.000188847027
0.000188847585
0.000188809757
0.000188820052
0.000188864764
0.000188865159
0.000188830633
0.000188839389
0.000188881129
0.000188881381
0.000188849903
0.000188857462
0.000188896172
0.000188896308
0.000188867357
0.000188874005
0.000188909944
0.000188910064
0.000188883749
0.000188889314
0.000188922592
0.000188922844
0.000188898485
0.000188903594
0.000188934602
0.000188935321
0.000188913522
0.000188918616
0.000188948477
0.000188949096
0.00018892931
0.000188935343
0.000188957684
0.000188961423
0.000188953832
0.000188958751
0.000188962519
0.00018896754
0.000188968556
0.000188973649
0.00018897548
0.000188980535
0.000188982668
0.000188987584
0.00018899005
0.000188994751
0.000188997471
0.000189001892
0.000189004765
0.000189009084
0.000189011741
0.000189015855
0.000189018208
0.000189021978
0.000189023978
0.000189027265
0.000189028882
0.000189031581
0.00018903281
0.000189034862
0.00018903573
0.000189037138
0.000189037701
0.000189038544
0.000189038871
0.000189039289
0.000189039454
0.000189039614
0.000189039692
0.000189039742
0.00018903976
0.000189039563
0.000189039414
0.000189039309
0.000189039245
0.000189039205
0.000189039181
0.000189039169
0.000189039163
0.000189039161
0.00018903916
0.00018903916
0.00018903916
0.00018903916
0.00018903916
0.00018903916
0.00018903916
0.00018903916
0.00018903916
0.00018903916
0.00018903916
0.00018903916
0.00018903916
0.00018903916
0.00018903916
0.00018903916
0.00018903916
0.00018903916
0.00018903916
0.00018903916
0.00018903916
0.00018903916
0.00018903916
0.00018903916
0.00018903916
0.00018903916
0.00018903916
0.00018903916
)
;

boundaryField
{
    closed
    {
        type            calculated;
        value           nonuniform List<scalar> 0();
    }
    open
    {
        type            calculated;
        value           uniform 0.00018903916;
    }
    sides
    {
        type            empty;
    }
    procBoundary5to4
    {
        type            processor;
        value           uniform 0.000174436894;
    }
}


// ************************************************************************* //
