/*--------------------------------*- C++ -*----------------------------------*\
| =========                 |                                                 |
| \\      /  F ield         | OpenFOAM: The Open Source CFD Toolbox           |
|  \\    /   O peration     | Version:  2306                                  |
|   \\  /    A nd           | Website:  www.openfoam.com                      |
|    \\/     M anipulation  |                                                 |
\*---------------------------------------------------------------------------*/
FoamFile
{
    version     2.0;
    format      ascii;
    arch        "LSB;label=32;scalar=64";
    class       volScalarField;
    location    "0.00154";
    object      rho;
}
// * * * * * * * * * * * * * * * * * * * * * * * * * * * * * * * * * * * * * //

dimensions      [1 -3 0 0 0 0 0];

internalField   nonuniform List<scalar> 
530
(
0.224700959
0.223997227
0.223322368
0.223262247
0.223880609
0.223352653
0.222560252
0.222594272
0.223147787
0.222776451
0.221924703
0.221988541
0.222500362
0.222245318
0.221391239
0.221440069
0.221926179
0.221742383
0.220935487
0.220985322
0.221409185
0.221267823
0.220463228
0.220500279
0.220880142
0.22082256
0.219987153
0.220046869
0.220382994
0.22037895
0.219518388
0.219601288
0.219917837
0.219932034
0.219059576
0.219160506
0.219474239
0.219496853
0.218648812
0.218724127
0.219046571
0.219073011
0.218279557
0.218301954
0.218631421
0.218661249
0.217923229
0.217899433
0.21823176
0.218264942
0.217565854
0.217518768
0.217842784
0.217884118
0.217201426
0.217181856
0.217500819
0.217512296
0.216845445
0.216877704
0.217207868
0.217212974
0.216586739
0.216597587
0.216919295
0.21692664
0.216325412
0.216327704
0.216633228
0.216639225
0.216058469
0.216057429
0.216348648
0.216351016
0.215790123
0.215782519
0.216065985
0.216061143
0.215528178
0.215511551
0.215785516
0.215771015
0.215273263
0.215243074
0.215508027
0.215480606
0.214997018
0.21497105
0.215228934
0.215192712
0.214709606
0.214682768
0.214921399
0.214891481
0.214410788
0.214383917
0.214613676
0.214581109
0.214110428
0.214079396
0.214308025
0.214272836
0.21381049
0.213773192
0.214002757
0.21396679
0.213512207
0.213469031
0.213697543
0.213661996
0.213219566
0.213171774
0.213392422
0.213357773
0.212928271
0.212875626
0.213087494
0.213053514
0.212637383
0.212578562
0.212782284
0.212748695
0.212347564
0.212281304
0.21248332
0.212444444
0.212056709
0.21198264
0.212185183
0.212144014
0.211762929
0.211683344
0.211884467
0.211842021
0.21146533
0.211382706
0.211580731
0.211536682
0.211163475
0.211079172
0.211273648
0.211228078
0.210864429
0.210778571
0.210962886
0.210915947
0.210559952
0.210473744
0.210647925
0.210599585
0.210248227
0.210165953
0.210329258
0.210278162
0.209913098
0.20984327
0.209991477
0.209950086
0.209562575
0.209502168
0.209640763
0.209602792
0.209203041
0.209151813
0.209286251
0.209251715
0.208838746
0.208794989
0.208929305
0.208898128
0.208477968
0.208441414
0.208570751
0.208542989
0.208119206
0.208087957
0.208211337
0.208187006
0.207762515
0.207733552
0.207852056
0.207831554
0.207407621
0.20737818
0.207493776
0.207478148
0.207086366
0.207039405
0.207174871
0.207144237
0.206787273
0.206727358
0.206874836
0.206839439
0.206500936
0.206425644
0.206576548
0.206536457
0.206215826
0.206129134
0.206279509
0.206233885
0.205935869
0.205842974
0.205984129
0.20593295
0.205656722
0.205557665
0.205690185
0.205635345
0.205378106
0.205283802
0.205399887
0.205341027
0.20510067
0.205006424
0.205108811
0.205047749
0.204818519
0.204732924
0.204818641
0.204757015
0.204520377
0.204441246
0.204517094
0.204465798
0.204213489
0.204149494
0.204219585
0.204170014
0.203911492
0.203857416
0.203927575
0.203879565
0.203615016
0.203570188
0.203640865
0.203594491
0.203331391
0.203291762
0.203360356
0.203315021
0.203058112
0.203019456
0.203085268
0.203040883
0.202792626
0.20275215
0.202815483
0.202770746
0.202533645
0.202489549
0.20255131
0.202508041
0.202281589
0.202241791
0.202294983
0.202249579
0.202033511
0.201991719
0.202040904
0.201998352
0.201784505
0.201744564
0.201790884
0.201751502
0.201539748
0.201501153
0.20154736
0.201509422
0.201300541
0.201262244
0.201313337
0.201277206
0.201066096
0.201028206
0.201084348
0.201049862
0.200834907
0.200801761
0.200860102
0.200821486
0.200603457
0.200574641
0.200639678
0.200602795
0.200383359
0.200366443
0.200431709
0.200395589
0.200182342
0.200170764
0.20023508
0.200198599
0.199994304
0.199984945
0.200045537
0.200008977
0.199812581
0.199803254
0.199860003
0.199816663
0.199629614
0.19962027
0.199681149
0.199628152
0.199452197
0.199437588
0.199504057
0.199450495
0.199283873
0.199259149
0.199331774
0.19927399
0.199115493
0.199093175
0.199164418
0.199102547
0.198953515
0.198934423
0.199005281
0.198938191
0.198800824
0.198782175
0.198851196
0.198782146
0.198654257
0.198636266
0.198701749
0.198632232
0.19851446
0.19849538
0.198554124
0.198488124
0.198379035
0.198359871
0.198411114
0.198349204
0.198247647
0.198228826
0.198273354
0.198214849
0.198120341
0.198102321
0.19814043
0.19808595
0.197998016
0.197980556
0.198013527
0.197961664
0.197880905
0.197863823
0.197892817
0.197843218
0.197768673
0.197752447
0.197776951
0.197731031
0.197660904
0.197646364
0.197666222
0.197624704
0.19755788
0.197545135
0.197561465
0.197523801
0.197460126
0.197448588
0.197463018
0.197427688
0.19736754
0.197356766
0.197369741
0.197336903
0.197279722
0.197269678
0.197281114
0.1972508
0.197196503
0.197187375
0.197197681
0.197169207
0.197118888
0.197110283
0.197119201
0.197092184
0.197045671
0.197037795
0.197045302
0.197020205
0.196976497
0.196969307
0.196974863
0.19695204
0.196911128
0.196904997
0.196909703
0.196888103
0.196850143
0.196844813
0.196848368
0.196828757
0.196793327
0.196788625
0.196791201
0.196773281
0.196740297
0.196736077
0.196737792
0.196721514
0.196690649
0.196687067
0.196687754
0.196672635
0.196643398
0.196641341
0.196640832
0.196627794
0.196600112
0.196598575
0.196597359
0.196585698
0.196559863
0.196558621
0.196556997
0.196546466
0.196522317
0.196521321
0.196519125
0.19651001
0.196487235
0.196486442
0.196483797
0.196475764
0.196454549
0.1964539
0.196451146
0.196443888
0.196424114
0.19642336
0.196420249
0.196413826
0.196395335
0.196394072
0.196391236
0.19638488
0.196366784
0.196364257
0.196361867
0.196355014
0.196333286
0.196330566
0.196332252
0.196324401
0.196299301
0.196293705
0.19629558
0.196288426
0.196280058
0.196272466
0.196266717
0.196258609
0.196252048
0.196243575
0.19623661
0.196227945
0.1962205
0.196211853
0.196203969
0.1961956
0.196187322
0.19617901
0.196171067
0.19616301
0.196155669
0.196148139
0.196141626
0.196134912
0.196129439
0.196123816
0.196119558
0.196115258
0.196112319
0.196109495
0.196107896
0.196106578
0.196106255
0.196106329
0.196107136
0.196108362
0.196110074
0.19611214
0.196114545
0.196117462
0.196120479
0.196123543
0.196126601
0.19612961
0.196132505
0.19613519
0.196137542
0.196139405
0.196140608
0.196141009
0.19614055
0.196139286
0.196137351
0.196134944
0.196132431
0.196130602
0.19613075
0.19613416
0.19614099
0.196149198
0.196154967
0.196155124
0.19614934
0.196139907
0.19612938
0.19611946
0.196111381
0.196106061
0.196103952
0.196105233
0.196109998
0.1961239
0.196150065
0.196173939
0.196173592
0.196146525
)
;

boundaryField
{
    closed
    {
        type            calculated;
        value           nonuniform List<scalar> 0();
    }
    open
    {
        type            calculated;
        value           uniform 0.196146561;
    }
    sides
    {
        type            empty;
    }
    procBoundary5to4
    {
        type            processor;
        value           uniform 0.223999759;
    }
}


// ************************************************************************* //
