/*--------------------------------*- C++ -*----------------------------------*\
| =========                 |                                                 |
| \\      /  F ield         | OpenFOAM: The Open Source CFD Toolbox           |
|  \\    /   O peration     | Version:  2306                                  |
|   \\  /    A nd           | Website:  www.openfoam.com                      |
|    \\/     M anipulation  |                                                 |
\*---------------------------------------------------------------------------*/
FoamFile
{
    version     2.0;
    format      ascii;
    arch        "LSB;label=32;scalar=64";
    class       volScalarField;
    location    "0.0004";
    object      prefDZ_H2O;
}
// * * * * * * * * * * * * * * * * * * * * * * * * * * * * * * * * * * * * * //

dimensions      [1 -1 -1 0 0 0 0];

internalField   nonuniform List<scalar> 
530
(
-7.53979791e-07
-7.52119015e-07
-7.52078866e-07
-7.52079952e-07
-7.52080021e-07
-7.52080022e-07
-7.52080022e-07
-7.52080022e-07
-7.52080022e-07
-7.52080022e-07
-7.52080022e-07
-7.52080022e-07
-7.52080022e-07
-7.52080022e-07
-7.52080022e-07
-7.52080022e-07
-7.52080022e-07
-7.52080022e-07
-7.52080022e-07
-7.52080022e-07
-7.52080022e-07
-7.52080022e-07
-7.52080022e-07
-7.52080022e-07
-7.52080022e-07
-7.52080022e-07
-7.52080022e-07
-7.52080022e-07
-7.52080022e-07
-7.52080022e-07
-7.52080022e-07
-7.52080022e-07
-7.52080022e-07
-7.52080022e-07
-7.52080022e-07
-7.52080022e-07
-7.52080022e-07
-7.52080022e-07
-7.52080022e-07
-7.52080022e-07
-7.52080022e-07
-7.52080022e-07
-7.52080022e-07
-7.52080022e-07
-7.52080022e-07
-7.52080022e-07
-7.52080022e-07
-7.52080022e-07
-7.52080022e-07
-7.52080022e-07
-7.52080022e-07
-7.52080022e-07
-7.52080022e-07
-7.52080022e-07
-7.52080022e-07
-7.52080022e-07
-7.52080022e-07
-7.52080022e-07
-7.52080022e-07
-7.52080022e-07
-7.52080022e-07
-7.52080022e-07
-7.52080022e-07
-7.52080022e-07
-7.52080022e-07
-7.52080022e-07
-7.52080022e-07
-7.52080022e-07
-7.52080022e-07
-7.52080022e-07
-7.52080022e-07
-7.52080022e-07
-7.52080022e-07
-7.52080022e-07
-7.52080022e-07
-7.52080022e-07
-7.52080022e-07
-7.52080022e-07
-7.52080022e-07
-7.52080022e-07
-7.52080022e-07
-7.52080022e-07
-7.52080022e-07
-7.52080021e-07
-7.52080021e-07
-7.52080024e-07
-7.5208004e-07
-7.52079987e-07
-7.52079739e-07
-7.52080323e-07
-7.52083392e-07
-7.52077783e-07
-7.52047159e-07
-7.52088063e-07
-7.52313286e-07
-7.52090885e-07
-7.50842065e-07
-7.51743055e-07
-7.5569461e-07
-7.53957088e-07
-7.38902747e-07
-7.39594282e-07
-7.7380199e-07
-7.73924166e-07
-7.35092058e-07
-7.34624015e-07
-7.74330552e-07
-7.74466422e-07
-7.38511256e-07
-7.35334375e-07
-7.38627192e-07
-7.74683278e-07
-7.73302571e-07
-7.36175206e-07
-7.34829789e-07
-7.75124448e-07
-7.74149483e-07
-7.35621083e-07
-7.34704775e-07
-7.75258338e-07
-7.74333096e-07
-7.35430873e-07
-7.34683214e-07
-7.75266279e-07
-7.74362055e-07
-7.35312425e-07
-7.34685513e-07
-7.7516069e-07
-7.74280612e-07
-7.35490231e-07
-7.35018262e-07
-7.74862073e-07
-7.74082634e-07
-7.36344243e-07
-7.36143855e-07
-7.74264772e-07
-7.74220253e-07
-7.37600158e-07
-7.34784946e-07
-7.36916218e-07
-7.74332043e-07
-7.73347203e-07
-7.3733241e-07
-7.36681252e-07
-7.74006423e-07
-7.73915997e-07
-7.37860677e-07
-7.35029918e-07
-7.36971153e-07
-7.74452618e-07
-7.73493663e-07
-7.37076414e-07
-7.36085198e-07
-7.74966485e-07
-7.74144771e-07
-7.34614569e-07
-7.33786033e-07
-7.75390205e-07
-7.7456574e-07
-7.34911443e-07
-7.34416146e-07
-7.75145076e-07
-7.74375329e-07
-7.35521756e-07
-7.35055882e-07
-7.74714673e-07
-7.74110868e-07
-7.36443197e-07
-7.36282594e-07
-7.74111514e-07
-7.74235199e-07
-7.37439945e-07
-7.34991492e-07
-7.36746305e-07
-7.74447127e-07
-7.73504445e-07
-7.36322305e-07
-7.35463618e-07
-7.74329981e-07
-7.7372861e-07
-7.36334911e-07
-7.36032971e-07
-7.7391998e-07
-7.74061235e-07
-7.3745671e-07
-7.34985338e-07
-7.36936298e-07
-7.74187369e-07
-7.73409492e-07
-7.37031175e-07
-7.36547581e-07
-7.73800579e-07
-7.73999282e-07
-7.37721398e-07
-7.35147773e-07
-7.37344576e-07
-7.74476924e-07
-7.73547189e-07
-7.35999827e-07
-7.35164579e-07
-7.74620931e-07
-7.74054251e-07
-7.35209282e-07
-7.34630761e-07
-7.74679277e-07
-7.74196311e-07
-7.35098943e-07
-7.34830325e-07
-7.74470522e-07
-7.74132087e-07
-7.3581477e-07
-7.35863199e-07
-7.73910291e-07
-7.74293316e-07
-7.37583336e-07
-7.35210956e-07
-7.37200348e-07
-7.74477299e-07
-7.73551876e-07
-7.36110188e-07
-7.35363083e-07
-7.74539018e-07
-7.7403816e-07
-7.35186156e-07
-7.34848148e-07
-7.74619283e-07
-7.74310644e-07
-7.34784035e-07
-7.34725681e-07
-7.73821226e-07
-7.74414045e-07
-7.39979634e-07
-7.35034637e-07
-7.37261658e-07
-7.74469784e-07
-7.73413206e-07
-7.35903867e-07
-7.35263066e-07
-7.74307658e-07
-7.7372021e-07
-7.36185503e-07
-7.35958761e-07
-7.738409e-07
-7.7389939e-07
-7.37609409e-07
-7.35282181e-07
-7.36901847e-07
-7.74125162e-07
-7.73173361e-07
-7.36858298e-07
-7.36351114e-07
-7.73817021e-07
-7.7320115e-07
-7.38685142e-07
-7.38467129e-07
-7.50231031e-07
-7.41275273e-07
-7.38152703e-07
-7.73616586e-07
-7.73572599e-07
-7.39346702e-07
-7.35406462e-07
-7.37768446e-07
-7.7443119e-07
-7.7333857e-07
-7.36229553e-07
-7.35407983e-07
-7.74896583e-07
-7.73808689e-07
-7.35993778e-07
-7.3519828e-07
-7.74817254e-07
-7.7419096e-07
-7.37393707e-07
-7.34163514e-07
-7.53653557e-07
-7.74612336e-07
-7.36524369e-07
-7.35558362e-07
-7.75984057e-07
-7.74490295e-07
-7.75287452e-07
-7.34153744e-07
-7.31235453e-07
-7.76050337e-07
-7.74748788e-07
-7.36073344e-07
-7.35406297e-07
-7.74889959e-07
-7.74083672e-07
-7.43591685e-07
-7.35653486e-07
-7.36758255e-07
-7.741926e-07
-7.73630727e-07
-7.39643047e-07
-7.35493603e-07
-7.36682332e-07
-7.74454195e-07
-7.73343975e-07
-7.37386008e-07
-7.36262263e-07
-7.74789934e-07
-7.73698068e-07
-7.39151724e-07
-7.35667707e-07
-7.3699069e-07
-7.7423988e-07
-7.73413451e-07
-7.39265719e-07
-7.35911713e-07
-7.41208175e-07
-7.74021999e-07
-7.73211521e-07
-7.38954379e-07
-7.34906749e-07
-7.41495766e-07
-7.74172598e-07
-7.72836565e-07
-7.41500025e-07
-7.37139511e-07
-7.38198221e-07
-7.46226829e-07
-7.73322076e-07
-7.73600044e-07
-7.41065817e-07
-7.3518267e-07
-7.37015178e-07
-7.74423036e-07
-7.73631218e-07
-7.42230785e-07
-7.3549759e-07
-7.36467603e-07
-7.74947228e-07
-7.73504057e-07
-7.36727356e-07
-7.35178438e-07
-7.75957129e-07
-7.73820562e-07
-7.36897701e-07
-7.35603057e-07
-7.75499691e-07
-7.74019676e-07
-7.40347447e-07
-7.35457623e-07
-7.35720233e-07
-7.74758074e-07
-7.73829248e-07
-7.38584207e-07
-7.352897e-07
-7.49113576e-07
-7.74538416e-07
-7.73603846e-07
-7.36792003e-07
-7.33878714e-07
-7.75986972e-07
-7.74403605e-07
-7.41168978e-07
-7.35313493e-07
-7.35980197e-07
-7.75184831e-07
-7.73660539e-07
-7.37534572e-07
-7.35468251e-07
-7.75706836e-07
-7.73841275e-07
-7.4362095e-07
-7.35587623e-07
-7.35935547e-07
-7.74524929e-07
-7.73796864e-07
-7.42627231e-07
-7.35510606e-07
-7.40915667e-07
-7.74540637e-07
-7.76141365e-07
-7.38149036e-07
-7.35559645e-07
-7.52081435e-07
-7.75089995e-07
-7.62280333e-07
-7.35139068e-07
-7.35230955e-07
-7.75302323e-07
-7.73964409e-07
-7.37801567e-07
-7.35468202e-07
-7.75980834e-07
-7.74180506e-07
-7.4136586e-07
-7.35181879e-07
-7.36195791e-07
-7.75437068e-07
-7.73641982e-07
-7.37331749e-07
-7.35141271e-07
-7.76652323e-07
-7.73956372e-07
-7.37303214e-07
-7.35439507e-07
-7.76148334e-07
-7.74127614e-07
-7.42007559e-07
-7.35223471e-07
-7.35136702e-07
-7.75213314e-07
-7.73861493e-07
-7.3829491e-07
-7.35895471e-07
-7.75914978e-07
-7.7402871e-07
-7.42552047e-07
-7.35268281e-07
-7.35121454e-07
-7.75331427e-07
-7.73942296e-07
-7.38259857e-07
-7.35816189e-07
-7.75965929e-07
-7.74223808e-07
-7.43400016e-07
-7.35324092e-07
-7.35288538e-07
-7.75677562e-07
-7.74011145e-07
-7.37602665e-07
-7.35057342e-07
-7.77206718e-07
-7.742618e-07
-7.36484632e-07
-7.34614136e-07
-7.77323125e-07
-7.74358296e-07
-7.3710618e-07
-7.35115407e-07
-7.76548127e-07
-7.7436614e-07
-7.43664562e-07
-7.35179967e-07
-7.34946312e-07
-7.75833487e-07
-7.73927226e-07
-7.38539136e-07
-7.35840104e-07
-7.76111491e-07
-7.73914593e-07
-7.44392052e-07
-7.35637756e-07
-7.35495546e-07
-7.75735781e-07
-7.73949446e-07
-7.46323334e-07
-7.35617027e-07
-7.35827859e-07
-7.75135004e-07
-7.73778969e-07
-7.38311924e-07
-7.35343689e-07
-7.76138245e-07
-7.74211759e-07
-7.43378111e-07
-7.35238138e-07
-7.36915171e-07
-7.75640955e-07
-7.73664293e-07
-7.36994401e-07
-7.34697328e-07
-7.7663637e-07
-7.74304166e-07
-7.41019911e-07
-7.35883576e-07
-7.54171779e-07
-7.7821197e-07
-7.5008807e-07
-7.3837257e-07
-7.55232334e-07
-7.71552461e-07
-7.399041e-07
-7.36454258e-07
-7.75826625e-07
-7.74300645e-07
-7.43249257e-07
-7.34542342e-07
-7.45940675e-07
-7.7537156e-07
-7.42057709e-07
-7.34978353e-07
-7.76062459e-07
-7.74304882e-07
-7.37687094e-07
-7.35476544e-07
-7.75999089e-07
-7.74327574e-07
-7.48987526e-07
-7.35159516e-07
-7.34938972e-07
-7.75849421e-07
-7.73707747e-07
-7.50815739e-07
-7.37766496e-07
-7.35499739e-07
-7.35213206e-07
-7.76669281e-07
-7.73961073e-07
-7.36844678e-07
-7.36122874e-07
-7.77186123e-07
-7.73818922e-07
-7.74574145e-07
-7.36768831e-07
-7.3348713e-07
-7.76236757e-07
-7.74829492e-07
-7.43619369e-07
-7.34295649e-07
-7.34184473e-07
-7.75733129e-07
-7.74703795e-07
-7.51269535e-07
-7.34100468e-07
-7.33908108e-07
-7.76410788e-07
-7.7436094e-07
-7.36300288e-07
-7.35275706e-07
-7.77357293e-07
-7.7410645e-07
-7.75218986e-07
-7.37158207e-07
-7.33721159e-07
)
;

boundaryField
{
    closed
    {
        type            calculated;
        value           uniform -1.03234639e-06;
    }
    open
    {
        type            calculated;
        value           nonuniform List<scalar> 0();
    }
    sides
    {
        type            empty;
    }
    procBoundary0to1
    {
        type            processor;
        value           uniform -7.77127563e-07;
    }
}


// ************************************************************************* //
