/*--------------------------------*- C++ -*----------------------------------*\
| =========                 |                                                 |
| \\      /  F ield         | OpenFOAM: The Open Source CFD Toolbox           |
|  \\    /   O peration     | Version:  2306                                  |
|   \\  /    A nd           | Website:  www.openfoam.com                      |
|    \\/     M anipulation  |                                                 |
\*---------------------------------------------------------------------------*/
FoamFile
{
    version     2.0;
    format      ascii;
    arch        "LSB;label=32;scalar=64";
    class       volScalarField;
    location    "0.00116";
    object      prefDPV_H2O;
}
// * * * * * * * * * * * * * * * * * * * * * * * * * * * * * * * * * * * * * //

dimensions      [1 -1 -1 0 0 0 0];

internalField   nonuniform List<scalar> 
530
(
-3.80312897e-07
-3.73491741e-07
-3.73055321e-07
-3.73065735e-07
-3.73066656e-07
-3.73066669e-07
-3.73066669e-07
-3.73066669e-07
-3.73066669e-07
-3.73066669e-07
-3.73066669e-07
-3.73066669e-07
-3.73066669e-07
-3.73066669e-07
-3.73066669e-07
-3.73066669e-07
-3.73066669e-07
-3.73066669e-07
-3.73066669e-07
-3.73066669e-07
-3.73066669e-07
-3.73066669e-07
-3.73066669e-07
-3.73066669e-07
-3.73066669e-07
-3.73066669e-07
-3.73066669e-07
-3.73066669e-07
-3.73066669e-07
-3.73066669e-07
-3.73066669e-07
-3.73066669e-07
-3.73066669e-07
-3.73066669e-07
-3.73066669e-07
-3.73066669e-07
-3.73066669e-07
-3.73066669e-07
-3.73066669e-07
-3.73066669e-07
-3.73066669e-07
-3.73066669e-07
-3.73066669e-07
-3.73066669e-07
-3.73066669e-07
-3.73066669e-07
-3.73066669e-07
-3.73066669e-07
-3.73066669e-07
-3.73066669e-07
-3.73066669e-07
-3.73066669e-07
-3.73066669e-07
-3.73066669e-07
-3.73066669e-07
-3.73066669e-07
-3.73066669e-07
-3.73066669e-07
-3.73066669e-07
-3.73066669e-07
-3.73066669e-07
-3.73066669e-07
-3.73066669e-07
-3.73066669e-07
-3.73066669e-07
-3.73066669e-07
-3.73066669e-07
-3.73066669e-07
-3.73066669e-07
-3.73066666e-07
-3.73066662e-07
-3.73066676e-07
-3.73066612e-07
-3.73066446e-07
-3.73067433e-07
-3.73066594e-07
-3.73058817e-07
-3.73052721e-07
-3.73094955e-07
-3.73199361e-07
-3.73068088e-07
-3.72415828e-07
-3.72653315e-07
-3.74348078e-07
-3.74301306e-07
-3.67094155e-07
-3.66392054e-07
-3.81954145e-07
-3.84473336e-07
-3.76820768e-07
-3.65284831e-07
-3.6494194e-07
-3.76305413e-07
-3.84355404e-07
-3.83774805e-07
-3.65482752e-07
-3.64410357e-07
-3.69986899e-07
-3.85003874e-07
-3.83298757e-07
-3.8367372e-07
-3.67604958e-07
-3.65054987e-07
-3.65380144e-07
-3.64229661e-07
-3.64390648e-07
-3.85349678e-07
-3.84109906e-07
-3.84230816e-07
-3.84045266e-07
-3.73108807e-07
-3.65084939e-07
-3.6621231e-07
-3.84666203e-07
-3.84058129e-07
-3.65894955e-07
-3.63877395e-07
-3.64754269e-07
-3.64278718e-07
-3.64324621e-07
-3.80196652e-07
-3.84173765e-07
-3.84609318e-07
-3.83765147e-07
-3.83838059e-07
-3.67195636e-07
-3.64352487e-07
-3.66393753e-07
-3.84806932e-07
-3.83718634e-07
-3.66264137e-07
-3.65522472e-07
-3.74801115e-07
-3.71468727e-07
-3.65359121e-07
-3.66204291e-07
-3.84634601e-07
-3.83633948e-07
-3.66411821e-07
-3.6517022e-07
-3.85652234e-07
-3.8401944e-07
-3.66176571e-07
-3.65825596e-07
-3.85420669e-07
-3.83613142e-07
-3.74401275e-07
-3.65586841e-07
-3.66395705e-07
-3.75084765e-07
-3.72357233e-07
-3.65562832e-07
-3.66327923e-07
-3.84557404e-07
-3.83832223e-07
-3.66720698e-07
-3.65771564e-07
-3.85521746e-07
-3.83996636e-07
-3.68758245e-07
-3.64487261e-07
-3.65704729e-07
-3.85117259e-07
-3.83864326e-07
-3.66469697e-07
-3.64832535e-07
-3.86268891e-07
-3.84260456e-07
-3.65753472e-07
-3.64838852e-07
-3.86195988e-07
-3.84053962e-07
-3.73264575e-07
-3.65557746e-07
-3.65531793e-07
-3.84883018e-07
-3.84062679e-07
-3.67205397e-07
-3.64530692e-07
-3.64243021e-07
-3.6464603e-07
-3.8521858e-07
-3.84067579e-07
-3.66760946e-07
-3.65183095e-07
-3.86073616e-07
-3.84061425e-07
-3.66481808e-07
-3.65377035e-07
-3.85872281e-07
-3.8414404e-07
-3.68663225e-07
-3.64491341e-07
-3.66155915e-07
-3.84987836e-07
-3.84071421e-07
-3.66507841e-07
-3.65495556e-07
-3.85690926e-07
-3.84027923e-07
-3.7006151e-07
-3.6479975e-07
-3.65524341e-07
-3.84862262e-07
-3.84332113e-07
-3.68337116e-07
-3.62735148e-07
-3.63246438e-07
-3.85742313e-07
-3.84584893e-07
-3.65705599e-07
-3.64462303e-07
-3.86218194e-07
-3.84056614e-07
-3.66969956e-07
-3.65439151e-07
-3.85892244e-07
-3.83833795e-07
-3.66880693e-07
-3.65491431e-07
-3.85665024e-07
-3.84082117e-07
-3.68651456e-07
-3.64105366e-07
-3.65126259e-07
-3.84902188e-07
-3.8351551e-07
-3.71679483e-07
-3.68582368e-07
-3.71026466e-07
-3.66685333e-07
-3.66467114e-07
-3.85302937e-07
-3.83425478e-07
-3.67730376e-07
-3.65641036e-07
-3.85654035e-07
-3.83735345e-07
-3.668692e-07
-3.65480181e-07
-3.85646489e-07
-3.84357235e-07
-3.67992988e-07
-3.62896527e-07
-3.62970834e-07
-3.85597298e-07
-3.84311796e-07
-3.66375908e-07
-3.64694314e-07
-3.86006784e-07
-3.83952166e-07
-3.66921138e-07
-3.65676473e-07
-3.85550318e-07
-3.84072666e-07
-3.69540802e-07
-3.64271286e-07
-3.64356163e-07
-3.85035419e-07
-3.83944448e-07
-3.66731832e-07
-3.65172607e-07
-3.85495563e-07
-3.84029389e-07
-3.70042669e-07
-3.64736206e-07
-3.64732262e-07
-3.84913296e-07
-3.83909372e-07
-3.67151936e-07
-3.65254985e-07
-3.8549333e-07
-3.8399604e-07
-3.68014731e-07
-3.64923388e-07
-3.64438602e-07
-3.64319814e-07
-3.8570509e-07
-3.83970352e-07
-3.66837472e-07
-3.65705634e-07
-3.86290808e-07
-3.83482142e-07
-3.82397475e-07
-3.67614885e-07
-3.64262359e-07
-3.66037273e-07
-3.85543557e-07
-3.83351306e-07
-3.84351486e-07
-3.68329337e-07
-3.65313127e-07
-3.64925108e-07
-3.65196441e-07
-3.85092342e-07
-3.84256559e-07
-3.7051914e-07
-3.64179945e-07
-3.64307183e-07
-3.84896657e-07
-3.84037442e-07
-3.66818764e-07
-3.65238804e-07
-3.85090331e-07
-3.84264077e-07
-3.68769029e-07
-3.63850003e-07
-3.64323284e-07
-3.85046284e-07
-3.84202454e-07
-3.66007276e-07
-3.64036646e-07
-3.85287882e-07
-3.84282364e-07
-3.69459065e-07
-3.64733226e-07
-3.6525576e-07
-3.84513821e-07
-3.84033559e-07
-3.71702564e-07
-3.64571007e-07
-3.64649206e-07
-3.84603629e-07
-3.84376867e-07
-3.69844235e-07
-3.63372007e-07
-3.64152783e-07
-3.85226399e-07
-3.84431104e-07
-3.8439464e-07
-3.84461789e-07
-3.68941253e-07
-3.63002672e-07
-3.63285244e-07
-3.84965214e-07
-3.84233877e-07
-3.66008835e-07
-3.6467583e-07
-3.8497366e-07
-3.84025613e-07
-3.65845492e-07
-3.65043184e-07
-3.84561273e-07
-3.84288779e-07
-3.68125668e-07
-3.63675417e-07
-3.63948028e-07
-3.84567611e-07
-3.84073179e-07
-3.66193292e-07
-3.65029508e-07
-3.84480945e-07
-3.83798254e-07
-3.66082657e-07
-3.65728722e-07
-3.84185281e-07
-3.83864398e-07
-3.70872481e-07
-3.65003595e-07
-3.65187911e-07
-3.84010872e-07
-3.83935561e-07
-3.700448e-07
-3.65272102e-07
-3.65481752e-07
-3.65374601e-07
-3.64436564e-07
-3.65294756e-07
-3.84386133e-07
-3.83833866e-07
-3.84061334e-07
-3.8387773e-07
-3.67800687e-07
-3.65720126e-07
-3.83762154e-07
-3.83925226e-07
-3.68119491e-07
-3.65027657e-07
-3.6524351e-07
-3.65100144e-07
-3.63939667e-07
-3.65535478e-07
-3.84329623e-07
-3.83569863e-07
-3.84257996e-07
-3.66940367e-07
-3.66409131e-07
-3.83628018e-07
-3.84084308e-07
-3.70106139e-07
-3.64657409e-07
-3.65267266e-07
-3.84039729e-07
-3.8432486e-07
-3.65890071e-07
-3.65552383e-07
-3.83720854e-07
-3.84859272e-07
-3.66470398e-07
-3.6252883e-07
-3.63603793e-07
-3.84592943e-07
-3.85285862e-07
-3.6500291e-07
-3.64979861e-07
-3.84413189e-07
-3.85272498e-07
-3.654273e-07
-3.65711296e-07
-3.84248538e-07
-3.85358386e-07
-3.65189178e-07
-3.65838879e-07
-3.84499257e-07
-3.84053918e-07
-3.84238062e-07
-3.84676164e-07
-3.68226396e-07
-3.64846199e-07
-3.65695316e-07
-3.65543152e-07
-3.66736789e-07
-3.6761968e-07
-3.65830757e-07
-3.68119519e-07
-3.83889272e-07
-3.83316771e-07
-3.84863244e-07
-3.66986352e-07
-3.67207644e-07
-3.8351278e-07
-3.84605989e-07
-3.67404274e-07
-3.65202044e-07
-3.64640977e-07
-3.6598898e-07
-3.84064745e-07
-3.85959086e-07
-3.66299824e-07
-3.6773428e-07
-3.83759378e-07
-3.84615646e-07
-3.70721304e-07
-3.64926771e-07
-3.66952782e-07
-3.83912249e-07
-3.8535676e-07
-3.66606198e-07
-3.63752198e-07
-3.65911894e-07
-3.84098944e-07
-3.85491409e-07
-3.6658334e-07
-3.63881911e-07
-3.66107951e-07
-3.84081923e-07
-3.85435441e-07
-3.66903876e-07
-3.64111572e-07
-3.66247635e-07
-3.84117569e-07
-3.8523101e-07
-3.66931756e-07
-3.64877644e-07
-3.64296398e-07
-3.66054642e-07
-3.84641218e-07
-3.84568434e-07
-3.8449818e-07
-3.86704248e-07
-3.65826816e-07
-3.66445755e-07
-3.83957887e-07
-3.85942432e-07
-3.65166497e-07
-3.63040452e-07
-3.65496735e-07
-3.84561506e-07
-3.86462383e-07
-3.6532385e-07
-3.66395117e-07
-3.84300177e-07
-3.86286947e-07
-3.65271381e-07
-3.6670275e-07
-3.84237579e-07
-3.86474677e-07
-3.65369392e-07
-3.670325e-07
-3.84001968e-07
-3.85836876e-07
-3.65461383e-07
-3.6373353e-07
-3.66216675e-07
-3.84395907e-07
-3.86583715e-07
-3.65627492e-07
-3.66844351e-07
-3.84123109e-07
-3.86458443e-07
-3.65455953e-07
-3.67202007e-07
-3.83927595e-07
-3.85815912e-07
-3.6543016e-07
-3.63876086e-07
-3.66419677e-07
-3.84369031e-07
-3.86859104e-07
-3.65601093e-07
-3.66945152e-07
-3.84094808e-07
-3.86672887e-07
-3.65388892e-07
-3.67165498e-07
-3.83930668e-07
-3.85832258e-07
-3.65203189e-07
-3.63697341e-07
-3.66297781e-07
-3.84413193e-07
-3.86966701e-07
-3.65287345e-07
-3.66610184e-07
-3.84152371e-07
-3.86747273e-07
-3.65178751e-07
-3.66792446e-07
-3.84076575e-07
-3.86850276e-07
)
;

boundaryField
{
    closed
    {
        type            calculated;
        value           uniform -5.12796235e-07;
    }
    open
    {
        type            calculated;
        value           nonuniform List<scalar> 0();
    }
    sides
    {
        type            empty;
    }
    procBoundary0to1
    {
        type            processor;
        value           uniform -3.6539962e-07;
    }
}


// ************************************************************************* //
