/*--------------------------------*- C++ -*----------------------------------*\
| =========                 |                                                 |
| \\      /  F ield         | OpenFOAM: The Open Source CFD Toolbox           |
|  \\    /   O peration     | Version:  2306                                  |
|   \\  /    A nd           | Website:  www.openfoam.com                      |
|    \\/     M anipulation  |                                                 |
\*---------------------------------------------------------------------------*/
FoamFile
{
    version     2.0;
    format      ascii;
    arch        "LSB;label=32;scalar=64";
    class       volScalarField;
    location    "0.00128";
    object      prefDPV_H2O;
}
// * * * * * * * * * * * * * * * * * * * * * * * * * * * * * * * * * * * * * //

dimensions      [1 -1 -1 0 0 0 0];

internalField   nonuniform List<scalar> 
530
(
-3.81836064e-07
-3.73621225e-07
-3.7305184e-07
-3.73065367e-07
-3.7306665e-07
-3.73066669e-07
-3.73066669e-07
-3.73066669e-07
-3.73066669e-07
-3.73066669e-07
-3.73066669e-07
-3.73066669e-07
-3.73066669e-07
-3.73066669e-07
-3.73066669e-07
-3.73066669e-07
-3.73066669e-07
-3.73066669e-07
-3.73066669e-07
-3.73066669e-07
-3.73066669e-07
-3.73066669e-07
-3.73066669e-07
-3.73066669e-07
-3.73066669e-07
-3.73066669e-07
-3.73066669e-07
-3.73066669e-07
-3.73066669e-07
-3.73066669e-07
-3.73066669e-07
-3.73066669e-07
-3.73066669e-07
-3.73066669e-07
-3.73066669e-07
-3.73066669e-07
-3.73066669e-07
-3.73066669e-07
-3.73066669e-07
-3.73066669e-07
-3.73066669e-07
-3.73066669e-07
-3.73066669e-07
-3.73066669e-07
-3.73066669e-07
-3.73066669e-07
-3.73066669e-07
-3.73066669e-07
-3.73066669e-07
-3.73066669e-07
-3.73066669e-07
-3.73066669e-07
-3.73066669e-07
-3.73066669e-07
-3.73066669e-07
-3.73066669e-07
-3.73066669e-07
-3.73066669e-07
-3.73066669e-07
-3.73066669e-07
-3.73066669e-07
-3.73066669e-07
-3.73066669e-07
-3.73066669e-07
-3.73066669e-07
-3.73066669e-07
-3.73066669e-07
-3.73066668e-07
-3.73066669e-07
-3.73066655e-07
-3.73066656e-07
-3.73066716e-07
-3.7306643e-07
-3.73066219e-07
-3.7306791e-07
-3.73072002e-07
-3.73068505e-07
-3.73004108e-07
-3.73000787e-07
-3.73334315e-07
-3.73465556e-07
-3.72448761e-07
-3.71760658e-07
-3.73846616e-07
-3.74556088e-07
-3.70995096e-07
-3.65994711e-07
-3.6657612e-07
-3.85307536e-07
-3.83446088e-07
-3.77305033e-07
-3.65829529e-07
-3.65145074e-07
-3.65944523e-07
-3.85363823e-07
-3.83900915e-07
-3.72579093e-07
-3.64270388e-07
-3.641556e-07
-3.85734643e-07
-3.84452862e-07
-3.84571156e-07
-3.84319328e-07
-3.70843781e-07
-3.6446945e-07
-3.64764338e-07
-3.63625459e-07
-3.63487526e-07
-3.86398116e-07
-3.84324911e-07
-3.84918698e-07
-3.84080896e-07
-3.68769429e-07
-3.650651e-07
-3.86697906e-07
-3.8392201e-07
-3.70517792e-07
-3.65463586e-07
-3.65422986e-07
-3.65186224e-07
-3.63799441e-07
-3.63637474e-07
-3.87314508e-07
-3.8411969e-07
-3.8515517e-07
-3.83768432e-07
-3.8400885e-07
-3.72683928e-07
-3.64897969e-07
-3.64789182e-07
-3.86097067e-07
-3.83812006e-07
-3.72189853e-07
-3.65894356e-07
-3.65738459e-07
-3.64623754e-07
-3.64420602e-07
-3.86490938e-07
-3.83870586e-07
-3.6780698e-07
-3.65747874e-07
-3.86524821e-07
-3.83659551e-07
-3.67341272e-07
-3.65938376e-07
-3.86701308e-07
-3.83752083e-07
-3.84124511e-07
-3.76255342e-07
-3.66329143e-07
-3.65942404e-07
-3.65783862e-07
-3.64867647e-07
-3.6470525e-07
-3.8629074e-07
-3.83883806e-07
-3.6832765e-07
-3.65995826e-07
-3.8644921e-07
-3.84014872e-07
-3.75190199e-07
-3.64718698e-07
-3.64545426e-07
-3.86894711e-07
-3.83989518e-07
-3.67094642e-07
-3.65203765e-07
-3.86686851e-07
-3.83862416e-07
-3.67529679e-07
-3.65598668e-07
-3.86491195e-07
-3.84066074e-07
-3.72825308e-07
-3.64948408e-07
-3.64812392e-07
-3.8644532e-07
-3.83951833e-07
-3.70238313e-07
-3.65867929e-07
-3.64002694e-07
-3.63781933e-07
-3.86945036e-07
-3.84229462e-07
-3.66848016e-07
-3.65008108e-07
-3.86853451e-07
-3.84056182e-07
-3.67438149e-07
-3.6549268e-07
-3.86518291e-07
-3.84251725e-07
-3.71685688e-07
-3.64502131e-07
-3.64360688e-07
-3.86614845e-07
-3.8410384e-07
-3.67800778e-07
-3.65594607e-07
-3.86428858e-07
-3.84114797e-07
-3.72219027e-07
-3.64661231e-07
-3.64539868e-07
-3.8623802e-07
-3.83882777e-07
-3.70983536e-07
-3.66288114e-07
-3.65061903e-07
-3.65424845e-07
-3.85329907e-07
-3.70885731e-07
-3.64843083e-07
-3.86486739e-07
-3.83942677e-07
-3.67026806e-07
-3.65273041e-07
-3.86517765e-07
-3.83761451e-07
-3.67382869e-07
-3.65700607e-07
-3.86373719e-07
-3.83524632e-07
-3.73587675e-07
-3.6699206e-07
-3.65625195e-07
-3.65370565e-07
-3.85851548e-07
-3.83553853e-07
-3.74392237e-07
-3.66702542e-07
-3.64654075e-07
-3.64415038e-07
-3.86303632e-07
-3.83928992e-07
-3.67852195e-07
-3.65785411e-07
-3.86312382e-07
-3.83827071e-07
-3.67920782e-07
-3.65673044e-07
-3.8624228e-07
-3.84283008e-07
-3.71977396e-07
-3.63706646e-07
-3.63563137e-07
-3.86836661e-07
-3.84275071e-07
-3.6671438e-07
-3.64779115e-07
-3.8670315e-07
-3.8405867e-07
-3.6705968e-07
-3.65241065e-07
-3.86372399e-07
-3.84283573e-07
-3.72108961e-07
-3.64153029e-07
-3.64027092e-07
-3.8639015e-07
-3.8420005e-07
-3.674254e-07
-3.65419229e-07
-3.86308782e-07
-3.84258948e-07
-3.72976754e-07
-3.6437122e-07
-3.64217761e-07
-3.86415607e-07
-3.84091499e-07
-3.67549787e-07
-3.65592963e-07
-3.86267275e-07
-3.83794064e-07
-3.70616023e-07
-3.66169283e-07
-3.64184944e-07
-3.63983144e-07
-3.85592985e-07
-3.84330272e-07
-3.66990417e-07
-3.65045085e-07
-3.80400359e-07
-3.83999941e-07
-3.84165324e-07
-3.72230175e-07
-3.63725658e-07
-3.63600953e-07
-3.86961935e-07
-3.84231281e-07
-3.84687191e-07
-3.75788352e-07
-3.6671809e-07
-3.64215503e-07
-3.64167637e-07
-3.86210993e-07
-3.84595023e-07
-3.71730491e-07
-3.63997544e-07
-3.63853993e-07
-3.86371182e-07
-3.84310971e-07
-3.67237894e-07
-3.65256815e-07
-3.86218401e-07
-3.84389937e-07
-3.71944558e-07
-3.6391602e-07
-3.63805415e-07
-3.86432162e-07
-3.84297895e-07
-3.67043434e-07
-3.6518539e-07
-3.86197364e-07
-3.84289425e-07
-3.71940865e-07
-3.64228944e-07
-3.6420156e-07
-3.86120605e-07
-3.84412043e-07
-3.74274825e-07
-3.6457518e-07
-3.64458322e-07
-3.85980183e-07
-3.8392763e-07
-3.71720618e-07
-3.66527298e-07
-3.6418591e-07
-3.6404254e-07
-3.86987355e-07
-3.84427219e-07
-3.85413453e-07
-3.84405464e-07
-3.77910421e-07
-3.64418354e-07
-3.64400673e-07
-3.8618923e-07
-3.71172138e-07
-3.64214102e-07
-3.86194305e-07
-3.8427216e-07
-3.66899138e-07
-3.65238268e-07
-3.85968732e-07
-3.84459447e-07
-3.7216295e-07
-3.63496577e-07
-3.63365199e-07
-3.86500533e-07
-3.84303827e-07
-3.66477455e-07
-3.65007938e-07
-3.86288273e-07
-3.84032689e-07
-3.67345558e-07
-3.65496414e-07
-3.78735035e-07
-3.84139107e-07
-3.84614888e-07
-3.66095505e-07
-3.64409881e-07
-3.77449153e-07
-3.84108739e-07
-3.85093177e-07
-3.68053852e-07
-3.6548305e-07
-3.65655133e-07
-3.65764003e-07
-3.64113524e-07
-3.64175995e-07
-3.86059294e-07
-3.83950995e-07
-3.84384813e-07
-3.69970898e-07
-3.66537986e-07
-3.86290994e-07
-3.83485256e-07
-3.8445425e-07
-3.70983115e-07
-3.65479805e-07
-3.65613391e-07
-3.65630569e-07
-3.64107142e-07
-3.64043148e-07
-3.85864047e-07
-3.84093461e-07
-3.67001117e-07
-3.65968412e-07
-3.86131823e-07
-3.83770607e-07
-3.84302776e-07
-3.66507789e-07
-3.64415237e-07
-3.86199219e-07
-3.84076039e-07
-3.66310876e-07
-3.65023952e-07
-3.85908997e-07
-3.83769973e-07
-3.70813834e-07
-3.6622196e-07
-3.64150021e-07
-3.63979861e-07
-3.86060446e-07
-3.83974575e-07
-3.6679166e-07
-3.66116129e-07
-3.86033059e-07
-3.73869361e-07
-3.64250172e-07
-3.85998196e-07
-3.84568783e-07
-3.75370747e-07
-3.64257509e-07
-3.64105441e-07
-3.8675473e-07
-3.84169195e-07
-3.86215091e-07
-3.83878685e-07
-3.86239041e-07
-3.67119134e-07
-3.65595643e-07
-3.65314272e-07
-3.65443044e-07
-3.63126157e-07
-3.63210646e-07
-3.86142391e-07
-3.84059011e-07
-3.84491898e-07
-3.69940334e-07
-3.66250104e-07
-3.85406889e-07
-3.83530045e-07
-3.72609811e-07
-3.66942512e-07
-3.64343402e-07
-3.64120212e-07
-3.86003281e-07
-3.84049197e-07
-3.66094739e-07
-3.65351123e-07
-3.86574967e-07
-3.83741327e-07
-3.85056722e-07
-3.7395031e-07
-3.63801999e-07
-3.63679636e-07
-3.85725923e-07
-3.84462217e-07
-3.7375599e-07
-3.64098772e-07
-3.64099552e-07
-3.85532293e-07
-3.84501237e-07
-3.71766325e-07
-3.63890236e-07
-3.63855377e-07
-3.85419873e-07
-3.84499497e-07
-3.72167199e-07
-3.63933002e-07
-3.63863692e-07
-3.853047e-07
-3.84049455e-07
-3.70298048e-07
-3.66098341e-07
-3.63884903e-07
-3.63857402e-07
-3.85768312e-07
-3.83896997e-07
-3.84288649e-07
-3.69928337e-07
-3.66193954e-07
-3.85116185e-07
-3.83511719e-07
-3.72090417e-07
-3.66942541e-07
-3.64698967e-07
-3.64668123e-07
-3.85304387e-07
-3.71595412e-07
-3.64250234e-07
-3.85504869e-07
-3.84077361e-07
-3.66359933e-07
-3.65167399e-07
-3.85436504e-07
-3.83971953e-07
-3.66591897e-07
-3.65242042e-07
-3.85206927e-07
-3.8438187e-07
-3.71642083e-07
-3.6325095e-07
-3.63175964e-07
-3.85685987e-07
-3.84309249e-07
-3.6603698e-07
-3.64898562e-07
-3.855656e-07
-3.8406481e-07
-3.66543214e-07
-3.65324247e-07
-3.85169085e-07
-3.84360587e-07
-3.71484384e-07
-3.63555843e-07
-3.6346297e-07
-3.85441217e-07
-3.8425621e-07
-3.66225654e-07
-3.64962597e-07
-3.85392853e-07
-3.84056065e-07
-3.66509215e-07
-3.65265416e-07
-3.85057124e-07
-3.84406523e-07
-3.7138966e-07
-3.63273305e-07
-3.63170488e-07
-3.85444895e-07
-3.84301702e-07
-3.65880272e-07
-3.64696848e-07
-3.85502443e-07
-3.83991789e-07
-3.66111232e-07
-3.65143185e-07
-3.8528106e-07
)
;

boundaryField
{
    closed
    {
        type            calculated;
        value           uniform -5.12855704e-07;
    }
    open
    {
        type            calculated;
        value           nonuniform List<scalar> 0();
    }
    sides
    {
        type            empty;
    }
    procBoundary0to1
    {
        type            processor;
        value           uniform -3.83932989e-07;
    }
}


// ************************************************************************* //
