/*--------------------------------*- C++ -*----------------------------------*\
| =========                 |                                                 |
| \\      /  F ield         | OpenFOAM: The Open Source CFD Toolbox           |
|  \\    /   O peration     | Version:  2306                                  |
|   \\  /    A nd           | Website:  www.openfoam.com                      |
|    \\/     M anipulation  |                                                 |
\*---------------------------------------------------------------------------*/
FoamFile
{
    version     2.0;
    format      ascii;
    arch        "LSB;label=32;scalar=64";
    class       volScalarField;
    location    "0.00128";
    object      PV;
}
// * * * * * * * * * * * * * * * * * * * * * * * * * * * * * * * * * * * * * //

dimensions      [0 0 0 0 0 0 0];

internalField   nonuniform List<scalar> 
530
(
-0.00715097957
-0.00708447146
-0.00706304457
-0.00706226301
-0.00706218689
-0.00706218455
-0.00706218417
-0.00706218344
-0.00706218242
-0.0070621812
-0.00706217998
-0.00706217897
-0.00706217814
-0.00706217726
-0.00706217653
-0.0070621756
-0.00706217483
-0.00706217449
-0.00706217396
-0.00706217388
-0.00706217359
-0.00706217366
-0.00706217375
-0.00706217393
-0.00706217415
-0.00706217434
-0.00706217447
-0.0070621746
-0.00706217456
-0.00706217471
-0.00706217463
-0.00706217471
-0.00706217477
-0.00706217481
-0.0070621749
-0.00706217485
-0.00706217491
-0.00706217492
-0.00706217495
-0.00706217494
-0.00706217499
-0.00706217493
-0.00706217499
-0.00706217489
-0.00706217493
-0.00706217488
-0.00706217487
-0.0070621749
-0.00706217482
-0.0070621748
-0.00706217477
-0.00706217473
-0.00706217473
-0.00706217464
-0.00706217461
-0.00706217457
-0.00706217453
-0.00706217449
-0.00706217445
-0.0070621744
-0.00706217437
-0.00706217432
-0.00706217428
-0.00706217425
-0.00706217422
-0.00706217431
-0.00706217432
-0.00706217513
-0.00706217531
-0.00706217957
-0.00706218121
-0.00706219593
-0.00706220748
-0.00706225306
-0.00706226108
-0.0070623142
-0.00706237219
-0.00706323723
-0.00706330261
-0.0070603478
-0.00705914664
-0.00706936799
-0.00707673474
-0.00705535427
-0.0070492204
-0.00708344238
-0.00714760604
-0.00713447086
-0.00694761671
-0.00693234676
-0.00702687636
-0.00714123966
-0.00716440427
-0.00714757387
-0.00694682819
-0.00693735265
-0.00707083959
-0.00718466932
-0.00718077811
-0.00696405332
-0.0069408895
-0.00694286036
-0.0069398501
-0.00708727176
-0.00717957453
-0.00716889122
-0.00719962141
-0.00719293999
-0.00695959873
-0.00694012062
-0.0069485939
-0.00693807779
-0.00712006403
-0.00716367583
-0.00694794558
-0.00693499065
-0.00709488662
-0.00715690687
-0.00716274975
-0.00716278114
-0.00719520265
-0.00718988781
-0.00695291765
-0.00693824131
-0.00694772227
-0.00693664103
-0.0069416247
-0.00706839608
-0.00717302902
-0.00716851598
-0.00694744342
-0.00693701548
-0.00707466226
-0.00715363735
-0.00715256157
-0.00718133089
-0.00717452248
-0.0069494823
-0.00693556106
-0.00713465369
-0.00715193229
-0.00695022583
-0.00693519596
-0.00714024124
-0.00715023863
-0.00694935232
-0.00693819859
-0.00694249183
-0.0070367487
-0.007143476
-0.00715541687
-0.0071527544
-0.00717745548
-0.00717216688
-0.00694801287
-0.00693764782
-0.00712640952
-0.00715274885
-0.00694805728
-0.00694112085
-0.00704725335
-0.00718177674
-0.00717420833
-0.00695188646
-0.00693596821
-0.00714453683
-0.00716137479
-0.00694998898
-0.0069359848
-0.00713723957
-0.00715825225
-0.00694753854
-0.00694063649
-0.00707060671
-0.00717812521
-0.00717184403
-0.00694882575
-0.00693687772
-0.00710182581
-0.00715221348
-0.00719516704
-0.00718682263
-0.00695024322
-0.00693700024
-0.00715001046
-0.0071673599
-0.00695084308
-0.0069377605
-0.00714003772
-0.00716297207
-0.00694780099
-0.00694229571
-0.00708317507
-0.00718800938
-0.00718035261
-0.00695087866
-0.00693846622
-0.00713473163
-0.00715989617
-0.00694699938
-0.00694033055
-0.00707697949
-0.00718097962
-0.00717640667
-0.00694461039
-0.00693651317
-0.00708962772
-0.00714539895
-0.00717004671
-0.00716372995
-0.00694113615
-0.00709069029
-0.00716941726
-0.00694591963
-0.00693555279
-0.00714320871
-0.00715986422
-0.00694828965
-0.00693491571
-0.00713951409
-0.00715250664
-0.00694718841
-0.00693494295
-0.00706529061
-0.00713305401
-0.00716813579
-0.00716023325
-0.00694855023
-0.00693637478
-0.0070581657
-0.0071369627
-0.00718515559
-0.00717621113
-0.00694854549
-0.0069373551
-0.0071348892
-0.00715477116
-0.00694913237
-0.00693813582
-0.00713325805
-0.00716020157
-0.00694633304
-0.006943121
-0.00708006127
-0.00720096042
-0.00719243882
-0.00695077759
-0.00693798362
-0.00715235585
-0.00717079579
-0.00694944889
-0.00693751062
-0.00714448136
-0.00716652827
-0.00694601807
-0.00694234086
-0.00707882264
-0.00719254128
-0.00718686399
-0.00694753177
-0.0069393437
-0.00713836586
-0.00716488828
-0.00694531651
-0.00694259952
-0.00706916078
-0.00718944804
-0.00718271133
-0.0069483758
-0.00693766705
-0.00713857681
-0.00715751904
-0.00694696275
-0.00693620062
-0.007098468
-0.00714841908
-0.0071927744
-0.00718511886
-0.00696340204
-0.00693849015
-0.00713978932
-0.0071687598
-0.00699872525
-0.00693915632
-0.00694240919
-0.00707587402
-0.00720126559
-0.00719456553
-0.00694987762
-0.00694225293
-0.00694723774
-0.00704286471
-0.00714792823
-0.00719054397
-0.00718898264
-0.00694366991
-0.00694418077
-0.00708153446
-0.00719643102
-0.00718947599
-0.00694723949
-0.00693940465
-0.00714044774
-0.00716842284
-0.00694438084
-0.00694262611
-0.00707959824
-0.00719634729
-0.00718962212
-0.00694736338
-0.0069388924
-0.00714302121
-0.00716836414
-0.00694443004
-0.00694147007
-0.00708064634
-0.00718873891
-0.00718699757
-0.00694379586
-0.00694341854
-0.00705587225
-0.00718401241
-0.00717978374
-0.00694452828
-0.00693852233
-0.00708541202
-0.00714463299
-0.007194114
-0.00718735438
-0.00695082871
-0.00694254052
-0.00695003865
-0.00694351292
-0.00702560272
-0.00718541885
-0.00718443243
-0.00694639853
-0.00708841805
-0.00718728693
-0.00694428176
-0.00694131449
-0.00714240638
-0.00717058029
-0.0069437665
-0.00694441572
-0.00707761649
-0.00720442663
-0.00719651253
-0.00694913075
-0.0069391184
-0.00715571212
-0.00716921568
-0.00694759754
-0.00693891918
-0.00713734589
-0.00716401321
-0.00701287297
-0.0069412575
-0.00693969029
-0.00714636874
-0.00718237143
-0.00702131567
-0.00694056387
-0.00693967771
-0.00712065909
-0.00717028883
-0.00715868192
-0.00716208713
-0.00718769759
-0.00718737176
-0.0069434352
-0.00694241082
-0.00694209766
-0.0071056086
-0.00714410219
-0.00694360911
-0.0069362313
-0.00694141727
-0.00708711455
-0.0071645836
-0.00716039721
-0.00716160506
-0.00719005617
-0.00718709184
-0.00694475742
-0.0069396581
-0.007142493
-0.00715541624
-0.00694358933
-0.0069405278
-0.00694077751
-0.00714802914
-0.00717784287
-0.00694401458
-0.00693668519
-0.00715264906
-0.00716578866
-0.00694355427
-0.00693648006
-0.00709449267
-0.00714699227
-0.00719074008
-0.00718383827
-0.00694552292
-0.0069375558
-0.00714822126
-0.00715068371
-0.00694716056
-0.00705900085
-0.00718970462
-0.00694325017
-0.0069463031
-0.00704599846
-0.0071945439
-0.00718805147
-0.00695242732
-0.0069414608
-0.0069578725
-0.00693941854
-0.00695646069
-0.00713253576
-0.00717387583
-0.00716448215
-0.0071681902
-0.00720242884
-0.00720201381
-0.00694238299
-0.00694186474
-0.00694198028
-0.0071046815
-0.00714946411
-0.00694317518
-0.00693742479
-0.00707602894
-0.00713658035
-0.00719030784
-0.00718211431
-0.00694693659
-0.00693769088
-0.00716203489
-0.00716194479
-0.0069483889
-0.00693827622
-0.00694893002
-0.00705812343
-0.00719969234
-0.00719356131
-0.00694427634
-0.0069429403
-0.00706205583
-0.00718913745
-0.00718835268
-0.00694078293
-0.00694219064
-0.00708083639
-0.00719194477
-0.00719046906
-0.00693949224
-0.00694143564
-0.00707505951
-0.0071904807
-0.00718702766
-0.0069390233
-0.00693804964
-0.00709684836
-0.00715214985
-0.00718975804
-0.00718882455
-0.00693987814
-0.00693971248
-0.00693987027
-0.00710218357
-0.00714881676
-0.00693926198
-0.00693710347
-0.0070777228
-0.00713743199
-0.00717740046
-0.00717524652
-0.00694017036
-0.00708256928
-0.00718104472
-0.00694074692
-0.00693800384
-0.00714933955
-0.00716568366
-0.00694156355
-0.0069386422
-0.00714536466
-0.00716835083
-0.00694037678
-0.00694290772
-0.00708216487
-0.00720469357
-0.00719877387
-0.00694417013
-0.00693949021
-0.00715845386
-0.00717212864
-0.00694372934
-0.00694025902
-0.00714897462
-0.00716883412
-0.00694129147
-0.00694376642
-0.00708455154
-0.00720035224
-0.00719474363
-0.00694336049
-0.00693949091
-0.00715473597
-0.00717108703
-0.00694278378
-0.00694026552
-0.00714856024
-0.00716992642
-0.00694066977
-0.00694398834
-0.00708538024
-0.00720514394
-0.00719913856
-0.00694350842
-0.00693918946
-0.00716158571
-0.00717367406
-0.00694394844
-0.00693818658
-0.00715773208
-0.0071663406
-0.00694265943
)
;

boundaryField
{
    closed
    {
        type            zeroGradient;
    }
    open
    {
        type            zeroGradient;
    }
    sides
    {
        type            empty;
    }
    procBoundary0to1
    {
        type            processor;
        value           uniform -0.00693892976;
    }
}


// ************************************************************************* //
