/*--------------------------------*- C++ -*----------------------------------*\
| =========                 |                                                 |
| \\      /  F ield         | OpenFOAM: The Open Source CFD Toolbox           |
|  \\    /   O peration     | Version:  2306                                  |
|   \\  /    A nd           | Website:  www.openfoam.com                      |
|    \\/     M anipulation  |                                                 |
\*---------------------------------------------------------------------------*/
FoamFile
{
    version     2.0;
    format      ascii;
    arch        "LSB;label=32;scalar=64";
    class       volScalarField;
    location    "0.00078";
    object      H;
}
// * * * * * * * * * * * * * * * * * * * * * * * * * * * * * * * * * * * * * //

dimensions      [0 0 0 0 0 0 0];

internalField   nonuniform List<scalar> 
530
(
4.35435809e-08
4.51643624e-08
2.12783253e-08
1.26655209e-09
9.3295177e-10
4.1352471e-08
4.66541502e-08
3.09354014e-08
1.2694002e-09
1.15638587e-09
2.54635118e-08
4.43632915e-08
4.06951457e-08
7.79806445e-09
1.1186653e-09
1.97486046e-08
4.55446713e-08
4.41390035e-08
1.9256598e-08
1.26973126e-09
1.27391055e-09
1.09250292e-09
1.66771773e-08
4.53749989e-08
4.54351607e-08
2.83371996e-08
1.30747757e-09
1.04060394e-09
3.51450437e-08
4.5210858e-08
3.95156183e-08
1.08872639e-08
1.17829399e-09
1.50504741e-08
4.46577648e-08
4.43270612e-08
2.16391477e-08
1.18845955e-09
8.28253567e-10
4.79860825e-08
4.8164816e-08
2.10795554e-08
1.2510284e-09
1.36273626e-09
1.08557359e-09
2.18104459e-08
4.62654716e-08
4.60777006e-08
3.41551404e-08
1.20870293e-09
1.23753586e-09
1.96077923e-08
4.29095095e-08
4.20324469e-08
4.48966781e-08
3.91341195e-08
1.07717581e-09
1.2194359e-09
3.06449001e-08
3.81089255e-08
2.09749086e-08
1.28228645e-09
9.81972509e-10
4.32677689e-08
4.47585793e-08
8.94732727e-09
1.12220798e-09
1.66931749e-08
4.6846926e-08
3.96469002e-08
1.11002232e-09
1.11981566e-09
4.2369002e-08
4.41909292e-08
2.20951397e-09
1.08372793e-09
3.45015669e-08
4.4259743e-08
7.23040371e-09
1.10199326e-09
3.15758815e-08
4.30600857e-08
2.43049257e-08
1.18356604e-09
9.3673219e-10
4.45832257e-08
4.68399767e-08
1.31033384e-08
1.07448445e-09
1.51819197e-08
4.72159243e-08
4.05600017e-08
1.05212834e-09
1.08572859e-09
4.16472865e-08
4.35811156e-08
4.81967883e-10
1.05901382e-09
3.69475521e-08
4.24862389e-08
6.2978801e-09
1.09435017e-09
2.70201901e-08
4.55715607e-08
3.18271879e-08
1.17692964e-09
1.13516736e-09
4.08574807e-08
4.33996705e-08
2.29402324e-08
1.15687809e-09
6.64828537e-10
4.59708968e-08
4.74520893e-08
8.80968463e-09
1.05482241e-09
2.02411899e-08
4.64662278e-08
3.5546263e-08
1.15567831e-09
1.13205188e-09
3.81292759e-08
4.37832875e-08
2.44639591e-08
1.17514263e-09
8.889205e-10
4.45859283e-08
4.62918334e-08
1.96924544e-08
1.1490381e-09
7.12991413e-10
4.55584064e-08
4.71878479e-08
1.76335868e-08
1.14546141e-09
7.1040372e-10
4.54197832e-08
4.73604603e-08
1.85016e-08
1.11497949e-09
4.37823655e-10
4.88410559e-08
4.64358451e-08
1.11190619e-09
1.07336415e-09
3.5098698e-08
4.12974453e-08
2.06037333e-08
1.23658216e-09
9.35088229e-10
4.44895942e-08
4.6639396e-08
2.10792053e-08
1.15651908e-09
8.80513119e-10
4.74984437e-08
4.81527004e-08
7.86926473e-09
1.09691744e-09
2.72221447e-08
4.15565177e-08
2.3805744e-08
1.23103408e-09
9.7249494e-10
4.48530588e-08
4.68573375e-08
2.21304513e-08
1.16053347e-09
9.1294963e-10
4.66212822e-08
4.76213244e-08
1.08082905e-08
1.10305142e-09
2.59666532e-08
4.15808884e-08
2.33562556e-08
1.22914862e-09
9.6740983e-10
4.56424682e-08
4.69681379e-08
2.30397514e-08
1.15493726e-09
8.80416492e-10
4.86645845e-08
4.94052538e-08
1.3317693e-08
1.02244426e-09
2.88660724e-08
4.46616625e-08
1.38071083e-08
1.06639324e-09
2.94268058e-08
4.43057059e-08
1.29087067e-08
1.06881833e-09
3.01358194e-08
4.38517676e-08
1.12355755e-08
1.07837863e-09
2.96768607e-08
4.29206934e-08
2.25682499e-08
1.19991686e-09
7.36498698e-10
4.86123006e-08
4.87754074e-08
1.20494577e-08
9.96037455e-10
3.12091113e-08
4.37570266e-08
8.85630624e-09
1.06429965e-09
3.06701506e-08
4.23446904e-08
2.1584509e-08
1.21565245e-09
7.40039628e-10
4.80919454e-08
4.76125262e-08
9.93898455e-09
1.01045855e-09
3.3029434e-08
4.34209779e-08
5.77158805e-09
1.08739848e-09
3.12047234e-08
4.23529436e-08
2.26956665e-08
1.19124555e-09
7.79256881e-10
4.99676756e-08
4.77104774e-08
8.24108e-10
1.05070616e-09
3.60612027e-08
4.24679155e-08
1.12174249e-08
1.12704566e-09
1.97289443e-08
4.91196988e-08
4.06166586e-08
1.21700714e-09
1.1905421e-09
3.84874714e-08
4.11596904e-08
7.63469331e-09
1.18348876e-09
1.95123738e-08
4.78353405e-08
4.07538393e-08
1.26199551e-09
1.18094793e-09
2.96097863e-08
4.826826e-08
3.97956593e-08
1.17186909e-09
1.2785777e-09
3.96786394e-08
4.05226485e-08
6.3402766e-10
1.21383804e-09
2.24897973e-08
4.68204316e-08
4.20616294e-08
1.13535433e-09
1.2097795e-09
2.46224052e-08
4.65318002e-08
4.17091746e-08
1.07163778e-09
1.21571996e-09
2.38903615e-08
4.63182887e-08
4.28908389e-08
9.84531907e-10
1.20915931e-09
2.2788973e-08
4.60658513e-08
4.44326749e-08
8.96125174e-10
1.19453566e-09
2.29172938e-08
4.59583364e-08
4.58684531e-08
7.41162816e-10
1.221531e-09
3.39161456e-08
4.03048933e-08
2.38567899e-09
1.16825822e-09
1.99862048e-08
4.49726539e-08
4.57505497e-08
2.64854724e-09
1.15647389e-09
1.58920164e-08
4.37329465e-08
4.55486155e-08
5.86128446e-09
1.12663655e-09
1.42313044e-08
4.30338919e-08
4.56858567e-08
8.51710299e-09
1.09325308e-09
1.24829766e-08
4.25197493e-08
4.60009821e-08
1.10157661e-08
1.06937024e-09
8.84764192e-09
4.05837379e-08
4.56201e-08
1.35145296e-08
1.02162967e-09
7.88480936e-09
4.0258867e-08
4.5964477e-08
1.54259287e-08
9.75059237e-10
5.47487357e-09
3.98289155e-08
4.64986043e-08
1.80596907e-08
9.94326599e-10
3.36864703e-09
3.36331314e-08
4.4670407e-08
4.07932189e-08
3.23201732e-09
1.17822906e-09
2.04730416e-08
4.41488948e-08
4.26130711e-08
3.9922196e-09
1.15668337e-09
2.02733024e-08
4.40642108e-08
4.42730439e-08
5.92891926e-09
1.13273139e-09
2.40946028e-08
4.26821292e-08
2.02111692e-08
9.43694051e-10
1.83527035e-08
4.11310038e-08
4.03634423e-08
3.13786199e-09
1.19578142e-09
2.3425742e-08
3.913889e-08
1.76853008e-08
1.01842202e-09
1.98071042e-08
3.77889811e-08
3.81398364e-08
4.04510843e-08
3.60800523e-08
6.92557002e-10
1.06911619e-09
2.53455199e-08
4.19743815e-08
2.10291968e-08
8.69224836e-10
1.37596091e-08
3.96447843e-08
3.81937245e-08
5.53694738e-09
8.38006371e-10
2.82358931e-08
4.43690811e-08
2.01322699e-08
6.38285612e-10
2.43536655e-08
4.13385175e-08
1.97504e-08
5.80214002e-10
2.67471304e-08
4.06390768e-08
1.49538344e-08
5.85939193e-10
2.92724338e-08
4.06032138e-08
1.33283435e-08
5.78992588e-10
3.04410976e-08
4.02624319e-08
1.14880223e-08
6.09908873e-10
3.08866256e-08
3.80048804e-08
8.37773002e-09
6.79738457e-10
2.89905288e-08
4.28917227e-08
3.20525744e-08
9.31962496e-10
6.32392158e-10
3.55660217e-08
4.42164797e-08
1.22801726e-08
5.24510194e-10
3.38199504e-08
4.14499787e-08
7.10921083e-09
6.41767435e-10
3.39851349e-08
3.69177156e-08
1.21542816e-09
7.42831433e-10
3.25926402e-08
4.38393436e-08
3.11380363e-08
1.09717952e-09
8.02314366e-10
3.47339857e-08
4.1226418e-08
1.60541666e-08
1.03994174e-08
3.71562086e-08
3.66561677e-08
8.02272252e-10
7.45921953e-10
3.65469985e-08
3.55851634e-08
8.36591117e-10
8.6822943e-10
3.39134883e-08
4.47283306e-08
3.32220843e-08
1.27133476e-09
1.38266175e-09
7.68184648e-10
3.33734104e-08
4.37560715e-08
4.18036609e-08
4.64877901e-08
3.78052917e-08
1.00296035e-09
1.31250634e-09
6.57053128e-10
3.71104399e-08
3.72455868e-08
9.64788859e-10
8.65949504e-10
3.70956873e-08
4.65851833e-08
3.32521085e-08
1.15980003e-09
8.24219697e-10
3.79241596e-08
3.59122338e-08
1.10589084e-09
9.73955367e-10
3.57848266e-08
4.42677939e-08
3.00126565e-08
1.24000031e-09
1.00559897e-09
3.5299421e-08
4.40193198e-08
2.99615626e-08
1.2424106e-09
1.00144255e-09
3.59083597e-08
4.42693927e-08
2.99471644e-08
1.23994849e-09
1.00043517e-09
3.62372499e-08
4.43781789e-08
2.99108686e-08
1.22766079e-09
9.83453662e-10
3.72291323e-08
4.5184145e-08
3.04294882e-08
1.19136359e-09
9.38423158e-10
3.96200725e-08
4.76198599e-08
3.30271397e-08
1.15159235e-09
7.27287803e-10
3.84653496e-08
3.44954368e-08
1.13194427e-09
9.02618114e-10
4.1984239e-08
4.8285302e-08
3.29009373e-08
1.11039004e-09
6.18202121e-10
4.16871635e-08
3.85653367e-08
1.0790271e-09
6.55214434e-10
4.07146897e-08
3.51642339e-08
1.15390999e-09
9.35058327e-10
4.03881076e-08
4.53164067e-08
2.89648192e-08
1.22883526e-09
9.92897335e-10
3.71500966e-08
4.39535222e-08
2.85883169e-08
1.24060676e-09
9.60228364e-10
3.90365999e-08
4.6138372e-08
2.9718021e-08
1.21103362e-09
9.63170693e-10
4.00249625e-08
4.59520032e-08
2.90639365e-08
1.26348409e-09
1.03050936e-09
3.52773761e-08
4.3269495e-08
2.77378145e-08
1.27428676e-09
1.0061698e-09
3.79585989e-08
4.50669863e-08
2.88159728e-08
)
;

boundaryField
{
    closed
    {
        type            calculated;
        value           nonuniform List<scalar> 0();
    }
    open
    {
        type            calculated;
        value           nonuniform List<scalar> 0();
    }
    sides
    {
        type            empty;
    }
    procBoundary2to1
    {
        type            processor;
        value           uniform 9.62857368e-10;
    }
    procBoundary2to3
    {
        type            processor;
        value           uniform 1.26077716e-09;
    }
}


// ************************************************************************* //
