/*--------------------------------*- C++ -*----------------------------------*\
| =========                 |                                                 |
| \\      /  F ield         | OpenFOAM: The Open Source CFD Toolbox           |
|  \\    /   O peration     | Version:  2306                                  |
|   \\  /    A nd           | Website:  www.openfoam.com                      |
|    \\/     M anipulation  |                                                 |
\*---------------------------------------------------------------------------*/
FoamFile
{
    version     2.0;
    format      ascii;
    arch        "LSB;label=32;scalar=64";
    class       volScalarField;
    location    "0.00078";
    object      mu;
}
// * * * * * * * * * * * * * * * * * * * * * * * * * * * * * * * * * * * * * //

dimensions      [1 -1 -1 0 0 0 0];

internalField   nonuniform List<scalar> 
530
(
1.9548021e-05
1.95020738e-05
1.98190064e-05
2.02982442e-05
2.02743953e-05
1.96051048e-05
1.94640866e-05
1.97517871e-05
2.03115022e-05
2.02881474e-05
1.97756024e-05
1.95253055e-05
1.96158488e-05
2.00332347e-05
2.02853332e-05
1.98297494e-05
1.94893741e-05
1.95271525e-05
1.98388484e-05
2.03020937e-05
2.03026144e-05
2.02856662e-05
1.98707906e-05
1.94966736e-05
1.9493462e-05
1.97699779e-05
2.03112424e-05
2.02795526e-05
1.9759212e-05
1.95048761e-05
1.96460792e-05
1.99693617e-05
2.02916316e-05
1.98966862e-05
1.95159367e-05
1.95264386e-05
1.98190335e-05
2.02925816e-05
2.02868552e-05
1.94242359e-05
1.94224763e-05
1.98166818e-05
2.02918558e-05
2.03166863e-05
2.02874139e-05
1.98060038e-05
1.9472128e-05
1.94768588e-05
1.97599057e-05
2.03075041e-05
2.02912986e-05
1.98327069e-05
1.95682931e-05
1.95876436e-05
1.95170661e-05
1.96617151e-05
2.0307489e-05
2.03039895e-05
1.97743626e-05
1.96911009e-05
1.98240229e-05
2.02940699e-05
2.03079539e-05
1.95577106e-05
1.95212589e-05
2.00093856e-05
2.02705588e-05
1.98709768e-05
1.9460244e-05
1.96488399e-05
2.02959647e-05
2.030275e-05
1.95889587e-05
1.95340857e-05
2.01701264e-05
2.02882508e-05
1.97782778e-05
1.95311875e-05
2.00514422e-05
2.02940061e-05
1.97622187e-05
1.95630495e-05
1.97932011e-05
2.02842093e-05
2.03104731e-05
1.95204633e-05
1.94637631e-05
1.9929598e-05
2.02625514e-05
1.98945842e-05
1.94515148e-05
1.96272977e-05
2.02848082e-05
2.02942932e-05
1.96126172e-05
1.95523683e-05
2.02184362e-05
2.02835917e-05
1.97384881e-05
1.95825929e-05
2.00706795e-05
2.02804592e-05
1.97680132e-05
1.94941631e-05
1.97502536e-05
2.02918074e-05
2.03122627e-05
1.96212692e-05
1.95543681e-05
1.98125398e-05
2.0278752e-05
2.02742891e-05
1.94835397e-05
1.94478809e-05
2.00118358e-05
2.02633851e-05
1.9823865e-05
1.94711619e-05
1.97506037e-05
2.02969758e-05
2.0304391e-05
1.96931426e-05
1.95451474e-05
1.97987166e-05
2.02814693e-05
2.03006435e-05
1.95201119e-05
1.94779149e-05
1.98406544e-05
2.0273409e-05
2.02815062e-05
1.94953873e-05
1.94544713e-05
1.98645422e-05
2.02688066e-05
2.02763448e-05
1.95000487e-05
1.94504691e-05
1.9854632e-05
2.02641805e-05
2.02367582e-05
1.94040567e-05
1.94746553e-05
2.03009865e-05
2.02843894e-05
1.97750728e-05
1.96137293e-05
1.98287107e-05
2.02849297e-05
2.03016369e-05
1.95222478e-05
1.94675673e-05
1.98263457e-05
2.02738766e-05
2.02930544e-05
1.94415171e-05
1.94247069e-05
2.00325979e-05
2.02803784e-05
1.97734436e-05
1.96036183e-05
1.97972526e-05
2.02879146e-05
2.03027957e-05
1.95114062e-05
1.94607581e-05
1.98172244e-05
2.0274999e-05
2.02899354e-05
1.94653025e-05
1.94401009e-05
1.9971738e-05
2.02784427e-05
1.97793389e-05
1.96038006e-05
1.98019305e-05
2.02846449e-05
2.02943694e-05
1.94909782e-05
1.94578464e-05
1.98117397e-05
2.02760747e-05
2.02809024e-05
1.94071406e-05
1.93896464e-05
1.99260419e-05
2.02695351e-05
1.97611158e-05
1.95219006e-05
1.99177566e-05
2.02770114e-05
1.97546785e-05
1.95297726e-05
1.99338425e-05
2.02785403e-05
1.97557741e-05
1.95414387e-05
1.99651625e-05
2.02790717e-05
1.97602942e-05
1.95665482e-05
1.98074426e-05
2.02845799e-05
2.02604233e-05
1.94073761e-05
1.94058238e-05
1.99483551e-05
2.0268205e-05
1.97633125e-05
1.95443932e-05
2.00131231e-05
2.02753862e-05
1.97597571e-05
1.95811666e-05
1.98154003e-05
2.02867373e-05
2.02569769e-05
1.94220343e-05
1.94369534e-05
1.99887192e-05
2.02721195e-05
1.97695779e-05
1.9551487e-05
2.00823698e-05
2.02778313e-05
1.97625905e-05
1.95812244e-05
1.98045489e-05
2.02817645e-05
2.02708449e-05
1.93723591e-05
1.94323963e-05
2.02699882e-05
2.02741928e-05
1.97597536e-05
1.95807769e-05
1.99645198e-05
2.02729145e-05
1.98275829e-05
1.93933616e-05
1.96140649e-05
2.03071331e-05
2.03000953e-05
1.96894662e-05
1.96123055e-05
2.00383426e-05
2.02786465e-05
1.98336432e-05
1.94283259e-05
1.96174027e-05
2.03198645e-05
2.02909128e-05
1.9755651e-05
1.94175485e-05
1.96369588e-05
2.02923496e-05
2.03114597e-05
1.96610043e-05
1.962661e-05
2.02560418e-05
2.0284376e-05
1.98093378e-05
1.94566288e-05
1.95866636e-05
2.03014801e-05
2.02901055e-05
1.97866258e-05
1.94653349e-05
1.95962706e-05
2.02914388e-05
2.02910033e-05
1.97932481e-05
1.94713031e-05
1.95654825e-05
2.02806287e-05
2.02911931e-05
1.98036502e-05
1.947791e-05
1.95245892e-05
2.02695707e-05
2.02913632e-05
1.98015826e-05
1.94824077e-05
1.9483092e-05
2.02333413e-05
2.03043819e-05
1.97558471e-05
1.96334215e-05
2.01670177e-05
2.02841824e-05
1.98353355e-05
1.95100367e-05
1.9489855e-05
2.01559678e-05
2.02822603e-05
1.98865895e-05
1.95423487e-05
1.94948624e-05
2.00811031e-05
2.02776826e-05
1.99113005e-05
1.95606369e-05
1.94909354e-05
2.00228499e-05
2.02725624e-05
1.99393662e-05
1.95740542e-05
1.94826452e-05
1.99715736e-05
2.02686978e-05
2.00047858e-05
1.96229339e-05
1.94939135e-05
1.99232482e-05
2.02610303e-05
2.00234044e-05
1.96319598e-05
1.94856482e-05
1.98893201e-05
2.02511235e-05
2.00732174e-05
1.9645841e-05
1.94712006e-05
1.98454563e-05
2.0262034e-05
2.01208948e-05
1.97448689e-05
1.95268536e-05
1.96266386e-05
2.01362852e-05
2.02922675e-05
1.98270266e-05
1.95343642e-05
1.95769231e-05
2.01202336e-05
2.02872587e-05
1.98315561e-05
1.95381056e-05
1.95328598e-05
2.00759395e-05
2.02952089e-05
1.979033e-05
1.95699898e-05
1.98158765e-05
2.02593499e-05
1.98509528e-05
1.9624871e-05
1.96353026e-05
2.01399811e-05
2.03008676e-05
1.97989529e-05
1.96602841e-05
1.98540072e-05
2.02709179e-05
1.98330345e-05
1.97064978e-05
1.96923249e-05
1.96452261e-05
1.97440225e-05
2.02335377e-05
2.02752315e-05
1.97829824e-05
1.95885985e-05
1.98072713e-05
2.02567913e-05
1.99185279e-05
1.96634325e-05
1.96921719e-05
2.00834039e-05
2.02486544e-05
1.97552052e-05
1.95242141e-05
1.98182519e-05
2.02310023e-05
1.97802941e-05
1.96150833e-05
1.9826131e-05
2.02171992e-05
1.97657002e-05
1.96318826e-05
1.98979874e-05
2.02162355e-05
1.97520655e-05
1.96303169e-05
1.99263504e-05
2.02172527e-05
1.9748393e-05
1.96371343e-05
1.99608842e-05
2.02233643e-05
1.97515536e-05
1.96961534e-05
2.0023218e-05
2.02188202e-05
1.97623921e-05
1.95774711e-05
1.97454342e-05
2.02741941e-05
2.02176096e-05
1.97569931e-05
1.95313213e-05
1.99460447e-05
2.02212302e-05
1.97511817e-05
1.96082936e-05
2.00525266e-05
2.02350572e-05
1.97681088e-05
1.97264561e-05
2.01942317e-05
2.02291347e-05
1.97624626e-05
1.9548698e-05
1.97458437e-05
2.0300395e-05
2.02507161e-05
1.97607364e-05
1.96103439e-05
1.98802295e-05
1.99830929e-05
1.97188776e-05
1.97238587e-05
2.02769014e-05
2.02484122e-05
1.97420868e-05
1.97519455e-05
2.02855793e-05
2.025427e-05
1.97604304e-05
1.95213522e-05
1.97379374e-05
2.03042416e-05
2.0311008e-05
2.02322194e-05
1.97520338e-05
1.95527852e-05
1.95888219e-05
1.94737521e-05
1.96856708e-05
2.02792347e-05
2.03028195e-05
2.02416649e-05
1.97216197e-05
1.97240905e-05
2.0299182e-05
2.02551443e-05
1.97185704e-05
1.94710058e-05
1.97492871e-05
2.03014126e-05
2.02740576e-05
1.97008234e-05
1.97491761e-05
2.03136308e-05
2.0278694e-05
1.97489419e-05
1.95321318e-05
1.97584589e-05
2.03104539e-05
2.02825905e-05
1.97577076e-05
1.95384137e-05
1.97600323e-05
2.03113131e-05
2.0282327e-05
1.97435394e-05
1.95322375e-05
1.97611538e-05
2.03090634e-05
2.02824863e-05
1.97365306e-05
1.95299927e-05
1.97638143e-05
2.03051941e-05
2.02803012e-05
1.97130364e-05
1.95087754e-05
1.97654286e-05
2.02998999e-05
2.02763905e-05
1.96517657e-05
1.9441115e-05
1.9764697e-05
2.02944623e-05
2.02669631e-05
1.9687249e-05
1.97910558e-05
2.03029969e-05
2.02677822e-05
1.95923317e-05
1.94233591e-05
1.97706997e-05
2.0286177e-05
2.02546916e-05
1.96023169e-05
1.96942448e-05
2.02992976e-05
2.02569645e-05
1.96281968e-05
1.97813799e-05
2.0305273e-05
2.02724555e-05
1.96340119e-05
1.95058802e-05
1.97719664e-05
2.02966392e-05
2.02823496e-05
1.97171391e-05
1.95417292e-05
1.97716041e-05
2.03017021e-05
2.02820074e-05
1.96654585e-05
1.94807741e-05
1.97629928e-05
2.03030015e-05
2.02867759e-05
1.96400632e-05
1.94849757e-05
1.97654777e-05
2.0307917e-05
2.0288451e-05
1.97590227e-05
1.95582005e-05
1.97707319e-05
2.03089425e-05
2.02883602e-05
1.96921601e-05
1.95089592e-05
1.97657436e-05
)
;

boundaryField
{
    closed
    {
        type            calculated;
        value           nonuniform List<scalar> 0();
    }
    open
    {
        type            calculated;
        value           nonuniform List<scalar> 0();
    }
    sides
    {
        type            empty;
    }
    procBoundary2to1
    {
        type            processor;
        value           uniform 2.02862499e-05;
    }
    procBoundary2to3
    {
        type            processor;
        value           uniform 2.03073307e-05;
    }
}


// ************************************************************************* //
