/*--------------------------------*- C++ -*----------------------------------*\
| =========                 |                                                 |
| \\      /  F ield         | OpenFOAM: The Open Source CFD Toolbox           |
|  \\    /   O peration     | Version:  2306                                  |
|   \\  /    A nd           | Website:  www.openfoam.com                      |
|    \\/     M anipulation  |                                                 |
\*---------------------------------------------------------------------------*/
FoamFile
{
    version     2.0;
    format      ascii;
    arch        "LSB;label=32;scalar=64";
    class       volScalarField;
    location    "0.00078";
    object      p;
}
// * * * * * * * * * * * * * * * * * * * * * * * * * * * * * * * * * * * * * //

dimensions      [1 -1 -2 0 0 0 0];

internalField   nonuniform List<scalar> 
530
(
101656.773
101651.388
101645.742
101639.882
101633.826
101627.065
101619.597
101611.898
101603.983
101595.99
101587.568
101578.727
101569.772
101561.068
101552.39
101543.667
101534.627
101525.473
101516.51
101508.84
101500.531
101492.483
101484.361
101476.16
101468.059
101460.449
101453.065
101445.995
101438.893
101432.106
101425.89
101420.43
101415.484
101411.076
101407.11
101403.483
101400.252
101397.227
101393.65
101398.241
101394.365
101393.275
101393.338
101394.273
101395.879
101398.035
101401.018
101404.64
101408.79
101413.596
101419.064
101425.002
101431.875
101439.444
101447.902
101457.168
101461.977
101470.766
101479.835
101489.07
101498.26
101507.319
101516.377
101525.443
101535.477
101545.392
101554.401
101563.257
101572.368
101581.157
101588.965
101596.088
101602.526
101609.252
101615.76
101620.212
101624.397
101627.848
101630.871
101632.836
101634.273
101635.182
101635.563
101635.407
101634.719
101633.607
101631.822
101629.557
101627.014
101624.057
101620.483
101616.399
101612.377
101608.334
101604.386
101600.041
101595.862
101591.843
101588.044
101584.108
101580.549
101577.339
101574.31
101571.325
101568.385
101565.535
101562.752
101560.17
101557.338
101554.657
101552.031
101549.488
101546.788
101544.021
101540.926
101537.627
101533.693
101528.84
101524.283
101522.407
101520.996
101518.844
101515.31
101511.205
101506.85
101502.394
101497.97
101492.697
101487.284
101481.84
101476.043
101473.398
101466.815
101460.939
101455.392
101449.934
101444.105
101437.618
101430.998
101425.08
101420.235
101415.148
101410.876
101407.608
101404.898
101402.418
101399.703
101397.07
101394.855
101393.217
101391.94
101390.918
101390.167
101389.762
101389.883
101390.406
101391.503
101393.004
101394.495
101396.545
101398.938
101401.583
101404.425
101407.638
101411.118
101415.137
101419.148
101423.184
101427.397
101431.693
101436.474
101441.098
101445.317
101449.627
101453.989
101458.231
101462.306
101466.392
101470.407
101474.715
101478.765
101482.609
101486.371
101489.962
101493.73
101497.192
101500.181
101502.939
101505.402
101507.594
101509.172
101510.372
101511.079
101511.48
101511.185
101510.361
101508.858
101507.146
101504.678
101501.622
101497.912
101493.815
101489.35
101484.674
101478.602
101472.113
101465.937
101459.38
101452.206
101444.055
101436.543
101428.349
101419.59
101409.993
101400.302
101390.444
101381.643
101369.336
101356.415
101346.131
101335.113
101324.29
101310.418
101300.71
101288.59
101277.238
101265.578
101253.672
101242.215
101231.655
101219.524
101206.136
101193.675
101181.952
101170.641
101158.38
101146.084
101134.641
101123.295
101111.765
101099.986
101088.809
101077.959
101066.945
101055.908
101045.15
101035.032
101025.022
101014.796
101004.411
100994.959
100985.608
100976.126
100966.412
100956.234
100946.524
100936.367
100925.688
100913.52
100901.009
100888.242
100874.782
100860.198
100844.501
100829.403
100813.433
100796.671
100778.759
100759.753
100741.7
100722.874
100703.497
100683.021
100661.519
100641.2
100619.946
100597.745
100573.554
100547.303
100521.65
100494.495
100466.847
100439.501
100418.254
100371.038
100345.951
100317.163
100287.199
100256.771
100230.757
100207.201
100188.279
100176.742
100170.85
100169.023
100169.527
100172.555
100177.538
100182.664
100187.878
100193.043
100198.326
100205.169
100213.85
100224.366
100236.971
100251.613
100269.203
100289.036
100309.355
100330.706
100352.996
100377.127
100402.386
100427.271
100453.246
100480.716
100510.503
100541.457
100571.475
100601.851
100633.071
100665.916
100699.081
100730.778
100762.635
100795.197
100828.6
100862.451
100894.76
100926.08
100958.138
100991.155
101024.981
101057.498
101088.776
101120.886
101154.554
101190.078
101227.01
101261.468
101292.494
101331.004
101368.442
101404.711
101442.961
101482.955
101523.113
101561.777
101598.114
101636.702
101676.308
101714.978
101751.285
101788.683
101826.543
101864.143
101901.683
101938.219
101971.828
102003.904
102035.441
102065.656
102094.093
102119.347
102143.815
102166.738
102187.085
102204.154
102216.179
102225.54
102231.222
102233.845
102232.138
102227.528
102219.039
102207.981
102193.706
102177.202
102158.755
102140.657
102122.296
102103.814
102085.94
102070.258
102055.419
102040.874
102026.899
102014.58
102002.526
101990.345
101978.594
101968.311
101957.981
101947.362
101936.648
101925.762
101913.52
101898.676
101881.199
101882.699
101882.994
101879.871
101874.604
101868.646
101863.353
101857.687
101851.852
101846.498
101842.979
101839.145
101835.871
101833.068
101830.609
101828.25
101825.66
101822.261
101818.55
101814.757
101810.62
101806.045
101801.374
101797.19
101793.01
101788.508
101784.099
101780.237
101776.492
101772.676
101768.923
101765.152
101761.282
101757.323
101753.171
101748.505
101743.73
101738.958
101734.168
101729.69
101726.004
101723.166
101721.304
101720.079
101719.729
101720.363
101721.534
101723.046
101724.947
101726.794
101728.51
101730.318
101731.422
101732.271
101732.803
101732.936
101732.508
101731.726
101730.485
101728.864
101727.179
101724.945
101722.565
101720.043
101717.4
101715.096
101712.637
101710.355
101708.262
101706.361
101704.886
101703.569
101702.749
101702.359
101702.392
101703.025
101703.547
101704.253
101704.855
101705.27
101705.5
101705.275
101704.913
101704.278
101703.228
101701.995
101700.157
101698.056
101695.52
101692.595
101689.063
101684.93
101680.308
101675.09
101669.624
101663.153
101655.723
101647.993
101640.479
101633.41
101626.468
101619.415
101613.125
101607.527
101601.895
101595.79
101589.137
101582.26
101574.895
101567.108
101559.195
101551.345
101543.819
101536.127
101528.198
101520.28
101512.542
101505.211
101497.688
101489.789
101481.692
101473.541
101465.619
101457.348
101449.185
101440.968
101432.761
101424.777
101416.644
101408.171
101399.435
)
;

boundaryField
{
    closed
    {
        type            zeroGradient;
    }
    open
    {
        type            waveTransmissive;
        gamma           1.25;
        fieldInf        101325;
        lInf            1;
        value           nonuniform List<scalar> 0();
    }
    sides
    {
        type            empty;
    }
    procBoundary2to1
    {
        type            processor;
        value           uniform 101661.479;
    }
    procBoundary2to3
    {
        type            processor;
        value           uniform 101390.47;
    }
}


// ************************************************************************* //
