/*--------------------------------*- C++ -*----------------------------------*\
| =========                 |                                                 |
| \\      /  F ield         | OpenFOAM: The Open Source CFD Toolbox           |
|  \\    /   O peration     | Version:  2306                                  |
|   \\  /    A nd           | Website:  www.openfoam.com                      |
|    \\/     M anipulation  |                                                 |
\*---------------------------------------------------------------------------*/
FoamFile
{
    version     2.0;
    format      ascii;
    arch        "LSB;label=32;scalar=64";
    class       volScalarField;
    location    "0.00114";
    object      prefDh_H;
}
// * * * * * * * * * * * * * * * * * * * * * * * * * * * * * * * * * * * * * //

dimensions      [1 1 -3 0 0 0 0];

internalField   nonuniform List<scalar> 
530
(
24352.7804
23535.4739
23395.8112
23393.3616
23393.1246
23393.1168
23393.1163
23393.1163
23393.1163
23393.1163
23393.1163
23393.1163
23393.1163
23393.1163
23393.1163
23393.1163
23393.1163
23393.1163
23393.1163
23393.1163
23393.1163
23393.1163
23393.1163
23393.1163
23393.1163
23393.1163
23393.1163
23393.1163
23393.1163
23393.1163
23393.1163
23393.1163
23393.1163
23393.1163
23393.1163
23393.1163
23393.1163
23393.1163
23393.1163
23393.1163
23393.1163
23393.1163
23393.1163
23393.1163
23393.1163
23393.1163
23393.1163
23393.1163
23393.1163
23393.1163
23393.1163
23393.1163
23393.1163
23393.1163
23393.1163
23393.1163
23393.1163
23393.1163
23393.1163
23393.1163
23393.1163
23393.1163
23393.1163
23393.1163
23393.1163
23393.1163
23393.1164
23393.1167
23393.1172
23393.1185
23393.1208
23393.126
23393.1366
23393.1556
23393.1908
23393.2563
23393.3324
23393.4823
23393.7034
23394.0285
23394.3645
23394.6594
23394.9801
23395.7772
23399.3841
23403.5945
23402.9434
23378.2554
23380.1285
23439.2435
23610.5844
23471.8481
23392.7187
23322.0625
23281.9606
23368.46
23713.9551
23933.2515
23932.4886
23588.9656
23320.3885
23207.9954
23188.0809
23124.8482
23351.2738
23939.4635
23970.4162
23867.2724
23970.6211
23840.6633
23372.7761
23203.304
23235.1129
23175.6635
23135.0909
23349.3611
23895.8587
23987.5673
23828.1655
23376.8629
23171.0999
23185.7972
23358.6499
23898.9152
23984.3351
23829.5907
23383.4408
23179.983
23187.7577
23377.3746
23922.3132
23679.5173
23424.9255
23400.0251
23949.893
23849.8976
23249.0388
23025.5266
23371.8609
23917.2737
23676.8003
23371.6786
23386.0596
23943.8506
23633.5458
23335.0818
23379.9148
23947.225
23621.2572
23296.0137
23374.7575
23952.6508
23622.6762
23283.0903
23373.9503
23963.0594
23644.9856
23352.4281
23382.5851
23979.7312
23939.0998
23391.9738
23405.4224
23377.3598
23395.0164
23332.2326
23242.2583
23377.7832
23958.2871
23705.889
23355.5661
23404.2511
23967.2029
23863.6293
23136.0607
22928.422
23372.6208
23923.0456
23653.4448
23282.8452
23384.6591
23942.1708
23599.2336
23268.4909
23380.9567
23939.2586
23578.9245
23242.3323
23377.4503
23935.516
23563.7224
23225.4444
23375.5519
23932.9812
23548.9859
23224.3205
23389.816
23941.4375
23741.496
23022.1647
22908.5213
23377.6798
23911.7515
23591.4285
23250.6047
23382.5267
23932.3542
23550.0145
23258.3694
23394.5237
23944.547
23763.8999
23009.1001
22932.4407
23381.9173
23913.041
23571.9252
23265.0145
23398.0409
23942.0977
23782.2008
22996.3405
22956.0267
23388.8019
23910.0368
23562.6788
23271.035
23386.728
23926.6583
23509.7804
23261.7719
23384.7207
23924.2189
23480.4818
23241.7467
23384.2982
23918.1488
23455.3131
23239.7413
23389.4552
23930.6651
23575.4074
22936.4228
22981.0564
23413.739
23891.8517
23457.1459
23277.5408
23405.5879
23900.9288
23422.4155
23296.953
23418.1502
23894.7373
23403.1088
23305.8475
23420.479
23910.1128
23449.9377
22969.538
23104.534
23485.6533
23872.8702
23409.2876
23358.3596
23456.4513
23878.5889
23386.9572
23380.2067
23463.8998
23889.5769
23388.8324
22998.9671
23194.1917
23548.3137
23870.4132
23388.4365
23388.9971
23480.4267
23883.487
23374.1321
23109.427
23151.2822
23273.1545
23397.4174
23606.1763
23899.8091
23417.2681
23155.4714
23326.2839
23592.4455
23910.8948
23437.4169
23403.5886
23453.1139
23909.0985
23415.6437
23387.9878
23431.8988
23895.0975
23442.4641
23133.2969
23103.6996
23289.4056
23504.8632
23890.8028
23552.0812
23314.9844
23283.4804
23553.6144
23889.1389
23596.1171
23367.7663
23296.2065
23534.0512
23900.9966
23798.3231
23367.4986
23242.9108
23233.2742
23411.9576
23845.4526
23753.2111
23362.2377
23170.6855
23370.1462
23808.6293
23806.8838
23377.6513
23391.5428
23736.3194
23778.5206
23352.3337
23142.3177
23370.2917
23756.5216
23807.5454
23355.5081
23165.7427
23379.3993
23743.0379
23824.1801
23356.8263
23162.422
23387.0429
23729.4729
23835.6411
23365.5321
23213.4342
23163.993
23392.5417
23759.0224
23857.5346
23368.5926
23216.7113
23385.9509
23769.2026
23856.6323
23370.2088
23184.3183
23392.913
23772.8708
23863.698
23387.0576
23407.8325
23671.2352
23774.3221
23389.0253
23409.5277
23708.1543
23771.3108
23368.2818
23100.8906
23385.3822
23816.2539
23814.917
23381.8211
23110.2762
23380.5749
23836.5625
23828.6744
23411.3898
23409.2273
23756.8026
23739.2789
23390.9424
23101.3929
23373.3593
23851.4939
23780.5813
23418.2665
23401.3315
23776.9878
23713.6821
23359.8366
23090.7061
23373.2917
23862.7726
23784.7657
23340.4964
23090.292
23376.5493
23873.2771
23788.2435
23321.9168
23091.0532
23376.0044
23880.2699
23720.3944
23433.5361
23390.076
23847.6624
23627.3665
23437.6634
23383.8447
23869.0379
23666.8083
23165.731
23057.8212
23374.4799
23899.4611
23630.8457
23425.1018
23378.7837
23902.1385
23589.3401
23418.5772
23381.1581
23911.71
23721.4458
23183.262
23177.3554
23421.1571
23943.5366
23851.1924
23341.5554
23257.4642
23329.848
23320.7266
23388.9129
23499.4635
23943.9714
23640.55
23407.8831
23392.3042
23913.8547
23574.419
23095.7366
23131.6865
23440.9112
23906.0569
23474.3499
23409.8585
23403.6278
23899.9077
23436.5515
23395.1549
23419.3529
23890.6432
23414.3475
23384.6091
23429.5329
23877.0416
23404.9018
23080.2457
23211.006
23495.3006
23893.9972
23445.0221
23131.9184
23265.6979
23537.621
23894.2002
23452.5258
23145.879
23287.7614
23572.2187
23886.759
23418.1621
23114.9445
23283.3102
23605.3872
23881.7704
23392.2172
23425.8955
23500.2914
23881.1648
23373.8575
23074.9803
23297.2361
23637.2201
23895.5924
23382.9662
23427.4591
23517.6847
23889.4893
23370.4453
23078.401
23296.1801
23621.8114
23911.8688
23399.3531
23209.1293
23374.8085
23798.6762
23972.3699
23866.4244
23374.2553
23162.5569
23206.335
23244.8241
23223.4982
23398.9981
23840.6369
23933.2181
23470.5819
23294.3281
23358.5629
23775.8064
23923.3559
23484.8744
23216.5461
23120.1293
23300.121
23761.3313
23931.0235
23519.5912
23291.1545
23238.0979
23524.7917
)
;

boundaryField
{
    closed
    {
        type            calculated;
        value           uniform 31754.0919;
    }
    open
    {
        type            calculated;
        value           nonuniform List<scalar> 0();
    }
    sides
    {
        type            empty;
    }
    procBoundary0to1
    {
        type            processor;
        value           uniform 23899.0024;
    }
}


// ************************************************************************* //
