/*--------------------------------*- C++ -*----------------------------------*\
| =========                 |                                                 |
| \\      /  F ield         | OpenFOAM: The Open Source CFD Toolbox           |
|  \\    /   O peration     | Version:  2306                                  |
|   \\  /    A nd           | Website:  www.openfoam.com                      |
|    \\/     M anipulation  |                                                 |
\*---------------------------------------------------------------------------*/
FoamFile
{
    version     2.0;
    format      ascii;
    arch        "LSB;label=32;scalar=64";
    class       volScalarField;
    location    "0.00114";
    object      prefDZ_T;
}
// * * * * * * * * * * * * * * * * * * * * * * * * * * * * * * * * * * * * * //

dimensions      [1 -1 -1 -1 0 0 0];

internalField   nonuniform List<scalar> 
530
(
-1.22189227e-09
-1.20536489e-09
-1.20401956e-09
-1.20403216e-09
-1.20403318e-09
-1.20403318e-09
-1.20403318e-09
-1.20403318e-09
-1.20403318e-09
-1.20403318e-09
-1.20403318e-09
-1.20403318e-09
-1.20403318e-09
-1.20403318e-09
-1.20403318e-09
-1.20403318e-09
-1.20403318e-09
-1.20403318e-09
-1.20403318e-09
-1.20403318e-09
-1.20403318e-09
-1.20403318e-09
-1.20403318e-09
-1.20403318e-09
-1.20403318e-09
-1.20403318e-09
-1.20403318e-09
-1.20403318e-09
-1.20403318e-09
-1.20403318e-09
-1.20403318e-09
-1.20403318e-09
-1.20403318e-09
-1.20403318e-09
-1.20403318e-09
-1.20403318e-09
-1.20403318e-09
-1.20403318e-09
-1.20403318e-09
-1.20403318e-09
-1.20403318e-09
-1.20403318e-09
-1.20403318e-09
-1.20403318e-09
-1.20403318e-09
-1.20403318e-09
-1.20403318e-09
-1.20403318e-09
-1.20403318e-09
-1.20403318e-09
-1.20403318e-09
-1.20403318e-09
-1.20403318e-09
-1.20403318e-09
-1.20403318e-09
-1.20403318e-09
-1.20403318e-09
-1.20403318e-09
-1.20403318e-09
-1.20403318e-09
-1.20403318e-09
-1.20403318e-09
-1.20403318e-09
-1.20403318e-09
-1.20403318e-09
-1.20403318e-09
-1.20403318e-09
-1.20403318e-09
-1.20403318e-09
-1.20403318e-09
-1.20403319e-09
-1.20403321e-09
-1.20403321e-09
-1.20403319e-09
-1.2040335e-09
-1.20403413e-09
-1.20403274e-09
-1.20403145e-09
-1.20403646e-09
-1.2040447e-09
-1.20404068e-09
-1.20401499e-09
-1.20397714e-09
-1.20400046e-09
-1.20443261e-09
-1.20477286e-09
-1.20462234e-09
-1.19894262e-09
-1.19787849e-09
-1.20886589e-09
-1.22194705e-09
-1.21176887e-09
-1.1920316e-09
-1.18990702e-09
-1.18980703e-09
-1.19116039e-09
-1.2284506e-09
-1.22785767e-09
-1.2280671e-09
-1.22054129e-09
-1.1897492e-09
-1.18895357e-09
-1.18821087e-09
-1.18827776e-09
-1.19549251e-09
-1.22887757e-09
-1.2269242e-09
-1.22995352e-09
-1.22664022e-09
-1.23329336e-09
-1.19128138e-09
-1.18913441e-09
-1.18899347e-09
-1.18822717e-09
-1.1884962e-09
-1.1956934e-09
-1.23008342e-09
-1.22615667e-09
-1.23322442e-09
-1.19278734e-09
-1.18884664e-09
-1.18897106e-09
-1.1962057e-09
-1.2298902e-09
-1.22612141e-09
-1.23334559e-09
-1.19210465e-09
-1.18912894e-09
-1.18896116e-09
-1.19669407e-09
-1.23039604e-09
-1.22621263e-09
-1.19199675e-09
-1.19766184e-09
-1.2289097e-09
-1.23330597e-09
-1.18953441e-09
-1.1880496e-09
-1.19705288e-09
-1.23038285e-09
-1.2259981e-09
-1.19114918e-09
-1.19727629e-09
-1.22932224e-09
-1.22337221e-09
-1.19065015e-09
-1.19686331e-09
-1.22938669e-09
-1.22257988e-09
-1.19018554e-09
-1.19630952e-09
-1.22935205e-09
-1.22265226e-09
-1.18995142e-09
-1.19613109e-09
-1.2289378e-09
-1.22403462e-09
-1.19054472e-09
-1.19707882e-09
-1.22757278e-09
-1.22999752e-09
-1.19309183e-09
-1.19248404e-09
-1.19431177e-09
-1.1927831e-09
-1.18993461e-09
-1.189397e-09
-1.19880849e-09
-1.2285134e-09
-1.22770419e-09
-1.19071383e-09
-1.19619558e-09
-1.22819662e-09
-1.23313273e-09
-1.18822803e-09
-1.18699765e-09
-1.19673695e-09
-1.22990505e-09
-1.22456487e-09
-1.19026789e-09
-1.19668611e-09
-1.22900926e-09
-1.22119122e-09
-1.19004523e-09
-1.19682767e-09
-1.22918515e-09
-1.21985534e-09
-1.18980607e-09
-1.19669362e-09
-1.22937356e-09
-1.21883563e-09
-1.18965675e-09
-1.1967471e-09
-1.22946444e-09
-1.21781765e-09
-1.18963994e-09
-1.19608121e-09
-1.22917218e-09
-1.22988912e-09
-1.18729997e-09
-1.18675839e-09
-1.19740422e-09
-1.23020506e-09
-1.22067667e-09
-1.19003697e-09
-1.19763416e-09
-1.22915208e-09
-1.21787989e-09
-1.18992962e-09
-1.19699295e-09
-1.22879139e-09
-1.23114435e-09
-1.18720559e-09
-1.18701426e-09
-1.19902476e-09
-1.22993958e-09
-1.21938804e-09
-1.190077e-09
-1.19746731e-09
-1.22863049e-09
-1.23214916e-09
-1.18718477e-09
-1.18729259e-09
-1.20056694e-09
-1.22986693e-09
-1.21876992e-09
-1.1901046e-09
-1.19964911e-09
-1.2292216e-09
-1.21502344e-09
-1.18984461e-09
-1.2004169e-09
-1.2295155e-09
-1.21283176e-09
-1.18960401e-09
-1.20109335e-09
-1.22985733e-09
-1.21076145e-09
-1.18955329e-09
-1.20063455e-09
-1.22935944e-09
-1.21962184e-09
-1.18644183e-09
-1.18723671e-09
-1.20537526e-09
-1.23082388e-09
-1.21107486e-09
-1.19001052e-09
-1.20442889e-09
-1.23041462e-09
-1.2079557e-09
-1.19003548e-09
-1.20615974e-09
-1.23075993e-09
-1.20595435e-09
-1.19008274e-09
-1.20602656e-09
-1.23011157e-09
-1.21065578e-09
-1.18679151e-09
-1.18829614e-09
-1.21266552e-09
-1.23148029e-09
-1.20688846e-09
-1.19070176e-09
-1.21004534e-09
-1.23121769e-09
-1.2040461e-09
-1.19077311e-09
-1.21067573e-09
-1.23082729e-09
-1.20507801e-09
-1.18710041e-09
-1.18898208e-09
-1.21767054e-09
-1.23163892e-09
-1.20466882e-09
-1.19095896e-09
-1.21224935e-09
-1.23101097e-09
-1.20307651e-09
-1.18820351e-09
-1.18855139e-09
-1.18983556e-09
-1.19111409e-09
-1.22177346e-09
-1.2298578e-09
-1.207222e-09
-1.18889435e-09
-1.19024415e-09
-1.22083717e-09
-1.22964543e-09
-1.20921653e-09
-1.19155107e-09
-1.2097765e-09
-1.23012309e-09
-1.20708056e-09
-1.19076757e-09
-1.20783902e-09
-1.23080105e-09
-1.20979119e-09
-1.18810953e-09
-1.18798819e-09
-1.18994008e-09
-1.21431037e-09
-1.23032018e-09
-1.21800688e-09
-1.19020534e-09
-1.19006018e-09
-1.21808642e-09
-1.23009235e-09
-1.22102497e-09
-1.19071289e-09
-1.19013447e-09
-1.21665904e-09
-1.2293195e-09
-1.23346475e-09
-1.19247095e-09
-1.18968268e-09
-1.18961832e-09
-1.20533826e-09
-1.23234685e-09
-1.23068567e-09
-1.19062351e-09
-1.18887152e-09
-1.19837701e-09
-1.23392063e-09
-1.23360229e-09
-1.19539881e-09
-1.19551237e-09
-1.22973796e-09
-1.23211508e-09
-1.1925102e-09
-1.18872548e-09
-1.19478103e-09
-1.23092523e-09
-1.23374108e-09
-1.19448213e-09
-1.18905837e-09
-1.1940188e-09
-1.23014203e-09
-1.23387839e-09
-1.19584482e-09
-1.18907313e-09
-1.19287904e-09
-1.22932373e-09
-1.23363055e-09
-1.19730211e-09
-1.18922152e-09
-1.18905488e-09
-1.19450431e-09
-1.2310924e-09
-1.23245359e-09
-1.19781862e-09
-1.18982563e-09
-1.19415792e-09
-1.2316537e-09
-1.23253907e-09
-1.19711293e-09
-1.18951375e-09
-1.19296823e-09
-1.23183509e-09
-1.23276064e-09
-1.19814576e-09
-1.19478683e-09
-1.22578458e-09
-1.23179776e-09
-1.19594161e-09
-1.19424148e-09
-1.22793809e-09
-1.23164238e-09
-1.19302883e-09
-1.18863776e-09
-1.19272529e-09
-1.23410995e-09
-1.23404354e-09
-1.19285804e-09
-1.18888434e-09
-1.19392192e-09
-1.23365074e-09
-1.23428134e-09
-1.1947273e-09
-1.19490711e-09
-1.2307647e-09
-1.22983466e-09
-1.19151371e-09
-1.18877283e-09
-1.19521066e-09
-1.23324189e-09
-1.23204854e-09
-1.19398342e-09
-1.19545474e-09
-1.23187698e-09
-1.22833079e-09
-1.19064115e-09
-1.18867138e-09
-1.19641887e-09
-1.2330228e-09
-1.23233683e-09
-1.19067023e-09
-1.18878876e-09
-1.19732152e-09
-1.23249024e-09
-1.2325363e-09
-1.1905557e-09
-1.18880511e-09
-1.19814113e-09
-1.23203352e-09
-1.22860493e-09
-1.19314087e-09
-1.19694123e-09
-1.23358677e-09
-1.22301394e-09
-1.19240993e-09
-1.19736146e-09
-1.23316428e-09
-1.22547256e-09
-1.18900161e-09
-1.18814887e-09
-1.1998396e-09
-1.23163662e-09
-1.22318022e-09
-1.19180968e-09
-1.19805255e-09
-1.23168536e-09
-1.22054516e-09
-1.19174052e-09
-1.19830883e-09
-1.23139091e-09
-1.22865127e-09
-1.18932303e-09
-1.18922001e-09
-1.20627151e-09
-1.22889421e-09
-1.23342455e-09
-1.19083175e-09
-1.19003753e-09
-1.19040271e-09
-1.19043698e-09
-1.19090327e-09
-1.2138232e-09
-1.22857947e-09
-1.22380132e-09
-1.19354074e-09
-1.20126323e-09
-1.23123756e-09
-1.21955472e-09
-1.18825955e-09
-1.18864621e-09
-1.20890803e-09
-1.23100749e-09
-1.21229789e-09
-1.19150383e-09
-1.2049816e-09
-1.23160599e-09
-1.20889003e-09
-1.19140437e-09
-1.20694247e-09
-1.23193108e-09
-1.206598e-09
-1.19135939e-09
-1.20802369e-09
-1.23259644e-09
-1.20559347e-09
-1.18815564e-09
-1.18912571e-09
-1.21359745e-09
-1.23133095e-09
-1.2097551e-09
-1.18876446e-09
-1.18983285e-09
-1.21688123e-09
-1.23087406e-09
-1.210417e-09
-1.18894544e-09
-1.19009647e-09
-1.21940592e-09
-1.23123128e-09
-1.20720567e-09
-1.18860143e-09
-1.18992577e-09
-1.22166303e-09
-1.23160813e-09
-1.20328984e-09
-1.19220641e-09
-1.21418419e-09
-1.23221669e-09
-1.20121474e-09
-1.18818757e-09
-1.18979337e-09
-1.22371652e-09
-1.23134763e-09
-1.20162656e-09
-1.19173576e-09
-1.21553703e-09
-1.23195578e-09
-1.20028917e-09
-1.18823446e-09
-1.18974754e-09
-1.22272314e-09
-1.23061728e-09
-1.2050796e-09
-1.18978536e-09
-1.192403e-09
-1.23349155e-09
-1.22673951e-09
-1.23129807e-09
-1.20095298e-09
-1.18898401e-09
-1.18904191e-09
-1.18951705e-09
-1.18971621e-09
-1.19204992e-09
-1.23300254e-09
-1.22869977e-09
-1.2116034e-09
-1.19051716e-09
-1.19094227e-09
-1.2319378e-09
-1.22917346e-09
-1.21274304e-09
-1.1891856e-09
-1.18872247e-09
-1.19044944e-09
-1.23113011e-09
-1.22893823e-09
-1.21553987e-09
-1.19004946e-09
-1.18971288e-09
-1.21604664e-09
)
;

boundaryField
{
    closed
    {
        type            calculated;
        value           uniform -1.46729845e-09;
    }
    open
    {
        type            calculated;
        value           nonuniform List<scalar> 0();
    }
    sides
    {
        type            empty;
    }
    procBoundary0to1
    {
        type            processor;
        value           uniform -1.23037182e-09;
    }
}


// ************************************************************************* //
