/*--------------------------------*- C++ -*----------------------------------*\
| =========                 |                                                 |
| \\      /  F ield         | OpenFOAM: The Open Source CFD Toolbox           |
|  \\    /   O peration     | Version:  2306                                  |
|   \\  /    A nd           | Website:  www.openfoam.com                      |
|    \\/     M anipulation  |                                                 |
\*---------------------------------------------------------------------------*/
FoamFile
{
    version     2.0;
    format      ascii;
    arch        "LSB;label=32;scalar=64";
    class       volScalarField;
    location    "0.00114";
    object      PV;
}
// * * * * * * * * * * * * * * * * * * * * * * * * * * * * * * * * * * * * * //

dimensions      [0 0 0 0 0 0 0];

internalField   nonuniform List<scalar> 
530
(
-0.00715147387
-0.00709381523
-0.0070750544
-0.00707449296
-0.0070744346
-0.0070744318
-0.00707443142
-0.0070744308
-0.00707442977
-0.00707443033
-0.00707443165
-0.0070744325
-0.00707443249
-0.00707443235
-0.00707443176
-0.00707443179
-0.00707443248
-0.00707443213
-0.00707443077
-0.00707443025
-0.00707442945
-0.0070744284
-0.00707442825
-0.00707442831
-0.00707442957
-0.00707443078
-0.00707443127
-0.00707443098
-0.00707443068
-0.00707443036
-0.00707442971
-0.00707442897
-0.00707442819
-0.00707442765
-0.00707442793
-0.00707442843
-0.00707442907
-0.00707442852
-0.00707442831
-0.00707442822
-0.00707442844
-0.00707442847
-0.00707442825
-0.00707442849
-0.00707442832
-0.00707442854
-0.00707442839
-0.00707442865
-0.00707442841
-0.00707442872
-0.00707442854
-0.00707442883
-0.00707442865
-0.00707442891
-0.00707442878
-0.00707442882
-0.00707442887
-0.00707442895
-0.00707442891
-0.00707442903
-0.007074429
-0.00707442898
-0.00707442899
-0.00707442898
-0.00707442892
-0.00707442885
-0.00707442872
-0.00707442855
-0.00707442838
-0.00707442832
-0.00707442864
-0.00707442972
-0.00707443269
-0.00707443856
-0.00707444724
-0.00707446311
-0.0070744959
-0.00707454997
-0.00707458153
-0.00707462159
-0.00707474227
-0.00707499654
-0.00707532881
-0.00707539747
-0.00707349625
-0.00707239583
-0.00707313369
-0.00710237918
-0.00710902439
-0.0070541469
-0.0070061507
-0.00704271001
-0.00714375739
-0.00715773372
-0.0071654081
-0.00714356412
-0.00698734888
-0.00695351405
-0.00695365707
-0.00701166079
-0.00715766241
-0.00717340347
-0.00717077159
-0.00718425703
-0.00711620202
-0.00695256219
-0.0069482926
-0.0069637228
-0.00694823299
-0.0069670459
-0.00714467037
-0.00717619692
-0.00716810929
-0.00717334039
-0.00718399632
-0.00711433954
-0.00695875355
-0.00694540142
-0.00696898858
-0.00713767576
-0.00718077096
-0.00717899854
-0.00711449576
-0.00695913364
-0.00694665883
-0.00696954797
-0.00714353398
-0.00718223959
-0.00717917708
-0.00711697939
-0.00695614898
-0.00699454027
-0.00715405837
-0.007117631
-0.0069528501
-0.00696736748
-0.0071732003
-0.00720396807
-0.00711477333
-0.00695802335
-0.00699590089
-0.00716358317
-0.00711757917
-0.0069545919
-0.00700457023
-0.00716677385
-0.00711867722
-0.00695422079
-0.00700674131
-0.00717049104
-0.00712054742
-0.00695329152
-0.00700599768
-0.00717074667
-0.00712109142
-0.00695145951
-0.00700137848
-0.00716148905
-0.00711721967
-0.00694858051
-0.00695423531
-0.00714092406
-0.00714697445
-0.00713059739
-0.0071426087
-0.00715842785
-0.00717212785
-0.00710467903
-0.00695078018
-0.00698938725
-0.00716145316
-0.0071264913
-0.00694986419
-0.00696476367
-0.00718362619
-0.0072128893
-0.00711610912
-0.00695647889
-0.00699928044
-0.00717287287
-0.00711985734
-0.00695407043
-0.00701079947
-0.00717403722
-0.00711835143
-0.00695462929
-0.00701512645
-0.00717716683
-0.00711822862
-0.00695507804
-0.00701826237
-0.00717902969
-0.00711721439
-0.00695519369
-0.00702163787
-0.00717880884
-0.00712395552
-0.00695368513
-0.00698365524
-0.0071977147
-0.00721440273
-0.00711311868
-0.0069576952
-0.00701128528
-0.00717665086
-0.00711315218
-0.00695473057
-0.00702124235
-0.00717411072
-0.00711954593
-0.00695289437
-0.00697965648
-0.00719912088
-0.00721184736
-0.00710441861
-0.00695738735
-0.00701549418
-0.00717404359
-0.00711776965
-0.00695339733
-0.00697693112
-0.00720163437
-0.00721009475
-0.00709735344
-0.00695835462
-0.00701777376
-0.00717365791
-0.00710294775
-0.0069562635
-0.00703132964
-0.00717342244
-0.0070978772
-0.00695672494
-0.00703890224
-0.0071753002
-0.00709345236
-0.00695752151
-0.00704669255
-0.00717509979
-0.0070974693
-0.00695554463
-0.00701419271
-0.00720723301
-0.00720537787
-0.00707354131
-0.00696120742
-0.00704437637
-0.00717153578
-0.00707784235
-0.00696004018
-0.00705719993
-0.00716785397
-0.00706974012
-0.00696090199
-0.00706566431
-0.00716629503
-0.00707124352
-0.00695842026
-0.00704432959
-0.00720362884
-0.00719045986
-0.00704336066
-0.00696370908
-0.00706016204
-0.00716076058
-0.00705351066
-0.00696269216
-0.00707354727
-0.00715651319
-0.00705087509
-0.00696060552
-0.00706577164
-0.00719959239
-0.00717764112
-0.00702368319
-0.00696281589
-0.00706832455
-0.00715532671
-0.00704316931
-0.00696035366
-0.00707442043
-0.00718643116
-0.00718126513
-0.00716815178
-0.00715071957
-0.00700935054
-0.00695813415
-0.00705907726
-0.00718415547
-0.00716205846
-0.00701339544
-0.00695718722
-0.00705134838
-0.00715090411
-0.00705373494
-0.00695757612
-0.00706041034
-0.00715435661
-0.00706066341
-0.00695942427
-0.00704806911
-0.00718190164
-0.00718686761
-0.0071669107
-0.00703611058
-0.00696034689
-0.00702093713
-0.00716459005
-0.00716994614
-0.00702210952
-0.00696110359
-0.00701163081
-0.00715865256
-0.00716819181
-0.00702712654
-0.00695937202
-0.00697464958
-0.00713827426
-0.00717464783
-0.00717590487
-0.00707240647
-0.00696727408
-0.00698153668
-0.00714714968
-0.00718181706
-0.00710506022
-0.0069727329
-0.00697286304
-0.00712422824
-0.0071267571
-0.00698418375
-0.00697698924
-0.0071340604
-0.00718548583
-0.00712522417
-0.00698023379
-0.00697186624
-0.00712316943
-0.00718332565
-0.00713115762
-0.00698212802
-0.00696899069
-0.00711533828
-0.0071838222
-0.00713888038
-0.00698417318
-0.00696710222
-0.00710876294
-0.00717488781
-0.00718326606
-0.00713134577
-0.00697960971
-0.00696434236
-0.00710715804
-0.00718044931
-0.00713246621
-0.00697862802
-0.00696515323
-0.00711241004
-0.00718473424
-0.00714118041
-0.00697864797
-0.0069647268
-0.00711131622
-0.00713516105
-0.00699640933
-0.00697851739
-0.00712444514
-0.00713841415
-0.00698930208
-0.00697872732
-0.00713549162
-0.00719350668
-0.00714081186
-0.00697151989
-0.00697164822
-0.00713929224
-0.00719371076
-0.00713319877
-0.00696858717
-0.00696972359
-0.00713592482
-0.00713445622
-0.00698088938
-0.00698384038
-0.00714855178
-0.00719439563
-0.00712423632
-0.00696617331
-0.00697685447
-0.00714121103
-0.00712939992
-0.00697729745
-0.00698789941
-0.00715892653
-0.00719521265
-0.00711693144
-0.00696408065
-0.0069758497
-0.00716320421
-0.00719630091
-0.0071126128
-0.00696275364
-0.00697557704
-0.00716635334
-0.0071967175
-0.00710818081
-0.00696229701
-0.00698716422
-0.0071496299
-0.00711920187
-0.00696743097
-0.00700477139
-0.00715450409
-0.00711529853
-0.00696417764
-0.00699704731
-0.0071844564
-0.0071981413
-0.00709793798
-0.0069597624
-0.00700342828
-0.0071577341
-0.00711012534
-0.00695943078
-0.00701236109
-0.00715837457
-0.00710904063
-0.00695779472
-0.00698690485
-0.00718353595
-0.00718385882
-0.00706899233
-0.00695278293
-0.00696624421
-0.00716469261
-0.00717460823
-0.0071630131
-0.00716536303
-0.00715562052
-0.00703879805
-0.00695294675
-0.00700147839
-0.00714193381
-0.00709406264
-0.00695751554
-0.00701553564
-0.00719176273
-0.00718826228
-0.00705654503
-0.00695895855
-0.00704095721
-0.00715816975
-0.00707315749
-0.00695997015
-0.00705513549
-0.0071603161
-0.00706401906
-0.00696116912
-0.00706466707
-0.00716177493
-0.00705892919
-0.00696269288
-0.00706825942
-0.00719336873
-0.0071760551
-0.00703830088
-0.00695984246
-0.00705000322
-0.0071882568
-0.00717120557
-0.00702670227
-0.0069597711
-0.00704733754
-0.00718705029
-0.00716911211
-0.0070175604
-0.00696089116
-0.00706034631
-0.00719021061
-0.0071685362
-0.00700971609
-0.00696177618
-0.00708032453
-0.00715246825
-0.00703449793
-0.0069617286
-0.00708836222
-0.00719446361
-0.00716433185
-0.00700272573
-0.0069595986
-0.00708839732
-0.00715510142
-0.00702904882
-0.00696024269
-0.00709304596
-0.00719389179
-0.00716376087
-0.00700546212
-0.00695678216
-0.00706933654
-0.00718163515
-0.00713964425
-0.00697353813
-0.00694770467
-0.00696309657
-0.00708884951
-0.00718277063
-0.00717437744
-0.00717078742
-0.00717702691
-0.00714576335
-0.00696653555
-0.00695297807
-0.00704414956
-0.00717070891
-0.00716151091
-0.0069768994
-0.0069547864
-0.00704062312
-0.00717437121
-0.00718963838
-0.00716904657
-0.00697964093
-0.00695403745
-0.00703074539
-0.00716772132
-0.00717553958
-0.00702745815
)
;

boundaryField
{
    closed
    {
        type            zeroGradient;
    }
    open
    {
        type            zeroGradient;
    }
    sides
    {
        type            empty;
    }
    procBoundary0to1
    {
        type            processor;
        value           uniform -0.00695914853;
    }
}


// ************************************************************************* //
