/*--------------------------------*- C++ -*----------------------------------*\
| =========                 |                                                 |
| \\      /  F ield         | OpenFOAM: The Open Source CFD Toolbox           |
|  \\    /   O peration     | Version:  2306                                  |
|   \\  /    A nd           | Website:  www.openfoam.com                      |
|    \\/     M anipulation  |                                                 |
\*---------------------------------------------------------------------------*/
FoamFile
{
    version     2.0;
    format      ascii;
    arch        "LSB;label=32;scalar=64";
    class       volScalarField;
    location    "0.00114";
    object      rho;
}
// * * * * * * * * * * * * * * * * * * * * * * * * * * * * * * * * * * * * * //

dimensions      [1 -3 0 0 0 0 0];

internalField   nonuniform List<scalar> 
530
(
0.890372516
0.929844003
0.934237326
0.933862125
0.934727465
0.936269124
0.936263453
0.934397005
0.9353327
0.938082422
0.93794993
0.936627056
0.935486688
0.93449706
0.935443608
0.938077341
0.937158769
0.933125275
0.933144037
0.933543373
0.931940225
0.933146106
0.936518603
0.94039363
0.943300792
0.941419557
0.936666939
0.933888423
0.933101458
0.931829664
0.930429583
0.929104395
0.929626373
0.934003007
0.940208092
0.941071679
0.935852222
0.931689732
0.933711252
0.93703654
0.936637182
0.935125764
0.935484876
0.936344944
0.936133049
0.936243901
0.936626727
0.936747838
0.93688235
0.937002141
0.93711084
0.937212767
0.937300079
0.937382822
0.937450501
0.937478019
0.937470022
0.9374449
0.937390742
0.937286812
0.937102358
0.936778969
0.936218035
0.935279385
0.933766168
0.931117561
0.92688291
0.921118486
0.91499097
0.910265032
0.908297325
0.909534503
0.913302683
0.918234193
0.923145357
0.927540155
0.93131676
0.93440525
0.936760334
0.938417946
0.939486777
0.940120276
0.940440635
0.940513148
0.940204706
0.939815662
0.939729455
0.942356675
0.942406293
0.936275414
0.924677313
0.933664488
0.94301771
0.946964655
0.948954486
0.943996977
0.917560705
0.9073752
0.907296185
0.92518578
0.946508014
0.952306401
0.953281389
0.956524321
0.942887326
0.90644216
0.905439458
0.909490862
0.905435098
0.909854277
0.943051456
0.952183186
0.950496144
0.953552436
0.955635165
0.942569168
0.907877299
0.904531602
0.910240568
0.942215633
0.953661061
0.952890493
0.941918784
0.907700939
0.904625135
0.910089342
0.942094712
0.953160041
0.952747804
0.940935217
0.906437131
0.918795865
0.940301056
0.93963426
0.905461253
0.909048057
0.949469808
0.961007002
0.940936081
0.906553789
0.918845618
0.943047229
0.940213735
0.905522068
0.921474955
0.944898261
0.940561316
0.90531547
0.922213898
0.946897665
0.94093055
0.90505969
0.922123363
0.947572171
0.94103662
0.904701051
0.920774105
0.944017543
0.940437316
0.904315715
0.905640476
0.941306178
0.940937334
0.941600079
0.941333677
0.945209039
0.949917462
0.940297174
0.9052759
0.917286769
0.944140354
0.940077255
0.905034496
0.908696089
0.955625071
0.966362716
0.94138104
0.906802337
0.920729632
0.948136796
0.940959115
0.906183586
0.924156814
0.948907659
0.94108403
0.906271762
0.925422516
0.950229068
0.94122731
0.906347857
0.926332044
0.951043289
0.941234781
0.906397928
0.927249964
0.951086349
0.940843369
0.906110488
0.915308554
0.961655947
0.967557968
0.941164285
0.907497474
0.924907106
0.95019426
0.941221864
0.907137473
0.927937069
0.950187456
0.941314208
0.907047543
0.915016614
0.963507835
0.967554315
0.94171472
0.908703962
0.927381721
0.950711919
0.941864893
0.908003321
0.914714923
0.965009792
0.96718991
0.941794354
0.909703412
0.9288566
0.951351204
0.942662428
0.90958482
0.932845387
0.952409292
0.943108166
0.910228347
0.935426141
0.95412371
0.943597294
0.911101132
0.937859203
0.954948937
0.944239824
0.911323802
0.930604238
0.971437757
0.969288396
0.942571417
0.913584725
0.939159787
0.954433841
0.943734957
0.913713737
0.942052436
0.953774174
0.942944101
0.914137569
0.943665033
0.953382605
0.942886054
0.913488537
0.939986765
0.970635487
0.963480216
0.937490264
0.914294135
0.942171576
0.949479754
0.938710614
0.913157301
0.942955933
0.947142686
0.936911791
0.911383641
0.941028659
0.965301389
0.954668028
0.928837225
0.909732614
0.938604336
0.94231307
0.931117764
0.906904953
0.93713539
0.954049687
0.951101878
0.944000163
0.936666228
0.917535847
0.901081555
0.928345026
0.945728285
0.935999238
0.914025048
0.896255346
0.922342388
0.928243265
0.919747858
0.892820035
0.920505669
0.925887307
0.918096899
0.890424565
0.915780658
0.936280767
0.937296582
0.927485404
0.910140102
0.888304652
0.906613989
0.925310737
0.926800947
0.906222998
0.887959005
0.90362003
0.92270969
0.926582035
0.908217669
0.88859925
0.892584555
0.923349515
0.930700607
0.931435458
0.918340807
0.891836474
0.896645896
0.925476774
0.93576145
0.923444612
0.894494994
0.894933826
0.924906908
0.924525769
0.899838215
0.897745552
0.928250506
0.940366322
0.92780786
0.900983389
0.898489943
0.930182744
0.941990982
0.93056308
0.904740304
0.900745029
0.933010076
0.945635298
0.934136937
0.909115086
0.903849135
0.935914973
0.946752059
0.950043689
0.937818561
0.911568093
0.907317456
0.939892482
0.950838123
0.941582694
0.914097393
0.91030592
0.94297386
0.955274393
0.944151663
0.916120274
0.911965084
0.943877753
0.944312972
0.923571968
0.917454853
0.945429174
0.945218113
0.921948447
0.91814508
0.947600695
0.962507838
0.946996892
0.915480768
0.915613634
0.947123721
0.962003148
0.946758723
0.914520217
0.914655264
0.944973977
0.944957356
0.918713287
0.919683957
0.94651659
0.961767114
0.945961121
0.913238683
0.916791783
0.94421905
0.944450246
0.916867462
0.920677519
0.947871199
0.961848463
0.945193658
0.912433836
0.916248763
0.948806756
0.961819553
0.94476589
0.912091602
0.916080588
0.949832996
0.961830877
0.944567704
0.91188185
0.920209382
0.943608228
0.944303125
0.913002664
0.925950928
0.943641031
0.944430387
0.912087938
0.923459753
0.957876259
0.963469381
0.944027634
0.911031924
0.925750343
0.944477854
0.944540116
0.911057744
0.928557919
0.945031439
0.944590716
0.91091615
0.920579924
0.957542127
0.957919242
0.94073597
0.910357478
0.913650606
0.949648352
0.954109341
0.950406088
0.950965463
0.94747551
0.935609926
0.910994693
0.92650118
0.946049703
0.944410397
0.912020464
0.930953015
0.963318854
0.961512864
0.940239051
0.912734106
0.937814332
0.947208567
0.943239759
0.913018028
0.940631103
0.948058741
0.941990735
0.913380181
0.942275213
0.948543744
0.941109963
0.913721147
0.942818363
0.964178719
0.957291487
0.936213078
0.912867026
0.939362752
0.961010093
0.953916799
0.932808138
0.912377391
0.938173277
0.959555416
0.951989049
0.929711031
0.91178897
0.939720207
0.960144219
0.951143703
0.926462215
0.910776867
0.940803833
0.942475766
0.932159192
0.909479145
0.94094299
0.959473572
0.947554435
0.921534234
0.907198552
0.938485443
0.939179654
0.927529655
0.905664144
0.937665186
0.955424106
0.943687361
0.918604907
0.90270956
0.932610761
0.946283795
0.936543627
0.905368686
0.898472971
0.901809823
0.931973043
0.94562269
0.942825736
0.940296732
0.940837048
0.93092137
0.898964238
0.895249531
0.920455994
0.934705624
0.930987767
0.900087989
0.893662162
0.917711269
0.937034735
0.941724754
0.932360978
0.899593558
0.892209859
0.914392193
0.932385169
0.935032552
0.913827828
)
;

boundaryField
{
    closed
    {
        type            calculated;
        value           uniform 0.579133695;
    }
    open
    {
        type            calculated;
        value           nonuniform List<scalar> 0();
    }
    sides
    {
        type            empty;
    }
    procBoundary0to1
    {
        type            processor;
        value           uniform 0.893077494;
    }
}


// ************************************************************************* //
