/*--------------------------------*- C++ -*----------------------------------*\
| =========                 |                                                 |
| \\      /  F ield         | OpenFOAM: The Open Source CFD Toolbox           |
|  \\    /   O peration     | Version:  2306                                  |
|   \\  /    A nd           | Website:  www.openfoam.com                      |
|    \\/     M anipulation  |                                                 |
\*---------------------------------------------------------------------------*/
FoamFile
{
    version     2.0;
    format      ascii;
    arch        "LSB;label=32;scalar=64";
    class       volScalarField;
    location    "0.00046";
    object      H2;
}
// * * * * * * * * * * * * * * * * * * * * * * * * * * * * * * * * * * * * * //

dimensions      [0 0 0 0 0 0 0];

internalField   nonuniform List<scalar> 
531
(
0.0110243111
0.0107117664
0.0106651387
0.0110212848
0.0110197807
0.0106696539
0.0106685806
0.0110158324
0.0110196144
0.0106669659
0.0106770455
0.011003548
0.0110117256
0.010736122
0.0106654835
0.0107107711
0.0110050159
0.0109998255
0.010806939
0.0106737075
0.0106532861
0.0106671205
0.0110132569
0.011014262
0.0107536773
0.0106656066
0.0107120313
0.0110059793
0.0110048827
0.0107739216
0.0106680026
0.0106708264
0.0109289756
0.0109998419
0.0110223599
0.0107076149
0.0106699021
0.0106600484
0.0106853599
0.0110182935
0.0110300381
0.0106684789
0.0106893168
0.0110060436
0.0110121331
0.0107388919
0.0106615321
0.0106882359
0.0110200119
0.0110286387
0.0106648351
0.0106829014
0.0110071463
0.0110127666
0.0107378303
0.0106570849
0.0106861398
0.0110101242
0.0110099174
0.0107303817
0.0106605782
0.0106896441
0.0110129509
0.0109997098
0.0108301794
0.0106760122
0.0106562708
0.0106821626
0.0110140078
0.0110110449
0.0107464001
0.0106599974
0.0106875968
0.0110135006
0.0110083623
0.0107560704
0.0106623847
0.010685428
0.0110242591
0.0110297183
0.010671424
0.0106798048
0.0110229107
0.0110283269
0.0106684856
0.0106754798
0.0110289907
0.0110319946
0.0106676717
0.0106744967
0.0110292505
0.011032224
0.0106675491
0.0106734575
0.011029763
0.0110327147
0.0106696779
0.010674827
0.0110296031
0.011031997
0.010671194
0.0106758324
0.0110285773
0.0110294707
0.0106746048
0.0106818528
0.0110200059
0.0110189833
0.0107383683
0.0106541066
0.010673865
0.0110344853
0.0110328545
0.0106751784
0.0106823118
0.0110292206
0.0110418326
0.0106806529
0.0106918839
0.0110194452
0.0110186423
0.010731176
0.0106539997
0.0106730537
0.0110354308
0.0110144403
0.0107911458
0.0106618613
0.0106728237
0.0110398147
0.0110350219
0.010679949
0.0106826068
0.0110367655
0.0110398335
0.0106848256
0.010690034
0.011028432
0.0110204529
0.0107446912
0.0106583104
0.0106720234
0.0110444583
0.0110376548
0.0106898116
0.0106900817
0.0110347347
0.0110209316
0.0107534626
0.0106608688
0.0106726999
0.0110485255
0.0110392601
0.0106916861
0.0106905903
0.0110399613
0.0110215898
0.0107557322
0.0106626635
0.0106728978
0.0110532969
0.01104241
0.0106937215
0.0106910224
0.0110474946
0.0110238459
0.0107611602
0.0106645432
0.0106735559
0.0110586226
0.0110473007
0.010697057
0.0106931723
0.0110535196
0.0110271329
0.0107704497
0.0106704476
0.0106774924
0.0110677737
0.0110277884
0.0107905314
0.0106687431
0.0106749639
0.0110684519
0.0110525908
0.0107014005
0.0106946104
0.011067213
0.0110298707
0.0107708562
0.0106687678
0.0106741775
0.0110750668
0.0110590748
0.0107046264
0.0106961254
0.0110782179
0.0110326689
0.0107747246
0.0106697786
0.0106731345
0.0110523454
0.0110671224
0.0107093962
0.0106985784
0.0110458065
0.0110360573
0.0107791309
0.0106693882
0.0106711154
0.0110293003
0.0110739123
0.0107049919
0.01069315
0.0110272241
0.0110670005
0.0107151619
0.0106994977
0.0110198165
0.011038333
0.0107940032
0.0106720775
0.0106719513
0.0110176937
0.0110649719
0.010716807
0.0106982421
0.0110116215
0.0110424751
0.0108036555
0.0106737274
0.0106733822
0.0110093939
0.0110646561
0.0107167727
0.0106992929
0.0109920597
0.0110424342
0.0108051506
0.0106732437
0.0106727353
0.0109973844
0.0110527253
0.0107073199
0.0106938992
0.0109757022
0.0110509644
0.0107079864
0.0106921478
0.0109790423
0.0110415186
0.0107074304
0.010691741
0.0109734925
0.0110295211
0.010707839
0.0106906311
0.0109835433
0.0110428943
0.0107048996
0.0106920539
0.0109870448
0.0110227693
0.0107154547
0.0107024268
0.0110104682
0.0110536553
0.0107770234
0.0106703138
0.0106768085
0.0110121698
0.0110201883
0.010703352
0.0107008236
0.0110270872
0.0110537344
0.0107787153
0.0106725589
0.0106827797
0.0110292808
0.0110116071
0.0106978404
0.0107049214
0.011051932
0.0110498312
0.0107544949
0.0106685819
0.0106847036
0.0110404447
0.0109501967
0.0106927071
0.0107320737
0.0110758572
0.0109410154
0.0106905398
0.0107165468
0.0110664334
0.0110635562
0.0107283226
0.0106682871
0.0107154872
0.0110729302
0.0109279903
0.0106866166
0.0107285374
0.0110688899
0.0110687799
0.0107082612
0.010667249
0.0107367963
0.011066959
0.0108908272
0.0106828268
0.0107478096
0.0110594075
0.0110655747
0.0106950541
0.0106668549
0.0107657612
0.0110565231
0.0108529082
0.0106777284
0.0107713236
0.0110504941
0.0110514059
0.0106885517
0.0106660521
0.0108006763
0.0110463695
0.0108166552
0.0106734076
0.0108042574
0.0110417266
0.0110134724
0.0106849852
0.0106658456
0.0108392324
0.011037171
0.010784114
0.0106721703
0.0108543623
0.0110325989
0.0109492228
0.010678724
0.0106661333
0.0108490078
0.0110331923
0.0109538185
0.0106772472
0.0106608783
0.0108915977
0.0110304816
0.0107329171
0.0106733292
0.0109642346
0.011030363
0.0107098694
0.0106744691
0.0109925183
0.0110306064
0.0107062371
0.010672347
0.010995303
0.0110241649
0.0107209619
0.0106684336
0.0109390453
0.0110246582
0.0108997206
0.0106695308
0.0106587072
0.0109651791
0.011026512
0.0106974642
0.0106756112
0.0110688862
0.0110532652
0.0106806478
0.0106923425
0.0110465292
0.0109591423
0.0106760105
0.0107174132
0.0110380377
0.0110463622
0.0106838743
0.0106706178
0.0109761749
0.0110194123
0.0109054971
0.010669652
0.0106637569
0.0109465145
0.011022715
0.010909701
0.0106660233
0.0106600391
0.0108574378
0.0110259848
0.0110354757
0.0106785311
0.0106639838
0.0109321216
0.01101383
0.0109513375
0.0107255947
0.0106544831
0.0106484087
0.0110699864
0.0110184968
0.0108877433
0.0106795715
0.0106763384
0.0110787303
0.0110151451
0.0108786252
0.0106641286
0.0106608575
0.0110814058
0.0110176134
0.010836178
0.0106661867
0.0106613495
0.0110757831
0.0110157497
0.010696454
0.0106659786
0.0110738668
0.0110157714
0.0108429956
0.0106653657
0.010661203
0.0110710968
0.01101682
0.010691691
0.010664282
0.0110681636
0.0110158818
0.0108369611
0.0106636935
0.0106601195
0.011065714
0.0110168166
0.0106887346
0.0106661935
0.0110621106
0.0110158322
0.0108474222
0.0106576001
0.0106562889
0.0110551593
0.011016648
0.0108211836
0.0106629183
0.0106601761
0.0110491805
0.0110158049
0.0106837224
0.0106663189
0.0110529583
0.0110152416
0.0108625141
0.0106567527
0.0106572841
0.0110475822
0.0110170019
0.0108588511
0.0106646845
0.0106637418
0.0110371266
0.0110045879
0.0108506457
0.010696593
0.0106630294
0.0106571075
0.0110405155
0.0110133397
0.0106805793
0.010667419
0.0110374548
0.0110147224
0.0108483311
0.0106591043
0.0106575232
0.0110384071
0.0110167879
0.0106684681
0.0106707953
0.0110277754
0.0110333204
0.0106689117
0.0106799368
0.0110209557
0.0110158855
0.010667671
0.010662922
0.0110269153
0.0110151841
0.0108346334
0.0106578388
0.0106603557
0.0110440315
0.0110169168
0.0108449362
0.0106590863
0.0106656546
0.0110659979
0.0110162753
0.0108304012
0.0106553956
0.0106653308
0.0110353779
0.0110163174
0.010808584
0.0106575061
0.0106618394
0.0110257422
0.0110139247
0.010669973
0.0106665769
0.0110252131
0.0110112275
0.0108080958
0.0106596764
0.0106563391
0.0108678851
0.0110127785
0.0107520487
0.0106743066
0.0109814425
0.0110088329
)
;

boundaryField
{
    closed
    {
        type            calculated;
        value           nonuniform List<scalar> 0();
    }
    open
    {
        type            calculated;
        value           nonuniform List<scalar> 0();
    }
    sides
    {
        type            empty;
    }
    procBoundary3to2
    {
        type            processor;
        value           uniform 0.0107400965;
    }
    procBoundary3to4
    {
        type            processor;
        value           uniform 0.0109084153;
    }
}


// ************************************************************************* //
