/*--------------------------------*- C++ -*----------------------------------*\
| =========                 |                                                 |
| \\      /  F ield         | OpenFOAM: The Open Source CFD Toolbox           |
|  \\    /   O peration     | Version:  2306                                  |
|   \\  /    A nd           | Website:  www.openfoam.com                      |
|    \\/     M anipulation  |                                                 |
\*---------------------------------------------------------------------------*/
FoamFile
{
    version     2.0;
    format      ascii;
    arch        "LSB;label=32;scalar=64";
    class       volScalarField;
    location    "0.0006";
    object      prefDh_T;
}
// * * * * * * * * * * * * * * * * * * * * * * * * * * * * * * * * * * * * * //

dimensions      [1 1 -3 -1 0 0 0];

internalField   nonuniform List<scalar> 
530
(
0.0063417886
0.00638593877
0.00642219433
0.00646381385
0.00649917347
0.00653838378
0.00657293401
0.00660779147
0.00663923966
0.0066715473
0.00670233296
0.00673267084
0.0067628337
0.00679129852
0.00682086942
0.0068475598
0.00687656103
0.00690157742
0.00693002384
0.00695346751
0.0069813686
0.00700333974
0.00702931426
0.00704812184
0.00707258784
0.00709024737
0.00711425153
0.00713084317
0.00715404259
0.00716984681
0.00719250405
0.00720776885
0.00722956727
0.00724435177
0.00726529216
0.00727966771
0.00729977351
0.0073137521
0.00733301795
0.0073466352
0.00736507919
0.00737836509
0.00739591791
0.00740750525
0.00742264708
0.00743398683
0.0074484776
0.00745957957
0.00747344251
0.00748431313
0.00749757277
0.00750821669
0.00752089768
0.00753131877
0.0075434452
0.00755364716
0.00756524217
0.00757522889
0.0075863145
0.00759609019
0.0076066873
0.00761625657
0.00762638494
0.00763575278
0.00764543119
0.00765460287
0.00766384927
0.00767283023
0.00768166181
0.0076904576
0.00769889086
0.00770750718
0.00771555761
0.00772298967
0.00772963943
0.00773673689
0.00774308586
0.00775005173
0.00775611048
0.00776294652
0.00776872518
0.00777543336
0.00778094145
0.00778752404
0.00779277049
0.00779923004
0.00780422322
0.00781056245
0.00781531053
0.00782153197
0.00782604361
0.00783214887
0.00783643456
0.00784242333
0.0078464925
0.00785231557
0.00785617124
0.00786187163
0.00786554881
0.00787106969
0.00787461298
0.00788000012
0.00788344425
0.00788864991
0.00789200516
0.00789703104
0.00790030449
0.0079051549
0.00790835081
0.00791303244
0.00791615396
0.00792067403
0.00792372409
0.00792808959
0.00793107106
0.00793528881
0.00793820435
0.00794228125
0.00794513305
0.00794907637
0.00795170265
0.00795463091
0.00795670407
0.00795954259
0.00796158087
0.0079643344
0.00796635212
0.00796903667
0.00797100389
0.00797357994
0.00797548641
0.00797795973
0.0079798075
0.00798218351
0.00798397476
0.0079862586
0.00798799554
0.00799019214
0.00799187699
0.00799399113
0.00799562599
0.00799766239
0.00799924917
0.00800121252
0.00800275295
0.00800464782
0.00800608664
0.00800783198
0.00800921761
0.00801092134
0.00801228817
0.00801395267
0.00801530062
0.00801692803
0.0080182572
0.00801984944
0.00802116011
0.00802271891
0.00802401149
0.00802553845
0.00802681344
0.00802831011
0.00802956802
0.00803103589
0.00803227729
0.00803371779
0.00803494324
0.00803635779
0.00803756788
0.00803895783
0.00804015316
0.00804151983
0.00804270102
0.00804404568
0.00804521338
0.00804653724
0.00804769213
0.00804899636
0.00805013912
0.00805142485
0.00805255619
0.00805382451
0.00805494514
0.0080561971
0.00805730772
0.00805854439
0.00805964569
0.00806086812
0.00806196075
0.00806317002
0.00806425455
0.0080654518
0.00806652877
0.00806771518
0.00806878502
0.00806996182
0.00807102494
0.00807219341
0.00807325018
0.00807441159
0.00807546245
0.00807661796
0.00807766352
0.00807881407
0.00807985527
0.00808075968
0.00808130907
0.00808193469
0.00808250036
0.00808316394
0.00808381295
0.00808452407
0.00808517852
0.00808589328
0.00808655303
0.00808727123
0.00808793605
0.00808865749
0.00808932708
0.0080900515
0.00809072556
0.00809145245
0.00809213093
0.00809285933
0.00809345258
0.00809407597
0.00809465851
0.00809528728
0.00809587704
0.00809651042
0.00809710699
0.00809774446
0.0080983472
0.00809898829
0.00809959652
0.00810024074
0.00810085378
0.00810150062
0.00810211783
0.00810276673
0.00810338748
0.00810403788
0.00810466157
0.0081053129
0.00810593892
0.0081065906
0.00810721836
0.00810786982
0.00810849875
0.00810914942
0.00810977893
0.00811042824
0.00811105777
0.00811170517
0.00811233418
0.00811297912
0.00811360706
0.00811424901
0.00811487535
0.00811551378
0.00811613801
0.00811677241
0.00811739403
0.00811802392
0.00811864244
0.00811926734
0.00811988229
0.00812050174
0.00812111267
0.00812172624
0.0081223327
0.00812293996
0.00812354154
0.0081241421
0.00812473839
0.00812533187
0.00812592248
0.00812650853
0.00812709309
0.00812767137
0.00812824952
0.00812881974
0.00812939114
0.008129953
0.00813051733
0.00813107058
0.00813162753
0.00813217193
0.00813272122
0.00813325656
0.0081337979
0.00813432399
0.00813485714
0.0081353738
0.00813589852
0.00813640562
0.00813692168
0.0081374191
0.0081379263
0.00813841393
0.00813891206
0.00813938984
0.00813987874
0.0081403466
0.0081408261
0.008141284
0.00814175396
0.00814220189
0.00814266217
0.00814310014
0.00814355062
0.00814397864
0.00814441922
0.00814483733
0.00814526792
0.00814567616
0.00814609669
0.00814649514
0.00814690554
0.00814729427
0.0081476945
0.0081480736
0.00814846362
0.00814883321
0.008149213
0.00814957317
0.00814994273
0.00815029361
0.00815065295
0.00815099467
0.0081513438
0.00815167649
0.00815201545
0.00815233926
0.0081526681
0.00815298317
0.00815330194
0.00815360843
0.00815391721
0.00815421526
0.00815451412
0.00815480391
0.00815509295
0.00815537462
0.00815565395
0.00815592767
0.0081561974
0.00815646332
0.00815672358
0.00815698186
0.00815723279
0.0081574836
0.00815772534
0.00815796883
0.00815820154
0.00815843786
0.0081586617
0.00815889102
0.00815910616
0.00815932863
0.00815953525
0.00815975101
0.00815994929
0.00816015849
0.00816034864
0.00816055142
0.00816073362
0.00816093013
0.00816110458
0.00816129497
0.00816146186
0.00816164626
0.00816180582
0.00816198435
0.00816213679
0.0081623096
0.00816245511
0.00816262233
0.00816276114
0.00816292288
0.0081630552
0.00816321161
0.00816333764
0.00816348884
0.0081636088
0.00816375491
0.008163869
0.00816401015
0.00816411858
0.00816425489
0.00816435786
0.00816448947
0.00816458716
0.00816471419
0.00816480679
0.0081649294
0.00816501708
0.00816513539
0.00816521832
0.00816533248
0.00816541083
0.00816552097
0.0081655949
0.00816570117
0.00816577084
0.00816587335
0.00816593893
0.00816603779
0.00816609946
0.00816619475
0.00816625272
0.00816634448
0.00816639898
0.00816648723
0.00816653855
0.00816662323
0.00816667182
0.00816675268
0.00816679916
0.00816687334
0.00816691915
0.00816698939
0.0081670357
0.00816709946
0.00816714615
0.00816720491
0.00816725091
0.00816730574
0.00816735036
0.00816740181
0.00816744479
0.00816749318
0.00816753444
0.00816757999
0.00816761951
0.00816766241
0.00816770021
0.00816774062
0.00816777674
0.00816781482
0.00816784929
0.00816788517
0.00816791803
0.00816795186
0.00816798314
0.00816801505
0.0081680448
0.00816807489
0.00816810317
0.00816813156
0.0081681584
0.00816818519
0.00816821067
0.0081682369
0.00816826366
0.00816829189
0.00816832066
0.00816835074
0.00816838134
0.00816841304
0.00816844518
0.00816847816
0.00816851142
0.00816854522
0.00816857907
0.00816861309
0.00816864689
0.00816868039
0.00816871346
0.00816874556
0.00816877722
0.00816880701
0.0081688364
0.00816886358
0.00816888841
0.0081689103
0.00816891062
0.00816891077
0.00816891069
0.00816891049
0.00816891022
0.00816890994
0.00816890968
0.00816890946
0.00816890929
0.00816890916
0.00816890909
0.00816890904
0.008168909
0.00816890899
0.00816890898
0.00816890897
0.00816890897
0.00816890897
0.00816890897
0.00816890897
0.00816890897
0.00816890897
0.00816890897
0.00816890897
0.00816890897
0.00816890897
0.00816890897
0.00816890897
0.00816890897
0.00816890897
0.00816890897
0.00816890897
0.00816890897
0.00816890897
0.00816890897
0.00816890897
0.00816890897
0.00816890897
0.00816890897
0.00816890897
0.00816890897
0.00816890897
0.00816890897
0.00816890897
0.00816890897
0.00816890897
0.00816890897
0.00816890897
0.00816890897
0.00816890897
0.00816890897
0.00816890897
0.00816890897
0.00816890897
)
;

boundaryField
{
    closed
    {
        type            calculated;
        value           nonuniform List<scalar> 0();
    }
    open
    {
        type            calculated;
        value           uniform 0.00816890897;
    }
    sides
    {
        type            empty;
    }
    procBoundary5to4
    {
        type            processor;
        value           uniform 0.00630455755;
    }
}


// ************************************************************************* //
