/*--------------------------------*- C++ -*----------------------------------*\
| =========                 |                                                 |
| \\      /  F ield         | OpenFOAM: The Open Source CFD Toolbox           |
|  \\    /   O peration     | Version:  2306                                  |
|   \\  /    A nd           | Website:  www.openfoam.com                      |
|    \\/     M anipulation  |                                                 |
\*---------------------------------------------------------------------------*/
FoamFile
{
    version     2.0;
    format      ascii;
    arch        "LSB;label=32;scalar=64";
    class       volScalarField;
    location    "0.0018";
    object      prefDh_H;
}
// * * * * * * * * * * * * * * * * * * * * * * * * * * * * * * * * * * * * * //

dimensions      [1 1 -3 0 0 0 0];

internalField   nonuniform List<scalar> 
531
(
23935.9624
23411.4827
22806.6635
22924.0432
23918.8808
23924.9328
23924.9318
23924.3328
23245.6684
22921.5606
22858.6442
22859.0509
23913.3055
23916.8044
22972.3187
22985.541
23922.9409
23925.7613
23927.7785
23404.2377
22780.8307
23047.6765
23920.3921
23935.3199
23928.1095
23335.4506
23007.6586
22894.7156
22889.5648
23927.2427
23931.9242
22839.9191
22831.6313
23936.1028
23940.8648
23947.6051
23945.0331
23279.9917
23087.559
23942.6747
23936.7153
23333.327
23126.2047
22977.5092
22997.7362
23945.182
23942.7326
23952.2745
23400.3519
23048.1974
23945.7086
23940.9902
23227.4459
23257.9139
23952.9072
23408.3603
23048.9882
23938.5376
23951.5112
23944.5831
23400.5386
23087.678
23005.8018
23010.7677
23937.0587
23939.3264
23944.2689
23400.3093
22990.4588
23024.6467
23947.8932
23940.605
23382.1204
22910.8435
23193.0081
23934.4336
23386.9753
22849.8915
23940.1175
23935.5801
23218.1241
22736.6694
22771.1233
23921.7459
23933.9385
23932.9328
23935.6333
23442.3827
22907.6352
22981.8442
23932.2904
23934.1708
23937.8237
23403.6508
23043.0572
23057.4653
23944.5543
23937.2856
23384.8412
22936.4631
23195.6511
23932.0269
23385.7002
22883.5821
23942.9809
23933.993
23318.7573
22843.6084
22952.5853
23919.3823
23929.0935
23925.991
23220.1076
22983.11
22723.7508
22722.766
23911.8043
23925.4502
23916.3957
23933.9585
22967.898
22957.9983
23914.3716
23937.3734
23918.831
23940.9436
23923.8329
23357.538
22896.8965
22905.216
23912.5949
23930.9947
23252.1013
22557.3127
22725.5864
23911.5243
23925.339
23917.9224
23099.0529
22805.5097
23927.9928
23919.1794
23932.8815
23925.7717
23355.3556
23047.075
22880.5053
22890.9593
23921.1919
23913.6389
23919.3154
23239.4018
22475.4273
22654.605
23902.5892
23919.0351
23909.8602
23921.7241
23916.6412
23210.0464
23013.2006
22750.6492
22756.8833
23919.5891
23919.0595
23920.9132
23925.9819
23919.5016
23314.15
23043.0045
22863.7798
22868.7129
23928.2844
23922.2172
23933.4066
23929.6187
23388.829
23046.5971
22913.9177
22918.1608
23930.374
23924.3444
23934.2418
23928.8652
23405.9433
23132.3414
23031.5337
23027.6953
23925.9953
23928.5699
23112.6307
22994.5819
23930.5828
23924.5807
23198.9969
22936.8808
23933.8753
23925.5723
23296.9846
22702.9407
22833.3089
23913.1687
23931.6066
23919.6705
23933.2204
23926.5681
23414.2914
23225.2109
23044.6626
23044.728
23925.1822
23925.3845
23057.6342
23067.6704
23927.8437
23925.9059
23920.3132
23346.2403
22938.8059
22737.3816
22741.3267
23918.0717
23916.8339
23921.7514
23922.897
23223.145
22593.2869
22662.4402
23906.5815
23929.4718
23912.473
23934.8713
23215.4723
23214.8422
23931.2831
23337.1536
22957.1866
23929.1041
23924.465
23921.6912
23407.1832
22956.795
22854.0328
22852.2775
23920.5156
23914.6863
23921.0178
23916.1203
23391.4764
23033.0989
22847.8024
22857.9677
23906.3056
23899.4531
23903.6361
23154.4173
22824.2228
23899.4146
23899.3881
23896.7063
23907.4432
23899.0143
23212.7746
22867.6411
22758.9777
22761.4386
23897.4635
23900.2526
22990.639
22911.4261
23901.5242
23906.5371
22922.0982
22930.5108
23909.6956
23909.798
23906.276
23114.1725
22845.7322
23914.2853
23911.8204
23909.8039
23919.6134
23911.4632
23304.3786
22941.3938
22804.3377
22806.6846
23906.9539
23908.8782
23001.1655
23005.5459
23916.7799
23917.2495
23910.0329
23418.6774
22934.6149
23051.8131
22638.4694
22644.3893
23915.8535
23917.1861
23924.2709
23923.9968
23271.1961
22828.619
23943.7446
23917.8775
23342.048
23917.3077
23949.8516
23240.4794
23142.6312
22854.9029
22859.4859
23931.5716
23933.8886
23933.2706
23243.8327
23148.0113
23944.8049
23318.4974
22918.9592
23938.6542
23938.4087
23935.2649
23402.602
22973.2303
23952.7335
23929.7939
23390.2661
22947.0023
22956.9593
23934.1332
23943.6961
23328.3215
23041.8632
23949.9032
23929.5689
23388.9669
22945.5466
22958.8408
23925.3766
23951.9183
23241.6037
23099.8545
23933.0489
23947.1716
23153.938
23155.1115
23945.4288
23946.8894
23944.0501
23389.7341
22973.5923
22975.5543
23948.2194
23937.4723
23392.9105
22876.4172
22890.7819
23924.0443
23952.3678
23225.738
23045.961
23925.8625
23949.0243
23186.3648
23118.8805
23926.9469
23945.2205
23185.6675
23186.2815
23935.2529
23394.7044
22874.5932
23944.5418
23932.5672
23402.0094
22802.3753
22903.0117
23919.2422
23933.2606
23930.3706
23271.8855
23165.1962
23933.9507
23934.6447
23934.6958
23402.9627
22940.3074
22944.4359
23932.4571
23933.3484
23401.6869
22942.616
22947.6815
23932.4312
23935.7278
23401.9251
22896.9104
22902.2828
23933.4506
23936.6881
23353.1348
22738.4608
22762.1788
23924.4543
23948.1433
23936.1484
23955.5506
23400.8229
23191.4938
23944.4122
23957.679
23395.9569
23307.7893
23949.7024
23954.3558
23396.048
23348.8453
23151.2649
23153.3012
23938.3803
23958.2153
23349.4167
23217.2277
23944.2532
23949.5011
23396.6824
23227.3593
23038.1422
23038.315
23922.4381
23933.1606
23082.822
23058.2504
23907.1144
23879.4539
23903.772
23749.5908
22869.2814
22876.0623
23906.2709
23270.2627
22966.7552
23923.8565
23933.534
23930.8604
23394.1361
22889.9502
23044.7147
23930.5012
23309.7564
22996.6614
23933.4503
23934.6747
23936.2685
23399.0971
22848.3286
22995.5837
23926.2606
23239.6926
22924.2369
23922.9313
23933.8345
23926.7779
23408.3043
22967.6598
23928.0017
23931.0258
23159.8857
23163.9397
23927.6665
23937.8987
23929.936
23395.5534
23072.2487
22942.9192
22942.3922
23921.4861
23938.5919
22997.2396
22997.5934
23928.6458
23944.4553
23934.6302
23401.7091
23001.5838
23939.3388
23938.5838
23336.8092
23150.6588
23939.7944
23940.5312
23399.0413
23200.6649
23035.6843
23037.5279
23922.8139
23947.488
23204.6141
23097.1192
23924.4769
23950.8474
23253.9268
23154.166
23928.6384
23949.5525
23333.0955
23218.3447
23936.2027
23942.4795
23397.638
23251.48
23082.8541
23082.0403
23926.5487
23934.3328
23288.7868
23049.6852
23933.9587
23920.2694
23398.1285
22870.0752
22885.6549
23902.42
23941.8927
23097.5743
23028.0151
23907.1146
)
;

boundaryField
{
    closed
    {
        type            calculated;
        value           nonuniform List<scalar> 0();
    }
    open
    {
        type            calculated;
        value           nonuniform List<scalar> 0();
    }
    sides
    {
        type            empty;
    }
    procBoundary3to2
    {
        type            processor;
        value           uniform 23930.9649;
    }
    procBoundary3to4
    {
        type            processor;
        value           uniform 23941.8819;
    }
}


// ************************************************************************* //
