/*--------------------------------*- C++ -*----------------------------------*\
| =========                 |                                                 |
| \\      /  F ield         | OpenFOAM: The Open Source CFD Toolbox           |
|  \\    /   O peration     | Version:  2306                                  |
|   \\  /    A nd           | Website:  www.openfoam.com                      |
|    \\/     M anipulation  |                                                 |
\*---------------------------------------------------------------------------*/
FoamFile
{
    version     2.0;
    format      ascii;
    arch        "LSB;label=32;scalar=64";
    class       volScalarField;
    location    "0.00064";
    object      prefDPV_H2O;
}
// * * * * * * * * * * * * * * * * * * * * * * * * * * * * * * * * * * * * * //

dimensions      [1 -1 -1 0 0 0 0];

internalField   nonuniform List<scalar> 
531
(
-3.84146873e-07
-3.8615236e-07
-3.65080879e-07
-3.65190837e-07
-3.84062281e-07
-3.8390941e-07
-3.72606731e-07
-3.6474283e-07
-3.65345398e-07
-3.83912312e-07
-3.84097865e-07
-3.69074023e-07
-3.63809349e-07
-3.66242074e-07
-3.84496615e-07
-3.85454335e-07
-3.64889796e-07
-3.68346673e-07
-3.84112792e-07
-3.8422975e-07
-3.65340644e-07
-3.65955732e-07
-3.8406242e-07
-3.8344428e-07
-3.72199096e-07
-3.65655312e-07
-3.64453662e-07
-3.65129067e-07
-3.84863068e-07
-3.83804952e-07
-3.84422844e-07
-3.83732749e-07
-3.74052587e-07
-3.65725818e-07
-3.65426019e-07
-3.6522207e-07
-3.63357844e-07
-3.64120673e-07
-3.85174655e-07
-3.84757528e-07
-3.84481958e-07
-3.84835132e-07
-3.66756361e-07
-3.63823921e-07
-3.66228617e-07
-3.84386471e-07
-3.84048041e-07
-3.6720693e-07
-3.64136389e-07
-3.67738206e-07
-3.84186057e-07
-3.84137078e-07
-3.67664048e-07
-3.63723953e-07
-3.65473042e-07
-3.85118813e-07
-3.83934111e-07
-3.84465954e-07
-3.84037705e-07
-3.72610527e-07
-3.65287468e-07
-3.65385046e-07
-3.64111857e-07
-3.65189768e-07
-3.85662425e-07
-3.83729655e-07
-3.84869504e-07
-3.65639339e-07
-3.64394138e-07
-3.7179396e-07
-3.84197532e-07
-3.84552476e-07
-3.66614579e-07
-3.64542628e-07
-3.67656594e-07
-3.84322262e-07
-3.83971657e-07
-3.69569795e-07
-3.64323656e-07
-3.65694132e-07
-3.84639164e-07
-3.83658551e-07
-3.72778332e-07
-3.65638098e-07
-3.64674147e-07
-3.66793165e-07
-3.84761805e-07
-3.82331865e-07
-3.65188068e-07
-3.68631862e-07
-3.84481452e-07
-3.81691283e-07
-3.65449855e-07
-3.6639948e-07
-3.84304343e-07
-3.83885334e-07
-3.70034901e-07
-3.63974642e-07
-3.67246426e-07
-3.84794593e-07
-3.83110149e-07
-3.65436421e-07
-3.66349646e-07
-3.84602554e-07
-3.83884328e-07
-3.73498781e-07
-3.64406313e-07
-3.64386736e-07
-3.81689852e-07
-3.83926187e-07
-3.84632815e-07
-3.69098869e-07
-3.65321398e-07
-3.64738125e-07
-3.65559309e-07
-3.84863308e-07
-3.84031778e-07
-3.71779373e-07
-3.64618101e-07
-3.66245136e-07
-3.85125668e-07
-3.86201649e-07
-3.65231337e-07
-3.66293902e-07
-3.85088504e-07
-3.86683811e-07
-3.65348044e-07
-3.66521397e-07
-3.85108073e-07
-3.86918963e-07
-3.65620845e-07
-3.65719998e-07
-3.8558604e-07
-3.84002357e-07
-3.71573773e-07
-3.64272609e-07
-3.65545326e-07
-3.85725983e-07
-3.85680634e-07
-3.65738104e-07
-3.6548647e-07
-3.86453195e-07
-3.84119483e-07
-3.71527296e-07
-3.64396779e-07
-3.65482516e-07
-3.85914896e-07
-3.85294829e-07
-3.66196504e-07
-3.65534308e-07
-3.86449072e-07
-3.84055911e-07
-3.7501487e-07
-3.64937986e-07
-3.65099199e-07
-3.86425398e-07
-3.84879336e-07
-3.66426205e-07
-3.65090706e-07
-3.83692842e-07
-3.8414556e-07
-3.79308473e-07
-3.65673859e-07
-3.64684784e-07
-3.69897692e-07
-3.85154307e-07
-3.84563523e-07
-3.68763651e-07
-3.64516818e-07
-3.67372405e-07
-3.85733218e-07
-3.84164256e-07
-3.70606245e-07
-3.64680759e-07
-3.66906307e-07
-3.85869587e-07
-3.83979208e-07
-3.73695136e-07
-3.64617014e-07
-3.64146844e-07
-3.74576457e-07
-3.84853362e-07
-3.84062705e-07
-3.76973372e-07
-3.66831699e-07
-3.66235921e-07
-3.65297335e-07
-3.65576739e-07
-3.86199329e-07
-3.84111359e-07
-3.72417909e-07
-3.64824065e-07
-3.65178727e-07
-3.86357928e-07
-3.8492898e-07
-3.67043413e-07
-3.65677696e-07
-3.8446078e-07
-3.85191575e-07
-3.66655306e-07
-3.65380762e-07
-3.839664e-07
-3.84608744e-07
-3.67386743e-07
-3.6504793e-07
-3.82508391e-07
-3.84315634e-07
-3.78612804e-07
-3.65546033e-07
-3.64747146e-07
-3.71303812e-07
-3.85208879e-07
-3.85438212e-07
-3.65727728e-07
-3.64486057e-07
-3.76462707e-07
-3.84966844e-07
-3.8152634e-07
-3.6508249e-07
-3.6447504e-07
-3.82910458e-07
-3.84547339e-07
-3.75783515e-07
-3.65139209e-07
-3.65071603e-07
-3.85821906e-07
-3.84808095e-07
-3.66953917e-07
-3.65613687e-07
-3.85525946e-07
-3.84349438e-07
-3.72362154e-07
-3.64393141e-07
-3.6432644e-07
-3.8687354e-07
-3.84778763e-07
-3.66565067e-07
-3.65543519e-07
-3.85677213e-07
-3.85285121e-07
-3.66364472e-07
-3.65569156e-07
-3.86247492e-07
-3.84211596e-07
-3.72386265e-07
-3.64629605e-07
-3.65572464e-07
-3.85953164e-07
-3.85359767e-07
-3.6617369e-07
-3.65647989e-07
-3.86924058e-07
-3.84148256e-07
-3.71922249e-07
-3.64731712e-07
-3.65412317e-07
-3.85771364e-07
-3.84293935e-07
-3.7144111e-07
-3.63730959e-07
-3.63761119e-07
-3.84699998e-07
-3.84303188e-07
-3.85364881e-07
-3.8396516e-07
-3.84067339e-07
-3.69721976e-07
-3.65393261e-07
-3.65421156e-07
-3.65287179e-07
-3.64248671e-07
-3.66405875e-07
-3.85709526e-07
-3.85809655e-07
-3.65616278e-07
-3.66585294e-07
-3.85450043e-07
-3.86749121e-07
-3.66063223e-07
-3.66254976e-07
-3.85502928e-07
-3.839571e-07
-3.72331291e-07
-3.65037206e-07
-3.66312387e-07
-3.85359701e-07
-3.84111762e-07
-3.69776079e-07
-3.64361609e-07
-3.68695989e-07
-3.85348905e-07
-3.79099254e-07
-3.65514801e-07
-3.67385715e-07
-3.84997646e-07
-3.84110462e-07
-3.68871249e-07
-3.64124714e-07
-3.69986579e-07
-3.85246044e-07
-3.75872695e-07
-3.65305278e-07
-3.68462263e-07
-3.84786779e-07
-3.84061466e-07
-3.6956866e-07
-3.64528331e-07
-3.66501471e-07
-3.85186644e-07
-3.84168882e-07
-3.69347295e-07
-3.64551182e-07
-3.66571398e-07
-3.85221139e-07
-3.84174373e-07
-3.69606382e-07
-3.64641938e-07
-3.66565484e-07
-3.85289722e-07
-3.84180429e-07
-3.69824259e-07
-3.64698541e-07
-3.66712376e-07
-3.85328483e-07
-3.84217002e-07
-3.69770956e-07
-3.64678526e-07
-3.66697063e-07
-3.85379325e-07
-3.84266638e-07
-3.69615748e-07
-3.64654343e-07
-3.66791903e-07
-3.85371436e-07
-3.84325599e-07
-3.69223157e-07
-3.6459056e-07
-3.67196795e-07
-3.85329748e-07
-3.8455532e-07
-3.670827e-07
-3.64401144e-07
-3.76139184e-07
-3.85543923e-07
-3.68448412e-07
-3.65602436e-07
-3.7914511e-07
-3.83959131e-07
-3.86251204e-07
-3.67088383e-07
-3.64497314e-07
-3.66025267e-07
-3.85567501e-07
-3.84224399e-07
-3.72184935e-07
-3.64767188e-07
-3.6595586e-07
-3.86278643e-07
-3.83618719e-07
-3.84205036e-07
-3.71273481e-07
-3.65447168e-07
-3.64273675e-07
-3.66249394e-07
-3.86164163e-07
-3.8325388e-07
-3.65339593e-07
-3.65357737e-07
-3.86373154e-07
-3.84297845e-07
-3.74251423e-07
-3.64605669e-07
-3.65286741e-07
-3.86409249e-07
-3.8358366e-07
-3.84038971e-07
-3.70731415e-07
-3.6268451e-07
-3.62344322e-07
-3.84856051e-07
-3.85630212e-07
-3.64886367e-07
-3.63816075e-07
-3.86003201e-07
-3.83037701e-07
-3.83276072e-07
-3.65839153e-07
-3.64391519e-07
-3.85458288e-07
-3.82429148e-07
-3.62666121e-07
-3.61073549e-07
-3.81887159e-07
-3.81498261e-07
-3.82024654e-07
-3.79987964e-07
-3.7889181e-07
-3.77237741e-07
-3.75271708e-07
-3.73659468e-07
-3.71637003e-07
-3.69831995e-07
-3.68081443e-07
-3.66172186e-07
-3.64726259e-07
-3.63201224e-07
-3.6274083e-07
-3.61320958e-07
-3.59135937e-07
-3.56901421e-07
-3.54204793e-07
-3.51449451e-07
-3.47873337e-07
-3.45190853e-07
-3.41186415e-07
-3.40467366e-07
-3.3812428e-07
-3.34872331e-07
-3.31355923e-07
-3.25971402e-07
-3.21860437e-07
-3.13926073e-07
-3.10258355e-07
-3.01650262e-07
-3.13433928e-07
-3.06222687e-07
-2.83610509e-07
-2.92346658e-07
-2.78124515e-07
-2.7142308e-07
-2.61500664e-07
-2.54262529e-07
-2.39392715e-07
-1.8959045e-07
-1.93488507e-07
-1.77860921e-07
-1.83909325e-07
-1.37752865e-07
-9.17202321e-08
-6.23876189e-08
1.71656295e-09
4.97055585e-08
9.65394086e-08
1.36995878e-07
2.65066863e-07
2.99392585e-07
3.47173969e-07
3.82533901e-07
4.23073882e-07
4.60844503e-07
4.96396451e-07
5.28351289e-07
5.60641599e-07
5.90540637e-07
6.17670611e-07
6.44358883e-07
6.67543829e-07
6.90100627e-07
7.09159262e-07
7.26000311e-07
7.3990178e-07
7.54171122e-07
7.66173861e-07
7.78577118e-07
7.88754057e-07
7.99730039e-07
8.09386091e-07
8.19918789e-07
8.29437975e-07
8.39200935e-07
8.49020119e-07
8.59154364e-07
8.67490238e-07
8.77003649e-07
8.84388515e-07
8.94048584e-07
9.01180258e-07
9.10970181e-07
9.16709902e-07
9.23469406e-07
9.28257875e-07
9.34481827e-07
9.39027795e-07
9.44899087e-07
9.49234619e-07
9.54665646e-07
9.58967589e-07
9.64454437e-07
9.68812134e-07
9.74160997e-07
9.78631838e-07
9.83544808e-07
9.87610832e-07
9.92078727e-07
9.95822588e-07
9.99859709e-07
1.0032526e-06
1.00682324e-06
1.00993538e-06
1.01329038e-06
1.01637144e-06
1.01979328e-06
1.02299052e-06
1.02631654e-06
1.02983865e-06
1.03333672e-06
1.03643598e-06
1.03932105e-06
1.0422388e-06
1.04491562e-06
1.04767284e-06
1.0501684e-06
1.0527975e-06
1.05512514e-06
1.05759089e-06
1.05974528e-06
1.06206709e-06
1.06406933e-06
1.06626528e-06
1.06807594e-06
1.07005726e-06
1.07172462e-06
1.07363833e-06
1.07521442e-06
1.07706635e-06
1.07855559e-06
1.08035118e-06
1.08175175e-06
1.08344221e-06
1.08477659e-06
1.08656151e-06
)
;

boundaryField
{
    closed
    {
        type            calculated;
        value           nonuniform List<scalar> 0();
    }
    open
    {
        type            calculated;
        value           nonuniform List<scalar> 0();
    }
    sides
    {
        type            empty;
    }
    procBoundary4to3
    {
        type            processor;
        value           uniform -3.66707239e-07;
    }
    procBoundary4to5
    {
        type            processor;
        value           uniform 1.0878469e-06;
    }
}


// ************************************************************************* //
