/*--------------------------------*- C++ -*----------------------------------*\
| =========                 |                                                 |
| \\      /  F ield         | OpenFOAM: The Open Source CFD Toolbox           |
|  \\    /   O peration     | Version:  2306                                  |
|   \\  /    A nd           | Website:  www.openfoam.com                      |
|    \\/     M anipulation  |                                                 |
\*---------------------------------------------------------------------------*/
FoamFile
{
    version     2.0;
    format      ascii;
    arch        "LSB;label=32;scalar=64";
    class       volScalarField;
    location    "0.00064";
    object      prefDPV_H2;
}
// * * * * * * * * * * * * * * * * * * * * * * * * * * * * * * * * * * * * * //

dimensions      [1 -1 -1 0 0 0 0];

internalField   nonuniform List<scalar> 
531
(
-3.15424582e-05
-3.14701641e-05
-3.06557652e-05
-3.0641192e-05
-3.15668325e-05
-3.15294612e-05
-3.09234557e-05
-3.06068383e-05
-3.07032286e-05
-3.15918492e-05
-3.15391317e-05
-3.08829951e-05
-3.04241911e-05
-3.08502891e-05
-3.15399212e-05
-3.13329158e-05
-3.06167683e-05
-3.09157949e-05
-3.15414654e-05
-3.12794448e-05
-3.0697525e-05
-3.08015263e-05
-3.15587963e-05
-3.15695755e-05
-3.09244878e-05
-3.07734413e-05
-3.0530432e-05
-3.06738676e-05
-3.15364164e-05
-3.15510317e-05
-3.15124401e-05
-3.1554179e-05
-3.09561262e-05
-3.07708635e-05
-3.06917084e-05
-3.06692539e-05
-3.03288807e-05
-3.04605865e-05
-3.15281174e-05
-3.14914317e-05
-3.15198181e-05
-3.15084945e-05
-3.09095045e-05
-3.03970098e-05
-3.08619415e-05
-3.15419014e-05
-3.15590433e-05
-3.08996749e-05
-3.04788924e-05
-3.0892854e-05
-3.15487317e-05
-3.15515878e-05
-3.09004818e-05
-3.03831312e-05
-3.07303112e-05
-3.15129786e-05
-3.15499087e-05
-3.1508335e-05
-3.1542624e-05
-3.09275058e-05
-3.06737961e-05
-3.07074075e-05
-3.04415959e-05
-3.06719062e-05
-3.14686402e-05
-3.15393883e-05
-3.12980047e-05
-3.07719007e-05
-3.0482437e-05
-3.09018297e-05
-3.152337e-05
-3.15440912e-05
-3.09113837e-05
-3.05183067e-05
-3.08995575e-05
-3.15282452e-05
-3.15454041e-05
-3.09037024e-05
-3.04942361e-05
-3.07675253e-05
-3.15214565e-05
-3.1554183e-05
-3.09436424e-05
-3.07665211e-05
-3.05557081e-05
-3.09179629e-05
-3.15154285e-05
-3.11996744e-05
-3.06514731e-05
-3.09093758e-05
-3.15188227e-05
-3.11745711e-05
-3.07022464e-05
-3.08749111e-05
-3.1553913e-05
-3.15543429e-05
-3.08892136e-05
-3.04525858e-05
-3.08969748e-05
-3.1517235e-05
-3.12314093e-05
-3.06933717e-05
-3.08565466e-05
-3.15212568e-05
-3.15279291e-05
-3.0947102e-05
-3.05124307e-05
-3.05252004e-05
-3.11757955e-05
-3.15238299e-05
-3.15154993e-05
-3.09103432e-05
-3.06565959e-05
-3.05801668e-05
-3.07046908e-05
-3.15263673e-05
-3.15212976e-05
-3.09165026e-05
-3.05521673e-05
-3.08348486e-05
-3.14957317e-05
-3.14643486e-05
-3.06599145e-05
-3.08188083e-05
-3.14937212e-05
-3.13834733e-05
-3.0685103e-05
-3.08652569e-05
-3.1492724e-05
-3.14021143e-05
-3.07378089e-05
-3.07358514e-05
-3.14782922e-05
-3.15391809e-05
-3.0912077e-05
-3.04962392e-05
-3.07103941e-05
-3.1464978e-05
-3.1492637e-05
-3.07551251e-05
-3.0692912e-05
-3.14233811e-05
-3.15295383e-05
-3.09163206e-05
-3.05138447e-05
-3.06973669e-05
-3.14505293e-05
-3.15152847e-05
-3.08407361e-05
-3.07067634e-05
-3.13728013e-05
-3.15245451e-05
-3.09760161e-05
-3.06152702e-05
-3.06293799e-05
-3.14256096e-05
-3.15382831e-05
-3.08908739e-05
-3.06367229e-05
-3.12569069e-05
-3.15190734e-05
-3.10902807e-05
-3.07786052e-05
-3.05645645e-05
-3.08756012e-05
-3.14796738e-05
-3.15451461e-05
-3.08703772e-05
-3.05178298e-05
-3.08823469e-05
-3.14408116e-05
-3.15649336e-05
-3.08912719e-05
-3.05620298e-05
-3.08925752e-05
-3.14282325e-05
-3.15477224e-05
-3.09504711e-05
-3.05681921e-05
-3.04808118e-05
-3.09432261e-05
-3.14795959e-05
-3.15205873e-05
-3.10210998e-05
-3.09376185e-05
-3.08438327e-05
-3.06540521e-05
-3.07107735e-05
-3.14238265e-05
-3.15233886e-05
-3.09332886e-05
-3.05751008e-05
-3.06328162e-05
-3.1415083e-05
-3.15226336e-05
-3.091971e-05
-3.0714431e-05
-3.12849545e-05
-3.15027798e-05
-3.09219071e-05
-3.06715572e-05
-3.12659092e-05
-3.15306124e-05
-3.09116325e-05
-3.06319671e-05
-3.12086673e-05
-3.15096614e-05
-3.10690367e-05
-3.07445772e-05
-3.05673733e-05
-3.08937812e-05
-3.14597967e-05
-3.14804171e-05
-3.07706792e-05
-3.05025102e-05
-3.09934544e-05
-3.14660766e-05
-3.11652758e-05
-3.06257899e-05
-3.05196885e-05
-3.12270546e-05
-3.15012048e-05
-3.09948461e-05
-3.0633512e-05
-3.06188257e-05
-3.1343389e-05
-3.15307809e-05
-3.0914975e-05
-3.07209862e-05
-3.13328377e-05
-3.15094711e-05
-3.09342315e-05
-3.05014291e-05
-3.04928817e-05
-3.13895639e-05
-3.15370801e-05
-3.09141685e-05
-3.06982232e-05
-3.13370117e-05
-3.15090314e-05
-3.08774389e-05
-3.07098708e-05
-3.13637026e-05
-3.15237284e-05
-3.0926319e-05
-3.05554253e-05
-3.07116144e-05
-3.14474152e-05
-3.15171592e-05
-3.08472849e-05
-3.07246e-05
-3.13925383e-05
-3.15302433e-05
-3.0920918e-05
-3.05755472e-05
-3.06901788e-05
-3.14684895e-05
-3.15200831e-05
-3.0914642e-05
-3.03686998e-05
-3.04079848e-05
-3.12998272e-05
-3.15283571e-05
-3.14660792e-05
-3.1542066e-05
-3.15240074e-05
-3.09011846e-05
-3.06872545e-05
-3.06978827e-05
-3.06810968e-05
-3.04749655e-05
-3.08607689e-05
-3.14535079e-05
-3.13434589e-05
-3.07237578e-05
-3.08737611e-05
-3.14667337e-05
-3.14105063e-05
-3.08085482e-05
-3.08245893e-05
-3.14733693e-05
-3.15421891e-05
-3.0921445e-05
-3.06266003e-05
-3.08668101e-05
-3.14899334e-05
-3.15522158e-05
-3.0888571e-05
-3.050443e-05
-3.08765505e-05
-3.14795988e-05
-3.10812097e-05
-3.07049586e-05
-3.09026808e-05
-3.15053779e-05
-3.15548132e-05
-3.0880382e-05
-3.04637058e-05
-3.08716579e-05
-3.14914276e-05
-3.09825092e-05
-3.06678996e-05
-3.08852712e-05
-3.15124341e-05
-3.15558125e-05
-3.08893549e-05
-3.05283102e-05
-3.09042925e-05
-3.15008008e-05
-3.15527541e-05
-3.08926417e-05
-3.05289299e-05
-3.09070342e-05
-3.14970632e-05
-3.15498966e-05
-3.08948598e-05
-3.05429189e-05
-3.09087816e-05
-3.14924781e-05
-3.1548868e-05
-3.08956689e-05
-3.05530039e-05
-3.09062688e-05
-3.14895996e-05
-3.15480277e-05
-3.08942979e-05
-3.05478493e-05
-3.09060635e-05
-3.14874982e-05
-3.15457684e-05
-3.08928709e-05
-3.05406821e-05
-3.09028457e-05
-3.14876924e-05
-3.15447557e-05
-3.08917893e-05
-3.05273e-05
-3.08967355e-05
-3.14864176e-05
-3.15365854e-05
-3.09065608e-05
-3.0486778e-05
-3.09875788e-05
-3.15012467e-05
-3.08906054e-05
-3.07199327e-05
-3.10828165e-05
-3.15457208e-05
-3.13562961e-05
-3.08864815e-05
-3.04801805e-05
-3.08188862e-05
-3.14951344e-05
-3.15319966e-05
-3.09147239e-05
-3.0549115e-05
-3.08247959e-05
-3.13655727e-05
-3.15660285e-05
-3.15181371e-05
-3.09125666e-05
-3.07163991e-05
-3.0481959e-05
-3.08528732e-05
-3.14571064e-05
-3.12375474e-05
-3.0658894e-05
-3.0675922e-05
-3.14586444e-05
-3.15385046e-05
-3.09468499e-05
-3.05400042e-05
-3.07188381e-05
-3.1378622e-05
-3.16121768e-05
-3.15438592e-05
-3.08655031e-05
-3.02403817e-05
-3.021603e-05
-3.1321358e-05
-3.16165889e-05
-3.06890058e-05
-3.05508382e-05
-3.13835707e-05
-3.17607261e-05
-3.17498922e-05
-3.06857242e-05
-3.06604794e-05
-3.16414442e-05
-3.17241624e-05
-3.0533632e-05
-3.02946587e-05
-3.12364463e-05
-3.15098089e-05
-3.13916881e-05
-3.13903656e-05
-3.14154213e-05
-3.14415293e-05
-3.14914206e-05
-3.15217778e-05
-3.15674012e-05
-3.16051033e-05
-3.16533111e-05
-3.17215135e-05
-3.17917923e-05
-3.1953554e-05
-3.22285724e-05
-3.21664573e-05
-3.19712281e-05
-3.18095268e-05
-3.16569519e-05
-3.1545277e-05
-3.14442028e-05
-3.1409439e-05
-3.12688606e-05
-3.12766505e-05
-3.11615408e-05
-3.10734404e-05
-3.10249005e-05
-3.09885083e-05
-3.10274429e-05
-3.08508421e-05
-3.07652899e-05
-3.05719569e-05
-3.2315431e-05
-3.23722107e-05
-3.15495923e-05
-3.18473433e-05
-3.12719997e-05
-3.10223581e-05
-3.06464964e-05
-3.13234278e-05
-3.33916383e-05
-3.52422949e-05
-3.56473945e-05
-3.60880109e-05
-3.51600305e-05
-3.78321782e-05
-4.09614666e-05
-4.30373027e-05
-4.70269542e-05
-5.00093723e-05
-5.2434525e-05
-5.45210329e-05
-6.06168405e-05
-6.2162368e-05
-6.4108485e-05
-6.56115861e-05
-6.73140681e-05
-6.89437083e-05
-7.04617223e-05
-7.17939131e-05
-7.31287266e-05
-7.43329127e-05
-7.54259538e-05
-7.64806591e-05
-7.74063472e-05
-7.82943573e-05
-7.90553315e-05
-7.97125684e-05
-8.02647389e-05
-8.08433057e-05
-8.13377753e-05
-8.18732573e-05
-8.23101428e-05
-8.27965988e-05
-8.32003327e-05
-8.36512186e-05
-8.40449444e-05
-8.44531979e-05
-8.48680127e-05
-8.5309401e-05
-8.56587696e-05
-8.6070362e-05
-8.63834174e-05
-8.67991858e-05
-8.7101806e-05
-8.75372168e-05
-8.77840122e-05
-8.80617881e-05
-8.82667835e-05
-8.85207884e-05
-8.87185477e-05
-8.89560211e-05
-8.91459572e-05
-8.93644928e-05
-8.95536568e-05
-8.97762662e-05
-8.99688082e-05
-9.01884297e-05
-9.03898578e-05
-9.05925118e-05
-9.07752149e-05
-9.09538796e-05
-9.11167204e-05
-9.12769074e-05
-9.14241275e-05
-9.15633979e-05
-9.16971863e-05
-9.18275283e-05
-9.19608821e-05
-9.20971531e-05
-9.22380908e-05
-9.23720129e-05
-9.252976e-05
-9.26738077e-05
-9.28069901e-05
-9.29196103e-05
-9.30445771e-05
-9.314959e-05
-9.32674512e-05
-9.33658608e-05
-9.34782944e-05
-9.35703845e-05
-9.36751078e-05
-9.37601441e-05
-9.38581467e-05
-9.39369914e-05
-9.40292084e-05
-9.40990194e-05
-9.41794095e-05
-9.42426405e-05
-9.43200325e-05
-9.43797693e-05
-9.44544727e-05
-9.45108635e-05
-9.45831633e-05
-9.46360197e-05
-9.47030983e-05
-9.4753162e-05
-9.48249936e-05
)
;

boundaryField
{
    closed
    {
        type            calculated;
        value           nonuniform List<scalar> 0();
    }
    open
    {
        type            calculated;
        value           nonuniform List<scalar> 0();
    }
    sides
    {
        type            empty;
    }
    procBoundary4to3
    {
        type            processor;
        value           uniform -3.08865946e-05;
    }
    procBoundary4to5
    {
        type            processor;
        value           uniform -9.48733766e-05;
    }
}


// ************************************************************************* //
