/*--------------------------------*- C++ -*----------------------------------*\
| =========                 |                                                 |
| \\      /  F ield         | OpenFOAM: The Open Source CFD Toolbox           |
|  \\    /   O peration     | Version:  2306                                  |
|   \\  /    A nd           | Website:  www.openfoam.com                      |
|    \\/     M anipulation  |                                                 |
\*---------------------------------------------------------------------------*/
FoamFile
{
    version     2.0;
    format      ascii;
    arch        "LSB;label=32;scalar=64";
    class       volScalarField;
    location    "0.00036";
    object      prefDZ_H2O;
}
// * * * * * * * * * * * * * * * * * * * * * * * * * * * * * * * * * * * * * //

dimensions      [1 -1 -1 0 0 0 0];

internalField   nonuniform List<scalar> 
531
(
-7.7491369e-07
-7.73734887e-07
-7.37181627e-07
-7.36967302e-07
-7.74937826e-07
-7.74028722e-07
-7.37837856e-07
-7.35128831e-07
-7.41221457e-07
-7.7480454e-07
-7.73787148e-07
-7.37825701e-07
-7.35148431e-07
-7.40524607e-07
-7.75282932e-07
-7.74008439e-07
-7.35793176e-07
-7.35155127e-07
-7.75829602e-07
-7.74399459e-07
-7.43198265e-07
-7.35369074e-07
-7.39005654e-07
-7.7511956e-07
-7.73712105e-07
-7.37923749e-07
-7.35336171e-07
-7.43735265e-07
-7.75018483e-07
-7.73689074e-07
-7.36915807e-07
-7.35765039e-07
-7.76341376e-07
-7.74341487e-07
-7.38374637e-07
-7.3487868e-07
-7.3889946e-07
-7.75189666e-07
-7.73716644e-07
-7.40121873e-07
-7.35430578e-07
-7.39284535e-07
-7.75570154e-07
-7.7362869e-07
-7.36749262e-07
-7.35871039e-07
-7.76451349e-07
-7.74102056e-07
-7.43067397e-07
-7.35672327e-07
-7.38489373e-07
-7.75542775e-07
-7.74005163e-07
-7.3814731e-07
-7.34340267e-07
-7.43947662e-07
-7.75737183e-07
-7.73748627e-07
-7.36640629e-07
-7.34844013e-07
-7.77550006e-07
-7.74406395e-07
-7.44616943e-07
-7.35000997e-07
-7.37371243e-07
-7.75619368e-07
-7.73827823e-07
-7.43102875e-07
-7.35701324e-07
-7.40566002e-07
-7.75984322e-07
-7.75501579e-07
-7.36314883e-07
-7.34928644e-07
-7.785318e-07
-7.74535822e-07
-7.37416618e-07
-7.35572773e-07
-7.7815496e-07
-7.7446391e-07
-7.40782994e-07
-7.35328555e-07
-7.42121193e-07
-7.76069315e-07
-7.76230424e-07
-7.36021644e-07
-7.35035235e-07
-7.7820438e-07
-7.74353951e-07
-7.4341475e-07
-7.35711611e-07
-7.48861625e-07
-7.75738712e-07
-7.63023016e-07
-7.35036716e-07
-7.35748037e-07
-7.76704707e-07
-7.73784158e-07
-7.38790504e-07
-7.35490538e-07
-7.79250708e-07
-7.74371334e-07
-7.44653707e-07
-7.35530136e-07
-7.37962278e-07
-7.76255799e-07
-7.73318548e-07
-7.38918761e-07
-7.36007115e-07
-7.78500401e-07
-7.73716794e-07
-7.43348665e-07
-7.38038572e-07
-7.39937886e-07
-7.38971246e-07
-7.41662201e-07
-7.75496871e-07
-7.73489176e-07
-7.3889027e-07
-7.35207081e-07
-7.79221188e-07
-7.74537621e-07
-7.49189067e-07
-7.3553656e-07
-7.35989649e-07
-7.76958193e-07
-7.73913568e-07
-7.38234594e-07
-7.35308111e-07
-7.79159857e-07
-7.744521e-07
-7.45294425e-07
-7.35729288e-07
-7.37073289e-07
-7.77054048e-07
-7.73960195e-07
-7.37790062e-07
-7.33993611e-07
-7.80077581e-07
-7.74643265e-07
-7.53940738e-07
-7.36095681e-07
-7.36123332e-07
-7.76488317e-07
-7.74316582e-07
-7.4255554e-07
-7.345209e-07
-7.38235716e-07
-7.76749569e-07
-7.73498827e-07
-7.39843049e-07
-7.35526084e-07
-7.80156844e-07
-7.74773015e-07
-7.36971218e-07
-7.33295987e-07
-7.8027093e-07
-7.75016205e-07
-7.57188069e-07
-7.3636925e-07
-7.36066877e-07
-7.78214121e-07
-7.74894552e-07
-7.38449685e-07
-7.35354037e-07
-7.79548199e-07
-7.74961481e-07
-7.42738022e-07
-7.34255859e-07
-7.37781499e-07
-7.77012081e-07
-7.73620611e-07
-7.39539038e-07
-7.35506674e-07
-7.7957669e-07
-7.74601581e-07
-7.44221034e-07
-7.35338792e-07
-7.36629545e-07
-7.76940813e-07
-7.73766985e-07
-7.40614728e-07
-7.35851829e-07
-7.79179048e-07
-7.74710246e-07
-7.42018323e-07
-7.3407145e-07
-7.38017232e-07
-7.76740909e-07
-7.73297506e-07
-7.42076499e-07
-7.36635963e-07
-7.79194909e-07
-7.74618499e-07
-7.40971207e-07
-7.34289425e-07
-7.57488451e-07
-7.76337145e-07
-7.49267482e-07
-7.37746709e-07
-7.37410117e-07
-7.37894802e-07
-7.62620102e-07
-7.74299622e-07
-7.74986659e-07
-7.41216994e-07
-7.35665268e-07
-7.79377363e-07
-7.75054753e-07
-7.38889693e-07
-7.3383226e-07
-7.49450367e-07
-7.75461166e-07
-7.7578434e-07
-7.39364283e-07
-7.34109264e-07
-7.39637768e-07
-7.76818901e-07
-7.73749499e-07
-7.40246603e-07
-7.35814382e-07
-7.79982976e-07
-7.75109443e-07
-7.4283179e-07
-7.34638268e-07
-7.39150825e-07
-7.76794982e-07
-7.7471914e-07
-7.41564691e-07
-7.34207038e-07
-7.43199601e-07
-7.7655398e-07
-7.74439065e-07
-7.39445644e-07
-7.3537002e-07
-7.76064664e-07
-7.75198254e-07
-7.39718062e-07
-7.35773463e-07
-7.76011286e-07
-7.75434268e-07
-7.39089588e-07
-7.35878956e-07
-7.79574611e-07
-7.75639698e-07
-7.41899226e-07
-7.34423833e-07
-7.38635974e-07
-7.77402683e-07
-7.74368818e-07
-7.40715313e-07
-7.36280145e-07
-7.76959905e-07
-7.75423974e-07
-7.39493952e-07
-7.36624099e-07
-7.77509018e-07
-7.76532842e-07
-7.37785971e-07
-7.33397634e-07
-7.51907926e-07
-7.7599712e-07
-7.79691458e-07
-7.37904175e-07
-7.37171488e-07
-7.79541486e-07
-7.76557747e-07
-7.38375739e-07
-7.37245879e-07
-7.79839402e-07
-7.76676167e-07
-7.38237149e-07
-7.35754244e-07
-7.73717289e-07
-7.7417654e-07
-7.57675262e-07
-7.39376675e-07
-7.40406649e-07
-7.38264771e-07
-7.37927121e-07
-7.74393958e-07
-7.74237923e-07
-7.69744905e-07
-7.37483298e-07
-7.35947888e-07
-7.62282115e-07
-7.75328195e-07
-7.65824978e-07
-7.36674768e-07
-7.35801796e-07
-7.6791734e-07
-7.75148317e-07
-7.61190588e-07
-7.35684899e-07
-7.34884487e-07
-7.64502799e-07
-7.75058334e-07
-7.61802807e-07
-7.37806762e-07
-7.39956523e-07
-7.77695347e-07
-7.77656054e-07
-7.36578114e-07
-7.33933974e-07
-7.62126595e-07
-7.75395468e-07
-7.57464191e-07
-7.37482086e-07
-7.44332191e-07
-7.77015734e-07
-7.77107573e-07
-7.37066837e-07
-7.35553406e-07
-7.67152066e-07
-7.74564863e-07
-7.57391871e-07
-7.38839435e-07
-7.36564131e-07
-7.36035639e-07
-7.75563539e-07
-7.74302547e-07
-7.47173079e-07
-7.36592052e-07
-7.68359101e-07
-7.75054777e-07
-7.60103362e-07
-7.3677138e-07
-7.35847865e-07
-7.69835887e-07
-7.74767239e-07
-7.45399183e-07
-7.36161132e-07
-7.67272995e-07
-7.74651686e-07
-7.58130845e-07
-7.39161316e-07
-7.3881855e-07
-7.38079203e-07
-7.37764714e-07
-7.7958566e-07
-7.73822396e-07
-7.4676179e-07
-7.36302071e-07
-7.66757589e-07
-7.75131334e-07
-7.64141341e-07
-7.36902073e-07
-7.3566467e-07
-7.66262452e-07
-7.75320268e-07
-7.46509711e-07
-7.35414498e-07
-7.4945603e-07
-7.76571959e-07
-7.79374067e-07
-7.37710799e-07
-7.35428893e-07
-7.63536019e-07
-7.75693233e-07
-7.4363468e-07
-7.34680795e-07
-7.58438142e-07
-7.75837208e-07
-7.73773846e-07
-7.37930795e-07
-7.35810486e-07
-7.6415053e-07
-7.7564795e-07
-7.43128201e-07
-7.34351196e-07
-7.59001052e-07
-7.75775204e-07
-7.71816462e-07
-7.37490771e-07
-7.35805546e-07
-7.67110991e-07
-7.75346621e-07
-7.50616102e-07
-7.35573643e-07
-7.36208744e-07
-7.78823346e-07
-7.74103875e-07
-7.44614604e-07
-7.35638523e-07
-7.68628992e-07
-7.75390066e-07
-7.47828711e-07
-7.34945525e-07
-7.3622593e-07
-7.78631715e-07
-7.74077413e-07
-7.44247505e-07
-7.35526304e-07
-7.66753538e-07
-7.75073468e-07
-7.42844955e-07
-7.35343141e-07
-7.66880895e-07
-7.75077668e-07
-7.42261181e-07
-7.36330104e-07
-7.71976616e-07
-7.78904978e-07
-7.37452246e-07
-7.34827041e-07
-7.73331664e-07
-7.74755206e-07
-7.42613198e-07
-7.35673633e-07
-7.70367279e-07
-7.74810166e-07
-7.41481725e-07
-7.35368803e-07
-7.69888321e-07
-7.75005445e-07
-7.4079021e-07
-7.35015143e-07
-7.70579898e-07
-7.75172146e-07
-7.42987615e-07
-7.35024223e-07
-7.5482373e-07
-7.75899042e-07
-7.5999123e-07
-7.35531989e-07
-7.35223776e-07
-7.78372008e-07
-7.74117968e-07
-7.40601444e-07
-7.35703706e-07
-7.77894636e-07
-7.74345319e-07
-7.39549791e-07
-7.35609596e-07
-7.80355362e-07
-7.74732152e-07
-7.4332932e-07
-7.3468714e-07
-7.36100364e-07
-7.76929973e-07
-7.73692574e-07
-7.40705186e-07
-7.36421034e-07
-7.78619091e-07
-7.74303793e-07
-7.42931569e-07
-7.34835071e-07
-7.37147019e-07
-7.7616538e-07
-7.7392112e-07
-7.44275869e-07
-7.35039123e-07
-7.36752371e-07
-7.76362252e-07
-7.73630457e-07
-7.39567108e-07
-7.35717962e-07
-7.78531543e-07
-7.74120366e-07
-7.38325151e-07
-7.35471023e-07
-7.78107892e-07
-7.74632677e-07
-7.41926012e-07
-7.34524344e-07
-7.35939459e-07
-7.76414844e-07
-7.73824958e-07
-7.39019404e-07
-7.35496788e-07
-7.77984394e-07
-7.74002304e-07
-7.37795868e-07
-7.35030778e-07
-7.77865383e-07
-7.73906147e-07
-7.38329747e-07
-7.36352977e-07
-7.76904026e-07
-7.73598452e-07
-7.43036914e-07
-7.37938755e-07
-7.37316087e-07
-7.44128878e-07
-7.78551227e-07
-7.77748879e-07
-7.4032794e-07
-7.36638866e-07
-7.38083606e-07
-7.75224782e-07
-7.73217694e-07
-7.39580323e-07
-7.36697016e-07
-7.76208878e-07
-7.74074124e-07
-7.41489868e-07
-7.34691606e-07
-7.35822173e-07
-7.75744498e-07
-7.73804347e-07
-7.38231791e-07
-7.35452789e-07
-7.77046164e-07
-7.74072432e-07
-7.36529961e-07
-7.34634883e-07
-7.77040018e-07
-7.740875e-07
-7.37523446e-07
-7.36120553e-07
-7.76052094e-07
-7.74257125e-07
-7.39667228e-07
-7.34876899e-07
-7.37320262e-07
-7.74785818e-07
-7.73922089e-07
-7.41049377e-07
-7.34982538e-07
-7.36639566e-07
-7.75057252e-07
-7.73620376e-07
-7.38054447e-07
-7.36186924e-07
-7.75984192e-07
-7.74021608e-07
-7.36438471e-07
-7.35229542e-07
-7.76369623e-07
-7.74437812e-07
-7.36103766e-07
)
;

boundaryField
{
    closed
    {
        type            calculated;
        value           nonuniform List<scalar> 0();
    }
    open
    {
        type            calculated;
        value           nonuniform List<scalar> 0();
    }
    sides
    {
        type            empty;
    }
    procBoundary1to0
    {
        type            processor;
        value           uniform -7.38932112e-07;
    }
    procBoundary1to2
    {
        type            processor;
        value           uniform -7.35147634e-07;
    }
}


// ************************************************************************* //
