/*--------------------------------*- C++ -*----------------------------------*\
| =========                 |                                                 |
| \\      /  F ield         | OpenFOAM: The Open Source CFD Toolbox           |
|  \\    /   O peration     | Version:  2306                                  |
|   \\  /    A nd           | Website:  www.openfoam.com                      |
|    \\/     M anipulation  |                                                 |
\*---------------------------------------------------------------------------*/
FoamFile
{
    version     2.0;
    format      ascii;
    arch        "LSB;label=32;scalar=64";
    class       volScalarField;
    location    "0.00174";
    object      sourcePV;
}
// * * * * * * * * * * * * * * * * * * * * * * * * * * * * * * * * * * * * * //

dimensions      [1 -3 -1 0 0 0 0];

internalField   nonuniform List<scalar> 
530
(
0.0335420789
0.0787594564
0.0818271886
0.0815620692
0.0815313028
0.0815304768
0.0815304443
0.0815304429
0.0815304428
0.0815304428
0.0815304428
0.0815304428
0.0815304428
0.0815304428
0.0815304428
0.0815304428
0.0815304428
0.0815304428
0.0815304428
0.0815304428
0.0815304428
0.0815304428
0.0815304428
0.0815304428
0.0815304428
0.0815304428
0.0815304428
0.0815304428
0.0815304428
0.0815304428
0.0815304428
0.0815304428
0.0815304428
0.0815304428
0.0815304428
0.0815304428
0.0815304428
0.0815304428
0.0815304428
0.0815304428
0.0815304428
0.0815304428
0.0815304428
0.0815304428
0.0815304428
0.0815304428
0.0815304428
0.0815304428
0.0815304428
0.0815304428
0.0815304428
0.0815304428
0.0815304428
0.0815304428
0.0815304428
0.0815304428
0.0815304428
0.0815304428
0.0815304428
0.0815304429
0.0815304431
0.0815304437
0.0815304451
0.0815304497
0.0815304557
0.0815304731
0.0815305039
0.0815306942
0.0815305552
0.0815303217
0.0815332348
0.0815328408
0.0815268979
0.0815330969
0.0815538166
0.0815362642
0.0815154127
0.0815061199
0.0816007148
0.0816243664
0.0816813162
0.0815636127
0.0801896052
0.0798140888
0.0829870382
0.099554639
0.0997880679
0.0517315989
0.0356516627
0.0726660828
0.132968208
0.135060376
0.144074895
0.142828804
0.0674105171
0.0056344281
0.00586458063
0.00443660032
0.00588787161
0.00336106522
0.152328578
0.164708171
0.151906023
0.157703828
0.153823801
0.17080727
0.13491726
0.00510651317
0.0057710047
0.00518362924
0.0051343453
0.00577048566
0.00480243918
0.123793733
0.16535305
0.157488128
0.16423217
0.179658215
0.152218079
0.00497211862
0.00568182113
0.00460096878
0.00559830618
0.00437717251
0.00576348569
0.00438793741
0.151404571
0.168910062
0.158962013
0.159114531
0.170019027
0.137688033
0.00511228018
0.00625133166
0.00446722434
0.147246006
0.191103187
0.140942691
0.00509862827
0.0055843847
0.00562648764
0.00514177134
0.131725783
0.156526042
0.150096593
0.125524219
0.00625185191
0.00587018481
0.12484086
0.154689266
0.121517122
0.00622197578
0.00591935429
0.124483008
0.119945042
0.00661243691
0.00596994467
0.13324938
0.157802757
0.121258227
0.00626384436
0.0059941579
0.127671992
0.158581812
0.114353805
0.00574483202
0.00685483372
0.00568135119
0.123752017
0.154348259
0.114158986
0.00625955352
0.00604864232
0.126058919
0.15445226
0.115796453
0.00608463203
0.00605155091
0.135090288
0.149578341
0.143722515
0.145731742
0.153890221
0.131790242
0.00573285722
0.00578711169
0.150638804
0.129331827
0.00447811109
0.00612295638
0.00271587472
0.159188581
0.144538707
0.00502779009
0.0060456913
0.00488299777
0.15006063
0.168479979
0.157609907
0.136106481
0.00585269086
0.00560273098
0.139191083
0.136784212
0.00602542674
0.00554182997
0.143541486
0.140450534
0.00596594392
0.00541278567
0.148210809
0.14354487
0.00602118463
0.00541474988
0.149649154
0.138667303
0.00586677035
0.00550776106
0.16110143
0.17551695
0.132777341
0.00561676676
0.00561839041
0.146984651
0.136560617
0.00587813198
0.00545262067
0.163134965
0.17807653
0.134514267
0.00554542959
0.00530836238
0.151904832
0.144984649
0.00598222852
0.00471863178
0.15369829
0.14488037
0.00600303952
0.00456474055
0.154069751
0.143711192
0.00601849319
0.00445175598
0.152836719
0.141108648
0.00604025088
0.00440174638
0.151671141
0.135103843
0.00582087131
0.00540439312
0.167349996
0.176841943
0.126764003
0.00563768229
0.00490529734
0.146477423
0.134408262
0.00610415588
0.00418140798
0.145596801
0.12892171
0.00588089202
0.00546675833
0.162986795
0.173755083
0.12114414
0.00563287611
0.00446863059
0.144464125
0.127933636
0.00583514087
0.00543136366
0.160248544
0.172971266
0.118182146
0.00561706526
0.00409708108
0.142515665
0.123742009
0.00603910364
0.00553332487
0.142083173
0.12250265
0.00584838799
0.00550958467
0.157005266
0.172903673
0.110436412
0.00557843019
0.00253973422
0.14006598
0.120849011
0.0057979503
0.00559439111
0.154450287
0.167403236
0.1488049
0.153551338
0.101125171
0.0059365925
0.00654841297
0.134718626
0.114810758
0.00593715763
0.00568291605
0.1483464
0.164769861
0.0982305662
0.00546988283
0.00570827437
0.148534889
0.162581543
0.0950077101
0.00552577437
0.00566920499
0.148054791
0.161020219
0.0914066357
0.00556620667
0.00562616996
0.147189821
0.158833228
0.0863873678
0.00562921819
0.00554655087
0.146079062
0.156787984
0.0828732964
0.0055850851
0.00537611353
0.152286768
0.160201236
0.141293906
0.0864084245
0.00618725867
0.0165996773
0.128823742
0.106550322
0.00592754162
0.00520830501
0.153177466
0.164023292
0.0863422371
0.00539554865
0.00492734751
0.154811387
0.164559722
0.0860803235
0.00539983213
0.00475120933
0.155989217
0.165353249
0.0855712509
0.00538962952
0.00457836677
0.157148818
0.166204218
0.0846928924
0.00531937301
0.00443473085
0.163502561
0.170560584
0.142450016
0.0677304837
0.00592004378
0.0606902206
0.135607001
0.0963074621
0.00583076518
0.003877897
0.163854849
0.169996443
0.0498213236
0.00544124488
0.067733968
0.13709945
0.0904174726
0.00576150153
0.0105998882
0.164559773
0.167307139
0.0349108078
0.00537062164
0.0835421844
0.138774548
0.0802849506
0.00566803178
0.0295055054
0.168535442
0.16531506
0.0199232291
0.00527896105
0.0968190518
0.140219547
0.0700739227
0.00556182888
0.0443150237
0.171992388
0.161864143
0.00455319095
0.00523440202
0.106737779
0.140420403
0.0605449672
0.00556676652
0.0547519515
0.164317354
0.160833944
0.0556544115
0.00526933771
0.0463305128
0.167253319
0.163444713
0.05093044
0.00512301203
0.0534695507
0.176016217
0.15863644
0.0042500871
0.00522787154
0.122774807
0.137778666
0.00396230918
0.00560422309
0.123625016
0.138266399
0.0263964282
0.0055063373
0.0847613736
0.17194153
0.149208315
0.00508770825
0.00555856082
0.127803982
0.136189241
0.00514212432
0.00578691547
0.128203839
0.135542504
0.0143455917
0.00577325241
0.0809976408
0.159437582
0.14957398
0.0502293738
0.00555630849
0.0091553586
0.16984729
0.174878831
0.14874318
0.142447143
0.0524340357
0.00566273534
0.0283387893
0.163184163
0.162181567
0.0244507302
0.00531301017
0.0564220298
0.169718673
0.149754765
0.00535565813
0.00560909964
0.130526735
0.132870682
0.00561914604
0.00570503621
0.133892362
0.132268033
0.00589304981
0.00564496408
0.138988714
0.136674527
0.00572132027
0.00544365687
0.115495542
0.173025325
0.141788238
0.00491778471
0.00539758182
0.109322505
0.174740244
0.14278628
0.00498431571
0.00534013904
0.108600365
0.174066914
0.141080906
0.00525596387
0.00533024427
0.110472508
0.171818638
0.135560512
0.00573311278
0.00494109457
0.138422572
0.130055203
0.00618209222
0.00516226649
0.122468635
0.169107722
0.129172262
0.00581366529
0.00451388459
0.138855512
0.127141042
0.0062772657
0.00490107009
0.125786563
0.171491105
0.126435332
0.00556530553
0.00497249663
0.113879701
0.172810167
0.128306962
0.00563908134
0.00661472114
0.00371087676
0.110928583
0.166964579
0.149613181
0.165310966
0.1277727
0.00524868893
0.00651501943
0.00348098236
0.102763732
)
;

boundaryField
{
    closed
    {
        type            calculated;
        value           uniform 0;
    }
    open
    {
        type            calculated;
        value           nonuniform List<scalar> 0();
    }
    sides
    {
        type            empty;
    }
    procBoundary0to1
    {
        type            processor;
        value           uniform 0;
    }
}


// ************************************************************************* //
