/*--------------------------------*- C++ -*----------------------------------*\
| =========                 |                                                 |
| \\      /  F ield         | OpenFOAM: The Open Source CFD Toolbox           |
|  \\    /   O peration     | Version:  2306                                  |
|   \\  /    A nd           | Website:  www.openfoam.com                      |
|    \\/     M anipulation  |                                                 |
\*---------------------------------------------------------------------------*/
FoamFile
{
    version     2.0;
    format      ascii;
    arch        "LSB;label=32;scalar=64";
    class       volScalarField;
    location    "0.00036";
    object      prefDPV_H2O;
}
// * * * * * * * * * * * * * * * * * * * * * * * * * * * * * * * * * * * * * //

dimensions      [1 -1 -1 0 0 0 0];

internalField   nonuniform List<scalar> 
530
(
1.09370597e-06
1.09460674e-06
1.09537732e-06
1.09622788e-06
1.09696279e-06
1.09776593e-06
1.09846672e-06
1.0992251e-06
1.09989337e-06
1.10060963e-06
1.10124696e-06
1.10192376e-06
1.10253167e-06
1.10317173e-06
1.1037517e-06
1.10435139e-06
1.10486814e-06
1.10540126e-06
1.10589282e-06
1.10639693e-06
1.10686412e-06
1.10734107e-06
1.10778479e-06
1.10823634e-06
1.10866159e-06
1.10909645e-06
1.10950161e-06
1.10991178e-06
1.11029541e-06
1.11068262e-06
1.11104594e-06
1.11141186e-06
1.11175609e-06
1.11210233e-06
1.11242871e-06
1.11275688e-06
1.11305261e-06
1.11333351e-06
1.11360064e-06
1.1138657e-06
1.11411733e-06
1.11436745e-06
1.1146044e-06
1.11484047e-06
1.11506353e-06
1.11528645e-06
1.11549634e-06
1.11570703e-06
1.1159042e-06
1.11610112e-06
1.11628386e-06
1.11646659e-06
1.1166359e-06
1.11680534e-06
1.11696197e-06
1.11711899e-06
1.11726373e-06
1.11740918e-06
1.11754288e-06
1.11767749e-06
1.11780114e-06
1.11792537e-06
1.11804037e-06
1.11815389e-06
1.11825213e-06
1.11833231e-06
1.11841007e-06
1.11847838e-06
1.11854342e-06
1.11861093e-06
1.11866845e-06
1.11873463e-06
1.1187854e-06
1.11885012e-06
1.11889473e-06
1.11895797e-06
1.11899694e-06
1.11905872e-06
1.11909251e-06
1.11915287e-06
1.11918196e-06
1.11924091e-06
1.11926575e-06
1.11932334e-06
1.11934439e-06
1.11940062e-06
1.11941833e-06
1.11947323e-06
1.11948806e-06
1.11954164e-06
1.11955406e-06
1.11960634e-06
1.11961679e-06
1.11966782e-06
1.11967673e-06
1.11972657e-06
1.11973439e-06
1.1197831e-06
1.11979025e-06
1.11983794e-06
1.11984483e-06
1.11989165e-06
1.11989866e-06
1.11994481e-06
1.11994567e-06
1.11998314e-06
1.1199837e-06
1.12002017e-06
1.12002067e-06
1.12005606e-06
1.12005661e-06
1.12009087e-06
1.12009155e-06
1.12012466e-06
1.12012557e-06
1.12015752e-06
1.12015871e-06
1.12018952e-06
1.12019107e-06
1.12022077e-06
1.12022273e-06
1.12025136e-06
1.12025379e-06
1.1202814e-06
1.12028436e-06
1.12031103e-06
1.12031455e-06
1.12034038e-06
1.12034448e-06
1.12036959e-06
1.12037427e-06
1.12039883e-06
1.12040407e-06
1.12041976e-06
1.12041533e-06
1.12042993e-06
1.12042813e-06
1.12044268e-06
1.12044222e-06
1.12045691e-06
1.1204578e-06
1.12047278e-06
1.12047506e-06
1.12049047e-06
1.12049419e-06
1.12051014e-06
1.12051536e-06
1.12053198e-06
1.12053875e-06
1.12055617e-06
1.12056455e-06
1.12058287e-06
1.12059293e-06
1.12061228e-06
1.12062406e-06
1.12064456e-06
1.12065813e-06
1.12067989e-06
1.12069531e-06
1.12071845e-06
1.12073575e-06
1.12076045e-06
1.12077965e-06
1.12080903e-06
1.12084176e-06
1.12088132e-06
1.12091601e-06
1.12095698e-06
1.1209934e-06
1.12103576e-06
1.12107372e-06
1.12111739e-06
1.1211567e-06
1.1212016e-06
1.12124211e-06
1.12128816e-06
1.1213297e-06
1.12137683e-06
1.12141923e-06
1.12146736e-06
1.12151046e-06
1.12155952e-06
1.12160316e-06
1.12165306e-06
1.12169711e-06
1.12174776e-06
1.12179207e-06
1.12184339e-06
1.12188784e-06
1.12193972e-06
1.12198419e-06
1.12203654e-06
1.12208091e-06
1.12213365e-06
1.1221778e-06
1.12223082e-06
1.12227467e-06
1.12232788e-06
1.12237132e-06
1.12242463e-06
1.12246757e-06
1.12252089e-06
1.12256324e-06
1.12261649e-06
1.12265819e-06
1.12271126e-06
1.12275223e-06
1.12280505e-06
1.12284523e-06
1.12289772e-06
1.12293705e-06
1.12298913e-06
1.12302755e-06
1.12307916e-06
1.12311663e-06
1.12316768e-06
1.12320416e-06
1.12325459e-06
1.12329004e-06
1.12333979e-06
1.12337419e-06
1.12342319e-06
1.12345652e-06
1.12350472e-06
1.12353696e-06
1.1235843e-06
1.12361544e-06
1.12366187e-06
1.12369189e-06
1.1237374e-06
1.12376625e-06
1.12381082e-06
1.12383851e-06
1.12388206e-06
1.12390868e-06
1.12395104e-06
1.1239768e-06
1.12401767e-06
1.1240429e-06
1.12408198e-06
1.12410691e-06
1.12414405e-06
1.12416878e-06
1.12420395e-06
1.12422845e-06
1.12426171e-06
1.1242859e-06
1.12431736e-06
1.12434114e-06
1.1243709e-06
1.12439419e-06
1.12442235e-06
1.12444508e-06
1.12447173e-06
1.12449384e-06
1.12451908e-06
1.1245405e-06
1.12456441e-06
1.12458512e-06
1.12460776e-06
1.12462772e-06
1.12464917e-06
1.12466837e-06
1.12468869e-06
1.12470711e-06
1.12472635e-06
1.12474399e-06
1.12476221e-06
1.12477907e-06
1.1247963e-06
1.12481239e-06
1.1248287e-06
1.12484402e-06
1.12485943e-06
1.124874e-06
1.12488857e-06
1.1249024e-06
1.12491616e-06
1.12492928e-06
1.12494226e-06
1.12495468e-06
1.12496693e-06
1.12497867e-06
1.12499021e-06
1.12500131e-06
1.12501218e-06
1.12502264e-06
1.12503287e-06
1.12504273e-06
1.12505235e-06
1.12506163e-06
1.12507067e-06
1.1250794e-06
1.12508788e-06
1.12509608e-06
1.12510404e-06
1.12511174e-06
1.12511919e-06
1.12512641e-06
1.12513339e-06
1.12514015e-06
1.12514668e-06
1.12515301e-06
1.12515912e-06
1.12516503e-06
1.12517073e-06
1.12517626e-06
1.12518158e-06
1.12518673e-06
1.1251917e-06
1.12519651e-06
1.12520114e-06
1.12520561e-06
1.12520992e-06
1.12521409e-06
1.1252181e-06
1.12522198e-06
1.12522571e-06
1.12522931e-06
1.12523277e-06
1.12523612e-06
1.12523933e-06
1.12524244e-06
1.12524542e-06
1.1252483e-06
1.12525106e-06
1.12525373e-06
1.12525629e-06
1.12525876e-06
1.12526113e-06
1.12526341e-06
1.1252656e-06
1.12526771e-06
1.12526974e-06
1.12527169e-06
1.12527356e-06
1.12527536e-06
1.12527709e-06
1.12527876e-06
1.12528035e-06
1.12528188e-06
1.12528335e-06
1.12528477e-06
1.12528612e-06
1.12528742e-06
1.12528867e-06
1.12528987e-06
1.12529102e-06
1.12529212e-06
1.12529318e-06
1.12529419e-06
1.12529516e-06
1.1252961e-06
1.12529699e-06
1.12529785e-06
1.12529867e-06
1.12529946e-06
1.12530021e-06
1.12530094e-06
1.12530163e-06
1.1253023e-06
1.12530294e-06
1.12530355e-06
1.12530413e-06
1.12530469e-06
1.12530524e-06
1.12530574e-06
1.12530603e-06
1.12530579e-06
1.12530557e-06
1.12530537e-06
1.12530518e-06
1.12530501e-06
1.12530485e-06
1.12530471e-06
1.12530458e-06
1.12530445e-06
1.12530435e-06
1.12530424e-06
1.12530415e-06
1.12530407e-06
1.12530399e-06
1.12530392e-06
1.12530386e-06
1.1253038e-06
1.12530375e-06
1.1253037e-06
1.12530365e-06
1.12530361e-06
1.12530358e-06
1.12530354e-06
1.12530351e-06
1.12530349e-06
1.12530346e-06
1.12530344e-06
1.12530342e-06
1.1253034e-06
1.12530338e-06
1.12530337e-06
1.12530335e-06
1.12530334e-06
1.12530333e-06
1.12530332e-06
1.12530331e-06
1.1253033e-06
1.12530329e-06
1.12530329e-06
1.12530328e-06
1.12530327e-06
1.12530327e-06
1.12530326e-06
1.12530326e-06
1.12530326e-06
1.12530325e-06
1.12530325e-06
1.12530325e-06
1.12530324e-06
1.12530324e-06
1.12530324e-06
1.12530324e-06
1.12530324e-06
1.12530323e-06
1.12530323e-06
1.12530323e-06
1.12530323e-06
1.12530323e-06
1.12530323e-06
1.12530323e-06
1.12530323e-06
1.12530323e-06
1.12530323e-06
1.12530323e-06
1.12530323e-06
1.12530322e-06
1.12530322e-06
1.12530322e-06
1.12530322e-06
1.12530322e-06
1.12530322e-06
1.12530322e-06
1.12530322e-06
1.12530322e-06
1.12530322e-06
1.12530322e-06
1.12530322e-06
1.12530322e-06
1.12530322e-06
1.12530322e-06
1.12530322e-06
1.12530322e-06
1.12530322e-06
1.12530322e-06
1.12530322e-06
1.12530322e-06
1.12530322e-06
1.12530322e-06
1.12530322e-06
1.12530322e-06
1.12530322e-06
1.12530322e-06
1.12530322e-06
1.12530322e-06
1.12530322e-06
1.12530322e-06
1.12530322e-06
1.12530322e-06
1.12530322e-06
1.12530322e-06
1.12530322e-06
1.12530322e-06
1.12530322e-06
1.12530322e-06
1.12530322e-06
1.12530322e-06
1.12530322e-06
1.12530322e-06
1.12530322e-06
1.12530322e-06
1.12530322e-06
1.12530322e-06
1.12530322e-06
1.12530322e-06
1.12530322e-06
1.12530322e-06
1.12530322e-06
1.12530322e-06
1.12530322e-06
1.12530322e-06
1.12530322e-06
1.12530322e-06
1.12530322e-06
1.12530322e-06
1.12530322e-06
1.12530322e-06
1.12530322e-06
1.12530322e-06
1.12530322e-06
1.12530322e-06
1.12530322e-06
1.12530322e-06
1.12530322e-06
1.12530322e-06
1.12530322e-06
1.12530322e-06
1.12530322e-06
1.12530322e-06
1.12530322e-06
1.12530322e-06
1.12530322e-06
1.12530322e-06
1.12530322e-06
1.12530322e-06
1.12530322e-06
1.12530322e-06
1.12530322e-06
1.12530322e-06
1.12530322e-06
1.12530322e-06
1.12530322e-06
1.12530322e-06
1.12530322e-06
1.12530322e-06
1.12530322e-06
1.12530322e-06
1.12530322e-06
1.12530322e-06
1.12530322e-06
1.12530322e-06
1.12530322e-06
1.12530322e-06
)
;

boundaryField
{
    closed
    {
        type            calculated;
        value           nonuniform List<scalar> 0();
    }
    open
    {
        type            calculated;
        value           uniform 1.12530322e-06;
    }
    sides
    {
        type            empty;
    }
    procBoundary5to4
    {
        type            processor;
        value           uniform 1.09289838e-06;
    }
}


// ************************************************************************* //
