/*--------------------------------*- C++ -*----------------------------------*\
| =========                 |                                                 |
| \\      /  F ield         | OpenFOAM: The Open Source CFD Toolbox           |
|  \\    /   O peration     | Version:  2306                                  |
|   \\  /    A nd           | Website:  www.openfoam.com                      |
|    \\/     M anipulation  |                                                 |
\*---------------------------------------------------------------------------*/
FoamFile
{
    version     2.0;
    format      ascii;
    arch        "LSB;label=32;scalar=64";
    class       volScalarField;
    location    "0.00082";
    object      h;
}
// * * * * * * * * * * * * * * * * * * * * * * * * * * * * * * * * * * * * * //

dimensions      [0 2 -2 0 0 0 0];

internalField   nonuniform List<scalar> 
530
(
-200187.088
-223723.486
-223924.115
-191652.27
-194539.312
-212028.329
-216291.787
-191664.138
-188174.488
-194285.683
-209034.781
-202226.427
-183449.642
-187721.531
-202670.799
-202335.459
-178940.72
-182725.654
-196444.428
-196277.568
-174064.51
-178044.25
-190524.821
-190411.7
-169381.009
-173290.776
-185080.367
-184767.294
-164905.31
-168495.562
-179803.915
-179314.567
-160459.914
-163774.615
-174860.193
-174249.819
-156053.454
-159185.982
-170057.882
-169348.469
-151705.336
-154687.941
-165373.664
-164583.161
-147421.502
-150224.48
-160743.114
-159916.601
-143155.383
-145825.348
-156141.359
-155294.837
-138926.919
-141469.94
-151508.559
-150737.981
-134704.633
-137161.732
-146890.6
-146187.06
-130508.884
-132832.275
-142304.332
-141622.742
-126339.247
-128532.56
-137741.529
-137101.066
-122184.309
-124265.183
-133205.526
-132605.125
-118043.164
-120009.715
-128697.302
-128131.993
-113920.441
-115760.799
-124163.518
-123675.428
-109735.65
-111511.939
-119539.652
-119160.377
-105512.664
-107193.491
-114896.848
-114555.242
-101298.019
-102880.895
-110277.528
-109919.987
-97053.5844
-98589.8234
-105684.464
-105286.529
-92799.0504
-94316.5781
-101120.329
-100675.263
-88554.109
-90055.2628
-96615.2347
-96153.9586
-84400.636
-85810.1986
-92169.377
-91741.8246
-80293.6493
-81638.6317
-87795.5756
-87376.8415
-76195.952
-77509.2089
-83474.6574
-83038.7824
-72116.7842
-73439.8957
-79168.4908
-78752.0689
-68090.032
-69426.4652
-74929.3038
-74509.3666
-64151.4172
-65464.1748
-70867.5423
-70360.4886
-60373.3728
-61629.7549
-66962.0188
-66431.5748
-56701.5037
-57912.5313
-63167.2022
-62629.8655
-53136.1637
-54309.5774
-59497.383
-58939.256
-49654.607
-50836.531
-55965.0546
-55363.1252
-46262.1865
-47473.9631
-52557.7926
-51912.4497
-42990.0332
-44225.7997
-49227.9165
-48605.7241
-39819.734
-41055.3119
-45917.8045
-45340.8504
-36786.407
-37987.1981
-42705.3068
-42165.2881
-33849.2567
-35070.6441
-39633.4468
-39081.5692
-31024.1858
-32274.3014
-36683.2155
-36125.4111
-28354.5072
-29587.654
-33821.6224
-33300.0215
-25873.5827
-27022.389
-31073.7869
-30601.5515
-23554.0766
-24606.7863
-28446.18
-27994.2484
-21360.251
-22347.586
-25943.8433
-25493.4949
-19305.5856
-20212.4122
-23560.9561
-23178.764
-17372.6439
-18208.2953
-21313.1667
-20994.7416
-15501.4635
-16316.923
-19207.3561
-18961.0892
-13721.2545
-14535.7321
-17300.7051
-17061.8101
-11957.8914
-12797.6149
-15623.0278
-15295.6535
-10272.7692
-11153.579
-14034.6766
-13673.6801
-8743.46022
-9591.02915
-12532.1723
-12171.9863
-7345.15079
-8140.18609
-11081.3292
-10764.8249
-6102.79873
-6817.00786
-9705.69417
-9450.12786
-4964.56308
-5620.06727
-8390.62897
-8227.41197
-3940.03295
-4500.68274
-7219.15688
-7099.45512
-2973.13115
-3521.17804
-6161.71579
-6050.80079
-2058.93167
-2650.7616
-5210.35528
-5074.58952
-1213.63192
-1868.63902
-4341.24102
-4181.02442
-461.029297
-1130.2796
-3564.37925
-3372.77517
174.707616
-482.310805
-2841.03626
-2644.59073
725.154323
99.1221989
-2179.40124
-1991.20951
1204.7028
624.618864
-1580.2084
-1406.96374
1607.80666
1089.31709
-1043.92447
-884.117461
1973.29413
1487.55174
-559.033964
-413.124144
2275.68941
1840.29318
-124.176334
5.56715364
2525.72603
2139.52185
262.551444
377.80759
2743.31479
2392.61059
604.862964
705.903281
2917.55353
2607.63489
910.551933
992.553127
3054.17192
2783.8569
1178.29627
1246.38124
3164.39533
2921.92839
1406.19256
1470.09441
3255.84564
3026.70446
1599.84974
1663.73706
3326.7034
3105.05473
1765.78286
1829.68332
3374.65504
3161.01857
1908.37391
1971.27135
3399.52584
3196.56392
2031.35951
2091.91402
3400.80195
3212.88921
2139.23847
2195.02088
3375.28796
3209.71045
2236.71377
2285.84264
3317.42872
3184.84582
2344.0676
2365.35486
3184.74207
3146.59783
2561.64432
2439.60093
3032.55684
3130.51601
3210.9872
2497.26644
2580.95032
3106.13422
3308.0982
2544.67182
2408.53169
3085.97643
3281.83252
2560.86474
2413.15009
3067.60402
3214.63118
2559.33846
2434.44615
3042.21188
3149.97656
2552.41158
2452.47861
3012.81689
3088.36335
2542.84576
2464.08012
2980.70786
3030.31142
2531.91584
2469.23967
2947.23196
2975.40006
2518.55241
2470.57279
2914.5656
2921.71119
2502.61702
2469.79787
2883.37907
2868.45523
2484.43294
2467.04006
2855.54685
2816.22484
2458.05151
2458.00378
2825.45994
2768.4034
2439.4896
2448.74604
2787.02769
2735.48839
2422.86946
2435.63734
2748.05054
2701.32974
2411.87573
2423.24207
2711.34721
2668.65694
2400.7532
2411.07524
2677.39368
2637.58321
2389.55031
2399.34223
2645.82404
2608.24263
2378.53253
2388.10188
2616.26761
2580.67875
2367.97552
2377.35575
2588.52213
2554.87885
2358.08426
2367.14555
2562.44976
2530.82828
2348.97239
2357.53796
2537.9344
2508.4958
2340.67756
2348.58116
2514.89452
2487.80779
2333.1956
2340.29726
2493.28968
2468.65678
2326.49383
2332.70402
2473.10006
2450.91776
2320.5093
2325.84203
2454.29519
2434.3711
2315.1779
2319.89409
2436.74782
2418.90018
2310.50564
2314.63995
2420.60063
2404.72803
2306.22962
2309.82466
2405.74585
2391.64283
2302.39663
2305.53607
2392.12601
2379.53761
2298.98869
2301.74129
2379.61805
2367.67881
2296.61008
2298.42275
2368.15174
2357.93985
2293.39833
2295.54273
2357.88364
2348.438
2291.85572
2293.84568
2346.94084
2338.71447
2299.07994
2297.98948
2339.69447
2330.91235
2319.36456
2314.36526
2320.37195
2314.83435
2315.11016
2310.27386
2310.91182
2306.68387
2306.42949
2302.80579
2301.96695
2298.87104
2297.61227
2294.95408
2293.45883
2291.18309
2289.58476
2287.65646
2286.06043
2284.36856
2282.96384
2281.62428
2280.00708
2278.47437
2277.08503
2276.13952
2275.34199
2274.82333
2274.44021
2274.2023
2274.05395
2273.96976
2273.92641
2273.90551
2273.89722
2273.89438
2273.89389
2273.89402
2273.89426
2273.89444
2273.89454
2273.89458
2273.8946
2273.89461
2273.89461
2273.89461
2273.89461
2273.89461
2273.89461
2273.89461
2273.89461
2273.89461
2273.89461
2273.89461
2273.89461
2273.89461
2273.89461
2273.89461
2273.89461
2273.89461
2273.89461
2273.89461
2273.89461
2273.89461
2273.89461
2273.89461
2273.89461
2273.89461
2273.89461
2273.89461
2273.89461
2273.89461
2273.89461
2273.89461
2273.89461
)
;

boundaryField
{
    closed
    {
        type            lookUpEnthalpy;
        h0              nonuniform List<scalar> 0();
        value           nonuniform List<scalar> 0();
    }
    open
    {
        type            zeroGradient;
    }
    sides
    {
        type            empty;
    }
    procBoundary5to4
    {
        type            processor;
        value           uniform -194846.647;
    }
}


// ************************************************************************* //
