/*--------------------------------*- C++ -*----------------------------------*\
| =========                 |                                                 |
| \\      /  F ield         | OpenFOAM: The Open Source CFD Toolbox           |
|  \\    /   O peration     | Version:  2306                                  |
|   \\  /    A nd           | Website:  www.openfoam.com                      |
|    \\/     M anipulation  |                                                 |
\*---------------------------------------------------------------------------*/
FoamFile
{
    version     2.0;
    format      ascii;
    arch        "LSB;label=32;scalar=64";
    class       volScalarField;
    location    "0.00082";
    object      prefDh_H2;
}
// * * * * * * * * * * * * * * * * * * * * * * * * * * * * * * * * * * * * * //

dimensions      [1 1 -3 0 0 0 0];

internalField   nonuniform List<scalar> 
530
(
2922.93479
2971.83047
2966.16193
2941.43059
2945.86267
2993.14087
2988.43708
2974.07931
2965.838
2990.93061
3010.4211
3010.88692
2984.80139
2988.40948
3028.29505
3030.02484
3002.28992
3005.83094
3045.14978
3044.26328
3018.01701
3021.71129
3060.17162
3058.9494
3033.12074
3036.1644
3072.96675
3073.03267
3047.66083
3049.9088
3085.07649
3086.39069
3060.50316
3063.35133
3095.85709
3098.21173
3071.65511
3076.09759
3106.33994
3109.51536
3082.92965
3087.50859
3116.69968
3120.51058
3094.29317
3098.9452
3127.30657
3131.45827
3105.74182
3110.51746
3138.32019
3142.63321
3117.31287
3122.24532
3150.03227
3154.05665
3129.03256
3134.13768
3162.22369
3165.9284
3142.00167
3146.31137
3174.78447
3178.33421
3155.20185
3159.45365
3187.73803
3191.03571
3168.6454
3172.90295
3201.04545
3204.09052
3182.40753
3186.68936
3214.70797
3217.52839
3196.53096
3200.83459
3229.03585
3231.41193
3210.98575
3215.36959
3244.22218
3246.00026
3226.76299
3230.54371
3259.96214
3261.48491
3243.04099
3246.82467
3276.01659
3277.60901
3259.71768
3263.48484
3292.34763
3294.21571
3276.71489
3280.53117
3309.08232
3311.23649
3293.91299
3297.83242
3325.97768
3328.28875
3311.45921
3315.2191
3342.98874
3345.24122
3328.7998
3332.54564
3360.07749
3362.34408
3346.31508
3350.16688
3377.32257
3379.74173
3364.05157
3368.06355
3395.00064
3397.43062
3382.07213
3386.16168
3412.79979
3415.31535
3400.29148
3404.37291
3430.17795
3433.16235
3418.02322
3422.4469
3447.17176
3450.32977
3435.32399
3439.76434
3463.99429
3467.22418
3452.52377
3456.99423
3480.58324
3483.9599
3469.41684
3474.14775
3496.84691
3500.49153
3485.94168
3491.1121
3512.82101
3516.68696
3502.13334
3507.74783
3528.71604
3532.47137
3518.3471
3524.0054
3544.84552
3548.31628
3534.8526
3540.48592
3560.77596
3564.06046
3550.94938
3556.79236
3576.24355
3579.6523
3566.48918
3572.73712
3591.42511
3594.91974
3581.79921
3588.13899
3606.45828
3609.76019
3596.93897
3603.02715
3621.19589
3624.2189
3611.92361
3617.55119
3635.58157
3638.48176
3626.46849
3631.83536
3649.56406
3652.41258
3640.50162
3645.68208
3663.14387
3665.46995
3653.98966
3659.06525
3676.20477
3677.91653
3666.58939
3671.81316
3688.56636
3689.66941
3678.58041
3684.18133
3699.82849
3700.82259
3689.47536
3695.27921
3709.76154
3711.35508
3699.66479
3705.85879
3719.32545
3721.20582
3709.69425
3715.64698
3728.56786
3730.48251
3719.36153
3724.89346
3737.70328
3739.35033
3728.96249
3733.81531
3746.58313
3747.76669
3737.96889
3742.66007
3755.26102
3755.78712
3746.6697
3750.69347
3763.13328
3763.3463
3754.5858
3758.52703
3770.39989
3770.53424
3761.80193
3766.14844
3777.10416
3777.36946
3768.41657
3773.36439
3783.37819
3783.78106
3774.71228
3779.78516
3789.1268
3789.73786
3780.82096
3785.92699
3794.60387
3795.27595
3786.72601
3791.59357
3799.73536
3800.39341
3792.25631
3796.81034
3804.50204
3805.12842
3797.52376
3801.60916
3808.8921
3809.49084
3802.28233
3806.13403
3812.98936
3813.54276
3806.81581
3810.24929
3816.78696
3817.27757
3811.06093
3814.11413
3820.29823
3820.71539
3814.90422
3817.68126
3823.52782
3823.87743
3818.50822
3820.94067
3826.51284
3826.77164
3821.86616
3823.94954
3829.24203
3829.43318
3824.90472
3826.77439
3831.7028
3831.87723
3827.60986
3829.39227
3833.91561
3834.10954
3830.05629
3831.78796
3835.91801
3836.13777
3832.2988
3833.97341
3837.74086
3837.97857
3834.37376
3835.97243
3839.40951
3839.65222
3836.31947
3837.81118
3840.95563
3841.18214
3838.19759
3839.52642
3842.42257
3842.60615
3840.09118
3841.17565
3843.97129
3843.92621
3842.38324
3842.74757
3846.26746
3845.21556
3844.98986
3843.97788
3844.15455
3846.3203
3847.1062
3845.06351
3843.66964
3847.30986
3846.5231
3845.9369
3844.27622
3848.0378
3847.04576
3846.60822
3845.2408
3848.58556
3847.71012
3847.19334
3846.14391
3849.04101
3848.33828
3847.70649
3846.94887
3849.43719
3848.89164
3848.16988
3847.64161
3849.78619
3849.36827
3848.58127
3848.2396
3850.08495
3849.7846
3848.93329
3848.77045
3850.33964
3850.14646
3849.22627
3849.25207
3850.55401
3850.45226
3849.44502
3849.67975
3850.69654
3850.67491
3849.63338
3850.044
3850.86383
3850.88505
3849.88587
3850.25984
3851.00713
3851.05565
3850.13899
3850.47479
3851.16797
3851.2078
3850.36348
3850.66658
3851.30666
3851.34045
3850.55633
3850.83705
3851.42364
3851.45562
3850.72275
3850.98797
3851.52286
3851.5551
3850.86853
3851.12088
3851.60789
3851.64066
3850.99798
3851.23761
3851.68146
3851.71408
3851.11433
3851.34005
3851.74569
3851.77707
3851.21995
3851.43002
3851.80219
3851.83115
3851.31651
3851.50924
3851.85216
3851.87768
3851.40511
3851.57935
3851.89646
3851.91791
3851.48644
3851.64199
3851.93572
3851.95309
3851.56097
3851.69947
3851.97065
3851.98551
3851.62999
3851.75331
3852.00228
3852.0144
3851.69224
3851.80127
3852.02934
3852.039
3851.74836
3851.84483
3852.05283
3852.0606
3851.79898
3851.88476
3852.07338
3852.07985
3851.84504
3851.92717
3852.09603
3852.09739
3851.88727
3851.95633
3852.10871
3852.11413
3851.92623
3851.98992
3852.13061
3852.13669
3851.98038
3852.03635
3852.2053
3852.19622
3852.03956
3852.09663
3852.17109
3852.20264
3852.14161
3852.17375
3852.15723
3852.18242
3852.16398
3852.1834
3852.17201
3852.18629
3852.17963
3852.18994
3852.18681
3852.19443
3852.19362
3852.19958
3852.20017
3852.20518
3852.20666
3852.21104
3852.2134
3852.21687
3852.21539
3852.20862
3852.20219
3852.19785
3852.19386
3852.19132
3852.18921
3852.18791
3852.18697
3852.18642
3852.18608
3852.1859
3852.1858
3852.18575
3852.18573
3852.18572
3852.18571
3852.18571
3852.18571
3852.18571
3852.18571
3852.18571
3852.18571
3852.18571
3852.18571
3852.18571
3852.18571
3852.18571
3852.18571
3852.18571
3852.18571
3852.18571
3852.18571
3852.18571
3852.18571
3852.18571
3852.18571
3852.18571
3852.18571
3852.18571
3852.18571
3852.18571
3852.18571
3852.18571
3852.18571
3852.18571
3852.18571
3852.18571
3852.18571
3852.18571
3852.18571
3852.18571
3852.18571
)
;

boundaryField
{
    closed
    {
        type            calculated;
        value           nonuniform List<scalar> 0();
    }
    open
    {
        type            calculated;
        value           uniform 3852.18571;
    }
    sides
    {
        type            empty;
    }
    procBoundary5to4
    {
        type            processor;
        value           uniform 2919.76113;
    }
}


// ************************************************************************* //
