/*--------------------------------*- C++ -*----------------------------------*\
| =========                 |                                                 |
| \\      /  F ield         | OpenFOAM: The Open Source CFD Toolbox           |
|  \\    /   O peration     | Version:  2306                                  |
|   \\  /    A nd           | Website:  www.openfoam.com                      |
|    \\/     M anipulation  |                                                 |
\*---------------------------------------------------------------------------*/
FoamFile
{
    version     2.0;
    format      ascii;
    arch        "LSB;label=32;scalar=64";
    class       volScalarField;
    location    "0.00082";
    object      sourcePV;
}
// * * * * * * * * * * * * * * * * * * * * * * * * * * * * * * * * * * * * * //

dimensions      [1 -3 -1 0 0 0 0];

internalField   nonuniform List<scalar> 
530
(
0.442356072
2.25110552e-08
2.2525741e-08
0.486581735
0.385305411
0.0120349401
2.35101416e-08
0.260003488
0.358698954
0.146672257
2.44375123e-08
0.0248589909
0.310654262
0.215728616
2.53651439e-08
2.54083252e-08
0.270049733
0.193238138
2.63264574e-08
2.63680192e-08
0.245625022
0.16981282
2.72585513e-08
2.72963092e-08
0.220687643
0.152877926
2.81374067e-08
2.81979284e-08
0.198569216
0.140227215
2.90406655e-08
2.91326911e-08
0.183963989
0.130902929
3.00056633e-08
3.01117909e-08
0.174688675
0.122658248
3.09533753e-08
3.10703287e-08
0.165621226
0.11728451
3.18856006e-08
3.20110154e-08
0.156813936
0.11246337
3.28103161e-08
3.29375422e-08
0.148761798
0.107681537
3.37290828e-08
3.38568428e-08
0.141631494
0.103148107
3.47596513e-08
3.49111124e-08
0.136439248
0.098868105
3.58498073e-08
3.59857836e-08
0.129701542
0.0951787828
3.69295494e-08
3.70600279e-08
0.123269336
0.0904195533
3.79987083e-08
3.81201301e-08
0.117228191
0.086315479
3.9055003e-08
3.91679338e-08
0.111420965
0.0828790654
4.01324968e-08
4.02756317e-08
0.105719495
0.0795680462
4.14167461e-08
4.15394379e-08
0.100762427
0.0763698255
4.27124896e-08
4.28076308e-08
0.0946460468
0.0733406365
4.39977342e-08
4.40837711e-08
0.0886441073
0.0693817103
4.5259984e-08
4.53486536e-08
0.0841615415
0.0653472898
4.65020286e-08
4.66269773e-08
0.079970612
0.0612685696
4.80232242e-08
4.81590585e-08
0.0761072903
0.0574561763
4.95024952e-08
4.96385392e-08
0.0717678594
0.0542012801
5.09387346e-08
5.10590074e-08
0.068137386
0.0512166107
5.232566e-08
5.24385812e-08
0.0649506333
0.048123745
5.36673342e-08
5.37908474e-08
0.0619574031
0.0451407187
5.53518132e-08
5.54978625e-08
0.0587899449
0.0428141689
5.70108669e-08
5.71515082e-08
0.0553299134
0.040552255
5.85653935e-08
5.87310365e-08
0.0521366626
0.0383214114
6.00256895e-08
6.01918653e-08
0.0494011693
0.0367925664
6.1408381e-08
6.15695778e-08
0.0466867442
0.0351802761
6.29325604e-08
6.31761902e-08
0.0450848634
0.0333905986
6.46143637e-08
6.48684112e-08
0.043791695
0.0316078101
6.61955596e-08
6.64603715e-08
0.0425769996
0.0299474307
6.76987624e-08
6.79444424e-08
0.0411491425
0.0285630204
6.91469711e-08
6.93672122e-08
0.0391410725
0.0268219105
7.05072652e-08
7.07042649e-08
0.0373371036
0.024756133
7.18223733e-08
7.21272749e-08
0.0357887268
0.0226788003
7.35410084e-08
7.38363944e-08
0.0339091272
0.0208447495
7.51526875e-08
7.5417246e-08
0.0314498902
0.0191469686
7.66447838e-08
7.68735629e-08
0.02852785
0.0172486854
7.80166528e-08
7.82264921e-08
0.0255978596
0.0149620149
7.92692659e-08
7.94721326e-08
0.0226683612
0.0135767693
8.04099561e-08
8.05806959e-08
0.0197997087
0.0128971514
8.14360089e-08
8.15871389e-08
0.017625769
0.0123192335
8.25837924e-08
8.28497919e-08
0.0158373999
0.0117031274
8.45994692e-08
8.48527206e-08
0.015296559
0.0115041327
8.63175046e-08
8.66536049e-08
0.0153860109
0.0113403296
8.78923228e-08
8.82512814e-08
0.015249264
0.0113386481
8.9331435e-08
8.96794874e-08
0.0149840572
0.011342196
9.06700256e-08
9.09693881e-08
0.0144324495
0.0112361014
9.18884478e-08
9.21305995e-08
0.0138973584
0.0109125123
9.30041228e-08
9.31668116e-08
0.0132643483
0.010742624
9.39558224e-08
9.40830861e-08
0.0128161825
0.0103711041
9.47764301e-08
9.48975784e-08
0.0125287979
0.00985778605
9.54795172e-08
9.56212838e-08
0.012330723
0.00931817341
9.60902152e-08
9.62507958e-08
0.0120671447
0.00898499521
9.66077894e-08
9.67895183e-08
0.0116272891
0.00857101911
9.70640492e-08
9.72453358e-08
0.011074436
0.00818528472
9.74574307e-08
9.7628349e-08
0.0105186761
0.00783375631
9.77915034e-08
9.794573e-08
0.00990982806
0.00750920543
9.80695591e-08
9.82087803e-08
0.00939950258
0.00714606377
9.8300864e-08
9.84262217e-08
0.00883644607
0.00683322228
9.85568494e-08
9.86974151e-08
0.00826634802
0.00649218792
9.88393868e-08
9.8965636e-08
0.00776341177
0.00615533173
9.90823848e-08
9.91942345e-08
0.00724468584
0.00584100472
9.92935524e-08
9.93860476e-08
0.0067240681
0.00552487729
9.94716585e-08
9.95500703e-08
0.00625202084
0.00518089791
9.96147877e-08
9.96887502e-08
0.00584745303
0.0048291543
9.97289114e-08
9.98016207e-08
0.00547693956
0.00448854595
9.98201359e-08
9.98912216e-08
0.00511623283
0.00416153778
9.98921944e-08
9.99608157e-08
0.0047520387
0.00384290129
9.99483449e-08
1.00013552e-07
0.00436963096
0.00352548909
9.99924805e-08
1.00052395e-07
0.00393995555
0.00319553269
1.00028036e-07
1.00081861e-07
0.00341989904
0.00282721133
1.00071727e-07
1.00103084e-07
0.00258196376
0.00244023192
1.00214992e-07
1.00119398e-07
0.00147363879
0.00219211371
0.00218251536
1.0012554e-07
1.0018701e-07
0.00196129873
0.00287602924
1.00125454e-07
9.99938878e-08
0.00179919933
0.00286644855
1.0010047e-07
9.99665305e-08
0.00171091986
0.00259656037
1.00063363e-07
9.99524151e-08
0.0016318544
0.00232249208
1.0002496e-07
9.99362898e-08
0.00155830337
0.00207054157
9.99868304e-08
9.99163828e-08
0.00148226973
0.00185248038
9.99499017e-08
9.98927909e-08
0.00140876928
0.00166203977
9.99129355e-08
9.98679527e-08
0.00134627089
0.00148581385
9.98753476e-08
9.98437882e-08
0.00129781624
0.00131610113
9.98373303e-08
9.98205619e-08
0.00127466512
0.00115960084
9.97929344e-08
9.97942517e-08
0.00125409028
0.00102345923
9.9757418e-08
9.97684471e-08
0.00117914665
0.000963272076
9.97260311e-08
9.9740016e-08
0.00108963518
0.00089260068
9.97010526e-08
9.97137187e-08
0.00100552529
0.000825816168
9.96773175e-08
9.9688972e-08
0.000930548494
0.000763045017
9.96548605e-08
9.96659221e-08
0.000863193258
0.000704361648
9.96337844e-08
9.9644532e-08
0.000801361088
0.000649909362
9.9614231e-08
9.96246925e-08
0.000743618664
0.000599593086
9.95962996e-08
9.96063438e-08
0.000688984722
0.000553167187
9.9580007e-08
9.95894673e-08
0.000636842851
0.000510327527
9.9565301e-08
9.95740305e-08
0.000586879552
0.000470720457
9.95520996e-08
9.95599755e-08
0.000539019775
0.000433935505
9.9540304e-08
9.95472465e-08
0.000493352232
0.000399479081
9.95297898e-08
9.95358181e-08
0.000450009978
0.000366385447
9.95204257e-08
9.95257898e-08
0.000408581352
0.00033407572
9.9512154e-08
9.95169141e-08
0.000370118662
0.000304196166
9.95047052e-08
9.95089001e-08
0.000334495634
0.000276120639
9.9498076e-08
9.95017825e-08
0.000301536465
0.0002495826
9.94922037e-08
9.94954751e-08
0.000270828504
0.000221074294
9.94875754e-08
9.94899148e-08
0.0002420831
0.000200178056
9.94824673e-08
9.94849923e-08
0.000215031459
0.000176323655
9.94790061e-08
9.94812817e-08
0.000178664499
0.000144474414
9.9483911e-08
9.94830307e-08
0.000138707947
0.000103626895
5.80575402e-05
3.79260716e-05
7.33512229e-05
5.27127775e-05
6.14814508e-05
4.49098142e-05
5.46963095e-05
4.15055426e-05
4.69698359e-05
3.68092483e-05
3.93637106e-05
3.1570042e-05
3.19499566e-05
2.58113943e-05
2.47893149e-05
1.97497863e-05
1.78980433e-05
1.36107334e-05
1.1286036e-05
7.49360598e-06
4.92706067e-06
1.89756829e-06
9.94577382e-08
9.94561188e-08
9.94546696e-08
9.94536806e-08
9.94528675e-08
9.94523354e-08
9.94519572e-08
9.94517218e-08
9.94515829e-08
9.94515054e-08
9.94514691e-08
9.94514529e-08
9.94514482e-08
9.94514475e-08
9.94514483e-08
9.94514491e-08
9.94514497e-08
9.945145e-08
9.94514502e-08
9.94514503e-08
9.94514503e-08
9.94514503e-08
9.94514503e-08
9.94514503e-08
9.94514503e-08
9.94514503e-08
9.94514503e-08
9.94514503e-08
9.94514503e-08
9.94514503e-08
9.94514503e-08
9.94514503e-08
9.94514503e-08
9.94514503e-08
9.94514503e-08
9.94514503e-08
9.94514503e-08
9.94514503e-08
9.94514503e-08
9.94514503e-08
9.94514503e-08
9.94514503e-08
9.94514503e-08
9.94514503e-08
9.94514503e-08
9.94514503e-08
9.94514503e-08
9.94514503e-08
9.94514503e-08
9.94514503e-08
9.94514503e-08
9.94514503e-08
9.94514503e-08
)
;

boundaryField
{
    closed
    {
        type            calculated;
        value           nonuniform List<scalar> 0();
    }
    open
    {
        type            calculated;
        value           uniform 0;
    }
    sides
    {
        type            empty;
    }
    procBoundary5to4
    {
        type            processor;
        value           uniform 0;
    }
}


// ************************************************************************* //
