/*--------------------------------*- C++ -*----------------------------------*\
| =========                 |                                                 |
| \\      /  F ield         | OpenFOAM: The Open Source CFD Toolbox           |
|  \\    /   O peration     | Version:  2306                                  |
|   \\  /    A nd           | Website:  www.openfoam.com                      |
|    \\/     M anipulation  |                                                 |
\*---------------------------------------------------------------------------*/
FoamFile
{
    version     2.0;
    format      ascii;
    arch        "LSB;label=32;scalar=64";
    class       volScalarField;
    location    "0.00122";
    object      prefDPV_T;
}
// * * * * * * * * * * * * * * * * * * * * * * * * * * * * * * * * * * * * * //

dimensions      [1 -1 -1 -1 0 0 0];

internalField   nonuniform List<scalar> 
531
(
5.9176705e-10
5.89536668e-10
5.9000855e-10
6.08903948e-10
6.08623696e-10
5.92337415e-10
5.89503426e-10
5.90762344e-10
6.09344915e-10
5.91585956e-10
5.89844892e-10
6.09885805e-10
6.0848187e-10
6.0917772e-10
5.90595871e-10
5.89428872e-10
6.09541405e-10
6.08717865e-10
5.9154575e-10
5.90312155e-10
5.90076888e-10
5.90088565e-10
6.09469685e-10
6.08570481e-10
5.92948844e-10
5.90237106e-10
5.89776006e-10
5.89707217e-10
6.09982506e-10
6.08718028e-10
5.89776913e-10
5.89232624e-10
6.10333456e-10
6.08848172e-10
6.09011861e-10
6.08833593e-10
5.92468032e-10
5.89492402e-10
5.8982438e-10
6.08997933e-10
6.08924895e-10
5.91910668e-10
5.89010749e-10
5.89646331e-10
6.09895696e-10
6.08105199e-10
6.09065727e-10
5.91453102e-10
5.88339328e-10
5.91064603e-10
6.09749599e-10
5.92573683e-10
5.89664446e-10
6.09434922e-10
6.08607837e-10
5.90725042e-10
5.90381372e-10
6.09522223e-10
6.08243133e-10
5.97772952e-10
5.90711217e-10
5.89545311e-10
5.89631325e-10
6.09514586e-10
6.08268808e-10
6.08729464e-10
5.91195945e-10
5.88703503e-10
5.89183545e-10
6.09271474e-10
6.08943632e-10
5.91324834e-10
5.8927446e-10
5.89632999e-10
6.0956001e-10
6.08518379e-10
5.90431017e-10
5.89697418e-10
6.10140801e-10
6.08506041e-10
5.90272599e-10
5.90137836e-10
6.10190613e-10
6.08192674e-10
6.08891232e-10
5.93170242e-10
5.89861141e-10
5.89794365e-10
5.8979565e-10
6.099686e-10
6.08351454e-10
6.08885327e-10
5.9161033e-10
5.88914691e-10
5.89113212e-10
6.09518072e-10
6.09112264e-10
5.90872549e-10
5.88656729e-10
5.88545529e-10
6.09838523e-10
6.08899753e-10
5.90551328e-10
5.89740428e-10
6.10321791e-10
6.08595706e-10
5.90417653e-10
5.9016914e-10
6.10460314e-10
6.08256181e-10
6.08949842e-10
5.91358999e-10
5.894568e-10
5.89112787e-10
5.8913408e-10
6.10293443e-10
6.08433784e-10
6.08910211e-10
5.95516168e-10
5.89810467e-10
5.90522045e-10
6.09624913e-10
6.08387567e-10
6.08747478e-10
6.08544578e-10
5.9140912e-10
5.89363298e-10
5.8905497e-10
5.88926964e-10
6.1044403e-10
6.09206415e-10
5.90927469e-10
5.88237242e-10
5.8894985e-10
6.10191462e-10
6.08569235e-10
6.08942943e-10
5.91009312e-10
5.90206751e-10
6.10307032e-10
6.0812377e-10
6.08754732e-10
5.93182659e-10
5.89816533e-10
5.90340307e-10
5.89687692e-10
5.89505343e-10
6.10115353e-10
6.0841941e-10
6.02236829e-10
5.90561225e-10
5.89680849e-10
5.89409915e-10
6.10239403e-10
6.08694344e-10
6.08918262e-10
6.08636596e-10
5.92964311e-10
5.89765848e-10
5.89602448e-10
5.89457521e-10
6.10736485e-10
6.08771047e-10
6.09187192e-10
6.08756732e-10
5.93774862e-10
5.89651604e-10
5.90027188e-10
5.89123037e-10
5.88930562e-10
6.10646047e-10
6.08892486e-10
6.09047162e-10
6.08810208e-10
5.93906017e-10
5.89703095e-10
5.90026898e-10
5.89071002e-10
5.88833209e-10
6.10891392e-10
6.0899023e-10
6.09256575e-10
6.08924717e-10
5.9162596e-10
5.89278904e-10
5.89151288e-10
5.89063611e-10
6.11052636e-10
6.08685238e-10
6.06038971e-10
5.90362316e-10
5.90076556e-10
6.10206912e-10
6.08250147e-10
5.93224137e-10
5.90511367e-10
6.09964468e-10
6.08104533e-10
5.91371378e-10
5.90464308e-10
6.10197427e-10
6.08161633e-10
5.99270727e-10
5.90558753e-10
5.90715648e-10
5.89941478e-10
5.90444338e-10
6.09598428e-10
5.94242777e-10
5.89587371e-10
6.10287828e-10
6.08546653e-10
5.91113039e-10
5.89907191e-10
6.10276477e-10
6.08372419e-10
5.93938698e-10
5.90605235e-10
5.89836172e-10
5.89911348e-10
6.10155897e-10
6.0822147e-10
6.0890413e-10
5.93011679e-10
5.89684418e-10
5.89541043e-10
5.8945382e-10
6.10562276e-10
6.08237651e-10
6.08676718e-10
5.93168824e-10
5.89208974e-10
5.90288807e-10
6.09905675e-10
5.95345883e-10
5.89944476e-10
6.10468603e-10
6.08544211e-10
6.01356082e-10
5.90542252e-10
5.90168394e-10
5.89778294e-10
5.8951095e-10
6.10550697e-10
6.08546466e-10
6.08916189e-10
6.08479653e-10
5.92693942e-10
5.8986104e-10
5.89658826e-10
5.8955325e-10
6.10452934e-10
6.08186115e-10
6.08520062e-10
5.9441012e-10
5.89651035e-10
5.89836606e-10
6.09205304e-10
6.08658749e-10
5.92272139e-10
5.89036549e-10
5.90282083e-10
6.09827815e-10
5.9327674e-10
5.89369932e-10
6.10168005e-10
6.0871861e-10
5.90805475e-10
5.89984732e-10
6.10325517e-10
6.08718307e-10
5.90743527e-10
5.89570786e-10
6.10339482e-10
6.08853177e-10
5.97741425e-10
5.89471775e-10
5.89316165e-10
6.10312536e-10
6.0844012e-10
5.98152583e-10
5.9083864e-10
5.89977556e-10
5.90424571e-10
6.09722046e-10
5.91750167e-10
5.89433971e-10
6.10750597e-10
6.08679339e-10
6.09245159e-10
5.90474537e-10
5.88711094e-10
6.10485939e-10
6.09008986e-10
5.91922143e-10
5.89881671e-10
5.89740878e-10
5.89578384e-10
6.10962949e-10
6.08940037e-10
6.09137613e-10
6.09021486e-10
5.91574093e-10
5.88812481e-10
5.8865513e-10
6.10349677e-10
6.0904092e-10
5.90651717e-10
5.89482416e-10
6.1012184e-10
6.09052701e-10
5.92707638e-10
5.89710119e-10
5.91278862e-10
6.09669814e-10
6.08384236e-10
6.08461336e-10
5.89428152e-10
5.89217313e-10
6.11348586e-10
5.90643832e-10
5.88447092e-10
6.11494898e-10
6.09686827e-10
6.09958155e-10
6.06930911e-10
5.88437803e-10
5.886052e-10
6.10973665e-10
5.90762662e-10
5.88255007e-10
6.11625633e-10
6.09770326e-10
6.10168135e-10
6.09627389e-10
5.89096467e-10
5.88682879e-10
6.11870259e-10
5.90646303e-10
5.88045806e-10
6.11697586e-10
6.09742998e-10
6.10083623e-10
6.09498801e-10
5.89446222e-10
5.89018977e-10
6.11422421e-10
5.90707118e-10
5.89032719e-10
6.11181483e-10
6.08670127e-10
6.09288197e-10
5.95211473e-10
5.89079816e-10
5.88954751e-10
6.10051038e-10
6.09159799e-10
5.93294681e-10
5.89147431e-10
5.8900473e-10
6.10344976e-10
6.09058226e-10
6.02746016e-10
5.89084439e-10
5.89428366e-10
6.0996256e-10
5.92914396e-10
5.89028366e-10
6.10082965e-10
6.08908398e-10
5.9061335e-10
5.89639927e-10
6.10304144e-10
6.08728109e-10
5.90386216e-10
5.89847624e-10
6.10437151e-10
6.08757144e-10
5.90032172e-10
5.89773966e-10
6.10923937e-10
6.0930472e-10
6.0972386e-10
6.06965126e-10
5.8888124e-10
5.88819795e-10
6.10397969e-10
6.08948085e-10
5.92685325e-10
5.90131777e-10
5.89561742e-10
5.89544745e-10
6.10022952e-10
6.08749827e-10
5.91440102e-10
5.90094184e-10
5.93082228e-10
6.08845811e-10
6.0845312e-10
5.93242141e-10
5.88936089e-10
5.88835155e-10
6.10543095e-10
6.09139547e-10
5.89614562e-10
5.88920254e-10
6.11304481e-10
6.09223643e-10
6.10093893e-10
6.09155786e-10
6.0931093e-10
5.89518334e-10
5.88505197e-10
6.10654369e-10
6.09473712e-10
5.90158004e-10
5.8876018e-10
6.10163873e-10
6.09644644e-10
5.91428489e-10
5.88166052e-10
5.88264165e-10
6.10359743e-10
6.09153374e-10
6.09278837e-10
5.90015436e-10
5.88583251e-10
6.10069161e-10
6.09634527e-10
5.91947071e-10
5.88063623e-10
5.88273341e-10
6.10257027e-10
6.09046282e-10
6.09145609e-10
5.9002745e-10
5.88797484e-10
6.09886352e-10
6.09237852e-10
5.91598076e-10
5.89378066e-10
5.89219366e-10
6.09373917e-10
6.08866343e-10
5.91261114e-10
5.8978033e-10
6.09304635e-10
6.08848683e-10
5.93263506e-10
5.89615418e-10
5.89492165e-10
6.09168213e-10
6.0875608e-10
5.90982848e-10
5.8968099e-10
6.09193721e-10
6.089534e-10
5.92661627e-10
5.89584216e-10
5.90541963e-10
6.09525833e-10
6.08437038e-10
5.90255699e-10
5.89142049e-10
6.10538206e-10
6.09083263e-10
6.09547914e-10
5.88857177e-10
5.87963238e-10
6.10427249e-10
6.0936116e-10
5.90154977e-10
5.89774723e-10
6.096742e-10
6.08964625e-10
5.91558473e-10
5.90506444e-10
5.8895451e-10
5.89063599e-10
6.10496276e-10
6.08999156e-10
6.09828933e-10
5.90511785e-10
5.89046606e-10
6.1051663e-10
6.08910426e-10
6.09866028e-10
5.90452185e-10
5.88400284e-10
6.09940656e-10
6.09460515e-10
5.89877511e-10
5.88983907e-10
6.09676755e-10
6.0940559e-10
5.97908312e-10
5.88796795e-10
5.88624714e-10
6.09903792e-10
6.09114132e-10
5.90160411e-10
5.8940766e-10
6.10140899e-10
6.08968877e-10
5.89779358e-10
5.89670094e-10
6.10369129e-10
6.08858208e-10
6.09390233e-10
5.90209451e-10
5.88694456e-10
6.09622862e-10
6.09748583e-10
5.91930548e-10
5.87809519e-10
5.8818005e-10
6.10517014e-10
6.09261884e-10
6.09792047e-10
5.90014313e-10
5.88411473e-10
6.10413316e-10
6.09431946e-10
5.89093299e-10
5.89047928e-10
6.10769987e-10
6.09063265e-10
6.09754415e-10
5.90114912e-10
5.88838913e-10
6.09747365e-10
)
;

boundaryField
{
    closed
    {
        type            calculated;
        value           nonuniform List<scalar> 0();
    }
    open
    {
        type            calculated;
        value           nonuniform List<scalar> 0();
    }
    sides
    {
        type            empty;
    }
    procBoundary3to2
    {
        type            processor;
        value           uniform 6.08645273e-10;
    }
    procBoundary3to4
    {
        type            processor;
        value           uniform 6.09288038e-10;
    }
}


// ************************************************************************* //
