/*--------------------------------*- C++ -*----------------------------------*\
| =========                 |                                                 |
| \\      /  F ield         | OpenFOAM: The Open Source CFD Toolbox           |
|  \\    /   O peration     | Version:  2306                                  |
|   \\  /    A nd           | Website:  www.openfoam.com                      |
|    \\/     M anipulation  |                                                 |
\*---------------------------------------------------------------------------*/
FoamFile
{
    version     2.0;
    format      ascii;
    arch        "LSB;label=32;scalar=64";
    class       volScalarField;
    location    "0.00122";
    object      prefDh_T;
}
// * * * * * * * * * * * * * * * * * * * * * * * * * * * * * * * * * * * * * //

dimensions      [1 1 -3 -1 0 0 0];

internalField   nonuniform List<scalar> 
531
(
-0.000597022914
-0.000512865068
-0.000539884071
-0.00074545681
-0.000744170959
-0.000594340452
-0.000507146685
-0.000581235413
-0.00074367633
-0.000600029571
-0.000527486932
-0.000741700917
-0.000743306182
-0.000743308799
-0.000573842742
-0.000504413695
-0.000742329355
-0.000742500818
-0.00060138322
-0.000549505861
-0.000539209162
-0.000539413149
-0.000740438039
-0.000741912282
-0.000597450001
-0.000547675582
-0.000521891767
-0.000521636866
-0.000739984433
-0.000744480323
-0.000523055683
-0.000498255975
-0.000739045512
-0.000744468101
-0.000741030787
-0.000744556075
-0.000598027823
-0.000507519673
-0.000525146092
-0.000744275902
-0.000740178309
-0.000595557569
-0.000473985525
-0.000524983498
-0.000741966363
-0.000749662555
-0.000743636467
-0.000590681944
-0.000437679335
-0.000594064845
-0.000740169637
-0.00059111831
-0.000514334027
-0.000745182443
-0.000742990049
-0.000579151105
-0.000558439424
-0.000743988461
-0.000744262555
-0.000596429525
-0.000579221093
-0.000512713722
-0.000519228229
-0.000745890358
-0.000745586557
-0.000746706166
-0.000599308579
-0.000465615324
-0.000494263377
-0.000745106191
-0.000742445871
-0.000597986331
-0.000489626826
-0.000521580811
-0.000739502111
-0.000746398493
-0.000555495255
-0.000525954479
-0.000738900366
-0.000745629133
-0.000546080784
-0.000545742652
-0.000739865878
-0.000742721786
-0.00074275154
-0.00059683657
-0.000525568084
-0.000522167191
-0.000522564333
-0.000739439712
-0.000741768521
-0.000742336042
-0.000601004729
-0.000470429071
-0.000487538876
-0.000740982065
-0.000741124456
-0.000587189117
-0.000454981094
-0.00045773288
-0.000737421756
-0.000743250521
-0.000559163213
-0.000523063505
-0.000736147106
-0.000743048446
-0.000549900179
-0.000546316259
-0.000737405692
-0.000743879959
-0.000741533529
-0.000600686096
-0.000503069314
-0.000486757664
-0.000487399479
-0.000738704557
-0.000741891164
-0.000739469994
-0.000593405417
-0.000518760323
-0.000565782998
-0.000739764792
-0.000744542202
-0.000741920747
-0.000746983036
-0.000600684334
-0.000505199194
-0.000481226897
-0.000480838821
-0.000740342843
-0.000743230995
-0.000588162449
-0.000433852978
-0.000478669517
-0.000741114379
-0.000742480362
-0.000743267955
-0.000592078486
-0.000550391739
-0.000741641399
-0.000745813057
-0.000741365195
-0.000592497804
-0.00052278955
-0.000559907495
-0.000510643559
-0.000511762043
-0.000733272968
-0.000743667034
-0.000620265704
-0.000573849415
-0.00050695532
-0.000507877849
-0.000735716629
-0.000744399071
-0.000738964979
-0.000745530456
-0.000595713216
-0.000526139835
-0.000509554415
-0.000509227876
-0.000736079347
-0.000743514803
-0.000736613647
-0.000743154709
-0.000593682006
-0.000514753198
-0.000542724986
-0.000479413374
-0.000480672092
-0.000732258664
-0.000742521681
-0.000736344277
-0.000742161764
-0.000593819609
-0.000515534818
-0.00054209541
-0.000473904985
-0.000475639532
-0.000731494393
-0.000743793769
-0.000736920478
-0.000745067061
-0.000599485092
-0.000497720385
-0.000485626507
-0.000485725857
-0.000733470645
-0.000741626361
-0.000650115141
-0.000554587238
-0.000540308743
-0.000735463603
-0.000747100766
-0.000600380038
-0.000574396817
-0.000739249555
-0.000750168831
-0.000604935194
-0.000569790771
-0.000739931094
-0.000747126837
-0.000601694965
-0.000574018448
-0.000582482619
-0.000534775347
-0.000565517498
-0.000743344347
-0.000592205511
-0.000518763808
-0.000738682981
-0.000747718606
-0.000596288749
-0.000537978345
-0.0007387893
-0.000746439068
-0.000593134867
-0.000571613448
-0.000529354444
-0.000531713928
-0.000740387594
-0.000744381805
-0.000744909412
-0.000593110987
-0.000522846846
-0.000510574039
-0.000511244719
-0.000735946131
-0.000746443925
-0.000742500005
-0.000590779252
-0.00048794867
-0.000557593316
-0.000737753794
-0.000592193188
-0.000529700573
-0.000735871741
-0.000740938816
-0.000613482045
-0.000566896221
-0.000550668773
-0.000517250423
-0.000516672601
-0.000732773358
-0.000747482375
-0.000738807484
-0.000748597635
-0.000594205372
-0.000535725077
-0.000518580887
-0.00051918446
-0.000738086653
-0.000747188383
-0.000745558828
-0.000590188114
-0.000521886677
-0.000531934261
-0.000745836444
-0.000746213728
-0.000590849768
-0.000484129864
-0.000558957491
-0.000742352552
-0.000592658504
-0.000502845262
-0.000737009788
-0.000743456692
-0.000580164209
-0.000535479065
-0.000736087002
-0.000742904239
-0.000576468482
-0.000512247037
-0.000735335699
-0.000741483462
-0.000596807867
-0.00050374055
-0.000504469881
-0.00073188267
-0.000744829518
-0.000599307048
-0.000585681865
-0.000531826898
-0.000558056436
-0.000739678743
-0.000602545291
-0.000503100511
-0.000733408553
-0.000742854408
-0.000741336239
-0.000565008731
-0.000465483853
-0.000733346616
-0.000741861593
-0.000602893885
-0.000524882025
-0.000514557995
-0.000511044448
-0.000728895622
-0.000740450355
-0.000736586289
-0.000741335505
-0.000600286025
-0.000464317041
-0.000464753456
-0.000733599637
-0.00074196492
-0.00057204946
-0.000502665233
-0.000736187773
-0.00073735186
-0.000594858791
-0.00050685753
-0.000600489664
-0.00073595475
-0.000744401645
-0.000741384229
-0.000504714766
-0.000490289391
-0.000729379297
-0.000566009168
-0.000433175054
-0.000722519436
-0.0007274477
-0.000727914949
-0.000657671099
-0.00043638475
-0.000440664678
-0.000724914856
-0.0005649613
-0.00041884223
-0.000719002226
-0.000730026909
-0.000726390181
-0.000731919617
-0.000471353183
-0.000449345609
-0.000720203671
-0.000558330991
-0.000402767097
-0.000717823934
-0.000728748733
-0.000726971029
-0.00073238106
-0.000494460503
-0.000470962818
-0.000725200724
-0.000567162298
-0.000467306888
-0.000726150572
-0.000734963589
-0.000736337324
-0.000597893441
-0.000475607537
-0.000474721893
-0.000729630795
-0.000738386594
-0.000599683716
-0.000478346285
-0.000478631439
-0.000728752547
-0.000739226318
-0.000623626417
-0.000485013757
-0.000499496258
-0.000739296493
-0.000599142232
-0.000480870621
-0.000733616185
-0.000742311124
-0.000567738573
-0.000516044375
-0.000733893796
-0.000742151638
-0.000553595674
-0.000526387437
-0.000732739091
-0.000740197783
-0.000531723216
-0.000517450006
-0.000730355248
-0.00073260424
-0.00073449156
-0.000658425665
-0.000470915124
-0.000464348013
-0.000732419484
-0.000740161845
-0.000598839221
-0.00053977638
-0.000512684533
-0.000511996585
-0.000739581394
-0.000743030351
-0.000596205347
-0.000536494523
-0.000591494702
-0.000738255784
-0.000745043022
-0.00059790613
-0.000470567587
-0.000471788267
-0.000729304345
-0.000739692012
-0.000503294263
-0.000471952731
-0.000727898417
-0.000737354308
-0.000732293593
-0.000738062743
-0.000735324532
-0.000505577013
-0.000443726557
-0.000731708477
-0.000734869315
-0.000537702188
-0.000454440495
-0.000731167795
-0.00073342763
-0.000608749137
-0.000415929818
-0.000433691228
-0.000730671498
-0.000736894388
-0.000734912607
-0.000532047064
-0.000447084833
-0.000733296965
-0.000735213157
-0.000605043184
-0.000413964298
-0.000437796058
-0.000733734907
-0.000739517098
-0.000738122924
-0.000536703916
-0.000463822526
-0.000737693485
-0.000738592578
-0.000602800536
-0.000491709878
-0.000492949191
-0.000736574329
-0.000741864777
-0.000604532233
-0.000520395483
-0.000741075591
-0.000740698554
-0.000594705179
-0.000510849899
-0.000510887239
-0.000741292272
-0.000743557048
-0.000595234645
-0.0005160968
-0.000745674779
-0.000739529538
-0.00059174446
-0.000500990515
-0.000572075611
-0.000735095087
-0.000745536929
-0.000541069125
-0.00049137268
-0.000737196817
-0.000740983764
-0.000738939886
-0.000471986937
-0.000416000549
-0.000736257057
-0.000735168754
-0.000536972482
-0.000510721123
-0.000735781182
-0.000733804114
-0.000609974916
-0.00054724091
-0.000469135142
-0.000471759638
-0.000735531629
-0.000734479938
-0.000736223203
-0.000557191917
-0.000473486699
-0.000736615715
-0.000736444663
-0.000736331759
-0.000558002997
-0.000435847894
-0.000738942982
-0.000734763538
-0.000527523862
-0.000466768081
-0.000740722558
-0.00073312799
-0.000598218144
-0.000456565565
-0.000458908473
-0.000734527476
-0.000739498604
-0.000533437102
-0.000497406738
-0.000734337531
-0.000737292799
-0.000511742558
-0.00051019672
-0.00073530256
-0.000735952856
-0.000734656729
-0.000540771985
-0.000449363226
-0.000737079504
-0.000732366821
-0.00060829683
-0.000393879943
-0.000427066996
-0.000731481493
-0.000733872337
-0.000733117188
-0.000526359201
-0.000433765019
-0.000733793646
-0.000732871004
-0.000472664489
-0.000472386127
-0.000734128168
-0.000734597913
-0.000733415271
-0.000535105366
-0.000456875129
-0.000736880823
)
;

boundaryField
{
    closed
    {
        type            calculated;
        value           nonuniform List<scalar> 0();
    }
    open
    {
        type            calculated;
        value           nonuniform List<scalar> 0();
    }
    sides
    {
        type            empty;
    }
    procBoundary3to2
    {
        type            processor;
        value           uniform -0.000746464784;
    }
    procBoundary3to4
    {
        type            processor;
        value           uniform -0.000732300389;
    }
}


// ************************************************************************* //
