/*--------------------------------*- C++ -*----------------------------------*\
| =========                 |                                                 |
| \\      /  F ield         | OpenFOAM: The Open Source CFD Toolbox           |
|  \\    /   O peration     | Version:  2306                                  |
|   \\  /    A nd           | Website:  www.openfoam.com                      |
|    \\/     M anipulation  |                                                 |
\*---------------------------------------------------------------------------*/
FoamFile
{
    version     2.0;
    format      ascii;
    arch        "LSB;label=32;scalar=64";
    class       volScalarField;
    location    "0.00122";
    object      prefDZ_T;
}
// * * * * * * * * * * * * * * * * * * * * * * * * * * * * * * * * * * * * * //

dimensions      [1 -1 -1 -1 0 0 0];

internalField   nonuniform List<scalar> 
531
(
-1.19214723e-09
-1.18745852e-09
-1.18845927e-09
-1.22741271e-09
-1.22684381e-09
-1.19332085e-09
-1.18737962e-09
-1.19005479e-09
-1.22830454e-09
-1.19177324e-09
-1.18810523e-09
-1.22939868e-09
-1.22655572e-09
-1.22796547e-09
-1.18970655e-09
-1.18722498e-09
-1.22870144e-09
-1.22703311e-09
-1.19168977e-09
-1.18908529e-09
-1.18859364e-09
-1.18861734e-09
-1.22855444e-09
-1.226734e-09
-1.19457516e-09
-1.18893182e-09
-1.18795547e-09
-1.1878179e-09
-1.22959307e-09
-1.22703519e-09
-1.18795989e-09
-1.18682015e-09
-1.23030332e-09
-1.22729884e-09
-1.22762742e-09
-1.22726938e-09
-1.19358688e-09
-1.18735846e-09
-1.18805911e-09
-1.22760208e-09
-1.22745047e-09
-1.19244325e-09
-1.18632543e-09
-1.18770431e-09
-1.22941896e-09
-1.22579823e-09
-1.22773886e-09
-1.1915062e-09
-1.18490864e-09
-1.19070581e-09
-1.22912133e-09
-1.19380836e-09
-1.1877164e-09
-1.22848824e-09
-1.22681064e-09
-1.18997571e-09
-1.18924375e-09
-1.22866406e-09
-1.22607293e-09
-1.20448829e-09
-1.18994847e-09
-1.1874754e-09
-1.18766134e-09
-1.22865028e-09
-1.2261261e-09
-1.22706032e-09
-1.19097236e-09
-1.18569399e-09
-1.18671354e-09
-1.22815702e-09
-1.22749044e-09
-1.19123802e-09
-1.186885e-09
-1.18767e-09
-1.22873661e-09
-1.22663241e-09
-1.18933549e-09
-1.1878082e-09
-1.22991283e-09
-1.22660674e-09
-1.18899873e-09
-1.18872996e-09
-1.23001463e-09
-1.22596935e-09
-1.22738456e-09
-1.19503046e-09
-1.18813327e-09
-1.18799265e-09
-1.1879961e-09
-1.2295644e-09
-1.22629017e-09
-1.22737222e-09
-1.1918227e-09
-1.18612608e-09
-1.18655866e-09
-1.22865296e-09
-1.22783091e-09
-1.19028792e-09
-1.1855786e-09
-1.18536183e-09
-1.22929903e-09
-1.22740226e-09
-1.18958316e-09
-1.18788725e-09
-1.23027706e-09
-1.22678611e-09
-1.18929601e-09
-1.18879353e-09
-1.23055888e-09
-1.22609902e-09
-1.22750222e-09
-1.1913065e-09
-1.18727773e-09
-1.18655614e-09
-1.18660002e-09
-1.23022194e-09
-1.22645706e-09
-1.22742009e-09
-1.19985292e-09
-1.18801718e-09
-1.18954058e-09
-1.22886834e-09
-1.22636577e-09
-1.22709259e-09
-1.226686e-09
-1.19140949e-09
-1.18709599e-09
-1.18642894e-09
-1.18617252e-09
-1.23052855e-09
-1.22802354e-09
-1.19039918e-09
-1.18469662e-09
-1.18621359e-09
-1.23001748e-09
-1.22673198e-09
-1.22748978e-09
-1.19057106e-09
-1.18887782e-09
-1.23025212e-09
-1.22583248e-09
-1.22710679e-09
-1.19505875e-09
-1.1880382e-09
-1.18916569e-09
-1.18775466e-09
-1.18739364e-09
-1.22985616e-09
-1.22642951e-09
-1.21364576e-09
-1.18963785e-09
-1.18773305e-09
-1.18719484e-09
-1.23010973e-09
-1.22698714e-09
-1.22743595e-09
-1.22687114e-09
-1.19460805e-09
-1.18794482e-09
-1.18758231e-09
-1.18729271e-09
-1.23111728e-09
-1.22714175e-09
-1.22797868e-09
-1.22711243e-09
-1.19627479e-09
-1.18769174e-09
-1.18850294e-09
-1.1865611e-09
-1.18617935e-09
-1.23093053e-09
-1.22738689e-09
-1.22769474e-09
-1.22721988e-09
-1.19654419e-09
-1.18779608e-09
-1.1885009e-09
-1.18644569e-09
-1.18597423e-09
-1.23142697e-09
-1.22758605e-09
-1.22811952e-09
-1.22745445e-09
-1.19185578e-09
-1.18691128e-09
-1.18663059e-09
-1.18645577e-09
-1.23175552e-09
-1.22696623e-09
-1.22144011e-09
-1.18919682e-09
-1.18859551e-09
-1.23004367e-09
-1.22608963e-09
-1.19513893e-09
-1.18954034e-09
-1.22955586e-09
-1.22579732e-09
-1.19132925e-09
-1.18943569e-09
-1.23002849e-09
-1.22591034e-09
-1.20756269e-09
-1.18963336e-09
-1.1899653e-09
-1.18831407e-09
-1.18938569e-09
-1.22881788e-09
-1.19723718e-09
-1.18757276e-09
-1.23021054e-09
-1.22669085e-09
-1.19078703e-09
-1.18825329e-09
-1.23018764e-09
-1.22633675e-09
-1.19661178e-09
-1.18971972e-09
-1.18809212e-09
-1.18824711e-09
-1.22994476e-09
-1.22602915e-09
-1.2274126e-09
-1.19470704e-09
-1.18777524e-09
-1.18746215e-09
-1.18728984e-09
-1.23076416e-09
-1.22606374e-09
-1.22694975e-09
-1.19503142e-09
-1.1867507e-09
-1.18905789e-09
-1.22943539e-09
-1.19950381e-09
-1.1883085e-09
-1.23057428e-09
-1.22667992e-09
-1.21184036e-09
-1.18958336e-09
-1.18880225e-09
-1.18794973e-09
-1.18741585e-09
-1.2307378e-09
-1.22669026e-09
-1.22743161e-09
-1.22655589e-09
-1.19405349e-09
-1.18815627e-09
-1.18771465e-09
-1.18750578e-09
-1.23054455e-09
-1.22595999e-09
-1.22663508e-09
-1.19758233e-09
-1.1877066e-09
-1.18809889e-09
-1.2280236e-09
-1.22691662e-09
-1.19318896e-09
-1.18639833e-09
-1.18904781e-09
-1.22928177e-09
-1.19525195e-09
-1.18710402e-09
-1.22996624e-09
-1.22703546e-09
-1.19013771e-09
-1.18840174e-09
-1.23028455e-09
-1.22703436e-09
-1.19000585e-09
-1.18752513e-09
-1.23031216e-09
-1.22730633e-09
-1.20442325e-09
-1.18730906e-09
-1.18700043e-09
-1.23025442e-09
-1.22647249e-09
-1.20526648e-09
-1.19021699e-09
-1.18837915e-09
-1.18932867e-09
-1.22906506e-09
-1.19210904e-09
-1.18723227e-09
-1.23114343e-09
-1.22695537e-09
-1.22810035e-09
-1.18944441e-09
-1.18570888e-09
-1.23060711e-09
-1.22762233e-09
-1.19246217e-09
-1.18817262e-09
-1.18786924e-09
-1.18753761e-09
-1.23156957e-09
-1.22748139e-09
-1.22787821e-09
-1.22764719e-09
-1.1917487e-09
-1.18590915e-09
-1.18559552e-09
-1.23033124e-09
-1.22768712e-09
-1.18981301e-09
-1.18732795e-09
-1.22987195e-09
-1.22770687e-09
-1.19408121e-09
-1.18779124e-09
-1.19114197e-09
-1.22895588e-09
-1.2263589e-09
-1.22651243e-09
-1.1872242e-09
-1.18677234e-09
-1.23235146e-09
-1.18978299e-09
-1.18511571e-09
-1.23264156e-09
-1.22898262e-09
-1.22953277e-09
-1.22326792e-09
-1.18510334e-09
-1.18544703e-09
-1.2315876e-09
-1.19001669e-09
-1.18470326e-09
-1.23290318e-09
-1.22915415e-09
-1.22995681e-09
-1.22886627e-09
-1.18649138e-09
-1.18561964e-09
-1.23340002e-09
-1.18977008e-09
-1.18425356e-09
-1.23304787e-09
-1.22909761e-09
-1.22978611e-09
-1.22860617e-09
-1.18723816e-09
-1.18633565e-09
-1.2324972e-09
-1.18991142e-09
-1.18635568e-09
-1.23200985e-09
-1.22692968e-09
-1.22818306e-09
-1.19922393e-09
-1.18646682e-09
-1.18621507e-09
-1.22972253e-09
-1.22792477e-09
-1.19528432e-09
-1.18660762e-09
-1.18632312e-09
-1.23031728e-09
-1.22771974e-09
-1.21468998e-09
-1.18649582e-09
-1.18721328e-09
-1.22955204e-09
-1.1945033e-09
-1.18637506e-09
-1.22979085e-09
-1.22741894e-09
-1.18972654e-09
-1.18767134e-09
-1.23023925e-09
-1.22705355e-09
-1.18924201e-09
-1.18810819e-09
-1.2305077e-09
-1.22711064e-09
-1.18848766e-09
-1.18794155e-09
-1.23149187e-09
-1.22821317e-09
-1.22906406e-09
-1.22333792e-09
-1.18606024e-09
-1.18592384e-09
-1.23042802e-09
-1.22749743e-09
-1.19403283e-09
-1.18870415e-09
-1.18750808e-09
-1.18747268e-09
-1.22967466e-09
-1.22709833e-09
-1.19147598e-09
-1.18862187e-09
-1.19485303e-09
-1.22728853e-09
-1.22649901e-09
-1.1951775e-09
-1.18616914e-09
-1.18596998e-09
-1.23071922e-09
-1.22788491e-09
-1.18759295e-09
-1.18614036e-09
-1.23226071e-09
-1.22805319e-09
-1.22981179e-09
-1.22791635e-09
-1.22822821e-09
-1.18740591e-09
-1.18525276e-09
-1.23094689e-09
-1.22855759e-09
-1.18875163e-09
-1.18578452e-09
-1.22995255e-09
-1.2289026e-09
-1.19144289e-09
-1.18451934e-09
-1.18475022e-09
-1.23034896e-09
-1.22791042e-09
-1.22816282e-09
-1.18845506e-09
-1.1854157e-09
-1.22976259e-09
-1.22888372e-09
-1.19251202e-09
-1.18431016e-09
-1.18477674e-09
-1.23014364e-09
-1.2276958e-09
-1.22789579e-09
-1.18848954e-09
-1.18587815e-09
-1.22939618e-09
-1.22808309e-09
-1.19179638e-09
-1.18709627e-09
-1.18678215e-09
-1.22835694e-09
-1.22733335e-09
-1.19110089e-09
-1.18796075e-09
-1.22822061e-09
-1.22729653e-09
-1.19522345e-09
-1.18761101e-09
-1.18736544e-09
-1.22794441e-09
-1.22711146e-09
-1.19052651e-09
-1.18775327e-09
-1.22799999e-09
-1.22750764e-09
-1.19398866e-09
-1.18752747e-09
-1.18959531e-09
-1.22866339e-09
-1.22646687e-09
-1.1889537e-09
-1.18662448e-09
-1.23071652e-09
-1.22777203e-09
-1.22871159e-09
-1.18601439e-09
-1.18411273e-09
-1.23049084e-09
-1.22832983e-09
-1.18874396e-09
-1.18792841e-09
-1.22896461e-09
-1.22752525e-09
-1.19171047e-09
-1.1894667e-09
-1.18620301e-09
-1.18642649e-09
-1.23063005e-09
-1.22759581e-09
-1.22927852e-09
-1.18949998e-09
-1.18639607e-09
-1.23067227e-09
-1.22741782e-09
-1.22935377e-09
-1.18938341e-09
-1.18502712e-09
-1.22950734e-09
-1.22853076e-09
-1.18817026e-09
-1.18625696e-09
-1.22897424e-09
-1.228418e-09
-1.20476525e-09
-1.18586205e-09
-1.18552259e-09
-1.22942865e-09
-1.22783325e-09
-1.18874687e-09
-1.18716747e-09
-1.22990889e-09
-1.22753699e-09
-1.18793986e-09
-1.1877186e-09
-1.23037221e-09
-1.22731159e-09
-1.22838827e-09
-1.18886098e-09
-1.18564286e-09
-1.22886177e-09
-1.22911222e-09
-1.19247601e-09
-1.18376283e-09
-1.18456873e-09
-1.23066837e-09
-1.22812753e-09
-1.22920097e-09
-1.18844015e-09
-1.18504548e-09
-1.23046036e-09
-1.22847117e-09
-1.18648772e-09
-1.18639645e-09
-1.23118338e-09
-1.2277258e-09
-1.22912499e-09
-1.18866e-09
-1.18594695e-09
-1.22911384e-09
)
;

boundaryField
{
    closed
    {
        type            calculated;
        value           nonuniform List<scalar> 0();
    }
    open
    {
        type            calculated;
        value           nonuniform List<scalar> 0();
    }
    sides
    {
        type            empty;
    }
    procBoundary3to2
    {
        type            processor;
        value           uniform -1.22688954e-09;
    }
    procBoundary3to4
    {
        type            processor;
        value           uniform -1.2281791e-09;
    }
}


// ************************************************************************* //
