/*--------------------------------*- C++ -*----------------------------------*\
| =========                 |                                                 |
| \\      /  F ield         | OpenFOAM: The Open Source CFD Toolbox           |
|  \\    /   O peration     | Version:  2306                                  |
|   \\  /    A nd           | Website:  www.openfoam.com                      |
|    \\/     M anipulation  |                                                 |
\*---------------------------------------------------------------------------*/
FoamFile
{
    version     2.0;
    format      ascii;
    arch        "LSB;label=32;scalar=64";
    class       volScalarField;
    location    "0.00122";
    object      rho;
}
// * * * * * * * * * * * * * * * * * * * * * * * * * * * * * * * * * * * * * //

dimensions      [1 -3 0 0 0 0 0];

internalField   nonuniform List<scalar> 
531
(
0.938725651
0.955081256
0.950099391
0.902483712
0.902735831
0.938585544
0.956172738
0.94246482
0.902709186
0.938479121
0.952413245
0.902958181
0.902882783
0.902783346
0.943783613
0.95663577
0.902892746
0.902976476
0.938326587
0.948413272
0.950257873
0.950225797
0.903208055
0.903083889
0.937675229
0.948698746
0.953434773
0.953425502
0.903199932
0.90262031
0.953195048
0.957662779
0.903298712
0.902595436
0.90314714
0.902578274
0.937962916
0.956023403
0.952801601
0.902594324
0.903289857
0.938701505
0.962224388
0.9526687
0.902845796
0.901802946
0.902678229
0.939654261
0.968803255
0.939545801
0.903156536
0.938693531
0.95478351
0.902353897
0.902835103
0.942750344
0.946603018
0.902534272
0.902664217
0.933788128
0.942710649
0.954989266
0.95376529
0.902204067
0.902426449
0.902172758
0.938760334
0.963597619
0.958332575
0.902357049
0.902846895
0.938809026
0.959297302
0.953273418
0.903246549
0.902232678
0.947201498
0.952447965
0.903257599
0.902355582
0.948933503
0.948874287
0.903080824
0.902878781
0.902775432
0.9374447
0.952648861
0.953265861
0.953186227
0.903170815
0.903003593
0.902832602
0.938167826
0.962744722
0.959546758
0.902964483
0.902995725
0.941180895
0.965559709
0.964961698
0.903510163
0.902662061
0.946532151
0.953015776
0.903651543
0.902734235
0.948259432
0.948747147
0.903417639
0.90263943
0.902936798
0.938387175
0.956736896
0.95968318
0.959573694
0.903220158
0.902945535
0.903285739
0.935925444
0.9539184
0.945158322
0.903136289
0.902507089
0.902896986
0.902076113
0.938344408
0.956241055
0.960718537
0.960705967
0.902928892
0.902620576
0.941036859
0.969374471
0.96115851
0.902844042
0.90284399
0.902661736
0.940340042
0.947983949
0.902750961
0.902358805
0.903019982
0.93796183
0.953164929
0.946206758
0.955466372
0.955105373
0.904202569
0.902696745
0.927126752
0.943610925
0.956197483
0.955809717
0.903790445
0.902552746
0.903436397
0.902377088
0.937786219
0.952498228
0.955654595
0.955608551
0.903685967
0.90271893
0.903823303
0.902789224
0.937413731
0.954696922
0.949448784
0.961238956
0.960866855
0.904379257
0.90290668
0.903925803
0.902986168
0.937330296
0.954623638
0.94961473
0.962311781
0.961822454
0.904509947
0.902716781
0.903837044
0.902519941
0.938505253
0.957845136
0.960126401
0.960050266
0.904187739
0.903156702
0.920404856
0.947483587
0.950088678
0.90399654
0.902321192
0.937168314
0.943633309
0.903413124
0.901845141
0.93810792
0.944545093
0.903283941
0.902365646
0.93207921
0.943801358
0.942243245
0.951142284
0.945430399
0.902828621
0.93741181
0.954049311
0.903528207
0.902260837
0.939895208
0.95050917
0.903532543
0.902520676
0.937587624
0.944416266
0.952202883
0.951804171
0.903308643
0.90291195
0.902731967
0.938368756
0.953394373
0.955717781
0.955519575
0.904030406
0.902598124
0.903203142
0.938561112
0.959941221
0.947008377
0.903844547
0.9366396
0.952302582
0.904092283
0.90351457
0.929063227
0.945404557
0.948320642
0.954652731
0.954549833
0.904629185
0.902444478
0.903852513
0.902274209
0.938594003
0.95107702
0.954330145
0.954125216
0.90377721
0.902570223
0.902800649
0.937719445
0.953681606
0.951839846
0.902670657
0.902686006
0.93938031
0.960673162
0.946827979
0.903180395
0.938360884
0.957253263
0.904036591
0.903159092
0.943070496
0.951293439
0.904177598
0.903260142
0.943766718
0.95557197
0.904310035
0.903487873
0.934230885
0.957180498
0.956917034
0.904902845
0.902991264
0.933598244
0.942002585
0.952040356
0.947194668
0.903682455
0.938410684
0.957289459
0.90459254
0.903297337
0.903473336
0.945846064
0.964141219
0.904644945
0.903421321
0.938234749
0.953345792
0.955272475
0.955837293
0.905321845
0.903664366
0.904284604
0.903501837
0.938826101
0.964418063
0.964233195
0.904615114
0.903393341
0.944588587
0.957408635
0.904210848
0.904164588
0.938583834
0.956753494
0.939034739
0.904310368
0.903070296
0.903564924
0.956950668
0.959628714
0.905169894
0.945793532
0.970168331
0.906303351
0.905729816
0.905612209
0.919098038
0.969548569
0.968816243
0.905964815
0.946105423
0.972770588
0.906857754
0.905262985
0.905815442
0.904958554
0.963191729
0.967173832
0.906601461
0.947295424
0.975670272
0.90701814
0.905453867
0.905701591
0.90487072
0.958912438
0.963185593
0.905795132
0.945548602
0.963885717
0.905658071
0.904525045
0.904203567
0.936087339
0.962287827
0.962373263
0.905211572
0.903861478
0.937400024
0.96178612
0.961632421
0.90530541
0.903723516
0.92665972
0.960437707
0.957846751
0.90357275
0.937747978
0.961194019
0.904500162
0.903200701
0.94526105
0.954723788
0.90440722
0.90323735
0.947876073
0.952827343
0.904566544
0.903545169
0.951911018
0.954520313
0.904881279
0.904727709
0.904347896
0.918754285
0.962959706
0.964186648
0.904582341
0.903480644
0.937874737
0.95034172
0.955238891
0.955356666
0.90340414
0.902999042
0.939165793
0.950934632
0.938416744
0.903769604
0.902680444
0.937490963
0.962984104
0.962677422
0.905011539
0.903458489
0.957057753
0.96267837
0.905118361
0.903819117
0.904542273
0.903699869
0.904133212
0.956507382
0.967834156
0.904539231
0.904168753
0.950648577
0.965898762
0.904677511
0.9043655
0.937539004
0.972894078
0.969571687
0.904708581
0.903827848
0.904138628
0.951603848
0.967161552
0.904287896
0.904021262
0.937500477
0.973171064
0.968743041
0.90416196
0.903356642
0.90357252
0.950629362
0.964015266
0.903527276
0.903464254
0.938010373
0.958974425
0.958616403
0.903767429
0.902945792
0.938097125
0.953621519
0.903005182
0.903128128
0.937630675
0.955359685
0.955251007
0.902966674
0.902639779
0.939650835
0.954351625
0.902211503
0.903271994
0.938436837
0.957229099
0.94388877
0.903921722
0.902317331
0.949849996
0.958771209
0.903410831
0.902976805
0.903251088
0.96234287
0.972578329
0.903567071
0.903897279
0.950544984
0.955415477
0.903742292
0.904170416
0.937018419
0.94879602
0.962927706
0.962486557
0.903649916
0.904034088
0.903622606
0.946795489
0.962123796
0.903450553
0.903702296
0.903584858
0.946563167
0.968961458
0.903129601
0.903895988
0.952126712
0.96335644
0.902858006
0.90416883
0.933254589
0.96519764
0.964644616
0.90385286
0.903125991
0.951167914
0.957667794
0.903840196
0.903505513
0.955126996
0.955344685
0.90363538
0.903735747
0.903876981
0.949729137
0.96647746
0.90343074
0.904202238
0.936825615
0.976538134
0.970449376
0.904234749
0.904008104
0.904059018
0.952399415
0.969279098
0.903851716
0.904143842
0.962212839
0.962237328
0.903740118
0.903900783
0.904001723
0.950738746
0.965086867
0.903416421
)
;

boundaryField
{
    closed
    {
        type            calculated;
        value           nonuniform List<scalar> 0();
    }
    open
    {
        type            calculated;
        value           nonuniform List<scalar> 0();
    }
    sides
    {
        type            empty;
    }
    procBoundary3to2
    {
        type            processor;
        value           uniform 0.902360287;
    }
    procBoundary3to4
    {
        type            processor;
        value           uniform 0.904249063;
    }
}


// ************************************************************************* //
