/*--------------------------------*- C++ -*----------------------------------*\
| =========                 |                                                 |
| \\      /  F ield         | OpenFOAM: The Open Source CFD Toolbox           |
|  \\    /   O peration     | Version:  2306                                  |
|   \\  /    A nd           | Website:  www.openfoam.com                      |
|    \\/     M anipulation  |                                                 |
\*---------------------------------------------------------------------------*/
FoamFile
{
    version     2.0;
    format      ascii;
    arch        "LSB;label=32;scalar=64";
    class       volScalarField;
    location    "0.00072";
    object      prefDh_H2O;
}
// * * * * * * * * * * * * * * * * * * * * * * * * * * * * * * * * * * * * * //

dimensions      [1 1 -3 0 0 0 0];

internalField   nonuniform List<scalar> 
530
(
90.3933856
89.8301472
89.8185451
89.8195012
89.8195736
89.8195747
89.8195748
89.8195748
89.8195748
89.8195748
89.8195748
89.8195748
89.8195748
89.8195748
89.8195748
89.8195748
89.8195748
89.8195748
89.8195748
89.8195748
89.8195748
89.8195748
89.8195748
89.8195748
89.8195748
89.8195748
89.8195748
89.8195748
89.8195748
89.8195748
89.8195748
89.8195748
89.8195748
89.8195748
89.8195748
89.8195748
89.8195748
89.8195748
89.8195748
89.8195748
89.8195748
89.8195748
89.8195748
89.8195748
89.8195748
89.8195748
89.8195748
89.8195748
89.8195748
89.8195748
89.8195748
89.8195748
89.8195748
89.8195748
89.8195748
89.8195748
89.8195748
89.8195748
89.8195748
89.8195748
89.8195748
89.8195748
89.8195748
89.8195748
89.8195748
89.8195748
89.8195748
89.8195748
89.8195748
89.8195748
89.8195748
89.8195748
89.8195748
89.8195747
89.8195748
89.8195747
89.8195735
89.8195753
89.819579
89.8195638
89.8195463
89.8195866
89.8196483
89.8195892
89.8192501
89.8192731
89.8190012
89.8189347
89.8206902
89.832309
89.8404076
89.7794427
89.6489265
89.6934529
90.1900198
90.3900327
89.7645197
88.3128286
88.2234647
89.2608081
92.4282592
92.4262936
92.0214507
88.2178625
87.9988383
88.0282992
88.1373658
89.5986507
92.4100807
92.3770868
92.36066
88.2814829
87.8981383
88.0558591
89.6549759
92.4011437
92.3616653
92.4435047
88.3483858
87.9778379
88.0523285
88.9999734
92.7662751
93.0423167
88.5371309
88.7175239
92.9878418
92.7794622
88.1091461
87.846715
88.7501071
92.8575907
92.8188422
88.3258659
88.5186703
92.9339225
92.6239151
88.2637493
88.4760113
92.9314283
92.5216698
88.2323402
88.4493223
92.9059672
92.5218089
88.2155747
88.4193007
92.8471183
92.6858509
88.2335779
88.4319164
92.7950635
92.7652197
88.249739
88.465013
92.8063146
92.8432346
88.0185337
87.7849223
88.6706403
92.7262929
92.9873091
88.2736268
88.4739051
92.7467728
92.9290614
87.9975756
87.7558693
88.6223003
92.7186229
92.9222026
88.2085075
88.406018
92.6948657
92.7277965
88.1469774
88.3601964
92.6872932
92.7558319
88.141558
88.351628
92.6652532
92.8663648
88.1533042
88.3591156
92.6498706
92.9399408
88.1595458
88.3591313
92.656415
92.9206463
87.9687971
87.7230944
88.5417324
92.6660288
92.9649888
88.1979618
88.3589103
92.6088718
92.9254607
88.1847164
88.3490342
92.6148333
92.6881007
88.0303574
87.7593355
88.5479881
92.6455611
92.8107904
88.2130319
88.327657
92.6223889
92.6537088
88.0262845
87.7151437
88.4243993
92.6909187
92.8247687
88.1636476
88.27055
92.6553735
92.8423017
88.1253908
88.2530372
92.6632586
92.7690155
88.1466517
88.2556675
92.6661828
92.7539619
88.1463988
88.2271442
92.7201126
92.5996071
88.0891862
87.6838094
88.2533859
92.7760191
92.7449622
88.1734557
88.1778082
92.8370502
92.6858272
88.1926068
88.1898487
92.8699528
92.6245767
88.2301774
88.1842901
92.9427282
92.5393156
88.251323
87.6896689
88.1021113
92.8193051
92.5038388
88.4241262
88.1830202
93.0503619
92.469673
88.4422534
88.1975453
93.0601216
92.4521009
88.5879047
87.8093754
88.1461663
92.7850371
92.3314647
88.8923591
88.3669272
93.0289746
92.3695459
88.7898216
87.9667467
88.073898
87.9990668
88.187497
92.7324095
92.3759458
88.8424859
87.8248371
88.1035783
92.7675787
92.2898378
88.8115767
88.2410086
93.0027429
92.2691959
88.8832798
88.4090465
92.9082969
92.3077275
88.8177778
87.9334702
88.0233198
88.0207709
87.9718791
88.2299179
92.7901782
92.1827554
92.3350892
88.5942668
88.2271597
92.8199747
92.2936711
88.4655911
88.1845881
92.7490185
92.3613449
88.5533858
87.7611714
88.0811511
92.5574511
92.3570422
88.54101
87.7334156
88.0624526
92.533116
92.276769
88.3830277
88.1537367
92.5423365
92.3461311
88.5121661
87.8145012
88.1780343
92.4348506
92.3249269
88.6670779
87.8507485
88.2340549
92.3991444
92.3053079
88.7520154
87.9265554
88.3869561
92.3706931
92.2738823
88.875896
88.0043342
87.9864098
88.208256
92.3672527
92.3472012
88.6619478
87.8306798
88.1428202
92.3879935
92.3548178
88.5850831
87.7740629
88.0510098
92.4158295
92.276054
88.3184873
88.1182027
92.458906
92.2671104
88.2530074
88.1358513
92.4369834
92.3440525
88.5095504
87.7703619
88.0407253
92.3962005
92.3448393
88.5650996
87.737438
88.005055
92.4347952
92.2624313
88.2450818
88.0713866
92.4147234
92.3387792
88.5281593
87.7768333
88.0243464
92.4367423
92.2608229
88.2686815
88.0915211
92.4172139
92.3308498
88.6459866
87.7988989
88.0385992
92.4028423
92.3385718
88.714532
87.7601678
88.0029343
92.4058017
92.3637726
88.6408653
87.7380597
87.9678856
92.4704336
92.3056943
88.2061075
88.0175812
92.5208464
92.3109798
88.1566285
88.0609421
92.4858968
92.3893447
88.5530064
87.7333265
87.9328704
92.485889
92.3363488
88.1607916
87.9807905
92.5431372
92.3324801
88.1258144
88.0410061
92.4974797
92.3919465
88.6223847
87.7579768
87.9400835
92.4714776
92.3347179
88.1401036
87.9921592
92.4825601
92.3912343
88.6461139
87.7587728
87.9275608
92.4668707
92.3308155
88.1356815
87.9747379
92.4717709
92.3971629
88.6208925
87.7265411
87.8737522
92.4789663
92.3350458
88.1405917
87.9288227
92.5446824
92.3246223
88.1137205
87.9819487
92.5362095
92.3273158
88.097134
88.0033381
92.4659885
92.3925824
88.6933864
87.7465291
87.862998
92.4298314
92.3276859
88.1774829
88.0003302
92.416625
92.3633003
88.747328
87.7633502
87.9105659
92.3805232
92.3766125
88.8714336
87.7540339
87.8573984
92.4035746
92.2938309
88.2439162
88.0479908
92.3643951
92.332722
88.8026098
87.7842517
87.8695093
92.4065664
92.2854617
88.2834653
88.0732515
92.3823391
92.317674
88.8965002
87.7923981
87.8659786
92.3818801
92.4136815
88.6914606
87.56495
87.6786316
92.6114658
92.3695656
92.4607108
92.3164499
90.132478
88.0859648
88.0841872
88.0429163
87.8572785
87.846011
92.4885667
92.2605101
88.5670833
88.2407137
92.4555043
92.246474
89.4500324
87.9616502
87.9733439
92.4162745
92.2618833
89.6469319
88.032944
87.8886322
87.8569714
92.574521
92.2574811
88.4062701
88.1227591
92.5305246
92.267524
89.2904056
87.8788787
)
;

boundaryField
{
    closed
    {
        type            calculated;
        value           uniform 120.162303;
    }
    open
    {
        type            calculated;
        value           nonuniform List<scalar> 0();
    }
    sides
    {
        type            empty;
    }
    procBoundary0to1
    {
        type            processor;
        value           uniform 87.8908015;
    }
}


// ************************************************************************* //
