/*--------------------------------*- C++ -*----------------------------------*\
| =========                 |                                                 |
| \\      /  F ield         | OpenFOAM: The Open Source CFD Toolbox           |
|  \\    /   O peration     | Version:  2306                                  |
|   \\  /    A nd           | Website:  www.openfoam.com                      |
|    \\/     M anipulation  |                                                 |
\*---------------------------------------------------------------------------*/
FoamFile
{
    version     2.0;
    format      ascii;
    arch        "LSB;label=32;scalar=64";
    class       volScalarField;
    location    "0.00072";
    object      PV;
}
// * * * * * * * * * * * * * * * * * * * * * * * * * * * * * * * * * * * * * //

dimensions      [0 0 0 0 0 0 0];

internalField   nonuniform List<scalar> 
530
(
-0.00715744377
-0.00712255894
-0.00711128683
-0.00711106555
-0.00711104524
-0.00711104469
-0.00711104467
-0.00711104449
-0.00711104445
-0.0071110442
-0.00711104415
-0.00711104425
-0.00711104411
-0.00711104404
-0.00711104384
-0.00711104364
-0.00711104363
-0.00711104354
-0.00711104355
-0.00711104349
-0.00711104312
-0.00711104264
-0.00711104259
-0.00711104303
-0.00711104321
-0.00711104213
-0.00711104183
-0.00711104298
-0.00711104411
-0.00711104408
-0.00711104415
-0.00711104405
-0.00711104445
-0.00711104457
-0.00711104475
-0.00711104487
-0.00711104529
-0.00711104504
-0.0071110448
-0.00711104413
-0.00711104353
-0.00711104289
-0.00711104263
-0.00711104282
-0.00711104306
-0.00711104339
-0.00711104333
-0.00711104333
-0.00711104356
-0.00711104351
-0.00711104367
-0.00711104378
-0.00711104374
-0.0071110439
-0.00711104365
-0.00711104367
-0.00711104339
-0.00711104299
-0.00711104252
-0.00711104211
-0.00711104154
-0.00711104115
-0.00711104111
-0.00711104095
-0.00711104092
-0.00711104089
-0.00711104095
-0.00711104093
-0.00711104099
-0.00711104108
-0.00711104117
-0.00711104126
-0.00711104143
-0.00711104164
-0.00711104184
-0.0071110421
-0.00711104248
-0.0071110429
-0.00711104361
-0.00711104558
-0.00711104937
-0.00711105271
-0.00711105855
-0.00711107259
-0.00711111313
-0.00711115287
-0.00711123141
-0.00711132418
-0.00711133559
-0.0071110319
-0.00711085496
-0.00711368119
-0.00711949141
-0.00711791428
-0.00709772042
-0.0070900041
-0.0071152635
-0.00718432484
-0.00719289578
-0.0071346093
-0.00698716738
-0.00698712373
-0.00703617192
-0.00718910767
-0.00721888595
-0.00720498969
-0.00720275452
-0.00712153028
-0.00698817974
-0.00698558972
-0.00702596611
-0.00718479913
-0.00722779399
-0.00720542841
-0.00712071316
-0.0069889613
-0.00698585859
-0.00702401218
-0.00718284568
-0.00722364179
-0.00721279841
-0.00715315648
-0.00699618961
-0.00700715039
-0.00718217721
-0.00717117586
-0.00700250177
-0.00701435171
-0.00720951548
-0.00724076333
-0.00716228124
-0.0069993818
-0.00701307784
-0.0071974269
-0.00718083283
-0.00700029698
-0.00701888764
-0.00720348451
-0.00718255292
-0.00700020239
-0.00702184281
-0.00720693628
-0.00718389386
-0.00699940242
-0.00702192237
-0.00720895186
-0.00718630414
-0.00699759636
-0.00701745193
-0.00720749199
-0.00718683684
-0.00699611642
-0.00701522546
-0.00720643973
-0.00718583617
-0.00699600814
-0.00701300937
-0.00721861074
-0.00724723606
-0.00716929269
-0.00699607951
-0.00700840022
-0.00720548298
-0.00718625312
-0.0069941894
-0.00701044119
-0.00721971851
-0.00724977274
-0.00717199442
-0.00699577358
-0.00701014704
-0.00721111602
-0.00718888566
-0.00699341652
-0.00701604363
-0.00721501674
-0.00719134688
-0.00699326445
-0.00701545428
-0.00721484765
-0.00719261754
-0.00699288604
-0.00701254495
-0.00721304716
-0.00719319701
-0.00699266572
-0.00701054196
-0.00721174647
-0.00719571393
-0.00699197368
-0.00700054233
-0.00721933247
-0.00725214154
-0.00717817893
-0.00699526892
-0.0069999862
-0.00720810731
-0.00719660584
-0.00699243524
-0.00700045022
-0.00720693575
-0.00719924085
-0.00699165145
-0.0069924964
-0.00721257102
-0.00724861043
-0.00717878448
-0.00699581544
-0.00699485061
-0.00720463118
-0.00720108817
-0.00699222626
-0.00699143468
-0.00721107511
-0.00725171277
-0.00718524869
-0.00699694359
-0.00699495619
-0.00720856073
-0.00720551002
-0.00699456206
-0.00699730715
-0.00721072038
-0.00720775697
-0.00699477572
-0.00699485023
-0.00720853393
-0.00720792514
-0.0069949614
-0.00699480791
-0.00720778821
-0.00720918754
-0.00699540055
-0.00699059058
-0.00720166897
-0.00725281336
-0.0071976412
-0.00699911332
-0.00699239105
-0.00720491832
-0.00721180133
-0.00700064362
-0.00699211382
-0.00720139733
-0.00721047196
-0.00700200585
-0.00699069263
-0.00719669808
-0.00720879584
-0.00700291328
-0.00698907512
-0.00718634436
-0.00724996664
-0.00720980783
-0.00700074501
-0.00698544214
-0.00718337748
-0.00720457583
-0.00700781251
-0.00698636172
-0.00718255313
-0.00720258464
-0.00700697588
-0.00698772536
-0.00717033838
-0.00723754864
-0.00720233157
-0.00700094883
-0.0069820305
-0.00715959307
-0.00718501037
-0.00700679341
-0.0069852842
-0.00716098119
-0.00721959478
-0.00720539059
-0.0072190418
-0.00719951186
-0.00699654698
-0.00698378912
-0.00715606082
-0.00723214434
-0.00720318016
-0.00699923857
-0.00698067317
-0.00716317834
-0.00718910391
-0.00700576099
-0.00698216184
-0.00716032247
-0.00718081664
-0.00700240768
-0.00698345761
-0.00716010908
-0.00721653576
-0.00721034684
-0.00720848803
-0.00722128716
-0.00719039166
-0.00699873463
-0.00698397448
-0.0069840453
-0.00717205924
-0.00719469861
-0.00699810416
-0.00698350399
-0.00718226061
-0.00719769415
-0.0069947901
-0.00698651364
-0.00717327921
-0.00723715911
-0.00720434002
-0.00699012869
-0.0069843669
-0.00717315054
-0.00723839544
-0.00720372545
-0.00699018492
-0.00698098946
-0.00718594813
-0.00719761781
-0.00698682031
-0.00698607882
-0.00717542797
-0.00723169847
-0.00719438108
-0.0069866444
-0.00698439742
-0.00716701762
-0.00722693484
-0.00718888449
-0.00698564824
-0.00698433986
-0.00716268893
-0.00722075779
-0.00718003797
-0.00698617731
-0.00698319304
-0.00715893344
-0.00721038154
-0.00721447699
-0.00719502593
-0.00698380252
-0.00698644112
-0.00716654892
-0.00722861
-0.00719704853
-0.0069848254
-0.00698586185
-0.0071711023
-0.00723377002
-0.00720330941
-0.00698701267
-0.00698256776
-0.00719008701
-0.0071979012
-0.0069861122
-0.00698362723
-0.00719560056
-0.00719991709
-0.00698470642
-0.00698754383
-0.00717622718
-0.00723400496
-0.00720701513
-0.00698546118
-0.00698630088
-0.00717241501
-0.00723637086
-0.00720737409
-0.00698758454
-0.00698261173
-0.00719413913
-0.00720476516
-0.0069837638
-0.00698756459
-0.00717484842
-0.00723513264
-0.00720688912
-0.00698847674
-0.00698302027
-0.00719254522
-0.00720368253
-0.00698442676
-0.006987546
-0.007169507
-0.00723182938
-0.0072086674
-0.00698613997
-0.0069867687
-0.00716581795
-0.00723330025
-0.00721161688
-0.00698558914
-0.00698747032
-0.00716887791
-0.00723773902
-0.00721229745
-0.00698944745
-0.00698378545
-0.00719973424
-0.00720925542
-0.00698899158
-0.00698537588
-0.00720305424
-0.00720923339
-0.00698669535
-0.00698961365
-0.00717476949
-0.00724044316
-0.00721685686
-0.006990577
-0.00698477163
-0.00720355855
-0.00721319614
-0.00698996728
-0.00698602172
-0.0072054274
-0.00721135013
-0.00698715289
-0.00698993617
-0.00717145622
-0.00723825362
-0.00721664656
-0.00699008819
-0.0069851473
-0.007202309
-0.00721425714
-0.00698617
-0.00698976904
-0.00716983773
-0.00723789615
-0.00721748772
-0.00698985624
-0.00698532039
-0.0072022272
-0.0072155929
-0.00698576672
-0.00699004756
-0.00717081447
-0.0072407368
-0.00722138611
-0.0069905429
-0.00698550128
-0.00720525948
-0.00721637825
-0.00699007301
-0.00698611257
-0.00720850633
-0.00721316191
-0.00699023343
-0.00698692511
-0.00720752714
-0.00721388864
-0.00698623262
-0.00699038126
-0.00716735981
-0.0072380118
-0.0072216984
-0.00698822786
-0.00698588592
-0.00719827144
-0.00721184141
-0.00698354741
-0.00698842586
-0.00716435225
-0.0072337149
-0.00721999187
-0.00698507658
-0.00698912486
-0.00715739772
-0.00723504874
-0.00722018976
-0.00698660277
-0.00698525146
-0.0071923101
-0.00720790106
-0.00698210183
-0.00698830498
-0.00716092629
-0.00723318464
-0.00721997269
-0.00698716896
-0.0069855706
-0.00719052259
-0.00720568781
-0.00698320648
-0.00698771314
-0.0071578694
-0.00723040358
-0.00722439754
-0.00698485652
-0.00699001067
-0.00716659079
-0.00725231313
-0.0072360719
-0.00698976305
-0.00698792596
-0.00699137322
-0.00698683555
-0.00710362885
-0.00720403518
-0.00720878586
-0.00720804328
-0.00722776991
-0.00722212953
-0.00698789573
-0.00698496126
-0.00717627666
-0.00719028393
-0.00698539981
-0.00698629523
-0.00713125342
-0.00721651535
-0.00721290083
-0.00698697704
-0.00698560787
-0.00712363439
-0.00720495596
-0.0072251356
-0.00721808377
-0.00698897617
-0.00698383163
-0.00718485764
-0.0071986943
-0.00698697988
-0.00698591794
-0.00713859443
-0.0072214768
)
;

boundaryField
{
    closed
    {
        type            zeroGradient;
    }
    open
    {
        type            zeroGradient;
    }
    sides
    {
        type            empty;
    }
    procBoundary0to1
    {
        type            processor;
        value           uniform -0.00721998732;
    }
}


// ************************************************************************* //
