/*--------------------------------*- C++ -*----------------------------------*\
| =========                 |                                                 |
| \\      /  F ield         | OpenFOAM: The Open Source CFD Toolbox           |
|  \\    /   O peration     | Version:  2306                                  |
|   \\  /    A nd           | Website:  www.openfoam.com                      |
|    \\/     M anipulation  |                                                 |
\*---------------------------------------------------------------------------*/
FoamFile
{
    version     2.0;
    format      ascii;
    arch        "LSB;label=32;scalar=64";
    class       volScalarField;
    location    "0.00018";
    object      prefDZ_H2;
}
// * * * * * * * * * * * * * * * * * * * * * * * * * * * * * * * * * * * * * //

dimensions      [1 -1 -1 0 0 0 0];

internalField   nonuniform List<scalar> 
530
(
6.23305239e-05
6.23304631e-05
6.23304151e-05
6.23304468e-05
6.23304872e-05
6.23304734e-05
6.23304446e-05
6.23304493e-05
6.23304673e-05
6.23304666e-05
6.23304563e-05
6.23304559e-05
6.23304607e-05
6.23304619e-05
6.23304599e-05
6.23304584e-05
6.23304592e-05
6.23304606e-05
6.23304603e-05
6.23304593e-05
6.23304594e-05
6.23304601e-05
6.23304599e-05
6.23304594e-05
6.23304597e-05
6.23304601e-05
6.23304598e-05
6.23304593e-05
6.23304598e-05
6.23304602e-05
6.23304595e-05
6.23304592e-05
6.23304602e-05
6.23304605e-05
6.2330459e-05
6.23304587e-05
6.23304608e-05
6.23304611e-05
6.23304584e-05
6.23304579e-05
6.23304613e-05
6.23304622e-05
6.23304582e-05
6.23304568e-05
6.23304608e-05
6.23304629e-05
6.23304596e-05
6.23304567e-05
6.23304588e-05
6.23304622e-05
6.23304617e-05
6.23304582e-05
6.23304578e-05
6.23304595e-05
6.23304613e-05
6.23304612e-05
6.23304592e-05
6.23304579e-05
6.23304587e-05
6.23304617e-05
6.23304617e-05
6.23304586e-05
6.23304576e-05
6.23304595e-05
6.23304616e-05
6.23304611e-05
6.23304586e-05
6.23304583e-05
6.23304599e-05
6.23304608e-05
6.23304601e-05
6.23304591e-05
6.23304596e-05
6.23304602e-05
6.23304596e-05
6.2330459e-05
6.23304601e-05
6.23304611e-05
6.23304594e-05
6.23304579e-05
6.23304598e-05
6.23304622e-05
6.23304602e-05
6.23304569e-05
6.23304586e-05
6.2330463e-05
6.2330462e-05
6.23304563e-05
6.23304565e-05
6.23304627e-05
6.23304637e-05
6.23304581e-05
6.23304554e-05
6.23304596e-05
6.2330464e-05
6.23304619e-05
6.23304561e-05
6.23304565e-05
6.23304621e-05
6.2330463e-05
6.2330459e-05
6.2330457e-05
6.23304594e-05
6.23304616e-05
6.23304605e-05
6.23304588e-05
6.23304592e-05
6.23304599e-05
6.23304598e-05
6.233046e-05
6.23304604e-05
6.23304594e-05
6.23304584e-05
6.233046e-05
6.23304618e-05
6.23304597e-05
6.23304571e-05
6.23304594e-05
6.23304633e-05
6.23304608e-05
6.23304553e-05
6.23304572e-05
6.2330465e-05
6.23304643e-05
6.23304541e-05
6.23304537e-05
6.23304641e-05
6.23304668e-05
6.23304577e-05
6.23304524e-05
6.23304592e-05
6.23304664e-05
6.23304625e-05
6.23304545e-05
6.23304559e-05
6.23304633e-05
6.23304631e-05
6.23304581e-05
6.23304577e-05
6.23304603e-05
6.23304606e-05
6.23304595e-05
6.23304595e-05
6.23304604e-05
6.23304599e-05
6.23304588e-05
6.2330459e-05
6.23304608e-05
6.2330461e-05
6.23304596e-05
6.23304583e-05
6.23304587e-05
6.23304612e-05
6.23304614e-05
6.2330459e-05
6.2330458e-05
6.23304599e-05
6.23304611e-05
6.23304599e-05
6.23304589e-05
6.23304599e-05
6.23304601e-05
6.23304589e-05
6.23304593e-05
6.23304616e-05
6.2330461e-05
6.23304569e-05
6.23304572e-05
6.23304632e-05
6.23304634e-05
6.23304569e-05
6.23304553e-05
6.23304613e-05
6.23304645e-05
6.233046e-05
6.23304551e-05
6.23304573e-05
6.23304638e-05
6.23304636e-05
6.23304576e-05
6.23304556e-05
6.23304587e-05
6.23304636e-05
6.23304633e-05
6.23304575e-05
6.23304551e-05
6.23304593e-05
6.23304649e-05
6.23304628e-05
6.23304547e-05
6.23304551e-05
6.2330464e-05
6.23304651e-05
6.23304568e-05
6.23304539e-05
6.23304612e-05
6.23304658e-05
6.23304599e-05
6.23304538e-05
6.2330458e-05
6.2330465e-05
6.23304626e-05
6.23304557e-05
6.23304566e-05
6.23304626e-05
6.23304624e-05
6.23304579e-05
6.23304578e-05
6.23304612e-05
6.23304614e-05
6.23304583e-05
6.23304577e-05
6.23304609e-05
6.23304625e-05
6.23304595e-05
6.23304563e-05
6.23304584e-05
6.23304635e-05
6.23304629e-05
6.23304563e-05
6.23304559e-05
6.23304618e-05
6.23304638e-05
6.23304592e-05
6.2330456e-05
6.23304591e-05
6.23304628e-05
6.23304612e-05
6.23304577e-05
6.23304584e-05
6.23304606e-05
6.23304604e-05
6.23304597e-05
6.233046e-05
6.233046e-05
6.23304583e-05
6.23304585e-05
6.23304622e-05
6.23304623e-05
6.2330457e-05
6.23304559e-05
6.23304619e-05
6.23304647e-05
6.23304589e-05
6.23304541e-05
6.2330459e-05
6.23304655e-05
6.23304622e-05
6.23304544e-05
6.23304559e-05
6.23304643e-05
6.23304641e-05
6.23304567e-05
6.2330456e-05
6.2330461e-05
6.23304625e-05
6.23304597e-05
6.23304584e-05
6.23304593e-05
6.23304598e-05
6.23304597e-05
6.23304606e-05
6.23304607e-05
6.23304587e-05
6.23304579e-05
6.23304601e-05
6.2330462e-05
6.23304608e-05
6.23304577e-05
6.23304578e-05
6.23304607e-05
6.23304617e-05
6.23304604e-05
6.23304581e-05
6.23304583e-05
6.23304606e-05
6.23304612e-05
6.23304597e-05
6.23304585e-05
6.23304594e-05
6.23304609e-05
6.23304602e-05
6.23304586e-05
6.23304592e-05
6.2330461e-05
6.23304605e-05
6.23304584e-05
6.23304586e-05
6.23304611e-05
6.23304611e-05
6.23304587e-05
6.23304585e-05
6.23304604e-05
6.23304608e-05
6.23304594e-05
6.2330459e-05
6.233046e-05
6.23304602e-05
6.23304593e-05
6.23304593e-05
6.23304604e-05
6.23304604e-05
6.23304589e-05
6.2330459e-05
6.23304605e-05
6.23304605e-05
6.23304592e-05
6.23304592e-05
6.23304599e-05
6.233046e-05
6.23304598e-05
6.23304599e-05
6.23304598e-05
6.23304592e-05
6.23304594e-05
6.23304605e-05
6.23304603e-05
6.23304588e-05
6.23304591e-05
6.23304608e-05
6.23304605e-05
6.23304584e-05
6.23304586e-05
6.23304615e-05
6.23304614e-05
6.2330458e-05
6.23304576e-05
6.23304611e-05
6.23304622e-05
6.23304591e-05
6.23304575e-05
6.23304597e-05
6.23304615e-05
6.23304602e-05
6.23304588e-05
6.23304594e-05
6.23304602e-05
6.23304598e-05
6.23304595e-05
6.23304602e-05
6.23304603e-05
6.23304589e-05
6.23304586e-05
6.23304605e-05
6.23304616e-05
6.23304599e-05
6.23304575e-05
6.23304579e-05
6.23304617e-05
6.23304625e-05
6.23304595e-05
6.23304565e-05
6.23304578e-05
6.23304629e-05
6.23304628e-05
6.2330458e-05
6.23304564e-05
6.233046e-05
6.23304627e-05
6.23304606e-05
6.23304573e-05
6.23304583e-05
6.23304616e-05
6.23304614e-05
6.23304584e-05
6.23304582e-05
6.23304604e-05
6.23304613e-05
6.23304599e-05
6.23304584e-05
6.23304586e-05
6.23304605e-05
6.23304613e-05
6.23304605e-05
6.2330458e-05
6.23304579e-05
6.23304609e-05
6.23304624e-05
6.23304596e-05
6.23304567e-05
6.23304587e-05
6.23304628e-05
6.23304619e-05
6.23304569e-05
6.2330457e-05
6.23304617e-05
6.23304626e-05
6.2330459e-05
6.23304569e-05
6.23304591e-05
6.23304623e-05
6.23304617e-05
6.23304577e-05
6.23304574e-05
6.23304607e-05
6.23304622e-05
6.233046e-05
6.23304575e-05
6.23304586e-05
6.23304615e-05
6.23304613e-05
6.23304588e-05
6.23304584e-05
6.23304595e-05
6.23304606e-05
6.23304607e-05
6.23304601e-05
6.23304584e-05
6.2330458e-05
6.2330461e-05
6.23304628e-05
6.23304594e-05
6.23304554e-05
6.23304584e-05
6.2330465e-05
6.23304633e-05
6.23304542e-05
6.23304545e-05
6.23304642e-05
6.23304656e-05
6.23304573e-05
6.2330454e-05
6.23304602e-05
6.23304646e-05
6.23304609e-05
6.23304561e-05
6.23304576e-05
6.2330462e-05
6.23304618e-05
6.23304591e-05
6.23304584e-05
6.2330459e-05
6.23304602e-05
6.23304609e-05
6.23304605e-05
6.23304586e-05
6.23304585e-05
6.23304604e-05
6.2330461e-05
6.23304596e-05
6.23304589e-05
6.23304597e-05
6.23304603e-05
6.23304596e-05
6.23304593e-05
6.23304603e-05
6.23304605e-05
6.23304589e-05
6.23304585e-05
6.23304605e-05
6.23304614e-05
6.23304597e-05
6.23304579e-05
6.23304587e-05
6.23304614e-05
6.23304614e-05
6.23304588e-05
6.23304578e-05
6.23304597e-05
6.23304618e-05
6.23304607e-05
6.23304576e-05
6.2330458e-05
6.23304619e-05
6.2330462e-05
6.23304579e-05
6.23304572e-05
6.23304611e-05
6.23304625e-05
6.23304591e-05
6.2330457e-05
6.23304595e-05
6.23304622e-05
6.23304609e-05
6.23304579e-05
6.23304581e-05
6.23304606e-05
6.23304612e-05
6.23304601e-05
6.23304584e-05
6.23304586e-05
6.23304609e-05
6.23304613e-05
6.23304589e-05
6.23304576e-05
6.23304601e-05
6.23304623e-05
6.233046e-05
6.23304569e-05
6.23304587e-05
6.23304624e-05
6.23304613e-05
6.23304576e-05
6.23304581e-05
6.23304612e-05
6.23304609e-05
6.23304589e-05
6.23304592e-05
6.23304605e-05
6.23304599e-05
6.23304583e-05
6.233046e-05
6.23304631e-05
6.233046e-05
6.23304515e-05
6.23304541e-05
6.2330479e-05
6.23304791e-05
6.23304278e-05
6.2330408e-05
6.23304937e-05
6.23305733e-05
6.23304661e-05
6.23302559e-05
6.23303193e-05
6.23307707e-05
6.23307707e-05
6.23301511e-05
6.23299604e-05
6.23306235e-05
6.23311173e-05
6.23305695e-05
6.23297466e-05
6.2330037e-05
6.23311209e-05
6.23310641e-05
6.23299929e-05
6.23298785e-05
6.23306661e-05
6.23309342e-05
)
;

boundaryField
{
    closed
    {
        type            calculated;
        value           nonuniform List<scalar> 0();
    }
    open
    {
        type            calculated;
        value           nonuniform List<scalar> 0();
    }
    sides
    {
        type            empty;
    }
    procBoundary2to1
    {
        type            processor;
        value           uniform 6.23304785e-05;
    }
    procBoundary2to3
    {
        type            processor;
        value           uniform 6.23304389e-05;
    }
}


// ************************************************************************* //
