/*--------------------------------*- C++ -*----------------------------------*\
| =========                 |                                                 |
| \\      /  F ield         | OpenFOAM: The Open Source CFD Toolbox           |
|  \\    /   O peration     | Version:  2306                                  |
|   \\  /    A nd           | Website:  www.openfoam.com                      |
|    \\/     M anipulation  |                                                 |
\*---------------------------------------------------------------------------*/
FoamFile
{
    version     2.0;
    format      ascii;
    arch        "LSB;label=32;scalar=64";
    class       volScalarField;
    location    "0.00074";
    object      p;
}
// * * * * * * * * * * * * * * * * * * * * * * * * * * * * * * * * * * * * * //

dimensions      [1 -1 -2 0 0 0 0];

internalField   nonuniform List<scalar> 
531
(
101225.075
101200.516
101176.737
101151.625
101125.802
101098.976
101073.662
101047.492
101021.146
100994.344
100970.194
100946.035
100921.731
100897.964
100875.675
100857.471
100841.241
100827.333
100815.61
100808.25
100803.554
100801.445
100802.692
100807.472
100815.419
100826.929
100841.218
100858.053
100876.844
100898.126
100921.893
100948.446
100976.809
101005.391
101035.492
101067.074
101099.729
101132.766
101165.122
101194.994
101223.631
101250.974
101276.972
101301.686
101324.783
101346.037
101365.294
101382.569
101397.47
101409.763
101420.612
101431.834
101431.57
101438.906
101439.546
101436.88
101432.067
101424.872
101415.963
101405.851
101395.246
101383.736
101370.827
101357.935
101344.97
101332.226
101320.882
101309.979
101299.829
101290.61
101280.891
101272.706
101265.433
101258.945
101253.284
101249.021
101245.512
101242.32
101240.077
101238.955
101238.902
101239.787
101241.056
101243.393
101246.564
101250.099
101253.937
101257.379
101261.241
101265.734
101270.759
101276.361
101282.125
101288.695
101295.651
101302.322
101307.976
101313.122
101317.295
101320.56
101322.874
101324.699
101325.653
101325.755
101325.217
101324.055
101321.947
101319.287
101316.081
101312.918
101309.488
101305.58
101301.353
101297.221
101292.644
101287.919
101282.734
101277.101
101271.906
101267.914
101264.871
101262.9
101261.516
101260.517
101259.994
101260.366
101261.247
101262.944
101265.543
101269.389
101274.531
101280.917
101288.098
101295.605
101302.977
101310.798
101318.986
101327.39
101335.724
101344.718
101354.243
101364.131
101373.861
101384.069
101394.78
101405.806
101416.386
101425.86
101434.989
101443.471
101451.212
101457.306
101462.674
101467.321
101471.228
101474.044
101475.25
101475.675
101475.164
101473.602
101471.304
101467.943
101463.884
101459.326
101454.289
101448.834
101442.998
101436.749
101429.891
101425.836
101419.974
101415.392
101411.687
101408.134
101411.74
101411.25
101413.745
101418.804
101426.254
101435.858
101447.099
101460.102
101475.089
101492.133
101511.161
101530.778
101550.154
101570.995
101593.151
101616.243
101639.172
101660.611
101681.535
101702.523
101723.307
101742.948
101761.377
101778.112
101792.585
101804.055
101814.209
101822.456
101828.211
101831.419
101831.36
101829.254
101824.9
101819.226
101811.086
101801.318
101789.813
101778.724
101762.891
101750.477
101736.384
101721.38
101707.309
101693.65
101679.782
101665.742
101653.294
101641.545
101630.727
101620.631
101611.367
101604.155
101597.97
101593.317
101590.075
101588.262
101588.394
101589.511
101592.423
101597.163
101603.731
101611.986
101621.705
101633.592
101647.246
101662.238
101677.09
101692.704
101708.833
101724.994
101739.866
101752.906
101765.293
101776.438
101786.062
101793.313
101799.024
101803.199
101805.607
101805.811
101804.475
101801.744
101797.496
101792.407
101786.255
101779.283
101771.64
101763.805
101756.581
101749.614
101743.176
101737.21
101732.279
101727.728
101723.747
101720.454
101717.477
101715.226
101713.671
101713.243
101714.214
101716.656
101720.518
101725.719
101731.97
101738.427
101745.246
101752.786
101761.369
101770.908
101782.067
101795.831
101811.056
101827.121
101844.88
101866.066
101889.121
101913.375
101939.905
101968.397
101998.715
102029.848
102062.124
102096.284
102132.143
102167.294
102199.61
102230.34
102259.231
102286.095
102309.263
102329.091
102346.115
102361.545
102375.618
102388.55
102399.714
102412.278
102425.316
102436.573
102445.663
102452.261
102458.131
102463.179
102465.737
102466.021
102463.634
102460.551
102457.549
102453.488
102448.492
102441.385
102433.527
102425.6
102417.152
102408.386
102398.235
102388.336
102379.192
102370.695
102359.902
102342.645
102321.745
102306.261
102295.405
102285.801
102275.087
102263.788
102253.005
102241.857
102231.359
102219.593
102206.948
102193.48
102179.567
102165.674
102149.019
102131.236
102114.854
102099.452
102085.57
102073.18
102059.814
102048.06
102038.874
102029.518
102019.091
102007.543
101995.944
101984.448
101971.76
101957.867
101943.513
101931.901
101920.49
101909.419
101898.196
101886.711
101875.34
101864.662
101854.691
101844.396
101833.869
101823.144
101812.859
101802.995
101792.739
101782.246
101772.474
101763.167
101754.147
101745.506
101737.58
101729.569
101721.538
101713.377
101706.014
101698.335
101691.771
101685.376
101679.69
101674.285
101669.12
101664.707
101660.015
101655.68
101651.712
101648.076
101644.675
101641.481
101638.439
101635.528
101632.71
101629.964
101627.273
101624.624
101622.02
101619.454
101616.926
101614.424
101611.954
101609.488
101607.046
101604.63
101602.248
101599.911
101597.626
101595.379
101593.192
101591.058
101588.989
101586.986
101585.066
101583.2
101581.433
101579.586
101578.584
101576.466
101575.106
101573.678
101572.412
101571.206
101570.185
101569.298
101568.572
101567.821
101566.93
101566.308
101566.17
101565.078
101566.206
101564.05
101562.875
101561.937
101561.734
101560.736
101560.098
101559.626
101559.026
101558.37
101557.838
101557.363
101556.909
101556.456
101555.992
101555.541
101555.092
101554.65
101554.213
101553.783
101553.353
101552.929
101552.499
101552.073
101551.663
101551.261
101550.865
101550.474
101550.086
101549.705
101549.324
101548.951
101548.58
101548.223
101547.868
101547.521
101547.171
101546.832
101546.497
101546.177
101545.856
101545.525
101545.191
101544.878
101544.569
101544.265
101543.962
101543.66
101543.361
101543.063
101542.766
101542.468
101542.171
101541.877
101541.581
101541.281
101540.979
101540.675
101540.367
101540.056
101539.742
101539.425
101539.102
101538.775
101538.439
101538.097
101537.747
101537.387
101537.019
101536.643
101536.258
101535.864
101535.462
101535.051
101534.632
101534.205
101533.772
101533.334
101532.89
101532.443
101531.994
101531.542
101531.091
101530.642
101530.195
101529.752
101529.315
)
;

boundaryField
{
    closed
    {
        type            zeroGradient;
    }
    open
    {
        type            waveTransmissive;
        gamma           1.25;
        fieldInf        101325;
        lInf            1;
        value           nonuniform List<scalar> 0();
    }
    sides
    {
        type            empty;
    }
    procBoundary4to3
    {
        type            processor;
        value           uniform 101248.497;
    }
    procBoundary4to5
    {
        type            processor;
        value           uniform 101528.883;
    }
}


// ************************************************************************* //
