/*--------------------------------*- C++ -*----------------------------------*\
| =========                 |                                                 |
| \\      /  F ield         | OpenFOAM: The Open Source CFD Toolbox           |
|  \\    /   O peration     | Version:  2306                                  |
|   \\  /    A nd           | Website:  www.openfoam.com                      |
|    \\/     M anipulation  |                                                 |
\*---------------------------------------------------------------------------*/
FoamFile
{
    version     2.0;
    format      ascii;
    arch        "LSB;label=32;scalar=64";
    class       volScalarField;
    location    "0.00022";
    object      prefDh_H2O;
}
// * * * * * * * * * * * * * * * * * * * * * * * * * * * * * * * * * * * * * //

dimensions      [1 1 -3 0 0 0 0];

internalField   nonuniform List<scalar> 
531
(
89.8140344
89.8191662
89.8241153
89.8217022
89.816299
89.8167989
89.8215729
89.8218906
89.81892
89.8178879
89.8194351
89.8206763
89.8200716
89.8189546
89.8190574
89.8197837
89.8198822
89.8197217
89.8194604
89.8193109
89.8194556
89.8199158
89.8198726
89.8191589
89.8191477
89.8200299
89.8201397
89.8191142
89.8188692
89.8199746
89.8203976
89.8193211
89.8186929
89.8195994
89.8204238
89.819834
89.8188872
89.8190508
89.8199559
89.8200467
89.8198169
89.8192488
89.8189287
89.8194488
89.8205091
89.8202643
89.8184781
89.8185135
89.8205276
89.8208126
89.8189406
89.8183321
89.8198556
89.8206854
89.8196111
89.8186667
89.8192685
89.8202505
89.8200988
89.8191757
89.819041
89.819471
89.8200911
89.820055
89.8192677
89.8188716
89.819463
89.820391
89.8202009
89.8188126
89.8186905
89.8198893
89.8205394
89.8198095
89.8187017
89.8189178
89.8202541
89.8202581
89.819214
89.819006
89.8197968
89.820054
89.8193054
89.8190218
89.8199479
89.8203953
89.8192438
89.8183807
89.8195472
89.8210942
89.820297
89.8179402
89.8181328
89.8209262
89.8213462
89.8190234
89.8177161
89.8192435
89.8213115
89.8206413
89.818102
89.8181999
89.8205784
89.8209208
89.8191081
89.8183658
89.8196196
89.820583
89.8198359
89.8188083
89.8191282
89.8200713
89.8200242
89.8193853
89.8192967
89.8194812
89.8196467
89.8196996
89.8197299
89.8195877
89.8193255
89.8193651
89.8197844
89.8198773
89.8195353
89.8192708
89.8194593
89.8198127
89.8197457
89.8194214
89.8194472
89.8196819
89.8196571
89.8194229
89.8194427
89.8198284
89.819853
89.8193272
89.8190692
89.8195746
89.8203066
89.8201041
89.8187199
89.8185856
89.8201098
89.8209628
89.8196839
89.8179299
89.8186231
89.8212784
89.8211374
89.8182307
89.8177663
89.8202418
89.8214123
89.819594
89.8178978
89.8190055
89.8209621
89.8204889
89.8185178
89.8186157
89.820259
89.8203681
89.8192296
89.818952
89.8197192
89.8200845
89.8195628
89.8191083
89.819433
89.8200296
89.8199314
89.8191637
89.8190751
89.8197448
89.8202019
89.8197738
89.8188441
89.8189617
89.8203369
89.8204951
89.8189907
89.8183627
89.8198552
89.8210352
89.8197065
89.817972
89.8189701
89.8211765
89.8206089
89.8181401
89.8182869
89.8206939
89.8207652
89.818955
89.8186451
89.8197865
89.8201471
89.8195991
89.8193809
89.8194989
89.8194745
89.8194611
89.8199209
89.8199354
89.8191454
89.8190095
89.8199265
89.820246
89.8193895
89.8189034
89.8195863
89.8201793
89.8197132
89.8190558
89.8192711
89.8200038
89.8199798
89.8193957
89.8191383
89.8193121
89.8200073
89.8201959
89.8194451
89.8186061
89.8191512
89.8208255
89.8206675
89.8182876
89.8180038
89.8203987
89.8214721
89.8195245
89.8175774
89.818723
89.8214285
89.8211236
89.818128
89.8178853
89.8202953
89.8211902
89.8194397
89.8181482
89.8193524
89.8207955
89.8199648
89.8185079
89.819092
89.8205686
89.8201662
89.8186212
89.8188222
89.8204689
89.8204359
89.818854
89.8186887
89.8200424
89.8204556
89.8193566
89.8186925
89.8195487
89.8204951
89.8198877
89.8185873
89.8188866
89.8206135
89.8205683
89.8186938
89.8183817
89.8201061
89.8208564
89.8194691
89.8183562
89.8192995
89.8205857
89.8200743
89.8188604
89.8190916
89.8199609
89.81987
89.8194243
89.8195016
89.8196989
89.8194593
89.8192957
89.8197919
89.820061
89.8194219
89.8189326
89.8194814
89.8202345
89.8200424
89.8190818
89.8189935
89.8194295
89.8201434
89.8202024
89.8194419
89.8186316
89.8190054
89.8207114
89.8206774
89.8186594
89.8181412
89.8199556
89.8211567
89.81987
89.8180424
89.8186193
89.820894
89.8208242
89.8187567
89.8183597
89.8197982
89.8205996
89.8198021
89.8188541
89.8191251
89.8199271
89.8199111
89.8196665
89.8195379
89.8192192
89.8192131
89.8199967
89.8202465
89.819277
89.8187196
89.8196457
89.8204629
89.8197273
89.818798
89.8192778
89.820151
89.8198981
89.8192331
89.8193366
89.8196929
89.8196698
89.8196063
89.819643
89.8195018
89.819329
89.8195949
89.8199646
89.8197151
89.8191179
89.8192058
89.8199855
89.8200536
89.8194358
89.8190668
89.8193604
89.8200523
89.8200146
89.8192448
89.8190545
89.8197131
89.8201242
89.8195746
89.8190065
89.8194826
89.8201921
89.8197792
89.8188573
89.81916
89.8204048
89.8203061
89.8187332
89.8185893
89.8201067
89.820756
89.8196145
89.81835
89.8187672
89.8206894
89.8207292
89.819112
89.8182929
89.8192689
89.8208206
89.8205409
89.8184933
89.8183889
89.8201986
89.8208192
89.8193851
89.8183613
89.8194236
89.8206986
89.8199783
89.8185611
89.8190086
89.8204573
89.8202252
89.8188404
89.818913
89.8201591
89.8201514
89.8191511
89.819116
89.8198955
89.8199302
89.8192783
89.8192798
89.8199023
89.8198867
89.8191825
89.8191905
89.8200091
89.8200575
89.8191562
89.8189876
89.8199153
89.8202524
89.8193721
89.8188389
89.8196035
89.8203101
89.819724
89.8189035
89.819301
89.8201296
89.819882
89.8191424
89.8193106
89.8199432
89.8197954
89.8191677
89.8193134
89.8200994
89.8200272
89.8189135
89.8189001
89.820209
89.8204964
89.8191276
89.8184297
89.8196886
89.8208796
89.8199038
89.8181988
89.8187155
89.8209318
89.8208379
89.8185129
89.8181109
89.8200197
89.821129
89.819913
89.8180902
89.8184493
89.820808
89.8209744
89.8190742
89.8181229
89.8193151
89.820918
89.8204812
89.8184302
89.8184609
89.8202501
89.8206732
89.8193797
89.818587
89.8193996
89.8203995
89.8199684
89.8189385
89.8191074
89.8200493
89.8200081
89.8191995
89.819207
89.8199294
89.8199291
89.8191743
89.8191656
89.8200181
89.8200746
89.8191593
89.8190134
89.8198701
89.8201012
89.8194532
89.8192096
89.8195535
89.8196732
89.8196035
89.8197788
89.8198123
89.819041
89.8189004
89.820272
89.8207698
89.8190026
89.8179001
89.8197129
89.8215496
89.82005
89.8175995
89.81859
89.8212377
89.8206574
89.8183513
89.8188073
89.8207687
89.8199802
89.8174127
89.8188621
89.8238723
89.8225037
89.8122827
89.8125661
89.8287283
89.8319609
89.8118025
89.8014215
89.8219614
89.842509
89.8259126
89.7948536
89.8032402
89.8433144
89.8417366
89.8020937
89.7972765
89.8282995
89.8392849
89.8179932
)
;

boundaryField
{
    closed
    {
        type            calculated;
        value           nonuniform List<scalar> 0();
    }
    open
    {
        type            calculated;
        value           nonuniform List<scalar> 0();
    }
    sides
    {
        type            empty;
    }
    procBoundary1to0
    {
        type            processor;
        value           uniform 89.8174881;
    }
    procBoundary1to2
    {
        type            processor;
        value           uniform 89.8043223;
    }
}


// ************************************************************************* //
