/*--------------------------------*- C++ -*----------------------------------*\
| =========                 |                                                 |
| \\      /  F ield         | OpenFOAM: The Open Source CFD Toolbox           |
|  \\    /   O peration     | Version:  2306                                  |
|   \\  /    A nd           | Website:  www.openfoam.com                      |
|    \\/     M anipulation  |                                                 |
\*---------------------------------------------------------------------------*/
FoamFile
{
    version     2.0;
    format      ascii;
    arch        "LSB;label=32;scalar=64";
    class       volScalarField;
    location    "0.00056";
    object      prefDPV_H2O;
}
// * * * * * * * * * * * * * * * * * * * * * * * * * * * * * * * * * * * * * //

dimensions      [1 -1 -1 0 0 0 0];

internalField   nonuniform List<scalar> 
531
(
-3.84022945e-07
-3.67574709e-07
-3.66896394e-07
-3.72146671e-07
-3.67060357e-07
-3.65891715e-07
-3.87195553e-07
-3.84915254e-07
-3.66042603e-07
-3.66024267e-07
-3.8464814e-07
-3.84355173e-07
-3.67740448e-07
-3.65215901e-07
-3.72322292e-07
-3.84225671e-07
-3.84395529e-07
-3.67550866e-07
-3.64273947e-07
-3.67581428e-07
-3.85398528e-07
-3.83476387e-07
-3.78606145e-07
-3.65791751e-07
-3.64012734e-07
-3.66346742e-07
-3.85168264e-07
-3.84399367e-07
-3.68212641e-07
-3.64359976e-07
-3.67651808e-07
-3.85805395e-07
-3.83529637e-07
-3.81477203e-07
-3.66257059e-07
-3.64440101e-07
-3.67895053e-07
-3.85078066e-07
-3.84390234e-07
-3.70533215e-07
-3.64549842e-07
-3.64117973e-07
-3.77702579e-07
-3.86904058e-07
-3.6684227e-07
-3.66386375e-07
-3.86271401e-07
-3.83901069e-07
-3.78311663e-07
-3.65504023e-07
-3.6439138e-07
-3.76230129e-07
-3.86984705e-07
-3.6770533e-07
-3.66661459e-07
-3.86706606e-07
-3.83873231e-07
-3.78582652e-07
-3.65831513e-07
-3.64606026e-07
-3.69391998e-07
-3.85279826e-07
-3.84852647e-07
-3.67600515e-07
-3.6462974e-07
-3.68464023e-07
-3.8581705e-07
-3.83841788e-07
-3.77724297e-07
-3.65601243e-07
-3.64323085e-07
-3.68587172e-07
-3.85728217e-07
-3.85832348e-07
-3.66264412e-07
-3.64612049e-07
-3.70888245e-07
-3.85452075e-07
-3.85844943e-07
-3.66226937e-07
-3.64569313e-07
-3.74595401e-07
-3.85893061e-07
-3.68098265e-07
-3.66694635e-07
-3.85404572e-07
-3.85906196e-07
-3.66941276e-07
-3.65748932e-07
-3.82532805e-07
-3.85358504e-07
-3.68271915e-07
-3.65509041e-07
-3.79339038e-07
-3.85586022e-07
-3.68999864e-07
-3.65512283e-07
-3.79046053e-07
-3.85801355e-07
-3.68599229e-07
-3.65845444e-07
-3.80842634e-07
-3.86608327e-07
-3.66876764e-07
-3.66557678e-07
-3.86649845e-07
-3.85711104e-07
-3.66268633e-07
-3.66631167e-07
-3.86342175e-07
-3.84642712e-07
-3.73065894e-07
-3.65059963e-07
-3.64458771e-07
-3.77008434e-07
-3.8327123e-07
-3.67218178e-07
-3.68015079e-07
-3.86033396e-07
-3.8265921e-07
-3.66337901e-07
-3.67382838e-07
-3.86197608e-07
-3.8453631e-07
-3.72715855e-07
-3.64955099e-07
-3.64577523e-07
-3.79665699e-07
-3.84815906e-07
-3.77772798e-07
-3.65184243e-07
-3.645615e-07
-3.81008273e-07
-3.83740868e-07
-3.6638337e-07
-3.69166147e-07
-3.85762924e-07
-3.8015954e-07
-3.66154017e-07
-3.6850721e-07
-3.85708563e-07
-3.8460526e-07
-3.7126556e-07
-3.64702211e-07
-3.64581684e-07
-3.85717652e-07
-3.84040732e-07
-3.66129999e-07
-3.68888646e-07
-3.85557448e-07
-3.84701847e-07
-3.70730587e-07
-3.64622528e-07
-3.65153956e-07
-3.86457578e-07
-3.82167402e-07
-3.66038641e-07
-3.69798855e-07
-3.85336244e-07
-3.84768934e-07
-3.6964335e-07
-3.64560501e-07
-3.65599627e-07
-3.86826007e-07
-3.80603866e-07
-3.65939244e-07
-3.70707171e-07
-3.85235056e-07
-3.84818298e-07
-3.68084806e-07
-3.64337035e-07
-3.66974016e-07
-3.86350696e-07
-3.77966313e-07
-3.65889478e-07
-3.71382681e-07
-3.85176767e-07
-3.84840655e-07
-3.6749736e-07
-3.64452685e-07
-3.67231006e-07
-3.8611616e-07
-3.84703221e-07
-3.68748582e-07
-3.64173576e-07
-3.68596192e-07
-3.86010056e-07
-3.75416536e-07
-3.65742242e-07
-3.73768975e-07
-3.84960011e-07
-3.86294182e-07
-3.66074972e-07
-3.64302063e-07
-3.7001741e-07
-3.85711857e-07
-3.7390295e-07
-3.65650617e-07
-3.76175113e-07
-3.84795006e-07
-3.83946734e-07
-3.65762707e-07
-3.64328136e-07
-3.71098964e-07
-3.85513923e-07
-3.72614448e-07
-3.65510361e-07
-3.78544663e-07
-3.84676679e-07
-3.81125543e-07
-3.65465395e-07
-3.64204594e-07
-3.71448471e-07
-3.85382608e-07
-3.71613748e-07
-3.65248148e-07
-3.7972154e-07
-3.8457363e-07
-3.69862143e-07
-3.65477611e-07
-3.81342628e-07
-3.84481542e-07
-3.79601269e-07
-3.6527797e-07
-3.6439692e-07
-3.74002738e-07
-3.85026858e-07
-3.70705372e-07
-3.65354908e-07
-3.78392206e-07
-3.84584726e-07
-3.86539159e-07
-3.65469533e-07
-3.64959492e-07
-3.78915867e-07
-3.72398653e-07
-3.64506797e-07
-3.7753372e-07
-3.85262341e-07
-3.84365321e-07
-3.84782286e-07
-3.66723672e-07
-3.6579549e-07
-3.68634825e-07
-3.66496418e-07
-3.65574059e-07
-3.86121212e-07
-3.84063032e-07
-3.68172968e-07
-3.64885497e-07
-3.81993227e-07
-3.84384672e-07
-3.68199158e-07
-3.6475352e-07
-3.80778905e-07
-3.84454844e-07
-3.68375354e-07
-3.64870672e-07
-3.81839405e-07
-3.84419344e-07
-3.68037298e-07
-3.64945663e-07
-3.83331075e-07
-3.84419774e-07
-3.68330637e-07
-3.65108862e-07
-3.78192436e-07
-3.84596322e-07
-3.86039315e-07
-3.64812727e-07
-3.637102e-07
-3.79129904e-07
-3.84860355e-07
-3.71553035e-07
-3.64740772e-07
-3.66120104e-07
-3.85279392e-07
-3.83788947e-07
-3.71444381e-07
-3.64190982e-07
-3.73847658e-07
-3.84868784e-07
-3.72763302e-07
-3.64985824e-07
-3.67235555e-07
-3.85308698e-07
-3.83903454e-07
-3.77780629e-07
-3.64016873e-07
-3.6390356e-07
-3.85934619e-07
-3.73397313e-07
-3.64636056e-07
-3.87221548e-07
-3.84558456e-07
-3.76343667e-07
-3.64806864e-07
-3.64654023e-07
-3.86585471e-07
-3.84520168e-07
-3.77589323e-07
-3.64478659e-07
-3.6426596e-07
-3.86358517e-07
-3.84370609e-07
-3.67358717e-07
-3.65199076e-07
-3.87154159e-07
-3.84431293e-07
-3.74984186e-07
-3.64214528e-07
-3.64017113e-07
-3.86101568e-07
-3.84395273e-07
-3.6752333e-07
-3.65210584e-07
-3.86881835e-07
-3.84433024e-07
-3.75279544e-07
-3.64312151e-07
-3.64104077e-07
-3.85544552e-07
-3.84393857e-07
-3.67682295e-07
-3.65267316e-07
-3.86537936e-07
-3.84425388e-07
-3.75483226e-07
-3.64385835e-07
-3.64122243e-07
-3.85145134e-07
-3.84398351e-07
-3.67877929e-07
-3.65316148e-07
-3.86100649e-07
-3.8442639e-07
-3.75620854e-07
-3.6447349e-07
-3.64175738e-07
-3.84326022e-07
-3.84403885e-07
-3.68201294e-07
-3.65416037e-07
-3.85522867e-07
-3.84397011e-07
-3.7532611e-07
-3.64681181e-07
-3.64430593e-07
-3.83751967e-07
-3.84693872e-07
-3.76255134e-07
-3.64474635e-07
-3.64064517e-07
-3.8169242e-07
-3.84554518e-07
-3.68188004e-07
-3.64951998e-07
-3.83072576e-07
-3.84366462e-07
-3.68014218e-07
-3.64908179e-07
-3.82598558e-07
-3.84393089e-07
-3.68123684e-07
-3.65009879e-07
-3.82673974e-07
-3.84429987e-07
-3.68604947e-07
-3.65244491e-07
-3.83180819e-07
-3.84642105e-07
-3.74797054e-07
-3.64421913e-07
-3.63897619e-07
-3.79193934e-07
-3.84755949e-07
-3.68979e-07
-3.64929587e-07
-3.81002564e-07
-3.84520309e-07
-3.68686063e-07
-3.64896634e-07
-3.80710189e-07
-3.84513286e-07
-3.6875497e-07
-3.65017955e-07
-3.81205139e-07
-3.84471976e-07
-3.69157384e-07
-3.65360071e-07
-3.81759227e-07
-3.84550982e-07
-3.77274847e-07
-3.6505659e-07
-3.64487481e-07
-3.76919806e-07
-3.84441238e-07
-3.8651319e-07
-3.69516789e-07
-3.64642958e-07
-3.6437008e-07
-3.78624596e-07
-3.84690736e-07
-3.81244174e-07
-3.65792498e-07
-3.65050099e-07
-3.78907926e-07
-3.84732151e-07
-3.79005721e-07
-3.65270108e-07
-3.64538377e-07
-3.77376659e-07
-3.84841769e-07
-3.81137627e-07
-3.65540999e-07
-3.6468191e-07
-3.76971779e-07
-3.84826205e-07
-3.82985363e-07
-3.65774775e-07
-3.64810857e-07
-3.77567791e-07
-3.84892169e-07
-3.79156052e-07
-3.65241726e-07
-3.64401185e-07
-3.7704664e-07
-3.84811061e-07
-3.71232563e-07
-3.6563874e-07
-3.79756673e-07
-3.84626819e-07
-3.77856322e-07
-3.65151749e-07
-3.64380916e-07
-3.77048724e-07
-3.84799615e-07
-3.7122777e-07
-3.65616119e-07
-3.7985038e-07
-3.84622885e-07
-3.77406552e-07
-3.65100895e-07
-3.64326337e-07
-3.77207039e-07
-3.84759437e-07
-3.71135223e-07
-3.65651832e-07
-3.79923225e-07
-3.84539126e-07
-3.77839133e-07
-3.65386674e-07
-3.64718007e-07
-3.77489747e-07
-3.84850261e-07
-3.78547579e-07
-3.65172249e-07
-3.64389789e-07
-3.77174593e-07
-3.84806184e-07
-3.70974825e-07
-3.6548682e-07
-3.7959817e-07
-3.84658075e-07
-3.79122618e-07
-3.64882587e-07
-3.64108884e-07
-3.75638119e-07
-3.84757339e-07
-3.84302081e-07
-3.76737434e-07
-3.65051686e-07
-3.64322842e-07
-3.76867858e-07
-3.84957319e-07
-3.7727265e-07
-3.64923217e-07
-3.64230769e-07
-3.77035149e-07
-3.84840164e-07
-3.70496038e-07
-3.65365143e-07
-3.8034367e-07
-3.84649489e-07
-3.76939006e-07
-3.65034065e-07
-3.64369444e-07
-3.77155126e-07
-3.84739948e-07
-3.70026875e-07
-3.65076183e-07
-3.79855749e-07
-3.84470686e-07
-3.69397062e-07
-3.65092456e-07
-3.80253679e-07
-3.84352957e-07
-3.69497813e-07
-3.65585992e-07
-3.81205694e-07
-3.84003067e-07
-3.77936401e-07
-3.67803508e-07
-3.64808944e-07
-3.64571789e-07
-3.79759865e-07
-3.84453857e-07
-3.69588684e-07
-3.65484994e-07
-3.82922144e-07
-3.84390963e-07
-3.76075874e-07
-3.64942135e-07
-3.64606866e-07
-3.79777141e-07
-3.84630691e-07
-3.77551698e-07
-3.64928497e-07
-3.64459681e-07
-3.79092167e-07
-3.84397084e-07
-3.69641702e-07
-3.65710031e-07
-3.83279608e-07
-3.83851085e-07
-3.76771331e-07
-3.67516599e-07
-3.64760635e-07
-3.64520596e-07
-3.79611405e-07
-3.84404317e-07
)
;

boundaryField
{
    closed
    {
        type            calculated;
        value           nonuniform List<scalar> 0();
    }
    open
    {
        type            calculated;
        value           nonuniform List<scalar> 0();
    }
    sides
    {
        type            empty;
    }
    procBoundary3to2
    {
        type            processor;
        value           uniform -3.84167183e-07;
    }
    procBoundary3to4
    {
        type            processor;
        value           uniform -3.69222963e-07;
    }
}


// ************************************************************************* //
