/*--------------------------------*- C++ -*----------------------------------*\
| =========                 |                                                 |
| \\      /  F ield         | OpenFOAM: The Open Source CFD Toolbox           |
|  \\    /   O peration     | Version:  2306                                  |
|   \\  /    A nd           | Website:  www.openfoam.com                      |
|    \\/     M anipulation  |                                                 |
\*---------------------------------------------------------------------------*/
FoamFile
{
    version     2.0;
    format      ascii;
    arch        "LSB;label=32;scalar=64";
    class       volScalarField;
    location    "0.00056";
    object      prefDZ_T;
}
// * * * * * * * * * * * * * * * * * * * * * * * * * * * * * * * * * * * * * //

dimensions      [1 -1 -1 -1 0 0 0];

internalField   nonuniform List<scalar> 
531
(
-1.22701744e-09
-1.19268151e-09
-1.19139777e-09
-1.20211426e-09
-1.19180166e-09
-1.18962358e-09
-1.23487999e-09
-1.22921779e-09
-1.19004766e-09
-1.18990065e-09
-1.22856419e-09
-1.22784313e-09
-1.19302364e-09
-1.18865665e-09
-1.20247054e-09
-1.22753041e-09
-1.22794744e-09
-1.19259891e-09
-1.18724029e-09
-1.19261828e-09
-1.23043663e-09
-1.22567171e-09
-1.21593174e-09
-1.18919911e-09
-1.18676149e-09
-1.19023155e-09
-1.22985557e-09
-1.22795522e-09
-1.19397218e-09
-1.18740178e-09
-1.19277823e-09
-1.23144843e-09
-1.2258058e-09
-1.22217718e-09
-1.1900402e-09
-1.187517e-09
-1.19335127e-09
-1.22964176e-09
-1.22793763e-09
-1.19882188e-09
-1.18761132e-09
-1.18692961e-09
-1.21397785e-09
-1.23416084e-09
-1.19130166e-09
-1.19059933e-09
-1.23259141e-09
-1.22672653e-09
-1.21529505e-09
-1.18893323e-09
-1.18746809e-09
-1.21079457e-09
-1.2343646e-09
-1.19303551e-09
-1.19104036e-09
-1.23367665e-09
-1.2266562e-09
-1.21588042e-09
-1.18934378e-09
-1.18772557e-09
-1.19635888e-09
-1.23014562e-09
-1.22907961e-09
-1.19271671e-09
-1.18787089e-09
-1.19442905e-09
-1.23148347e-09
-1.22657917e-09
-1.21402756e-09
-1.1890164e-09
-1.18723631e-09
-1.19472855e-09
-1.23125902e-09
-1.23151522e-09
-1.19018223e-09
-1.18787116e-09
-1.19945171e-09
-1.23057968e-09
-1.23155298e-09
-1.1901443e-09
-1.18788471e-09
-1.20727861e-09
-1.23195154e-09
-1.19375613e-09
-1.19119883e-09
-1.23086073e-09
-1.23168696e-09
-1.19150177e-09
-1.18974535e-09
-1.22453302e-09
-1.23032977e-09
-1.19412247e-09
-1.18932394e-09
-1.21753788e-09
-1.23089396e-09
-1.19557982e-09
-1.18935651e-09
-1.21689906e-09
-1.23142594e-09
-1.19476532e-09
-1.18993518e-09
-1.22082428e-09
-1.23353669e-09
-1.19134555e-09
-1.19091782e-09
-1.23361914e-09
-1.23153837e-09
-1.19045617e-09
-1.19092667e-09
-1.2327782e-09
-1.22856002e-09
-1.20408631e-09
-1.18848723e-09
-1.18748369e-09
-1.21247375e-09
-1.22614919e-09
-1.19199874e-09
-1.19358531e-09
-1.23201393e-09
-1.22479555e-09
-1.19054375e-09
-1.19235124e-09
-1.23242254e-09
-1.22829825e-09
-1.20334023e-09
-1.18836304e-09
-1.18762573e-09
-1.21825312e-09
-1.22899845e-09
-1.21413188e-09
-1.18863e-09
-1.18769375e-09
-1.22119066e-09
-1.22718288e-09
-1.19049161e-09
-1.19588235e-09
-1.23134535e-09
-1.21931886e-09
-1.19016224e-09
-1.19456782e-09
-1.23120824e-09
-1.22846685e-09
-1.2002785e-09
-1.1880392e-09
-1.18777006e-09
-1.23155689e-09
-1.22783746e-09
-1.19020638e-09
-1.19534238e-09
-1.23083498e-09
-1.22870556e-09
-1.19914896e-09
-1.1879158e-09
-1.18862644e-09
-1.23318906e-09
-1.22371428e-09
-1.19006988e-09
-1.19719272e-09
-1.23028634e-09
-1.22887195e-09
-1.19688025e-09
-1.18782519e-09
-1.18927025e-09
-1.23399705e-09
-1.2202892e-09
-1.18993618e-09
-1.19906412e-09
-1.23003618e-09
-1.22899472e-09
-1.19364586e-09
-1.18739484e-09
-1.19142404e-09
-1.23280768e-09
-1.21454956e-09
-1.18985176e-09
-1.20048186e-09
-1.22989447e-09
-1.22905404e-09
-1.19247137e-09
-1.1876322e-09
-1.19197701e-09
-1.23222463e-09
-1.22870746e-09
-1.19501947e-09
-1.18702977e-09
-1.19467045e-09
-1.23196357e-09
-1.20905819e-09
-1.18960468e-09
-1.20550916e-09
-1.22935753e-09
-1.23267293e-09
-1.1896736e-09
-1.18730829e-09
-1.19760119e-09
-1.23122317e-09
-1.20583555e-09
-1.18941725e-09
-1.21066667e-09
-1.22894835e-09
-1.22759494e-09
-1.18922834e-09
-1.18728139e-09
-1.19985739e-09
-1.23073171e-09
-1.20311958e-09
-1.18917856e-09
-1.21581075e-09
-1.22865487e-09
-1.22140699e-09
-1.18878675e-09
-1.18698895e-09
-1.20059426e-09
-1.23040173e-09
-1.20102026e-09
-1.18865468e-09
-1.21838352e-09
-1.22839742e-09
-1.19745692e-09
-1.18908219e-09
-1.22193863e-09
-1.22817216e-09
-1.21808606e-09
-1.18855597e-09
-1.18730601e-09
-1.20600586e-09
-1.22952265e-09
-1.19914452e-09
-1.18891764e-09
-1.21547641e-09
-1.22843282e-09
-1.23332541e-09
-1.18898581e-09
-1.18833753e-09
-1.21661689e-09
-1.20266886e-09
-1.18750354e-09
-1.21360805e-09
-1.23011956e-09
-1.22787365e-09
-1.22943906e-09
-1.19094644e-09
-1.18989659e-09
-1.19486025e-09
-1.19110278e-09
-1.18900633e-09
-1.23250517e-09
-1.22712563e-09
-1.19408704e-09
-1.18790612e-09
-1.22336868e-09
-1.22792326e-09
-1.19406008e-09
-1.18772899e-09
-1.22069659e-09
-1.22809889e-09
-1.19442562e-09
-1.18796152e-09
-1.22302556e-09
-1.22801287e-09
-1.19377814e-09
-1.18814105e-09
-1.22631627e-09
-1.22801765e-09
-1.1943567e-09
-1.18853511e-09
-1.21504058e-09
-1.228462e-09
-1.23203574e-09
-1.18782217e-09
-1.18631655e-09
-1.21709026e-09
-1.22911385e-09
-1.20088385e-09
-1.18795899e-09
-1.1899507e-09
-1.23014171e-09
-1.22644805e-09
-1.20066801e-09
-1.18670053e-09
-1.20565855e-09
-1.22912448e-09
-1.20339152e-09
-1.18832544e-09
-1.19198491e-09
-1.23022563e-09
-1.22673754e-09
-1.21414922e-09
-1.18670003e-09
-1.18642391e-09
-1.23206738e-09
-1.20480151e-09
-1.18792064e-09
-1.23495625e-09
-1.228375e-09
-1.21106746e-09
-1.18821592e-09
-1.18781621e-09
-1.23352483e-09
-1.2282768e-09
-1.21373789e-09
-1.18760706e-09
-1.1870579e-09
-1.23302889e-09
-1.22789513e-09
-1.19250787e-09
-1.1886497e-09
-1.23478924e-09
-1.22805257e-09
-1.20817008e-09
-1.1871389e-09
-1.18658432e-09
-1.23245687e-09
-1.22795536e-09
-1.19283252e-09
-1.18866953e-09
-1.23418423e-09
-1.22805711e-09
-1.20879794e-09
-1.1873021e-09
-1.18673125e-09
-1.23122069e-09
-1.22795198e-09
-1.1931449e-09
-1.18876027e-09
-1.23342052e-09
-1.2280379e-09
-1.20923101e-09
-1.1874149e-09
-1.1867631e-09
-1.23033582e-09
-1.22796305e-09
-1.19352699e-09
-1.18883692e-09
-1.23245017e-09
-1.22804014e-09
-1.20952376e-09
-1.18755019e-09
-1.18684558e-09
-1.22851996e-09
-1.22797675e-09
-1.19417158e-09
-1.18899389e-09
-1.23116246e-09
-1.22796706e-09
-1.20890315e-09
-1.18789243e-09
-1.18738951e-09
-1.22725095e-09
-1.22870437e-09
-1.21087699e-09
-1.18755628e-09
-1.18665811e-09
-1.22270284e-09
-1.22834785e-09
-1.19410909e-09
-1.1881051e-09
-1.2257443e-09
-1.22788098e-09
-1.19375253e-09
-1.18800242e-09
-1.22470151e-09
-1.22794689e-09
-1.19395879e-09
-1.18820656e-09
-1.22486879e-09
-1.22804151e-09
-1.19493663e-09
-1.18872049e-09
-1.225984e-09
-1.22857398e-09
-1.20777408e-09
-1.18741673e-09
-1.18637273e-09
-1.21722551e-09
-1.2288475e-09
-1.19565944e-09
-1.18808583e-09
-1.22118819e-09
-1.22826229e-09
-1.19506036e-09
-1.18798665e-09
-1.22054866e-09
-1.22824401e-09
-1.19519e-09
-1.18819715e-09
-1.22163693e-09
-1.22814403e-09
-1.19601759e-09
-1.18885905e-09
-1.22285222e-09
-1.22834584e-09
-1.213061e-09
-1.18836381e-09
-1.18737897e-09
-1.2122799e-09
-1.22807511e-09
-1.2332648e-09
-1.19670644e-09
-1.18795612e-09
-1.18720012e-09
-1.21598187e-09
-1.22869462e-09
-1.22166134e-09
-1.18958553e-09
-1.18844208e-09
-1.21660096e-09
-1.2287966e-09
-1.21679509e-09
-1.18868542e-09
-1.18750949e-09
-1.21326873e-09
-1.22906638e-09
-1.22143372e-09
-1.1891012e-09
-1.18778653e-09
-1.21239137e-09
-1.22902941e-09
-1.22547802e-09
-1.18946937e-09
-1.18804494e-09
-1.21368371e-09
-1.22919207e-09
-1.21712312e-09
-1.18861998e-09
-1.18720616e-09
-1.21255171e-09
-1.22898507e-09
-1.20025245e-09
-1.18929677e-09
-1.21845736e-09
-1.22853154e-09
-1.21431205e-09
-1.1884474e-09
-1.1871513e-09
-1.21255622e-09
-1.22895631e-09
-1.20024176e-09
-1.189261e-09
-1.21866236e-09
-1.2285218e-09
-1.21334289e-09
-1.18837536e-09
-1.18705479e-09
-1.21290011e-09
-1.22885656e-09
-1.20005362e-09
-1.18931471e-09
-1.21882036e-09
-1.22831481e-09
-1.21427513e-09
-1.18886195e-09
-1.18780985e-09
-1.21351456e-09
-1.22908711e-09
-1.21580521e-09
-1.18851867e-09
-1.18721598e-09
-1.21283026e-09
-1.22897445e-09
-1.19972202e-09
-1.18909415e-09
-1.21810843e-09
-1.22860954e-09
-1.21704906e-09
-1.18794569e-09
-1.18675267e-09
-1.2095026e-09
-1.22885844e-09
-1.22772826e-09
-1.21190611e-09
-1.18833855e-09
-1.18712866e-09
-1.21216715e-09
-1.22935303e-09
-1.21305518e-09
-1.18815045e-09
-1.1869624e-09
-1.21252842e-09
-1.22905904e-09
-1.19873367e-09
-1.18892442e-09
-1.21974252e-09
-1.228591e-09
-1.21233836e-09
-1.18834079e-09
-1.18716179e-09
-1.21278925e-09
-1.22880683e-09
-1.1977658e-09
-1.18829586e-09
-1.21867427e-09
-1.22813771e-09
-1.19648112e-09
-1.18828428e-09
-1.21954593e-09
-1.22784649e-09
-1.19670929e-09
-1.18912081e-09
-1.22163152e-09
-1.22698424e-09
-1.21448487e-09
-1.19320704e-09
-1.18810699e-09
-1.18742525e-09
-1.21846213e-09
-1.22809871e-09
-1.1969082e-09
-1.18904518e-09
-1.22541737e-09
-1.2279479e-09
-1.21049098e-09
-1.18817732e-09
-1.1876146e-09
-1.21850324e-09
-1.22854266e-09
-1.21365487e-09
-1.18814972e-09
-1.18727484e-09
-1.21700337e-09
-1.22795642e-09
-1.19702014e-09
-1.18931319e-09
-1.22620093e-09
-1.22660649e-09
-1.21198261e-09
-1.19261063e-09
-1.1879985e-09
-1.18729183e-09
-1.21813722e-09
-1.22797255e-09
)
;

boundaryField
{
    closed
    {
        type            calculated;
        value           nonuniform List<scalar> 0();
    }
    open
    {
        type            calculated;
        value           nonuniform List<scalar> 0();
    }
    sides
    {
        type            empty;
    }
    procBoundary3to2
    {
        type            processor;
        value           uniform -1.22738243e-09;
    }
    procBoundary3to4
    {
        type            processor;
        value           uniform -1.19613781e-09;
    }
}


// ************************************************************************* //
