/*--------------------------------*- C++ -*----------------------------------*\
| =========                 |                                                 |
| \\      /  F ield         | OpenFOAM: The Open Source CFD Toolbox           |
|  \\    /   O peration     | Version:  2306                                  |
|   \\  /    A nd           | Website:  www.openfoam.com                      |
|    \\/     M anipulation  |                                                 |
\*---------------------------------------------------------------------------*/
FoamFile
{
    version     2.0;
    format      ascii;
    arch        "LSB;label=32;scalar=64";
    class       volScalarField;
    location    "0.00056";
    object      prefDZ_H2O;
}
// * * * * * * * * * * * * * * * * * * * * * * * * * * * * * * * * * * * * * //

dimensions      [1 -1 -1 0 0 0 0];

internalField   nonuniform List<scalar> 
531
(
-7.74167215e-07
-7.41008559e-07
-7.39641118e-07
-7.50225359e-07
-7.39971656e-07
-7.37615743e-07
-7.80563002e-07
-7.75966058e-07
-7.37919925e-07
-7.37882962e-07
-7.75427571e-07
-7.74836968e-07
-7.41342678e-07
-7.36253344e-07
-7.50579401e-07
-7.74575899e-07
-7.74918323e-07
-7.40960492e-07
-7.34354421e-07
-7.41022104e-07
-7.76940309e-07
-7.73065388e-07
-7.63247272e-07
-7.37414223e-07
-7.33827831e-07
-7.3853305e-07
-7.7647611e-07
-7.7492606e-07
-7.42294592e-07
-7.34527851e-07
-7.41163986e-07
-7.77760529e-07
-7.73172737e-07
-7.69035154e-07
-7.38352256e-07
-7.34689377e-07
-7.41654352e-07
-7.76294276e-07
-7.74907648e-07
-7.46972728e-07
-7.34910608e-07
-7.34039987e-07
-7.61425736e-07
-7.79975367e-07
-7.39532005e-07
-7.38612948e-07
-7.78699969e-07
-7.73921521e-07
-7.62653614e-07
-7.36834181e-07
-7.34591159e-07
-7.58457367e-07
-7.80137947e-07
-7.41271883e-07
-7.39167501e-07
-7.79577315e-07
-7.73865402e-07
-7.63199911e-07
-7.37494381e-07
-7.35023873e-07
-7.44672105e-07
-7.76701013e-07
-7.75839846e-07
-7.41060583e-07
-7.35071679e-07
-7.42801363e-07
-7.77784024e-07
-7.73802014e-07
-7.6146952e-07
-7.3703017e-07
-7.3445348e-07
-7.43049623e-07
-7.77604942e-07
-7.77814863e-07
-7.38367078e-07
-7.35036015e-07
-7.47688448e-07
-7.77048255e-07
-7.77840255e-07
-7.38291532e-07
-7.34949861e-07
-7.55161853e-07
-7.77937258e-07
-7.42064017e-07
-7.39234382e-07
-7.76952493e-07
-7.77963737e-07
-7.39731596e-07
-7.37327903e-07
-7.71163184e-07
-7.76859623e-07
-7.42414085e-07
-7.36844296e-07
-7.64724741e-07
-7.77318286e-07
-7.43881585e-07
-7.36850832e-07
-7.64134099e-07
-7.77752383e-07
-7.4307393e-07
-7.37522465e-07
-7.677559e-07
-7.79379191e-07
-7.39601544e-07
-7.38958285e-07
-7.79462888e-07
-7.77570442e-07
-7.38375588e-07
-7.39106436e-07
-7.78842645e-07
-7.75416629e-07
-7.52078458e-07
-7.35938982e-07
-7.34727016e-07
-7.60026383e-07
-7.72651803e-07
-7.40289814e-07
-7.41896317e-07
-7.78220165e-07
-7.71418008e-07
-7.38515228e-07
-7.40621758e-07
-7.78551206e-07
-7.75202129e-07
-7.513728e-07
-7.35727582e-07
-7.34966412e-07
-7.65383269e-07
-7.75765777e-07
-7.61567295e-07
-7.36189522e-07
-7.3493411e-07
-7.68089817e-07
-7.73598565e-07
-7.38606891e-07
-7.44216802e-07
-7.77674908e-07
-7.66378824e-07
-7.3814453e-07
-7.42888426e-07
-7.77565321e-07
-7.75341128e-07
-7.48449092e-07
-7.35217776e-07
-7.349748e-07
-7.77583643e-07
-7.74203074e-07
-7.3809611e-07
-7.43657377e-07
-7.77260681e-07
-7.75535842e-07
-7.47370619e-07
-7.35057138e-07
-7.36128466e-07
-7.79075289e-07
-7.70426553e-07
-7.37911937e-07
-7.45492303e-07
-7.76814748e-07
-7.75671086e-07
-7.45178816e-07
-7.34932097e-07
-7.37026912e-07
-7.79818021e-07
-7.67274558e-07
-7.37711559e-07
-7.47323415e-07
-7.76610758e-07
-7.75770599e-07
-7.42036883e-07
-7.34481602e-07
-7.39797598e-07
-7.78859823e-07
-7.61957409e-07
-7.37611235e-07
-7.48685202e-07
-7.76493252e-07
-7.75815669e-07
-7.40852628e-07
-7.34714746e-07
-7.40315673e-07
-7.78387012e-07
-7.75538611e-07
-7.43375016e-07
-7.34152078e-07
-7.43067808e-07
-7.78173112e-07
-7.56817211e-07
-7.37314416e-07
-7.53495827e-07
-7.76056285e-07
-7.78745894e-07
-7.3798518e-07
-7.34411101e-07
-7.45932897e-07
-7.77571962e-07
-7.53765912e-07
-7.37129705e-07
-7.58346457e-07
-7.75723644e-07
-7.74013578e-07
-7.37355672e-07
-7.34463663e-07
-7.48113245e-07
-7.77172938e-07
-7.51168371e-07
-7.36846958e-07
-7.63123328e-07
-7.75485105e-07
-7.68326227e-07
-7.36756308e-07
-7.34214609e-07
-7.48817831e-07
-7.76908215e-07
-7.49151018e-07
-7.36318352e-07
-7.65495841e-07
-7.75277364e-07
-7.45619888e-07
-7.36780935e-07
-7.68763858e-07
-7.7509172e-07
-7.65253382e-07
-7.36378471e-07
-7.34602328e-07
-7.5396708e-07
-7.76191044e-07
-7.47319788e-07
-7.36533573e-07
-7.62815984e-07
-7.75299733e-07
-7.79239753e-07
-7.36764651e-07
-7.35736438e-07
-7.63871652e-07
-7.50733341e-07
-7.34823832e-07
-7.61085328e-07
-7.76665763e-07
-7.74857425e-07
-7.75698002e-07
-7.39292919e-07
-7.3742176e-07
-7.43145688e-07
-7.38834788e-07
-7.36975368e-07
-7.78397197e-07
-7.74248029e-07
-7.42214613e-07
-7.35587268e-07
-7.70075426e-07
-7.74896436e-07
-7.4226741e-07
-7.35321211e-07
-7.67627425e-07
-7.75037898e-07
-7.42622611e-07
-7.35557383e-07
-7.6976533e-07
-7.74966332e-07
-7.4194111e-07
-7.3570856e-07
-7.72772448e-07
-7.749672e-07
-7.42532465e-07
-7.3603756e-07
-7.62413258e-07
-7.75323109e-07
-7.78232096e-07
-7.35440569e-07
-7.3321794e-07
-7.64303139e-07
-7.75855383e-07
-7.49028625e-07
-7.35295511e-07
-7.38076163e-07
-7.76700137e-07
-7.7369549e-07
-7.48809585e-07
-7.34187169e-07
-7.53654448e-07
-7.75872377e-07
-7.51468451e-07
-7.35789521e-07
-7.40324845e-07
-7.76759216e-07
-7.73926329e-07
-7.6158308e-07
-7.33836176e-07
-7.33607743e-07
-7.78021037e-07
-7.5274658e-07
-7.3508441e-07
-7.80615408e-07
-7.75246773e-07
-7.58686252e-07
-7.3542875e-07
-7.35120632e-07
-7.79333115e-07
-7.75169587e-07
-7.6119742e-07
-7.34767108e-07
-7.34338319e-07
-7.78875588e-07
-7.74868085e-07
-7.40573131e-07
-7.36219426e-07
-7.80479555e-07
-7.7499042e-07
-7.5594562e-07
-7.34234636e-07
-7.33836659e-07
-7.78357595e-07
-7.74917806e-07
-7.40904982e-07
-7.36242625e-07
-7.79930566e-07
-7.74993911e-07
-7.56541044e-07
-7.34431438e-07
-7.34011973e-07
-7.77234685e-07
-7.74914951e-07
-7.41225447e-07
-7.36356992e-07
-7.79237287e-07
-7.74978517e-07
-7.56951654e-07
-7.34579981e-07
-7.34048594e-07
-7.76429482e-07
-7.74924012e-07
-7.41619832e-07
-7.36455436e-07
-7.78355742e-07
-7.74980537e-07
-7.57229105e-07
-7.34756688e-07
-7.34156437e-07
-7.747782e-07
-7.74935168e-07
-7.42271716e-07
-7.36656806e-07
-7.77190968e-07
-7.7492131e-07
-7.56634918e-07
-7.3517538e-07
-7.3467021e-07
-7.73620941e-07
-7.75519765e-07
-7.58507774e-07
-7.34758995e-07
-7.33932222e-07
-7.69469017e-07
-7.75238835e-07
-7.42244925e-07
-7.3572133e-07
-7.72251328e-07
-7.74859725e-07
-7.41894583e-07
-7.35632995e-07
-7.71295738e-07
-7.74913404e-07
-7.42115259e-07
-7.35838016e-07
-7.71447771e-07
-7.74987787e-07
-7.43085457e-07
-7.36310979e-07
-7.72469539e-07
-7.75415404e-07
-7.55568374e-07
-7.34652711e-07
-7.33595767e-07
-7.64432219e-07
-7.75644908e-07
-7.43839526e-07
-7.35676152e-07
-7.68078309e-07
-7.75169872e-07
-7.43248982e-07
-7.3560972e-07
-7.67488898e-07
-7.75155715e-07
-7.43387894e-07
-7.35854296e-07
-7.68486689e-07
-7.75072434e-07
-7.44199136e-07
-7.36543981e-07
-7.69603696e-07
-7.75231706e-07
-7.60563455e-07
-7.35932183e-07
-7.34784893e-07
-7.59847714e-07
-7.7501047e-07
-7.791874e-07
-7.44923676e-07
-7.35098324e-07
-7.34548219e-07
-7.63284467e-07
-7.75513442e-07
-7.68565381e-07
-7.37415728e-07
-7.35919096e-07
-7.63855644e-07
-7.75596932e-07
-7.64052794e-07
-7.36362622e-07
-7.34887495e-07
-7.60768702e-07
-7.75817915e-07
-7.68350587e-07
-7.36908721e-07
-7.35176849e-07
-7.59952488e-07
-7.75786541e-07
-7.72075513e-07
-7.3738e-07
-7.354368e-07
-7.61154013e-07
-7.7591952e-07
-7.64355851e-07
-7.36305405e-07
-7.34610926e-07
-7.60103404e-07
-7.7575601e-07
-7.48382573e-07
-7.37105761e-07
-7.65566668e-07
-7.75384589e-07
-7.61735673e-07
-7.36124016e-07
-7.34570063e-07
-7.60107604e-07
-7.75732937e-07
-7.4837291e-07
-7.3706016e-07
-7.65755575e-07
-7.7537666e-07
-7.60828965e-07
-7.36021499e-07
-7.34460037e-07
-7.60426759e-07
-7.75651938e-07
-7.48186341e-07
-7.37132153e-07
-7.65902426e-07
-7.75207805e-07
-7.61701022e-07
-7.36597612e-07
-7.3524962e-07
-7.60996681e-07
-7.75835036e-07
-7.63129206e-07
-7.36165343e-07
-7.34587951e-07
-7.60361348e-07
-7.75746179e-07
-7.47862989e-07
-7.36799501e-07
-7.65247134e-07
-7.754476e-07
-7.6428845e-07
-7.35581403e-07
-7.34021664e-07
-7.57263909e-07
-7.7564771e-07
-7.74729938e-07
-7.59480063e-07
-7.35922295e-07
-7.34452989e-07
-7.5974299e-07
-7.76050857e-07
-7.60559026e-07
-7.3566331e-07
-7.34267376e-07
-7.60080239e-07
-7.7581468e-07
-7.46897782e-07
-7.36554206e-07
-7.66750018e-07
-7.7543029e-07
-7.5988642e-07
-7.35886773e-07
-7.34546937e-07
-7.60322105e-07
-7.7561265e-07
-7.45951979e-07
-7.3597168e-07
-7.65766398e-07
-7.75069835e-07
-7.44682312e-07
-7.36004486e-07
-7.66568602e-07
-7.74832499e-07
-7.4488542e-07
-7.36999425e-07
-7.68487807e-07
-7.74127144e-07
-7.61897108e-07
-7.41469804e-07
-7.35432943e-07
-7.34954852e-07
-7.65573102e-07
-7.75035908e-07
-7.45068611e-07
-7.36795818e-07
-7.71948066e-07
-7.74909119e-07
-7.58146398e-07
-7.35701449e-07
-7.35025565e-07
-7.65607929e-07
-7.75392396e-07
-7.6112157e-07
-7.35673955e-07
-7.3472885e-07
-7.64227062e-07
-7.74921458e-07
-7.45175493e-07
-7.37249479e-07
-7.72668694e-07
-7.73820756e-07
-7.59548396e-07
-7.40891413e-07
-7.35335555e-07
-7.3485165e-07
-7.65273816e-07
-7.74936039e-07
)
;

boundaryField
{
    closed
    {
        type            calculated;
        value           nonuniform List<scalar> 0();
    }
    open
    {
        type            calculated;
        value           nonuniform List<scalar> 0();
    }
    sides
    {
        type            empty;
    }
    procBoundary3to2
    {
        type            processor;
        value           uniform -7.74457991e-07;
    }
    procBoundary3to4
    {
        type            processor;
        value           uniform -7.4433134e-07;
    }
}


// ************************************************************************* //
