/*--------------------------------*- C++ -*----------------------------------*\
| =========                 |                                                 |
| \\      /  F ield         | OpenFOAM: The Open Source CFD Toolbox           |
|  \\    /   O peration     | Version:  2306                                  |
|   \\  /    A nd           | Website:  www.openfoam.com                      |
|    \\/     M anipulation  |                                                 |
\*---------------------------------------------------------------------------*/
FoamFile
{
    version     2.0;
    format      ascii;
    arch        "LSB;label=32;scalar=64";
    class       surfaceScalarField;
    location    "0.00142";
    object      phi;
}
// * * * * * * * * * * * * * * * * * * * * * * * * * * * * * * * * * * * * * //

dimensions      [1 0 -1 0 0 0 0];

oriented        oriented;

internalField   nonuniform List<scalar> 
530
(
2.84346641e-06
2.84643715e-06
2.89338984e-06
2.86616269e-06
2.88219908e-06
2.90424656e-06
2.90652663e-06
2.94393605e-06
2.92094205e-06
2.90193608e-06
2.94341291e-06
2.9392988e-06
2.98223297e-06
2.96132368e-06
2.95838236e-06
3.02333266e-06
3.05944689e-06
3.12962145e-06
3.12487224e-06
3.22803577e-06
3.28007755e-06
3.37542136e-06
3.3946402e-06
3.58954089e-06
3.66014911e-06
3.78487713e-06
3.88276294e-06
3.93688017e-06
4.03659079e-06
4.13327042e-06
4.29347363e-06
4.48364531e-06
4.58795552e-06
4.48245469e-06
4.60283811e-06
4.73202608e-06
4.86698587e-06
5.0078631e-06
5.13989357e-06
5.27536975e-06
5.49212179e-06
5.73683339e-06
5.81944004e-06
5.97104868e-06
5.90228708e-06
6.01218983e-06
6.188e-06
6.29874601e-06
6.32411541e-06
6.26526595e-06
6.37264492e-06
6.3907358e-06
6.57667934e-06
6.69040565e-06
6.76526569e-06
6.45654211e-06
6.47177878e-06
6.51159681e-06
6.49980051e-06
6.32278612e-06
6.29559421e-06
6.32924806e-06
6.3633229e-06
6.34911817e-06
6.28168143e-06
6.18490746e-06
5.60161223e-06
5.44569233e-06
5.32390749e-06
5.143839e-06
4.94811377e-06
4.9177519e-06
4.74246097e-06
4.52692054e-06
4.20617305e-06
3.98091915e-06
3.78694301e-06
3.51054995e-06
3.30065771e-06
3.07095978e-06
2.85325934e-06
2.64465536e-06
2.35554741e-06
2.07651109e-06
2.05025303e-06
1.83985522e-06
1.62876713e-06
1.34986174e-06
1.13505653e-06
1.24014933e-06
1.08776308e-06
9.19770931e-07
6.97748404e-07
6.01914445e-07
7.75661061e-07
7.18706026e-07
6.20692879e-07
5.63850302e-07
4.60368031e-07
4.56636457e-07
7.91388155e-07
8.26600663e-07
9.01244923e-07
9.30897043e-07
1.1775371e-06
1.27299588e-06
1.38051113e-06
1.45057588e-06
1.56963391e-06
1.89604605e-06
2.07952636e-06
2.29917701e-06
2.49334122e-06
2.66012838e-06
3.02149087e-06
3.29800979e-06
3.63836477e-06
3.97884351e-06
4.18981013e-06
4.53993081e-06
4.91066627e-06
5.35068249e-06
5.85000465e-06
6.43058283e-06
6.87926615e-06
7.42776532e-06
7.61638308e-06
8.13915194e-06
8.70033455e-06
9.32883136e-06
9.62645047e-06
1.02671611e-05
1.11098595e-05
1.20220971e-05
1.29189659e-05
1.32442566e-05
1.42010884e-05
1.56130848e-05
1.70909507e-05
1.83470619e-05
1.80918277e-05
1.92589246e-05
2.10346847e-05
2.27963406e-05
2.41120831e-05
2.33369326e-05
2.4286837e-05
2.5918559e-05
2.73424171e-05
2.81862847e-05
2.68974444e-05
2.74258811e-05
2.91561733e-05
3.05783385e-05
3.10140217e-05
2.93230778e-05
2.93707215e-05
3.03883446e-05
3.12852611e-05
3.12871105e-05
2.92996752e-05
2.88543075e-05
2.95449765e-05
3.00479195e-05
2.96173e-05
2.76383471e-05
2.68217118e-05
2.67276961e-05
2.62364777e-05
2.44597386e-05
2.36060328e-05
2.36105109e-05
2.28880608e-05
2.23383976e-05
2.15333806e-05
1.99373488e-05
1.90374424e-05
1.90945455e-05
1.88840996e-05
1.81352305e-05
1.68230185e-05
1.60426889e-05
1.62022197e-05
1.60529153e-05
1.54053832e-05
1.43883337e-05
1.37237262e-05
1.35557621e-05
1.31027659e-05
1.21752356e-05
1.16478544e-05
1.17132461e-05
1.15673228e-05
1.10698682e-05
1.03847347e-05
9.92554949e-06
9.83104739e-06
9.42820945e-06
8.72875784e-06
8.31786472e-06
8.39669825e-06
7.94819242e-06
7.44575144e-06
6.88572043e-06
6.52810411e-06
6.67030114e-06
6.31334846e-06
5.87813042e-06
5.45838897e-06
5.19693996e-06
5.38557226e-06
5.07489476e-06
4.66630428e-06
4.32212734e-06
4.11474471e-06
4.09976089e-06
3.78181609e-06
3.44860621e-06
3.29520138e-06
3.48817967e-06
3.26057543e-06
2.916567e-06
2.67533225e-06
2.55628574e-06
2.79145936e-06
2.60186262e-06
2.27524261e-06
2.09532245e-06
2.03412713e-06
2.27077931e-06
2.13098306e-06
1.84348178e-06
1.72254096e-06
1.68839532e-06
1.62347784e-06
1.45193655e-06
1.37451448e-06
1.41323701e-06
1.33315215e-06
1.19920983e-06
1.11379314e-06
1.10403555e-06
9.91178288e-07
9.62347524e-07
1.03633301e-06
1.02491737e-06
1.00202414e-06
8.96789518e-07
8.78114986e-07
9.72079335e-07
1.24800838e-06
1.23018322e-06
1.12548394e-06
1.14788002e-06
1.2320008e-06
1.44208216e-06
1.34829316e-06
1.33501073e-06
1.39930445e-06
1.58132095e-06
1.50630763e-06
1.47765671e-06
1.53999248e-06
1.72060796e-06
1.72130423e-06
1.63366466e-06
1.59684259e-06
1.63796877e-06
1.69230194e-06
1.70615298e-06
1.67430412e-06
1.76564538e-06
1.75115595e-06
1.77823142e-06
1.84894866e-06
1.88878315e-06
1.89634634e-06
1.93568191e-06
2.03775822e-06
2.06069218e-06
2.10268288e-06
2.10247165e-06
2.09808108e-06
2.1325151e-06
2.1695933e-06
2.15698375e-06
2.09205168e-06
2.04616166e-06
2.04769711e-06
2.09720358e-06
2.06196789e-06
1.97291968e-06
1.92614956e-06
1.89762424e-06
2.13095942e-06
2.03287494e-06
1.9593286e-06
1.93532868e-06
2.09541753e-06
2.05483552e-06
1.93657174e-06
1.87300952e-06
1.84717198e-06
1.89234183e-06
1.93958664e-06
1.85127451e-06
1.80681579e-06
1.77026886e-06
2.00015903e-06
1.90684289e-06
1.8326507e-06
1.79819695e-06
1.91363598e-06
1.86660083e-06
1.76311887e-06
1.69655745e-06
1.65764437e-06
1.66383228e-06
1.609236e-06
1.52002116e-06
1.44209768e-06
1.39277565e-06
1.35937847e-06
1.28410605e-06
1.17447216e-06
1.08504387e-06
1.00942335e-06
1.19914617e-06
1.05180895e-06
9.3306749e-07
8.59038081e-07
8.80183883e-07
7.94090973e-07
7.06923362e-07
6.39846869e-07
5.78717686e-07
5.37801691e-07
6.47815518e-07
5.29584508e-07
4.59226012e-07
4.25937616e-07
4.85145592e-07
3.71463657e-07
3.30784408e-07
3.61639523e-07
3.62801474e-07
3.74394245e-07
3.7289345e-07
3.38248192e-07
4.07392572e-07
4.31885909e-07
4.68514133e-07
5.22188387e-07
7.26370782e-07
7.53468611e-07
7.06387845e-07
7.41433281e-07
7.79700493e-07
1.00750313e-06
9.99847576e-07
1.00663524e-06
1.05006172e-06
1.22499712e-06
1.24024301e-06
1.24855419e-06
1.2957108e-06
1.53708355e-06
1.61878978e-06
1.5869889e-06
1.60021383e-06
1.62124784e-06
1.83487815e-06
1.85022412e-06
1.83229093e-06
1.84678924e-06
2.30661146e-06
2.39261467e-06
2.30790944e-06
2.26862955e-06
2.23772165e-06
2.40111496e-06
2.39274927e-06
2.30532558e-06
2.27018054e-06
2.57403688e-06
2.63280964e-06
2.5441769e-06
2.45414681e-06
2.38366151e-06
2.47807105e-06
2.4437714e-06
2.3100057e-06
2.25146969e-06
2.423742e-06
2.47360788e-06
2.41756072e-06
2.33089395e-06
2.27755948e-06
2.34413343e-06
2.33885277e-06
2.24991841e-06
2.22305894e-06
2.25738912e-06
2.26784841e-06
2.21241638e-06
2.20093831e-06
2.23199271e-06
2.24537508e-06
2.1732676e-06
2.16569035e-06
2.26208521e-06
2.3394623e-06
2.34694524e-06
2.26816042e-06
2.24206791e-06
2.25761151e-06
2.25431307e-06
2.24840901e-06
2.22322635e-06
2.21359336e-06
2.1935373e-06
2.16347666e-06
2.12799326e-06
2.14215862e-06
2.15907718e-06
2.13517216e-06
2.03159469e-06
1.98414309e-06
1.95587601e-06
1.91292996e-06
1.86743446e-06
1.82319396e-06
1.87955242e-06
1.88517311e-06
1.82430542e-06
1.69555881e-06
1.64733767e-06
1.74158064e-06
1.72808681e-06
1.68427259e-06
1.61185165e-06
1.53637755e-06
1.49924895e-06
1.51351073e-06
1.53058416e-06
1.50981603e-06
1.42503212e-06
1.38942509e-06
1.38533791e-06
1.34968711e-06
1.29022279e-06
1.25383763e-06
1.23829422e-06
1.20360213e-06
1.15077308e-06
1.10707701e-06
1.10616958e-06
1.03713801e-06
9.77589038e-07
9.60534558e-07
9.2955554e-07
9.6166035e-07
9.49133368e-07
8.64103744e-07
8.61800603e-07
8.33215928e-07
7.69537999e-07
7.29254232e-07
7.12095113e-07
7.25999756e-07
6.92735278e-07
6.4912445e-07
6.26817122e-07
6.14744186e-07
5.69915821e-07
5.24977467e-07
4.96818067e-07
5.08834949e-07
4.70278844e-07
4.1429135e-07
3.9130241e-07
3.94324603e-07
4.30761827e-07
4.06332323e-07
3.54552497e-07
3.44548753e-07
3.73496309e-07
4.1094128e-07
3.82251261e-07
3.3859306e-07
3.24082221e-07
4.92126562e-07
4.77367299e-07
4.13585379e-07
3.93769784e-07
3.92730833e-07
3.74792966e-07
3.47638606e-07
3.38849216e-07
4.79568602e-07
4.80257374e-07
3.74496007e-07
3.36748633e-07
3.06370283e-07
4.95623308e-07
4.65376301e-07
4.40187908e-07
4.234714e-07
4.31102749e-07
4.79302115e-07
4.69697697e-07
4.42287925e-07
4.41838876e-07
4.62349705e-07
5.12117505e-07
5.07072263e-07
4.78811931e-07
4.75228194e-07
4.89188197e-07
5.33646466e-07
5.23610417e-07
4.90331769e-07
4.80271533e-07
4.86795566e-07
5.21436199e-07
5.11147097e-07
4.78975129e-07
4.57827608e-07
4.47429375e-07
4.24589547e-07
)
;

boundaryField
{
    closed
    {
        type            calculated;
        value           nonuniform List<scalar> 0();
    }
    open
    {
        type            calculated;
        value           nonuniform List<scalar> 0();
    }
    sides
    {
        type            empty;
        value           nonuniform List<scalar> 0();
    }
    procBoundary3to2
    {
        type            processor;
        value           uniform -2.74619416e-06;
    }
    procBoundary3to4
    {
        type            processor;
        value           uniform 3.97921954e-07;
    }
}


// ************************************************************************* //
