/*--------------------------------*- C++ -*----------------------------------*\
| =========                 |                                                 |
| \\      /  F ield         | OpenFOAM: The Open Source CFD Toolbox           |
|  \\    /   O peration     | Version:  2306                                  |
|   \\  /    A nd           | Website:  www.openfoam.com                      |
|    \\/     M anipulation  |                                                 |
\*---------------------------------------------------------------------------*/
FoamFile
{
    version     2.0;
    format      ascii;
    arch        "LSB;label=32;scalar=64";
    class       volScalarField;
    location    "0.00142";
    object      prefDh_T;
}
// * * * * * * * * * * * * * * * * * * * * * * * * * * * * * * * * * * * * * //

dimensions      [1 1 -3 -1 0 0 0];

internalField   nonuniform List<scalar> 
531
(
-0.000724843838
-0.00074366292
-0.000594661442
-0.000521464258
-0.00052160133
-0.000725714706
-0.000743748717
-0.000594224855
-0.000514089841
-0.000514235004
-0.000727212049
-0.000742498015
-0.000592951755
-0.000494520801
-0.000495448209
-0.000722568573
-0.00074897813
-0.000600627374
-0.000571296446
-0.000691933543
-0.000749949121
-0.000600988996
-0.000585818941
-0.000711926443
-0.00074426927
-0.000593521365
-0.000498935683
-0.000499453015
-0.000726193934
-0.000748630704
-0.00059439908
-0.000540349446
-0.000509327979
-0.000554980107
-0.000728911496
-0.000743038692
-0.000734522893
-0.000744060389
-0.000745292695
-0.000745395712
-0.000588803693
-0.000494352854
-0.000457606281
-0.000459664146
-0.000722260125
-0.000736968278
-0.00059390414
-0.000457851138
-0.000460688769
-0.000718840646
-0.00074345556
-0.000735334744
-0.000591380188
-0.000503812211
-0.000504441727
-0.000708907042
-0.000748072553
-0.000605716136
-0.000592339999
-0.000711622989
-0.000742145869
-0.000597911925
-0.00055142062
-0.000540525204
-0.000462682541
-0.000464268706
-0.000660043015
-0.000741142665
-0.0007338238
-0.000743936414
-0.000736970581
-0.000607431325
-0.000526445795
-0.000521744047
-0.000700192627
-0.000741908473
-0.000596952528
-0.000507681899
-0.000508230886
-0.000702931065
-0.000741285316
-0.000598031774
-0.00051630029
-0.000516599984
-0.000703579378
-0.000741673268
-0.000600072869
-0.000523781663
-0.000524028886
-0.000706707123
-0.000740934144
-0.000603726695
-0.000537123933
-0.000536437433
-0.000705897613
-0.0007450895
-0.00060695904
-0.000574877444
-0.000509153296
-0.000511192457
-0.000714653072
-0.000747956469
-0.000609091028
-0.000583242298
-0.000728825399
-0.000743285287
-0.000597646762
-0.000521803949
-0.000524326729
-0.000724849215
-0.000741788355
-0.000598422867
-0.00051274836
-0.000515021292
-0.000729130881
-0.000740626453
-0.00059825421
-0.000502595191
-0.000503675843
-0.000734088146
-0.000742213964
-0.000738778412
-0.000598265924
-0.00055405538
-0.000488009611
-0.000489099716
-0.000725738144
-0.000747025637
-0.000611816447
-0.000562077315
-0.000727696969
-0.00074228514
-0.000596810803
-0.000509266049
-0.00050839311
-0.000716733618
-0.000740255053
-0.000600655641
-0.000521182954
-0.000516749942
-0.000705264372
-0.000740972385
-0.000603405428
-0.000526490757
-0.000517801008
-0.000687964375
-0.000741262352
-0.000608128502
-0.000568354684
-0.000557043214
-0.000679337205
-0.000739027187
-0.000648747433
-0.000566008638
-0.000532318523
-0.000643704504
-0.000737167773
-0.000612458576
-0.000540708678
-0.000509504723
-0.000623926715
-0.000732546864
-0.000625927294
-0.000550658364
-0.000508548445
-0.000606639677
-0.000736340779
-0.000600659918
-0.000600490914
-0.00061766145
-0.000736840182
-0.00062870203
-0.000595587083
-0.000528169473
-0.00051312659
-0.000589297015
-0.000725836672
-0.000654458604
-0.000593409688
-0.000531009019
-0.000588195297
-0.000723972792
-0.000674432913
-0.000596987759
-0.000521305003
-0.000581167683
-0.000727325904
-0.000612516597
-0.000600917326
-0.000591851861
-0.000729056019
-0.000653567342
-0.0005807742
-0.000507171325
-0.000577297023
-0.000726568945
-0.000616581284
-0.00060057838
-0.000588436058
-0.000730613329
-0.000669946531
-0.000596979515
-0.00052683417
-0.000581086871
-0.000725182002
-0.000684647653
-0.000596242015
-0.000516655426
-0.000579848395
-0.000724761447
-0.000690723735
-0.000596673897
-0.000509052076
-0.000577896981
-0.000727419682
-0.000630005705
-0.000604108442
-0.000586319014
-0.000733077737
-0.000691697524
-0.000595446266
-0.000526832615
-0.000583894198
-0.000727676794
-0.000701846351
-0.000596422108
-0.000512927208
-0.000584191667
-0.000725344767
-0.000698643532
-0.000583746848
-0.000472455199
-0.000579375285
-0.000718353271
-0.000748886563
-0.000726081925
-0.00074191033
-0.000661581123
-0.000599949247
-0.000531491833
-0.00053280306
-0.000485394659
-0.000431675565
-0.00058255335
-0.000718510023
-0.000750777166
-0.000629307583
-0.000586562799
-0.000587379397
-0.000735436942
-0.000682156954
-0.00058453095
-0.000487608335
-0.000584554606
-0.000733231541
-0.000640970649
-0.000576560187
-0.000583483299
-0.000740888973
-0.000634480471
-0.00059562152
-0.000587955191
-0.000741043855
-0.000732971024
-0.000594174457
-0.000560060958
-0.000590438783
-0.000735316753
-0.000742452132
-0.000592410783
-0.000572855172
-0.00051829393
-0.000460611431
-0.000586755518
-0.000725575049
-0.00075294246
-0.000729589998
-0.000743890381
-0.000632187039
-0.000577358807
-0.00052016713
-0.000493545965
-0.000592220527
-0.000735734547
-0.000742913491
-0.000594302713
-0.000520589164
-0.000590637491
-0.000738310731
-0.000740580651
-0.000594587344
-0.000496061994
-0.000585241334
-0.000738124219
-0.000655484052
-0.000584883201
-0.000591836817
-0.000746329645
-0.000730785921
-0.000593436042
-0.000494113138
-0.000590309878
-0.000740325331
-0.000741729681
-0.000593256153
-0.000484940817
-0.000586273728
-0.000738416122
-0.000656719123
-0.000580593789
-0.000592979288
-0.000746549804
-0.000736125852
-0.000594629452
-0.000494559867
-0.000591055016
-0.000741507771
-0.000744627093
-0.000596215462
-0.000491824989
-0.000589717756
-0.000742018587
-0.00074848437
-0.000594435796
-0.000502397952
-0.000588950492
-0.000740860575
-0.000668173111
-0.000600318212
-0.000595343258
-0.000747084063
-0.000742055056
-0.00059491646
-0.000532264003
-0.000512838642
-0.000591034751
-0.000744530328
-0.000643126635
-0.000553344604
-0.000586250989
-0.000743174117
-0.000622141793
-0.000561567899
-0.000584509546
-0.000733426346
-0.00075356412
-0.000736339136
-0.000591407078
-0.000539110198
-0.000533974072
-0.000484987151
-0.000600690814
-0.000743296065
-0.000728398711
-0.000564423315
-0.00046252668
-0.000590824348
-0.000738885377
-0.000646542275
-0.000558302323
-0.000588786705
-0.000742996072
-0.000630049091
-0.000569933701
-0.000594208192
-0.000745991573
-0.0007275772
-0.00058070399
-0.000481888708
-0.000587159096
-0.000737685272
-0.000634969165
-0.000562207713
-0.000592927643
-0.000745125277
-0.000709067672
-0.000570446216
-0.000477583824
-0.000586072205
-0.000738424468
-0.000624657802
-0.000554138337
-0.000591187009
-0.000745176439
-0.000678832176
-0.000558108041
-0.000476033803
-0.000585460977
-0.000739634626
-0.0006133506
-0.000545059041
-0.000592162157
-0.000745303684
-0.000649819086
-0.000542062881
-0.000470345866
-0.000585546015
-0.000742568211
-0.000600505763
-0.000532700225
-0.000599889587
-0.000745809503
-0.000591199571
-0.000542823252
-0.000612700376
-0.000745764268
-0.000590312265
-0.00054891844
-0.000615338618
-0.000745475906
-0.000619902515
-0.000528393776
-0.00048411322
-0.000595136412
-0.000744309827
-0.00058988769
-0.000540035429
-0.000648564072
-0.000745568776
-0.000593907837
-0.00055530104
-0.000653207814
-0.000743763836
-0.00061277044
-0.000528446673
-0.000503903287
-0.000615602231
-0.000743390656
-0.000594254916
-0.000567572982
-0.000660013513
-0.000741961012
-0.000643017446
-0.000550887292
-0.000520924267
-0.000617016378
-0.000738529952
-0.000641247908
-0.000577641953
-0.000506928654
-0.000508740858
-0.0006095503
-0.000744296932
-0.000606979037
-0.000507126652
-0.00048518858
-0.000596320129
-0.000745425889
-0.00058979626
-0.000526030369
-0.000602373665
-0.000746815221
-0.000589632934
-0.000537889809
-0.000608576702
-0.000744490455
-0.000595892047
-0.000553410274
-0.000588601698
-0.000730019048
-0.000749916961
-0.000737158562
-0.000582754097
-0.00051241379
-0.000539711572
-0.000511862054
-0.000587284072
-0.000743196184
-0.000755009594
-0.0005567342
-0.000504858556
-0.000605634547
-0.000743823907
-0.000598920055
-0.00056147393
-0.000602062851
-0.000747506502
-0.000607257587
-0.000573354368
-0.000592116482
-0.00074728431
-0.000752575448
-0.000548611532
-0.000488557726
-0.000593398452
-0.000739731775
-0.000750518223
-0.000550943373
-0.000484490331
-0.000594965978
-0.000737136297
-0.000735337011
-0.000537432893
-0.00050143595
-0.00050416258
-0.000598807863
-0.000746261366
-0.000732108201
-0.000745389533
-0.000724247702
-0.000551934389
-0.000472935099
-0.000591414353
-0.000740122708
-0.000660242166
-0.000542045087
-0.000605491575
-0.000746948446
-0.000750270456
-0.000543176323
-0.000470177561
-0.000593905555
-0.000740430493
-0.000752338329
-0.000549158236
-0.000482951112
-0.000593495132
-0.000740570976
-0.000752247845
-0.000556231853
-0.000489669751
-0.000592678052
-0.000742143928
-0.000753281352
-0.00055863962
-0.000498623404
-0.000589518418
-0.000746090136
-0.000749903272
-0.00059675178
-0.000525820311
)
;

boundaryField
{
    closed
    {
        type            calculated;
        value           nonuniform List<scalar> 0();
    }
    open
    {
        type            calculated;
        value           nonuniform List<scalar> 0();
    }
    sides
    {
        type            empty;
    }
    procBoundary3to2
    {
        type            processor;
        value           uniform -0.000523739562;
    }
    procBoundary3to4
    {
        type            processor;
        value           uniform -0.000553327439;
    }
}


// ************************************************************************* //
