/*--------------------------------*- C++ -*----------------------------------*\
| =========                 |                                                 |
| \\      /  F ield         | OpenFOAM: The Open Source CFD Toolbox           |
|  \\    /   O peration     | Version:  2306                                  |
|   \\  /    A nd           | Website:  www.openfoam.com                      |
|    \\/     M anipulation  |                                                 |
\*---------------------------------------------------------------------------*/
FoamFile
{
    version     2.0;
    format      ascii;
    arch        "LSB;label=32;scalar=64";
    class       volScalarField;
    location    "0.00142";
    object      prefDPV_T;
}
// * * * * * * * * * * * * * * * * * * * * * * * * * * * * * * * * * * * * * //

dimensions      [1 -1 -1 -1 0 0 0];

internalField   nonuniform List<scalar> 
531
(
6.11421388e-10
6.08940648e-10
5.96506915e-10
5.89902809e-10
5.89818054e-10
6.1137974e-10
6.08969323e-10
5.96062557e-10
5.89771637e-10
5.89690661e-10
6.11350069e-10
6.09085982e-10
5.95182923e-10
5.89501155e-10
5.89283156e-10
6.11791492e-10
6.09029113e-10
5.93052283e-10
5.90589798e-10
6.10169191e-10
6.08776102e-10
5.93004145e-10
5.90864241e-10
6.11948125e-10
6.08862994e-10
5.94523374e-10
5.89523403e-10
5.893118e-10
6.11502606e-10
6.08881504e-10
5.94431647e-10
5.89968379e-10
5.89663708e-10
5.90388305e-10
6.11360132e-10
6.08836305e-10
6.09670432e-10
6.09142643e-10
6.08677644e-10
6.09104788e-10
5.94437068e-10
5.8933445e-10
5.88717386e-10
5.88828461e-10
6.12471814e-10
6.09588605e-10
5.93837119e-10
5.8897705e-10
5.8868784e-10
6.12258872e-10
6.0860633e-10
6.08870476e-10
5.95762981e-10
5.89745459e-10
5.89373785e-10
6.11749866e-10
6.08830477e-10
5.93651395e-10
5.91009185e-10
6.1191101e-10
6.08710428e-10
5.96503182e-10
5.90408245e-10
5.90080636e-10
5.8893152e-10
5.88717093e-10
6.07023113e-10
6.0924013e-10
6.09954285e-10
6.0875729e-10
6.08978544e-10
6.00215391e-10
5.90073825e-10
5.89731868e-10
6.10916012e-10
6.09063163e-10
5.96468259e-10
5.89698223e-10
5.89497285e-10
6.11158424e-10
6.09047875e-10
5.97307882e-10
5.8984696e-10
5.89631241e-10
6.11224194e-10
6.08954732e-10
5.97984003e-10
5.89966813e-10
5.89776939e-10
6.11503284e-10
6.08867656e-10
5.99081356e-10
5.9023218e-10
5.89974271e-10
6.11467319e-10
6.08589713e-10
5.99505908e-10
5.90580451e-10
5.89825183e-10
5.8947918e-10
6.12188058e-10
6.08653598e-10
5.9307693e-10
5.90790364e-10
6.11852836e-10
6.08634684e-10
5.9631979e-10
5.89979575e-10
5.89794941e-10
6.11884789e-10
6.08889465e-10
5.97107035e-10
5.89783228e-10
5.89639977e-10
6.11656413e-10
6.08974479e-10
5.97368122e-10
5.89577728e-10
5.89460633e-10
6.11257571e-10
6.08479207e-10
6.0875015e-10
5.97777335e-10
5.90294347e-10
5.893721e-10
5.8912909e-10
6.12130277e-10
6.0883105e-10
5.92136616e-10
5.9044594e-10
6.12043765e-10
6.08828015e-10
5.95503281e-10
5.89735976e-10
5.89552213e-10
6.12397641e-10
6.08983712e-10
5.98116699e-10
5.89906737e-10
5.89675506e-10
6.11362016e-10
6.08970247e-10
5.99000851e-10
5.89955518e-10
5.89667459e-10
6.09745305e-10
6.08904558e-10
6.00036446e-10
5.90670741e-10
5.90466877e-10
6.09043228e-10
6.0880357e-10
6.05936024e-10
5.90542068e-10
5.89980742e-10
6.05326429e-10
6.09484217e-10
6.00832194e-10
5.90150374e-10
5.89570525e-10
6.03106373e-10
6.09824387e-10
6.02999679e-10
5.90335413e-10
5.89498553e-10
6.00925691e-10
6.09806619e-10
5.98223335e-10
5.91085772e-10
6.02314621e-10
6.09509691e-10
6.03354595e-10
5.91854385e-10
5.90000665e-10
5.89657666e-10
5.98314875e-10
6.10504064e-10
6.06595867e-10
5.90969287e-10
5.90051482e-10
5.97798791e-10
6.10590962e-10
6.08752462e-10
5.90980901e-10
5.89831425e-10
5.96561655e-10
6.10717787e-10
6.01067795e-10
5.91128015e-10
5.98513982e-10
6.10411046e-10
6.0647699e-10
5.90680696e-10
5.89566746e-10
5.95343662e-10
6.10903412e-10
6.01775906e-10
5.91131624e-10
5.97696915e-10
6.10314638e-10
6.08248263e-10
5.91145639e-10
5.90023482e-10
5.95326264e-10
6.10829108e-10
6.09722675e-10
5.91109188e-10
5.8987662e-10
5.94603073e-10
6.1095582e-10
6.10275322e-10
5.90989793e-10
5.89705959e-10
5.94165104e-10
6.10890619e-10
6.03664734e-10
5.91252343e-10
5.96379732e-10
6.10180485e-10
6.10383917e-10
5.91574547e-10
5.90119081e-10
5.94318929e-10
6.10704452e-10
6.11345988e-10
5.9140184e-10
5.89953709e-10
5.93761974e-10
6.10955499e-10
6.11034689e-10
5.9071645e-10
5.89266585e-10
5.92113873e-10
6.11790693e-10
6.08999928e-10
6.09906328e-10
6.08749868e-10
6.07365215e-10
5.91444952e-10
5.90076492e-10
5.90066708e-10
5.88970129e-10
5.88483613e-10
5.9064293e-10
6.11857881e-10
6.08578893e-10
6.03514074e-10
5.90953521e-10
5.94628682e-10
6.1019191e-10
6.09394433e-10
5.9075712e-10
5.89423419e-10
5.92721177e-10
6.10643969e-10
6.0500999e-10
5.90789072e-10
5.9494318e-10
6.09784425e-10
6.04247183e-10
5.91088601e-10
5.95260168e-10
6.09473458e-10
6.10507968e-10
5.92548399e-10
5.90792677e-10
5.96482332e-10
6.09469737e-10
6.09194689e-10
5.93821045e-10
5.90917793e-10
5.89476603e-10
5.88970428e-10
5.91042257e-10
6.11464335e-10
6.088646e-10
6.09991393e-10
6.08912313e-10
6.03918133e-10
5.907746e-10
5.89661293e-10
5.89443522e-10
5.92274171e-10
6.10125825e-10
6.09522707e-10
5.92614415e-10
5.9002374e-10
5.93503739e-10
6.09813949e-10
6.10059187e-10
5.91260608e-10
5.89587376e-10
5.93276712e-10
6.09911066e-10
6.06601446e-10
5.90901218e-10
5.94570984e-10
6.09162036e-10
6.10953803e-10
5.90970854e-10
5.89615929e-10
5.92936055e-10
6.09779488e-10
6.10177059e-10
5.90804136e-10
5.89394965e-10
5.93068868e-10
6.09838837e-10
6.06730451e-10
5.90837533e-10
5.94397936e-10
6.09052035e-10
6.10517093e-10
5.91045504e-10
5.89619943e-10
5.92976473e-10
6.09592078e-10
6.09723151e-10
5.9109841e-10
5.89509285e-10
5.92813333e-10
6.09545594e-10
6.09347639e-10
5.91602126e-10
5.89615961e-10
5.93531378e-10
6.09407021e-10
6.07923598e-10
5.91176738e-10
5.94861782e-10
6.08655841e-10
6.09908768e-10
5.92693279e-10
5.90049216e-10
5.89584646e-10
5.93019678e-10
6.09473997e-10
6.05256311e-10
5.9033956e-10
5.94663545e-10
6.09154881e-10
6.02756837e-10
5.90652797e-10
5.95685651e-10
6.10064394e-10
6.07942119e-10
6.09692683e-10
5.92078869e-10
5.90396972e-10
5.8978528e-10
5.89307788e-10
5.91988383e-10
6.09532442e-10
6.11365609e-10
5.90352997e-10
5.89056202e-10
5.92789145e-10
6.09639576e-10
6.05635445e-10
5.90457223e-10
5.95309238e-10
6.08976486e-10
6.03700702e-10
5.90607948e-10
5.94994896e-10
6.08787474e-10
6.11304533e-10
5.90565641e-10
5.89406648e-10
5.94092594e-10
6.09462618e-10
6.0430926e-10
5.90498659e-10
5.95324875e-10
6.08838758e-10
6.11818822e-10
5.90364423e-10
5.89264461e-10
5.94301738e-10
6.0944304e-10
6.03040274e-10
5.9033074e-10
5.96099948e-10
6.0884297e-10
6.08996694e-10
5.90142963e-10
5.89138526e-10
5.94800263e-10
6.09362801e-10
6.01507644e-10
5.90156473e-10
5.97287361e-10
6.08836529e-10
6.06003978e-10
5.89867722e-10
5.88919093e-10
5.95309898e-10
6.09274854e-10
5.99466707e-10
5.89877138e-10
5.99548256e-10
6.08783121e-10
5.9719294e-10
5.90026809e-10
6.01534083e-10
6.08676772e-10
5.96381124e-10
5.90166453e-10
6.01823183e-10
6.08694929e-10
6.02332725e-10
5.89689274e-10
5.89063556e-10
5.98362045e-10
6.09016072e-10
5.95902481e-10
5.89996748e-10
6.05847342e-10
6.08591808e-10
5.94100365e-10
5.90292239e-10
6.06347434e-10
6.08617454e-10
6.01197358e-10
5.89795286e-10
5.89416511e-10
6.01809483e-10
6.08787077e-10
5.94651844e-10
5.90550706e-10
6.07067669e-10
6.08472409e-10
6.05242439e-10
5.90251233e-10
5.89881828e-10
6.01947347e-10
6.08701392e-10
6.050382e-10
5.90782701e-10
5.89558121e-10
5.89492732e-10
6.00846584e-10
6.08969872e-10
6.00350321e-10
5.89321414e-10
5.89004263e-10
5.98700057e-10
6.09042516e-10
5.96955607e-10
5.8973053e-10
5.99923554e-10
6.08758494e-10
5.96910868e-10
5.89919746e-10
6.00935273e-10
6.08665365e-10
5.98625533e-10
5.90427561e-10
5.96588386e-10
6.09885483e-10
6.07950693e-10
6.10545138e-10
5.90645916e-10
5.89976472e-10
5.89862794e-10
5.89711765e-10
5.95332078e-10
6.08759489e-10
6.08713163e-10
5.90289404e-10
5.89403118e-10
6.00245058e-10
6.08761615e-10
5.98992967e-10
5.9038525e-10
5.99584132e-10
6.08359113e-10
6.00460236e-10
5.9056068e-10
5.95712565e-10
6.08357313e-10
6.0925946e-10
5.90118637e-10
5.89281479e-10
5.9651543e-10
6.08864306e-10
6.09665011e-10
5.90245273e-10
5.89297256e-10
5.95479412e-10
6.09003573e-10
6.11432039e-10
5.90100102e-10
5.89550128e-10
5.89466517e-10
5.92995824e-10
6.09047381e-10
6.0960402e-10
6.0882626e-10
6.11962795e-10
5.90160983e-10
5.89219394e-10
5.9493608e-10
6.09028124e-10
6.07087593e-10
5.90080091e-10
5.92023353e-10
6.08637221e-10
6.09464579e-10
5.90008531e-10
5.88989667e-10
5.93574159e-10
6.09018434e-10
6.09235032e-10
5.90206636e-10
5.89172452e-10
5.94182526e-10
6.0891833e-10
6.09159951e-10
5.90339979e-10
5.89270126e-10
5.94302271e-10
6.08815887e-10
6.08998611e-10
5.90318867e-10
5.89341181e-10
5.94756884e-10
6.0845099e-10
6.08488294e-10
5.9117286e-10
5.89850324e-10
)
;

boundaryField
{
    closed
    {
        type            calculated;
        value           nonuniform List<scalar> 0();
    }
    open
    {
        type            calculated;
        value           nonuniform List<scalar> 0();
    }
    sides
    {
        type            empty;
    }
    procBoundary3to2
    {
        type            processor;
        value           uniform 5.89874694e-10;
    }
    procBoundary3to4
    {
        type            processor;
        value           uniform 5.90038102e-10;
    }
}


// ************************************************************************* //
