/*--------------------------------*- C++ -*----------------------------------*\
| =========                 |                                                 |
| \\      /  F ield         | OpenFOAM: The Open Source CFD Toolbox           |
|  \\    /   O peration     | Version:  2306                                  |
|   \\  /    A nd           | Website:  www.openfoam.com                      |
|    \\/     M anipulation  |                                                 |
\*---------------------------------------------------------------------------*/
FoamFile
{
    version     2.0;
    format      ascii;
    arch        "LSB;label=32;scalar=64";
    class       volScalarField;
    location    "0.00106";
    object      prefDZ_H;
}
// * * * * * * * * * * * * * * * * * * * * * * * * * * * * * * * * * * * * * //

dimensions      [1 -1 -1 0 0 0 0];

internalField   nonuniform List<scalar> 
531
(
0.000107843679
0.000105956402
0.000107052002
0.000110392793
0.000110188182
0.000107874162
0.00010582182
0.00010686207
0.000110200464
0.000110256485
0.000107988548
0.000106492411
0.000106743985
0.000108134107
0.00011030337
0.000110499902
0.000107251075
0.000107827394
0.000110295688
0.000108564408
0.000106456509
0.000106552897
0.00010809686
0.000110273958
0.00011054809
0.000107173682
0.000107782714
0.000110231241
0.000108098917
0.000105610348
0.00010645649
0.000109976177
0.000110212698
0.000107839611
0.000105551858
0.000106637018
0.00010999498
0.000110245698
0.000107852296
0.00010589404
0.000106895541
0.000109565161
0.000110324666
0.000107876077
0.000107190909
0.000110292903
0.000110412486
0.000106060251
0.000106128024
0.000110378502
0.000110197652
0.000107791931
0.000106248639
0.000107742168
0.000110349317
0.000110400398
0.000107913714
0.000107018613
0.000107218179
0.000107013926
0.000107795583
0.000110434117
0.000110418548
0.000107877678
0.000106965301
0.000107763387
0.000110323508
0.00011047805
0.000106745504
0.000106380585
0.000108230778
0.000110305031
0.000110458955
0.000107797066
0.000107290349
0.000107820187
0.000107849488
0.000108302426
0.000110371963
0.000108597515
0.000107040773
0.000107813394
0.000110347766
0.000109115067
0.000106332328
0.000106088643
0.000108064201
0.000110273288
0.000108482078
0.000107021257
0.000107780696
0.000110230172
0.000108494453
0.000106178581
0.000106449913
0.000109146068
0.000110313746
0.000107941522
0.000106910185
0.000107821154
0.000110215455
0.000108148473
0.000106005492
0.00010662904
0.000109505434
0.000110345985
0.000107906773
0.000107028987
0.000107885361
0.000110186527
0.000108139156
0.000106107646
0.000106868862
0.000110289354
0.000110247984
0.000107836469
0.000106052613
0.000106967325
0.000110226816
0.000110243813
0.000107851064
0.000106024558
0.000106926832
0.000110198426
0.00011024225
0.000107855026
0.000105989366
0.000106861981
0.000110144164
0.000110240579
0.000107865255
0.000105969506
0.000106807323
0.000110097761
0.000110251315
0.000107883195
0.000106132758
0.000106879571
0.000109587212
0.000110341297
0.000108078553
0.000107316772
0.000107832919
0.000110151719
0.000108153901
0.000106139713
0.000106692309
0.000109660692
0.000110336793
0.000108114867
0.000107365208
0.000107820174
0.000110121877
0.000108149815
0.000106059594
0.000106448842
0.000109888543
0.000110325633
0.000107909902
0.000106756105
0.000106351765
0.000106959326
0.000109480695
0.000110183606
0.000108074762
0.000106343809
0.000106678547
0.000109831706
0.00011031327
0.00010826751
0.000107310802
0.000107763699
0.000110076461
0.000108555103
0.000106448531
0.000106401794
0.000108840693
0.000110258356
0.000108465385
0.000107092938
0.000107766147
0.000110103468
0.000108928325
0.00010690883
0.000107667556
0.000110042125
0.000110445975
0.00010767153
0.000106492697
0.000107831533
0.00011002708
0.000108937872
0.000106866827
0.000106396607
0.000107920703
0.000110102372
0.000109001073
0.000106929739
0.000106475661
0.000108005202
0.000110094594
0.000109064017
0.000106972629
0.000106542272
0.000108274225
0.000110192868
0.000108646358
0.000107024101
0.000106162847
0.000107479474
0.000109951946
0.000110329806
0.000108577489
0.00010701956
0.000106632786
0.000108009827
0.000110118573
0.000109440082
0.000106985492
0.000106678027
0.000108322429
0.000110214831
0.000109407025
0.000107261051
0.000107825566
0.000110142737
0.000109773031
0.000106810197
0.000106512393
0.00010795118
0.000110127501
0.000109588437
0.000106804181
0.000106568025
0.000107961637
0.000110140686
0.000109576156
0.000106684339
0.000106464631
0.000107842954
0.000110171161
0.000109549504
0.000107649057
0.000107868471
0.000110156642
0.000109575522
0.000106723437
0.000106783276
0.000108052619
0.000110214355
0.000109879243
0.00010744586
0.000106569194
0.000106938886
0.000106793385
0.00010773207
0.000110324735
0.00011032319
0.000108615352
0.000107590242
0.000107850031
0.000110186606
0.000109276995
0.000106931324
0.000107051253
0.000108056078
0.000110157759
0.000108880042
0.000107175831
0.000107813892
0.000110235568
0.000109362525
0.000106606231
0.00010668461
0.000107980877
0.000110133725
0.000108983916
0.000106606245
0.000106778207
0.000108044339
0.000110137799
0.000108605227
0.000107102204
0.000107771259
0.000110227377
0.000108502316
0.000107050795
0.000107814312
0.000110227429
0.000108646172
0.000106878035
0.000107294236
0.000108304334
0.000110134159
0.000108347989
0.000106619849
0.000107120359
0.000108286239
0.000110139242
0.000108149513
0.000106558664
0.000107188138
0.000108353544
0.000110137081
0.000108008735
0.000106561221
0.000107245952
0.00010837481
0.000110175101
0.000107932174
0.000107498529
0.00010808983
0.000110155662
0.000107802973
0.000106356028
0.000107228747
0.000108486972
0.000110155386
0.000107797776
0.000107630219
0.00010837366
0.000110145536
0.00010774439
0.000106315658
0.000107317128
0.000108704212
0.00011016897
0.000107768515
0.000107712626
0.000108640415
0.000110152772
0.000107729232
0.000106280554
0.000107426169
0.000109035032
0.000110168646
0.000107789377
0.000107795806
0.000108808014
0.000110138194
0.000107757476
0.000106447457
0.000107575864
0.000109189991
0.000110162725
0.000107808916
0.000107854163
0.000108846908
0.000110124347
0.000107735372
0.000106268946
0.000107358976
0.000109069093
0.000110129368
0.000107766193
0.000106678384
0.00010779834
0.000110054261
0.000110038741
0.00010789314
0.000107404038
0.000109099461
0.000109904409
0.000107798305
0.000106765404
0.000108375103
0.000110083901
0.000107814642
0.000107352069
0.000107845809
0.000110180013
0.00010873195
0.000106943786
0.00010718973
0.000108516844
0.000110168114
0.000108081325
0.000106854744
0.000107421808
0.000108556486
0.000110188642
0.00010813906
0.000106906595
0.000107455611
0.000108557459
0.000110173262
0.00010815302
0.00010679136
0.000107322071
0.000108382768
0.000110160592
0.000108441013
0.000106579736
0.000106539893
0.000107647048
0.000108251235
0.000110307612
0.000110087323
0.000107988261
0.000106592004
0.000107023861
0.000108251945
0.000110173806
0.000108434157
0.000106456482
0.000106835384
0.000108246914
0.000110095059
0.000107999765
0.000107697275
0.000107938142
0.000110268383
0.000108441333
0.00010616154
0.000106531617
0.000108101908
0.000110125901
0.000108281945
0.000107710616
0.000107915921
0.000110088198
0.000107840041
0.000106884385
0.000107806748
0.000110183619
0.000108482852
0.000106440974
0.000107761281
0.000110283131
0.000109707808
0.000107075685
0.00010677779
0.00010790801
0.000110204976
0.000109116999
0.000106747176
0.000107773133
0.000110385707
0.000109920953
0.000107875983
0.000106787506
0.000107801053
0.000110362181
0.000110007053
0.000107261478
0.000106441223
0.000107758566
0.000110385542
0.000110083693
0.000107544016
0.000106386821
0.000107749987
0.000110368827
0.000110104314
0.000106922014
0.000105535935
0.000107285813
0.000110332033
0.000109981823
0.000107089763
0.000107474548
0.000110412475
0.000110113175
0.000107758632
0.000106223568
0.000107229505
0.000109318906
0.000110380039
0.000110094369
0.000107822956
0.000106550003
0.000106632457
0.00010783056
0.000110339136
0.000110189614
0.000107788083
0.000106639071
0.000107186316
0.000110354157
0.000110315177
0.000107877663
0.000107400032
0.00011031414
0.000110256238
0.000107785855
0.000105995871
0.000106378692
0.00011027149
0.000110353218
0.000107897211
0.000107120842
0.000110186059
0.000110369018
0.000107777812
0.000107083293
0.000110189174
0.000110292377
0.000107833262
0.000106240985
0.000106409928
0.00011021918
0.000110277618
0.000107861339
0.000106494824
0.00010654174
0.000110205425
0.000110286937
0.000107878641
0.000106550091
0.000106582042
0.000110154236
0.000110292685
0.000107890378
0.000106554643
0.000106578384
0.000110124661
0.000110294508
0.00010789164
0.000106527021
0.000106544788
0.000110114626
0.000110296316
0.000107890562
0.000106500456
0.000106516271
0.000110113782
0.000110297973
0.000107892833
0.000106507897
0.000106523343
0.000110116845
)
;

boundaryField
{
    closed
    {
        type            calculated;
        value           nonuniform List<scalar> 0();
    }
    open
    {
        type            calculated;
        value           nonuniform List<scalar> 0();
    }
    sides
    {
        type            empty;
    }
    procBoundary1to0
    {
        type            processor;
        value           uniform 0.000110282532;
    }
    procBoundary1to2
    {
        type            processor;
        value           uniform 0.000110297839;
    }
}


// ************************************************************************* //
