/*--------------------------------*- C++ -*----------------------------------*\
| =========                 |                                                 |
| \\      /  F ield         | OpenFOAM: The Open Source CFD Toolbox           |
|  \\    /   O peration     | Version:  2306                                  |
|   \\  /    A nd           | Website:  www.openfoam.com                      |
|    \\/     M anipulation  |                                                 |
\*---------------------------------------------------------------------------*/
FoamFile
{
    version     2.0;
    format      ascii;
    arch        "LSB;label=32;scalar=64";
    class       volScalarField;
    location    "0.00154";
    object      p;
}
// * * * * * * * * * * * * * * * * * * * * * * * * * * * * * * * * * * * * * //

dimensions      [1 -1 -2 0 0 0 0];

internalField   nonuniform List<scalar> 
531
(
101626.564
101626.845
101627.14
101627.502
101627.702
101627.828
101627.804
101627.64
101627.389
101626.812
101626.038
101625.026
101623.797
101622.406
101620.6
101618.523
101616.169
101613.788
101611.272
101608.164
101604.888
101601.725
101598.397
101594.437
101590.376
101586.159
101581.782
101576.976
101572.031
101567.003
101561.952
101556.938
101551.585
101546.26
101541.216
101535.837
101530.603
101525.97
101521.666
101517.596
101513.668
101509.813
101506.066
101502.215
101498.491
101494.754
101491.012
101487.587
101484.258
101480.827
101477.322
101473.812
101470.677
101467.523
101464.475
101461.447
101458.485
101455.575
101452.965
101450.395
101447.954
101445.853
101443.871
101441.994
101440.246
101438.541
101436.93
101435.415
101434.015
101432.896
101431.879
101431.003
101430.243
101429.65
101429.258
101429.034
101428.854
101428.818
101429.001
101429.361
101429.792
101430.383
101431.054
101431.936
101432.879
101433.795
101434.736
101435.705
101436.843
101438.024
101439.106
101440.105
101441.017
101442.165
101443.928
101444.856
101445.406
101445.921
101446.485
101447.038
101447.475
101447.768
101447.961
101447.978
101447.917
101447.647
101447.281
101446.7
101445.948
101445.021
101443.858
101442.602
101441.153
101439.519
101437.703
101435.669
101433.637
101431.462
101429.126
101426.644
101423.99
101421.423
101418.759
101415.995
101413.15
101410.256
101406.944
101403.596
101400.529
101397.469
101394.446
101391.169
101387.971
101384.941
101381.897
101378.946
101376.03
101373.452
101370.988
101368.689
101366.532
101364.463
101362.728
101361.124
101359.692
101358.435
101357.252
101356.367
101355.551
101354.882
101354.406
101353.995
101353.653
101353.504
101353.393
101353.449
101353.56
101353.771
101353.971
101354.305
101354.69
101355.103
101355.582
101356.021
101356.573
101357.148
101357.715
101358.283
101358.75
101359.28
101359.804
101360.305
101360.66
101361.042
101361.42
101361.61
101360.759
101362.88
101362.199
101362.164
101362.198
101362.132
101362.049
101361.864
101361.698
101361.491
101361.241
101361.001
101360.736
101360.497
101360.288
101360.014
101359.763
101359.587
101359.422
101359.258
101359.148
101359.019
101358.935
101358.913
101358.801
101358.702
101358.66
101358.602
101358.514
101358.475
101358.307
101358.219
101358.124
101358.019
101357.973
101357.83
101357.773
101357.732
101357.703
101357.703
101357.695
101357.737
101357.836
101357.835
101357.844
101357.908
101357.943
101357.934
101357.955
101357.789
101357.666
101357.495
101357.284
101357.131
101356.856
101356.666
101356.441
101356.275
101356.21
101356.04
101355.904
101355.762
101355.564
101355.516
101356.576
101356.505
101356.674
101356.934
101355.764
101359.2
101358.67
101359.293
101360.307
101361.434
101362.467
101363.572
101364.896
101366.287
101367.753
101369.206
101370.713
101372.362
101374.117
101375.683
101377.455
101379.388
101381.345
101383.154
101384.987
101386.989
101389.017
101391.103
101393.14
101395.083
101397.077
101399.239
101401.47
101403.703
101405.899
101408.061
101410.101
101411.96
101413.746
101415.415
101417.025
101418.541
101419.963
101421.224
101422.229
101423.219
101424.112
101424.921
101425.982
101425.857
101426.407
101426.76
101427.007
101427.196
101427.129
101427.092
101426.982
101426.78
101426.511
101426.119
101425.741
101425.291
101424.866
101424.221
101423.608
101422.992
101422.127
101422.026
101421.159
101420.585
101419.871
101419.221
101418.497
101417.829
101417.2
101416.59
101416.07
101415.462
101414.963
101414.476
101414.068
101414.35
101413.032
101413.083
101412.902
101412.67
101412.523
101412.27
101412.13
101411.953
101411.765
101411.407
101411.084
101410.679
101410.143
101409.976
101408.951
101408.535
101407.867
101407.103
101406.348
101405.416
101404.572
101403.594
101402.608
101401.516
101400.396
101399.223
101398.032
101396.781
101395.46
101394.171
101392.933
101391.542
101390.273
101389.189
101388.939
101385.84
101384.96
101383.822
101382.492
101381.273
101379.951
101378.794
101377.542
101376.335
101375.178
101374.769
101372.076
101372.229
101371.495
101370.607
101370.059
101369.601
101369.308
101368.902
101368.66
101368.458
101368.346
101368.317
101368.209
101368.413
101368.858
101369.542
101370.061
101370.69
101371.353
101372.299
101373.316
101374.126
101375.071
101376.164
101377.493
101378.537
101379.581
101380.879
101383.757
101382.952
101385.118
101386.491
101387.474
101388.501
101389.413
101390.552
101391.676
101392.701
101393.446
101394.331
101395.226
101396.066
101396.642
101397.21
101397.352
101398.045
101398.445
101398.939
101398.903
101398.971
101399.051
101398.867
101398.832
101398.643
101398.378
101397.933
101397.422
101396.986
101396.423
101395.833
101395.035
101394.377
101393.654
101392.867
101392.115
101391.229
101390.456
101389.665
101388.88
101388.041
101387.341
101386.569
101385.681
101385.284
101384.008
101383.475
101382.715
101381.938
101380.978
101379.465
101380.066
101378.809
101377.89
101377.154
101376.352
101375.723
101375.045
101374.387
101373.635
101372.995
101372.198
101371.002
101372.22
101371.517
101371.084
101370.806
101370.68
101370.64
101370.5
101369.157
101371.572
101370.607
101370.622
101370.82
101371.037
101371.246
101371.472
101371.789
101372.177
101372.44
101372.89
101373.388
101373.898
101374.32
101374.76
101375.23
101375.76
101377.313
101376.504
101377.666
101378.321
101378.926
101379.232
101380.213
101380.413
101380.998
101381.58
101382.164
101382.765
101383.375
101383.973
101384.466
101384.748
101385.351
101385.755
101386.204
101386.51
101386.955
101387.437
101387.929
101388.259
101388.694
101389.121
101389.52
101389.899
101390.339
101390.724
101391.259
101391.763
101391.724
101392.993
101392.876
101393.276
101393.894
101394.275
101394.88
101395.083
101395.689
101396.247
101396.808
101397.407
101397.924
101398.485
)
;

boundaryField
{
    closed
    {
        type            zeroGradient;
    }
    open
    {
        type            waveTransmissive;
        gamma           1.25;
        fieldInf        101325;
        lInf            1;
        value           nonuniform List<scalar> 0();
    }
    sides
    {
        type            empty;
    }
    procBoundary3to2
    {
        type            processor;
        value           uniform 101626.266;
    }
    procBoundary3to4
    {
        type            processor;
        value           uniform 101399.119;
    }
}


// ************************************************************************* //
