/*--------------------------------*- C++ -*----------------------------------*\
| =========                 |                                                 |
| \\      /  F ield         | OpenFOAM: The Open Source CFD Toolbox           |
|  \\    /   O peration     | Version:  2306                                  |
|   \\  /    A nd           | Website:  www.openfoam.com                      |
|    \\/     M anipulation  |                                                 |
\*---------------------------------------------------------------------------*/
FoamFile
{
    version     2.0;
    format      ascii;
    arch        "LSB;label=32;scalar=64";
    class       volScalarField;
    location    "0.00016";
    object      prefDZ_H2O;
}
// * * * * * * * * * * * * * * * * * * * * * * * * * * * * * * * * * * * * * //

dimensions      [1 -1 -1 0 0 0 0];

internalField   nonuniform List<scalar> 
531
(
-7.52080174e-07
-7.52080165e-07
-7.52079945e-07
-7.52079894e-07
-7.52080024e-07
-7.52080117e-07
-7.52080062e-07
-7.52079957e-07
-7.52079969e-07
-7.52080059e-07
-7.52080062e-07
-7.52080009e-07
-7.52079994e-07
-7.52080021e-07
-7.52080037e-07
-7.52080029e-07
-7.52080015e-07
-7.52080015e-07
-7.52080019e-07
-7.52080024e-07
-7.52080029e-07
-7.52080024e-07
-7.52080012e-07
-7.52080017e-07
-7.52080033e-07
-7.52080028e-07
-7.52080006e-07
-7.52080013e-07
-7.52080041e-07
-7.52080035e-07
-7.52079998e-07
-7.52080003e-07
-7.52080046e-07
-7.52080045e-07
-7.52079999e-07
-7.52079997e-07
-7.52080037e-07
-7.52080044e-07
-7.52080016e-07
-7.52080005e-07
-7.52080016e-07
-7.5208003e-07
-7.52080031e-07
-7.52080031e-07
-7.52080012e-07
-7.52079996e-07
-7.52080023e-07
-7.52080058e-07
-7.52080033e-07
-7.52079979e-07
-7.52079997e-07
-7.52080062e-07
-7.52080055e-07
-7.52079988e-07
-7.52079989e-07
-7.52080043e-07
-7.52080046e-07
-7.52080011e-07
-7.52080005e-07
-7.52080024e-07
-7.52080031e-07
-7.52080027e-07
-7.52080015e-07
-7.52080012e-07
-7.52080019e-07
-7.52080035e-07
-7.52080034e-07
-7.52080006e-07
-7.52080001e-07
-7.5208003e-07
-7.52080047e-07
-7.52080029e-07
-7.52079996e-07
-7.52079999e-07
-7.52080035e-07
-7.52080048e-07
-7.52080028e-07
-7.52079997e-07
-7.52080001e-07
-7.5208004e-07
-7.52080041e-07
-7.52080013e-07
-7.52080009e-07
-7.52080027e-07
-7.52080028e-07
-7.5208001e-07
-7.52080014e-07
-7.52080044e-07
-7.52080042e-07
-7.5207999e-07
-7.52079987e-07
-7.52080047e-07
-7.52080068e-07
-7.52080019e-07
-7.52079972e-07
-7.52079993e-07
-7.52080067e-07
-7.52080066e-07
-7.52079999e-07
-7.52079973e-07
-7.5208002e-07
-7.52080067e-07
-7.52080042e-07
-7.52079982e-07
-7.52079992e-07
-7.52080053e-07
-7.52080052e-07
-7.5208e-07
-7.52079994e-07
-7.52080033e-07
-7.52080044e-07
-7.52080019e-07
-7.52080005e-07
-7.52080017e-07
-7.5208003e-07
-7.52080029e-07
-7.52080022e-07
-7.52080016e-07
-7.52080015e-07
-7.5208002e-07
-7.52080029e-07
-7.52080029e-07
-7.52080018e-07
-7.52080012e-07
-7.52080015e-07
-7.52080029e-07
-7.52080032e-07
-7.52080021e-07
-7.52080011e-07
-7.52080017e-07
-7.52080028e-07
-7.52080027e-07
-7.52080019e-07
-7.52080019e-07
-7.52080022e-07
-7.5208002e-07
-7.52080018e-07
-7.52080026e-07
-7.5208003e-07
-7.5208002e-07
-7.52080009e-07
-7.52080012e-07
-7.52080033e-07
-7.52080041e-07
-7.52080026e-07
-7.52079993e-07
-7.52079996e-07
-7.5208005e-07
-7.52080062e-07
-7.5208001e-07
-7.52079971e-07
-7.5208001e-07
-7.52080074e-07
-7.52080059e-07
-7.52079974e-07
-7.52079974e-07
-7.52080052e-07
-7.52080069e-07
-7.5208001e-07
-7.52079978e-07
-7.52080017e-07
-7.52080056e-07
-7.52080036e-07
-7.52079997e-07
-7.52080005e-07
-7.52080037e-07
-7.52080035e-07
-7.52080012e-07
-7.52080012e-07
-7.52080028e-07
-7.5208003e-07
-7.52080015e-07
-7.52080012e-07
-7.52080025e-07
-7.52080033e-07
-7.52080024e-07
-7.5208001e-07
-7.52080011e-07
-7.52080029e-07
-7.52080036e-07
-7.52080024e-07
-7.52080002e-07
-7.52080008e-07
-7.52080047e-07
-7.52080046e-07
-7.52079995e-07
-7.52079986e-07
-7.52080045e-07
-7.52080067e-07
-7.52080008e-07
-7.52079969e-07
-7.52080022e-07
-7.52080073e-07
-7.52080034e-07
-7.52079976e-07
-7.5208e-07
-7.52080055e-07
-7.52080046e-07
-7.52080001e-07
-7.52080003e-07
-7.52080029e-07
-7.5208003e-07
-7.52080023e-07
-7.52080023e-07
-7.52080019e-07
-7.5208001e-07
-7.5208002e-07
-7.5208004e-07
-7.52080033e-07
-7.52079999e-07
-7.52080002e-07
-7.52080041e-07
-7.52080043e-07
-7.5208001e-07
-7.52080003e-07
-7.52080027e-07
-7.52080035e-07
-7.52080018e-07
-7.52080011e-07
-7.52080023e-07
-7.52080031e-07
-7.52080025e-07
-7.52080014e-07
-7.52080014e-07
-7.52080018e-07
-7.52080034e-07
-7.52080038e-07
-7.52080011e-07
-7.5207999e-07
-7.52080021e-07
-7.52080065e-07
-7.52080042e-07
-7.52079972e-07
-7.52079979e-07
-7.52080063e-07
-7.52080074e-07
-7.52080006e-07
-7.52079967e-07
-7.52080008e-07
-7.5208007e-07
-7.5208006e-07
-7.52079983e-07
-7.52079977e-07
-7.52080042e-07
-7.52080064e-07
-7.52080014e-07
-7.52079985e-07
-7.52080024e-07
-7.52080053e-07
-7.5208002e-07
-7.52079993e-07
-7.52080023e-07
-7.52080051e-07
-7.52080023e-07
-7.52079991e-07
-7.52080013e-07
-7.52080049e-07
-7.52080039e-07
-7.52079998e-07
-7.5208e-07
-7.52080038e-07
-7.52080041e-07
-7.52080012e-07
-7.52080002e-07
-7.52080027e-07
-7.52080044e-07
-7.52080021e-07
-7.52079993e-07
-7.52080012e-07
-7.52080055e-07
-7.52080047e-07
-7.52079987e-07
-7.52079987e-07
-7.52080047e-07
-7.52080059e-07
-7.52080011e-07
-7.52079986e-07
-7.52080019e-07
-7.5208005e-07
-7.52080031e-07
-7.52080004e-07
-7.52080013e-07
-7.52080028e-07
-7.52080025e-07
-7.52080019e-07
-7.52080026e-07
-7.52080026e-07
-7.52080009e-07
-7.5208001e-07
-7.52080039e-07
-7.52080039e-07
-7.52080005e-07
-7.52079999e-07
-7.5208003e-07
-7.52080043e-07
-7.52080027e-07
-7.52080007e-07
-7.52080007e-07
-7.52080018e-07
-7.52080037e-07
-7.52080043e-07
-7.52080017e-07
-7.52079987e-07
-7.52080009e-07
-7.52080062e-07
-7.52080054e-07
-7.52079984e-07
-7.5207998e-07
-7.52080042e-07
-7.52080066e-07
-7.52080024e-07
-7.5207998e-07
-7.52079999e-07
-7.52080056e-07
-7.52080054e-07
-7.5208e-07
-7.5207999e-07
-7.52080028e-07
-7.52080047e-07
-7.52080027e-07
-7.52080005e-07
-7.5208001e-07
-7.52080026e-07
-7.52080028e-07
-7.52080031e-07
-7.52080027e-07
-7.52080003e-07
-7.52080003e-07
-7.52080043e-07
-7.52080049e-07
-7.52080004e-07
-7.52079989e-07
-7.52080031e-07
-7.52080052e-07
-7.52080019e-07
-7.52079998e-07
-7.5208002e-07
-7.52080036e-07
-7.52080024e-07
-7.52080015e-07
-7.5208002e-07
-7.52080022e-07
-7.5208002e-07
-7.52080025e-07
-7.52080028e-07
-7.52080015e-07
-7.52080009e-07
-7.52080028e-07
-7.52080037e-07
-7.52080019e-07
-7.52080006e-07
-7.52080016e-07
-7.52080033e-07
-7.52080033e-07
-7.52080019e-07
-7.52080009e-07
-7.52080012e-07
-7.52080034e-07
-7.52080036e-07
-7.52080014e-07
-7.52080004e-07
-7.52080025e-07
-7.52080038e-07
-7.5208002e-07
-7.52080005e-07
-7.52080023e-07
-7.52080039e-07
-7.52080021e-07
-7.5208e-07
-7.52080019e-07
-7.52080049e-07
-7.52080034e-07
-7.52079991e-07
-7.52079995e-07
-7.52080047e-07
-7.52080054e-07
-7.52080016e-07
-7.52079988e-07
-7.52080002e-07
-7.5208005e-07
-7.52080053e-07
-7.52080014e-07
-7.52079986e-07
-7.52080008e-07
-7.52080056e-07
-7.52080051e-07
-7.52079992e-07
-7.52079987e-07
-7.52080039e-07
-7.52080057e-07
-7.52080014e-07
-7.52079987e-07
-7.52080021e-07
-7.52080054e-07
-7.52080028e-07
-7.52079991e-07
-7.52080012e-07
-7.52080049e-07
-7.52080034e-07
-7.52079998e-07
-7.52080008e-07
-7.5208004e-07
-7.52080033e-07
-7.52080008e-07
-7.52080013e-07
-7.52080031e-07
-7.52080027e-07
-7.52080012e-07
-7.52080018e-07
-7.52080034e-07
-7.52080027e-07
-7.52080007e-07
-7.52080012e-07
-7.52080038e-07
-7.52080036e-07
-7.52080004e-07
-7.52080003e-07
-7.52080037e-07
-7.52080043e-07
-7.5208001e-07
-7.52079998e-07
-7.52080027e-07
-7.52080045e-07
-7.52080023e-07
-7.5208e-07
-7.52080016e-07
-7.52080037e-07
-7.52080028e-07
-7.52080011e-07
-7.52080018e-07
-7.5208003e-07
-7.52080022e-07
-7.5208001e-07
-7.52080021e-07
-7.52080039e-07
-7.5208003e-07
-7.52079998e-07
-7.52080002e-07
-7.52080047e-07
-7.52080051e-07
-7.52080003e-07
-7.52079985e-07
-7.5208003e-07
-7.52080062e-07
-7.52080025e-07
-7.5207998e-07
-7.52080005e-07
-7.52080061e-07
-7.52080053e-07
-7.52079986e-07
-7.52079984e-07
-7.52080039e-07
-7.52080062e-07
-7.52080029e-07
-7.52079982e-07
-7.52079991e-07
-7.52080052e-07
-7.52080061e-07
-7.52080013e-07
-7.52079981e-07
-7.5208001e-07
-7.52080057e-07
-7.52080049e-07
-7.52079992e-07
-7.52079992e-07
-7.52080038e-07
-7.5208005e-07
-7.52080018e-07
-7.52079996e-07
-7.52080016e-07
-7.52080042e-07
-7.52080033e-07
-7.52080006e-07
-7.52080009e-07
-7.52080033e-07
-7.52080031e-07
-7.52080012e-07
-7.52080014e-07
-7.52080033e-07
-7.52080029e-07
-7.52080005e-07
-7.5208001e-07
-7.52080042e-07
-7.52080039e-07
-7.52079999e-07
-7.5208e-07
-7.5208004e-07
-7.52080041e-07
-7.52080012e-07
-7.52080009e-07
-7.52080023e-07
-7.52080023e-07
-7.52080021e-07
-7.52080033e-07
-7.52080032e-07
-7.52079996e-07
-7.52079995e-07
-7.52080055e-07
-7.52080066e-07
-7.52079991e-07
-7.5207996e-07
-7.52080037e-07
-7.52080092e-07
-7.5208003e-07
-7.52079953e-07
-7.52079989e-07
-7.52080077e-07
-7.52080064e-07
-7.52079987e-07
-7.52079991e-07
-7.52080038e-07
-7.52080029e-07
-7.52079988e-07
-7.52080031e-07
-7.52080128e-07
-7.52080048e-07
-7.52079792e-07
-7.52079841e-07
-7.52080387e-07
-7.52080412e-07
-7.52079663e-07
-7.52079402e-07
-7.52080201e-07
-7.52080812e-07
-7.52080161e-07
-7.52079181e-07
-7.52079532e-07
-7.52080777e-07
-7.52080701e-07
-7.52079499e-07
-7.52079384e-07
)
;

boundaryField
{
    closed
    {
        type            calculated;
        value           nonuniform List<scalar> 0();
    }
    open
    {
        type            calculated;
        value           nonuniform List<scalar> 0();
    }
    sides
    {
        type            empty;
    }
    procBoundary1to0
    {
        type            processor;
        value           uniform -7.52079911e-07;
    }
    procBoundary1to2
    {
        type            processor;
        value           uniform -7.52080246e-07;
    }
}


// ************************************************************************* //
