/*--------------------------------*- C++ -*----------------------------------*\
| =========                 |                                                 |
| \\      /  F ield         | OpenFOAM: The Open Source CFD Toolbox           |
|  \\    /   O peration     | Version:  2306                                  |
|   \\  /    A nd           | Website:  www.openfoam.com                      |
|    \\/     M anipulation  |                                                 |
\*---------------------------------------------------------------------------*/
FoamFile
{
    version     2.0;
    format      ascii;
    arch        "LSB;label=32;scalar=64";
    class       volScalarField;
    location    "0.00072";
    object      alpha;
}
// * * * * * * * * * * * * * * * * * * * * * * * * * * * * * * * * * * * * * //

dimensions      [1 -1 -1 0 0 0 0];

internalField   nonuniform List<scalar> 
531
(
3.68092967e-05
3.68271375e-05
3.53187247e-05
3.52633397e-05
3.68114141e-05
3.68263093e-05
3.54184163e-05
3.53875461e-05
3.68471278e-05
3.68267101e-05
3.57292367e-05
3.53758235e-05
3.57758947e-05
3.68059456e-05
3.68523391e-05
3.53103474e-05
3.52577782e-05
3.68063537e-05
3.68081549e-05
3.57800322e-05
3.51719084e-05
3.55571714e-05
3.68274014e-05
3.68640564e-05
3.54260902e-05
3.53940694e-05
3.68531422e-05
3.68389304e-05
3.57234041e-05
3.54002759e-05
3.57434034e-05
3.68450954e-05
3.68750748e-05
3.57334383e-05
3.53229245e-05
3.51871683e-05
3.57016485e-05
3.68324667e-05
3.68546297e-05
3.68187429e-05
3.68434113e-05
3.57949317e-05
3.54954293e-05
3.5468176e-05
3.53480765e-05
3.5019897e-05
3.56274048e-05
3.68083931e-05
3.68568453e-05
3.67633739e-05
3.59799134e-05
3.52109744e-05
3.52349641e-05
3.68053993e-05
3.68190609e-05
3.58317375e-05
3.51304502e-05
3.52639861e-05
3.68249989e-05
3.68462692e-05
3.58495379e-05
3.54578892e-05
3.52253255e-05
3.57108911e-05
3.68178077e-05
3.68529105e-05
3.68133904e-05
3.68378508e-05
3.58041978e-05
3.55069647e-05
3.54147797e-05
3.52043801e-05
3.57126811e-05
3.68242088e-05
3.68317462e-05
3.57895256e-05
3.51904753e-05
3.54127046e-05
3.68130206e-05
3.68112072e-05
3.58669704e-05
3.52833774e-05
3.53852973e-05
3.68039762e-05
3.68099637e-05
3.5893725e-05
3.53044018e-05
3.53498312e-05
3.67445428e-05
3.68321896e-05
3.60262914e-05
3.56136084e-05
3.51361347e-05
3.57145865e-05
3.67890001e-05
3.63645048e-05
3.54210635e-05
3.56849658e-05
3.67943599e-05
3.68181891e-05
3.55784757e-05
3.5408429e-05
3.64425412e-05
3.68119411e-05
3.58409516e-05
3.53629843e-05
3.57229107e-05
3.68029372e-05
3.6826957e-05
3.57114633e-05
3.53499972e-05
3.58312424e-05
3.68180198e-05
3.67846462e-05
3.56944792e-05
3.52183609e-05
3.56935481e-05
3.67397723e-05
3.68464166e-05
3.61343939e-05
3.57201793e-05
3.52197177e-05
3.52071226e-05
3.62320723e-05
3.67950973e-05
3.58358342e-05
3.53034671e-05
3.57055315e-05
3.67669866e-05
3.62363862e-05
3.54809143e-05
3.57179516e-05
3.67739044e-05
3.62234238e-05
3.55146212e-05
3.57202951e-05
3.67617402e-05
3.65225332e-05
3.55005169e-05
3.55452211e-05
3.67549118e-05
3.68132855e-05
3.57774218e-05
3.53315976e-05
3.57038584e-05
3.67429548e-05
3.64536596e-05
3.5465056e-05
3.55462822e-05
3.67398123e-05
3.68108862e-05
3.57593016e-05
3.53253974e-05
3.56962072e-05
3.67325426e-05
3.66330216e-05
3.55620724e-05
3.54099624e-05
3.62553642e-05
3.68099446e-05
3.58758931e-05
3.55202475e-05
3.5714276e-05
3.67372013e-05
3.67610944e-05
3.56920276e-05
3.53352316e-05
3.57276782e-05
3.67520356e-05
3.67361926e-05
3.56807956e-05
3.53149365e-05
3.57104816e-05
3.67369249e-05
3.67534431e-05
3.56836291e-05
3.52313742e-05
3.56558047e-05
3.66922833e-05
3.68335162e-05
3.60427667e-05
3.55328566e-05
3.53414209e-05
3.58900709e-05
3.67696216e-05
3.65513337e-05
3.56446348e-05
3.51853975e-05
3.5688843e-05
3.66824833e-05
3.68115874e-05
3.66476886e-05
3.57498108e-05
3.56741837e-05
3.53724998e-05
3.52550704e-05
3.57428359e-05
3.67183625e-05
3.64148147e-05
3.5653902e-05
3.52883156e-05
3.58321292e-05
3.6752041e-05
3.59256507e-05
3.55385377e-05
3.58011674e-05
3.67448476e-05
3.59146337e-05
3.55481656e-05
3.5821413e-05
3.67592405e-05
3.59100772e-05
3.55406661e-05
3.58117087e-05
3.67471091e-05
3.63398692e-05
3.55995484e-05
3.52767859e-05
3.58603962e-05
3.67627849e-05
3.63068161e-05
3.55863486e-05
3.53098117e-05
3.59325691e-05
3.67729971e-05
3.62364278e-05
3.55338536e-05
3.52968539e-05
3.60048749e-05
3.67786253e-05
3.6122153e-05
3.54392856e-05
3.52995098e-05
3.62268975e-05
3.68209622e-05
3.57451901e-05
3.54393876e-05
3.61195409e-05
3.67811091e-05
3.59957665e-05
3.52770615e-05
3.52407648e-05
3.65097835e-05
3.68019123e-05
3.5701993e-05
3.54427327e-05
3.6435677e-05
3.68127263e-05
3.57084253e-05
3.5388597e-05
3.63118842e-05
3.68081199e-05
3.58586331e-05
3.52808104e-05
3.56991597e-05
3.6739041e-05
3.67090622e-05
3.55435906e-05
3.54105368e-05
3.64866644e-05
3.68198517e-05
3.59032156e-05
3.5334957e-05
3.53318461e-05
3.67007831e-05
3.68371999e-05
3.58265197e-05
3.52503698e-05
3.50955851e-05
3.57398773e-05
3.6747671e-05
3.6841352e-05
3.67939517e-05
3.68231426e-05
3.63253704e-05
3.56894632e-05
3.5471676e-05
3.54115883e-05
3.50697538e-05
3.54344149e-05
3.66676462e-05
3.63776045e-05
3.5394654e-05
3.55805859e-05
3.66725296e-05
3.67490347e-05
3.57049424e-05
3.54335097e-05
3.63132932e-05
3.68105e-05
3.58455368e-05
3.53626765e-05
3.57046565e-05
3.67305956e-05
3.63422381e-05
3.55625527e-05
3.54926103e-05
3.65070713e-05
3.68381376e-05
3.57636876e-05
3.52151597e-05
3.57155838e-05
3.67462672e-05
3.62081394e-05
3.5508834e-05
3.55013127e-05
3.66948017e-05
3.68458032e-05
3.57497637e-05
3.52346838e-05
3.56979641e-05
3.67441361e-05
3.68289807e-05
3.56981692e-05
3.52173558e-05
3.57143762e-05
3.67543155e-05
3.68117037e-05
3.56811838e-05
3.52062795e-05
3.57317913e-05
3.67642147e-05
3.67914529e-05
3.56496248e-05
3.52097257e-05
3.57874865e-05
3.6762349e-05
3.66512694e-05
3.54427362e-05
3.51961354e-05
3.61884885e-05
3.67924817e-05
3.61439626e-05
3.53930572e-05
3.52602221e-05
3.63242639e-05
3.67993453e-05
3.60813253e-05
3.5361628e-05
3.52737147e-05
3.64601276e-05
3.68032367e-05
3.60052e-05
3.53138825e-05
3.52858568e-05
3.65980859e-05
3.68062587e-05
3.59338743e-05
3.52985313e-05
3.52668564e-05
3.66842274e-05
3.68418138e-05
3.57257696e-05
3.53639438e-05
3.63228225e-05
3.68028103e-05
3.61470471e-05
3.54976431e-05
3.52893038e-05
3.57748299e-05
3.67999019e-05
3.68330196e-05
3.57062312e-05
3.51408419e-05
3.54315488e-05
3.66631581e-05
3.68498122e-05
3.68072221e-05
3.57533823e-05
3.50216646e-05
3.50025327e-05
3.66548869e-05
3.68379823e-05
3.57638574e-05
3.5127551e-05
3.54244403e-05
3.68215044e-05
3.69020854e-05
3.56429725e-05
3.50305265e-05
3.56058076e-05
3.68554072e-05
3.69184359e-05
3.69122089e-05
3.69446007e-05
3.56156491e-05
3.50642625e-05
3.46019412e-05
3.46178395e-05
3.69612664e-05
3.70350041e-05
3.54832081e-05
3.58223273e-05
3.69874667e-05
3.69960666e-05
3.69450374e-05
3.51881618e-05
3.46858798e-05
3.64140549e-05
3.67381281e-05
3.66547761e-05
3.666327e-05
3.66364768e-05
3.66285087e-05
3.66112006e-05
3.66021466e-05
3.65987773e-05
3.66043361e-05
3.66371374e-05
3.67043964e-05
3.68496261e-05
3.71951354e-05
3.70662277e-05
3.6793681e-05
3.65438223e-05
3.62902495e-05
3.61011849e-05
3.59022466e-05
3.57649641e-05
3.55418715e-05
3.55073919e-05
3.53530765e-05
3.51495925e-05
3.50229468e-05
3.48350365e-05
3.47785695e-05
3.44041831e-05
3.40794258e-05
3.36823907e-05
3.38795407e-05
3.58696825e-05
3.53250161e-05
3.47125764e-05
3.40906164e-05
3.34599644e-05
3.27445938e-05
3.21851762e-05
3.17747047e-05
3.5464978e-05
3.5339536e-05
3.61440214e-05
3.87758836e-05
3.60648669e-05
3.94632152e-05
4.18717424e-05
4.23157049e-05
4.44654641e-05
4.96953434e-05
5.21005182e-05
5.42353056e-05
5.77368807e-05
6.04398383e-05
6.18727298e-05
6.31426739e-05
6.43091349e-05
6.56620487e-05
6.69733115e-05
6.8175572e-05
6.92806127e-05
7.03531813e-05
7.12866467e-05
7.21893115e-05
7.30053719e-05
7.37779483e-05
7.44492715e-05
7.50944993e-05
7.55587343e-05
7.60275845e-05
7.64580707e-05
7.68777841e-05
7.72765966e-05
7.76657276e-05
7.80459288e-05
7.83828131e-05
7.87402586e-05
7.90200982e-05
7.93434369e-05
7.96364108e-05
7.9974859e-05
8.02582005e-05
8.05428377e-05
8.08118078e-05
8.10669452e-05
8.13626489e-05
8.16634046e-05
8.18407601e-05
8.20024107e-05
8.21663383e-05
8.23190578e-05
8.24714898e-05
8.26171284e-05
8.2756611e-05
8.28968551e-05
8.30351371e-05
8.31735099e-05
8.33032857e-05
8.34331487e-05
8.35744363e-05
8.37153005e-05
8.38397977e-05
8.39642146e-05
8.40738144e-05
8.41827209e-05
8.42746546e-05
8.43715606e-05
8.44570358e-05
8.4553049e-05
8.46419539e-05
8.47399453e-05
8.48274337e-05
8.49251846e-05
8.50103107e-05
8.51025999e-05
8.51788453e-05
8.52660812e-05
8.53385432e-05
8.5421809e-05
8.54910942e-05
8.5571419e-05
8.56357745e-05
8.57096771e-05
8.57685792e-05
8.583707e-05
8.58913034e-05
8.59548566e-05
8.59990795e-05
8.60526483e-05
8.6094387e-05
8.61458007e-05
8.6185241e-05
8.62346751e-05
)
;

boundaryField
{
    closed
    {
        type            calculated;
        value           nonuniform List<scalar> 0();
    }
    open
    {
        type            calculated;
        value           nonuniform List<scalar> 0();
    }
    sides
    {
        type            empty;
    }
    procBoundary4to3
    {
        type            processor;
        value           uniform 3.52185949e-05;
    }
    procBoundary4to5
    {
        type            processor;
        value           uniform 8.62720028e-05;
    }
}


// ************************************************************************* //
