/*--------------------------------*- C++ -*----------------------------------*\
| =========                 |                                                 |
| \\      /  F ield         | OpenFOAM: The Open Source CFD Toolbox           |
|  \\    /   O peration     | Version:  2306                                  |
|   \\  /    A nd           | Website:  www.openfoam.com                      |
|    \\/     M anipulation  |                                                 |
\*---------------------------------------------------------------------------*/
FoamFile
{
    version     2.0;
    format      ascii;
    arch        "LSB;label=32;scalar=64";
    class       surfaceScalarField;
    location    "0.00072";
    object      phi;
}
// * * * * * * * * * * * * * * * * * * * * * * * * * * * * * * * * * * * * * //

dimensions      [1 0 -1 0 0 0 0];

oriented        oriented;

internalField   nonuniform List<scalar> 
530
(
2.38471979e-06
2.45814585e-06
2.5743321e-06
2.47641345e-06
2.39208437e-06
2.43361252e-06
2.49913495e-06
2.38622858e-06
2.28404259e-06
2.27490743e-06
2.23324898e-06
2.15523907e-06
2.06466048e-06
1.99471041e-06
2.00892744e-06
2.01302939e-06
1.8749118e-06
1.86530022e-06
1.81429573e-06
1.75550221e-06
1.66899512e-06
1.47300755e-06
1.41891166e-06
1.40645346e-06
1.36224e-06
1.22528684e-06
1.17171032e-06
1.14330703e-06
1.09963396e-06
1.02866754e-06
9.76512141e-07
9.53995633e-07
9.48366364e-07
9.27819388e-07
9.3787891e-07
9.2168765e-07
8.99354626e-07
9.10123788e-07
9.11161623e-07
9.20536789e-07
9.29666435e-07
9.28028931e-07
9.08281875e-07
9.03984971e-07
9.37138559e-07
9.16440137e-07
8.33709181e-07
8.68195772e-07
8.5878878e-07
8.56729914e-07
8.78258825e-07
7.74548893e-07
7.09460526e-07
8.37724537e-07
8.21026038e-07
7.67508792e-07
6.61949513e-07
6.01042235e-07
6.4152929e-07
5.97861834e-07
5.01550866e-07
4.2702843e-07
3.27132452e-07
2.34016094e-07
2.0510071e-07
1.31251699e-07
5.26812498e-08
-2.75717576e-08
-1.42586101e-07
-2.88753671e-07
-3.37134748e-07
-4.33299105e-07
-5.11519461e-07
-4.88320011e-07
-5.54494592e-07
-6.38590925e-07
-7.57520331e-07
-7.67356991e-07
-6.64213792e-07
-7.01346167e-07
-7.77327678e-07
-8.90015229e-07
-8.58090675e-07
-6.97227885e-07
-7.04488072e-07
-7.64556397e-07
-8.90636327e-07
-8.39779292e-07
-6.04394148e-07
-5.72324112e-07
-6.32203762e-07
-6.46576806e-07
-6.29427821e-07
-5.59367559e-07
-4.20045159e-07
-2.02277797e-07
-3.03774581e-07
-3.92589262e-07
-2.2483212e-07
-7.6102606e-08
-1.90644465e-07
-2.31034149e-07
4.78642563e-08
1.25981835e-07
1.65057901e-07
1.26480877e-07
1.88185389e-07
3.61851433e-07
5.05584375e-07
5.74790604e-07
5.51877825e-07
5.75501649e-07
6.84764676e-07
8.79192692e-07
9.39072304e-07
8.72909288e-07
9.24603802e-07
1.06483528e-06
1.1475698e-06
1.20780923e-06
1.2824919e-06
1.33806125e-06
1.40597225e-06
1.48983135e-06
1.62763332e-06
1.76040748e-06
1.77183023e-06
1.89289825e-06
2.09127432e-06
2.45010138e-06
2.44965532e-06
2.57431015e-06
2.76674721e-06
3.1434799e-06
3.17553921e-06
3.34470415e-06
3.55278245e-06
4.16883772e-06
4.28373897e-06
4.15917055e-06
4.46219885e-06
4.71329372e-06
4.99901409e-06
5.19416295e-06
5.45888651e-06
5.73535512e-06
6.50266843e-06
6.7674086e-06
6.62334894e-06
6.94868155e-06
7.27396222e-06
7.64605717e-06
7.91800679e-06
8.22132518e-06
8.4878339e-06
9.50302808e-06
9.95722717e-06
1.00749535e-05
9.79366054e-06
1.00202988e-05
1.05012414e-05
1.07988832e-05
1.10187653e-05
1.12455849e-05
1.16679981e-05
1.1972551e-05
1.21988735e-05
1.22692127e-05
1.24309134e-05
1.31746903e-05
1.34154407e-05
1.35736442e-05
1.35838878e-05
1.36615253e-05
1.39707484e-05
1.41836824e-05
1.43167136e-05
1.43935574e-05
1.42458277e-05
1.43721039e-05
1.48823123e-05
1.53051772e-05
1.53336039e-05
1.47968881e-05
1.47471123e-05
1.56532038e-05
1.62346004e-05
1.62562106e-05
1.60299235e-05
1.58532567e-05
1.5934452e-05
1.67669451e-05
1.68489886e-05
1.69929417e-05
1.72059563e-05
1.72220979e-05
1.69288897e-05
1.68258887e-05
1.76472408e-05
1.81835078e-05
1.8134679e-05
1.75831238e-05
1.73743854e-05
1.77653072e-05
1.78138694e-05
1.72909811e-05
1.70060179e-05
1.72696108e-05
1.72029198e-05
1.65562008e-05
1.62005715e-05
1.63727962e-05
1.62557319e-05
1.55436014e-05
1.51851063e-05
1.56213245e-05
1.57978924e-05
1.55165353e-05
1.47020819e-05
1.43736031e-05
1.48242826e-05
1.50410778e-05
1.48594945e-05
1.4106261e-05
1.39194289e-05
1.44528316e-05
1.48137751e-05
1.48074314e-05
1.4137444e-05
1.4101469e-05
1.47072481e-05
1.51754774e-05
1.52614492e-05
1.45213011e-05
1.45770563e-05
1.48981886e-05
1.51801064e-05
1.46161479e-05
1.47329504e-05
1.53962473e-05
1.59342412e-05
1.60175328e-05
1.49745892e-05
1.50599976e-05
1.50811387e-05
1.50571775e-05
1.41968005e-05
1.4211582e-05
1.42793299e-05
1.43750223e-05
1.35871714e-05
1.3548851e-05
1.39011164e-05
1.41618475e-05
1.42766619e-05
1.4173495e-05
1.53490823e-05
1.58948617e-05
1.59688697e-05
1.51132084e-05
1.52576244e-05
1.59065649e-05
1.6558507e-05
1.70426083e-05
1.63707481e-05
1.66988938e-05
1.73870493e-05
1.82217647e-05
1.86363895e-05
1.86162022e-05
1.87169731e-05
1.90754242e-05
1.93693403e-05
1.97247348e-05
2.09599136e-05
2.12908945e-05
2.16145309e-05
2.18401002e-05
2.20935512e-05
2.08623866e-05
2.01380387e-05
2.0946017e-05
2.12908735e-05
2.00546645e-05
1.94165942e-05
1.94355398e-05
1.89210207e-05
1.85917669e-05
1.70881902e-05
1.6429587e-05
1.61410724e-05
1.5668043e-05
1.47451048e-05
1.3874503e-05
1.37720768e-05
1.31768947e-05
1.22134136e-05
1.06868549e-05
9.79826287e-06
9.12484219e-06
8.40278906e-06
7.50547444e-06
6.84605956e-06
6.57650637e-06
5.98443895e-06
5.36358903e-06
4.8299502e-06
4.40797659e-06
4.10318732e-06
3.75243448e-06
3.42629267e-06
3.25820061e-06
3.06799336e-06
2.86245929e-06
2.56518829e-06
2.30883086e-06
2.19807058e-06
2.09998827e-06
1.96587169e-06
1.76181284e-06
1.6418216e-06
1.6855553e-06
1.81188734e-06
1.94545966e-06
1.99814073e-06
2.12323064e-06
2.41846283e-06
3.21964361e-06
3.64860776e-06
4.02172993e-06
4.3096834e-06
4.85274005e-06
5.67146862e-06
6.43481199e-06
7.13133517e-06
7.4149665e-06
8.10550878e-06
9.14379664e-06
1.01057981e-05
1.08851466e-05
1.09089115e-05
1.16022434e-05
1.26949475e-05
1.36851126e-05
1.43905391e-05
1.39274685e-05
1.4388296e-05
1.51234774e-05
1.56908668e-05
1.58475044e-05
1.46098069e-05
1.44850321e-05
1.42151606e-05
1.38682224e-05
1.25054267e-05
1.19369714e-05
1.18160813e-05
1.16581804e-05
1.12261103e-05
1.06640243e-05
1.03445316e-05
1.02415069e-05
1.03205393e-05
1.04241088e-05
1.00535263e-05
9.97923021e-06
1.01064135e-05
1.0368202e-05
1.06328775e-05
1.08900343e-05
1.09222328e-05
9.9806244e-06
9.74093822e-06
9.51460296e-06
9.06127223e-06
7.90824754e-06
7.03170102e-06
6.11497117e-06
5.16752445e-06
4.05854624e-06
2.93853176e-06
1.98488846e-06
1.1050454e-06
2.36877713e-07
-5.01771425e-07
-1.18103874e-06
-1.86347054e-06
-2.3990817e-06
-2.57809252e-06
-2.51574652e-06
-2.57139077e-06
-2.72818918e-06
-2.6472613e-06
-2.51717764e-06
-2.40564363e-06
-2.30882407e-06
-2.43850502e-06
-2.39744962e-06
-1.92646127e-06
-1.89468461e-06
-1.97378738e-06
-2.09356894e-06
-2.30376366e-06
-2.58256448e-06
-2.93744519e-06
-3.34317664e-06
-3.77657806e-06
-4.19453718e-06
-4.54384169e-06
-4.77134042e-06
-4.81132353e-06
-4.64803409e-06
-4.52692038e-06
-4.16459322e-06
-3.67675869e-06
-3.07869409e-06
-2.44856712e-06
-1.85005378e-06
-1.37361096e-06
-1.01752075e-06
-7.57126367e-07
-6.8830326e-07
-6.78322749e-07
-7.20074489e-07
-7.33677025e-07
-7.46113014e-07
-7.76919828e-07
-8.11464231e-07
-8.69460629e-07
-7.78599727e-07
-9.48077072e-07
-1.14752643e-06
-1.32905803e-06
-1.54916958e-06
-1.66027365e-06
-1.85577507e-06
-2.02719696e-06
-1.79180286e-06
-1.67694218e-06
-1.79772632e-06
-1.57286025e-06
-1.61605057e-06
-1.19182183e-06
-1.7344705e-06
-1.75191148e-07
-3.01276027e-07
2.45922867e-07
4.09504735e-07
5.69447353e-07
7.17187352e-07
9.21179725e-07
9.5186055e-07
9.86299732e-07
1.02099765e-06
1.0704145e-06
1.141827e-06
1.21643884e-06
1.28934032e-06
1.3599828e-06
1.42183069e-06
1.47346992e-06
1.5163487e-06
1.55049447e-06
1.57870881e-06
1.60467935e-06
1.62821487e-06
1.65652608e-06
1.68931199e-06
1.72869925e-06
1.77338099e-06
1.82437406e-06
1.87721459e-06
1.93227335e-06
1.98440663e-06
2.03253683e-06
2.074997e-06
2.10940787e-06
2.13296282e-06
2.14826655e-06
2.1521935e-06
2.14879983e-06
2.13698892e-06
2.12082052e-06
2.10111436e-06
2.08098895e-06
2.06255821e-06
2.04871765e-06
2.04126205e-06
2.04246192e-06
2.05341889e-06
2.07539682e-06
2.10858726e-06
2.15318263e-06
2.20840484e-06
2.27339921e-06
2.34656175e-06
2.4262225e-06
2.51051448e-06
2.59738277e-06
2.68480395e-06
2.77074177e-06
2.85330265e-06
2.93087353e-06
3.00187435e-06
3.0650963e-06
3.11962833e-06
3.16475226e-06
3.20023945e-06
3.22607982e-06
3.24251347e-06
3.25005432e-06
3.249327e-06
3.24127229e-06
3.22680548e-06
3.20693134e-06
3.18267845e-06
3.15510519e-06
3.1251523e-06
3.09383178e-06
3.06196909e-06
3.03033408e-06
2.99957061e-06
2.97022176e-06
2.94271354e-06
2.9174181e-06
2.89447498e-06
2.87397116e-06
2.85591839e-06
2.84022555e-06
2.8267425e-06
)
;

boundaryField
{
    closed
    {
        type            calculated;
        value           nonuniform List<scalar> 0();
    }
    open
    {
        type            calculated;
        value           nonuniform List<scalar> 0();
    }
    sides
    {
        type            empty;
        value           nonuniform List<scalar> 0();
    }
    procBoundary4to3
    {
        type            processor;
        value           uniform -2.38965621e-06;
    }
    procBoundary4to5
    {
        type            processor;
        value           uniform 2.81523238e-06;
    }
}


// ************************************************************************* //
