/*--------------------------------*- C++ -*----------------------------------*\
| =========                 |                                                 |
| \\      /  F ield         | OpenFOAM: The Open Source CFD Toolbox           |
|  \\    /   O peration     | Version:  2306                                  |
|   \\  /    A nd           | Website:  www.openfoam.com                      |
|    \\/     M anipulation  |                                                 |
\*---------------------------------------------------------------------------*/
FoamFile
{
    version     2.0;
    format      ascii;
    arch        "LSB;label=32;scalar=64";
    class       volScalarField;
    location    "0.00196";
    object      H;
}
// * * * * * * * * * * * * * * * * * * * * * * * * * * * * * * * * * * * * * //

dimensions      [0 0 0 0 0 0 0];

internalField   nonuniform List<scalar> 
530
(
2.56072141e-10
7.25797654e-06
1.48006325e-05
1.83609208e-05
2.85784876e-10
3.03021938e-10
1.2929472e-05
1.75122857e-05
3.15622292e-10
3.10864632e-10
1.14197002e-05
1.61363352e-05
3.40069632e-10
3.34064935e-10
1.06298435e-05
1.44291253e-05
3.61902836e-10
3.57546343e-10
1.01469641e-05
1.28907786e-05
3.82563217e-10
3.80038482e-10
1.00086913e-05
1.12679727e-05
4.11099314e-10
4.09369528e-10
1.01110609e-05
9.56733845e-06
4.395113e-10
4.3569691e-10
1.04465129e-05
7.90010643e-06
4.64126174e-10
4.64342205e-10
1.0618826e-05
6.90837301e-06
4.91634427e-10
4.92585272e-10
1.03399192e-05
6.34116731e-06
5.20094662e-10
5.20344271e-10
9.81679888e-06
6.01360451e-06
3.25266847e-08
5.47816606e-10
9.24583656e-06
5.7531893e-06
8.28233906e-08
5.74836916e-10
8.7723082e-06
5.54187447e-06
1.04087494e-07
6.06787566e-10
8.24652169e-06
5.42157797e-06
9.42823238e-08
1.91559959e-08
7.74890187e-06
5.40436899e-06
6.70683435e-08
2.74392028e-08
7.37244795e-06
5.46017049e-06
6.98824012e-10
2.2088049e-09
6.97088178e-06
5.53092242e-06
7.25557879e-10
7.26180177e-10
6.74716653e-06
5.56659575e-06
7.51475209e-10
7.51821308e-10
6.58049716e-06
5.54280505e-06
7.76555743e-10
7.76576376e-10
6.46177885e-06
5.46544146e-06
8.00703101e-10
8.01191294e-10
6.40206054e-06
5.35496641e-06
8.23502466e-10
8.25098213e-10
6.37887851e-06
5.2406892e-06
8.52584131e-10
8.56988196e-10
6.36105885e-06
5.12866177e-06
8.82288842e-10
8.88517908e-10
6.31220971e-06
5.03703356e-06
9.14885859e-10
9.18756091e-10
6.23625436e-06
4.98548758e-06
9.4828373e-10
9.50471017e-10
6.02031298e-06
4.94275285e-06
9.82392078e-10
9.83031701e-10
5.80737862e-06
4.80496184e-06
1.01609869e-09
1.01610661e-09
5.6239229e-06
4.67357274e-06
1.04887226e-09
1.04875947e-09
5.49509133e-06
4.5593189e-06
1.08085256e-09
1.08100168e-09
5.37345565e-06
4.4515084e-06
1.11206662e-09
1.11281526e-09
5.27322281e-06
4.34099422e-06
1.15145572e-09
1.1538599e-09
5.22290891e-06
4.21765751e-06
1.19178686e-09
1.19643777e-09
5.18054839e-06
4.11714211e-06
1.23309485e-09
1.23829414e-09
5.05971401e-06
4.08000803e-06
1.27414342e-09
1.27920294e-09
4.89358668e-06
4.02464256e-06
1.31482582e-09
1.31920412e-09
4.79040487e-06
3.95312333e-06
1.35405276e-09
1.35891751e-09
4.7256445e-06
3.88811403e-06
1.39215043e-09
1.39827386e-09
4.68049575e-06
3.81959046e-06
1.42972944e-09
1.43716461e-09
4.63847202e-06
3.74726393e-06
1.46727298e-09
1.47610579e-09
4.59640077e-06
3.67478928e-06
1.51277795e-09
1.52511081e-09
4.55357244e-06
3.604316e-06
1.56454295e-09
1.57836149e-09
4.51126195e-06
3.53832606e-06
1.61627644e-09
1.63146058e-09
4.46703456e-06
3.48016984e-06
1.66862301e-09
1.68419212e-09
4.4638766e-06
3.42523823e-06
1.72499786e-09
1.73834346e-09
4.4085002e-06
3.41634676e-06
1.78448293e-09
1.79586593e-09
4.30737249e-06
3.32242775e-06
1.84575267e-09
1.85599584e-09
4.21599271e-06
3.22201176e-06
1.90774626e-09
1.91781584e-09
4.13664318e-06
3.14928248e-06
1.96902376e-09
1.98010017e-09
4.05954945e-06
3.08906386e-06
2.04536078e-09
2.06029492e-09
3.96490647e-06
3.02246711e-06
2.13287949e-09
2.14930543e-09
3.79813684e-06
2.90315226e-06
2.23623883e-09
2.25648174e-09
3.39131974e-06
2.60970403e-06
1.61255243e-07
1.73906956e-07
2.11597425e-06
1.3792143e-06
8.86744082e-07
7.4222841e-07
4.91688836e-07
3.82922102e-07
1.92491527e-06
1.38024742e-06
2.59361502e-09
2.59448352e-09
2.29724223e-06
1.83250549e-06
2.63178718e-09
2.64082834e-09
2.5649801e-06
2.10871193e-06
2.69004682e-09
2.70303652e-09
2.7067572e-06
2.22841549e-06
2.76499255e-09
2.78431059e-09
2.78553216e-06
2.27671436e-06
2.85438468e-09
2.87636857e-09
2.82047058e-06
2.28653388e-06
2.9461695e-09
2.96952635e-09
2.82832821e-06
2.27520751e-06
3.03906172e-09
3.0630893e-09
2.81907315e-06
2.25134334e-06
3.13184268e-09
3.15675734e-09
2.79897514e-06
2.21928518e-06
3.22420327e-09
3.2504178e-09
2.77336999e-06
2.18040038e-06
3.3189499e-09
3.34457999e-09
2.73990895e-06
2.14340395e-06
3.41584529e-09
3.44096092e-09
2.685012e-06
2.0870909e-06
3.51366219e-09
3.53894226e-09
2.62589946e-06
2.02630307e-06
3.61219021e-09
3.63665441e-09
2.57032719e-06
1.96630618e-06
3.70973775e-09
3.73410716e-09
2.5105767e-06
1.9173712e-06
3.82424136e-09
3.85111067e-09
2.45239474e-06
1.8754465e-06
3.94537219e-09
3.97051341e-09
2.38926382e-06
1.83840763e-06
4.06482102e-09
4.08879546e-09
2.32313292e-06
1.80095996e-06
4.18419808e-09
4.2066811e-09
2.25065942e-06
1.75522945e-06
4.30372623e-09
4.32511751e-09
2.16746138e-06
1.69169116e-06
4.4238802e-09
4.44520801e-09
2.06984158e-06
1.60573615e-06
4.54487256e-09
4.56666405e-09
1.95881503e-06
1.51127289e-06
4.66577108e-09
4.68932075e-09
1.8407052e-06
1.35407126e-06
4.78582705e-09
4.81318279e-09
1.71348745e-06
1.26812632e-06
4.9039854e-09
4.92852956e-09
1.61514655e-06
1.15678377e-06
5.02179e-09
5.05067614e-09
1.49093595e-06
1.13576104e-06
5.13839439e-09
5.15922762e-09
1.40156685e-06
1.13735521e-06
5.25113576e-09
5.26325886e-09
1.34015942e-06
1.14048584e-06
5.36384378e-09
5.37116809e-09
1.29947164e-06
1.13210216e-06
5.49704651e-09
5.49476756e-09
1.27283401e-06
1.12165774e-06
5.62147325e-09
5.61980975e-09
1.27259207e-06
1.09761108e-06
5.74084236e-09
5.74598878e-09
1.26327206e-06
1.07897109e-06
5.85372823e-09
5.87140001e-09
1.24524078e-06
1.04513787e-06
5.97059246e-09
5.99505355e-09
1.2218574e-06
1.01148456e-06
6.08660937e-09
6.11687619e-09
1.19609947e-06
9.78050263e-07
6.20098822e-09
6.23452542e-09
1.16985186e-06
9.40722399e-07
6.31312303e-09
6.34564914e-09
1.14311352e-06
9.04364934e-07
6.42315095e-09
6.4545715e-09
1.11315988e-06
8.6761225e-07
6.53250535e-09
6.56108606e-09
1.07569705e-06
8.32882117e-07
6.64243419e-09
6.66494738e-09
1.03080104e-06
8.00754628e-07
6.75210746e-09
6.76604966e-09
9.77256916e-07
7.69369352e-07
6.85076571e-09
6.86435285e-09
9.22380438e-07
7.36257839e-07
6.94839225e-09
6.96037474e-09
8.72000493e-07
7.01113945e-07
7.04293368e-09
7.0541003e-09
8.24530701e-07
6.65075962e-07
7.13475164e-09
7.14534311e-09
7.78271926e-07
6.29681645e-07
7.22408157e-09
7.23391149e-09
7.32017834e-07
5.95597627e-07
7.31099627e-09
7.31974089e-09
6.85975285e-07
5.62558601e-07
7.39530917e-09
7.40290608e-09
6.41418538e-07
5.2991554e-07
7.47664743e-09
7.48351658e-09
6.00020569e-07
4.96660919e-07
7.5546751e-09
7.56162482e-09
5.63167217e-07
4.63024598e-07
7.62946499e-09
7.63700745e-09
5.2946783e-07
4.31011561e-07
7.70130171e-09
7.70949378e-09
4.96477864e-07
4.01385075e-07
7.77048949e-09
7.77893136e-09
4.64175146e-07
3.7392678e-07
7.83716033e-09
7.84532719e-09
4.32063049e-07
3.49117233e-07
7.90134017e-09
7.9087842e-09
4.00478417e-07
3.26035565e-07
7.96290293e-09
7.96947111e-09
3.7036763e-07
3.04311078e-07
8.02919888e-09
8.03612303e-09
3.41423489e-07
2.83919602e-07
8.09462422e-09
8.10044184e-09
3.13015482e-07
2.64304457e-07
8.15994356e-09
8.16472607e-09
2.74913091e-07
2.36901584e-07
8.23475103e-09
8.23782083e-09
2.3150682e-07
1.91995628e-07
7.95734911e-08
6.08571442e-08
1.32540216e-07
1.0835213e-07
1.11739783e-07
8.80676777e-08
1.09614757e-07
8.46688987e-08
1.04054642e-07
7.83328356e-08
9.80580569e-08
7.21628252e-08
9.1383419e-08
6.59386643e-08
8.40877678e-08
5.97663652e-08
7.62428277e-08
5.37480711e-08
6.79542026e-08
4.79960871e-08
5.93766065e-08
4.26068989e-08
5.07345016e-08
3.76326675e-08
4.23347074e-08
3.30508113e-08
3.45237473e-08
2.87879042e-08
2.81891564e-08
2.43343668e-08
2.31198792e-08
2.00284165e-08
1.88999853e-08
1.65199445e-08
1.55372177e-08
1.37866987e-08
1.29830911e-08
1.17569891e-08
1.11360748e-08
1.03133813e-08
9.84618254e-09
9.31579129e-09
9.02831246e-09
9.02803e-09
9.02781742e-09
9.02765744e-09
9.02755713e-09
9.02749698e-09
9.02746513e-09
9.02744936e-09
9.02744232e-09
9.0274395e-09
9.02743828e-09
9.0274379e-09
9.02743779e-09
9.02743776e-09
9.02743775e-09
9.02743775e-09
9.02743774e-09
9.02743774e-09
9.02743774e-09
9.02743774e-09
9.02743774e-09
9.02743774e-09
9.02743774e-09
9.02743774e-09
9.02743774e-09
9.02743774e-09
9.02743774e-09
9.02743774e-09
9.02743774e-09
9.02743774e-09
9.02743774e-09
9.02743774e-09
9.02743774e-09
9.02743774e-09
)
;

boundaryField
{
    closed
    {
        type            calculated;
        value           nonuniform List<scalar> 0();
    }
    open
    {
        type            calculated;
        value           uniform 9.02743774e-09;
    }
    sides
    {
        type            empty;
    }
    procBoundary5to4
    {
        type            processor;
        value           uniform 6.13192265e-06;
    }
}


// ************************************************************************* //
