/*--------------------------------*- C++ -*----------------------------------*\
| =========                 |                                                 |
| \\      /  F ield         | OpenFOAM: The Open Source CFD Toolbox           |
|  \\    /   O peration     | Version:  2306                                  |
|   \\  /    A nd           | Website:  www.openfoam.com                      |
|    \\/     M anipulation  |                                                 |
\*---------------------------------------------------------------------------*/
FoamFile
{
    version     2.0;
    format      ascii;
    arch        "LSB;label=32;scalar=64";
    class       volScalarField;
    location    "0.00196";
    object      p;
}
// * * * * * * * * * * * * * * * * * * * * * * * * * * * * * * * * * * * * * //

dimensions      [1 -1 -2 0 0 0 0];

internalField   nonuniform List<scalar> 
530
(
101489.84
101482.708
101475.04
101473.741
101478.746
101479.468
101474.511
101475.625
101479.566
101476.758
101470.903
101471.382
101474.601
101471.136
101464.735
101464.77
101467.855
101464.489
101457.824
101457.37
101460.4
101457.211
101450.352
101449.514
101452.553
101449.724
101442.967
101441.877
101444.866
101442.497
101436.402
101435.146
101437.64
101435.468
101429.501
101427.977
101430.291
101428.269
101422.399
101420.79
101423.135
101421.263
101415.46
101413.826
101416.297
101414.866
101409.463
101407.949
101410.66
101409.865
101405.118
101403.967
101407.088
101407.042
101403.094
101402.502
101406.086
101406.726
101403.701
101403.847
101407.841
101408.822
101406.386
101407.404
101411.962
101412.997
101410.611
101411.725
101416.25
101417.3
101414.969
101416.028
101420.395
101421.364
101419.019
101419.938
101424.034
101424.812
101422.396
101423.152
101426.972
101427.571
101425.081
101425.659
101429.185
101429.603
101427.036
101427.342
101430.453
101430.649
101428.011
101428.06
101430.779
101430.742
101427.974
101427.814
101430.182
101429.734
101426.696
101426.336
101428.434
101427.695
101424.376
101423.761
101425.66
101424.776
101421.384
101420.754
101422.617
101421.705
101418.326
101417.716
101419.595
101418.715
101415.388
101414.84
101416.806
101416.041
101412.831
101412.385
101414.465
101413.849
101410.782
101410.44
101412.637
101412.228
101409.404
101409.203
101411.485
101411.256
101408.661
101408.587
101410.931
101410.839
101408.437
101408.465
101410.863
101410.941
101408.752
101408.885
101411.278
101411.392
101409.346
101409.599
101412.053
101412.279
101410.359
101410.674
101413.167
101413.476
101411.641
101411.964
101414.429
101414.762
101412.974
101413.277
101415.692
101416.031
101414.273
101414.547
101416.9
101417.259
101415.577
101415.824
101418.075
101418.422
101416.787
101416.969
101419.061
101419.321
101417.647
101417.665
101419.491
101419.518
101417.665
101417.503
101419.038
101418.693
101416.499
101416.017
101417.265
101416.655
101414.209
101413.499
101414.492
101413.591
101410.855
101409.891
101410.63
101409.41
101406.304
101404.97
101405.335
101403.686
101400.086
101398.219
101398.007
101395.72
101391.406
101388.767
101387.762
101384.536
101379.146
101375.648
101374.09
101370.026
101363.521
101360.489
101360.991
101358.663
101354.07
101351.606
101351.052
101351.372
101352.652
101352.703
101351.581
101353.748
101358.993
101361.582
101361.701
101364.473
101369.66
101372.358
101372.65
101375.102
101379.653
101381.923
101381.926
101383.842
101387.7
101389.477
101389.144
101390.551
101393.768
101395.085
101394.449
101395.433
101398.114
101399.036
101398.154
101398.807
101401.059
101401.669
101400.609
101401.008
101402.909
101403.279
101402.095
101402.282
101403.877
101404.045
101402.763
101402.778
101404.111
101404.07
101402.67
101402.54
101403.683
101403.506
101402.028
101401.805
101402.827
101402.564
101401.046
101400.78
101401.745
101401.43
101399.903
101399.645
101400.6
101400.287
101398.786
101398.553
101399.515
101399.235
101397.819
101397.642
101398.607
101398.37
101397.043
101396.893
101397.826
101397.602
101396.328
101396.173
101397.042
101396.791
101395.529
101395.334
101396.11
101395.799
101394.509
101394.245
101394.922
101394.541
101393.202
101392.872
101393.484
101393.065
101391.707
101391.355
101391.972
101391.573
101390.207
101389.821
101390.313
101389.78
101388.273
101387.741
101388.202
101387.664
101386.212
101385.803
101386.416
101386.049
101384.786
101384.625
101385.505
101385.343
101384.211
101384.183
101385.164
101385.025
101383.932
101383.992
101385.044
101384.924
101383.848
101383.955
101385.007
101384.834
101383.733
101383.836
101384.842
101384.609
101383.483
101383.557
101384.497
101384.222
101383.074
101383.075
101383.937
101383.656
101382.517
101382.472
101383.267
101382.964
101381.815
101381.714
101382.44
101382.105
101380.933
101380.777
101381.438
101381.069
101379.893
101379.707
101380.275
101379.834
101378.652
101378.439
101378.911
101378.392
101377.201
101376.963
101377.347
101376.751
101375.545
101375.288
101375.601
101374.938
101373.719
101373.456
101373.716
101373
101371.77
101371.45
101371.616
101370.902
101369.72
101369.37
101369.468
101368.762
101367.632
101367.267
101367.311
101366.617
101365.542
101365.171
101365.169
101364.492
101363.472
101363.099
101363.062
101362.407
101361.444
101361.075
101361.01
101360.385
101359.482
101359.121
101359.039
101358.448
101357.608
101357.262
101357.17
101356.618
101355.843
101355.519
101355.423
101354.911
101354.203
101353.909
101353.818
101353.342
101352.695
101352.427
101352.338
101351.894
101351.295
101351.045
101350.953
101350.524
101349.951
101349.7
101349.592
101349.166
101348.598
101348.327
101348.187
101347.747
101347.168
101346.861
101346.676
101346.207
101345.599
101345.237
101344.978
101344.444
101343.764
101343.283
101342.865
101342.154
101341.264
101340.515
101339.782
101338.72
101337.441
101336.29
101335.197
101333.802
101332.288
101331.451
101331.222
101330.871
101330.377
101330.099
101330.012
101329.972
101329.958
101329.98
101330.024
101330.077
101330.132
101330.185
101330.234
101330.279
101330.319
101330.353
101330.38
101330.402
101330.414
101330.416
101330.406
101330.378
101330.33
101330.257
101330.155
101330.019
101329.846
101329.634
101329.383
101329.098
101328.787
101328.462
101328.144
101327.857
101327.629
101327.49
101327.466
101327.576
101327.821
101328.191
101328.651
101329.155
101329.648
101330.077
101330.4
101330.592
101330.648
101330.572
101330.374
101330.061
101329.654
101329.206
101328.839
101328.735
101329.026
101329.626
101330.227
101330.567
101330.703
101330.989
101331.924
101333.833
101336.191
101337.56
101336.764
101334.179
101331.371
101329.112
101327.458
101327.69
101331.286
101337.589
101344.177
101346.959
101344.478
101340.197
)
;

boundaryField
{
    closed
    {
        type            zeroGradient;
    }
    open
    {
        type            waveTransmissive;
        gamma           1.25;
        fieldInf        101325;
        lInf            1;
        value           uniform 101341.424;
    }
    sides
    {
        type            empty;
    }
    procBoundary5to4
    {
        type            processor;
        value           uniform 101492.573;
    }
}


// ************************************************************************* //
