/*--------------------------------*- C++ -*----------------------------------*\
| =========                 |                                                 |
| \\      /  F ield         | OpenFOAM: The Open Source CFD Toolbox           |
|  \\    /   O peration     | Version:  2306                                  |
|   \\  /    A nd           | Website:  www.openfoam.com                      |
|    \\/     M anipulation  |                                                 |
\*---------------------------------------------------------------------------*/
FoamFile
{
    version     2.0;
    format      ascii;
    arch        "LSB;label=32;scalar=64";
    class       volScalarField;
    location    "0.00196";
    object      T;
}
// * * * * * * * * * * * * * * * * * * * * * * * * * * * * * * * * * * * * * //

dimensions      [0 0 0 1 0 0 0];

internalField   nonuniform List<scalar> 
530
(
1446.01308
1447.66117
1441.2175
1443.5575
1451.29605
1454.31535
1445.96291
1447.751
1456.42211
1455.60227
1450.30392
1451.78148
1460.4935
1459.47705
1454.20979
1455.63342
1464.04331
1463.3206
1457.86636
1459.18778
1467.3391
1466.92953
1461.27895
1462.61928
1470.50527
1470.37096
1464.6539
1465.8812
1473.54542
1473.20089
1467.9227
1469.14388
1476.14884
1476.22194
1471.05579
1472.19056
1479.00771
1479.14993
1474.11633
1475.0645
1481.92227
1481.98921
1477.10949
1477.81915
1484.54681
1484.77015
1479.99287
1480.55631
1486.96257
1487.48458
1482.75921
1483.23907
1489.391
1490.10196
1485.4686
1485.83696
1491.87565
1492.46883
1488.15508
1488.37071
1494.3995
1494.76132
1490.42301
1490.81949
1497.03244
1497.1112
1492.66514
1492.9887
1499.05283
1499.10326
1494.77632
1495.02263
1501.01634
1501.04633
1496.82489
1497.04075
1502.92481
1502.93249
1498.80747
1499.04173
1504.77558
1504.81552
1500.72235
1501.03127
1506.54297
1506.6581
1502.5726
1502.99092
1508.22521
1508.46702
1504.37687
1504.90646
1509.9144
1510.25317
1506.16748
1506.77152
1511.76923
1511.97874
1507.93944
1508.57662
1513.67349
1513.79389
1509.92519
1510.37586
1515.62159
1515.66265
1511.89306
1512.35709
1517.55469
1517.56636
1513.84366
1514.30418
1519.44926
1519.45725
1515.76335
1516.2176
1521.31409
1521.33627
1517.67181
1518.11193
1523.15195
1523.20337
1519.55936
1519.99586
1524.94894
1525.05102
1521.40986
1521.89065
1526.69633
1526.88912
1523.24296
1523.7677
1528.49539
1528.70871
1525.12823
1525.59304
1530.29494
1530.50126
1527.03758
1527.43537
1532.09054
1532.26915
1528.84571
1529.25806
1533.84035
1534.03696
1530.63628
1531.05944
1535.55831
1535.8015
1532.41908
1532.8653
1537.26725
1537.55759
1534.20297
1534.67977
1538.98497
1539.32457
1535.99206
1536.49976
1540.70818
1541.0947
1537.787
1538.32495
1542.43968
1542.86819
1539.58764
1540.15547
1544.17984
1544.64603
1541.39622
1541.99096
1545.9477
1546.42127
1543.18681
1543.83708
1547.8462
1548.24808
1545.11162
1545.66662
1549.84142
1550.18229
1547.15381
1547.7103
1551.89048
1552.19601
1549.20646
1549.77248
1553.9606
1554.25933
1551.26258
1551.85285
1556.00752
1556.33432
1553.32616
1553.95017
1558.08088
1558.43873
1555.41504
1556.06289
1560.26402
1560.65232
1557.55709
1558.2309
1562.79432
1563.26277
1559.85477
1560.59189
1565.91611
1566.0424
1563.25697
1564.02663
1565.57254
1566.07476
1567.73394
1568.23074
1566.16256
1566.73521
1571.36671
1571.39299
1567.78476
1568.2474
1572.45127
1572.64726
1569.42837
1569.86694
1573.95263
1574.22982
1571.18339
1571.63185
1575.57491
1575.91939
1572.9708
1573.4517
1577.25864
1577.64619
1574.77632
1575.29175
1578.97878
1579.38596
1576.58496
1577.13236
1580.71033
1581.12456
1578.38759
1578.96376
1582.43062
1582.85523
1580.1813
1580.78129
1584.13327
1584.57474
1581.9583
1582.58411
1585.86536
1586.29067
1583.74084
1584.36217
1587.61996
1588.03085
1585.55907
1586.18163
1589.37456
1589.78287
1587.35311
1587.99073
1591.1242
1591.51518
1589.11341
1589.77246
1592.84149
1593.22679
1590.85542
1591.51183
1594.54084
1594.89937
1592.57893
1593.21568
1596.20778
1596.53886
1594.2767
1594.8877
1597.83877
1598.15076
1595.95489
1596.53463
1599.45485
1599.74425
1597.61351
1598.16417
1601.05821
1601.33069
1599.2566
1599.78505
1602.65424
1602.92287
1600.88777
1601.40219
1604.24478
1604.51609
1602.50404
1603
1605.81783
1606.10784
1604.09777
1604.64324
1607.36322
1607.69675
1605.66777
1606.16375
1608.87107
1609.16626
1607.15696
1607.7015
1610.35783
1610.70216
1608.65119
1609.17061
1611.81392
1612.06306
1610.07095
1610.53037
1613.21023
1613.35763
1611.42326
1611.84831
1614.54633
1614.62035
1612.72404
1613.17359
1615.87747
1615.85655
1613.97693
1614.46513
1617.11178
1617.09727
1615.2008
1615.76859
1618.28728
1618.33898
1616.41611
1617.01234
1619.3916
1619.56292
1617.62453
1618.27649
1620.52545
1620.75978
1618.81734
1619.50567
1621.64238
1621.9294
1619.98264
1620.70343
1622.7351
1623.05044
1621.11447
1621.87409
1623.79827
1624.10218
1622.21111
1623.01508
1624.83347
1625.12562
1623.28152
1624.12357
1625.85423
1626.11914
1624.3435
1625.19087
1626.8721
1627.08083
1625.39961
1626.21417
1627.8798
1628.01018
1626.45203
1627.19966
1628.78094
1628.90746
1627.48371
1628.1578
1629.66667
1629.77797
1628.47041
1629.09152
1630.5186
1630.62195
1629.41614
1629.99724
1631.34046
1631.43807
1630.32775
1630.87002
1632.1348
1632.22506
1631.20991
1631.70818
1632.90263
1632.98283
1632.06211
1632.51337
1633.64272
1633.71244
1632.8801
1633.28824
1634.35232
1634.41523
1633.65876
1634.0371
1635.02899
1635.09215
1634.39298
1634.76015
1635.67375
1635.74157
1635.08899
1635.44987
1636.2896
1636.36237
1635.75444
1636.10458
1636.87945
1636.95379
1636.39115
1636.72431
1637.44469
1637.51623
1637.00244
1637.30977
1637.98591
1638.05094
1637.58778
1637.86559
1638.50233
1638.55969
1638.14414
1638.39363
1638.99382
1639.0429
1638.67335
1638.8949
1639.46297
1639.50405
1639.1778
1639.37185
1639.92993
1639.96363
1639.69298
1639.85514
1640.46305
1640.4846
1640.19861
1640.37956
1640.92105
1641.04233
1640.93891
1641.09761
1641.23884
1641.4126
1641.49969
1641.69175
1641.7981
1642.00424
1642.12123
1642.33813
1642.46828
1642.69243
1642.83591
1643.06337
1643.21948
1643.44545
1643.61272
1643.83132
1644.00742
1644.21187
1644.39327
1644.57648
1644.75736
1644.91336
1645.08567
1645.21074
1645.35513
1645.46141
1645.58674
1645.67691
1645.76423
1645.83076
1645.88755
1645.9305
1645.96346
1645.98727
1646.00356
1646.01452
1646.02109
1646.02517
1646.02642
1646.02473
1646.02343
1646.02242
1646.02178
1646.02139
1646.02118
1646.02108
1646.02104
1646.02102
1646.02101
1646.02101
1646.021
1646.021
1646.021
1646.021
1646.021
1646.021
1646.021
1646.021
1646.021
1646.021
1646.021
1646.021
1646.021
1646.021
1646.021
1646.021
1646.021
1646.021
1646.021
1646.021
1646.021
1646.021
)
;

boundaryField
{
    closed
    {
        type            fixedValue;
        value           nonuniform List<scalar> 0();
    }
    open
    {
        type            zeroGradient;
    }
    sides
    {
        type            empty;
    }
    procBoundary5to4
    {
        type            processor;
        value           uniform 1445.8166;
    }
}


// ************************************************************************* //
