/*--------------------------------*- C++ -*----------------------------------*\
| =========                 |                                                 |
| \\      /  F ield         | OpenFOAM: The Open Source CFD Toolbox           |
|  \\    /   O peration     | Version:  2306                                  |
|   \\  /    A nd           | Website:  www.openfoam.com                      |
|    \\/     M anipulation  |                                                 |
\*---------------------------------------------------------------------------*/
FoamFile
{
    version     2.0;
    format      ascii;
    arch        "LSB;label=32;scalar=64";
    class       volScalarField;
    location    "0.0018";
    object      h;
}
// * * * * * * * * * * * * * * * * * * * * * * * * * * * * * * * * * * * * * //

dimensions      [0 2 -2 0 0 0 0];

internalField   nonuniform List<scalar> 
530
(
13269.4932
5205.26885
2397.64855
2284.78138
2274.52482
2273.94328
2273.89723
2273.89477
2273.89462
2273.89461
2273.89461
2273.89461
2273.89461
2273.89461
2273.89461
2273.89461
2273.89461
2273.89461
2273.89461
2273.89461
2273.89461
2273.89461
2273.89461
2273.89461
2273.89461
2273.89461
2273.89461
2273.89461
2273.89461
2273.89461
2273.89461
2273.89461
2273.89461
2273.89461
2273.89461
2273.89461
2273.89461
2273.89461
2273.89461
2273.89461
2273.89461
2273.89461
2273.89461
2273.89461
2273.89461
2273.89461
2273.89461
2273.89461
2273.89461
2273.89461
2273.89461
2273.89461
2273.89461
2273.89461
2273.89461
2273.89462
2273.89462
2273.89469
2273.89472
2273.8954
2273.89587
2273.90028
2273.90245
2273.92755
2273.93772
2274.05254
2274.11209
2274.46549
2274.9978
2275.9574
2275.7868
2277.74797
2284.03039
2313.47788
2300.96414
2124.00683
2170.37687
3004.08192
3021.15025
-108.581289
-1530.35587
4634.41613
9945.0196
4367.48401
-2587.69516
-604.710281
3548.31691
1630.4666
-2767.84665
-4052.487
-3625.77863
9181.21425
10648.4775
10581.1661
1105.22843
-5750.42436
-4507.80203
8763.9342
10397.6315
10246.3477
-2036.17809
-5270.93678
-6129.23829
-6161.44104
8358.25013
10151.0142
9702.05719
10407.6324
10405.6372
-1197.05404
-6151.63287
-6209.62419
9021.36586
9902.811
-1679.11349
-6572.90364
-6556.34756
8509.38222
10017.3396
9552.12653
10188.8586
10190.5046
-2642.31562
-7075.41157
-6203.3368
-7848.48529
-7793.38168
8540.73873
10098.4247
9919.02993
-3207.03572
-5496.82353
7851.5967
9900.28952
9601.53575
9845.76379
-938.535974
-6544.88607
-6379.46909
9047.70242
10119.9911
-2597.56795
-4452.56808
8489.4883
10178.6141
-1746.36648
-4436.92841
-5331.92219
-5348.37154
8453.66774
10128.4667
9987.7125
10134.0076
162.873644
-5259.67368
-5287.60032
9150.63777
10072.6154
541.761491
-5888.41277
-4051.4082
9013.2429
-1117.04749
-5744.04899
8454.43547
10036.8103
-3320.22487
-5030.00793
8291.60592
10148.1373
-3783.09173
-4631.86566
8095.23491
10344.8154
10056.8997
-3017.68293
-5340.59119
7982.09208
9848.16688
9627.40167
9683.68144
-973.641597
-8060.19703
-5910.62509
8660.88279
-1611.37524
-6385.81002
8470.11708
9778.07678
-2042.36299
-7222.96561
-6969.2245
8734.57494
10127.6957
10052.8866
-3496.93777
-4540.44646
8143.04076
-2346.07622
-6435.49121
7948.03273
10164.0365
9856.99995
-3172.92702
-5210.74159
7973.94042
9980.82494
9675.24449
9953.09814
-442.981648
-5575.9475
-4692.28401
-6363.11068
-6380.35912
8557.97322
10017.3723
-3045.73044
-5201.85427
8382.85713
9909.66086
-1927.47192
-6673.22811
-6666.08196
8598.21912
9929.00592
9936.8517
9929.10076
-246.427547
-6420.07481
-5990.81276
8890.56207
10371.0232
10236.2999
-2144.09601
-3252.90523
8500.62178
-912.863933
-5732.37634
8595.13387
9872.95831
-1678.60323
-6962.5167
-6837.72488
8770.36134
10151.6364
10108.8079
-3455.86778
-6688.08133
8310.55151
9009.55447
-2658.13786
7948.42986
10035.9856
-3127.81034
-7864.22271
-7747.94466
8340.22551
10142.0756
9520.60026
-2627.1026
-6127.45808
8046.07854
9965.68047
-4335.0557
-5450.73212
7833.49255
10159.669
10024.1117
-3817.23887
-4903.64695
7922.04978
-2450.65835
-7175.41832
7527.05971
9704.94047
9496.70282
9670.69066
-1248.00184
-7551.52192
-7600.14335
8550.55933
9674.48303
-2034.31932
-7671.58192
-7697.40101
8447.13601
10096.4117
10042.5253
-2629.70711
-8461.19605
-8478.2897
7975.68462
9776.68953
9183.07395
10033.7629
9822.95557
-3243.53255
-6594.56735
7806.2322
9845.42783
-3765.48098
-5599.88268
7977.76528
10033.2151
-3057.70041
-4856.52024
8249.76217
10022.8161
-1306.73842
-5790.87943
-5810.11659
8620.01898
10138.4886
-1994.89821
-4144.40096
8457.83852
10169.3713
-634.212632
-5131.75009
-5161.54729
8702.85464
10071.9631
-394.486351
-5647.89911
-5630.9394
8539.15756
10350.4755
10298.1017
-1650.30744
-4899.97283
-6422.77673
-6439.28827
8113.88956
10294.8377
9834.72764
-1796.49138
-4949.79184
8329.94568
10144.5646
-2272.4828
-4177.11342
8428.44176
10272.0393
-1860.01744
-3770.33498
8567.52461
10264.3932
80.060256
-4685.52513
-4665.64714
8776.95504
10314.7336
-1555.29798
-3545.96939
8593.01305
10334.8834
-898.517208
-3802.07259
-5364.23814
-5346.43694
8254.47897
10082.5685
-3568.73818
-5255.31817
6974.90265
9984.3491
9269.78181
10148.9973
10110.0399
-2375.65413
-6975.65534
-8228.30374
-8259.62803
6903.80628
9610.58751
-4448.10498
-7028.38092
5180.92767
9646.01531
9338.77266
9856.51444
9708.32417
10220.5176
10248.123
-1363.832
-5807.8658
-5708.22603
-5921.01974
-7321.26202
-7323.33954
8169.8364
10267.7465
9813.14874
-1475.40736
-4624.69548
8481.40055
10246.9948
-1873.05711
-3664.1573
8635.69753
10360.4705
-604.33254
-3548.89777
-4908.39717
-4913.19484
8490.45443
10154.9116
-2834.90229
-4785.28014
8223.16005
10032.3149
-3399.56379
-5771.70384
8118.01309
9706.93353
-2270.7571
-8115.84031
-8072.02384
7817.15374
9789.18671
9224.85402
10021.9274
9901.21246
10386.8349
10411.0994
-331.295939
-4431.24408
-5502.84753
-5512.09409
8462.99011
10115.4546
-2647.61881
-4477.24932
8535.73836
10210.9455
-1028.22337
-4090.19037
-5096.16016
-5084.06987
8587.93459
10041.6223
-1162.62185
-5769.03297
-5728.93012
8751.61776
10396.2608
10386.9721
-1814.94253
-3943.34372
8832.23969
10301.1671
612.91987
-4414.05682
-4388.66122
9049.96074
10267.8941
-334.547442
-4656.36641
-4644.37199
9076.00953
10199.6191
-647.138279
-5008.19728
-4993.71201
9058.62594
10169.9876
-1663.18803
-4553.14613
-6189.3015
-6170.10259
8361.05042
10151.7459
9817.60273
-3809.87306
-6004.2315
7989.73872
10015.8425
9287.73903
10246.7246
10219.1019
-2263.68935
-5771.91227
-6893.47437
-6982.68603
8351.46747
9177.90912
-2883.75691
8449.67376
10275.9532
-2229.57209
-5421.67467
-5425.53487
9137.83815
10071.7781
-1334.36496
-5380.85981
-5384.87092
9235.57463
10168.7224
-2405.01154
-4391.13296
9095.09599
10245.6131
-2199.19819
-4281.60865
9240.41392
10224.2683
1126.19786
-5140.06161
-4662.28855
9303.17451
-1514.86479
-5562.97267
9020.97147
10167.3923
-3674.26888
-4253.55468
8793.45617
10549.6228
10058.6079
-1290.98863
-5641.70581
-5606.44971
9409.89856
10255.8023
-3255.38378
-3495.23524
8980.04468
-1341.50147
-5817.69043
)
;

boundaryField
{
    closed
    {
        type            lookUpEnthalpy;
        h0              uniform 257838.228;
        value           uniform 257838.228;
    }
    open
    {
        type            zeroGradient;
    }
    sides
    {
        type            empty;
    }
    procBoundary0to1
    {
        type            processor;
        value           uniform 9230.53583;
    }
}


// ************************************************************************* //
