/*--------------------------------*- C++ -*----------------------------------*\
| =========                 |                                                 |
| \\      /  F ield         | OpenFOAM: The Open Source CFD Toolbox           |
|  \\    /   O peration     | Version:  2306                                  |
|   \\  /    A nd           | Website:  www.openfoam.com                      |
|    \\/     M anipulation  |                                                 |
\*---------------------------------------------------------------------------*/
FoamFile
{
    version     2.0;
    format      ascii;
    arch        "LSB;label=32;scalar=64";
    class       volScalarField;
    location    "0.0018";
    object      mu;
}
// * * * * * * * * * * * * * * * * * * * * * * * * * * * * * * * * * * * * * //

dimensions      [1 -1 -1 0 0 0 0];

internalField   nonuniform List<scalar> 
530
(
2.14473631e-05
2.00452904e-05
1.98054942e-05
1.97991282e-05
1.97985685e-05
1.97985383e-05
1.97985359e-05
1.97985358e-05
1.97985358e-05
1.97985358e-05
1.97985358e-05
1.97985358e-05
1.97985358e-05
1.97985358e-05
1.97985358e-05
1.97985358e-05
1.97985358e-05
1.97985358e-05
1.97985358e-05
1.97985358e-05
1.97985358e-05
1.97985358e-05
1.97985358e-05
1.97985358e-05
1.97985358e-05
1.97985358e-05
1.97985358e-05
1.97985358e-05
1.97985358e-05
1.97985358e-05
1.97985358e-05
1.97985358e-05
1.97985358e-05
1.97985358e-05
1.97985358e-05
1.97985358e-05
1.97985358e-05
1.97985358e-05
1.97985358e-05
1.97985358e-05
1.97985358e-05
1.97985358e-05
1.97985358e-05
1.97985358e-05
1.97985358e-05
1.97985358e-05
1.97985358e-05
1.97985358e-05
1.97985358e-05
1.97985358e-05
1.97985358e-05
1.97985358e-05
1.97985358e-05
1.97985358e-05
1.97985358e-05
1.97985358e-05
1.97985358e-05
1.97985358e-05
1.97985358e-05
1.97985359e-05
1.97985359e-05
1.97985361e-05
1.97985362e-05
1.97985375e-05
1.9798538e-05
1.97985438e-05
1.97985471e-05
1.97985652e-05
1.97985892e-05
1.97986391e-05
1.97986488e-05
1.97987629e-05
1.97989942e-05
1.98001058e-05
1.97997578e-05
1.97945959e-05
1.97962549e-05
1.98255931e-05
1.98262432e-05
1.97620974e-05
1.97473201e-05
1.99170614e-05
2.03067219e-05
1.98890191e-05
1.97281762e-05
1.97614475e-05
1.98486987e-05
1.97883432e-05
1.97113888e-05
1.95919488e-05
1.96323747e-05
2.02652178e-05
2.03137164e-05
2.03157039e-05
1.9771057e-05
1.94276084e-05
1.95485026e-05
2.02794913e-05
2.031068e-05
2.03123512e-05
1.97418482e-05
1.94749413e-05
1.93883476e-05
1.93858208e-05
2.02525812e-05
2.02925994e-05
2.02759351e-05
2.03025725e-05
2.02956282e-05
1.97573434e-05
1.93852494e-05
1.93793345e-05
2.02715688e-05
2.02760537e-05
1.97641992e-05
1.93347306e-05
1.9343049e-05
2.02443122e-05
2.02823564e-05
2.02653927e-05
2.02980451e-05
2.0286356e-05
1.97228309e-05
1.92895566e-05
1.93821128e-05
1.9206249e-05
1.92134703e-05
2.02569803e-05
2.02736542e-05
2.02765538e-05
1.96735632e-05
1.94496413e-05
2.0240697e-05
2.02791111e-05
2.02655093e-05
2.02782767e-05
1.97651083e-05
1.93393014e-05
1.93630497e-05
2.02564918e-05
2.0290924e-05
1.97323702e-05
1.95535526e-05
2.02538651e-05
2.02958273e-05
1.97790189e-05
1.95546947e-05
1.94638709e-05
1.94649852e-05
2.02410748e-05
2.02830408e-05
2.0269874e-05
2.02876669e-05
1.97717165e-05
1.94732955e-05
1.94716473e-05
2.02648861e-05
2.02841154e-05
1.97773985e-05
1.9409709e-05
1.95919308e-05
2.02753849e-05
1.97722726e-05
1.94255572e-05
2.02524494e-05
2.02902833e-05
1.96628916e-05
1.94972465e-05
2.02393817e-05
2.02887148e-05
1.96172389e-05
1.95355203e-05
2.02413759e-05
2.02761816e-05
2.02701015e-05
1.96921607e-05
1.94637189e-05
2.02364585e-05
2.02694537e-05
2.02603893e-05
2.02692881e-05
1.97721525e-05
1.91757079e-05
1.94077984e-05
2.02492759e-05
1.97741906e-05
1.93523272e-05
2.02569879e-05
2.02603386e-05
1.97788516e-05
1.9264502e-05
1.92974395e-05
2.0254954e-05
2.02717778e-05
2.02729109e-05
1.96455707e-05
1.95442105e-05
2.02469918e-05
1.9753799e-05
1.93484808e-05
2.02475094e-05
2.02644439e-05
2.02646062e-05
1.9677249e-05
1.94766512e-05
2.02327839e-05
2.02729823e-05
2.02558741e-05
2.02749393e-05
1.97749024e-05
1.94385442e-05
1.9529762e-05
1.93544206e-05
1.93611406e-05
2.02286272e-05
2.0279457e-05
1.96897829e-05
1.947886e-05
2.02484751e-05
2.02762945e-05
1.97818423e-05
1.93243131e-05
1.93289793e-05
2.02433647e-05
2.02703992e-05
2.02693655e-05
2.02755143e-05
1.97741126e-05
1.93534184e-05
1.93996446e-05
2.02664257e-05
2.02776745e-05
2.02821006e-05
1.97748403e-05
1.96689071e-05
2.02489121e-05
1.97741451e-05
1.94207948e-05
2.02571103e-05
2.02644935e-05
1.97799397e-05
1.92930828e-05
1.93108076e-05
2.02550649e-05
2.02692989e-05
2.02655923e-05
1.96495816e-05
1.9321581e-05
2.02469409e-05
2.02366372e-05
1.97247609e-05
2.02248028e-05
2.02778508e-05
1.96817365e-05
1.91986808e-05
1.92081747e-05
2.02446025e-05
2.0256824e-05
2.02590341e-05
1.97301227e-05
1.93825154e-05
2.02292229e-05
2.02688709e-05
1.95609163e-05
1.94523888e-05
2.02278358e-05
2.02647073e-05
2.02577434e-05
1.96139397e-05
1.95066202e-05
2.02254418e-05
1.97459975e-05
1.92630856e-05
2.02017816e-05
2.02484354e-05
2.02449762e-05
2.02559729e-05
1.97850256e-05
1.92259302e-05
1.92296895e-05
2.02339745e-05
2.02582078e-05
1.97853281e-05
1.92141017e-05
1.921914e-05
2.02401182e-05
2.02714166e-05
2.02582471e-05
1.97278267e-05
1.91275906e-05
1.91382016e-05
2.02243413e-05
2.02666635e-05
2.02463692e-05
2.02741256e-05
2.02702914e-05
1.96700609e-05
1.93393038e-05
2.02330439e-05
2.02818733e-05
1.96184425e-05
1.94394767e-05
2.02238489e-05
2.02793129e-05
1.96887982e-05
1.95124113e-05
2.02431125e-05
2.02695197e-05
1.97793641e-05
1.94125297e-05
1.94187372e-05
2.02330058e-05
2.02844698e-05
1.97914981e-05
1.95828952e-05
2.02493906e-05
2.02790037e-05
1.97813393e-05
1.94824979e-05
1.94825698e-05
2.02501005e-05
2.02753335e-05
1.97804938e-05
1.94310791e-05
1.943693e-05
2.02549144e-05
2.02923699e-05
2.02859855e-05
1.97611448e-05
1.95092549e-05
1.93560443e-05
1.93552083e-05
2.02541758e-05
2.02813477e-05
2.02779988e-05
1.97822821e-05
1.95048054e-05
2.02494564e-05
2.02950493e-05
1.97646054e-05
1.95800293e-05
2.02432984e-05
2.02926683e-05
1.98003531e-05
1.96190991e-05
2.0255503e-05
2.02768046e-05
1.97787005e-05
1.95268549e-05
1.95326692e-05
2.02345171e-05
2.02927046e-05
1.98065299e-05
1.96404221e-05
2.02460582e-05
2.0292823e-05
1.97938521e-05
1.96160398e-05
1.94564886e-05
1.94643548e-05
2.02260284e-05
2.027652e-05
1.96381725e-05
1.9473215e-05
2.01277407e-05
2.02782828e-05
2.02540314e-05
2.0288308e-05
2.02772786e-05
1.97505045e-05
1.9297847e-05
1.91638878e-05
1.9163428e-05
2.01330873e-05
2.02660763e-05
1.95525839e-05
1.92910766e-05
1.99593299e-05
2.02657786e-05
2.02684555e-05
2.02792015e-05
2.02717755e-05
2.02930113e-05
2.02879004e-05
1.97593792e-05
1.94177467e-05
1.94297385e-05
1.94052136e-05
1.9257836e-05
1.92579408e-05
2.02413992e-05
2.02638272e-05
2.02653902e-05
1.97980071e-05
1.95353489e-05
2.02387709e-05
2.02833478e-05
1.98043884e-05
1.96293437e-05
2.02427958e-05
2.02847577e-05
1.97955115e-05
1.96404717e-05
1.95038817e-05
1.95075573e-05
2.02399177e-05
2.02851211e-05
1.97106143e-05
1.9520689e-05
2.0240359e-05
2.02876494e-05
1.96551358e-05
1.94229478e-05
2.02554113e-05
2.02776313e-05
1.97611261e-05
1.91690662e-05
1.91892266e-05
2.0226435e-05
2.02829542e-05
2.02474942e-05
2.02920393e-05
2.02771432e-05
2.03003468e-05
2.02981775e-05
1.97658433e-05
1.95555719e-05
1.94477213e-05
1.94496259e-05
2.02550157e-05
2.02895562e-05
1.97282101e-05
1.95508271e-05
2.02570018e-05
2.02897372e-05
1.97850146e-05
1.95881748e-05
1.94873045e-05
1.94909115e-05
2.02647544e-05
2.02803125e-05
1.97738174e-05
1.94191744e-05
1.94275754e-05
2.02626497e-05
2.02848706e-05
2.02846801e-05
1.97796439e-05
1.96024304e-05
2.02730372e-05
2.02822786e-05
1.97814685e-05
1.95555196e-05
1.95593907e-05
2.0267891e-05
2.02828653e-05
1.97756259e-05
1.95316546e-05
1.95344224e-05
2.02734832e-05
2.02816276e-05
1.97727571e-05
1.94962093e-05
1.95004622e-05
2.02698204e-05
2.02884868e-05
1.97792471e-05
1.95429043e-05
1.93772381e-05
1.93818773e-05
2.02622216e-05
2.02734893e-05
2.02720577e-05
1.96149744e-05
1.93997535e-05
2.02442603e-05
2.02891349e-05
2.02506432e-05
2.0296508e-05
2.02759908e-05
1.97601803e-05
1.94205787e-05
1.93075845e-05
1.92952189e-05
2.0264656e-05
2.02493802e-05
1.97032586e-05
2.02500202e-05
2.02857241e-05
1.9767024e-05
1.94550599e-05
1.94561126e-05
2.02795031e-05
2.0274659e-05
1.97692931e-05
1.94573925e-05
1.94625942e-05
2.02670554e-05
2.02950127e-05
1.97511421e-05
1.95594346e-05
2.02689348e-05
2.02948072e-05
1.97701731e-05
1.95698098e-05
2.02783064e-05
2.02855669e-05
1.97879748e-05
1.94850249e-05
1.95327106e-05
2.02865828e-05
1.97694382e-05
1.94439701e-05
2.02833161e-05
2.02934469e-05
1.96283788e-05
1.9572792e-05
2.02835984e-05
2.02991851e-05
2.02808213e-05
1.97589903e-05
1.94344244e-05
1.94418432e-05
2.02799208e-05
2.02967831e-05
1.96686313e-05
1.96451741e-05
2.02848151e-05
1.97664886e-05
1.94174246e-05
)
;

boundaryField
{
    closed
    {
        type            calculated;
        value           uniform 2.72384934e-05;
    }
    open
    {
        type            calculated;
        value           nonuniform List<scalar> 0();
    }
    sides
    {
        type            empty;
    }
    procBoundary0to1
    {
        type            processor;
        value           uniform 2.02848014e-05;
    }
}


// ************************************************************************* //
