/*--------------------------------*- C++ -*----------------------------------*\
| =========                 |                                                 |
| \\      /  F ield         | OpenFOAM: The Open Source CFD Toolbox           |
|  \\    /   O peration     | Version:  2306                                  |
|   \\  /    A nd           | Website:  www.openfoam.com                      |
|    \\/     M anipulation  |                                                 |
\*---------------------------------------------------------------------------*/
FoamFile
{
    version     2.0;
    format      ascii;
    arch        "LSB;label=32;scalar=64";
    class       volScalarField;
    location    "0.0018";
    object      prefDZ_H2;
}
// * * * * * * * * * * * * * * * * * * * * * * * * * * * * * * * * * * * * * //

dimensions      [1 -1 -1 0 0 0 0];

internalField   nonuniform List<scalar> 
530
(
6.67770877e-05
6.30143381e-05
6.23509842e-05
6.2332227e-05
6.2330555e-05
6.23304668e-05
6.23304601e-05
6.23304598e-05
6.23304597e-05
6.23304597e-05
6.23304597e-05
6.23304597e-05
6.23304597e-05
6.23304597e-05
6.23304597e-05
6.23304597e-05
6.23304597e-05
6.23304597e-05
6.23304597e-05
6.23304597e-05
6.23304597e-05
6.23304597e-05
6.23304597e-05
6.23304597e-05
6.23304597e-05
6.23304597e-05
6.23304597e-05
6.23304597e-05
6.23304597e-05
6.23304597e-05
6.23304597e-05
6.23304597e-05
6.23304597e-05
6.23304597e-05
6.23304597e-05
6.23304597e-05
6.23304597e-05
6.23304597e-05
6.23304597e-05
6.23304597e-05
6.23304597e-05
6.23304597e-05
6.23304597e-05
6.23304597e-05
6.23304597e-05
6.23304597e-05
6.23304597e-05
6.23304597e-05
6.23304597e-05
6.23304597e-05
6.23304597e-05
6.23304597e-05
6.23304597e-05
6.23304597e-05
6.23304597e-05
6.23304597e-05
6.23304597e-05
6.23304598e-05
6.23304598e-05
6.23304599e-05
6.23304599e-05
6.23304606e-05
6.23304609e-05
6.23304646e-05
6.2330466e-05
6.23304825e-05
6.23304925e-05
6.2330545e-05
6.23306088e-05
6.23307544e-05
6.23308136e-05
6.23311659e-05
6.2331683e-05
6.23342333e-05
6.23337161e-05
6.23245721e-05
6.23282756e-05
6.23879052e-05
6.2389403e-05
6.2288248e-05
6.22748987e-05
6.2588863e-05
6.36026487e-05
6.25266434e-05
6.22383665e-05
6.22968228e-05
6.2437451e-05
6.23232812e-05
6.21927481e-05
6.18649813e-05
6.19765653e-05
6.34664093e-05
6.3634666e-05
6.36395662e-05
6.22849322e-05
6.14177432e-05
6.17476173e-05
6.35021568e-05
6.36216508e-05
6.3624271e-05
6.22690965e-05
6.15471716e-05
6.13097619e-05
6.13031818e-05
6.34152211e-05
6.35636892e-05
6.350678e-05
6.35975497e-05
6.35767536e-05
6.22968862e-05
6.13009279e-05
6.128475e-05
6.34827416e-05
6.35103397e-05
6.23254245e-05
6.11603005e-05
6.1185253e-05
6.33931181e-05
6.3530974e-05
6.34729285e-05
6.35805654e-05
6.354566e-05
6.22239843e-05
6.10391269e-05
6.12932785e-05
6.08109326e-05
6.08310036e-05
6.34313521e-05
6.35062851e-05
6.35120905e-05
6.20862038e-05
6.14760609e-05
6.33713607e-05
6.35194248e-05
6.34740702e-05
6.35160651e-05
6.23139485e-05
6.11733188e-05
6.12406441e-05
6.34382312e-05
6.35581921e-05
6.22461512e-05
6.17608125e-05
6.34212247e-05
6.35737735e-05
6.23683481e-05
6.17632402e-05
6.15135968e-05
6.1518278e-05
6.33825627e-05
6.35347785e-05
6.34932528e-05
6.35486828e-05
6.23103536e-05
6.15406327e-05
6.15368971e-05
6.34649229e-05
6.35371032e-05
6.23185517e-05
6.13667658e-05
6.18643966e-05
6.34939928e-05
6.23377352e-05
6.14106692e-05
6.34164275e-05
6.35549595e-05
6.20560207e-05
6.16069759e-05
6.33748309e-05
6.35520369e-05
6.19308347e-05
6.17106999e-05
6.33774795e-05
6.35177125e-05
6.34950289e-05
6.21362383e-05
6.15135859e-05
6.33609552e-05
6.3489779e-05
6.3459224e-05
6.3486656e-05
6.23346686e-05
6.07256849e-05
6.13617024e-05
6.3410396e-05
6.23523267e-05
6.12077235e-05
6.34302041e-05
6.3461485e-05
6.23731601e-05
6.09680039e-05
6.10597051e-05
6.34285178e-05
6.350115e-05
6.35033461e-05
6.20098922e-05
6.17340921e-05
6.33949895e-05
6.23063328e-05
6.11976599e-05
6.33932554e-05
6.34798516e-05
6.34754646e-05
6.20951884e-05
6.15488217e-05
6.33498941e-05
6.35024157e-05
6.34465375e-05
6.35078144e-05
6.23321705e-05
6.1444156e-05
6.16951654e-05
6.12133483e-05
6.12347111e-05
6.33472828e-05
6.35223187e-05
6.21289172e-05
6.15556973e-05
6.34034064e-05
6.35111674e-05
6.23795016e-05
6.11318722e-05
6.11458682e-05
6.3391769e-05
6.34938862e-05
6.3490928e-05
6.35091484e-05
6.2325938e-05
6.12122783e-05
6.1339421e-05
6.34652642e-05
6.35225803e-05
6.3533674e-05
6.23624328e-05
6.20740349e-05
6.34066627e-05
6.233917e-05
6.13949242e-05
6.34326394e-05
6.3475383e-05
6.23697167e-05
6.10463336e-05
6.10961199e-05
6.34294371e-05
6.34941336e-05
6.34824029e-05
6.20206017e-05
6.11240515e-05
6.33976364e-05
6.33785145e-05
6.22270226e-05
6.33257505e-05
6.35178195e-05
6.210709e-05
6.07888627e-05
6.08141051e-05
6.33911722e-05
6.34567937e-05
6.34534694e-05
6.22393931e-05
6.12913499e-05
6.33405234e-05
6.3489911e-05
6.17760098e-05
6.14825284e-05
6.33328227e-05
6.34805679e-05
6.34576662e-05
6.19220057e-05
6.16300805e-05
6.33272043e-05
6.22836502e-05
6.09624823e-05
6.32676458e-05
6.34248596e-05
6.34112208e-05
6.34467587e-05
6.2376235e-05
6.08618131e-05
6.0874254e-05
6.33630535e-05
6.3453478e-05
6.23909497e-05
6.08297642e-05
6.08453807e-05
6.33796088e-05
6.34995773e-05
6.34594589e-05
6.2235076e-05
6.05933135e-05
6.0624849e-05
6.33248382e-05
6.34803173e-05
6.34102943e-05
6.35066671e-05
6.34918754e-05
6.20766199e-05
6.11750838e-05
6.33478392e-05
6.35267964e-05
6.19331451e-05
6.14483949e-05
6.33234107e-05
6.35221397e-05
6.21254225e-05
6.16467064e-05
6.33852308e-05
6.34927532e-05
6.23613322e-05
6.13714692e-05
6.13919529e-05
6.33613217e-05
6.35392044e-05
6.24062427e-05
6.18397104e-05
6.34073775e-05
6.35233721e-05
6.23543071e-05
6.15635366e-05
6.15656195e-05
6.34135428e-05
6.35108769e-05
6.23472315e-05
6.14237136e-05
6.14417474e-05
6.34251726e-05
6.35661482e-05
6.35462497e-05
6.23162755e-05
6.16390663e-05
6.12205008e-05
6.1218537e-05
6.34158876e-05
6.35323483e-05
6.35150596e-05
6.23784063e-05
6.16273292e-05
6.34054469e-05
6.35709095e-05
6.23330923e-05
6.18328523e-05
6.33887589e-05
6.35658056e-05
6.24301407e-05
6.19385523e-05
6.34273952e-05
6.35183068e-05
6.23324446e-05
6.16841014e-05
6.17034741e-05
6.33684002e-05
6.35665865e-05
6.24421509e-05
6.1997459e-05
6.33996977e-05
6.35672572e-05
6.23947836e-05
6.19301811e-05
6.14914062e-05
6.15160414e-05
6.33345199e-05
6.35145858e-05
6.19871406e-05
6.15400802e-05
6.30876704e-05
6.35182893e-05
6.34345145e-05
6.3550835e-05
6.35172849e-05
6.22976709e-05
6.10611441e-05
6.06947728e-05
6.06941597e-05
6.31010455e-05
6.3475906e-05
6.17560888e-05
6.10422684e-05
6.26866759e-05
6.3475587e-05
6.34786187e-05
6.3518997e-05
6.34944699e-05
6.35660182e-05
6.35511823e-05
6.23058783e-05
6.13886619e-05
6.14223999e-05
6.13539653e-05
6.09507836e-05
6.09511558e-05
6.33787982e-05
6.34796481e-05
6.34771029e-05
6.24168498e-05
6.17092793e-05
6.33761698e-05
6.3537567e-05
6.24405728e-05
6.1966283e-05
6.33906953e-05
6.35435634e-05
6.2394059e-05
6.19964802e-05
6.16211513e-05
6.16340878e-05
6.33797309e-05
6.35414092e-05
6.21851277e-05
6.16704392e-05
6.33765954e-05
6.35470194e-05
6.20343902e-05
6.1403628e-05
6.34196362e-05
6.351192e-05
6.23261355e-05
6.0707406e-05
6.07660306e-05
6.33283852e-05
6.35291256e-05
6.34143214e-05
6.35599702e-05
6.35135659e-05
6.35905666e-05
6.35844609e-05
6.23038448e-05
6.17662393e-05
6.14700976e-05
6.14769101e-05
6.34242117e-05
6.35540333e-05
6.2234098e-05
6.1752774e-05
6.34313333e-05
6.35560835e-05
6.23721658e-05
6.1854164e-05
6.15773715e-05
6.15888537e-05
6.3455298e-05
6.35252572e-05
6.23429713e-05
6.13914158e-05
6.14164435e-05
6.34517261e-05
6.35444626e-05
6.35437476e-05
6.23713323e-05
6.1893296e-05
6.34840232e-05
6.35352275e-05
6.23289391e-05
6.1763613e-05
6.17760624e-05
6.3472241e-05
6.35364554e-05
6.23320767e-05
6.16986766e-05
6.17078547e-05
6.34893443e-05
6.35316831e-05
6.23300676e-05
6.16017175e-05
6.1615446e-05
6.34781356e-05
6.35517011e-05
6.23674922e-05
6.17304532e-05
6.12773511e-05
6.12910829e-05
6.34439844e-05
6.35066363e-05
6.34970587e-05
6.19255694e-05
6.13403761e-05
6.33842887e-05
6.35511956e-05
6.3424716e-05
6.35768834e-05
6.35151643e-05
6.23244427e-05
6.13960169e-05
6.1088121e-05
6.10533965e-05
6.34510799e-05
6.34191733e-05
6.21686185e-05
6.34091161e-05
6.35451203e-05
6.23409492e-05
6.14896806e-05
6.14933474e-05
6.35083148e-05
6.35088613e-05
6.23333876e-05
6.14951175e-05
6.1512566e-05
6.34727709e-05
6.3571182e-05
6.2297022e-05
6.17767553e-05
6.34760896e-05
6.35717819e-05
6.23493537e-05
6.18045655e-05
6.35064113e-05
6.35438361e-05
6.2336163e-05
6.15725408e-05
6.17032306e-05
6.35321386e-05
6.23371588e-05
6.14611124e-05
6.35177903e-05
6.35664811e-05
6.19635147e-05
6.18135556e-05
6.35149023e-05
6.35896433e-05
6.35270453e-05
6.23033799e-05
6.14341548e-05
6.1456633e-05
6.3513975e-05
6.35778491e-05
6.20733586e-05
6.20105729e-05
6.35215967e-05
6.23255875e-05
6.13881009e-05
)
;

boundaryField
{
    closed
    {
        type            calculated;
        value           uniform 8.16527999e-05;
    }
    open
    {
        type            calculated;
        value           nonuniform List<scalar> 0();
    }
    sides
    {
        type            empty;
    }
    procBoundary0to1
    {
        type            processor;
        value           uniform 6.35256399e-05;
    }
}


// ************************************************************************* //
