/*--------------------------------*- C++ -*----------------------------------*\
| =========                 |                                                 |
| \\      /  F ield         | OpenFOAM: The Open Source CFD Toolbox           |
|  \\    /   O peration     | Version:  2306                                  |
|   \\  /    A nd           | Website:  www.openfoam.com                      |
|    \\/     M anipulation  |                                                 |
\*---------------------------------------------------------------------------*/
FoamFile
{
    version     2.0;
    format      ascii;
    arch        "LSB;label=32;scalar=64";
    class       volScalarField;
    location    "0.00174";
    object      prefDZ_T;
}
// * * * * * * * * * * * * * * * * * * * * * * * * * * * * * * * * * * * * * //

dimensions      [1 -1 -1 -1 0 0 0];

internalField   nonuniform List<scalar> 
530
(
-1.03701017e-10
-1.03529032e-10
-1.03352283e-10
-1.03195769e-10
-1.03039368e-10
-1.028942e-10
-1.02744742e-10
-1.02606006e-10
-1.0246308e-10
-1.02330452e-10
-1.0219368e-10
-1.02066846e-10
-1.0193588e-10
-1.01814536e-10
-1.0168905e-10
-1.01572902e-10
-1.01452594e-10
-1.01341357e-10
-1.01225943e-10
-1.01119343e-10
-1.01013283e-10
-1.00917346e-10
-1.00817164e-10
-1.00725059e-10
-1.00628724e-10
-1.00540264e-10
-1.00447609e-10
-1.00362616e-10
-1.00273483e-10
-1.00191785e-10
-1.00106021e-10
-1.00027452e-10
-9.99449121e-11
-9.98693131e-11
-9.97898582e-11
-9.97170756e-11
-9.96405714e-11
-9.9570457e-11
-9.94967743e-11
-9.94291846e-11
-9.9358199e-11
-9.92929948e-11
-9.92245859e-11
-9.91616322e-11
-9.90979865e-11
-9.90425733e-11
-9.89842852e-11
-9.89306521e-11
-9.88743696e-11
-9.88224387e-11
-9.87681007e-11
-9.87177972e-11
-9.86653437e-11
-9.86165953e-11
-9.85647791e-11
-9.85148375e-11
-9.8464144e-11
-9.84158677e-11
-9.83670272e-11
-9.83203327e-11
-9.82732745e-11
-9.82280824e-11
-9.81827371e-11
-9.81389721e-11
-9.80952712e-11
-9.80528616e-11
-9.8010738e-11
-9.79696157e-11
-9.79290029e-11
-9.78891034e-11
-9.78499362e-11
-9.78111978e-11
-9.77734118e-11
-9.77357758e-11
-9.76993079e-11
-9.76627179e-11
-9.76275061e-11
-9.75919079e-11
-9.75578915e-11
-9.75232328e-11
-9.74903524e-11
-9.74565827e-11
-9.74247801e-11
-9.73918506e-11
-9.73610685e-11
-9.73289321e-11
-9.72991145e-11
-9.7270247e-11
-9.72456774e-11
-9.72195008e-11
-9.71956181e-11
-9.71699286e-11
-9.71467009e-11
-9.71214778e-11
-9.70988749e-11
-9.70740974e-11
-9.70520902e-11
-9.7027738e-11
-9.70062985e-11
-9.69823516e-11
-9.69614528e-11
-9.69378916e-11
-9.69175076e-11
-9.68943129e-11
-9.68744187e-11
-9.68515715e-11
-9.68321431e-11
-9.6809625e-11
-9.67906391e-11
-9.67684319e-11
-9.67498664e-11
-9.67279523e-11
-9.67097857e-11
-9.66881472e-11
-9.66703588e-11
-9.6648979e-11
-9.66315488e-11
-9.6610411e-11
-9.65933197e-11
-9.65724079e-11
-9.65556367e-11
-9.65349353e-11
-9.65184658e-11
-9.64979599e-11
-9.64817742e-11
-9.64614496e-11
-9.644553e-11
-9.64253732e-11
-9.64097022e-11
-9.63897006e-11
-9.63742609e-11
-9.63544026e-11
-9.63391773e-11
-9.63194507e-11
-9.63044234e-11
-9.62848173e-11
-9.62699725e-11
-9.62504752e-11
-9.62357988e-11
-9.6216398e-11
-9.62018777e-11
-9.61825592e-11
-9.61681858e-11
-9.61489329e-11
-9.61347006e-11
-9.6115494e-11
-9.61014e-11
-9.608222e-11
-9.60682604e-11
-9.60494445e-11
-9.60349132e-11
-9.6016778e-11
-9.60016942e-11
-9.59841973e-11
-9.5968584e-11
-9.59516815e-11
-9.59355613e-11
-9.59192094e-11
-9.59026045e-11
-9.5886759e-11
-9.58696922e-11
-9.58543063e-11
-9.58368033e-11
-9.5821843e-11
-9.5804356e-11
-9.57892736e-11
-9.57718501e-11
-9.57563872e-11
-9.57392988e-11
-9.57234734e-11
-9.57066882e-11
-9.56905245e-11
-9.56740025e-11
-9.56575195e-11
-9.56412266e-11
-9.56244399e-11
-9.5608346e-11
-9.55912691e-11
-9.55753473e-11
-9.55579924e-11
-9.55422178e-11
-9.55245961e-11
-9.55089453e-11
-9.54910671e-11
-9.54755182e-11
-9.54573927e-11
-9.54419254e-11
-9.54235607e-11
-9.5408156e-11
-9.53905349e-11
-9.53783314e-11
-9.53625557e-11
-9.53502585e-11
-9.53341587e-11
-9.53217573e-11
-9.5305344e-11
-9.52928287e-11
-9.52761118e-11
-9.52634737e-11
-9.52464626e-11
-9.52336936e-11
-9.52163968e-11
-9.52034898e-11
-9.51859152e-11
-9.51728639e-11
-9.51550188e-11
-9.51418178e-11
-9.51237089e-11
-9.51103535e-11
-9.50919869e-11
-9.50784733e-11
-9.50598547e-11
-9.50461795e-11
-9.50273144e-11
-9.50134747e-11
-9.49943684e-11
-9.49803613e-11
-9.49610197e-11
-9.49468421e-11
-9.49272719e-11
-9.49129198e-11
-9.48931295e-11
-9.48785972e-11
-9.48585978e-11
-9.48438772e-11
-9.48236833e-11
-9.48087632e-11
-9.47883923e-11
-9.47732593e-11
-9.47527296e-11
-9.47373707e-11
-9.47166962e-11
-9.47011084e-11
-9.46802788e-11
-9.46647847e-11
-9.46436124e-11
-9.46276914e-11
-9.46065558e-11
-9.4590252e-11
-9.45691253e-11
-9.45524632e-11
-9.4531329e-11
-9.45143284e-11
-9.44931753e-11
-9.4475853e-11
-9.44546716e-11
-9.44370433e-11
-9.44158257e-11
-9.43979057e-11
-9.43766449e-11
-9.43584462e-11
-9.43371365e-11
-9.43186712e-11
-9.42973078e-11
-9.42785866e-11
-9.42571657e-11
-9.42381991e-11
-9.42167175e-11
-9.41975151e-11
-9.41759702e-11
-9.41565414e-11
-9.41349313e-11
-9.41152853e-11
-9.40936081e-11
-9.40737538e-11
-9.40520084e-11
-9.40319544e-11
-9.40101399e-11
-9.39898947e-11
-9.39680107e-11
-9.39475823e-11
-9.39256289e-11
-9.39050253e-11
-9.38830027e-11
-9.38622317e-11
-9.38401405e-11
-9.38192095e-11
-9.37970508e-11
-9.37759673e-11
-9.37537422e-11
-9.37325133e-11
-9.37102235e-11
-9.36888563e-11
-9.36665034e-11
-9.3644185e-11
-9.36209196e-11
-9.35984666e-11
-9.35751326e-11
-9.35525535e-11
-9.35291534e-11
-9.35064547e-11
-9.34829911e-11
-9.34601794e-11
-9.34366554e-11
-9.3413737e-11
-9.33901555e-11
-9.33671368e-11
-9.33435012e-11
-9.33203885e-11
-9.3296702e-11
-9.32735014e-11
-9.32497676e-11
-9.32264854e-11
-9.32027078e-11
-9.31793502e-11
-9.31555324e-11
-9.31321055e-11
-9.31082513e-11
-9.30847611e-11
-9.30608745e-11
-9.3037327e-11
-9.30134118e-11
-9.29898132e-11
-9.29658733e-11
-9.29422296e-11
-9.2918269e-11
-9.28945862e-11
-9.2870609e-11
-9.2846893e-11
-9.28229033e-11
-9.279916e-11
-9.27751622e-11
-9.27513971e-11
-9.27273958e-11
-9.27036139e-11
-9.26796141e-11
-9.26558199e-11
-9.26316342e-11
-9.26076321e-11
-9.25834554e-11
-9.25594721e-11
-9.25353294e-11
-9.25113692e-11
-9.2487265e-11
-9.24633327e-11
-9.2439271e-11
-9.24153716e-11
-9.23913563e-11
-9.23674946e-11
-9.23435297e-11
-9.23197107e-11
-9.22958e-11
-9.22720284e-11
-9.22481759e-11
-9.22244566e-11
-9.22006662e-11
-9.21770038e-11
-9.21532795e-11
-9.21296786e-11
-9.21060245e-11
-9.20824896e-11
-9.20589097e-11
-9.20354453e-11
-9.20119437e-11
-9.19885542e-11
-9.19651349e-11
-9.19418247e-11
-9.19184917e-11
-9.1895265e-11
-9.18720223e-11
-9.18488835e-11
-9.18257351e-11
-9.18026882e-11
-9.1779638e-11
-9.17566874e-11
-9.17337392e-11
-9.17108891e-11
-9.16880465e-11
-9.16653011e-11
-9.16425679e-11
-9.16199313e-11
-9.1597311e-11
-9.15747876e-11
-9.15522835e-11
-9.15298775e-11
-9.15074931e-11
-9.14852087e-11
-9.14629473e-11
-9.14405027e-11
-9.14173744e-11
-9.13943454e-11
-9.13713454e-11
-9.13484416e-11
-9.13255734e-11
-9.13027995e-11
-9.12800666e-11
-9.12574268e-11
-9.12348328e-11
-9.12123314e-11
-9.11898798e-11
-9.11675208e-11
-9.1145215e-11
-9.11230024e-11
-9.11008461e-11
-9.10787835e-11
-9.105678e-11
-9.1034871e-11
-9.1013024e-11
-9.0991272e-11
-9.09695847e-11
-9.09479932e-11
-9.09264688e-11
-9.0905041e-11
-9.08836827e-11
-9.08624217e-11
-9.08412328e-11
-9.08201417e-11
-9.07991249e-11
-9.07782067e-11
-9.0757365e-11
-9.07366225e-11
-9.07159587e-11
-9.06953947e-11
-9.06749115e-11
-9.06545287e-11
-9.06342285e-11
-9.06140295e-11
-9.05939149e-11
-9.05739022e-11
-9.05539754e-11
-9.05341514e-11
-9.05144148e-11
-9.04947817e-11
-9.04752373e-11
-9.04557974e-11
-9.04364473e-11
-9.04172026e-11
-9.03980487e-11
-9.03790012e-11
-9.03600455e-11
-9.03411968e-11
-9.03224412e-11
-9.03037929e-11
-9.02852392e-11
-9.02667926e-11
-9.0248443e-11
-9.02301991e-11
-9.02120554e-11
-9.01940152e-11
-9.01759968e-11
-9.01580003e-11
-9.01401109e-11
-9.01223309e-11
-9.0104656e-11
-9.00870925e-11
-9.00696332e-11
-9.00522864e-11
-9.00350437e-11
-9.00179137e-11
-9.00008881e-11
-8.99839752e-11
-8.99671673e-11
-8.99504542e-11
-8.99332375e-11
-8.99149278e-11
-8.98954598e-11
-8.98747798e-11
-8.98528201e-11
-8.98295252e-11
-8.98048266e-11
-8.97786692e-11
-8.9750986e-11
-8.9721725e-11
-8.96908239e-11
-8.96582385e-11
-8.96239154e-11
-8.95878237e-11
-8.95499254e-11
-8.95102102e-11
-8.94686637e-11
-8.94253053e-11
-8.93801551e-11
-8.93332719e-11
-8.92847255e-11
-8.92336226e-11
-8.91801938e-11
-8.91254655e-11
-8.90696492e-11
-8.90130093e-11
-8.89558427e-11
-8.88985004e-11
-8.88413683e-11
-8.87848789e-11
-8.87294926e-11
-8.86757008e-11
-8.86240026e-11
-8.85749e-11
-8.85288696e-11
-8.84863485e-11
-8.84477058e-11
-8.84132212e-11
-8.83830669e-11
-8.83572814e-11
-8.83357829e-11
-8.83183336e-11
-8.830461e-11
-8.82941435e-11
-8.82864683e-11
-8.82810225e-11
-8.82773299e-11
-8.82749254e-11
-8.82733904e-11
-8.82725365e-11
-8.82722158e-11
-8.82720584e-11
-8.82719843e-11
-8.82719551e-11
-8.82719447e-11
-8.82719394e-11
-8.82719378e-11
-8.82719373e-11
-8.82719371e-11
-8.82719371e-11
-8.82719371e-11
-8.82719371e-11
-8.82719371e-11
-8.82719371e-11
-8.82719371e-11
-8.82719371e-11
-8.82719371e-11
-8.82719371e-11
-8.82719371e-11
-8.82719371e-11
-8.82719371e-11
-8.82719371e-11
-8.82719371e-11
-8.82719371e-11
-8.82719371e-11
-8.82719371e-11
-8.82719371e-11
)
;

boundaryField
{
    closed
    {
        type            calculated;
        value           nonuniform List<scalar> 0();
    }
    open
    {
        type            calculated;
        value           uniform -8.82719371e-11;
    }
    sides
    {
        type            empty;
    }
    procBoundary5to4
    {
        type            processor;
        value           uniform -1.03886234e-10;
    }
}


// ************************************************************************* //
