/*--------------------------------*- C++ -*----------------------------------*\
| =========                 |                                                 |
| \\      /  F ield         | OpenFOAM: The Open Source CFD Toolbox           |
|  \\    /   O peration     | Version:  2306                                  |
|   \\  /    A nd           | Website:  www.openfoam.com                      |
|    \\/     M anipulation  |                                                 |
\*---------------------------------------------------------------------------*/
FoamFile
{
    version     2.0;
    format      ascii;
    arch        "LSB;label=32;scalar=64";
    class       volScalarField;
    location    "0.00084";
    object      sourcePV;
}
// * * * * * * * * * * * * * * * * * * * * * * * * * * * * * * * * * * * * * //

dimensions      [1 -3 -1 0 0 0 0];

internalField   nonuniform List<scalar> 
531
(
0.00598970009
0.00457642828
0.155411555
0.156705838
0.0879127272
0.00588243919
0.0045700313
0.160040275
0.164078933
0.101889428
0.00591333406
0.0037545812
0.142091595
0.123668191
0.00614449708
0.00469897576
0.157762332
0.161613323
0.0959201355
0.00601282493
0.0041361268
0.136408086
0.117744539
0.00628987571
0.00499824778
0.150026065
0.153870507
0.0840887444
0.00586336585
0.00470103009
0.156311532
0.157883847
0.150725181
0.105386781
0.00596089179
0.00502191965
0.15948207
0.161234647
0.0647383864
0.00545021347
0.0663552897
0.146721332
0.0688562266
0.0055396261
0.0810412591
0.147306991
0.100671648
0.00588182826
0.00504082716
0.165051429
0.167478834
0.0416470785
0.00518293213
0.0860282667
0.150663388
0.10575182
0.00570945733
0.00500457922
0.166506981
0.174008691
0.049576579
0.00499373173
0.0899485998
0.158299493
0.0928180871
0.00531739991
0.0533821077
0.15859276
0.116451845
0.00545152096
0.0184783065
0.157218057
0.134050644
0.0055235426
0.00340039504
0.154769857
0.145936671
0.00558269387
0.00461491368
0.149667585
0.144627436
0.00549650677
0.00516925806
0.145762262
0.174425043
0.132109347
0.00567267065
0.00573895859
0.143688903
0.147430564
0.00526780222
0.00550783164
0.143344935
0.1442285
0.00513314276
0.00538560581
0.139318773
0.172579416
0.133668138
0.00545778636
0.00614031697
0.132034889
0.140038996
0.0050213182
0.00557852136
0.131682816
0.171507891
0.135785174
0.00521709343
0.00622941248
0.126017629
0.139406418
0.00466376018
0.00569307978
0.122978208
0.166237565
0.125307002
0.00517200832
0.00592911371
0.114280418
0.164120709
0.12722791
0.00505686019
0.00585707232
0.11255672
0.165621144
0.132163844
0.00488383202
0.00576325782
0.111716429
0.167048439
0.135696406
0.00477039072
0.00568405857
0.111522811
0.16760889
0.14129524
0.00463325648
0.00599191812
0.117581926
0.136658008
0.00348501504
0.0054138076
0.117043852
0.167564652
0.137127797
0.00476955794
0.00594529975
0.11607541
0.133255724
0.0037591918
0.00538620094
0.116028231
0.163284964
0.124393172
0.00518941943
0.0056150236
0.117062157
0.156255231
0.156789478
0.123766023
0.00522424806
0.00534539904
0.116856533
0.164351006
0.118257189
0.00521470062
0.00475707467
0.131774433
0.134437404
0.00430683143
0.00450537376
0.131434615
0.16672466
0.0941532727
0.0049281439
0.00710760084
0.142044131
0.12365343
0.00465508988
0.0122341634
0.161285575
0.14970727
0.00382675348
0.00440200232
0.11408212
0.146450341
0.0989805565
0.00522267362
0.00345734088
0.145597994
0.162463035
0.0774147028
0.00461648391
0.0226289187
0.16931175
0.160393508
0.00596113729
0.00412973907
0.0956422602
0.157521297
0.12092562
0.00533597619
0.00533301764
0.0697572187
0.146041222
0.145141626
0.141552401
0.085986808
0.00559030924
0.00535052553
0.0638190606
0.161464375
0.13236065
0.00507984307
0.00446389725
0.106205178
0.163471605
0.129271869
0.00562087602
0.00432864037
0.143537192
0.145578052
0.0151511326
0.00480281614
0.0970404499
0.163629046
0.12447765
0.00571909108
0.0038027101
0.148059435
0.14706738
0.0342292088
0.00519277951
0.0684158375
0.167553666
0.147696575
0.00443162673
0.00500305912
0.0922980421
0.168717157
0.133217985
0.00517086765
0.00535095087
0.104234959
0.146354906
0.0832919121
0.00518635412
0.0509035109
0.167960073
0.168198906
0.0694854935
0.00454969224
0.0888452434
0.154906909
0.0680533833
0.00459631572
0.0962981804
0.150930384
0.0550204368
0.00463731609
0.102058549
0.147658417
0.0478152335
0.00474883647
0.0993420848
0.142493387
0.0560481848
0.00477449173
0.0744706402
0.158473288
0.124928363
0.00460704163
0.00504889129
0.115022372
0.166817035
0.128335293
0.00423411056
0.00499479903
0.127998371
0.148660531
0.0429158769
0.00449164288
0.0940181269
0.164549263
0.11960658
0.00462309957
0.00513710348
0.13011971
0.146157372
0.0479205921
0.00478634951
0.0793414571
0.158425142
0.126757693
0.00465387164
0.00525351984
0.108458176
0.161149269
0.129379263
0.00451011783
0.00521743285
0.111048989
0.16671512
0.127508539
0.0044903264
0.00522522069
0.130412436
0.153866013
0.0486187468
0.00466957669
0.0910163493
0.166401299
0.12510677
0.00457894861
0.00533374735
0.135933278
0.147581728
0.0160199475
0.00495118877
0.106214536
0.1607612
0.113717021
0.00483161348
0.00369799899
0.150595663
0.155219682
0.00284084988
0.00500073091
0.0994955817
0.169172649
0.15137603
0.0042146906
0.0055680233
0.109254291
0.143684345
0.0399155227
0.00509189729
0.0891145793
0.167017604
0.149147228
0.00414907354
0.00577291391
0.1029134
0.141662562
0.0373298751
0.00518192196
0.0960656218
0.165029424
0.146151487
0.00470281158
0.00541899398
0.108262756
0.168995392
0.145649575
0.0047187952
0.00578216734
0.121894467
0.145596815
0.00819193046
0.00527077875
0.107753208
0.16936522
0.14138954
0.00479419527
0.00592006021
0.129922832
0.143262561
0.00343893341
0.00549028623
0.104267515
0.165201539
0.144854862
0.00506046093
0.00564654634
0.101942774
0.164237473
0.141229481
0.00512633424
0.0058390185
0.0946676557
0.155576972
0.125992786
0.00545617103
0.00597193341
0.0978369521
0.159931847
0.140326519
0.00519407217
0.00586510507
0.104687805
0.156012965
0.163374709
0.136158719
0.00383714231
0.00660343349
0.00484862693
0.101087915
0.170956588
0.147455474
0.00498392245
0.00558199402
0.109890891
0.171073607
0.140040971
0.00474709592
0.00575927513
0.13801823
0.149827625
0.00433140027
0.00536054618
0.110280502
0.174250166
0.134628717
0.00453148447
0.00380178971
0.142725356
0.128305241
0.00488447444
0.00298133605
0.145041535
0.148608778
0.0037388895
0.00559583768
0.100421302
0.167559857
0.135241078
0.00416177593
0.00430560169
0.136831963
0.148609718
0.00279690266
0.00557030218
0.0936630738
0.164133733
0.136374867
0.00381744008
0.00399153392
0.132032243
0.143990899
0.00694196166
0.0056606643
0.0767102008
0.157912886
0.158652329
0.00263321389
0.00566084826
0.069107558
0.1522428
0.154050248
0.00794331758
0.00567292273
0.0701492963
0.148700784
0.163666192
0.143858352
0.00283681905
0.00406181078
0.125512094
0.151872018
0.0314023605
0.0050574584
0.0666686079
0.159616158
0.156804084
0.00633605197
0.00342952278
0.12578459
0.13868523
0.0140500754
0.00316563333
0.125285886
0.13703434
0.0170030551
0.00448667199
0.112516188
0.154215959
0.0782260568
0.00422752399
0.0355594732
0.152794539
0.155986376
0.0124580258
0.00356823381
0.126740236
0.141898202
0.014192373
0.00463492443
0.111929538
0.154883819
0.095905355
0.00412589626
0.0163005761
0.152524901
0.153129467
0.00266231706
0.00344980125
0.137681463
0.140844177
0.00299208144
0.00485479332
0.112427137
0.155674647
0.119578254
0.00458451211
0.00464457478
0.117448227
0.153178929
0.104207233
0.00467136926
0.00425111095
0.129166784
0.15855948
0.103055942
0.00468399956
0.00409235876
0.131895145
0.157990588
0.101646117
0.00475382345
0.00405466161
0.13219314
0.157534741
0.102598542
0.00482783989
0.00409210476
0.131408639
0.157484738
0.103844361
0.00490129306
0.00426335502
)
;

boundaryField
{
    closed
    {
        type            calculated;
        value           nonuniform List<scalar> 0();
    }
    open
    {
        type            calculated;
        value           nonuniform List<scalar> 0();
    }
    sides
    {
        type            empty;
    }
    procBoundary1to0
    {
        type            processor;
        value           uniform 0;
    }
    procBoundary1to2
    {
        type            processor;
        value           uniform 0;
    }
}


// ************************************************************************* //
