/*--------------------------------*- C++ -*----------------------------------*\
| =========                 |                                                 |
| \\      /  F ield         | OpenFOAM: The Open Source CFD Toolbox           |
|  \\    /   O peration     | Version:  2306                                  |
|   \\  /    A nd           | Website:  www.openfoam.com                      |
|    \\/     M anipulation  |                                                 |
\*---------------------------------------------------------------------------*/
FoamFile
{
    version     2.0;
    format      ascii;
    arch        "LSB;label=32;scalar=64";
    class       volScalarField;
    location    "0.00092";
    object      prefDh_H;
}
// * * * * * * * * * * * * * * * * * * * * * * * * * * * * * * * * * * * * * //

dimensions      [1 1 -3 0 0 0 0];

internalField   nonuniform List<scalar> 
531
(
23229.6953
23955.8885
23973.0724
23283.6331
23130.4122
23258.4776
23957.5924
23983.0372
23290.9557
23253.8149
23957.4692
23975.5057
23376.3323
23220.5086
23343.2024
23966.0248
23987.3917
23372.5454
23263.1701
23318.2211
23282.6266
23960.8251
23981.1282
23342.0478
23205.9628
23268.1798
23966.106
23980.1653
23377.3483
23118.8323
23321.9066
23963.6243
23974.263
23979.0967
23310.4064
23114.9016
23220.0932
23956.8567
23969.6303
23246.3684
23028.5147
23207.2774
23952.6055
23967.1496
23969.1891
23216.4654
23004.5088
23150.5572
23945.3448
23975.7303
23160.9493
23118.3744
23939.5625
23966.8041
23175.532
23107.5432
23944.2082
23957.0126
23216.7677
22997.5004
23189.1881
23945.0873
23963.7856
23962.3073
23253.3919
23098.4783
23203.1373
23943.5671
23964.0492
23259.6293
23127.8118
23180.1453
23949.4763
23960.4082
23258.5527
23028.4342
23214.0586
23948.5099
23958.7119
23961.2165
23253.2702
23119.7122
23945.0743
23955.7881
23257.7673
23040.1006
23210.4536
23945.1757
23962.2498
23963.386
23247.2461
23145.2217
23176.9522
23178.3831
23945.644
23950.7753
23190.1899
23040.4732
23130.4089
23936.7533
23971.3532
23177.7688
23145.9936
23935.1231
23961.5665
23149.0913
23190.109
23955.9513
23948.7395
23962.8986
23215.3666
23035.8958
23039.185
23084.6102
23952.1443
23958.0942
23960.253
23168.9061
23047.6975
23943.3258
23953.9233
23955.4111
23957.3338
23370.9151
23080.824
23230.2452
23067.0601
23101.5046
23935.2627
23958.1816
23186.4152
22922.489
23131.7032
23943.4828
23945.7539
23950.9064
23183.8464
23159.4936
23937.8546
23941.145
23949.4415
23240.1972
23029.1442
23038.7555
23074.9862
23944.2987
23943.3519
23953.432
23145.6601
22849.2814
23036.1714
23935.7107
23945.9209
23944.215
23949.1602
23203.5509
23031.7941
23103.272
23086.5275
23940.0748
23947.8207
23952.5849
23954.5793
23354.4923
23055.8301
23215.5331
23046.1222
23098.811
23940.748
23954.2334
23949.977
23954.6288
23394.8583
23078.9809
23236.5771
23065.6539
23099.7292
23940.9104
23950.4967
23949.2123
23951.0589
23374.8739
23025.4619
23200.2827
22949.0409
23054.6045
23942.106
23953.5664
23954.9141
23081.502
23060.1858
23946.5893
23950.3527
23957.4516
23210.6905
23000.2981
23941.2826
23957.393
23175.4211
23055.9968
23949.8374
23949.2083
23193.8066
23050.5753
23093.4979
23940.6046
23969.3387
23254.9492
23154.3393
23944.1869
23958.7904
23298.8883
23164.2952
23165.3231
23945.595
23958.2799
23333.7364
23049.1148
23239.6125
23949.6054
23958.8038
23955.3588
23336.653
23119.5495
23137.5212
23143.2912
23950.3041
23951.0431
23958.8992
23277.0738
23024.7866
23111.8559
23938.9239
23955.5788
23205.1062
23086.6276
23937.6244
23945.9965
23190.3841
22977.1247
23025.7086
23935.8248
23952.2185
23944.366
23955.7541
23230.3136
23006.221
23034.0166
23014.3854
23934.7052
23949.5564
23946.2078
23950.6315
23203.3386
23013.7848
23046.9907
23946.733
23951.0432
23204.0007
23006.0633
23055.4616
23940.7365
23963.384
23183.5946
23110.1577
23940.6079
23964.1745
23208.3486
23153.3104
23946.334
23962.4595
23245.4605
23181.0464
23955.8642
23957.4058
23297.989
23167.6244
23169.502
23950.0215
23964.0516
23343.9476
23151.2352
23184.7289
23951.838
23967.2748
23311.0968
23209.8926
23953.6867
23955.4241
23336.43
23172.0375
23173.8647
23942.2824
23957.2761
23313.4119
23055.6178
23108.5152
23943.4401
23954.7912
23948.8591
23958.1469
23273.3967
23039.5031
23032.3682
23033.3244
23940.3034
23950.8942
23044.962
23047.8666
23943.2327
23949.0745
23949.4987
23269.2384
23030.3088
23950.0072
23947.2962
23246.2289
23025.0661
23062.4888
23940.9904
23962.1903
23243.8553
23122.8325
23950.6613
23953.5885
23291.4742
23092.236
23118.7854
23946.178
23964.6192
23280.3382
23163.7984
23955.8841
23956.4511
23315.5578
23115.5305
23137.6173
23949.8288
23967.6948
23292.4701
23175.812
23959.8504
23958.9009
23332.3707
23128.8601
23154.0235
23951.922
23970.287
23314.3582
23205.7428
23961.4083
23961.6251
23368.8385
23182.4468
23182.7964
23954.9254
23966.3105
23391.4755
23161.1548
23163.3358
23964.5758
23956.6547
23339.6568
23093.9781
23123.0376
23948.8099
23969.4291
23239.7796
23173.5974
23953.9093
23962.8266
23187.4085
23198.3416
23962.065
23260.8282
23095.2664
23954.5218
23957.1407
23954.061
23286.8258
23057.5364
23961.7851
23947.2154
23289.5419
23008.7235
23084.468
23944.7801
23961.427
23212.0945
23214.398
23957.7967
23398.8847
23048.563
23951.5044
23951.2255
23264.1478
23060.0072
23955.4494
23944.8824
23267.6971
22929.6932
23039.1988
23945.4628
23953.2243
23952.8879
23183.6326
23157.4093
23956.8365
23957.7021
23956.8176
23343.3769
23028.4898
23076.1059
23956.3033
23957.7172
23333.2179
23112.6746
23113.9424
23957.4744
23959.8964
23388.0226
23171.3558
23173.4462
23961.7183
23961.9133
23381.6203
23193.3134
23194.8985
23962.0046
23965.7847
23380.4061
23182.7083
23184.3301
23965.706
23966.253
23380.0119
23144.648
23146.9098
23960.5709
23973.6263
23331.0108
23175.4339
23971.5985
23964.092
23357.4086
23125.2571
23128.1107
23958.044
23974.686
23323.5153
23167.4117
23971.1573
23963.9814
23357.3514
23126.8706
23130.0421
23956.8495
23976.1005
23338.3032
23184.0324
23968.3808
23966.5472
23382.4787
23162.4106
23163.0352
23966.4743
23965.63
23381.1048
23146.3769
23148.2346
23957.321
23972.1094
23350.0541
23212.5585
23965.2642
23964.1996
23359.1763
23196.7587
23113.2455
23116.7227
23961.3116
23960.4535
23960.838
23387.2067
23068.1456
23968.4295
23952.3039
23322.8697
23049.5321
23054.5537
23949.9347
23966.538
23277.0799
23095.1434
23962.1233
23954.5006
23303.9407
23047.4602
23051.9902
23948.3826
23968.7278
23279.0998
23143.5625
23956.0243
23964.1537
23304.2276
23178.0459
23966.9974
23956.234
23382.5952
23158.7048
23160.8045
23958.9087
23967.6369
23386.2444
23158.0946
23159.4736
23968.1176
23960.9903
23379.5541
23135.8028
23139.3216
23957.7954
23972.2857
23352.905
23179.5183
23967.6025
23958.5141
23383.3442
23158.2176
23160.2309
)
;

boundaryField
{
    closed
    {
        type            calculated;
        value           nonuniform List<scalar> 0();
    }
    open
    {
        type            calculated;
        value           nonuniform List<scalar> 0();
    }
    sides
    {
        type            empty;
    }
    procBoundary3to2
    {
        type            processor;
        value           uniform 23137.7825;
    }
    procBoundary3to4
    {
        type            processor;
        value           uniform 23949.3836;
    }
}


// ************************************************************************* //
