/*--------------------------------*- C++ -*----------------------------------*\
| =========                 |                                                 |
| \\      /  F ield         | OpenFOAM: The Open Source CFD Toolbox           |
|  \\    /   O peration     | Version:  2306                                  |
|   \\  /    A nd           | Website:  www.openfoam.com                      |
|    \\/     M anipulation  |                                                 |
\*---------------------------------------------------------------------------*/
FoamFile
{
    version     2.0;
    format      ascii;
    arch        "LSB;label=32;scalar=64";
    class       volScalarField;
    location    "0.00092";
    object      prefDZ_H2;
}
// * * * * * * * * * * * * * * * * * * * * * * * * * * * * * * * * * * * * * //

dimensions      [1 -1 -1 0 0 0 0];

internalField   nonuniform List<scalar> 
531
(
6.19640445e-05
6.35798094e-05
6.36167525e-05
6.20831974e-05
6.1744758e-05
6.2027622e-05
6.3583533e-05
6.36380632e-05
6.2099521e-05
6.20173229e-05
6.35831263e-05
6.36216864e-05
6.22880338e-05
6.19439275e-05
6.2214772e-05
6.36010992e-05
6.36470051e-05
6.22806302e-05
6.20378967e-05
6.21597865e-05
6.20808838e-05
6.35904175e-05
6.36338743e-05
6.22121849e-05
6.19116866e-05
6.20489459e-05
6.36014424e-05
6.36320568e-05
6.22903793e-05
6.17190704e-05
6.21678332e-05
6.35971624e-05
6.36182255e-05
6.36298464e-05
6.21423307e-05
6.17104429e-05
6.19427965e-05
6.35821087e-05
6.36095287e-05
6.2000824e-05
6.15194986e-05
6.19145113e-05
6.35736876e-05
6.3603442e-05
6.36087329e-05
6.1934666e-05
6.14664799e-05
6.17890058e-05
6.35577013e-05
6.36227949e-05
6.18123187e-05
6.17179285e-05
6.35453146e-05
6.36035253e-05
6.18445275e-05
6.16941452e-05
6.35552977e-05
6.35825183e-05
6.19354601e-05
6.1451106e-05
6.18745663e-05
6.35572954e-05
6.35960688e-05
6.35934855e-05
6.20164204e-05
6.1674428e-05
6.19054231e-05
6.3553251e-05
6.35971276e-05
6.20304338e-05
6.17391787e-05
6.1854723e-05
6.35659799e-05
6.35895989e-05
6.20279305e-05
6.1519444e-05
6.19296665e-05
6.35647658e-05
6.35850181e-05
6.35916003e-05
6.20163564e-05
6.1721098e-05
6.35567774e-05
6.35796804e-05
6.20261542e-05
6.15453573e-05
6.1921613e-05
6.35572184e-05
6.35926847e-05
6.35955558e-05
6.20029226e-05
6.17776338e-05
6.18477149e-05
6.18509501e-05
6.35583448e-05
6.35685855e-05
6.18766677e-05
6.15462568e-05
6.17445015e-05
6.35388621e-05
6.36131697e-05
6.18496927e-05
6.17790798e-05
6.35356334e-05
6.35917256e-05
6.17860992e-05
6.18769588e-05
6.35808289e-05
6.35635823e-05
6.35956094e-05
6.19325872e-05
6.15357266e-05
6.15431e-05
6.16434692e-05
6.35728742e-05
6.35843706e-05
6.35899538e-05
6.18297403e-05
6.15618853e-05
6.35531217e-05
6.35757649e-05
6.35778224e-05
6.35828594e-05
6.22763305e-05
6.16355392e-05
6.19653205e-05
6.16051745e-05
6.1680709e-05
6.3535472e-05
6.35852123e-05
6.1868709e-05
6.12851878e-05
6.17478204e-05
6.35542774e-05
6.35573383e-05
6.35694437e-05
6.1863052e-05
6.18093559e-05
6.35419384e-05
6.35471218e-05
6.35664521e-05
6.19876862e-05
6.15210755e-05
6.15423301e-05
6.1622491e-05
6.3556109e-05
6.35524236e-05
6.35756339e-05
6.17785509e-05
6.11233575e-05
6.15365511e-05
6.35372963e-05
6.35585468e-05
6.35546317e-05
6.35656605e-05
6.19064672e-05
6.15270122e-05
6.16848604e-05
6.16479868e-05
6.35462204e-05
6.35623763e-05
6.35718582e-05
6.35768997e-05
6.22401096e-05
6.15801971e-05
6.19328983e-05
6.15587386e-05
6.16748708e-05
6.35471199e-05
6.35762458e-05
6.35659354e-05
6.35772509e-05
6.23296119e-05
6.1631378e-05
6.19795482e-05
6.1601917e-05
6.16769998e-05
6.35474447e-05
6.35681615e-05
6.35643754e-05
6.35695637e-05
6.22852725e-05
6.15130845e-05
6.1899248e-05
6.13440607e-05
6.1577133e-05
6.35512039e-05
6.35748597e-05
6.35781648e-05
6.16365532e-05
6.15895444e-05
6.35613469e-05
6.35675253e-05
6.35841285e-05
6.19223236e-05
6.14569889e-05
6.35488162e-05
6.3583419e-05
6.18443073e-05
6.15802803e-05
6.35674542e-05
6.35654773e-05
6.18846426e-05
6.15685612e-05
6.16628377e-05
6.3546902e-05
6.36087683e-05
6.20203378e-05
6.17975533e-05
6.35546344e-05
6.35857271e-05
6.21172173e-05
6.18199263e-05
6.18218733e-05
6.35573921e-05
6.35849303e-05
6.21942417e-05
6.15652304e-05
6.19861976e-05
6.35671732e-05
6.35848569e-05
6.3578968e-05
6.22006448e-05
6.17209651e-05
6.17604888e-05
6.17734245e-05
6.35687059e-05
6.3568534e-05
6.35866818e-05
6.20690024e-05
6.15114985e-05
6.1703717e-05
6.35435001e-05
6.35790128e-05
6.19101885e-05
6.16480773e-05
6.35409565e-05
6.35586225e-05
6.18774097e-05
6.14061885e-05
6.15132812e-05
6.35371978e-05
6.35722239e-05
6.35547623e-05
6.35799942e-05
6.19657014e-05
6.14702725e-05
6.15317967e-05
6.14882591e-05
6.35355586e-05
6.35664588e-05
6.35591196e-05
6.35687924e-05
6.19059199e-05
6.14871366e-05
6.15602964e-05
6.35605314e-05
6.35695915e-05
6.19073562e-05
6.14700969e-05
6.15788962e-05
6.35476211e-05
6.35960549e-05
6.18625552e-05
6.1699832e-05
6.35475873e-05
6.35975311e-05
6.19172388e-05
6.17952931e-05
6.35598211e-05
6.35935997e-05
6.19991674e-05
6.18567122e-05
6.35802149e-05
6.35826298e-05
6.21150206e-05
6.18272748e-05
6.18309491e-05
6.35671829e-05
6.35971556e-05
6.22167094e-05
6.17909759e-05
6.1864652e-05
6.35709663e-05
6.36038641e-05
6.21443307e-05
6.19204825e-05
6.35751952e-05
6.35782414e-05
6.2200137e-05
6.18371735e-05
6.18407249e-05
6.3550525e-05
6.35826933e-05
6.21494117e-05
6.15796573e-05
6.16963586e-05
6.355356e-05
6.35774333e-05
6.35643296e-05
6.35849239e-05
6.20609392e-05
6.1543853e-05
6.15281282e-05
6.15301294e-05
6.35478652e-05
6.35691409e-05
6.15559096e-05
6.15623561e-05
6.35544119e-05
6.35646146e-05
6.35669989e-05
6.2051783e-05
6.15235581e-05
6.35678028e-05
6.35615103e-05
6.2000697e-05
6.15121993e-05
6.15944127e-05
6.35480313e-05
6.35934256e-05
6.19957788e-05
6.17279978e-05
6.35691343e-05
6.35747454e-05
6.210074e-05
6.16606663e-05
6.17188835e-05
6.35590068e-05
6.35984219e-05
6.20763716e-05
6.18185515e-05
6.35802752e-05
6.35807844e-05
6.21539155e-05
6.17121268e-05
6.17604597e-05
6.35668408e-05
6.3605013e-05
6.21031288e-05
6.18450652e-05
6.35887992e-05
6.35860415e-05
6.21910299e-05
6.17415692e-05
6.17966842e-05
6.35712915e-05
6.36105096e-05
6.21515089e-05
6.19112092e-05
6.35919947e-05
6.35917171e-05
6.22716883e-05
6.18600279e-05
6.18603518e-05
6.35775666e-05
6.36020044e-05
6.23218833e-05
6.18127969e-05
6.18175036e-05
6.3598555e-05
6.35812721e-05
6.22070803e-05
6.16644741e-05
6.17281487e-05
6.35648853e-05
6.36088228e-05
6.1986682e-05
6.18400961e-05
6.35765969e-05
6.35942669e-05
6.18707435e-05
6.18949987e-05
6.35945677e-05
6.20331219e-05
6.16670362e-05
6.35784713e-05
6.35818567e-05
6.35764424e-05
6.20905046e-05
6.15837651e-05
6.3593262e-05
6.3561348e-05
6.20963566e-05
6.14760757e-05
6.16429688e-05
6.35564982e-05
6.35914162e-05
6.19254774e-05
6.19305586e-05
6.35850965e-05
6.23384669e-05
6.15639158e-05
6.35706999e-05
6.3569897e-05
6.20405349e-05
6.15892919e-05
6.35796766e-05
6.35564734e-05
6.20481958e-05
6.13012866e-05
6.15430134e-05
6.3558666e-05
6.35738266e-05
6.35734922e-05
6.18624448e-05
6.18045157e-05
6.35838143e-05
6.35827229e-05
6.35824029e-05
6.22155249e-05
6.15195823e-05
6.16245786e-05
6.35810691e-05
6.35837944e-05
6.21930316e-05
6.17057377e-05
6.17082223e-05
6.35832405e-05
6.3588261e-05
6.23143719e-05
6.18354638e-05
6.18397875e-05
6.35921207e-05
6.35923566e-05
6.23004523e-05
6.18839692e-05
6.18871341e-05
6.35928637e-05
6.36007349e-05
6.22977522e-05
6.18604316e-05
6.18637359e-05
6.36010458e-05
6.36019366e-05
6.22963914e-05
6.17763114e-05
6.17808613e-05
6.3590052e-05
6.36179153e-05
6.21881211e-05
6.18441345e-05
6.36142055e-05
6.35973432e-05
6.22462248e-05
6.1733485e-05
6.17392448e-05
6.35847326e-05
6.36202973e-05
6.21715842e-05
6.18263795e-05
6.36132937e-05
6.35971225e-05
6.22460931e-05
6.1737072e-05
6.17434974e-05
6.35821136e-05
6.3623318e-05
6.22043421e-05
6.18630959e-05
6.36071471e-05
6.36025302e-05
6.23018195e-05
6.18155778e-05
6.1816628e-05
6.36027993e-05
6.36006398e-05
6.22988652e-05
6.17801881e-05
6.17838291e-05
6.35829698e-05
6.36145142e-05
6.22303624e-05
6.19262627e-05
6.36004451e-05
6.35972264e-05
6.22503651e-05
6.18915458e-05
6.17066992e-05
6.17144929e-05
6.3593113e-05
6.35886722e-05
6.35914447e-05
6.2312487e-05
6.16071446e-05
6.36073399e-05
6.35722554e-05
6.2169943e-05
6.15662173e-05
6.15767139e-05
6.35674981e-05
6.3603035e-05
6.20690754e-05
6.16667362e-05
6.35940828e-05
6.35769616e-05
6.21281586e-05
6.15616271e-05
6.15710543e-05
6.35641213e-05
6.36076477e-05
6.207364e-05
6.17736875e-05
6.35808482e-05
6.35973656e-05
6.21290363e-05
6.18501045e-05
6.36042461e-05
6.35801909e-05
6.23020432e-05
6.18075857e-05
6.18116652e-05
6.3586378e-05
6.36049466e-05
6.23105725e-05
6.18059842e-05
6.18088849e-05
6.36063621e-05
6.35906166e-05
6.22953908e-05
6.17568621e-05
6.17640893e-05
6.35841256e-05
6.361505e-05
6.22366345e-05
6.185325e-05
6.36053596e-05
6.35851241e-05
6.23038812e-05
6.18065443e-05
6.18105355e-05
)
;

boundaryField
{
    closed
    {
        type            calculated;
        value           nonuniform List<scalar> 0();
    }
    open
    {
        type            calculated;
        value           nonuniform List<scalar> 0();
    }
    sides
    {
        type            empty;
    }
    procBoundary3to2
    {
        type            processor;
        value           uniform 6.17611047e-05;
    }
    procBoundary3to4
    {
        type            processor;
        value           uniform 6.35657528e-05;
    }
}


// ************************************************************************* //
