/*--------------------------------*- C++ -*----------------------------------*\
| =========                 |                                                 |
| \\      /  F ield         | OpenFOAM: The Open Source CFD Toolbox           |
|  \\    /   O peration     | Version:  2306                                  |
|   \\  /    A nd           | Website:  www.openfoam.com                      |
|    \\/     M anipulation  |                                                 |
\*---------------------------------------------------------------------------*/
FoamFile
{
    version     2.0;
    format      ascii;
    arch        "LSB;label=32;scalar=64";
    class       volScalarField;
    location    "0.002";
    object      rho;
}
// * * * * * * * * * * * * * * * * * * * * * * * * * * * * * * * * * * * * * //

dimensions      [1 -3 0 0 0 0 0];

internalField   nonuniform List<scalar> 
530
(
0.948771362
0.901581945
0.902381525
0.938686166
0.956423627
0.948007127
0.901835131
0.901891438
0.937539092
0.956470918
0.948447416
0.901599899
0.901785508
0.937809545
0.95720427
0.948521127
0.901390218
0.901701532
0.937418106
0.956341723
0.947752788
0.901601454
0.901977095
0.938790186
0.948910361
0.953195494
0.952285955
0.901669219
0.902572606
0.901798321
0.90238363
0.946767366
0.968026025
0.953784765
0.902947678
0.902045479
0.952768547
0.953124607
0.902277359
0.902019218
0.901964774
0.901567054
0.944526735
0.950800847
0.949916184
0.938351174
0.90153945
0.901284561
0.941048484
0.953067216
0.939041106
0.901364096
0.900981501
0.94115805
0.951384182
0.944391322
0.951464647
0.939182258
0.901891803
0.900753642
0.938136149
0.94317498
0.90150264
0.900959774
0.901126926
0.90092864
0.940638271
0.950397246
0.948682037
0.947223757
0.901797315
0.901864892
0.940496455
0.956198714
0.946331323
0.901915888
0.901740594
0.941905131
0.959245157
0.948180797
0.902649119
0.900993738
0.949292421
0.949032517
0.902399098
0.90183389
0.901816556
0.941949679
0.958071435
0.948714943
0.959627483
0.950633913
0.90333803
0.901667814
0.902827048
0.90130935
0.944874365
0.957046916
0.958215673
0.953611204
0.902966033
0.902127908
0.902174734
0.901589846
0.90140912
0.941220789
0.951432445
0.950941971
0.937252501
0.901478188
0.936433254
0.938737934
0.903218005
0.901442739
0.901209154
0.93948893
0.956704791
0.948812213
0.946728556
0.901910033
0.902362101
0.939573898
0.955958333
0.945935796
0.902292088
0.900510234
0.942007873
0.939541764
0.902207156
0.909177045
0.94341215
0.937766685
0.902291951
0.901185008
0.938911366
0.949036461
0.948900266
0.946757409
0.902371938
0.902255125
0.938812443
0.954926361
0.945339036
0.902805861
0.902491692
0.939423582
0.961687535
0.951579337
0.903255613
0.901820181
0.95680366
0.958686909
0.903216727
0.902222728
0.902527187
0.902450913
0.936630479
0.953880231
0.948873352
0.961243648
0.956191355
0.904143674
0.902519279
0.903283453
0.902217977
0.902401251
0.941655583
0.956536835
0.946886111
0.954585276
0.948965902
0.904247583
0.902517465
0.943849653
0.947227855
0.904117528
0.901876283
0.944249901
0.946237339
0.903675649
0.903732973
0.943128249
0.964411572
0.950412768
0.905192976
0.903283975
0.912384085
0.954166464
0.956500195
0.904116159
0.902536588
0.902856943
0.943203102
0.967597109
0.939806112
0.903338352
0.901859039
0.902460929
0.939492787
0.95087571
0.946773736
0.947504792
0.953154682
0.950740124
0.902775029
0.90218187
0.942398377
0.944322371
0.903035284
0.902843949
0.933604116
0.946120708
0.957683732
0.957535247
0.903303261
0.900729183
0.952283299
0.938701122
0.902292573
0.939114417
0.951992075
0.903230992
0.901690258
0.947560564
0.948103192
0.902696467
0.901358225
0.949515796
0.953764604
0.903126232
0.901138872
0.939063005
0.93858144
0.902068862
0.901690673
0.939542731
0.957751705
0.948217063
0.902720225
0.900788795
0.947265994
0.949550431
0.903317146
0.901950713
0.939027516
0.956973235
0.946403224
0.90296654
0.901039855
0.946519303
0.948480111
0.903359959
0.901894679
0.938872448
0.957523576
0.946452112
0.902732785
0.901885121
0.933433732
0.954148135
0.951863504
0.902626777
0.900984663
0.947683517
0.949795089
0.903490153
0.901984856
0.940196476
0.951633646
0.953533947
0.951393701
0.903119418
0.903002233
0.901739404
0.901046812
0.94426828
0.945995495
0.902779055
0.902388527
0.936030484
0.941959445
0.940653874
0.942187584
0.940340812
0.944134463
0.938381605
0.901138012
0.900589591
0.938371591
0.956840878
0.945907709
0.900964732
0.900333371
0.900388918
0.900520494
0.936930961
0.943855903
0.938669223
0.944514853
0.938119892
0.902398695
0.900696362
0.926281036
0.942636668
0.951423733
0.945788853
0.901454302
0.900728614
0.937788704
0.955081092
0.945942773
0.901365688
0.89990012
0.947119228
0.949145932
0.901909886
0.900785474
0.937877168
0.957110405
0.948499341
0.901693731
0.899312825
0.943788486
0.944331419
0.901553167
0.900481421
0.935328297
0.943775723
0.947731543
0.93729755
0.901294918
0.927243603
0.945411262
0.933188558
0.901542871
0.900097787
0.937019026
0.951732391
0.950688504
0.950701519
0.902613987
0.900611391
0.947113898
0.949566329
0.902443404
0.901242169
0.930771261
0.948666496
0.943328886
0.900701616
0.900840495
0.938032333
0.958599449
0.94857723
0.901907103
0.899701114
0.947578443
0.951391692
0.902150322
0.900567984
0.93769031
0.942278899
0.901201227
0.901065203
0.932149421
0.941089057
0.942264907
0.951209329
0.937815496
0.900937871
0.936925152
0.946125621
0.903271914
0.901459262
0.906248628
0.937157158
0.948097759
0.941768474
0.937228943
0.948433735
0.947589252
0.901005816
0.90025366
0.946211965
0.949975217
0.901481084
0.900390382
0.946535014
0.949487881
0.90156598
0.900601327
0.946633444
0.950577486
0.901186843
0.900524113
0.944265706
0.944552087
0.901216266
0.901323052
0.934384313
0.950944682
0.942797837
0.901218257
0.901966631
0.932471324
0.960140338
0.951250014
0.901414244
0.936641795
0.961798552
0.900338614
0.900104869
0.95274443
0.937015926
0.900751252
0.900354167
0.938015466
0.95806682
0.94263668
0.902191197
0.902448556
0.930929754
0.960888478
0.951699259
0.901842578
0.936338883
0.964867614
0.900882831
0.901678721
0.958000266
0.929064196
0.902430326
0.927026575
0.958910554
0.958592537
0.923740078
0.902566438
0.901600517
0.90291727
0.936953666
0.952592272
0.959538194
0.964411398
0.933120938
0.903374388
0.901017455
0.940579811
0.951593357
0.901991133
0.902240114
0.904180944
0.949680908
0.964096524
0.933891394
0.90257781
0.902040392
0.936260184
0.965750979
0.955803836
0.902893124
0.902762402
0.958904377
0.957450943
0.902619515
0.903499255
0.943728167
0.954562047
0.90039182
0.90240079
0.933643017
0.954400982
0.95663482
0.934778397
0.902332658
0.901835976
0.948683959
0.964895967
0.928188879
0.903355484
0.944363742
0.955344961
0.913317584
0.903245762
0.904671263
0.948948812
0.963348971
0.916984941
0.903619744
0.924350577
0.961006017
0.96148021
0.921904383
0.903335953
0.940638298
0.95395712
0.924125034
0.903207714
0.90281364
0.953469891
0.953054798
0.918548713
0.936417553
0.956009411
0.898975108
0.903383894
0.936737148
0.955952043
0.943289695
0.902305333
0.902559209
0.90362976
0.948552408
0.957467916
0.90696166
0.902744179
0.926153293
0.954083266
0.958848333
0.933176912
0.902593091
0.901948163
0.950693246
0.962272204
0.932167587
0.902992283
0.901979684
0.953902743
0.963732864
0.932321982
0.903152681
)
;

boundaryField
{
    closed
    {
        type            calculated;
        value           nonuniform List<scalar> 0();
    }
    open
    {
        type            calculated;
        value           nonuniform List<scalar> 0();
    }
    sides
    {
        type            empty;
    }
    procBoundary2to1
    {
        type            processor;
        value           uniform 0.947547055;
    }
    procBoundary2to3
    {
        type            processor;
        value           uniform 0.901889035;
    }
}


// ************************************************************************* //
