/*--------------------------------*- C++ -*----------------------------------*\
| =========                 |                                                 |
| \\      /  F ield         | OpenFOAM: The Open Source CFD Toolbox           |
|  \\    /   O peration     | Version:  2306                                  |
|   \\  /    A nd           | Website:  www.openfoam.com                      |
|    \\/     M anipulation  |                                                 |
\*---------------------------------------------------------------------------*/
FoamFile
{
    version     2.0;
    format      ascii;
    arch        "LSB;label=32;scalar=64";
    class       volScalarField;
    location    "0.00156";
    object      alpha;
}
// * * * * * * * * * * * * * * * * * * * * * * * * * * * * * * * * * * * * * //

dimensions      [1 -1 -1 0 0 0 0];

internalField   nonuniform List<scalar> 
530
(
3.52375343e-05
3.68016694e-05
3.67556946e-05
3.67935208e-05
3.67526072e-05
3.4795228e-05
3.45095116e-05
3.52805355e-05
3.6776218e-05
3.67797061e-05
3.50394686e-05
3.52637265e-05
3.6806288e-05
3.67922928e-05
3.50259515e-05
3.55900768e-05
3.68183566e-05
3.68028129e-05
3.68134932e-05
3.54764905e-05
3.51895781e-05
3.53374578e-05
3.56562349e-05
3.68269257e-05
3.67915364e-05
3.68147372e-05
3.67827348e-05
3.51277121e-05
3.48274601e-05
3.5483529e-05
3.67916364e-05
3.68058959e-05
3.51600579e-05
3.56726392e-05
3.67974704e-05
3.6787516e-05
3.67987699e-05
3.52841785e-05
3.50024307e-05
3.49495551e-05
3.54482423e-05
3.68175018e-05
3.68188928e-05
3.68058792e-05
3.51351384e-05
3.53140484e-05
3.68341777e-05
3.67897998e-05
3.68235365e-05
3.67880265e-05
3.55039984e-05
3.52436154e-05
3.53350068e-05
3.56109634e-05
3.68209725e-05
3.68099093e-05
3.52090169e-05
3.50569441e-05
3.56292414e-05
3.68095155e-05
3.68200744e-05
3.53980174e-05
3.50133203e-05
3.56219517e-05
3.68067737e-05
3.68261645e-05
3.68120378e-05
3.54836519e-05
3.50138266e-05
3.56589361e-05
3.68073636e-05
3.6830248e-05
3.5307752e-05
3.56865913e-05
3.68216124e-05
3.68179682e-05
3.68204921e-05
3.57170111e-05
3.52753487e-05
3.53588473e-05
3.55830006e-05
3.68306266e-05
3.68142178e-05
3.51316797e-05
3.48722385e-05
3.54584557e-05
3.68123237e-05
3.6843975e-05
3.51943542e-05
3.55455979e-05
3.6825726e-05
3.68220952e-05
3.68306298e-05
3.55500184e-05
3.51356016e-05
3.54702544e-05
3.51673311e-05
3.56700942e-05
3.68062074e-05
3.68331442e-05
3.68309488e-05
3.53595157e-05
3.56579379e-05
3.68197404e-05
3.68066993e-05
3.68386098e-05
3.52901325e-05
3.56205553e-05
3.6835338e-05
3.53742526e-05
3.54597391e-05
3.68158984e-05
3.68089722e-05
3.68306421e-05
3.54273908e-05
3.50587193e-05
3.51015798e-05
3.55011825e-05
3.68175814e-05
3.68219847e-05
3.68242175e-05
3.53667593e-05
3.53679281e-05
3.68231055e-05
3.67990261e-05
3.55890619e-05
3.48884904e-05
3.5696374e-05
3.68158445e-05
3.53605709e-05
3.54951564e-05
3.68209291e-05
3.68008841e-05
3.6828994e-05
3.53383549e-05
3.48831077e-05
3.54969616e-05
3.68068091e-05
3.68505946e-05
3.51878248e-05
3.57014884e-05
3.68369612e-05
3.55387925e-05
3.5273486e-05
3.68220291e-05
3.68211465e-05
3.53121362e-05
3.53514337e-05
3.68352939e-05
3.68082324e-05
3.52701789e-05
3.54288164e-05
3.68343814e-05
3.68248706e-05
3.52382102e-05
3.56039116e-05
3.68248104e-05
3.68157876e-05
3.68313742e-05
3.57092979e-05
3.5173658e-05
3.55146377e-05
3.51793219e-05
3.57000243e-05
3.683289e-05
3.68193942e-05
3.68322054e-05
3.68199384e-05
3.56995422e-05
3.48765821e-05
3.56928472e-05
3.68299126e-05
3.5264496e-05
3.50640002e-05
3.68255057e-05
3.68245002e-05
3.51548779e-05
3.51899499e-05
3.68318207e-05
3.68306112e-05
3.51197284e-05
3.54671425e-05
3.68252094e-05
3.6812012e-05
3.6832229e-05
3.55635585e-05
3.51501087e-05
3.55345871e-05
3.52107459e-05
3.57110675e-05
3.6826104e-05
3.68307846e-05
3.68253422e-05
3.68399392e-05
3.5712265e-05
3.51984452e-05
3.55493633e-05
3.68201181e-05
3.6837419e-05
3.5294505e-05
3.49235788e-05
3.53121012e-05
3.68091442e-05
3.68542677e-05
3.50866907e-05
3.54314473e-05
3.68624923e-05
3.52208067e-05
3.51506844e-05
3.68297925e-05
3.68337368e-05
3.68507042e-05
3.54905505e-05
3.50416553e-05
3.57070673e-05
3.68259625e-05
3.68367422e-05
3.68234973e-05
3.6852819e-05
3.5536112e-05
3.54723206e-05
3.68191061e-05
3.68403298e-05
3.5330568e-05
3.51663591e-05
3.50685607e-05
3.53637351e-05
3.68201161e-05
3.68277704e-05
3.68289211e-05
3.5701169e-05
3.48416292e-05
3.56912257e-05
3.68241616e-05
3.56865105e-05
3.51940063e-05
3.68466548e-05
3.68139223e-05
3.56857661e-05
3.51414584e-05
3.55177195e-05
3.68040767e-05
3.68368949e-05
3.68228774e-05
3.5740577e-05
3.54505238e-05
3.53851593e-05
3.56355984e-05
3.68484991e-05
3.57155129e-05
3.53199712e-05
3.68282723e-05
3.68322925e-05
3.54864009e-05
3.52413376e-05
3.51116617e-05
3.5318134e-05
3.68424386e-05
3.68271295e-05
3.68348828e-05
3.68216182e-05
3.68295464e-05
3.57186734e-05
3.52993892e-05
3.53303308e-05
3.53459365e-05
3.6834671e-05
3.68284983e-05
3.52922493e-05
3.53025049e-05
3.68235068e-05
3.68178585e-05
3.52928114e-05
3.51361891e-05
3.49517607e-05
3.50921184e-05
3.68387018e-05
3.68194066e-05
3.68333996e-05
3.68291042e-05
3.51641532e-05
3.53333511e-05
3.68508691e-05
3.52786807e-05
3.51163506e-05
3.68413556e-05
3.68199355e-05
3.68517811e-05
3.54640149e-05
3.51353098e-05
3.68212734e-05
3.68244644e-05
3.53948871e-05
3.53086253e-05
3.68272651e-05
3.68171227e-05
3.53502407e-05
3.51959292e-05
3.50268729e-05
3.51758686e-05
3.68398078e-05
3.68236263e-05
3.68332334e-05
3.68216764e-05
3.68241785e-05
3.57284551e-05
3.52247311e-05
3.54659026e-05
3.5179966e-05
3.52398905e-05
3.68109291e-05
3.68278901e-05
3.5483083e-05
3.51475588e-05
3.52873025e-05
3.68178401e-05
3.68121305e-05
3.54526586e-05
3.52408005e-05
3.68335936e-05
3.68011833e-05
3.5742488e-05
3.4944471e-05
3.52795836e-05
3.68091771e-05
3.6834478e-05
3.68101305e-05
3.6823848e-05
3.68103129e-05
3.56704103e-05
3.50930048e-05
3.53312175e-05
3.49370809e-05
3.49925914e-05
3.68104381e-05
3.68258208e-05
3.51432607e-05
3.51069533e-05
3.68298527e-05
3.68174743e-05
3.68256638e-05
3.68192803e-05
3.57236642e-05
3.53486149e-05
3.53938263e-05
3.51993844e-05
3.68230026e-05
3.68297054e-05
3.5353292e-05
3.48353585e-05
3.50665242e-05
3.68334902e-05
3.68121215e-05
3.68316326e-05
3.53898976e-05
3.5397846e-05
3.68300826e-05
3.57491655e-05
3.49637406e-05
3.68222865e-05
3.6817391e-05
3.54935093e-05
3.47722127e-05
3.51030817e-05
3.68126756e-05
3.6819414e-05
3.6809592e-05
3.68160737e-05
3.68077368e-05
3.54377059e-05
3.51925632e-05
3.50785217e-05
3.50941347e-05
3.68248592e-05
3.68003665e-05
3.68189222e-05
3.5650185e-05
3.51355145e-05
3.68162856e-05
3.68012509e-05
3.57271275e-05
3.50887657e-05
3.53974668e-05
3.6803915e-05
3.68074297e-05
3.6799102e-05
3.57227177e-05
3.50864484e-05
3.5303369e-05
3.48412514e-05
3.48791049e-05
3.68070267e-05
3.68056221e-05
3.68039524e-05
3.51040701e-05
3.50485044e-05
3.68188044e-05
3.67999114e-05
3.68065627e-05
3.5365442e-05
3.51919651e-05
3.68234689e-05
3.6799282e-05
3.68078591e-05
3.55984037e-05
3.50373012e-05
3.50892987e-05
3.68082001e-05
3.68052622e-05
3.555467e-05
3.50490987e-05
3.50725217e-05
3.67994233e-05
3.68119378e-05
3.5478907e-05
3.51076623e-05
3.68184036e-05
3.68062535e-05
3.5544113e-05
3.48139972e-05
3.50702439e-05
3.6817226e-05
3.68089648e-05
3.68135041e-05
3.5453643e-05
3.51193134e-05
3.68273429e-05
3.68208195e-05
3.54021252e-05
3.5262838e-05
3.68277016e-05
3.68201265e-05
3.55168954e-05
3.53674719e-05
3.68389662e-05
3.68127089e-05
3.57193959e-05
3.53050305e-05
3.53071415e-05
3.68311718e-05
3.68287187e-05
3.57075066e-05
3.51383913e-05
3.51704438e-05
3.68230031e-05
3.68369857e-05
3.54905232e-05
3.52859578e-05
3.68286761e-05
3.68299788e-05
3.55190024e-05
3.5297807e-05
3.68310572e-05
3.68145711e-05
3.5725562e-05
3.50965478e-05
3.51760653e-05
3.68130926e-05
3.68113718e-05
3.68088992e-05
3.68125687e-05
3.5724546e-05
3.50602005e-05
3.52577597e-05
3.4777009e-05
3.48585031e-05
3.68027372e-05
3.68092646e-05
3.67993702e-05
3.68120515e-05
3.68082732e-05
3.56648911e-05
3.51627868e-05
3.50842581e-05
3.50858308e-05
3.68045384e-05
3.6809173e-05
3.53026521e-05
3.51586193e-05
3.68057949e-05
3.68146258e-05
3.52958106e-05
3.52092939e-05
3.68053268e-05
3.68114997e-05
3.67906317e-05
3.68169691e-05
3.57453068e-05
3.53354385e-05
3.52230279e-05
3.52238578e-05
3.68158102e-05
3.68220438e-05
3.53680371e-05
3.53476718e-05
3.68260522e-05
3.68162543e-05
3.68143406e-05
3.57317397e-05
3.52533153e-05
3.52400601e-05
3.52407784e-05
3.68230185e-05
3.68271437e-05
3.55452982e-05
3.55433488e-05
3.68221583e-05
3.57537223e-05
3.55160696e-05
3.68285622e-05
3.57367271e-05
3.54063415e-05
3.68326522e-05
3.68123675e-05
3.68170877e-05
3.57242405e-05
3.52346508e-05
3.50989314e-05
3.51028167e-05
3.68177778e-05
3.68269118e-05
3.52211675e-05
3.51521285e-05
3.68220016e-05
3.68163242e-05
3.68149159e-05
3.55152089e-05
3.52924419e-05
3.68265016e-05
3.68214955e-05
)
;

boundaryField
{
    closed
    {
        type            calculated;
        value           nonuniform List<scalar> 0();
    }
    open
    {
        type            calculated;
        value           nonuniform List<scalar> 0();
    }
    sides
    {
        type            empty;
    }
    procBoundary2to1
    {
        type            processor;
        value           uniform 3.50799623e-05;
    }
    procBoundary2to3
    {
        type            processor;
        value           uniform 3.68035166e-05;
    }
}


// ************************************************************************* //
