/*--------------------------------*- C++ -*----------------------------------*\
| =========                 |                                                 |
| \\      /  F ield         | OpenFOAM: The Open Source CFD Toolbox           |
|  \\    /   O peration     | Version:  2306                                  |
|   \\  /    A nd           | Website:  www.openfoam.com                      |
|    \\/     M anipulation  |                                                 |
\*---------------------------------------------------------------------------*/
FoamFile
{
    version     2.0;
    format      ascii;
    arch        "LSB;label=32;scalar=64";
    class       volScalarField;
    location    "0.0003";
    object      T;
}
// * * * * * * * * * * * * * * * * * * * * * * * * * * * * * * * * * * * * * //

dimensions      [0 0 0 1 0 0 0];

internalField   nonuniform List<scalar> 
531
(
334.064158
339.386472
336.786001
322.581387
330.332438
336.607065
325.405332
329.066447
339.982052
338.430575
325.818063
328.842403
334.545084
332.32392
329.198797
329.138695
330.664524
330.640785
329.273168
329.25917
329.716544
329.780081
329.542549
329.509913
329.57988
329.600957
329.574407
329.565502
329.572467
329.576258
329.574043
329.572585
329.573106
329.57361
329.573472
329.573289
329.573316
329.573372
329.573368
329.573348
329.573348
329.573354
329.573354
329.573353
329.573352
329.573353
329.573353
329.573353
329.573353
329.573353
329.573353
329.573353
329.573353
329.573353
329.573353
329.573353
329.573353
329.573353
329.573353
329.573353
329.573353
329.573353
329.573353
329.573353
329.573353
329.573353
329.573353
329.573353
329.573353
329.573353
329.573353
329.573353
329.573353
329.573353
329.573353
329.573353
329.573353
329.573353
329.573353
329.573353
329.573353
329.573353
329.573353
329.573353
329.573353
329.573353
329.573353
329.573353
329.573353
329.573353
329.573353
329.573353
329.573353
329.573353
329.573353
329.573353
329.573353
329.573353
329.573353
329.573353
329.573353
329.573353
329.573353
329.573353
329.573353
329.573353
329.573353
329.573353
329.573353
329.573353
329.573353
329.573353
329.573353
329.573353
329.573353
329.573353
329.573353
329.573353
329.573353
329.573353
329.573353
329.573353
329.573353
329.573353
329.573353
329.573353
329.573353
329.573353
329.573353
329.573353
329.573353
329.573353
329.573353
329.573353
329.573353
329.573353
329.573353
329.573353
329.573353
329.573353
329.573353
329.573353
329.573353
329.573353
329.573353
329.573353
329.573353
329.573353
329.573353
329.573353
329.573353
329.573353
329.573353
329.573353
329.573353
329.573353
329.573353
329.573353
329.573353
329.573353
329.573353
329.573353
329.573353
329.573353
329.573353
329.573353
329.573353
329.573353
329.573353
329.573353
329.573353
329.573353
329.573353
329.573353
329.573353
329.573353
329.573353
329.573353
329.573353
329.573353
329.573353
329.573353
329.573353
329.573353
329.573353
329.573353
329.573353
329.573353
329.573353
329.573353
329.573353
329.573353
329.573353
329.573353
329.573353
329.573353
329.573353
329.573353
329.573353
329.573353
329.573353
329.573353
329.573353
329.573353
329.573353
329.573353
329.573353
329.573353
329.573353
329.573353
329.573353
329.573353
329.573353
329.573353
329.573353
329.573353
329.573353
329.573353
329.573353
329.573353
329.573353
329.573353
329.573353
329.573353
329.573353
329.573353
329.573353
329.573353
329.573353
329.573353
329.573353
329.573353
329.573353
329.573353
329.573353
329.573353
329.573353
329.573353
329.573353
329.573353
329.573353
329.573353
329.573353
329.573353
329.573353
329.573353
329.573353
329.573353
329.573353
329.573353
329.573353
329.573353
329.573353
329.573353
329.573353
329.573353
329.573353
329.573353
329.573353
329.573353
329.573353
329.573353
329.573353
329.573353
329.573353
329.573353
329.573353
329.573353
329.573353
329.573353
329.573353
329.573353
329.573353
329.573353
329.573353
329.573353
329.573353
329.573353
329.573353
329.573353
329.573353
329.573353
329.573353
329.573353
329.573353
329.573353
329.573353
329.573353
329.573353
329.573353
329.573353
329.573353
329.573353
329.573353
329.573353
329.573353
329.573353
329.573353
329.573353
329.573353
329.573353
329.573353
329.573353
329.573353
329.573353
329.573353
329.573353
329.573353
329.573353
329.573353
329.573353
329.573353
329.573353
329.573353
329.573353
329.573353
329.573353
329.573353
329.573353
329.573353
329.573353
329.573353
329.573353
329.573353
329.573353
329.573353
329.573353
329.573353
329.573353
329.573353
329.573353
329.573353
329.573353
329.573353
329.573353
329.573353
329.573353
329.573353
329.573353
329.573353
329.573353
329.573353
329.573353
329.573353
329.573353
329.573353
329.573353
329.573353
329.573353
329.573353
329.573353
329.573353
329.573353
329.573353
329.573353
329.573353
329.573353
329.573353
329.573353
329.573353
329.573353
329.573353
329.573353
329.573353
329.573353
329.573353
329.573353
329.573353
329.573353
329.573353
329.573353
329.573353
329.573353
329.573353
329.573353
329.573353
329.573353
329.573353
329.573353
329.573353
329.573353
329.573353
329.573353
329.573353
329.573353
329.573353
329.573353
329.573353
329.573353
329.573353
329.573353
329.573353
329.573353
329.573353
329.573353
329.573353
329.573353
329.573353
329.573353
329.573353
329.573353
329.573353
329.573353
329.573353
329.573353
329.573353
329.573353
329.573353
329.573353
329.573353
329.573353
329.573353
329.573353
329.573353
329.573353
329.573353
329.573353
329.573353
329.573353
329.573353
329.573353
329.573353
329.573353
329.573353
329.573353
329.573353
329.573353
329.573353
329.573353
329.573353
329.573353
329.573353
329.573353
329.573353
329.573353
329.573353
329.573353
329.573353
329.573353
329.573353
329.573353
329.573353
329.573353
329.573353
329.573353
329.573353
329.573353
329.573353
329.573353
329.573353
329.573353
329.573353
329.573353
329.573352
329.573352
329.573353
329.573353
329.573352
329.573351
329.573353
329.573357
329.573356
329.573348
329.573347
329.573364
329.573378
329.573365
329.57332
329.57333
329.573512
329.573638
329.573342
329.572772
329.573178
329.576504
329.57721
329.569073
329.562964
329.582865
329.620581
329.604943
329.474526
329.478466
329.840203
330.00146
329.371308
329.072523
329.680953
332.199316
330.262303
328.390632
329.039553
339.013376
339.968862
329.174081
325.350414
328.987706
331.417337
340.119976
339.632466
322.485801
321.889935
329.151439
331.29536
340.175825
339.688939
325.098026
327.47469
340.07605
339.390754
321.149531
321.090509
334.080879
339.212389
339.188273
324.445698
324.1898
329.864767
339.426845
339.443625
320.977573
322.020066
339.17466
338.932398
330.01314
320.071418
327.937722
340.188521
339.515666
329.783946
320.863561
)
;

boundaryField
{
    closed
    {
        type            fixedValue;
        value           nonuniform List<scalar> 0();
    }
    open
    {
        type            zeroGradient;
    }
    sides
    {
        type            empty;
    }
    procBoundary3to2
    {
        type            processor;
        value           uniform 325.119411;
    }
    procBoundary3to4
    {
        type            processor;
        value           uniform 332.672449;
    }
}


// ************************************************************************* //
