/*--------------------------------*- C++ -*----------------------------------*\
| =========                 |                                                 |
| \\      /  F ield         | OpenFOAM: The Open Source CFD Toolbox           |
|  \\    /   O peration     | Version:  2306                                  |
|   \\  /    A nd           | Website:  www.openfoam.com                      |
|    \\/     M anipulation  |                                                 |
\*---------------------------------------------------------------------------*/
FoamFile
{
    version     2.0;
    format      ascii;
    arch        "LSB;label=32;scalar=64";
    class       volScalarField;
    location    "6e-05";
    object      prefDh_T;
}
// * * * * * * * * * * * * * * * * * * * * * * * * * * * * * * * * * * * * * //

dimensions      [1 1 -3 -1 0 0 0];

internalField   nonuniform List<scalar> 
530
(
0.00796362228
0.0080896415
0.00808760402
0.00742489264
0.00793938188
0.00810297142
0.00810335267
0.00767853557
0.00793651537
0.00811489305
0.00811568129
0.00778689995
0.00796083922
0.00812319838
0.00812388387
0.0078537628
0.00798210918
0.00812886135
0.00812935463
0.00790870542
0.00800559258
0.00813362459
0.00813423839
0.00796068301
0.00803081532
0.00813803252
0.00813876499
0.00802273689
0.00805159938
0.00814242337
0.00814298765
0.00806355919
0.00806845849
0.00814588769
0.00814613258
0.00808971803
0.00808848508
0.00814843947
0.00814875913
0.00811129198
0.00810960478
0.0081511184
0.00815153664
0.00812938536
0.00812996742
0.00815384531
0.00815434459
0.00814515335
0.0081478037
0.00815651034
0.00815707345
0.00815769646
0.00815860832
0.00815910165
0.00815970738
0.00816031465
0.00816085658
0.00816132687
0.00816182173
0.00816227849
0.00816272589
0.00816312458
0.00816353108
0.0081638932
0.00816426008
0.00816458238
0.0081649115
0.00816519945
0.00816549194
0.00816574781
0.0081660051
0.00816623216
0.00816645583
0.00816665682
0.00816684883
0.00816702645
0.008167189
0.00816734574
0.00816748134
0.00816761931
0.00816773094
0.00816784945
0.00816794504
0.00816804353
0.00816812548
0.00816820631
0.00816827623
0.00816834201
0.00816840114
0.00816845434
0.00816850387
0.00816854666
0.00816858775
0.00816862201
0.00816865575
0.00816868306
0.00816871053
0.00816873218
0.00816875436
0.00816877144
0.0081687892
0.00816880261
0.00816881672
0.00816882719
0.00816883832
0.00816884645
0.00816885518
0.00816886146
0.00816886825
0.00816887308
0.00816887833
0.00816888202
0.00816888606
0.00816888887
0.00816889195
0.00816889408
0.00816889642
0.00816889802
0.00816889979
0.00816890098
0.00816890231
0.0081689032
0.00816890419
0.00816890485
0.00816890559
0.00816890607
0.00816890661
0.00816890696
0.00816890736
0.0081689076
0.00816890789
0.00816890806
0.00816890827
0.00816890839
0.00816890854
0.00816890862
0.00816890872
0.00816890878
0.00816890885
0.00816890888
0.00816890893
0.00816890895
0.00816890898
0.00816890899
0.00816890901
0.00816890901
0.00816890902
0.00816890902
0.00816890903
0.00816890903
0.00816890903
0.00816890902
0.00816890902
0.00816890902
0.00816890902
0.00816890901
0.00816890901
0.008168909
0.008168909
0.008168909
0.008168909
0.00816890899
0.00816890899
0.00816890899
0.00816890899
0.00816890898
0.00816890898
0.00816890898
0.00816890898
0.00816890898
0.00816890898
0.00816890898
0.00816890898
0.00816890897
0.00816890897
0.00816890897
0.00816890897
0.00816890897
0.00816890897
0.00816890897
0.00816890897
0.00816890897
0.00816890897
0.00816890897
0.00816890897
0.00816890897
0.00816890897
0.00816890897
0.00816890897
0.00816890897
0.00816890897
0.00816890897
0.00816890897
0.00816890897
0.00816890897
0.00816890897
0.00816890897
0.00816890897
0.00816890897
0.00816890897
0.00816890897
0.00816890897
0.00816890897
0.00816890897
0.00816890897
0.00816890897
0.00816890897
0.00816890897
0.00816890897
0.00816890897
0.00816890897
0.00816890897
0.00816890897
0.00816890897
0.00816890897
0.00816890897
0.00816890897
0.00816890897
0.00816890897
0.00816890897
0.00816890897
0.00816890897
0.00816890897
0.00816890897
0.00816890897
0.00816890897
0.00816890897
0.00816890897
0.00816890897
0.00816890897
0.00816890897
0.00816890897
0.00816890897
0.00816890897
0.00816890897
0.00816890897
0.00816890897
0.00816890897
0.00816890897
0.00816890897
0.00816890897
0.00816890897
0.00816890897
0.00816890897
0.00816890897
0.00816890897
0.00816890897
0.00816890897
0.00816890897
0.00816890897
0.00816890897
0.00816890897
0.00816890897
0.00816890897
0.00816890897
0.00816890897
0.00816890897
0.00816890897
0.00816890897
0.00816890897
0.00816890897
0.00816890897
0.00816890897
0.00816890897
0.00816890897
0.00816890897
0.00816890897
0.00816890897
0.00816890897
0.00816890897
0.00816890897
0.00816890897
0.00816890897
0.00816890897
0.00816890897
0.00816890897
0.00816890897
0.00816890897
0.00816890897
0.00816890897
0.00816890897
0.00816890897
0.00816890897
0.00816890897
0.00816890897
0.00816890897
0.00816890897
0.00816890897
0.00816890897
0.00816890897
0.00816890897
0.00816890897
0.00816890897
0.00816890897
0.00816890897
0.00816890897
0.00816890897
0.00816890897
0.00816890897
0.00816890897
0.00816890897
0.00816890897
0.00816890897
0.00816890897
0.00816890897
0.00816890897
0.00816890897
0.00816890897
0.00816890897
0.00816890897
0.00816890897
0.00816890897
0.00816890897
0.00816890897
0.00816890897
0.00816890897
0.00816890897
0.00816890897
0.00816890897
0.00816890897
0.00816890897
0.00816890897
0.00816890897
0.00816890897
0.00816890897
0.00816890897
0.00816890897
0.00816890897
0.00816890897
0.00816890897
0.00816890897
0.00816890897
0.00816890897
0.00816890897
0.00816890897
0.00816890897
0.00816890897
0.00816890897
0.00816890897
0.00816890897
0.00816890897
0.00816890897
0.00816890897
0.00816890897
0.00816890897
0.00816890897
0.00816890897
0.00816890897
0.00816890897
0.00816890897
0.00816890897
0.00816890897
0.00816890897
0.00816890897
0.00816890897
0.00816890897
0.00816890897
0.00816890897
0.00816890897
0.00816890897
0.00816890897
0.00816890897
0.00816890897
0.00816890897
0.00816890897
0.00816890897
0.00816890897
0.00816890897
0.00816890897
0.00816890897
0.00816890897
0.00816890897
0.00816890897
0.00816890897
0.00816890897
0.00816890897
0.00816890897
0.00816890897
0.00816890897
0.00816890897
0.00816890897
0.00816890897
0.00816890897
0.00816890897
0.00816890897
0.00816890897
0.00816890897
0.00816890897
0.00816890897
0.00816890897
0.00816890897
0.00816890897
0.00816890897
0.00816890897
0.00816890897
0.00816890897
0.00816890897
0.00816890897
0.00816890897
0.00816890897
0.00816890897
0.00816890897
0.00816890897
0.00816890897
0.00816890897
0.00816890897
0.00816890897
0.00816890897
0.00816890897
0.00816890897
0.00816890897
0.00816890897
0.00816890897
0.00816890897
0.00816890897
0.00816890897
0.00816890897
0.00816890897
0.00816890897
0.00816890897
0.00816890897
0.00816890897
0.00816890897
0.00816890897
0.00816890897
0.00816890897
0.00816890897
0.00816890897
0.00816890897
0.00816890897
0.00816890897
0.00816890897
0.00816890897
0.00816890897
0.00816890897
0.00816890897
0.00816890897
0.00816890897
0.00816890897
0.00816890897
0.00816890897
0.00816890897
0.00816890897
0.00816890897
0.00816890897
0.00816890897
0.00816890897
0.00816890897
0.00816890897
0.00816890897
0.00816890897
0.00816890897
0.00816890897
0.00816890897
0.00816890897
0.00816890897
0.00816890897
0.00816890897
0.00816890897
0.00816890897
0.00816890897
0.00816890897
0.00816890897
0.00816890897
0.00816890897
0.00816890897
0.00816890897
0.00816890897
0.00816890897
0.00816890897
0.00816890897
0.00816890897
0.00816890897
0.00816890897
0.00816890897
0.00816890897
0.00816890897
0.00816890897
0.00816890897
0.00816890897
0.00816890897
0.00816890897
0.00816890897
0.00816890897
0.00816890897
0.00816890897
0.00816890897
0.00816890897
0.00816890897
0.00816890897
0.00816890897
0.00816890897
0.00816890897
0.00816890897
0.00816890897
0.00816890897
0.00816890897
0.00816890897
0.00816890897
0.00816890897
0.00816890897
0.00816890897
0.00816890897
0.00816890897
0.00816890897
0.00816890897
0.00816890897
0.00816890897
0.00816890897
0.00816890897
0.00816890897
0.00816890897
0.00816890897
0.00816890897
0.00816890897
0.00816890897
0.00816890897
0.00816890897
0.00816890897
0.00816890897
0.00816890897
0.00816890897
0.00816890897
0.00816890897
0.00816890897
0.00816890897
0.00816890897
0.00816890897
0.00816890897
0.00816890897
)
;

boundaryField
{
    closed
    {
        type            calculated;
        value           nonuniform List<scalar> 0();
    }
    open
    {
        type            calculated;
        value           uniform 0.00816890897;
    }
    sides
    {
        type            empty;
    }
    procBoundary5to4
    {
        type            processor;
        value           uniform 0.00708001393;
    }
}


// ************************************************************************* //
