/*--------------------------------*- C++ -*----------------------------------*\
| =========                 |                                                 |
| \\      /  F ield         | OpenFOAM: The Open Source CFD Toolbox           |
|  \\    /   O peration     | Version:  2306                                  |
|   \\  /    A nd           | Website:  www.openfoam.com                      |
|    \\/     M anipulation  |                                                 |
\*---------------------------------------------------------------------------*/
FoamFile
{
    version     2.0;
    format      ascii;
    arch        "LSB;label=32;scalar=64";
    class       volVectorField;
    location    "6e-05";
    object      U;
}
// * * * * * * * * * * * * * * * * * * * * * * * * * * * * * * * * * * * * * //

dimensions      [0 1 -1 0 0 0 0];

internalField   nonuniform List<vector> 
530
(
(1.15485423 0 0)
(1.14443333 0 0)
(1.24814857 0 0)
(1.27897534 0 0)
(1.21113961 0 0)
(1.21749287 0 0)
(1.32781158 0 0)
(1.36076419 0 0)
(1.2933662 0 0)
(1.30069119 0 0)
(1.40032794 0 0)
(1.41646661 0 0)
(1.35856283 0 0)
(1.38422856 0 0)
(1.47841684 0 0)
(1.49099743 0 0)
(1.44827358 0 0)
(1.48080172 0 0)
(1.55983454 0 0)
(1.56543148 0 0)
(1.5328806 0 0)
(1.56614656 0 0)
(1.63583001 0 0)
(1.64005846 0 0)
(1.60362185 0 0)
(1.63188313 0 0)
(1.70067543 0 0)
(1.70016701 0 0)
(1.65435135 0 0)
(1.67222354 0 0)
(1.73064809 0 0)
(1.72324506 0 0)
(1.67537332 0 0)
(1.6851158 0 0)
(1.72937052 0 0)
(1.72365287 0 0)
(1.68819969 0 0)
(1.68858875 0 0)
(1.70778956 0 0)
(1.69810423 0 0)
(1.67253275 0 0)
(1.66644082 0 0)
(1.66898671 0 0)
(1.65612629 0 0)
(1.63567669 0 0)
(1.62366238 0 0)
(1.61382798 0 0)
(1.59785564 0 0)
(1.58035609 0 0)
(1.56336422 0 0)
(1.54333911 0 0)
(1.52492827 0 0)
(1.50969141 0 0)
(1.49137094 0 0)
(1.47067018 0 0)
(1.45012756 0 0)
(1.42950413 0 0)
(1.40830198 0 0)
(1.38666158 0 0)
(1.36479638 0 0)
(1.34273313 0 0)
(1.32047803 0 0)
(1.29808752 0 0)
(1.27561825 0 0)
(1.25311644 0 0)
(1.23061978 0 0)
(1.20817394 0 0)
(1.18581921 0 0)
(1.16359813 0 0)
(1.14154822 0 0)
(1.11971002 0 0)
(1.0981205 0 0)
(1.07681791 0 0)
(1.05583786 0 0)
(1.03521627 0 0)
(1.0149873 0 0)
(0.995184055 0 0)
(0.975839006 0 0)
(0.956982258 0 0)
(0.938644459 0 0)
(0.920851153 0 0)
(0.903630101 0 0)
(0.887005867 0 0)
(0.871001952 0 0)
(0.855639559 0 0)
(0.840939051 0 0)
(0.826919224 0 0)
(0.813597251 0 0)
(0.800988975 0 0)
(0.789108445 0 0)
(0.77796857 0 0)
(0.767580391 0 0)
(0.757953837 0 0)
(0.749097076 0 0)
(0.741017092 0 0)
(0.733719252 0 0)
(0.727207677 0 0)
(0.721484995 0 0)
(0.716552564 0 0)
(0.712410354 0 0)
(0.709057071 0 0)
(0.70649013 0 0)
(0.704705716 0 0)
(0.703698814 0 0)
(0.70346323 0 0)
(0.703991666 0 0)
(0.705275714 0 0)
(0.70730595 0 0)
(0.710071924 0 0)
(0.71356226 0 0)
(0.717764649 0 0)
(0.722665947 0 0)
(0.72825217 0 0)
(0.734508592 0 0)
(0.741419745 0 0)
(0.74896951 0 0)
(0.757141126 0 0)
(0.765917269 0 0)
(0.77528007 0 0)
(0.785211187 0 0)
(0.795691827 0 0)
(0.806702814 0 0)
(0.818224608 0 0)
(0.830237372 0 0)
(0.842720996 0 0)
(0.855655151 0 0)
(0.869019318 0 0)
(0.882792841 0 0)
(0.896954951 0 0)
(0.911484815 0 0)
(0.926361565 0 0)
(0.941564333 0 0)
(0.957072282 0 0)
(0.972864655 0 0)
(0.988920789 0 0)
(1.00522015 0 0)
(1.02174236 0 0)
(1.03846723 0 0)
(1.05537478 0 0)
(1.07244525 0 0)
(1.08965917 0 0)
(1.10699732 0 0)
(1.12444081 0 0)
(1.14197104 0 0)
(1.15956978 0 0)
(1.17721915 0 0)
(1.19490162 0 0)
(1.21260007 0 0)
(1.23029778 0 0)
(1.24797844 0 0)
(1.26562615 0 0)
(1.28322546 0 0)
(1.30076137 0 0)
(1.31821931 0 0)
(1.33558519 0 0)
(1.35284535 0 0)
(1.36998664 0 0)
(1.38699636 0 0)
(1.40386227 0 0)
(1.42057266 0 0)
(1.43711623 0 0)
(1.45348222 0 0)
(1.46966032 0 0)
(1.4856407 0 0)
(1.50141401 0 0)
(1.51697137 0 0)
(1.53230439 0 0)
(1.54740512 0 0)
(1.56226609 0 0)
(1.57688029 0 0)
(1.59124116 0 0)
(1.60534258 0 0)
(1.61917888 0 0)
(1.63274482 0 0)
(1.6460356 0 0)
(1.65904681 0 0)
(1.67177449 0 0)
(1.68421506 0 0)
(1.69636533 0 0)
(1.70822252 0 0)
(1.7197842 0 0)
(1.73104832 0 0)
(1.7420132 0 0)
(1.75267749 0 0)
(1.76304019 0 0)
(1.77310063 0 0)
(1.78285844 0 0)
(1.79231358 0 0)
(1.8014663 0 0)
(1.81031715 0 0)
(1.81886693 0 0)
(1.82711673 0 0)
(1.83506788 0 0)
(1.84272199 0 0)
(1.85008086 0 0)
(1.85714655 0 0)
(1.86392131 0 0)
(1.87040762 0 0)
(1.87660814 0 0)
(1.88252571 0 0)
(1.88816336 0 0)
(1.89352427 0 0)
(1.89861179 0 0)
(1.9034294 0 0)
(1.90798072 0 0)
(1.91226951 0 0)
(1.91629963 0 0)
(1.92007506 0 0)
(1.92359987 0 0)
(1.92687822 0 0)
(1.92991437 0 0)
(1.93271263 0 0)
(1.93527739 0 0)
(1.9376131 0 0)
(1.93972424 0 0)
(1.94161536 0 0)
(1.94329102 0 0)
(1.94475583 0 0)
(1.94601439 0 0)
(1.94707135 0 0)
(1.94793134 0 0)
(1.948599 0 0)
(1.94907896 0 0)
(1.94937584 0 0)
(1.94949425 0 0)
(1.94943878 0 0)
(1.94921396 0 0)
(1.94882432 0 0)
(1.94827434 0 0)
(1.94756846 0 0)
(1.94671105 0 0)
(1.94570647 0 0)
(1.94455898 0 0)
(1.94327281 0 0)
(1.9418521 0 0)
(1.94030094 0 0)
(1.93862335 0 0)
(1.93682326 0 0)
(1.93490453 0 0)
(1.93287095 0 0)
(1.93072621 0 0)
(1.92847392 0 0)
(1.9261176 0 0)
(1.9236607 0 0)
(1.92110654 0 0)
(1.91845837 0 0)
(1.91571936 0 0)
(1.91289254 0 0)
(1.90998088 0 0)
(1.90698723 0 0)
(1.90391436 0 0)
(1.9007649 0 0)
(1.89754143 0 0)
(1.89424639 0 0)
(1.89088213 0 0)
(1.8874509 0 0)
(1.88395484 0 0)
(1.88039599 0 0)
(1.8767763 0 0)
(1.87309759 0 0)
(1.8693616 0 0)
(1.86556997 0 0)
(1.86172423 0 0)
(1.85782581 0 0)
(1.85387606 0 0)
(1.8498762 0 0)
(1.84582738 0 0)
(1.84173065 0 0)
(1.83758696 0 0)
(1.83339718 0 0)
(1.82916206 0 0)
(1.8248823 0 0)
(1.82055849 0 0)
(1.81619114 0 0)
(1.81178067 0 0)
(1.80732742 0 0)
(1.80283168 0 0)
(1.79829361 0 0)
(1.79371333 0 0)
(1.78909089 0 0)
(1.78442626 0 0)
(1.77971932 0 0)
(1.77496993 0 0)
(1.77017785 0 0)
(1.7653428 0 0)
(1.76046442 0 0)
(1.75554232 0 0)
(1.75057605 0 0)
(1.74556509 0 0)
(1.7405089 0 0)
(1.73540687 0 0)
(1.73025838 0 0)
(1.72506274 0 0)
(1.71981924 0 0)
(1.71452712 0 0)
(1.70918562 0 0)
(1.70379392 0 0)
(1.69835118 0 0)
(1.69285657 0 0)
(1.68730919 0 0)
(1.68170816 0 0)
(1.67605257 0 0)
(1.67034151 0 0)
(1.66457405 0 0)
(1.65874925 0 0)
(1.65286618 0 0)
(1.64692391 0 0)
(1.6409215 0 0)
(1.63485802 0 0)
(1.62873255 0 0)
(1.62254418 0 0)
(1.61629201 0 0)
(1.60997515 0 0)
(1.60359274 0 0)
(1.59714392 0 0)
(1.59062788 0 0)
(1.5840438 0 0)
(1.57739092 0 0)
(1.57066849 0 0)
(1.56387579 0 0)
(1.55701213 0 0)
(1.55007687 0 0)
(1.5430694 0 0)
(1.53598915 0 0)
(1.52883557 0 0)
(1.52160819 0 0)
(1.51430654 0 0)
(1.50693024 0 0)
(1.49947893 0 0)
(1.4919523 0 0)
(1.4843501 0 0)
(1.47667212 0 0)
(1.46891822 0 0)
(1.46108829 0 0)
(1.45318229 0 0)
(1.44520024 0 0)
(1.4371422 0 0)
(1.42900831 0 0)
(1.42079875 0 0)
(1.41251377 0 0)
(1.40415368 0 0)
(1.39571883 0 0)
(1.38720967 0 0)
(1.37862669 0 0)
(1.36997043 0 0)
(1.36124151 0 0)
(1.35244061 0 0)
(1.34356848 0 0)
(1.33462591 0 0)
(1.32561378 0 0)
(1.31653302 0 0)
(1.30738461 0 0)
(1.29816963 0 0)
(1.28888918 0 0)
(1.27954445 0 0)
(1.27013668 0 0)
(1.26066718 0 0)
(1.2511373 0 0)
(1.24154849 0 0)
(1.23190222 0 0)
(1.22220004 0 0)
(1.21244356 0 0)
(1.20263442 0 0)
(1.19277436 0 0)
(1.18286514 0 0)
(1.17290859 0 0)
(1.16290659 0 0)
(1.15286108 0 0)
(1.14277404 0 0)
(1.13264751 0 0)
(1.12248356 0 0)
(1.11228435 0 0)
(1.10205203 0 0)
(1.09178885 0 0)
(1.08149706 0 0)
(1.07117898 0 0)
(1.06083696 0 0)
(1.05047339 0 0)
(1.0400907 0 0)
(1.02969136 0 0)
(1.01927786 0 0)
(1.00885274 0 0)
(0.998418564 0 0)
(0.987977929 0 0)
(0.977533459 0 0)
(0.967087803 0 0)
(0.956643638 0 0)
(0.946203661 0 0)
(0.935770593 0 0)
(0.925347174 0 0)
(0.914936163 0 0)
(0.904540333 0 0)
(0.894162474 0 0)
(0.883805388 0 0)
(0.873471888 0 0)
(0.863164796 0 0)
(0.852886941 0 0)
(0.842641159 0 0)
(0.83243029 0 0)
(0.822257176 0 0)
(0.812124658 0 0)
(0.802035578 0 0)
(0.791992774 0 0)
(0.781999079 0 0)
(0.772057322 0 0)
(0.76217032 0 0)
(0.752340884 0 0)
(0.742571811 0 0)
(0.732865888 0 0)
(0.723225884 0 0)
(0.713654554 0 0)
(0.704154634 0 0)
(0.694728843 0 0)
(0.685379877 0 0)
(0.676110409 0 0)
(0.666923091 0 0)
(0.657820548 0 0)
(0.648805377 0 0)
(0.639880151 0 0)
(0.631047409 0 0)
(0.622309661 0 0)
(0.613669386 0 0)
(0.605129028 0 0)
(0.596690997 0 0)
(0.588357666 0 0)
(0.580131372 0 0)
(0.572014413 0 0)
(0.564009047 0 0)
(0.556117492 0 0)
(0.548341923 0 0)
(0.540684474 0 0)
(0.533147233 0 0)
(0.525732243 0 0)
(0.518441503 0 0)
(0.511276963 0 0)
(0.504240526 0 0)
(0.497334045 0 0)
(0.49055932 0 0)
(0.48391809 0 0)
(0.477412032 0 0)
(0.471042768 0 0)
(0.46481189 0 0)
(0.458721017 0 0)
(0.452771875 0 0)
(0.446966313 0 0)
(0.441306088 0 0)
(0.435792124 0 0)
(0.430423293 0 0)
(0.425195848 0 0)
(0.420105532 0 0)
(0.415152363 0 0)
(0.410339199 0 0)
(0.405675966 0 0)
(0.401108817 0 0)
(0.396380884 0 0)
(0.391500456 0 0)
(0.38648908 0 0)
(0.381388518 0 0)
(0.376250907 0 0)
(0.371132713 0 0)
(0.366096299 0 0)
(0.361214178 0 0)
(0.356572736 0 0)
(0.352275057 0 0)
(0.34844354 0 0)
(0.345222678 0 0)
(0.342782031 0 0)
(0.341319295 0 0)
(0.341063406 0 0)
(0.3422776 0 0)
(0.345262221 0 0)
(0.350357058 0 0)
(0.357942861 0 0)
(0.368441604 0 0)
(0.382314972 0 0)
(0.400060406 0 0)
(0.422203926 0 0)
(0.449288833 0 0)
(0.481859294 0 0)
(0.520437763 0 0)
(0.565495234 0 0)
(0.617413444 0 0)
(0.67643844 0 0)
(0.742625437 0 0)
(0.815775574 0 0)
(0.895365946 0 0)
(0.980475607 0 0)
(1.06971205 0 0)
(1.1611438 0 0)
(1.25224898 0 0)
(1.3398939 0 0)
(1.42035857 0 0)
(1.48944041 0 0)
(1.54267592 0 0)
(1.57572521 0 0)
(1.58496488 0 0)
(1.56828326 0 0)
(1.52602504 0 0)
(1.4618071 0 0)
(1.38280144 0 0)
(1.2992753 0 0)
(1.22261968 0 0)
(1.1626744 0 0)
(1.12564704 0 0)
(1.11359965 0 0)
(1.12638601 0 0)
(1.16360171 0 0)
(1.22282497 0 0)
(1.29372839 0 0)
(1.35548185 0 0)
(1.38693856 0 0)
(1.38328844 0 0)
(1.35645421 0 0)
(1.31273097 0 0)
(1.24669715 0 0)
(1.17619933 0 0)
(1.15697563 0 0)
(1.22461712 0 0)
(1.34004815 0 0)
(1.41738888 0 0)
(1.39367392 0 0)
(1.28551677 0 0)
(1.18225778 0 0)
(1.15346049 0 0)
(1.19045616 0 0)
(1.2333268 0 0)
(1.22505799 0 0)
(1.14815585 0 0)
(1.18136666 0 0)
(1.04122582 0 0)
)
;

boundaryField
{
    closed
    {
        type            noSlip;
    }
    open
    {
        type            inletOutlet;
        inletValue      uniform (0 0 0);
        value           uniform (1.04122582 0 0);
    }
    sides
    {
        type            empty;
    }
    procBoundary5to4
    {
        type            processor;
        value           uniform (1.19617342 0 0);
    }
}


// ************************************************************************* //
