/*--------------------------------*- C++ -*----------------------------------*\
| =========                 |                                                 |
| \\      /  F ield         | OpenFOAM: The Open Source CFD Toolbox           |
|  \\    /   O peration     | Version:  2306                                  |
|   \\  /    A nd           | Website:  www.openfoam.com                      |
|    \\/     M anipulation  |                                                 |
\*---------------------------------------------------------------------------*/
FoamFile
{
    version     2.0;
    format      ascii;
    arch        "LSB;label=32;scalar=64";
    class       volScalarField;
    location    "0.00192";
    object      prefDPV_H2O;
}
// * * * * * * * * * * * * * * * * * * * * * * * * * * * * * * * * * * * * * //

dimensions      [1 -1 -1 0 0 0 0];

internalField   nonuniform List<scalar> 
531
(
-3.8334843e-07
-3.845084e-07
-3.67664118e-07
-3.64855738e-07
-3.67139427e-07
-3.83786547e-07
-3.83993161e-07
-3.66595237e-07
-3.65062015e-07
-3.65175653e-07
-3.66363845e-07
-3.83649071e-07
-3.84097495e-07
-3.66536434e-07
-3.64664449e-07
-3.67166009e-07
-3.83766915e-07
-3.83893205e-07
-3.67504153e-07
-3.64835705e-07
-3.67157281e-07
-3.83732967e-07
-3.83818528e-07
-3.67690638e-07
-3.64848398e-07
-3.66993427e-07
-3.83769184e-07
-3.83806667e-07
-3.67808424e-07
-3.6485515e-07
-3.66803008e-07
-3.83824273e-07
-3.83829894e-07
-3.67710592e-07
-3.64783205e-07
-3.66463191e-07
-3.83969953e-07
-3.84040562e-07
-3.66108329e-07
-3.63657729e-07
-3.6577675e-07
-3.84499364e-07
-3.83894007e-07
-3.83848461e-07
-3.84104315e-07
-3.68963473e-07
-3.64557004e-07
-3.6450978e-07
-3.65022025e-07
-3.84294239e-07
-3.84249462e-07
-3.65342294e-07
-3.65607982e-07
-3.84248074e-07
-3.84023072e-07
-3.65971294e-07
-3.64191303e-07
-3.65582192e-07
-3.84280739e-07
-3.84037063e-07
-3.65990988e-07
-3.66163977e-07
-3.84016358e-07
-3.83812064e-07
-3.6777755e-07
-3.64845292e-07
-3.66008529e-07
-3.84309477e-07
-3.83886623e-07
-3.65773858e-07
-3.65754554e-07
-3.84467883e-07
-3.83493456e-07
-3.84325176e-07
-3.6617698e-07
-3.6451282e-07
-3.65691001e-07
-3.64988207e-07
-3.66798273e-07
-3.83979077e-07
-3.83768878e-07
-3.67497509e-07
-3.64604755e-07
-3.66221415e-07
-3.84273169e-07
-3.83675387e-07
-3.65538843e-07
-3.65519262e-07
-3.84266037e-07
-3.83381786e-07
-3.83905535e-07
-3.68567621e-07
-3.65212198e-07
-3.65844747e-07
-3.64954191e-07
-3.66208483e-07
-3.83810785e-07
-3.83696986e-07
-3.67594542e-07
-3.64458733e-07
-3.66486055e-07
-3.8395794e-07
-3.83715912e-07
-3.65742015e-07
-3.64184869e-07
-3.76466239e-07
-3.84174426e-07
-3.83625215e-07
-3.84019091e-07
-3.66787543e-07
-3.64895053e-07
-3.64823965e-07
-3.66695784e-07
-3.83704959e-07
-3.83789589e-07
-3.66338161e-07
-3.64333024e-07
-3.66410404e-07
-3.838397e-07
-3.83797321e-07
-3.66272032e-07
-3.642743e-07
-3.73152902e-07
-3.84132097e-07
-3.68020873e-07
-3.66036409e-07
-3.84161623e-07
-3.83884668e-07
-3.77798211e-07
-3.6485912e-07
-3.64575997e-07
-3.73584238e-07
-3.84494411e-07
-3.84767442e-07
-3.63535915e-07
-3.63535739e-07
-3.85009847e-07
-3.84757834e-07
-3.7257495e-07
-3.63474388e-07
-3.6422013e-07
-3.84677906e-07
-3.84392385e-07
-3.65445476e-07
-3.65603573e-07
-3.84046373e-07
-3.84172546e-07
-3.71351622e-07
-3.64193416e-07
-3.64308403e-07
-3.8271026e-07
-3.84117924e-07
-3.66011144e-07
-3.65223794e-07
-3.84220866e-07
-3.83989923e-07
-3.65227595e-07
-3.64912409e-07
-3.84454221e-07
-3.84088085e-07
-3.65242463e-07
-3.65314556e-07
-3.84408195e-07
-3.83998241e-07
-3.75119794e-07
-3.64797823e-07
-3.64720271e-07
-3.79712216e-07
-3.83964502e-07
-3.66533559e-07
-3.66019831e-07
-3.85341532e-07
-3.83506643e-07
-3.85189143e-07
-3.66381038e-07
-3.64486465e-07
-3.65003689e-07
-3.64383501e-07
-3.72647018e-07
-3.84323457e-07
-3.6775491e-07
-3.65308556e-07
-3.84366607e-07
-3.83834715e-07
-3.75086933e-07
-3.65221978e-07
-3.64661505e-07
-3.73980128e-07
-3.84105704e-07
-3.68316699e-07
-3.65535793e-07
-3.84648625e-07
-3.83741149e-07
-3.7620401e-07
-3.6538599e-07
-3.64685178e-07
-3.73898581e-07
-3.84163515e-07
-3.68601721e-07
-3.65532104e-07
-3.84930365e-07
-3.83715118e-07
-3.76267461e-07
-3.65503789e-07
-3.64732584e-07
-3.73067415e-07
-3.84211831e-07
-3.69121376e-07
-3.65649145e-07
-3.85314619e-07
-3.83563713e-07
-3.77440781e-07
-3.66065381e-07
-3.65001972e-07
-3.67765737e-07
-3.84371343e-07
-3.83607409e-07
-3.68059505e-07
-3.6462378e-07
-3.67719339e-07
-3.84458892e-07
-3.83637812e-07
-3.68493798e-07
-3.64786436e-07
-3.6466612e-07
-3.68130122e-07
-3.84446448e-07
-3.84116985e-07
-3.67010615e-07
-3.64114123e-07
-3.66546831e-07
-3.84756635e-07
-3.83786917e-07
-3.68086552e-07
-3.64303686e-07
-3.6694455e-07
-3.84641958e-07
-3.83800456e-07
-3.6814705e-07
-3.64306975e-07
-3.67252225e-07
-3.84628774e-07
-3.83839168e-07
-3.67413814e-07
-3.64193291e-07
-3.7140343e-07
-3.84536357e-07
-3.70402427e-07
-3.65888415e-07
-3.85510045e-07
-3.83623862e-07
-3.77276071e-07
-3.66185656e-07
-3.65163238e-07
-3.68454161e-07
-3.84288295e-07
-3.84066356e-07
-3.66934135e-07
-3.6419118e-07
-3.68380787e-07
-3.84490272e-07
-3.84434551e-07
-3.65970112e-07
-3.63910034e-07
-3.69921554e-07
-3.85295713e-07
-3.83337482e-07
-3.8323305e-07
-3.66107572e-07
-3.6495339e-07
-3.64306156e-07
-3.68723025e-07
-3.84597964e-07
-3.69482109e-07
-3.64954681e-07
-3.85054231e-07
-3.83974163e-07
-3.66403578e-07
-3.65521191e-07
-3.85019384e-07
-3.84076481e-07
-3.73132634e-07
-3.64503938e-07
-3.64635577e-07
-3.81588659e-07
-3.8417402e-07
-3.76724872e-07
-3.65223449e-07
-3.64658356e-07
-3.73760696e-07
-3.84200126e-07
-3.69035032e-07
-3.65602099e-07
-3.84713854e-07
-3.83785497e-07
-3.66910641e-07
-3.65956352e-07
-3.84901102e-07
-3.84082913e-07
-3.73962073e-07
-3.64221615e-07
-3.64563608e-07
-3.85257058e-07
-3.84437552e-07
-3.7389301e-07
-3.64075621e-07
-3.64459152e-07
-3.85332506e-07
-3.84496248e-07
-3.7337608e-07
-3.639408e-07
-3.64337163e-07
-3.85744496e-07
-3.84366766e-07
-3.77386156e-07
-3.64664195e-07
-3.65222638e-07
-3.85657524e-07
-3.71022094e-07
-3.64691141e-07
-3.86628617e-07
-3.84207233e-07
-3.86799791e-07
-3.65112567e-07
-3.6524223e-07
-3.8567367e-07
-3.72317764e-07
-3.64835494e-07
-3.84957625e-07
-3.83834484e-07
-3.72244592e-07
-3.66742557e-07
-3.6461531e-07
-3.64945243e-07
-3.85170157e-07
-3.71537949e-07
-3.64483301e-07
-3.85037575e-07
-3.8396114e-07
-3.65961829e-07
-3.6566953e-07
-3.85396562e-07
-3.83653886e-07
-3.84542793e-07
-3.73463334e-07
-3.66087691e-07
-3.63582852e-07
-3.63954165e-07
-3.8538478e-07
-3.73598013e-07
-3.63876413e-07
-3.85213948e-07
-3.84128977e-07
-3.65930572e-07
-3.64946279e-07
-3.85069092e-07
-3.83793523e-07
-3.66394738e-07
-3.65638643e-07
-3.84773227e-07
-3.83547876e-07
-3.71827228e-07
-3.66610971e-07
-3.64762101e-07
-3.64856015e-07
-3.84902589e-07
-3.72688113e-07
-3.64746313e-07
-3.84945377e-07
-3.84020688e-07
-3.66279915e-07
-3.65568289e-07
-3.84999503e-07
-3.84187064e-07
-3.75292087e-07
-3.64125083e-07
-3.64204865e-07
-3.85059351e-07
-3.83971961e-07
-3.66929267e-07
-3.66040473e-07
-3.84771275e-07
-3.8352115e-07
-3.71823914e-07
-3.66649128e-07
-3.63644613e-07
-3.6366524e-07
-3.8606942e-07
-3.83965411e-07
-3.85280165e-07
-3.72811951e-07
-3.63319281e-07
-3.63447742e-07
-3.85175727e-07
-3.8454801e-07
-3.74352577e-07
-3.64045599e-07
-3.64111047e-07
-3.84962527e-07
-3.84022586e-07
-3.66836325e-07
-3.6603164e-07
-3.84999623e-07
-3.83668345e-07
-3.75293734e-07
-3.66301317e-07
-3.66006903e-07
-3.63798867e-07
-3.63726508e-07
-3.85069881e-07
-3.83937093e-07
-3.67567986e-07
-3.65920404e-07
-3.84943117e-07
-3.83485129e-07
-3.67311958e-07
-3.66018647e-07
-3.84930751e-07
-3.83430742e-07
-3.71656887e-07
-3.66567679e-07
-3.64379468e-07
-3.64316304e-07
-3.85208048e-07
-3.73328407e-07
-3.64203426e-07
-3.85580514e-07
-3.84111518e-07
-3.6626184e-07
-3.64954416e-07
-3.85667358e-07
-3.83929512e-07
-3.66233469e-07
-3.65333598e-07
-3.85449242e-07
-3.83967777e-07
-3.74736989e-07
-3.65242005e-07
-3.65217152e-07
-3.75612627e-07
-3.84243064e-07
-3.84988157e-07
-3.65619864e-07
-3.64369319e-07
-3.76815843e-07
-3.84515295e-07
-3.83126345e-07
-3.65101608e-07
-3.64660398e-07
-3.78239934e-07
-3.84479512e-07
-3.80612142e-07
-3.64712228e-07
-3.64612273e-07
-3.83479077e-07
-3.84463545e-07
-3.76160592e-07
-3.64287735e-07
-3.64270029e-07
-3.86023552e-07
-3.84422811e-07
-3.73650145e-07
-3.64195614e-07
-3.64257282e-07
-3.85685108e-07
-3.84460067e-07
-3.7291577e-07
-3.63938401e-07
-3.63890918e-07
-3.86042214e-07
-3.84131746e-07
-3.66924154e-07
-3.65527314e-07
-3.85676814e-07
-3.84139473e-07
-3.73691818e-07
-3.64186576e-07
-3.64204083e-07
-3.85839457e-07
-3.84027523e-07
-3.84259495e-07
-3.75168362e-07
-3.66405032e-07
-3.64054054e-07
-3.64056214e-07
-3.85913727e-07
-3.84344227e-07
-3.72647518e-07
-3.64473037e-07
-3.66040862e-07
-3.85177113e-07
-3.71961932e-07
-3.6485311e-07
-3.85697936e-07
-3.8440093e-07
-3.73013932e-07
-3.63800762e-07
-3.63649945e-07
-3.86278478e-07
-3.8409909e-07
-3.67117484e-07
-3.66458172e-07
-3.85941925e-07
-3.71386929e-07
-3.64949227e-07
-3.86376208e-07
-3.84126904e-07
-3.84535909e-07
-3.76975826e-07
-3.66361518e-07
-3.64261614e-07
-3.64226132e-07
-3.86077387e-07
-3.84324012e-07
-3.75583708e-07
-3.64829867e-07
-3.64798524e-07
-3.86074329e-07
-3.842705e-07
-3.74014039e-07
-3.64518827e-07
-3.64512844e-07
-3.85983683e-07
-3.84385216e-07
-3.73232608e-07
-3.64270685e-07
-3.64157476e-07
-3.86053397e-07
-3.84179575e-07
-3.66846593e-07
-3.65010369e-07
)
;

boundaryField
{
    closed
    {
        type            calculated;
        value           nonuniform List<scalar> 0();
    }
    open
    {
        type            calculated;
        value           nonuniform List<scalar> 0();
    }
    sides
    {
        type            empty;
    }
    procBoundary1to0
    {
        type            processor;
        value           uniform -3.84118954e-07;
    }
    procBoundary1to2
    {
        type            processor;
        value           uniform -3.85887358e-07;
    }
}


// ************************************************************************* //
