/*--------------------------------*- C++ -*----------------------------------*\
| =========                 |                                                 |
| \\      /  F ield         | OpenFOAM: The Open Source CFD Toolbox           |
|  \\    /   O peration     | Version:  2306                                  |
|   \\  /    A nd           | Website:  www.openfoam.com                      |
|    \\/     M anipulation  |                                                 |
\*---------------------------------------------------------------------------*/
FoamFile
{
    version     2.0;
    format      ascii;
    arch        "LSB;label=32;scalar=64";
    class       volScalarField;
    location    "0.00192";
    object      prefDh_H2;
}
// * * * * * * * * * * * * * * * * * * * * * * * * * * * * * * * * * * * * * //

dimensions      [1 1 -3 0 0 0 0];

internalField   nonuniform List<scalar> 
531
(
38.9577527
38.3142836
28.6331872
24.3752114
28.7350331
38.5331886
38.8097019
29.1835888
25.1814604
25.5770488
28.5889748
38.9306141
38.6473467
28.8530545
24.0414527
28.8319121
38.7320533
38.8016469
28.7582962
24.6073144
28.8655827
38.8009121
38.8414607
28.6727777
24.6445064
28.8623975
38.76375
38.8436019
28.6557487
24.6534191
28.8991388
38.6810891
38.8233191
28.7379547
24.4436751
28.9218688
38.6016639
38.7259833
28.1848358
21.3378305
27.2598657
38.3855642
38.6547437
38.6206444
38.6447933
28.8252066
23.8406114
23.8234925
25.0696694
38.5185908
38.8185013
26.1795772
26.5026144
38.4544789
38.6120581
27.8044354
22.7527196
26.6743775
38.3268146
38.9497996
27.8503404
28.0093726
38.5571123
38.5893829
28.5655302
24.4217083
27.8658655
38.1261055
39.0562899
27.063719
27.0647078
38.2710717
38.6157818
38.6140791
28.3166647
23.4845239
26.9907052
24.8195006
28.990672
38.435199
38.7225477
28.6828809
23.9069899
28.4773685
38.2830627
39.2015571
26.5138168
26.5611961
38.4364268
38.7180073
38.6840822
28.6782571
25.4278772
27.4224841
24.850794
28.3205329
38.6871452
38.8486075
28.6549576
23.7132226
28.8468811
38.6932113
38.8969585
27.1627872
22.9823942
30.1105664
38.4333881
38.6650063
38.6167313
28.9662073
24.7262474
24.7534449
29.2109262
38.9380365
38.6621413
28.7872705
23.2834889
28.8209761
38.7685711
38.8297413
28.4814105
23.1956661
29.084988
38.4451661
28.8346408
27.644288
38.7152266
38.2697225
30.7682665
24.6403457
23.5625186
29.2476746
37.747139
38.4351849
20.7018999
20.7479158
38.5915044
37.4464444
29.1293854
20.4564267
22.9531538
38.4745963
38.1289133
26.0382389
26.4437756
38.7413594
38.0914263
28.7747276
22.5466696
23.4040976
33.5070332
38.5490296
27.3484663
25.6454976
38.648765
38.5403996
25.485167
24.8550785
38.6670078
38.4382029
25.5085039
25.7829975
38.7460635
38.2240734
29.6854537
24.2601175
24.2806461
31.7482555
38.4273999
28.4808035
27.60113
38.0931152
38.4279675
37.9831283
28.7552724
22.9276243
25.2582923
22.9420628
28.8928274
38.1460528
28.6598463
25.7046777
38.902473
38.4716355
29.6232178
25.7397595
24.1762317
29.2476377
38.3911639
28.7135369
26.3915954
38.5454635
38.5357544
30.058972
26.215475
24.2064341
29.1956514
38.3165069
28.6703054
26.4017141
38.3289428
38.5781847
30.0865938
26.5591214
24.3457765
28.971191
38.2904251
28.7015794
26.757914
38.0131913
38.6999948
30.619756
28.1426889
24.873256
28.5184136
38.1360435
38.9888458
28.6789564
24.0530923
28.5784914
38.0102199
39.0563231
28.9021055
24.5922895
24.1399934
28.9489302
38.2188448
38.8165633
28.5548828
22.3793992
28.8293905
37.8806434
38.8953183
28.7405052
23.0974291
28.7931074
38.0868355
38.8851778
28.6984552
23.0679696
28.6816543
38.1018045
39.0022932
28.7477766
22.8239956
28.6594396
38.0355584
28.8144646
27.2376259
38.1170917
38.5648149
30.5838291
28.3193625
25.149827
28.6736957
38.3087041
38.8306943
28.8250509
22.6043644
28.7602062
38.2391775
38.6800928
27.9137605
21.5139577
28.2849471
37.2195597
39.0535962
33.8025337
28.1785851
24.639152
23.272526
28.7699632
38.4451502
28.7485412
24.9152441
38.9056998
38.489801
28.421119
26.2773004
38.6078407
38.1454399
29.3355691
23.445723
23.8833457
32.8324527
38.2117081
30.3491599
25.6210688
23.9653555
29.2166269
38.4063531
28.9062389
26.566817
38.8075539
38.4908287
29.62845
27.3753663
38.5145908
38.0380938
29.5428621
22.5612322
23.5295651
38.4650761
37.7873491
29.5330808
22.0520972
23.2386614
38.3785915
37.7527027
29.4177363
21.6027434
22.9779451
38.0510852
37.8312715
30.6668259
23.5813643
25.2624095
37.9699861
29.250844
23.7109384
37.2515806
37.7601117
36.3906341
24.9141078
24.9612985
38.0010598
29.1914868
24.2822522
38.768433
38.2459712
29.1548539
29.4028928
23.6106185
24.7320032
38.3617642
29.0334996
23.4896635
38.65808
38.4252006
27.2113812
26.7286647
38.442519
38.3871009
37.7808654
29.3747328
27.4431546
20.8969564
21.9652059
38.4210406
29.3871855
21.9005773
38.6329878
38.423986
27.0405506
24.9500861
38.5281014
38.7114157
28.2907803
26.8087545
38.7418471
38.6307457
29.1776475
29.1632441
24.0188956
24.5281164
38.3759837
29.1744838
24.237196
38.7907347
38.3244653
28.0846442
26.2913486
38.614075
37.9466023
29.8438943
22.3062545
22.8070892
38.5050584
38.4268419
29.6540841
27.7217172
38.4947518
38.5298918
29.3736851
29.2500642
20.7081341
21.4329037
37.8561403
38.2310893
37.1182292
29.2820963
19.8192961
20.5508937
38.366859
37.7800643
29.6229434
22.0627165
22.4266809
38.4610711
38.2891474
29.5476798
27.5684133
38.4950347
38.2907418
29.8501014
28.1955083
27.4195672
21.537961
21.5930123
38.3641978
38.5584811
29.491408
27.545731
38.3405041
38.867945
29.4573874
27.871464
38.4310889
38.7532496
29.1575795
29.0859644
23.0469861
23.0786905
38.2157129
29.2803615
22.8457134
38.1996982
38.426827
28.0261244
24.8983147
37.9971829
38.5339984
27.9956837
25.8074413
38.0730305
38.2689727
29.700678
25.5325209
25.3247387
29.8268473
37.9292507
38.2071776
26.6879483
22.6600885
30.276723
37.5646158
33.7373289
25.0905817
23.5992546
30.9447493
37.6558395
32.2382794
23.8368098
23.5564395
34.0579782
37.6940458
30.2136485
22.6979586
22.6532539
37.7295897
37.8856962
29.4934848
22.6058495
22.6821687
37.7854581
37.8471163
29.2066584
21.6447781
21.9136782
37.8103102
38.327332
29.6745544
26.1986698
37.6852188
38.1201551
29.4354158
22.6029891
22.6265161
37.8059876
38.0962077
38.0770927
29.8395918
28.3889319
22.2658532
22.2678182
37.7313216
38.1102855
29.1117642
23.3206008
27.6076574
37.8026351
28.9688726
24.3463354
37.9533481
37.9545935
29.1985466
21.2325339
21.375982
36.0028843
38.3179861
30.0074674
28.6636489
37.3279463
28.9993132
24.4466503
37.5618473
37.8807575
37.8687984
30.5240291
28.2547566
22.56589
22.5829873
37.4156676
37.85925
30.005364
24.1501761
24.1470867
37.3798955
37.9272646
29.5915663
23.3846376
23.3797849
37.587165
37.8651002
29.3347849
22.6005354
22.6599802
37.4967685
38.3101819
29.5663193
24.8824513
)
;

boundaryField
{
    closed
    {
        type            calculated;
        value           nonuniform List<scalar> 0();
    }
    open
    {
        type            calculated;
        value           nonuniform List<scalar> 0();
    }
    sides
    {
        type            empty;
    }
    procBoundary1to0
    {
        type            processor;
        value           uniform 38.338068;
    }
    procBoundary1to2
    {
        type            processor;
        value           uniform 37.7933465;
    }
}


// ************************************************************************* //
