/*--------------------------------*- C++ -*----------------------------------*\
| =========                 |                                                 |
| \\      /  F ield         | OpenFOAM: The Open Source CFD Toolbox           |
|  \\    /   O peration     | Version:  2306                                  |
|   \\  /    A nd           | Website:  www.openfoam.com                      |
|    \\/     M anipulation  |                                                 |
\*---------------------------------------------------------------------------*/
FoamFile
{
    version     2.0;
    format      ascii;
    arch        "LSB;label=32;scalar=64";
    class       volScalarField;
    location    "0.00192";
    object      prefDZ_T;
}
// * * * * * * * * * * * * * * * * * * * * * * * * * * * * * * * * * * * * * //

dimensions      [1 -1 -1 -1 0 0 0];

internalField   nonuniform List<scalar> 
531
(
-1.22535837e-09
-1.22822859e-09
-1.19284101e-09
-1.18801057e-09
-1.19178364e-09
-1.22644645e-09
-1.22694969e-09
-1.19077324e-09
-1.18820784e-09
-1.18833989e-09
-1.19038352e-09
-1.2260999e-09
-1.22720988e-09
-1.19056951e-09
-1.18759136e-09
-1.19185779e-09
-1.22639403e-09
-1.22670372e-09
-1.19253743e-09
-1.18781491e-09
-1.19184667e-09
-1.22630904e-09
-1.22651903e-09
-1.19290341e-09
-1.18783406e-09
-1.19150959e-09
-1.22639899e-09
-1.22648977e-09
-1.19314203e-09
-1.18785057e-09
-1.19112611e-09
-1.22653635e-09
-1.22654737e-09
-1.19295744e-09
-1.18774121e-09
-1.19049602e-09
-1.22689681e-09
-1.22706808e-09
-1.18977722e-09
-1.1859032e-09
-1.18927102e-09
-1.22820466e-09
-1.22670866e-09
-1.22659717e-09
-1.22722672e-09
-1.19554978e-09
-1.18736372e-09
-1.18722372e-09
-1.18814456e-09
-1.22769692e-09
-1.2275803e-09
-1.18851374e-09
-1.18919315e-09
-1.22758475e-09
-1.2270274e-09
-1.18956761e-09
-1.18681067e-09
-1.18899847e-09
-1.22766809e-09
-1.227055e-09
-1.18960391e-09
-1.19009042e-09
-1.22701203e-09
-1.22650815e-09
-1.19306061e-09
-1.18795148e-09
-1.18965383e-09
-1.22774367e-09
-1.22668267e-09
-1.18939061e-09
-1.18932494e-09
-1.22812995e-09
-1.22572232e-09
-1.22777093e-09
-1.18992367e-09
-1.18742003e-09
-1.18915875e-09
-1.18818125e-09
-1.19113501e-09
-1.22692287e-09
-1.22639905e-09
-1.19250865e-09
-1.18747763e-09
-1.18996469e-09
-1.22765049e-09
-1.22615994e-09
-1.18895642e-09
-1.18886045e-09
-1.22762937e-09
-1.22544497e-09
-1.22673645e-09
-1.194707e-09
-1.18854848e-09
-1.18939375e-09
-1.18805409e-09
-1.1900308e-09
-1.226503e-09
-1.22621948e-09
-1.19270241e-09
-1.18712411e-09
-1.19046484e-09
-1.22686532e-09
-1.2262652e-09
-1.1892177e-09
-1.18666739e-09
-1.21130356e-09
-1.22740394e-09
-1.22604617e-09
-1.22701749e-09
-1.191108e-09
-1.18793643e-09
-1.18769104e-09
-1.19096958e-09
-1.22623745e-09
-1.22645129e-09
-1.19015206e-09
-1.18696676e-09
-1.19030427e-09
-1.2265726e-09
-1.22646702e-09
-1.1901392e-09
-1.18683074e-09
-1.2042395e-09
-1.22729947e-09
-1.19361423e-09
-1.1898984e-09
-1.2273663e-09
-1.22669399e-09
-1.21418548e-09
-1.1878709e-09
-1.18757518e-09
-1.20516082e-09
-1.22820876e-09
-1.22886266e-09
-1.18584578e-09
-1.18582349e-09
-1.22945454e-09
-1.22886564e-09
-1.20304983e-09
-1.18577805e-09
-1.18679336e-09
-1.22864162e-09
-1.22794767e-09
-1.18894315e-09
-1.18921495e-09
-1.22708207e-09
-1.22740737e-09
-1.20045936e-09
-1.18692419e-09
-1.18682224e-09
-1.22491694e-09
-1.22726228e-09
-1.19000313e-09
-1.18845586e-09
-1.2275135e-09
-1.22694729e-09
-1.18856452e-09
-1.18791692e-09
-1.2280872e-09
-1.22719126e-09
-1.1885989e-09
-1.18866937e-09
-1.22797229e-09
-1.22697486e-09
-1.20842362e-09
-1.18789138e-09
-1.1876336e-09
-1.21834061e-09
-1.22688714e-09
-1.19103495e-09
-1.18987055e-09
-1.23028182e-09
-1.22575864e-09
-1.22991058e-09
-1.19032646e-09
-1.18762711e-09
-1.18797138e-09
-1.18730466e-09
-1.2031589e-09
-1.22777759e-09
-1.19303289e-09
-1.18869691e-09
-1.22786673e-09
-1.22656644e-09
-1.20834672e-09
-1.18839199e-09
-1.18750585e-09
-1.20598385e-09
-1.2272357e-09
-1.19419811e-09
-1.18902335e-09
-1.22856797e-09
-1.22633453e-09
-1.21074422e-09
-1.18863667e-09
-1.18756407e-09
-1.20580624e-09
-1.22737975e-09
-1.19477556e-09
-1.18900481e-09
-1.22926568e-09
-1.2262695e-09
-1.21088088e-09
-1.1888098e-09
-1.18763562e-09
-1.2040436e-09
-1.22749932e-09
-1.19585044e-09
-1.18916913e-09
-1.23021793e-09
-1.22589389e-09
-1.21341276e-09
-1.18965691e-09
-1.18819446e-09
-1.19302695e-09
-1.2278957e-09
-1.22599619e-09
-1.19366263e-09
-1.18745583e-09
-1.19294356e-09
-1.22811435e-09
-1.22606989e-09
-1.19459941e-09
-1.1876652e-09
-1.18754118e-09
-1.19386146e-09
-1.22807849e-09
-1.22725435e-09
-1.19148274e-09
-1.18676688e-09
-1.19058604e-09
-1.2288503e-09
-1.22644014e-09
-1.19373045e-09
-1.18697605e-09
-1.1913952e-09
-1.22856278e-09
-1.22647368e-09
-1.19384643e-09
-1.18700208e-09
-1.19200455e-09
-1.22852997e-09
-1.22656682e-09
-1.19234976e-09
-1.18677907e-09
-1.20054562e-09
-1.22830432e-09
-1.19850922e-09
-1.18966334e-09
-1.23069483e-09
-1.22604485e-09
-1.21305895e-09
-1.18995207e-09
-1.18855232e-09
-1.19447283e-09
-1.22768712e-09
-1.22712945e-09
-1.19138029e-09
-1.18688768e-09
-1.19433907e-09
-1.22818581e-09
-1.22803854e-09
-1.18948676e-09
-1.18657675e-09
-1.19741865e-09
-1.23019537e-09
-1.22532974e-09
-1.22604958e-09
-1.18977901e-09
-1.18817261e-09
-1.18688845e-09
-1.19504455e-09
-1.22844575e-09
-1.19660175e-09
-1.18801798e-09
-1.22955634e-09
-1.22690957e-09
-1.19063386e-09
-1.18904591e-09
-1.22947758e-09
-1.22716946e-09
-1.20423882e-09
-1.18741314e-09
-1.18758791e-09
-1.22246847e-09
-1.22740809e-09
-1.21187167e-09
-1.18846958e-09
-1.18761443e-09
-1.2055226e-09
-1.22746782e-09
-1.19571278e-09
-1.18913353e-09
-1.22872242e-09
-1.22644476e-09
-1.19149582e-09
-1.18980293e-09
-1.22918923e-09
-1.22718791e-09
-1.20599167e-09
-1.1870031e-09
-1.18755417e-09
-1.23006468e-09
-1.22806771e-09
-1.20584681e-09
-1.18681391e-09
-1.18738383e-09
-1.23025209e-09
-1.22821313e-09
-1.20475658e-09
-1.1866264e-09
-1.18714327e-09
-1.23127195e-09
-1.22789226e-09
-1.21329799e-09
-1.18783899e-09
-1.18867814e-09
-1.23106089e-09
-1.19986742e-09
-1.18785451e-09
-1.23346464e-09
-1.22750128e-09
-1.23391655e-09
-1.18852412e-09
-1.18890807e-09
-1.23109962e-09
-1.20252891e-09
-1.1879981e-09
-1.22932218e-09
-1.22657086e-09
-1.20237131e-09
-1.1911345e-09
-1.18767192e-09
-1.18809395e-09
-1.22985391e-09
-1.20089073e-09
-1.18732507e-09
-1.22952107e-09
-1.22687891e-09
-1.18992484e-09
-1.18925581e-09
-1.23040768e-09
-1.22612258e-09
-1.22832692e-09
-1.20493036e-09
-1.19019845e-09
-1.18589309e-09
-1.18648868e-09
-1.23037931e-09
-1.20521164e-09
-1.18628453e-09
-1.22995473e-09
-1.22729226e-09
-1.18992677e-09
-1.18797025e-09
-1.22960157e-09
-1.22645999e-09
-1.19068917e-09
-1.18910111e-09
-1.22886977e-09
-1.2258562e-09
-1.20151364e-09
-1.19084288e-09
-1.18791125e-09
-1.18792542e-09
-1.22919625e-09
-1.20329165e-09
-1.18774105e-09
-1.22929159e-09
-1.22702784e-09
-1.19043482e-09
-1.18919207e-09
-1.2294286e-09
-1.22744674e-09
-1.20880461e-09
-1.18683745e-09
-1.18682394e-09
-1.22957821e-09
-1.22690553e-09
-1.19161029e-09
-1.18986111e-09
-1.22887066e-09
-1.22579232e-09
-1.20154223e-09
-1.19091517e-09
-1.18616515e-09
-1.1858784e-09
-1.23207451e-09
-1.22689382e-09
-1.23016048e-09
-1.20356618e-09
-1.18561144e-09
-1.18565481e-09
-1.22986746e-09
-1.22833978e-09
-1.20681515e-09
-1.18671768e-09
-1.18673324e-09
-1.22934144e-09
-1.22703333e-09
-1.19136066e-09
-1.18993171e-09
-1.22943174e-09
-1.22616032e-09
-1.20880886e-09
-1.19043482e-09
-1.18994412e-09
-1.1862307e-09
-1.18598382e-09
-1.22960756e-09
-1.22681679e-09
-1.19281647e-09
-1.18956932e-09
-1.22929672e-09
-1.22569701e-09
-1.19228419e-09
-1.18968493e-09
-1.2292641e-09
-1.22556503e-09
-1.20115859e-09
-1.19074591e-09
-1.18723785e-09
-1.18702536e-09
-1.22995074e-09
-1.2046353e-09
-1.18679896e-09
-1.2308655e-09
-1.22724921e-09
-1.19041173e-09
-1.18802706e-09
-1.23108424e-09
-1.22679864e-09
-1.19033564e-09
-1.18871683e-09
-1.2305468e-09
-1.22689878e-09
-1.2076266e-09
-1.18858318e-09
-1.18862468e-09
-1.20947409e-09
-1.2275851e-09
-1.22941079e-09
-1.18911594e-09
-1.18740383e-09
-1.21205914e-09
-1.22826528e-09
-1.22581582e-09
-1.18838878e-09
-1.18781788e-09
-1.21514411e-09
-1.22817461e-09
-1.2202989e-09
-1.18785328e-09
-1.18769117e-09
-1.22663867e-09
-1.22813424e-09
-1.21066879e-09
-1.18713585e-09
-1.18710442e-09
-1.23196592e-09
-1.22802879e-09
-1.20533681e-09
-1.18690054e-09
-1.18705059e-09
-1.23113399e-09
-1.22812152e-09
-1.20376826e-09
-1.18659894e-09
-1.18632211e-09
-1.2320092e-09
-1.22730128e-09
-1.19153299e-09
-1.18911397e-09
-1.23111666e-09
-1.22732522e-09
-1.20541393e-09
-1.18687425e-09
-1.18691589e-09
-1.23151208e-09
-1.22705004e-09
-1.22762183e-09
-1.20854553e-09
-1.19066002e-09
-1.18664108e-09
-1.18664668e-09
-1.23169653e-09
-1.2278296e-09
-1.20319696e-09
-1.18738364e-09
-1.18993735e-09
-1.22988611e-09
-1.20175456e-09
-1.18801829e-09
-1.23116053e-09
-1.22797313e-09
-1.20397017e-09
-1.18638404e-09
-1.18586057e-09
-1.23283659e-09
-1.22722108e-09
-1.19202103e-09
-1.19065831e-09
-1.23177858e-09
-1.20057296e-09
-1.18826622e-09
-1.23283573e-09
-1.22730024e-09
-1.2283076e-09
-1.21241683e-09
-1.19060021e-09
-1.18712295e-09
-1.18700584e-09
-1.23210796e-09
-1.22778625e-09
-1.20943509e-09
-1.18805257e-09
-1.18795586e-09
-1.23210164e-09
-1.22765272e-09
-1.20610713e-09
-1.18749189e-09
-1.18747588e-09
-1.2318726e-09
-1.22793679e-09
-1.20444573e-09
-1.18713316e-09
-1.18675491e-09
-1.23204648e-09
-1.22741944e-09
-1.19138348e-09
-1.18821608e-09
)
;

boundaryField
{
    closed
    {
        type            calculated;
        value           nonuniform List<scalar> 0();
    }
    open
    {
        type            calculated;
        value           nonuniform List<scalar> 0();
    }
    sides
    {
        type            empty;
    }
    procBoundary1to0
    {
        type            processor;
        value           uniform -1.22726954e-09;
    }
    procBoundary1to2
    {
        type            processor;
        value           uniform -1.23162996e-09;
    }
}


// ************************************************************************* //
