/*--------------------------------*- C++ -*----------------------------------*\
| =========                 |                                                 |
| \\      /  F ield         | OpenFOAM: The Open Source CFD Toolbox           |
|  \\    /   O peration     | Version:  2306                                  |
|   \\  /    A nd           | Website:  www.openfoam.com                      |
|    \\/     M anipulation  |                                                 |
\*---------------------------------------------------------------------------*/
FoamFile
{
    version     2.0;
    format      ascii;
    arch        "LSB;label=32;scalar=64";
    class       volScalarField;
    location    "0.00192";
    object      T;
}
// * * * * * * * * * * * * * * * * * * * * * * * * * * * * * * * * * * * * * //

dimensions      [0 0 0 1 0 0 0];

internalField   nonuniform List<scalar> 
531
(
340.527929
339.912293
328.77696
324.046979
328.823056
340.109303
340.400589
329.190083
324.924249
325.353404
328.556241
340.511477
340.238123
328.877387
323.70428
328.916641
340.312414
340.388538
328.879338
324.314695
328.947478
340.381711
340.426516
328.816652
324.354569
328.929075
340.34499
340.428261
328.811831
324.363384
328.945754
340.262345
340.408351
328.879752
324.138636
328.919356
340.186449
340.316572
328.151691
320.829174
327.157742
339.985034
340.237981
340.2013
340.235764
329.080766
323.496529
323.485985
324.804715
340.113607
340.419359
326.010036
326.321806
340.046121
340.19912
327.742871
322.331845
326.525884
339.916474
340.545864
327.791354
327.93217
340.142538
340.167875
328.724202
324.101696
327.804885
339.711773
340.649298
326.930848
326.936621
339.866442
340.182892
340.21268
328.287645
323.101585
326.866228
324.526244
329.031435
340.01614
340.302744
328.807857
323.562915
328.464149
339.871327
340.790167
326.350468
326.409823
340.028297
340.283463
340.268493
328.905217
325.174868
327.32989
324.568637
328.283662
340.268042
340.429236
328.790812
323.370376
328.866854
340.27984
340.479512
327.053515
322.592204
331.041121
340.021698
340.238325
340.20376
329.007409
324.438455
324.483971
329.229153
340.521201
340.241608
328.796133
322.906336
328.835381
340.352604
340.413699
328.454985
322.817517
329.73732
340.032166
328.999923
327.539933
340.310147
339.842914
331.792129
324.347691
323.178539
329.932304
339.330187
340.046147
320.137598
320.188807
340.215709
339.03181
329.718497
319.873276
322.552932
340.083133
339.717804
325.824219
326.255144
340.332554
339.671015
329.266354
322.09984
323.047566
334.877194
340.138108
327.204091
325.421554
340.244268
340.124401
325.237149
324.581981
340.271862
340.023356
325.260742
325.559733
340.351152
339.800412
330.499482
323.92732
323.965363
332.907676
340.007592
328.387867
327.49395
339.71738
339.990864
339.598734
328.746442
322.480092
325.024636
322.512809
329.507477
339.732758
328.810602
325.471297
340.509905
340.048025
330.43951
325.53023
323.857954
329.97479
339.975799
328.91437
326.210257
340.154673
340.110215
330.962492
326.041363
323.887735
329.918414
339.901451
328.901021
326.222741
339.943445
340.152726
330.994846
326.411099
324.037084
329.623647
339.876545
328.980115
326.606705
339.63438
340.271866
331.6143
328.11397
324.584727
328.67885
339.724315
340.569584
328.857458
323.725188
328.730841
339.598625
340.639894
329.108098
324.307442
323.815858
329.117565
339.812075
340.41233
328.641551
321.924898
328.856092
339.477089
340.480522
328.91779
322.701235
328.859312
339.684163
340.470641
328.884079
322.667416
328.783523
339.69901
340.592151
328.860921
322.411832
329.16448
339.627556
329.209654
327.104773
339.748449
340.135571
331.560679
328.288449
324.867736
328.890108
339.898192
340.42489
328.888376
322.164987
328.964247
339.834592
340.284526
327.871235
320.988527
328.668527
338.819608
340.625743
335.203945
328.144564
324.327979
322.898782
329.006022
340.049889
329.058786
324.642084
340.539544
340.071931
328.350452
326.082072
340.232825
339.722754
329.965979
323.059353
323.53044
334.132653
339.7944
331.283984
325.393607
323.61914
329.922692
339.994958
329.163525
326.39706
340.42587
340.065838
329.642304
327.2479
340.13268
339.612931
330.242995
322.111642
323.14353
340.095569
339.369263
330.226743
321.564422
322.833691
340.009787
339.335963
330.066803
321.082994
322.560831
339.689786
339.411617
331.64711
323.184622
324.984133
339.603256
329.677029
323.325885
338.903824
339.33259
338.026933
324.609713
324.63896
339.635748
329.749895
323.945408
340.395105
339.816665
329.708592
329.406742
323.225942
324.435093
339.986294
329.525366
323.112603
340.285033
340.00521
327.057516
326.568206
340.077804
339.954526
339.366615
330.0363
327.295628
320.348084
321.485878
340.055326
330.061832
321.425637
340.266081
340.010333
326.86819
324.683613
340.152973
340.292267
328.20156
326.667986
340.360781
340.200285
329.688006
329.161874
323.660848
324.220537
339.990616
329.771725
323.911001
340.4175
339.904191
327.990808
326.087909
340.238454
339.523064
330.662166
321.841153
322.390797
340.128973
340.007303
329.650217
327.62878
340.107369
340.095894
329.869825
329.253204
320.129745
320.934447
339.502381
339.806362
338.715058
329.88378
319.187735
319.981862
339.991732
339.365992
330.357871
321.58088
321.978466
340.080157
339.868053
329.55077
327.453207
340.116404
339.856287
330.667956
328.114053
327.287052
321.031649
321.104343
339.984941
340.140934
329.574557
327.454242
339.955788
340.441044
329.518646
327.808774
340.048197
340.321432
329.652472
329.083128
322.631413
322.677895
339.83798
329.935426
322.434583
339.83588
340.012582
327.927446
324.622809
339.631529
340.115548
327.89908
325.583675
339.700922
339.845292
330.470461
325.288292
325.056193
330.683965
339.507395
339.820797
326.53272
322.199067
331.232398
339.143788
335.131824
324.812488
323.205396
332.007931
339.235987
333.459022
323.464114
323.165413
335.484069
339.274564
331.094721
322.254385
322.207087
339.370799
339.469558
330.164943
322.165931
322.24159
339.415053
339.431411
329.824772
321.130198
321.43804
339.45432
339.911344
329.686979
325.990505
339.311915
339.699217
330.115968
322.164196
322.187762
339.442059
339.67042
339.659618
330.644313
328.312745
321.807125
321.808985
339.368335
339.696872
329.70963
322.923616
327.496413
339.41316
329.507768
324.01474
339.587749
339.539378
329.827418
320.690815
320.873055
337.605672
339.900522
330.012609
328.618649
338.955623
329.478614
324.110583
339.212363
339.453265
339.456531
331.469168
328.167935
322.110495
322.13532
339.050843
339.438685
330.840932
323.797024
323.799197
339.014025
339.5064
330.293115
322.987911
322.98347
339.22316
339.447009
329.975573
322.147878
322.233114
339.133117
339.895576
329.5698
324.593539
)
;

boundaryField
{
    closed
    {
        type            fixedValue;
        value           nonuniform List<scalar> 0();
    }
    open
    {
        type            zeroGradient;
    }
    sides
    {
        type            empty;
    }
    procBoundary1to0
    {
        type            processor;
        value           uniform 339.921865;
    }
    procBoundary1to2
    {
        type            processor;
        value           uniform 339.43094;
    }
}


// ************************************************************************* //
