/*--------------------------------*- C++ -*----------------------------------*\
| =========                 |                                                 |
| \\      /  F ield         | OpenFOAM: The Open Source CFD Toolbox           |
|  \\    /   O peration     | Version:  2306                                  |
|   \\  /    A nd           | Website:  www.openfoam.com                      |
|    \\/     M anipulation  |                                                 |
\*---------------------------------------------------------------------------*/
FoamFile
{
    version     2.0;
    format      ascii;
    arch        "LSB;label=32;scalar=64";
    class       volVectorField;
    location    "0.00126";
    object      U;
}
// * * * * * * * * * * * * * * * * * * * * * * * * * * * * * * * * * * * * * //

dimensions      [0 1 -1 0 0 0 0];

internalField   nonuniform List<vector> 
530
(
(2.99825431 0 0)
(3.00479081 0 0)
(3.0109408 0 0)
(3.01669246 0 0)
(3.02204081 0 0)
(3.02698158 0 0)
(3.03151631 0 0)
(3.03564817 0 0)
(3.03938296 0 0)
(3.04271989 0 0)
(3.04566042 0 0)
(3.0482059 0 0)
(3.05037811 0 0)
(3.05221452 0 0)
(3.05373705 0 0)
(3.05496236 0 0)
(3.05590866 0 0)
(3.05659471 0 0)
(3.05703926 0 0)
(3.0572647 0 0)
(3.0573014 0 0)
(3.05716252 0 0)
(3.05685953 0 0)
(3.05641458 0 0)
(3.05583575 0 0)
(3.05513903 0 0)
(3.05433411 0 0)
(3.05341817 0 0)
(3.05239268 0 0)
(3.05128163 0 0)
(3.05010134 0 0)
(3.0488603 0 0)
(3.0475629 0 0)
(3.04621396 0 0)
(3.04481514 0 0)
(3.04336935 0 0)
(3.0418757 0 0)
(3.04033499 0 0)
(3.03874424 0 0)
(3.03710255 0 0)
(3.0354053 0 0)
(3.0336503 0 0)
(3.03183168 0 0)
(3.02994644 0 0)
(3.02798784 0 0)
(3.02595245 0 0)
(3.02383307 0 0)
(3.02162621 0 0)
(3.01932454 0 0)
(3.01692477 0 0)
(3.01441979 0 0)
(3.01180712 0 0)
(3.00908067 0 0)
(3.00623687 0 0)
(3.00325953 0 0)
(3.00014176 0 0)
(2.99688232 0 0)
(2.99348674 0 0)
(2.98995424 0 0)
(2.98628633 0 0)
(2.98247776 0 0)
(2.97853022 0 0)
(2.97443959 0 0)
(2.97020848 0 0)
(2.96583323 0 0)
(2.96131716 0 0)
(2.95665685 0 0)
(2.95185619 0 0)
(2.94691188 0 0)
(2.94182826 0 0)
(2.936602 0 0)
(2.93123792 0 0)
(2.92573255 0 0)
(2.9200913 0 0)
(2.91431064 0 0)
(2.90839688 0 0)
(2.90234666 0 0)
(2.8961679 0 0)
(2.88985758 0 0)
(2.88342208 0 0)
(2.87684326 0 0)
(2.87010463 0 0)
(2.8631624 0 0)
(2.85610627 0 0)
(2.84900907 0 0)
(2.84177032 0 0)
(2.83434196 0 0)
(2.82676339 0 0)
(2.81904314 0 0)
(2.81117997 0 0)
(2.80317062 0 0)
(2.79501121 0 0)
(2.78669875 0 0)
(2.77822841 0 0)
(2.76959855 0 0)
(2.76080388 0 0)
(2.75184427 0 0)
(2.74271398 0 0)
(2.73341464 0 0)
(2.72394066 0 0)
(2.71429429 0 0)
(2.7044632 0 0)
(2.69444856 0 0)
(2.68424925 0 0)
(2.673876 0 0)
(2.66332349 0 0)
(2.65260157 0 0)
(2.641708 0 0)
(2.63065236 0 0)
(2.61943371 0 0)
(2.6080647 0 0)
(2.59654588 0 0)
(2.58489268 0 0)
(2.57310714 0 0)
(2.56120735 0 0)
(2.54919681 0 0)
(2.53709593 0 0)
(2.52490957 0 0)
(2.5126601 0 0)
(2.50035347 0 0)
(2.48801355 0 0)
(2.47564718 0 0)
(2.46327918 0 0)
(2.45091694 0 0)
(2.43858573 0 0)
(2.42629311 0 0)
(2.41406427 0 0)
(2.40190653 0 0)
(2.3898445 0 0)
(2.37788485 0 0)
(2.36605112 0 0)
(2.35434899 0 0)
(2.34280046 0 0)
(2.3314099 0 0)
(2.32019743 0 0)
(2.30916585 0 0)
(2.29833313 0 0)
(2.28770033 0 0)
(2.27728307 0 0)
(2.26708058 0 0)
(2.25710605 0 0)
(2.24735687 0 0)
(2.2378438 0 0)
(2.22856247 0 0)
(2.21952127 0 0)
(2.21071419 0 0)
(2.20214742 0 0)
(2.19381349 0 0)
(2.18571661 0 0)
(2.17784804 0 0)
(2.17021025 0 0)
(2.16279347 0 0)
(2.15559868 0 0)
(2.14861536 0 0)
(2.14184324 0 0)
(2.13527124 0 0)
(2.12889815 0 0)
(2.12271256 0 0)
(2.11671257 0 0)
(2.11088668 0 0)
(2.10523252 0 0)
(2.09973877 0 0)
(2.09440286 0 0)
(2.08921384 0 0)
(2.08416915 0 0)
(2.07925837 0 0)
(2.07447895 0 0)
(2.06982103 0 0)
(2.06528196 0 0)
(2.0608525 0 0)
(2.05653016 0 0)
(2.05230795 0 0)
(2.04818506 0 0)
(2.04414583 0 0)
(2.04011459 0 0)
(2.03629017 0 0)
(2.03257508 0 0)
(2.0287969 0 0)
(2.02513593 0 0)
(2.0215472 0 0)
(2.01802205 0 0)
(2.01455604 0 0)
(2.01114901 0 0)
(2.0077969 0 0)
(2.00449883 0 0)
(2.00125109 0 0)
(1.99805293 0 0)
(1.99490126 0 0)
(1.99179558 0 0)
(1.98873328 0 0)
(1.98571409 0 0)
(1.98273575 0 0)
(1.97979819 0 0)
(1.97689948 0 0)
(1.97403968 0 0)
(1.97121714 0 0)
(1.96843201 0 0)
(1.96568292 0 0)
(1.96297001 0 0)
(1.96029215 0 0)
(1.95764949 0 0)
(1.95504109 0 0)
(1.9524671 0 0)
(1.94992675 0 0)
(1.94742024 0 0)
(1.94494699 0 0)
(1.94250726 0 0)
(1.94010019 0 0)
(1.93772462 0 0)
(1.93537951 0 0)
(1.93306637 0 0)
(1.93078587 0 0)
(1.92853755 0 0)
(1.92631832 0 0)
(1.92413142 0 0)
(1.92197968 0 0)
(1.9198609 0 0)
(1.91777464 0 0)
(1.9157213 0 0)
(1.9137009 0 0)
(1.91171372 0 0)
(1.90975976 0 0)
(1.9078393 0 0)
(1.90595239 0 0)
(1.90409934 0 0)
(1.9022802 0 0)
(1.9004953 0 0)
(1.89874475 0 0)
(1.89702885 0 0)
(1.89534775 0 0)
(1.89370176 0 0)
(1.89209102 0 0)
(1.89051586 0 0)
(1.88897644 0 0)
(1.88747305 0 0)
(1.88600587 0 0)
(1.88457518 0 0)
(1.88318116 0 0)
(1.88182406 0 0)
(1.88050404 0 0)
(1.87922135 0 0)
(1.87797612 0 0)
(1.87676856 0 0)
(1.87559877 0 0)
(1.87446692 0 0)
(1.87337309 0 0)
(1.87231739 0 0)
(1.87129986 0 0)
(1.87032054 0 0)
(1.86937936 0 0)
(1.8684761 0 0)
(1.86761115 0 0)
(1.86678443 0 0)
(1.86599537 0 0)
(1.86524394 0 0)
(1.86452999 0 0)
(1.86385325 0 0)
(1.86321343 0 0)
(1.86261018 0 0)
(1.86204309 0 0)
(1.86151174 0 0)
(1.86101565 0 0)
(1.86055427 0 0)
(1.86012703 0 0)
(1.85973332 0 0)
(1.85937245 0 0)
(1.85904371 0 0)
(1.85874634 0 0)
(1.85847954 0 0)
(1.85824246 0 0)
(1.85803422 0 0)
(1.85785388 0 0)
(1.85770047 0 0)
(1.857573 0 0)
(1.85747043 0 0)
(1.85739168 0 0)
(1.85733564 0 0)
(1.85730119 0 0)
(1.85728716 0 0)
(1.85729237 0 0)
(1.8573156 0 0)
(1.85735561 0 0)
(1.85741117 0 0)
(1.857481 0 0)
(1.85756381 0 0)
(1.85765834 0 0)
(1.85776328 0 0)
(1.85787723 0 0)
(1.85799849 0 0)
(1.85812586 0 0)
(1.85826254 0 0)
(1.85840514 0 0)
(1.85854742 0 0)
(1.85869014 0 0)
(1.85883287 0 0)
(1.85897436 0 0)
(1.85911326 0 0)
(1.85924831 0 0)
(1.85937827 0 0)
(1.85950196 0 0)
(1.85961819 0 0)
(1.85972581 0 0)
(1.8598237 0 0)
(1.85991077 0 0)
(1.85998595 0 0)
(1.86004822 0 0)
(1.86009659 0 0)
(1.86013011 0 0)
(1.86014788 0 0)
(1.86014901 0 0)
(1.86013268 0 0)
(1.86009811 0 0)
(1.86004457 0 0)
(1.85997137 0 0)
(1.85987787 0 0)
(1.85976347 0 0)
(1.85962765 0 0)
(1.8594699 0 0)
(1.85928981 0 0)
(1.85908699 0 0)
(1.85886111 0 0)
(1.8586119 0 0)
(1.85833914 0 0)
(1.85804269 0 0)
(1.85772242 0 0)
(1.85737829 0 0)
(1.85701032 0 0)
(1.85661855 0 0)
(1.85620312 0 0)
(1.85576418 0 0)
(1.85530197 0 0)
(1.85481677 0 0)
(1.8543089 0 0)
(1.85377876 0 0)
(1.85322678 0 0)
(1.85265345 0 0)
(1.85205929 0 0)
(1.85144491 0 0)
(1.85081091 0 0)
(1.85015799 0 0)
(1.84948685 0 0)
(1.84879827 0 0)
(1.84809303 0 0)
(1.84737201 0 0)
(1.84663606 0 0)
(1.84588612 0 0)
(1.84512314 0 0)
(1.84434813 0 0)
(1.84356201 0 0)
(1.84276556 0 0)
(1.84196029 0 0)
(1.84114761 0 0)
(1.84032825 0 0)
(1.83950327 0 0)
(1.83867387 0 0)
(1.83784124 0 0)
(1.83700658 0 0)
(1.83617109 0 0)
(1.835336 0 0)
(1.83450253 0 0)
(1.83367191 0 0)
(1.83284536 0 0)
(1.83202412 0 0)
(1.8312094 0 0)
(1.83040242 0 0)
(1.82960439 0 0)
(1.82881648 0 0)
(1.82803989 0 0)
(1.82727577 0 0)
(1.82652525 0 0)
(1.82578945 0 0)
(1.82506946 0 0)
(1.82436634 0 0)
(1.82368111 0 0)
(1.82301477 0 0)
(1.82236827 0 0)
(1.82174254 0 0)
(1.82113846 0 0)
(1.82055685 0 0)
(1.81999851 0 0)
(1.81946417 0 0)
(1.81895454 0 0)
(1.81847025 0 0)
(1.81801188 0 0)
(1.81757998 0 0)
(1.817175 0 0)
(1.81679739 0 0)
(1.81644748 0 0)
(1.81612559 0 0)
(1.81583195 0 0)
(1.81556673 0 0)
(1.81533007 0 0)
(1.81512208 0 0)
(1.81494272 0 0)
(1.81479131 0 0)
(1.81466644 0 0)
(1.81457204 0 0)
(1.81450953 0 0)
(1.81447484 0 0)
(1.81446708 0 0)
(1.81448601 0 0)
(1.81453128 0 0)
(1.81460235 0 0)
(1.81469862 0 0)
(1.81481944 0 0)
(1.81496411 0 0)
(1.81513189 0 0)
(1.81532199 0 0)
(1.81553359 0 0)
(1.81576582 0 0)
(1.81601776 0 0)
(1.8162885 0 0)
(1.81657704 0 0)
(1.81688241 0 0)
(1.81720358 0 0)
(1.8175395 0 0)
(1.81788913 0 0)
(1.81825138 0 0)
(1.81862519 0 0)
(1.81900945 0 0)
(1.81940308 0 0)
(1.81980499 0 0)
(1.82021409 0 0)
(1.82062931 0 0)
(1.82104958 0 0)
(1.82147386 0 0)
(1.82190111 0 0)
(1.82233034 0 0)
(1.82276056 0 0)
(1.82319082 0 0)
(1.82362021 0 0)
(1.82404786 0 0)
(1.82447293 0 0)
(1.82489463 0 0)
(1.8253122 0 0)
(1.82572496 0 0)
(1.82613226 0 0)
(1.8265335 0 0)
(1.82692815 0 0)
(1.82731573 0 0)
(1.82769582 0 0)
(1.82806808 0 0)
(1.82843221 0 0)
(1.82878798 0 0)
(1.82913524 0 0)
(1.8294739 0 0)
(1.82980395 0 0)
(1.83012542 0 0)
(1.83043846 0 0)
(1.83074326 0 0)
(1.83104009 0 0)
(1.83132923 0 0)
(1.83161119 0 0)
(1.83189587 0 0)
(1.83219317 0 0)
(1.83250409 0 0)
(1.83282984 0 0)
(1.83317226 0 0)
(1.83353413 0 0)
(1.83391952 0 0)
(1.83433423 0 0)
(1.83478646 0 0)
(1.83528764 0 0)
(1.83585344 0 0)
(1.83650513 0 0)
(1.83727109 0 0)
(1.83818871 0 0)
(1.8393065 0 0)
(1.84068633 0 0)
(1.84240567 0 0)
(1.84455918 0 0)
(1.84725869 0 0)
(1.8506318 0 0)
(1.85481951 0 0)
(1.85996756 0 0)
(1.8662007 0 0)
(1.87359455 0 0)
(1.8821822 0 0)
(1.89193228 0 0)
(1.90268857 0 0)
(1.91420125 0 0)
(1.92599063 0 0)
(1.93769296 0 0)
(1.94895839 0 0)
(1.95896775 0 0)
(1.96772692 0 0)
(1.97484816 0 0)
(1.97930885 0 0)
(1.98121362 0 0)
(1.97917695 0 0)
(1.973293 0 0)
(1.96278647 0 0)
(1.94757919 0 0)
(1.92625743 0 0)
(1.89530424 0 0)
(1.84827115 0 0)
(1.7793981 0 0)
(1.69351292 0 0)
(1.60703223 0 0)
(1.53555452 0 0)
(1.46819131 0 0)
(1.36905057 0 0)
(1.24361125 0 0)
(1.15623146 0 0)
(1.14034901 0 0)
(1.20779869 0 0)
(1.25000861 0 0)
(1.2507809 0 0)
(1.6837645 0 0)
(2.12789194 0 0)
(1.27721457 0 0)
(0.423753878 0 0)
(1.88675121 0 0)
(4.6460574 0 0)
(5.43379074 0 0)
(3.42850381 0 0)
(1.1083801 0 0)
(0.349449908 0 0)
(0.700299011 0 0)
(1.23628287 0 0)
(1.56582087 0 0)
(1.7707156 0 0)
(1.84992437 0 0)
(1.7330133 0 0)
(1.51443357 0 0)
(1.40294239 0 0)
(1.43878433 0 0)
(1.61840801 0 0)
(1.86503364 0 0)
(1.94226978 0 0)
)
;

boundaryField
{
    closed
    {
        type            noSlip;
    }
    open
    {
        type            inletOutlet;
        inletValue      uniform (0 0 0);
        value           uniform (1.94226978 0 0);
    }
    sides
    {
        type            empty;
    }
    procBoundary5to4
    {
        type            processor;
        value           uniform (2.99134637 0 0);
    }
}


// ************************************************************************* //
