/*--------------------------------*- C++ -*----------------------------------*\
| =========                 |                                                 |
| \\      /  F ield         | OpenFOAM: The Open Source CFD Toolbox           |
|  \\    /   O peration     | Version:  2306                                  |
|   \\  /    A nd           | Website:  www.openfoam.com                      |
|    \\/     M anipulation  |                                                 |
\*---------------------------------------------------------------------------*/
FoamFile
{
    version     2.0;
    format      ascii;
    arch        "LSB;label=32;scalar=64";
    class       volScalarField;
    location    "0.00068";
    object      alpha;
}
// * * * * * * * * * * * * * * * * * * * * * * * * * * * * * * * * * * * * * //

dimensions      [1 -1 -1 0 0 0 0];

internalField   nonuniform List<scalar> 
530
(
3.65314473e-05
3.59364064e-05
3.58352036e-05
3.58339986e-05
3.58338896e-05
3.58338871e-05
3.5833887e-05
3.5833887e-05
3.5833887e-05
3.5833887e-05
3.5833887e-05
3.5833887e-05
3.5833887e-05
3.5833887e-05
3.5833887e-05
3.5833887e-05
3.5833887e-05
3.5833887e-05
3.5833887e-05
3.5833887e-05
3.5833887e-05
3.5833887e-05
3.5833887e-05
3.5833887e-05
3.5833887e-05
3.5833887e-05
3.5833887e-05
3.5833887e-05
3.5833887e-05
3.5833887e-05
3.5833887e-05
3.5833887e-05
3.5833887e-05
3.5833887e-05
3.5833887e-05
3.5833887e-05
3.5833887e-05
3.5833887e-05
3.5833887e-05
3.5833887e-05
3.5833887e-05
3.5833887e-05
3.5833887e-05
3.5833887e-05
3.5833887e-05
3.5833887e-05
3.5833887e-05
3.5833887e-05
3.5833887e-05
3.5833887e-05
3.5833887e-05
3.5833887e-05
3.5833887e-05
3.5833887e-05
3.5833887e-05
3.5833887e-05
3.5833887e-05
3.5833887e-05
3.5833887e-05
3.5833887e-05
3.5833887e-05
3.5833887e-05
3.5833887e-05
3.5833887e-05
3.5833887e-05
3.5833887e-05
3.5833887e-05
3.5833887e-05
3.5833887e-05
3.5833887e-05
3.5833887e-05
3.5833887e-05
3.5833887e-05
3.5833887e-05
3.58338871e-05
3.58338873e-05
3.58338875e-05
3.5833889e-05
3.58338912e-05
3.58338926e-05
3.5833902e-05
3.58339247e-05
3.58339548e-05
3.58339672e-05
3.58340329e-05
3.58341724e-05
3.58344468e-05
3.58348091e-05
3.58356124e-05
3.58365026e-05
3.58351506e-05
3.58283218e-05
3.58302389e-05
3.58678002e-05
3.58963424e-05
3.58769039e-05
3.57188124e-05
3.57181517e-05
3.57598978e-05
3.68829655e-05
3.68442457e-05
3.58076223e-05
3.54097237e-05
3.53870182e-05
3.52978172e-05
3.580143e-05
3.67907525e-05
3.68438842e-05
3.67927888e-05
3.55065597e-05
3.51787856e-05
3.53702102e-05
3.58500458e-05
3.6801503e-05
3.68354897e-05
3.67986334e-05
3.55179115e-05
3.52273332e-05
3.5381698e-05
3.57782966e-05
3.6855513e-05
3.68147992e-05
3.55509625e-05
3.57853106e-05
3.68548377e-05
3.67886513e-05
3.52243684e-05
3.49454536e-05
3.57551153e-05
3.68138509e-05
3.68213482e-05
3.53773256e-05
3.56846768e-05
3.68468989e-05
3.67820231e-05
3.53490414e-05
3.56952602e-05
3.68457301e-05
3.67616563e-05
3.53332942e-05
3.57337096e-05
3.6842645e-05
3.66216177e-05
3.53223388e-05
3.57011643e-05
3.6845014e-05
3.67965945e-05
3.53511994e-05
3.56504448e-05
3.68458837e-05
3.6800933e-05
3.54247885e-05
3.57249564e-05
3.68425345e-05
3.67722147e-05
3.52140597e-05
3.48930603e-05
3.57495133e-05
3.6805318e-05
3.68337098e-05
3.54227994e-05
3.57067179e-05
3.6835552e-05
3.67579133e-05
3.52270088e-05
3.4862244e-05
3.57498925e-05
3.67977025e-05
3.68474578e-05
3.53375122e-05
3.5630401e-05
3.68225959e-05
3.66940588e-05
3.53222248e-05
3.56450273e-05
3.68196508e-05
3.67963683e-05
3.53440936e-05
3.55644563e-05
3.68139108e-05
3.68347491e-05
3.53790673e-05
3.55196366e-05
3.6795407e-05
3.68412838e-05
3.54931158e-05
3.55599896e-05
3.67480463e-05
3.68241898e-05
3.55127559e-05
3.48706915e-05
3.5575165e-05
3.67110149e-05
3.68489667e-05
3.5656587e-05
3.55040584e-05
3.64090132e-05
3.6820688e-05
3.56855353e-05
3.55973491e-05
3.62259724e-05
3.67919128e-05
3.57627455e-05
3.51172805e-05
3.51517786e-05
3.628267e-05
3.68021247e-05
3.58408659e-05
3.56537261e-05
3.59126723e-05
3.67328584e-05
3.59786884e-05
3.52613855e-05
3.5118522e-05
3.59172556e-05
3.67385419e-05
3.5965896e-05
3.56683956e-05
3.57943087e-05
3.66547337e-05
3.60148087e-05
3.56976851e-05
3.57679049e-05
3.66439473e-05
3.6119256e-05
3.57330793e-05
3.57555365e-05
3.66183612e-05
3.61765904e-05
3.57352392e-05
3.57383125e-05
3.66118654e-05
3.63935487e-05
3.5548983e-05
3.51098554e-05
3.57168734e-05
3.66205018e-05
3.61961276e-05
3.57047137e-05
3.5726717e-05
3.65907821e-05
3.63036546e-05
3.57316148e-05
3.57290203e-05
3.66169048e-05
3.63797154e-05
3.5740752e-05
3.57364779e-05
3.66425592e-05
3.65182594e-05
3.56279838e-05
3.50995749e-05
3.56997906e-05
3.67024199e-05
3.64974538e-05
3.57337434e-05
3.57242209e-05
3.66949477e-05
3.65057087e-05
3.57502369e-05
3.57454912e-05
3.67373162e-05
3.66171819e-05
3.56850695e-05
3.51969282e-05
3.57202424e-05
3.6759134e-05
3.6651772e-05
3.57634145e-05
3.57791577e-05
3.6771935e-05
3.67030824e-05
3.57254496e-05
3.55098618e-05
3.54603563e-05
3.53453575e-05
3.57527139e-05
3.67912551e-05
3.67231088e-05
3.5680872e-05
3.51712639e-05
3.57182573e-05
3.67941793e-05
3.66992111e-05
3.57440375e-05
3.57603943e-05
3.68132505e-05
3.6714195e-05
3.57550701e-05
3.57922071e-05
3.68182371e-05
3.67436692e-05
3.57117357e-05
3.54505901e-05
3.54881346e-05
3.53758443e-05
3.52447566e-05
3.57123545e-05
3.67566786e-05
3.6871975e-05
3.6407072e-05
3.57147629e-05
3.57615746e-05
3.68359213e-05
3.66236329e-05
3.57423008e-05
3.57736049e-05
3.68401003e-05
3.66566998e-05
3.55754736e-05
3.51358144e-05
3.57474329e-05
3.68291595e-05
3.66502147e-05
3.55210498e-05
3.506295e-05
3.57300382e-05
3.68249047e-05
3.65657696e-05
3.57072173e-05
3.57687796e-05
3.68478587e-05
3.66508181e-05
3.55725291e-05
3.51954253e-05
3.57892501e-05
3.68271017e-05
3.66852951e-05
3.55951015e-05
3.52344398e-05
3.58023359e-05
3.6823561e-05
3.6725599e-05
3.56368662e-05
3.53070675e-05
3.58407665e-05
3.68195404e-05
3.67689275e-05
3.5725906e-05
3.53911337e-05
3.54058567e-05
3.57972568e-05
3.68354852e-05
3.67222587e-05
3.55422154e-05
3.51850707e-05
3.57987424e-05
3.68258691e-05
3.67071482e-05
3.54704293e-05
3.51005768e-05
3.57743925e-05
3.68247336e-05
3.63705761e-05
3.56129847e-05
3.57650665e-05
3.6848603e-05
3.635062e-05
3.56723198e-05
3.57858774e-05
3.68469625e-05
3.66654885e-05
3.54310304e-05
3.5130077e-05
3.58021794e-05
3.68257055e-05
3.66292914e-05
3.53592106e-05
3.50769915e-05
3.58094199e-05
3.68232337e-05
3.61816316e-05
3.55945965e-05
3.57864632e-05
3.68466417e-05
3.66768677e-05
3.5352789e-05
3.51044084e-05
3.58631621e-05
3.68190626e-05
3.60797141e-05
3.56091042e-05
3.58050439e-05
3.68406251e-05
3.6750061e-05
3.5384332e-05
3.51435801e-05
3.58356832e-05
3.6816329e-05
3.67030083e-05
3.53419498e-05
3.51236191e-05
3.58276898e-05
3.68199422e-05
3.66035331e-05
3.52469372e-05
3.50736217e-05
3.5921299e-05
3.68117496e-05
3.58535873e-05
3.55141595e-05
3.59790205e-05
3.68267059e-05
3.58633381e-05
3.55700094e-05
3.58637353e-05
3.68412941e-05
3.64274684e-05
3.52093083e-05
3.50904362e-05
3.59384788e-05
3.68146763e-05
3.57947666e-05
3.54653157e-05
3.6042779e-05
3.68240692e-05
3.58213885e-05
3.55372576e-05
3.58558749e-05
3.68400398e-05
3.65265216e-05
3.52335507e-05
3.50906126e-05
3.59459484e-05
3.68111917e-05
3.58386022e-05
3.54845986e-05
3.58181735e-05
3.68361384e-05
3.67667443e-05
3.52641715e-05
3.50359534e-05
3.5916547e-05
3.68070436e-05
3.58639011e-05
3.54652505e-05
3.57922953e-05
3.68413221e-05
3.68156729e-05
3.52792072e-05
3.49635747e-05
3.58516441e-05
3.68097094e-05
3.58750738e-05
3.53775642e-05
3.58729782e-05
3.68289604e-05
3.59092691e-05
3.54372643e-05
3.58595448e-05
3.6835498e-05
3.59892657e-05
3.54479632e-05
3.57436448e-05
3.68597148e-05
3.68498772e-05
3.53803399e-05
3.49847189e-05
3.57712386e-05
3.68179159e-05
3.62152082e-05
3.54247545e-05
3.5736121e-05
3.68534305e-05
3.68454688e-05
3.5506943e-05
3.50810672e-05
3.57241654e-05
3.68479698e-05
3.6845863e-05
3.55028422e-05
3.50562578e-05
3.57549971e-05
3.68265174e-05
3.67940628e-05
3.54843721e-05
3.57189931e-05
3.68688048e-05
3.68254138e-05
3.56077966e-05
3.50858521e-05
3.57308311e-05
3.68313172e-05
3.68392461e-05
3.55223362e-05
3.56811903e-05
3.68675633e-05
3.68130314e-05
3.56964571e-05
3.51402575e-05
3.572065e-05
3.6848773e-05
3.68160072e-05
3.55245029e-05
3.47664475e-05
3.5466437e-05
3.68370631e-05
3.68214904e-05
3.6807246e-05
3.681308e-05
3.57516189e-05
3.54300943e-05
3.55378955e-05
3.55090605e-05
3.53082551e-05
3.57010469e-05
3.68560432e-05
3.68321963e-05
3.57323642e-05
3.57183902e-05
3.68625948e-05
3.68184466e-05
3.57171258e-05
3.52861528e-05
3.57044565e-05
3.68483184e-05
3.68423732e-05
3.5734351e-05
3.53567654e-05
3.53039709e-05
3.56152355e-05
3.68627959e-05
3.68381773e-05
3.57241057e-05
3.57079236e-05
3.68680728e-05
3.68253532e-05
3.57089696e-05
3.5211105e-05
3.56954547e-05
)
;

boundaryField
{
    closed
    {
        type            calculated;
        value           uniform 5.12964882e-05;
    }
    open
    {
        type            calculated;
        value           nonuniform List<scalar> 0();
    }
    sides
    {
        type            empty;
    }
    procBoundary0to1
    {
        type            processor;
        value           uniform 3.68547012e-05;
    }
}


// ************************************************************************* //
