/*--------------------------------*- C++ -*----------------------------------*\
| =========                 |                                                 |
| \\      /  F ield         | OpenFOAM: The Open Source CFD Toolbox           |
|  \\    /   O peration     | Version:  2306                                  |
|   \\  /    A nd           | Website:  www.openfoam.com                      |
|    \\/     M anipulation  |                                                 |
\*---------------------------------------------------------------------------*/
FoamFile
{
    version     2.0;
    format      ascii;
    arch        "LSB;label=32;scalar=64";
    class       volScalarField;
    location    "0.00068";
    object      mu;
}
// * * * * * * * * * * * * * * * * * * * * * * * * * * * * * * * * * * * * * //

dimensions      [1 -1 -1 0 0 0 0];

internalField   nonuniform List<scalar> 
530
(
2.01624902e-05
1.98530461e-05
1.97992523e-05
1.97985963e-05
1.97985372e-05
1.97985359e-05
1.97985358e-05
1.97985358e-05
1.97985358e-05
1.97985358e-05
1.97985358e-05
1.97985358e-05
1.97985358e-05
1.97985358e-05
1.97985358e-05
1.97985358e-05
1.97985358e-05
1.97985358e-05
1.97985358e-05
1.97985358e-05
1.97985358e-05
1.97985358e-05
1.97985358e-05
1.97985358e-05
1.97985358e-05
1.97985358e-05
1.97985358e-05
1.97985358e-05
1.97985358e-05
1.97985358e-05
1.97985358e-05
1.97985358e-05
1.97985358e-05
1.97985358e-05
1.97985358e-05
1.97985358e-05
1.97985358e-05
1.97985358e-05
1.97985358e-05
1.97985358e-05
1.97985358e-05
1.97985358e-05
1.97985358e-05
1.97985358e-05
1.97985358e-05
1.97985358e-05
1.97985358e-05
1.97985358e-05
1.97985358e-05
1.97985358e-05
1.97985358e-05
1.97985358e-05
1.97985358e-05
1.97985358e-05
1.97985358e-05
1.97985358e-05
1.97985358e-05
1.97985358e-05
1.97985358e-05
1.97985358e-05
1.97985358e-05
1.97985358e-05
1.97985358e-05
1.97985358e-05
1.97985358e-05
1.97985358e-05
1.97985358e-05
1.97985358e-05
1.97985358e-05
1.97985358e-05
1.97985358e-05
1.97985358e-05
1.97985358e-05
1.97985358e-05
1.97985359e-05
1.9798536e-05
1.97985361e-05
1.97985369e-05
1.9798538e-05
1.9798539e-05
1.9798544e-05
1.97985555e-05
1.97985709e-05
1.97985807e-05
1.97986184e-05
1.97986902e-05
1.97988332e-05
1.97990173e-05
1.97994063e-05
1.97998535e-05
1.97993592e-05
1.9796621e-05
1.97976345e-05
1.98138657e-05
1.98265441e-05
1.98183342e-05
1.97568486e-05
1.97653648e-05
1.97684427e-05
2.03287969e-05
2.03042321e-05
1.97876981e-05
1.96001797e-05
1.95894614e-05
1.95393504e-05
1.97855896e-05
2.02709567e-05
2.03097233e-05
2.02617019e-05
1.96522325e-05
1.94750165e-05
1.95787725e-05
1.98075252e-05
2.0278028e-05
2.03046695e-05
2.02662303e-05
1.9658505e-05
1.95007365e-05
1.95859752e-05
1.97847718e-05
2.03134684e-05
2.02767569e-05
1.96767487e-05
1.97983744e-05
2.03125339e-05
2.0259556e-05
1.95011859e-05
1.93492253e-05
1.97738234e-05
2.02857533e-05
2.0278719e-05
1.95828121e-05
1.97459902e-05
2.03067452e-05
2.02513342e-05
1.95681098e-05
1.97510473e-05
2.03058697e-05
2.02373863e-05
1.95595857e-05
1.97720834e-05
2.03037981e-05
2.01664757e-05
1.95537153e-05
1.97545846e-05
2.03057767e-05
2.02619116e-05
1.95693264e-05
1.97272006e-05
2.03071253e-05
2.02676125e-05
1.96087708e-05
1.97667769e-05
2.03048043e-05
2.02489804e-05
1.94956206e-05
1.9320899e-05
1.9774183e-05
2.02812773e-05
2.02902025e-05
1.96070941e-05
1.97571313e-05
2.03006277e-05
2.02396267e-05
1.95026507e-05
1.93042208e-05
1.97760698e-05
2.02758107e-05
2.02976897e-05
1.9561301e-05
1.97165094e-05
2.02918671e-05
2.02011166e-05
1.95535871e-05
1.97238515e-05
2.02898675e-05
2.02636068e-05
1.95655047e-05
1.96803669e-05
2.02859812e-05
2.0290937e-05
1.95845008e-05
1.96566248e-05
2.0273442e-05
2.02978504e-05
1.96462103e-05
1.96783551e-05
2.02402799e-05
2.02871963e-05
1.96577429e-05
1.93093351e-05
1.96880939e-05
2.02160817e-05
2.03028215e-05
1.97315751e-05
1.96495006e-05
2.00637604e-05
2.02860276e-05
1.97383346e-05
1.96995309e-05
1.99775527e-05
2.02678471e-05
1.97680606e-05
1.9442352e-05
1.94595772e-05
2.00040718e-05
2.02738984e-05
1.9801387e-05
1.97306742e-05
1.98338678e-05
2.02270996e-05
1.98631124e-05
1.9520653e-05
1.94419163e-05
1.98360698e-05
2.02284485e-05
1.98568968e-05
1.97386822e-05
1.97837297e-05
2.01817345e-05
1.98793001e-05
1.97545003e-05
1.97735708e-05
2.01765619e-05
1.99277116e-05
1.97730064e-05
1.97693451e-05
2.01642334e-05
1.99545141e-05
1.97732139e-05
1.97630939e-05
2.01610841e-05
2.00567469e-05
1.96768205e-05
1.943752e-05
1.97531364e-05
2.01654581e-05
1.9963687e-05
1.97583614e-05
1.97609635e-05
2.01512453e-05
2.00144123e-05
1.97716511e-05
1.9762762e-05
2.01637326e-05
2.00504526e-05
1.97747055e-05
1.97663971e-05
2.01760472e-05
2.01162071e-05
1.97191112e-05
1.94318297e-05
1.97511744e-05
2.02049507e-05
2.01066582e-05
1.97725285e-05
1.97627968e-05
2.02013953e-05
2.01105404e-05
1.97788118e-05
1.97711255e-05
2.02252929e-05
2.01636566e-05
1.97489481e-05
1.94840294e-05
1.97579315e-05
2.02423071e-05
2.01804354e-05
1.97810493e-05
1.97843904e-05
2.02516137e-05
2.02050376e-05
1.97650532e-05
1.965264e-05
1.96278209e-05
1.95640656e-05
1.97725039e-05
2.02636745e-05
2.02172148e-05
1.97471608e-05
1.94700793e-05
1.97572896e-05
2.02654695e-05
2.02036152e-05
1.97760917e-05
1.97793187e-05
2.02781464e-05
2.02106705e-05
1.97761961e-05
1.97896405e-05
2.02838788e-05
2.02318528e-05
1.97577526e-05
1.96211093e-05
1.96426008e-05
1.9582899e-05
1.95103681e-05
1.97487605e-05
2.02429455e-05
2.03247997e-05
2.00632623e-05
1.97604875e-05
1.97780787e-05
2.02947734e-05
2.0167133e-05
1.97763142e-05
1.97835303e-05
2.02975931e-05
2.01827889e-05
1.96903209e-05
1.94513534e-05
1.97673645e-05
2.02904335e-05
2.01798406e-05
1.96613002e-05
1.94124857e-05
1.97599337e-05
2.02887323e-05
2.01394913e-05
1.97598091e-05
1.97813292e-05
2.03041023e-05
2.01799946e-05
1.96885155e-05
1.94835205e-05
1.97834345e-05
2.02922731e-05
2.01966293e-05
1.97005382e-05
1.95043572e-05
1.97888804e-05
2.02910668e-05
2.02178616e-05
1.97226528e-05
1.95432469e-05
1.980474e-05
2.02902295e-05
2.02477289e-05
1.97675913e-05
1.9588681e-05
1.95978868e-05
1.97894332e-05
2.02982311e-05
2.02157297e-05
1.96719781e-05
1.94776482e-05
1.97878101e-05
2.0291658e-05
2.02072439e-05
1.96336659e-05
1.94324521e-05
1.9776075e-05
2.02902892e-05
2.00461949e-05
1.97092003e-05
1.97752108e-05
2.03062345e-05
2.00366183e-05
1.97412628e-05
1.97856553e-05
2.03054704e-05
2.0187142e-05
1.96123255e-05
1.94484045e-05
1.97886475e-05
2.02909494e-05
2.01698791e-05
1.95737468e-05
1.94200553e-05
1.97897677e-05
2.02893117e-05
1.99568768e-05
1.96991098e-05
1.97845838e-05
2.03054126e-05
2.0192773e-05
1.95701837e-05
1.9434507e-05
1.98125103e-05
2.02871566e-05
1.99094323e-05
1.97066829e-05
1.97921054e-05
2.03026971e-05
2.02328971e-05
1.95865702e-05
1.94551602e-05
1.9803357e-05
2.02863278e-05
2.02054e-05
1.95635619e-05
1.94445778e-05
1.97998028e-05
2.02877685e-05
2.01575312e-05
1.95128623e-05
1.94180248e-05
1.9837671e-05
2.02809184e-05
1.98074398e-05
1.96553577e-05
1.98633666e-05
2.0292163e-05
1.98119322e-05
1.96858415e-05
1.98132964e-05
2.0302184e-05
2.00732177e-05
1.9493103e-05
1.94275507e-05
1.98451229e-05
2.02817203e-05
1.97825288e-05
1.96290975e-05
1.98923844e-05
2.02901178e-05
1.97941256e-05
1.9668219e-05
1.98101048e-05
2.03018567e-05
2.01206265e-05
1.95060308e-05
1.94273205e-05
1.98486356e-05
2.0280451e-05
1.98016021e-05
1.9639466e-05
1.97956981e-05
2.02998858e-05
2.02424443e-05
1.95225005e-05
1.93974094e-05
1.98355986e-05
2.02785776e-05
1.98124408e-05
1.96291328e-05
1.97859837e-05
2.03032932e-05
2.02763138e-05
1.95309246e-05
1.93587784e-05
1.98069327e-05
2.02800248e-05
1.98164856e-05
1.95820687e-05
1.98158531e-05
2.0294371e-05
1.98316304e-05
1.96146729e-05
1.98103281e-05
2.02992072e-05
1.98679287e-05
1.96208602e-05
1.97681021e-05
2.03152415e-05
2.03037688e-05
1.95855581e-05
1.93711485e-05
1.97751238e-05
2.02869678e-05
1.99726315e-05
1.96080102e-05
1.97688972e-05
2.03118589e-05
2.03039855e-05
1.96530815e-05
1.94235469e-05
1.97620196e-05
2.03068612e-05
2.03041783e-05
1.96506694e-05
1.94099336e-05
1.97765842e-05
2.02933427e-05
2.02609472e-05
1.96404006e-05
1.97648986e-05
2.03215604e-05
2.02925462e-05
1.97075546e-05
1.94258898e-05
1.97658639e-05
2.02965259e-05
2.02939686e-05
1.9660754e-05
1.97450421e-05
2.03209303e-05
2.02852604e-05
1.97541479e-05
1.94551324e-05
1.97620977e-05
2.03066958e-05
2.02846192e-05
1.96622157e-05
1.92537302e-05
1.96313671e-05
2.0294519e-05
2.02907938e-05
2.02811052e-05
2.02831449e-05
1.97742543e-05
1.96105385e-05
1.96687449e-05
1.96531191e-05
1.95453718e-05
1.97571116e-05
2.03124877e-05
2.02962014e-05
1.97678506e-05
1.97597136e-05
2.03150562e-05
2.02886998e-05
1.97585278e-05
1.95335262e-05
1.97523047e-05
2.03079121e-05
2.03030319e-05
1.9765441e-05
1.95720867e-05
1.95437181e-05
1.97110985e-05
2.03150181e-05
2.02981105e-05
1.97680608e-05
1.97591941e-05
2.03162624e-05
2.02922232e-05
1.97547659e-05
1.94932312e-05
1.97505485e-05
)
;

boundaryField
{
    closed
    {
        type            calculated;
        value           uniform 2.71314774e-05;
    }
    open
    {
        type            calculated;
        value           nonuniform List<scalar> 0();
    }
    sides
    {
        type            empty;
    }
    procBoundary0to1
    {
        type            processor;
        value           uniform 2.03101022e-05;
    }
}


// ************************************************************************* //
