/*--------------------------------*- C++ -*----------------------------------*\
| =========                 |                                                 |
| \\      /  F ield         | OpenFOAM: The Open Source CFD Toolbox           |
|  \\    /   O peration     | Version:  2306                                  |
|   \\  /    A nd           | Website:  www.openfoam.com                      |
|    \\/     M anipulation  |                                                 |
\*---------------------------------------------------------------------------*/
FoamFile
{
    version     2.0;
    format      ascii;
    arch        "LSB;label=32;scalar=64";
    class       volScalarField;
    location    "4e-05";
    object      prefDPV_H2;
}
// * * * * * * * * * * * * * * * * * * * * * * * * * * * * * * * * * * * * * //

dimensions      [1 -1 -1 0 0 0 0];

internalField   nonuniform List<scalar> 
531
(
-3.09188071e-05
-3.09188069e-05
-3.09188069e-05
-3.0918807e-05
-3.0918807e-05
-3.0918807e-05
-3.0918807e-05
-3.0918807e-05
-3.0918807e-05
-3.0918807e-05
-3.0918807e-05
-3.0918807e-05
-3.0918807e-05
-3.0918807e-05
-3.0918807e-05
-3.0918807e-05
-3.0918807e-05
-3.0918807e-05
-3.0918807e-05
-3.0918807e-05
-3.0918807e-05
-3.0918807e-05
-3.0918807e-05
-3.0918807e-05
-3.0918807e-05
-3.0918807e-05
-3.0918807e-05
-3.0918807e-05
-3.0918807e-05
-3.0918807e-05
-3.0918807e-05
-3.0918807e-05
-3.0918807e-05
-3.0918807e-05
-3.0918807e-05
-3.0918807e-05
-3.0918807e-05
-3.0918807e-05
-3.0918807e-05
-3.0918807e-05
-3.0918807e-05
-3.0918807e-05
-3.0918807e-05
-3.0918807e-05
-3.0918807e-05
-3.0918807e-05
-3.0918807e-05
-3.0918807e-05
-3.0918807e-05
-3.0918807e-05
-3.0918807e-05
-3.0918807e-05
-3.0918807e-05
-3.0918807e-05
-3.0918807e-05
-3.0918807e-05
-3.0918807e-05
-3.0918807e-05
-3.0918807e-05
-3.0918807e-05
-3.0918807e-05
-3.0918807e-05
-3.0918807e-05
-3.0918807e-05
-3.0918807e-05
-3.0918807e-05
-3.0918807e-05
-3.0918807e-05
-3.0918807e-05
-3.0918807e-05
-3.0918807e-05
-3.0918807e-05
-3.0918807e-05
-3.0918807e-05
-3.0918807e-05
-3.0918807e-05
-3.0918807e-05
-3.0918807e-05
-3.0918807e-05
-3.0918807e-05
-3.0918807e-05
-3.0918807e-05
-3.0918807e-05
-3.0918807e-05
-3.0918807e-05
-3.0918807e-05
-3.0918807e-05
-3.0918807e-05
-3.0918807e-05
-3.0918807e-05
-3.0918807e-05
-3.0918807e-05
-3.0918807e-05
-3.0918807e-05
-3.0918807e-05
-3.0918807e-05
-3.0918807e-05
-3.0918807e-05
-3.0918807e-05
-3.0918807e-05
-3.0918807e-05
-3.0918807e-05
-3.0918807e-05
-3.0918807e-05
-3.0918807e-05
-3.0918807e-05
-3.0918807e-05
-3.0918807e-05
-3.0918807e-05
-3.0918807e-05
-3.0918807e-05
-3.0918807e-05
-3.0918807e-05
-3.0918807e-05
-3.0918807e-05
-3.0918807e-05
-3.0918807e-05
-3.0918807e-05
-3.0918807e-05
-3.0918807e-05
-3.0918807e-05
-3.0918807e-05
-3.0918807e-05
-3.0918807e-05
-3.0918807e-05
-3.0918807e-05
-3.0918807e-05
-3.0918807e-05
-3.0918807e-05
-3.0918807e-05
-3.0918807e-05
-3.0918807e-05
-3.0918807e-05
-3.0918807e-05
-3.0918807e-05
-3.0918807e-05
-3.0918807e-05
-3.0918807e-05
-3.0918807e-05
-3.0918807e-05
-3.0918807e-05
-3.0918807e-05
-3.0918807e-05
-3.0918807e-05
-3.0918807e-05
-3.0918807e-05
-3.0918807e-05
-3.0918807e-05
-3.0918807e-05
-3.0918807e-05
-3.0918807e-05
-3.0918807e-05
-3.0918807e-05
-3.0918807e-05
-3.0918807e-05
-3.0918807e-05
-3.0918807e-05
-3.0918807e-05
-3.0918807e-05
-3.0918807e-05
-3.0918807e-05
-3.0918807e-05
-3.0918807e-05
-3.0918807e-05
-3.0918807e-05
-3.0918807e-05
-3.0918807e-05
-3.0918807e-05
-3.0918807e-05
-3.0918807e-05
-3.0918807e-05
-3.0918807e-05
-3.0918807e-05
-3.0918807e-05
-3.0918807e-05
-3.0918807e-05
-3.0918807e-05
-3.0918807e-05
-3.0918807e-05
-3.0918807e-05
-3.0918807e-05
-3.0918807e-05
-3.0918807e-05
-3.0918807e-05
-3.0918807e-05
-3.0918807e-05
-3.0918807e-05
-3.0918807e-05
-3.0918807e-05
-3.0918807e-05
-3.0918807e-05
-3.0918807e-05
-3.0918807e-05
-3.0918807e-05
-3.0918807e-05
-3.0918807e-05
-3.0918807e-05
-3.0918807e-05
-3.0918807e-05
-3.0918807e-05
-3.0918807e-05
-3.0918807e-05
-3.0918807e-05
-3.0918807e-05
-3.0918807e-05
-3.0918807e-05
-3.0918807e-05
-3.0918807e-05
-3.0918807e-05
-3.0918807e-05
-3.0918807e-05
-3.0918807e-05
-3.0918807e-05
-3.0918807e-05
-3.0918807e-05
-3.0918807e-05
-3.0918807e-05
-3.0918807e-05
-3.0918807e-05
-3.0918807e-05
-3.0918807e-05
-3.0918807e-05
-3.0918807e-05
-3.0918807e-05
-3.0918807e-05
-3.0918807e-05
-3.0918807e-05
-3.0918807e-05
-3.0918807e-05
-3.0918807e-05
-3.0918807e-05
-3.0918807e-05
-3.0918807e-05
-3.0918807e-05
-3.0918807e-05
-3.0918807e-05
-3.0918807e-05
-3.0918807e-05
-3.0918807e-05
-3.0918807e-05
-3.0918807e-05
-3.0918807e-05
-3.0918807e-05
-3.0918807e-05
-3.0918807e-05
-3.0918807e-05
-3.0918807e-05
-3.0918807e-05
-3.0918807e-05
-3.0918807e-05
-3.0918807e-05
-3.0918807e-05
-3.0918807e-05
-3.0918807e-05
-3.0918807e-05
-3.0918807e-05
-3.0918807e-05
-3.0918807e-05
-3.0918807e-05
-3.0918807e-05
-3.0918807e-05
-3.0918807e-05
-3.0918807e-05
-3.0918807e-05
-3.0918807e-05
-3.0918807e-05
-3.0918807e-05
-3.0918807e-05
-3.0918807e-05
-3.0918807e-05
-3.0918807e-05
-3.0918807e-05
-3.0918807e-05
-3.0918807e-05
-3.0918807e-05
-3.0918807e-05
-3.0918807e-05
-3.0918807e-05
-3.0918807e-05
-3.0918807e-05
-3.0918807e-05
-3.0918807e-05
-3.0918807e-05
-3.0918807e-05
-3.0918807e-05
-3.0918807e-05
-3.0918807e-05
-3.0918807e-05
-3.0918807e-05
-3.0918807e-05
-3.0918807e-05
-3.0918807e-05
-3.0918807e-05
-3.0918807e-05
-3.0918807e-05
-3.0918807e-05
-3.0918807e-05
-3.0918807e-05
-3.0918807e-05
-3.0918807e-05
-3.0918807e-05
-3.0918807e-05
-3.0918807e-05
-3.0918807e-05
-3.0918807e-05
-3.0918807e-05
-3.0918807e-05
-3.0918807e-05
-3.0918807e-05
-3.0918807e-05
-3.0918807e-05
-3.0918807e-05
-3.0918807e-05
-3.0918807e-05
-3.0918807e-05
-3.0918807e-05
-3.0918807e-05
-3.0918807e-05
-3.0918807e-05
-3.0918807e-05
-3.0918807e-05
-3.0918807e-05
-3.0918807e-05
-3.0918807e-05
-3.0918807e-05
-3.0918807e-05
-3.0918807e-05
-3.0918807e-05
-3.0918807e-05
-3.0918807e-05
-3.0918807e-05
-3.0918807e-05
-3.0918807e-05
-3.0918807e-05
-3.0918807e-05
-3.0918807e-05
-3.0918807e-05
-3.0918807e-05
-3.0918807e-05
-3.0918807e-05
-3.0918807e-05
-3.0918807e-05
-3.0918807e-05
-3.0918807e-05
-3.0918807e-05
-3.0918807e-05
-3.0918807e-05
-3.0918807e-05
-3.0918807e-05
-3.0918807e-05
-3.0918807e-05
-3.0918807e-05
-3.0918807e-05
-3.0918807e-05
-3.0918807e-05
-3.0918807e-05
-3.0918807e-05
-3.0918807e-05
-3.0918807e-05
-3.0918807e-05
-3.0918807e-05
-3.0918807e-05
-3.0918807e-05
-3.0918807e-05
-3.0918807e-05
-3.0918807e-05
-3.0918807e-05
-3.0918807e-05
-3.0918807e-05
-3.0918807e-05
-3.0918807e-05
-3.0918807e-05
-3.0918807e-05
-3.0918807e-05
-3.0918807e-05
-3.0918807e-05
-3.0918807e-05
-3.0918807e-05
-3.0918807e-05
-3.0918807e-05
-3.0918807e-05
-3.0918807e-05
-3.0918807e-05
-3.0918807e-05
-3.0918807e-05
-3.0918807e-05
-3.0918807e-05
-3.0918807e-05
-3.0918807e-05
-3.0918807e-05
-3.0918807e-05
-3.0918807e-05
-3.0918807e-05
-3.0918807e-05
-3.0918807e-05
-3.0918807e-05
-3.0918807e-05
-3.0918807e-05
-3.0918807e-05
-3.0918807e-05
-3.0918807e-05
-3.0918807e-05
-3.0918807e-05
-3.0918807e-05
-3.0918807e-05
-3.0918807e-05
-3.0918807e-05
-3.09188069e-05
-3.09188069e-05
-3.09188068e-05
-3.09188067e-05
-3.09188064e-05
-3.09188059e-05
-3.09188048e-05
-3.09188029e-05
-3.09187993e-05
-3.09187927e-05
-3.09187808e-05
-3.09187596e-05
-3.09187223e-05
-3.09186578e-05
-3.09185471e-05
-3.09183627e-05
-3.09180549e-05
-3.09175683e-05
-3.09167389e-05
-3.09155816e-05
-3.09136413e-05
-3.09108435e-05
-3.09058467e-05
-3.09048206e-05
-3.09121496e-05
-3.08634038e-05
-3.08025175e-05
-3.09217179e-05
-3.18232944e-05
-3.18099138e-05
-3.18181512e-05
-3.15155276e-05
-2.93220072e-05
-3.01007239e-05
-2.9921888e-05
-2.99843964e-05
-2.99849013e-05
-3.06234963e-05
-3.09532184e-05
-3.02719197e-05
-3.25763082e-05
-3.35271063e-05
-3.26647707e-05
-3.42014956e-05
-3.4084832e-05
-3.44540147e-05
-3.39207656e-05
-3.36952405e-05
-3.68821148e-05
-3.60381847e-05
-3.37952922e-05
-3.91534795e-05
-3.99035606e-05
-3.95883211e-05
-3.96171207e-05
-4.27198011e-05
-4.32634026e-05
-4.39698626e-05
-4.49190057e-05
-4.59883337e-05
-4.6802749e-05
-4.78371915e-05
-4.88652423e-05
-5.0054283e-05
-5.10820308e-05
-5.24504866e-05
-5.37335873e-05
-5.49595478e-05
-5.61244392e-05
-5.7303523e-05
-5.85102746e-05
-5.97496555e-05
-6.06304622e-05
-6.22113263e-05
-6.3613276e-05
-6.45348602e-05
-6.41923582e-05
-6.68245094e-05
-6.81327337e-05
-6.78279454e-05
-6.66039568e-05
-7.05382993e-05
-7.31159197e-05
-6.8823108e-05
-6.79154568e-05
-7.44715953e-05
-7.58267221e-05
-6.99218865e-05
-6.97485974e-05
-7.6904329e-05
-7.80207466e-05
-7.12281992e-05
-7.31497391e-05
-7.97944982e-05
-7.8135144e-05
-7.27357749e-05
-7.69517013e-05
-8.0665862e-05
-7.91233476e-05
-7.61008089e-05
-7.94303143e-05
-8.1016118e-05
-8.04525273e-05
-7.91807723e-05
-8.10959027e-05
-8.23493221e-05
-8.22706716e-05
-8.06744339e-05
-8.28021728e-05
-8.3353734e-05
-8.36245177e-05
-8.25825506e-05
-8.43299846e-05
-8.43572086e-05
-8.49391194e-05
-8.42731619e-05
-8.560056e-05
-8.57276357e-05
-8.62359342e-05
-8.5875774e-05
-8.67307673e-05
-8.71437414e-05
-8.74604241e-05
-8.7400555e-05
)
;

boundaryField
{
    closed
    {
        type            calculated;
        value           nonuniform List<scalar> 0();
    }
    open
    {
        type            calculated;
        value           nonuniform List<scalar> 0();
    }
    sides
    {
        type            empty;
    }
    procBoundary4to3
    {
        type            processor;
        value           uniform -3.09188072e-05;
    }
    procBoundary4to5
    {
        type            processor;
        value           uniform -8.77697703e-05;
    }
}


// ************************************************************************* //
