/*--------------------------------*- C++ -*----------------------------------*\
| =========                 |                                                 |
| \\      /  F ield         | OpenFOAM: The Open Source CFD Toolbox           |
|  \\    /   O peration     | Version:  2306                                  |
|   \\  /    A nd           | Website:  www.openfoam.com                      |
|    \\/     M anipulation  |                                                 |
\*---------------------------------------------------------------------------*/
FoamFile
{
    version     2.0;
    format      ascii;
    arch        "LSB;label=32;scalar=64";
    class       volScalarField;
    location    "0.00048";
    object      prefDh_H2;
}
// * * * * * * * * * * * * * * * * * * * * * * * * * * * * * * * * * * * * * //

dimensions      [1 1 -3 0 0 0 0];

internalField   nonuniform List<scalar> 
530
(
4135.59225
4138.80321
4144.04919
4146.90471
4151.66638
4153.89373
4158.158
4160.0164
4163.97199
4165.61744
4169.23239
4170.67627
4173.99767
4175.23437
4178.27221
4179.3068
4182.07788
4182.91872
4185.44098
4186.09448
4188.12888
4188.36092
4190.11915
4190.15741
4191.70413
4191.55453
4192.90092
4192.5707
4193.72699
4193.22386
4194.19996
4193.53218
4194.33763
4193.51405
4194.15812
4193.18806
4193.68009
4192.573
4192.92262
4191.68816
4191.90363
4190.42021
4190.3257
4188.68317
4188.45337
4186.69064
4186.3307
4184.45503
4183.96994
4181.98878
4181.38343
4179.30427
4178.58367
4176.41377
4175.58323
4173.3295
4172.39466
4170.06361
4169.03047
4166.62824
4165.50312
4163.03554
4161.84739
4159.40456
4158.16825
4155.67455
4154.36601
4151.82964
4150.45431
4147.8849
4146.44864
4143.73094
4142.11633
4139.36006
4137.68192
4134.89246
4133.16561
4130.37712
4128.62033
4126.00045
4124.23625
4121.39024
4119.44624
4116.70051
4114.64236
4111.95536
4109.80799
4107.16055
4104.93602
4102.32176
4100.03167
4097.4473
4095.10071
4092.53224
4090.12954
4087.57084
4085.12238
4082.57203
4080.08705
4077.54427
4075.03106
4072.49573
4069.96181
4067.43434
4064.88661
4062.36789
4059.81273
4057.30412
4054.74744
4052.26854
4049.74644
4047.30382
4044.80321
4042.39092
4039.91623
4037.51783
4035.01837
4032.60368
4030.12662
4027.73859
4025.28693
4022.92611
4020.50133
4018.1681
4015.77168
4013.46622
4011.09966
4008.82212
4006.48681
4004.23743
4001.93456
3999.71367
3997.44426
3995.25225
3993.01715
3990.85445
3988.65441
3986.52147
3984.35711
3982.25439
3980.12627
3978.05422
3975.9628
3973.92187
3971.86757
3969.85818
3967.84134
3965.86392
3963.88484
3961.9398
3959.99874
3958.08647
3956.18364
3954.30453
3952.44011
3950.59455
3948.76869
3946.95703
3945.16988
3943.39248
3941.64414
3939.90135
3938.19196
3936.48411
3934.81376
3933.14119
3931.50999
3929.87305
3928.28108
3926.68016
3925.12745
3923.56301
3922.04953
3920.5221
3919.07174
3917.60916
3916.19825
3914.77061
3913.39614
3912.00422
3910.66663
3909.3021
3907.97342
3906.62627
3905.33891
3904.03166
3902.78592
3901.51883
3900.31476
3899.09207
3897.94565
3896.77867
3895.67011
3894.543
3893.47186
3892.38375
3891.3498
3890.29984
3889.30273
3888.29025
3887.3294
3886.35384
3885.4286
3884.48945
3883.59908
3882.69583
3881.83959
3880.97169
3880.14886
3879.31575
3878.52559
3877.72666
3876.96845
3876.20309
3875.47608
3874.74364
3874.0471
3873.34693
3872.68011
3872.01151
3871.37366
3870.73594
3870.12632
3869.51875
3868.93659
3868.35844
3867.803
3867.25349
3866.72403
3866.2024
3865.69817
3865.20361
3864.72389
3864.25558
3863.79964
3863.35676
3862.92389
3862.50559
3862.09509
3861.70049
3861.31168
3860.93993
3860.57211
3860.22233
3859.87484
3859.54616
3859.21833
3858.90986
3858.60105
3858.31191
3858.02149
3857.7508
3857.47812
3857.22504
3856.96947
3856.73314
3856.49407
3856.27364
3856.05045
3855.84513
3855.6372
3855.44619
3855.25291
3855.07544
3854.89621
3854.73154
3854.56574
3854.41316
3854.2602
3854.11902
3853.97829
3853.84787
3853.71878
3853.59847
3853.48043
3853.36965
3853.26208
3853.16025
3853.06258
3852.96916
3852.88083
3852.7953
3852.71575
3852.63762
3852.56632
3852.49512
3852.43154
3852.36683
3852.31046
3852.25184
3852.20216
3852.14924
3852.10576
3852.05819
3852.02041
3851.97788
3851.94531
3851.90752
3851.87969
3851.84638
3851.82281
3851.79375
3851.77398
3851.74896
3851.73254
3851.71136
3851.69788
3851.68034
3851.66943
3851.65531
3851.64662
3851.63573
3851.62897
3851.62107
3851.616
3851.61084
3851.60727
3851.60457
3851.60238
3851.60186
3851.60096
3851.6023
3851.60261
3851.60554
3851.60696
3851.61118
3851.61396
3851.61899
3851.62361
3851.62918
3851.63562
3851.64136
3851.64781
3851.65346
3851.66105
3851.66709
3851.67534
3851.68193
3851.69053
3851.6977
3851.70648
3851.71418
3851.72304
3851.73119
3851.74009
3851.74857
3851.75748
3851.7662
3851.77509
3851.78395
3851.7928
3851.80172
3851.81052
3851.81943
3851.82814
3851.837
3851.84561
3851.85435
3851.86284
3851.87144
3851.87978
3851.88821
3851.89638
3851.90461
3851.9126
3851.92062
3851.92841
3851.9362
3851.94378
3851.95133
3851.95868
3851.96599
3851.97311
3851.98016
3851.98704
3851.99384
3852.00047
3852.00701
3852.01339
3852.01968
3852.02581
3852.03184
3852.03773
3852.0435
3852.04914
3852.05467
3852.06006
3852.06534
3852.07049
3852.07553
3852.08045
3852.08525
3852.08994
3852.09451
3852.09897
3852.10332
3852.10756
3852.1117
3852.11573
3852.11965
3852.12348
3852.1272
3852.13083
3852.13436
3852.1378
3852.14115
3852.1444
3852.14757
3852.15065
3852.15364
3852.15656
3852.15939
3852.16214
3852.16481
3852.16742
3852.16994
3852.1724
3852.17478
3852.1771
3852.17935
3852.18154
3852.18366
3852.18573
3852.18773
3852.18968
3852.19156
3852.1934
3852.19518
3852.19691
3852.19859
3852.20022
3852.2018
3852.20335
3852.20484
3852.2063
3852.20769
3852.20908
3852.21039
3852.21171
3852.21294
3852.21417
3852.21535
3852.21648
3852.21593
3852.21378
3852.21177
3852.20988
3852.20815
3852.20651
3852.205
3852.20359
3852.20228
3852.20106
3852.19989
3852.19872
3852.19757
3852.19645
3852.19536
3852.19431
3852.19331
3852.19236
3852.19147
3852.19064
3852.18988
3852.18919
3852.18858
3852.18803
3852.18756
3852.18716
3852.18682
3852.18655
3852.18632
3852.18615
3852.18602
3852.18591
3852.18585
3852.1858
3852.18577
3852.18574
3852.18573
3852.18572
3852.18571
3852.18571
3852.18571
3852.18571
3852.18571
3852.18571
3852.18571
3852.18571
3852.18571
3852.18571
3852.18571
3852.18571
3852.18571
3852.18571
3852.18571
3852.18571
3852.18571
3852.18571
3852.18571
3852.18571
3852.18571
3852.18571
3852.18571
3852.18571
3852.18571
3852.18571
3852.18571
3852.18571
3852.18571
3852.18571
3852.18571
3852.18571
3852.18571
3852.18571
3852.18571
3852.18571
3852.18571
3852.18571
3852.18571
3852.18571
3852.18571
3852.18571
3852.18571
3852.18571
3852.18571
3852.18571
3852.18571
3852.18571
3852.18571
)
;

boundaryField
{
    closed
    {
        type            calculated;
        value           nonuniform List<scalar> 0();
    }
    open
    {
        type            calculated;
        value           uniform 3852.18571;
    }
    sides
    {
        type            empty;
    }
    procBoundary5to4
    {
        type            processor;
        value           uniform 4130.0447;
    }
}


// ************************************************************************* //
