/*--------------------------------*- C++ -*----------------------------------*\
| =========                 |                                                 |
| \\      /  F ield         | OpenFOAM: The Open Source CFD Toolbox           |
|  \\    /   O peration     | Version:  2306                                  |
|   \\  /    A nd           | Website:  www.openfoam.com                      |
|    \\/     M anipulation  |                                                 |
\*---------------------------------------------------------------------------*/
FoamFile
{
    version     2.0;
    format      ascii;
    arch        "LSB;label=32;scalar=64";
    class       volScalarField;
    location    "0.00136";
    object      H;
}
// * * * * * * * * * * * * * * * * * * * * * * * * * * * * * * * * * * * * * //

dimensions      [0 0 0 0 0 0 0];

internalField   nonuniform List<scalar> 
530
(
6.58789598e-10
1.27888449e-09
1.13110111e-09
2.21548157e-08
4.11802455e-08
5.12903474e-08
5.10009358e-08
5.96616862e-10
1.13773442e-09
4.32023642e-08
4.7838069e-08
5.61316312e-10
1.19167977e-09
4.51012022e-08
4.48666965e-08
4.90186548e-10
1.3008787e-09
9.69117812e-10
2.75250413e-08
5.50339679e-08
5.43426746e-08
5.90031916e-10
1.10266923e-09
1.02655759e-09
1.16621248e-09
2.51551517e-08
4.24579938e-08
5.26708768e-08
5.25521711e-08
6.12445964e-10
1.21340485e-09
1.08612325e-09
3.46826205e-08
4.43828148e-08
8.50048497e-10
1.22268758e-09
2.92820548e-08
3.99176054e-08
4.97002972e-08
4.96594506e-08
6.7087746e-10
1.22793599e-09
1.06753678e-09
3.4305572e-08
4.30842906e-08
7.35498488e-10
1.30026429e-09
1.14454707e-09
2.45898976e-08
4.4820679e-08
4.38988904e-08
5.48131033e-08
5.46280185e-08
6.41147036e-10
1.16447104e-09
1.13306327e-09
3.83964068e-08
4.55630979e-08
8.36539006e-10
1.12579821e-09
2.69475604e-08
5.03108121e-08
4.98928423e-08
7.72442485e-10
1.27948681e-09
1.13787126e-09
2.92227342e-08
4.97420692e-08
4.90849425e-08
7.94534116e-10
1.22826143e-09
3.91367432e-08
4.14926975e-08
7.58572071e-10
1.34036494e-09
1.20554104e-09
2.85239621e-08
4.13474559e-08
4.88412218e-08
4.8851163e-08
7.69948419e-10
1.08392536e-09
3.33905245e-08
5.43522351e-08
5.40640969e-08
7.58205412e-10
1.19557321e-09
1.13841482e-09
3.44294028e-08
4.36171314e-08
8.76164893e-10
1.19003663e-09
3.2837625e-08
4.27688691e-08
5.54452367e-08
5.52186676e-08
4.69904009e-10
1.08513615e-09
8.21235491e-10
1.17756903e-09
1.10537415e-09
3.81397597e-08
4.90423885e-08
7.44498529e-10
1.15224776e-09
4.20237811e-08
4.79359768e-08
7.36436242e-10
1.19180476e-09
3.93573659e-08
4.43671834e-08
8.50685521e-10
1.23436104e-09
3.10951271e-08
4.07657448e-08
4.87262753e-08
4.87122433e-08
7.66591553e-10
1.25818056e-09
1.13029592e-09
3.24315191e-08
4.51721696e-08
9.32926198e-10
1.14029175e-09
2.90728847e-08
5.04298581e-08
5.01302501e-08
8.5603912e-10
1.16404053e-09
3.67275612e-08
4.67225242e-08
8.97188686e-10
1.11916286e-09
3.06822357e-08
5.15453253e-08
5.1087927e-08
8.2419852e-10
1.18655031e-09
3.885381e-08
4.55760196e-08
7.80072692e-10
1.23686986e-09
3.98284146e-08
4.44448389e-08
7.85625124e-10
1.25511294e-09
3.94029812e-08
4.3579369e-08
8.09729826e-10
1.26997352e-09
3.82648106e-08
4.24107319e-08
8.53159701e-10
1.28490734e-09
3.61983282e-08
4.06002968e-08
9.27961054e-10
1.29850459e-09
2.91230655e-08
3.89639523e-08
4.83359812e-08
4.81543428e-08
7.27947431e-10
1.19055559e-09
1.08405258e-09
1.23678032e-09
2.41527249e-08
4.00895308e-08
4.77403649e-08
4.76426976e-08
8.31447352e-10
3.34590905e-08
5.24578414e-08
7.98194928e-10
1.13398082e-09
4.05874204e-08
4.58875089e-08
7.61959809e-10
1.21574146e-09
4.23582862e-08
4.25212796e-08
7.39935596e-10
1.30635996e-09
1.16671266e-09
3.12943791e-08
4.43201862e-08
5.29073942e-08
5.27251073e-08
5.95365311e-10
1.16247546e-09
9.39147334e-10
1.27167277e-09
1.21974932e-09
3.18366926e-08
4.91473169e-08
4.88788377e-08
8.72258053e-10
1.10456118e-09
3.32145018e-08
5.31902968e-08
5.28378326e-08
8.29696731e-10
1.1896188e-09
4.14360506e-08
4.13138578e-08
7.30401668e-10
3.46538e-08
5.20626879e-08
6.83609994e-10
1.18414081e-09
9.90105092e-10
3.65079347e-08
4.9590429e-08
7.32288177e-10
1.10372728e-09
1.09372889e-09
1.11834556e-09
2.60571046e-08
4.83328645e-08
4.80369931e-08
9.30022735e-10
1.20514669e-09
3.10318959e-08
4.2323523e-08
4.88091472e-08
4.86595577e-08
7.73427682e-10
1.27136241e-09
1.11580567e-09
3.32843967e-08
5.16181824e-08
5.10791245e-08
8.39420995e-10
1.18371825e-09
3.93447751e-08
4.46608792e-08
8.0962809e-10
1.24918832e-09
4.15137045e-08
4.16545534e-08
7.97321776e-10
1.32901883e-09
1.19911075e-09
3.1182799e-08
4.39059604e-08
4.83491262e-08
4.8343505e-08
8.23325915e-10
1.17340069e-09
3.7889276e-08
4.46622021e-08
9.35169223e-10
1.14210938e-09
2.71004993e-08
4.95881731e-08
4.91505088e-08
7.34648097e-10
1.16520166e-09
8.80246665e-10
1.20380125e-09
5.28916058e-09
4.14430402e-08
4.60405137e-08
5.34908612e-08
5.34969587e-08
7.28365631e-10
1.15585077e-09
1.07551373e-09
4.00800211e-08
5.07318969e-08
8.56575696e-10
1.01413712e-09
3.55071835e-08
5.85121536e-08
5.79288547e-08
6.52252994e-10
1.07175722e-09
9.67384624e-10
1.14867768e-09
4.06519595e-08
4.27150315e-08
6.86762142e-10
3.68736698e-08
5.85881428e-08
6.10715955e-10
1.02026008e-09
9.41485086e-10
1.10822528e-09
4.17145485e-08
4.42078983e-08
6.97451011e-10
3.76359069e-08
5.45582444e-08
6.47671102e-10
1.1523624e-09
1.00806159e-09
3.60021269e-08
5.91558212e-08
5.88416876e-08
6.85227993e-10
1.02476057e-09
1.07362261e-09
1.07446469e-09
3.01807201e-08
5.16885012e-08
4.66214135e-08
8.54573351e-10
3.01151215e-08
5.15426934e-08
9.60578196e-10
1.07128381e-09
2.9313547e-08
5.09830209e-08
5.01107497e-08
8.94148049e-10
1.23825586e-09
1.15736987e-09
3.65063099e-08
4.49954757e-08
8.8606562e-10
1.23877371e-09
4.16200189e-08
4.21416597e-08
8.21695118e-10
1.31743891e-09
1.18742522e-09
2.25363412e-08
4.10474442e-08
4.70745786e-08
4.69825871e-08
8.77334462e-10
3.48065363e-08
5.22175726e-08
8.44207697e-10
1.11531918e-09
4.3268512e-08
4.86501173e-08
7.35122883e-10
1.15415436e-09
1.10083293e-09
1.18530287e-09
2.87816742e-08
4.36496568e-08
4.67072633e-08
4.81166503e-08
8.53670041e-10
1.08967723e-09
3.45870488e-08
5.43755791e-08
5.30866582e-08
8.30403591e-10
1.18830032e-09
1.06945839e-09
3.81218474e-08
4.89607298e-08
8.45578171e-10
1.16174987e-09
4.22167452e-08
4.58772262e-08
8.13285236e-10
1.20993863e-09
4.32407334e-08
4.33098283e-08
7.59299773e-10
1.28240077e-09
1.07243884e-09
2.05030228e-08
5.01541453e-08
4.85829315e-08
9.40614023e-10
3.81465645e-08
4.8648022e-08
7.91951671e-10
1.26989088e-09
1.08791825e-09
3.29473998e-08
4.75177018e-08
1.02347697e-09
1.15993578e-09
2.98915975e-08
4.72831367e-08
4.70417862e-08
1.01503011e-09
1.25470672e-09
2.03338197e-08
3.89243155e-08
4.57853108e-08
4.56675829e-08
9.43079427e-10
3.37522585e-08
4.91597303e-08
8.93973967e-10
1.12898889e-09
4.32095079e-08
4.802128e-08
7.05774789e-10
1.09994838e-09
9.83387169e-10
1.09126797e-09
4.30984825e-08
5.21725568e-08
8.76176103e-10
1.08815017e-09
3.43782801e-08
4.87248071e-08
4.83957595e-08
9.92652674e-10
1.14284704e-09
2.81311482e-08
4.75884156e-08
4.73632192e-08
9.79517971e-10
1.17247879e-09
3.62531388e-08
4.67949793e-08
9.89020535e-10
1.10146784e-09
3.32062223e-08
5.39058791e-08
5.29093849e-08
8.56146788e-10
1.17275653e-09
1.06981181e-09
4.0412366e-08
4.98778976e-08
8.14607468e-10
1.14606783e-09
4.78644236e-08
4.8210334e-08
7.06465186e-10
1.22532233e-09
1.05262247e-09
3.89847749e-08
5.05814482e-08
9.08579285e-10
1.11367092e-09
3.91400562e-08
4.82933615e-08
9.70854636e-10
1.08635576e-09
3.31841716e-08
5.10678141e-08
5.04667998e-08
8.73330772e-10
1.15263556e-09
4.35626096e-08
4.68921617e-08
7.39216696e-10
1.19210225e-09
1.04546061e-09
4.25560737e-08
5.17932987e-08
7.90795875e-10
1.1302645e-09
4.67071528e-08
4.66377079e-08
7.39540112e-10
1.27418934e-09
1.05678226e-09
3.15162541e-08
5.26728991e-08
4.78150555e-08
9.10792444e-10
3.75242928e-08
4.87506807e-08
8.16045654e-10
1.20236109e-09
1.05825321e-09
1.77155208e-08
5.03289251e-08
4.67139299e-08
9.54182713e-10
3.3115284e-08
4.97606096e-08
9.63691912e-10
1.18278566e-09
3.94984333e-08
4.42083994e-08
9.19883288e-10
1.25529476e-09
4.22244779e-08
4.20314412e-08
8.56133136e-10
1.34806853e-09
1.12885705e-09
2.94799583e-08
5.0789125e-08
4.53865372e-08
9.76984333e-10
2.80419724e-08
4.76921863e-08
1.04435033e-09
1.22010832e-09
3.59129661e-08
4.18613586e-08
1.07289194e-09
1.27482028e-09
2.99704455e-08
3.99133392e-08
4.55617955e-08
4.56114757e-08
9.31192713e-10
1.14129622e-09
4.14291155e-08
5.16010651e-08
9.37865654e-10
9.05441132e-10
3.99467783e-08
7.20243287e-10
1.31012652e-09
4.27694669e-08
4.28580397e-08
9.51299539e-10
1.27642165e-09
3.18858922e-08
4.02208525e-08
4.65006612e-08
4.62887386e-08
8.70272779e-10
1.19093077e-09
4.51823374e-08
4.83417659e-08
7.53701203e-10
1.15728243e-09
1.06422161e-09
1.16031895e-09
3.67935785e-08
4.83547385e-08
9.98938362e-10
1.13286472e-09
)
;

boundaryField
{
    closed
    {
        type            calculated;
        value           nonuniform List<scalar> 0();
    }
    open
    {
        type            calculated;
        value           nonuniform List<scalar> 0();
    }
    sides
    {
        type            empty;
    }
    procBoundary2to1
    {
        type            processor;
        value           uniform 4.21476637e-08;
    }
    procBoundary2to3
    {
        type            processor;
        value           uniform 3.44177074e-08;
    }
}


// ************************************************************************* //
