/*--------------------------------*- C++ -*----------------------------------*\
| =========                 |                                                 |
| \\      /  F ield         | OpenFOAM: The Open Source CFD Toolbox           |
|  \\    /   O peration     | Version:  2306                                  |
|   \\  /    A nd           | Website:  www.openfoam.com                      |
|    \\/     M anipulation  |                                                 |
\*---------------------------------------------------------------------------*/
FoamFile
{
    version     2.0;
    format      ascii;
    arch        "LSB;label=32;scalar=64";
    class       volScalarField;
    location    "0.00136";
    object      PV;
}
// * * * * * * * * * * * * * * * * * * * * * * * * * * * * * * * * * * * * * //

dimensions      [0 0 0 0 0 0 0];

internalField   nonuniform List<scalar> 
530
(
-0.00693967015
-0.00693574439
-0.00693582549
-0.00706314956
-0.00715546742
-0.00719536198
-0.00718910088
-0.00694301659
-0.00693272574
-0.00716633788
-0.00717758445
-0.00694373346
-0.00693230103
-0.00717352438
-0.00716766507
-0.00694466917
-0.00693267048
-0.00694213774
-0.00709014522
-0.00721163873
-0.00720207284
-0.00694476789
-0.0069357769
-0.00693990437
-0.00693500267
-0.00707957821
-0.00716089102
-0.0071983647
-0.0071960492
-0.00693897232
-0.00693489326
-0.00693548517
-0.00713310825
-0.00716786793
-0.00693756371
-0.00693473493
-0.00710158805
-0.00715255085
-0.00718732923
-0.00718644395
-0.00693845408
-0.00693541119
-0.00693562006
-0.00713123931
-0.00716271661
-0.00693876011
-0.00693311349
-0.00693611308
-0.00707308192
-0.00716961697
-0.00716349434
-0.00720552322
-0.00720169202
-0.00693837848
-0.00693424198
-0.00693509828
-0.0071456475
-0.00717180735
-0.00693637031
-0.00693617356
-0.00708574753
-0.00719086992
-0.00718389833
-0.00693944839
-0.00693081889
-0.00693709955
-0.00709699077
-0.0071891976
-0.00717981133
-0.00693941442
-0.00693002191
-0.00714924978
-0.00715450733
-0.00693713935
-0.00693096428
-0.00693345081
-0.00709497773
-0.00715549675
-0.0071821462
-0.00718113983
-0.00693616174
-0.00693433714
-0.00712266514
-0.00720448815
-0.00720015646
-0.00693830313
-0.00693518808
-0.00693504005
-0.00713245045
-0.00716556847
-0.00693843766
-0.00693581938
-0.00712329397
-0.00716360737
-0.00720968845
-0.00720703078
-0.00694350413
-0.00693741721
-0.0069410106
-0.00693622026
-0.00693631633
-0.00714694477
-0.00718401993
-0.0069397159
-0.00693370747
-0.00716060909
-0.00717886502
-0.00693961331
-0.00693291188
-0.00715077845
-0.00716662814
-0.00693770422
-0.00693352682
-0.00711189168
-0.00715492183
-0.00718343386
-0.00718242719
-0.00693701219
-0.00693436422
-0.00693486316
-0.00711953395
-0.00717040403
-0.00693535035
-0.00693539056
-0.00709750803
-0.00719066773
-0.00718453711
-0.0069372962
-0.00693172432
-0.00713972695
-0.00717459326
-0.00693485248
-0.00693494636
-0.00710563805
-0.00719526404
-0.00718681512
-0.00693942718
-0.0069300676
-0.00714959566
-0.00716838207
-0.00693986712
-0.0069303367
-0.00715322407
-0.00716481621
-0.00693990991
-0.00693053091
-0.00715185877
-0.00716218287
-0.00693964444
-0.00693080416
-0.00714774205
-0.00715857846
-0.00693886313
-0.0069312902
-0.00713998624
-0.00715301072
-0.00693727853
-0.00693239867
-0.00710108134
-0.00714788944
-0.00718288482
-0.00717972858
-0.00693898399
-0.00693400466
-0.00693665354
-0.00693320723
-0.00707189122
-0.00715151917
-0.0071788704
-0.00717781938
-0.00693516334
-0.0071243608
-0.00719516578
-0.00693789927
-0.00693368149
-0.00715465102
-0.00717180361
-0.00693929721
-0.00693349153
-0.00716140356
-0.00716077803
-0.00693866336
-0.00693458167
-0.00693526122
-0.00711416165
-0.00716794769
-0.00720017184
-0.00719687615
-0.00694209745
-0.00693518409
-0.00693999349
-0.00693340749
-0.00693639304
-0.0071147334
-0.00718682283
-0.00718179208
-0.00693715809
-0.00693477269
-0.00712177504
-0.00720107837
-0.00719442658
-0.00693920591
-0.006932107
-0.00715819858
-0.00715560964
-0.00693931546
-0.00713141619
-0.00719706635
-0.00693907291
-0.00693768267
-0.00693794546
-0.00714153496
-0.0071885479
-0.00694055746
-0.00693879632
-0.00693741292
-0.00693830354
-0.00708264123
-0.00718500565
-0.0071788051
-0.00693893143
-0.00693285522
-0.00711254075
-0.00715910197
-0.00718446984
-0.00718049888
-0.00693872067
-0.00693185671
-0.00693676192
-0.00712075521
-0.00719662012
-0.00718723926
-0.00694047181
-0.00693107915
-0.00715134892
-0.0071661194
-0.00693930982
-0.00693181368
-0.00715784994
-0.00715649838
-0.00693720424
-0.00693269445
-0.00693327636
-0.00711152171
-0.00716471807
-0.0071816245
-0.00717965622
-0.00693775914
-0.00693364144
-0.00714463639
-0.00716895156
-0.00693704171
-0.00693699784
-0.00708823703
-0.0071897802
-0.00718348644
-0.00694376261
-0.00693554422
-0.00694480969
-0.00693520488
-0.00697506966
-0.00715593014
-0.00717644116
-0.0072001548
-0.007200108
-0.00693866564
-0.00693551759
-0.00693581661
-0.00715159328
-0.0071906696
-0.0069370538
-0.00693757909
-0.00713368021
-0.00722249342
-0.00721339145
-0.00694435028
-0.00693525148
-0.0069412567
-0.00693452873
-0.00715660545
-0.00716201316
-0.00694095289
-0.00714133977
-0.00722095712
-0.00694222653
-0.00693883286
-0.00694034516
-0.00693647559
-0.00715972673
-0.00716783222
-0.00694051019
-0.00714391004
-0.00720579362
-0.00694054429
-0.0069373236
-0.00693743225
-0.00713768245
-0.0072242352
-0.00721882117
-0.0069429461
-0.00693777597
-0.00693805436
-0.00693784118
-0.00710616137
-0.0071964439
-0.00717395102
-0.00693888151
-0.00710486698
-0.0071945458
-0.00693599762
-0.00693751567
-0.00709983272
-0.00719342115
-0.00718639969
-0.00693776226
-0.00693439697
-0.00693410094
-0.00713998439
-0.0071692583
-0.00693776438
-0.00693318986
-0.00715805812
-0.00715896363
-0.00693776006
-0.00693327601
-0.00693475378
-0.00706242756
-0.00715535413
-0.0071765307
-0.00717587808
-0.00693550197
-0.00713256215
-0.00719469236
-0.00693804652
-0.00693450994
-0.00716354431
-0.00718213849
-0.00693907306
-0.00693503348
-0.00693624273
-0.0069340165
-0.00709829116
-0.00716436649
-0.00717579645
-0.00717927047
-0.00693745484
-0.00693498063
-0.00713049348
-0.00720487559
-0.00719710762
-0.00693800521
-0.00693525238
-0.00693516089
-0.00714579333
-0.00718358845
-0.00693908782
-0.00693461741
-0.00716120621
-0.00717272231
-0.00694019627
-0.00693463464
-0.00716547034
-0.0071642193
-0.00694070534
-0.00693519287
-0.00693792711
-0.00705215626
-0.00718918111
-0.00718188488
-0.00693572167
-0.00714446938
-0.00718236046
-0.00693653975
-0.00693388323
-0.00693393711
-0.00712150265
-0.0071781324
-0.00693439854
-0.00693447695
-0.00710178363
-0.00717848142
-0.00717358907
-0.00693552508
-0.00693172586
-0.00704934222
-0.00714600243
-0.00717141598
-0.00717005445
-0.00693473299
-0.00712628576
-0.00718385232
-0.00693783164
-0.00693530515
-0.00716409371
-0.00718062124
-0.0069404852
-0.00693596755
-0.006938072
-0.00693469
-0.00716239162
-0.00719492166
-0.00693678845
-0.00693585511
-0.00712908693
-0.00718470849
-0.00717998881
-0.00693679998
-0.00693497548
-0.00709291573
-0.0071799608
-0.00717517948
-0.00693682731
-0.00693240646
-0.00713821136
-0.00717509899
-0.00693546379
-0.00693500416
-0.00712184896
-0.00720270396
-0.00719567279
-0.00693705007
-0.0069345732
-0.00693463899
-0.00715282716
-0.00718600179
-0.0069375237
-0.00693399765
-0.00717925944
-0.00718010456
-0.00693742973
-0.00693457531
-0.00693447983
-0.00714826721
-0.00718932657
-0.00693679046
-0.00693550352
-0.00714823715
-0.00718250709
-0.00693554233
-0.00693768056
-0.00712160476
-0.0071952983
-0.00718652162
-0.00694128141
-0.00693364153
-0.00716634418
-0.00717609057
-0.00693915468
-0.00693589537
-0.00693582182
-0.00716157396
-0.00719361571
-0.0069389049
-0.00693500164
-0.00717648207
-0.00717517358
-0.006938943
-0.00693438534
-0.00693679784
-0.0071135879
-0.00719905512
-0.00717850372
-0.0069368523
-0.00714255673
-0.00718383316
-0.00693733863
-0.00693635872
-0.00693644917
-0.00703692115
-0.00718838617
-0.00717555104
-0.00693407381
-0.00712328654
-0.00718528536
-0.00693631404
-0.00693300108
-0.00715035334
-0.00716558917
-0.00693677695
-0.00693228246
-0.00716002092
-0.00715781617
-0.00693654044
-0.00693178713
-0.00693482895
-0.00710005694
-0.00719060432
-0.00716823002
-0.00693415009
-0.00709200461
-0.00717735252
-0.00693332586
-0.00693204467
-0.0071360356
-0.00715728227
-0.00693294742
-0.00693248975
-0.00710327292
-0.00715085743
-0.00717060851
-0.0071704671
-0.00693480102
-0.0069347898
-0.00715495389
-0.00719474519
-0.00693296683
-0.00694029687
-0.00714632547
-0.00694186048
-0.00692839643
-0.00716426323
-0.00715929545
-0.00693818626
-0.00693161302
-0.0071178433
-0.0071516121
-0.0071767142
-0.00717220816
-0.00693824955
-0.00693268087
-0.00717142291
-0.00718008382
-0.00693868925
-0.00693385651
-0.00693662881
-0.00693295351
-0.00714030659
-0.00718088367
-0.00693417387
-0.00693456452
)
;

boundaryField
{
    closed
    {
        type            zeroGradient;
    }
    open
    {
        type            zeroGradient;
    }
    sides
    {
        type            empty;
    }
    procBoundary2to1
    {
        type            processor;
        value           uniform -0.007160578;
    }
    procBoundary2to3
    {
        type            processor;
        value           uniform -0.00712802498;
    }
}


// ************************************************************************* //
