/*--------------------------------*- C++ -*----------------------------------*\
| =========                 |                                                 |
| \\      /  F ield         | OpenFOAM: The Open Source CFD Toolbox           |
|  \\    /   O peration     | Version:  2306                                  |
|   \\  /    A nd           | Website:  www.openfoam.com                      |
|    \\/     M anipulation  |                                                 |
\*---------------------------------------------------------------------------*/
FoamFile
{
    version     2.0;
    format      ascii;
    arch        "LSB;label=32;scalar=64";
    class       volScalarField;
    location    "0.00136";
    object      Z;
}
// * * * * * * * * * * * * * * * * * * * * * * * * * * * * * * * * * * * * * //

dimensions      [0 0 0 0 0 0 0];

internalField   nonuniform List<scalar> 
530
(
0.0141258471
0.0140785399
0.0140902445
0.0144703397
0.014770623
0.0148953105
0.014886205
0.0141337325
0.0140868422
0.0147990082
0.0148469574
0.014136807
0.0140819467
0.014822019
0.0148113152
0.0141417094
0.0140737698
0.0141069804
0.0145591001
0.0149431741
0.0149255294
0.0141351396
0.0140905487
0.0141002532
0.0140855152
0.0145207185
0.014785199
0.0149082854
0.0149048283
0.0141274788
0.0140819325
0.0140922656
0.014690699
0.014808787
0.0141102396
0.0140819709
0.0145925687
0.0147566471
0.0148729865
0.0148718818
0.0141235497
0.0140818268
0.0140939709
0.0146848002
0.0147928931
0.0141193249
0.01407506
0.0140892973
0.014508915
0.0148154169
0.0148014288
0.0149357083
0.0149297531
0.0141267582
0.0140864876
0.0140899625
0.0147373681
0.0148236309
0.0141115968
0.01409067
0.0145496935
0.0148821544
0.0148713757
0.0141180283
0.0140749569
0.014090524
0.0145872707
0.0148758835
0.0148598439
0.0141169011
0.0140777497
0.0147472587
0.0147707593
0.0141169636
0.0140701329
0.0140829243
0.0145768948
0.0147722715
0.0148612684
0.0148605742
0.0141162659
0.0140923314
0.0146665884
0.0149304913
0.0149235487
0.014118692
0.0140848531
0.0140890438
0.0146890714
0.0148011098
0.0141102226
0.0140858147
0.0146600144
0.0147922685
0.0149445809
0.0149393131
0.0141419931
0.0140932015
0.0141155752
0.0140849185
0.0140911678
0.0147337436
0.0148630127
0.0141186794
0.0140854122
0.0147810761
0.0148481009
0.0141198584
0.0140819009
0.0147496152
0.0148064515
0.0141107299
0.0140797281
0.0146255433
0.0147656971
0.0148608132
0.014859572
0.0141156623
0.0140786109
0.014088682
0.0146488652
0.0148178008
0.0141029777
0.0140882458
0.014585832
0.0148823198
0.014873306
0.0141102907
0.0140837198
0.0147170877
0.0148351807
0.0141057227
0.0140896649
0.0146140892
0.0148967916
0.0148837606
0.0141146127
0.0140807455
0.0147449156
0.0148184317
0.0141178084
0.0140767789
0.0147564427
0.014804649
0.0141171232
0.0140751207
0.0147511318
0.0147943058
0.0141148829
0.0140739536
0.014737129
0.0147808231
0.0141109544
0.0140732174
0.0147119331
0.0147606162
0.0141044
0.0140735664
0.0145896856
0.0147427445
0.0148565817
0.0148513584
0.0141198446
0.0140828485
0.014093296
0.0140790494
0.0145017517
0.0147561477
0.0148480575
0.0148459401
0.014110579
0.0146665982
0.0149050595
0.014114876
0.01408797
0.0147643637
0.0148251662
0.0141186359
0.0140811657
0.0147858583
0.014785024
0.0141189996
0.0140747392
0.0140864441
0.0146291659
0.0148086331
0.0149118825
0.0149073399
0.0141312964
0.0140856802
0.0141058318
0.014076073
0.0140826063
0.014636009
0.0148672036
0.0148594317
0.014108989
0.01409002
0.0146617841
0.014916176
0.0149060348
0.0141142064
0.0140820896
0.0147753668
0.0147699955
0.0141207907
0.0146876703
0.0149030555
0.014122477
0.0140865022
0.0141005806
0.0147151696
0.0148722733
0.0141203993
0.0140926361
0.0140926675
0.014091252
0.0145340785
0.0148580378
0.0148495537
0.0141060446
0.0140816636
0.0146253118
0.0147834427
0.0148625202
0.0148577934
0.0141169474
0.0140764835
0.014091471
0.0146615614
0.0148990979
0.0148842847
0.0141149039
0.0140819641
0.0147510892
0.0148089555
0.0141156657
0.0140774165
0.0147754125
0.0147736535
0.0141141282
0.0140718517
0.0140827418
0.0146252996
0.0148022938
0.0148555301
0.0148541967
0.0141129687
0.0140848789
0.0147316428
0.0148124674
0.0141049257
0.0140897709
0.0145533097
0.0148749384
0.0148641966
0.0141252264
0.0140865425
0.0141168284
0.0140835866
0.0142141951
0.0147719156
0.0148340122
0.0149180844
0.014919242
0.0141211556
0.0140880807
0.0140945989
0.014756996
0.014886107
0.0141111872
0.0140999384
0.0147019617
0.0149842448
0.0149687815
0.0141322664
0.014093388
0.0141070852
0.0140870259
0.0147677212
0.0147884772
0.0141260451
0.0147185777
0.0149834947
0.0141316419
0.01410026
0.0141074229
0.0140916296
0.0147793043
0.0148068776
0.0141250896
0.0147275098
0.0149345813
0.0141271387
0.0140904999
0.0140995787
0.0147103742
0.0149906228
0.0149825766
0.0141283795
0.0140991742
0.0140963562
0.014095777
0.0146089079
0.0149000983
0.0148336975
0.0141128836
0.014605408
0.0148972235
0.014102138
0.0140956347
0.0145910849
0.0148899262
0.0148745769
0.0141077625
0.0140795749
0.0140855605
0.0147135573
0.0148142448
0.0141075135
0.0140785849
0.0147748946
0.0147793341
0.0141120999
0.0140726606
0.0140841768
0.0144732082
0.0147680897
0.0148395015
0.0148384292
0.0141075827
0.0146919595
0.0149024316
0.0141118404
0.0140900146
0.0147951471
0.0148585845
0.0141200649
0.0140868315
0.0140920556
0.0140839764
0.0145833248
0.0147996724
0.0148365297
0.0148520807
0.0141114648
0.0140920724
0.0146891216
0.0149305845
0.0149114542
0.0141132333
0.0140846305
0.0140936439
0.0147334918
0.0148629529
0.014112166
0.0140860963
0.0147836729
0.0148252665
0.0141154137
0.0140821338
0.0147965965
0.0147947531
0.0141192501
0.0140770199
0.0140949427
0.0144404054
0.0148774291
0.0148568197
0.0141025146
0.0147317778
0.0148581735
0.0141129578
0.0140768094
0.0140903491
0.0146561556
0.0148448363
0.0140958221
0.0140859599
0.0145999697
0.0148434834
0.0148369206
0.0140979671
0.0140777969
0.0144372646
0.0147420132
0.0148250306
0.0148226217
0.0141033246
0.0146736783
0.014866913
0.014109018
0.0140905813
0.0147962723
0.0148529989
0.0141239903
0.0140921795
0.0141022624
0.0140916974
0.014792545
0.014901602
0.0141093842
0.014093063
0.0146854364
0.0148634405
0.0148558375
0.0141018423
0.0140888731
0.0145715451
0.0148487357
0.0148421245
0.0141021247
0.0140845152
0.0147121986
0.0148373145
0.0141005872
0.0140915987
0.0146631027
0.0149247756
0.0149089624
0.0141110442
0.0140857838
0.0140937994
0.0147605041
0.0148736542
0.0141136862
0.0140872509
0.0148500335
0.0148520599
0.0141208231
0.0140807948
0.014094412
0.0147428337
0.0148829444
0.0141059225
0.0140909331
0.0147452907
0.0148569931
0.0141013795
0.0140947222
0.0146619737
0.0148937182
0.0148790246
0.014113853
0.0140866191
0.0148018161
0.0148377035
0.0141205785
0.0140847051
0.0140963842
0.0147864139
0.0148973192
0.01411612
0.0140893115
0.0148373369
0.0148346954
0.0141197537
0.0140778903
0.0140960129
0.0146326104
0.0149106889
0.0148484286
0.0141069542
0.0147260925
0.0148626259
0.0141130338
0.0140853007
0.014095544
0.0143961572
0.0148789903
0.0148357352
0.0141007656
0.0146609839
0.0148715633
0.0141014295
0.0140833135
0.0147499038
0.0148042186
0.0141047542
0.0140768672
0.0147823344
0.0147773353
0.0141086463
0.0140691739
0.0140883223
0.0145916411
0.0148848145
0.0148157777
0.0140990932
0.0145657653
0.014845801
0.0140925721
0.0140797276
0.0147051432
0.0147768748
0.014090697
0.0140763418
0.0146020125
0.014754821
0.014821075
0.0148221562
0.0141026581
0.0140882482
0.014770665
0.0148966244
0.0141005534
0.0141089178
0.0147488031
0.0141226171
0.0140699133
0.0147917979
0.0147862285
0.0141042639
0.0140751839
0.0146418201
0.0147578325
0.01483552
0.014828986
0.0141097388
0.014082391
0.0148187504
0.0148525703
0.0141175995
0.0140846237
0.0140940787
0.0140837262
0.0147166364
0.0148538748
0.0140972652
0.0140876487
)
;

boundaryField
{
    closed
    {
        type            zeroGradient;
    }
    open
    {
        type            zeroGradient;
    }
    sides
    {
        type            empty;
    }
    procBoundary2to1
    {
        type            processor;
        value           uniform 0.014783001;
    }
    procBoundary2to3
    {
        type            processor;
        value           uniform 0.0146828558;
    }
}


// ************************************************************************* //
