/*--------------------------------*- C++ -*----------------------------------*\
| =========                 |                                                 |
| \\      /  F ield         | OpenFOAM: The Open Source CFD Toolbox           |
|  \\    /   O peration     | Version:  2306                                  |
|   \\  /    A nd           | Website:  www.openfoam.com                      |
|    \\/     M anipulation  |                                                 |
\*---------------------------------------------------------------------------*/
FoamFile
{
    version     2.0;
    format      ascii;
    arch        "LSB;label=32;scalar=64";
    class       volScalarField;
    location    "0.00114";
    object      H;
}
// * * * * * * * * * * * * * * * * * * * * * * * * * * * * * * * * * * * * * //

dimensions      [0 0 0 0 0 0 0];

internalField   nonuniform List<scalar> 
530
(
3.74910486e-05
3.66778624e-05
3.59567721e-05
3.51745241e-05
3.44805113e-05
3.37276628e-05
3.30589804e-05
3.23340089e-05
3.16890923e-05
3.09904889e-05
3.03679262e-05
2.96942026e-05
2.91293228e-05
2.85587286e-05
2.80477912e-05
2.74755539e-05
2.69572007e-05
2.63983897e-05
2.59003356e-05
2.53636061e-05
2.4884939e-05
2.43690715e-05
2.39089308e-05
2.34127598e-05
2.29703271e-05
2.24927398e-05
2.2067236e-05
2.16071668e-05
2.11978506e-05
2.07542767e-05
2.03663465e-05
1.99971133e-05
1.96699113e-05
1.93132212e-05
1.89980556e-05
1.86532627e-05
1.83497297e-05
1.80162148e-05
1.7723925e-05
1.74010977e-05
1.71196736e-05
1.68069716e-05
1.65360462e-05
1.62329339e-05
1.59721506e-05
1.5678116e-05
1.54271299e-05
1.5141681e-05
1.49001608e-05
1.46228214e-05
1.43904514e-05
1.41207586e-05
1.389724e-05
1.36347435e-05
1.34197917e-05
1.31640595e-05
1.29573943e-05
1.27080278e-05
1.25179379e-05
1.23182752e-05
1.21612772e-05
1.19663353e-05
1.18150363e-05
1.16248422e-05
1.1478799e-05
1.12961932e-05
1.11528916e-05
1.09765096e-05
1.08346776e-05
1.06658541e-05
1.05244984e-05
1.03640747e-05
1.02230992e-05
1.00708306e-05
9.93023243e-06
9.78581368e-06
9.64562647e-06
9.50873938e-06
9.36899393e-06
9.23934145e-06
9.10004904e-06
8.97736541e-06
8.83851413e-06
8.72256276e-06
8.58412652e-06
8.47468489e-06
8.33664549e-06
8.23347645e-06
8.09585821e-06
7.99866981e-06
7.86158206e-06
7.7699826e-06
7.63550387e-06
7.54531431e-06
7.41541912e-06
7.32638344e-06
7.20103826e-06
7.11304289e-06
6.9921067e-06
6.90512293e-06
6.78839872e-06
6.70243613e-06
6.58970908e-06
6.50478422e-06
6.39584522e-06
6.31196456e-06
6.22251696e-06
6.1612375e-06
6.08593933e-06
6.02530596e-06
5.95226866e-06
5.89229508e-06
5.82143722e-06
5.7621355e-06
5.69337895e-06
5.6347597e-06
5.56802967e-06
5.51010203e-06
5.445327e-06
5.3880987e-06
5.32521028e-06
5.2686877e-06
5.20762055e-06
5.15180873e-06
5.09250044e-06
5.03740314e-06
4.97979415e-06
4.92541386e-06
4.86944743e-06
4.81578532e-06
4.76140749e-06
4.70846349e-06
4.655623e-06
4.60339576e-06
4.55204395e-06
4.50053098e-06
4.45062168e-06
4.39981937e-06
4.3513087e-06
4.30121255e-06
4.25405862e-06
4.2046635e-06
4.15882603e-06
4.11012655e-06
4.06556635e-06
4.01755736e-06
3.97423574e-06
3.92691285e-06
3.88479114e-06
3.8381511e-06
3.79719052e-06
3.75123119e-06
3.71139329e-06
3.66611312e-06
3.62736033e-06
3.58275828e-06
3.5450533e-06
3.50112997e-06
3.46443545e-06
3.4211959e-06
3.38547311e-06
3.34351418e-06
3.30809955e-06
3.26689018e-06
3.23230487e-06
3.19184304e-06
3.15804826e-06
3.11835109e-06
3.08529466e-06
3.04638372e-06
3.01401471e-06
2.97590577e-06
2.94418044e-06
2.90688115e-06
2.87576413e-06
2.83927424e-06
2.80873781e-06
2.77305053e-06
2.74307321e-06
2.70817694e-06
2.67874175e-06
2.64462175e-06
2.6157147e-06
2.58235439e-06
2.55396326e-06
2.52134525e-06
2.49345869e-06
2.4615655e-06
2.4341724e-06
2.40298693e-06
2.3760761e-06
2.34558187e-06
2.319142e-06
2.28932321e-06
2.26334304e-06
2.23365056e-06
2.20718911e-06
2.17760819e-06
2.15159751e-06
2.12258861e-06
2.09701431e-06
2.06856071e-06
2.04340944e-06
2.01549389e-06
1.99075281e-06
1.96335794e-06
1.93901401e-06
1.91212295e-06
1.88816218e-06
1.8617591e-06
1.83816601e-06
1.81223641e-06
1.79203837e-06
1.77841816e-06
1.76606427e-06
1.75260674e-06
1.74035473e-06
1.72706012e-06
1.71490857e-06
1.70177604e-06
1.6897246e-06
1.6767525e-06
1.66480144e-06
1.65198777e-06
1.64013749e-06
1.6274804e-06
1.61573104e-06
1.60322914e-06
1.59158041e-06
1.57923301e-06
1.56768418e-06
1.55543341e-06
1.54319087e-06
1.53040063e-06
1.51840373e-06
1.50587741e-06
1.49411943e-06
1.48185352e-06
1.47032845e-06
1.45831888e-06
1.44702133e-06
1.43526357e-06
1.4241886e-06
1.41267783e-06
1.4018208e-06
1.39055199e-06
1.37990848e-06
1.36887647e-06
1.35844218e-06
1.34764175e-06
1.33741243e-06
1.32683837e-06
1.31680977e-06
1.30645695e-06
1.29662475e-06
1.2864882e-06
1.27684793e-06
1.26692294e-06
1.25746994e-06
1.24775212e-06
1.23848149e-06
1.22896687e-06
1.2198734e-06
1.2105586e-06
1.20163673e-06
1.19251905e-06
1.18376292e-06
1.17463556e-06
1.16532915e-06
1.1558247e-06
1.14662256e-06
1.13722346e-06
1.12812262e-06
1.11883067e-06
1.10982918e-06
1.10064539e-06
1.09174211e-06
1.08266694e-06
1.07386122e-06
1.06489478e-06
1.05618631e-06
1.04732845e-06
1.03871711e-06
1.02996749e-06
1.02145331e-06
1.01281148e-06
1.00439453e-06
9.95859981e-07
9.87540351e-07
9.79112531e-07
9.70890288e-07
9.62568651e-07
9.54443825e-07
9.46227833e-07
9.38200409e-07
9.3008954e-07
9.22159455e-07
9.14153202e-07
9.06320346e-07
8.98418219e-07
8.90682439e-07
8.82883954e-07
8.75245065e-07
8.67549732e-07
8.60007531e-07
8.52414841e-07
8.44969125e-07
8.37478519e-07
8.3012912e-07
8.22739962e-07
8.15486778e-07
8.08198318e-07
8.01041358e-07
7.93852699e-07
7.8679212e-07
7.79702199e-07
7.72738323e-07
7.65745916e-07
7.5887922e-07
7.51982992e-07
7.45214045e-07
7.38412635e-07
7.31742029e-07
7.25034123e-07
7.18462558e-07
7.11846792e-07
7.05363422e-07
6.98118474e-07
6.91036833e-07
6.83939683e-07
6.76988515e-07
6.70033381e-07
6.6321077e-07
6.56392901e-07
6.49696809e-07
6.43011863e-07
6.36440227e-07
6.2988417e-07
6.23434846e-07
6.17003975e-07
6.10674704e-07
6.04365643e-07
5.98154066e-07
5.91963725e-07
5.85867417e-07
5.79792936e-07
5.73809455e-07
5.67848149e-07
5.61975076e-07
5.56124382e-07
5.50359358e-07
5.44616799e-07
5.38957549e-07
5.33320711e-07
5.27765053e-07
5.22231577e-07
5.16777419e-07
5.11345019e-07
5.0599033e-07
5.00656835e-07
4.95399587e-07
4.90163025e-07
4.85001111e-07
4.79859778e-07
4.74790935e-07
4.69743404e-07
4.64765224e-07
4.59810215e-07
4.54977927e-07
4.50195995e-07
4.45476933e-07
4.40778181e-07
4.36142156e-07
4.31525638e-07
4.26970695e-07
4.22435272e-07
4.17959724e-07
4.1350408e-07
4.09106479e-07
4.04729212e-07
4.0040826e-07
3.96107967e-07
3.91862446e-07
3.87637766e-07
3.83466494e-07
3.79316129e-07
3.75217946e-07
3.71140656e-07
3.67114423e-07
3.63109025e-07
3.59153624e-07
3.55218981e-07
3.51333323e-07
3.4746834e-07
3.43651363e-07
3.3985498e-07
3.36105656e-07
3.32376845e-07
3.28694173e-07
3.25031937e-07
3.21414945e-07
3.17818313e-07
3.14266057e-07
3.10734086e-07
3.07245647e-07
3.03777417e-07
3.00351898e-07
2.96946513e-07
2.93583041e-07
2.90239627e-07
2.86937347e-07
2.83655048e-07
2.80413127e-07
2.77191108e-07
2.74008728e-07
2.7084617e-07
2.6772253e-07
2.64618632e-07
2.61552945e-07
2.5850692e-07
2.55498415e-07
2.5250949e-07
2.49557408e-07
2.46624821e-07
2.43728415e-07
2.4085142e-07
2.38009953e-07
2.35187812e-07
2.32400559e-07
2.29632545e-07
2.26898788e-07
2.24184184e-07
2.21503217e-07
2.18841312e-07
2.16212435e-07
2.1360253e-07
2.11025051e-07
2.08466452e-07
2.05939685e-07
2.03431706e-07
2.00954973e-07
1.98496933e-07
1.96069561e-07
1.93660787e-07
1.9128211e-07
1.88921933e-07
1.86591289e-07
1.84279045e-07
1.81995779e-07
1.7973081e-07
1.77494269e-07
1.75275922e-07
1.73083151e-07
1.70828715e-07
1.68445945e-07
1.65918873e-07
1.63252504e-07
1.60430248e-07
1.5745835e-07
1.54319969e-07
1.51022875e-07
1.47550511e-07
1.43912504e-07
1.40093296e-07
1.36104753e-07
1.31933272e-07
1.27593359e-07
1.23074564e-07
1.18394458e-07
1.13547192e-07
1.0855377e-07
1.03414624e-07
9.81544405e-08
9.27817216e-08
8.7324837e-08
8.18020679e-08
7.6245057e-08
7.06831273e-08
6.51501674e-08
5.96868205e-08
5.43273753e-08
4.91223333e-08
4.41036442e-08
3.93275246e-08
3.48202384e-08
3.06359377e-08
2.67921374e-08
2.33292109e-08
2.02542593e-08
1.75806996e-08
1.53037794e-08
1.34042147e-08
1.18589545e-08
1.06291177e-08
9.6696403e-09
9.02876721e-09
9.02812978e-09
9.02774525e-09
9.02756552e-09
9.02748606e-09
9.02745491e-09
9.02744513e-09
9.02744034e-09
9.02743846e-09
9.02743793e-09
9.02743779e-09
9.02743775e-09
9.02743775e-09
9.02743775e-09
9.02743774e-09
9.02743774e-09
9.02743774e-09
9.02743774e-09
9.02743774e-09
9.02743774e-09
9.02743774e-09
9.02743774e-09
9.02743774e-09
9.02743774e-09
9.02743774e-09
9.02743774e-09
9.02743774e-09
9.02743774e-09
9.02743774e-09
9.02743774e-09
9.02743774e-09
9.02743774e-09
9.02743774e-09
9.02743774e-09
9.02743774e-09
)
;

boundaryField
{
    closed
    {
        type            calculated;
        value           nonuniform List<scalar> 0();
    }
    open
    {
        type            calculated;
        value           uniform 9.02743774e-09;
    }
    sides
    {
        type            empty;
    }
    procBoundary5to4
    {
        type            processor;
        value           uniform 3.82411553e-05;
    }
}


// ************************************************************************* //
