/*--------------------------------*- C++ -*----------------------------------*\
| =========                 |                                                 |
| \\      /  F ield         | OpenFOAM: The Open Source CFD Toolbox           |
|  \\    /   O peration     | Version:  2306                                  |
|   \\  /    A nd           | Website:  www.openfoam.com                      |
|    \\/     M anipulation  |                                                 |
\*---------------------------------------------------------------------------*/
FoamFile
{
    version     2.0;
    format      ascii;
    arch        "LSB;label=32;scalar=64";
    class       volScalarField;
    location    "0.00114";
    object      h;
}
// * * * * * * * * * * * * * * * * * * * * * * * * * * * * * * * * * * * * * //

dimensions      [0 2 -2 0 0 0 0];

internalField   nonuniform List<scalar> 
530
(
-172.112731
311.401525
753.536068
1230.28206
1657.19135
2128.40236
2542.01194
3008.55941
3411.05696
3873.68149
4267.38263
4726.71708
5075.59756
5446.76657
5746.6526
6145.37488
6473.61917
6879.47007
7197.00534
7595.59987
7903.87174
8295.47943
8595.77326
8980.79414
9274.31867
9653.22708
9941.18905
10314.4799
10598.1707
10966.291
11240.8264
11540.7957
11757.253
12051.7329
12262.7812
12551.6103
12757.8213
13041.1424
13242.844
13521.0017
13718.3951
13991.8389
14185.0712
14454.2941
14643.5033
14909.0026
15094.3495
15356.6017
15538.2924
15797.7408
15976.0397
16233.0973
16408.3289
16663.3972
16835.9398
17089.432
17259.718
17512.0427
17671.464
17876.0012
18001.8473
18204.4466
18325.9917
18525.6436
18643.9354
18828.2521
18950.9225
19128.8662
19259.4372
19425.1198
19565.7906
19716.1557
19865.4078
20002.0966
20158.4234
20282.9982
20445.1143
20558.9132
20725.7177
20829.894
21000.4446
21095.9721
21269.5131
21357.1468
21533.1703
21613.3973
21791.6695
21864.7338
22045.175
22111.2961
22293.6154
22353.4701
22531.4289
22596.8073
22765.1334
22835.6493
22995.2764
23069.962
23222.0971
23299.9924
23445.7318
23526.1012
23666.3352
23748.6626
23884.1298
23968.0184
24082.5945
24143.8098
24240.8627
24301.434
24393.7912
24453.3914
24541.2611
24599.6402
24683.1842
24740.1279
24819.483
24874.8023
24950.0821
25003.6122
25074.9072
25126.506
25193.887
25243.4312
25306.9539
25354.3349
25414.0447
25459.1648
25515.1002
25557.8701
25610.0657
25650.4031
25698.8898
25736.7194
25781.5252
25816.7786
25857.9281
25890.5453
25928.0589
25957.9882
25991.8831
26019.0807
26049.3718
26073.7998
26100.5038
26122.1257
26145.267
26164.0406
26183.6593
26199.5293
26215.6856
26228.5796
26241.3481
26251.1822
26260.6365
26267.3256
26273.5401
26276.9869
26280.0723
26280.1701
26280.1679
26279.8625
26274.4463
26270.1833
26261.8894
26254.5353
26242.7603
26232.7913
26217.2857
26204.8142
26185.5962
26170.5559
26147.7659
26130.0445
26103.851
26083.35
26053.9099
26030.5597
25998.0085
25971.7677
25936.2218
25907.0733
25868.6335
25836.5808
25795.3364
25760.4
25716.4319
25678.6473
25632.0305
25591.4462
25542.252
25498.9287
25447.2263
25401.2358
25347.0956
25299.5308
25244.8922
25195.6945
25138.9243
25087.2929
25028.4722
24974.5091
24913.7319
24857.5407
24794.9124
24736.6007
24672.2352
24611.9191
24545.9331
24483.7438
24416.2484
24352.34
24280.2117
24201.9196
24119.5656
24039.1177
23954.7581
23872.2336
23785.9202
23701.3775
23613.1769
23526.6667
23436.6479
23348.2217
23256.4504
23166.165
23072.7024
22980.6207
22885.5241
22791.7147
22695.0392
22599.6699
22502.7515
22406.7755
22308.1914
22210.3706
22110.1737
22010.5922
21908.8407
21807.5804
21704.3368
21601.4779
21496.8074
21392.4293
21286.3995
21180.5808
21073.2605
20966.0794
20857.5386
20749.0732
20639.3825
20529.7103
20418.9407
20308.1395
20196.362
20084.5095
19971.7945
19858.969
19745.386
19631.6665
19517.2833
19402.7503
19287.6326
19172.3685
19056.5796
18940.6693
18824.2699
18708.2122
18592.7285
18477.2157
18361.4637
18245.6162
18129.637
18013.5255
17897.3663
17781.0564
17664.7678
17548.3214
17431.9559
17315.4325
17199.0432
17082.5002
16966.1401
16849.6335
16733.3554
16616.9398
16500.7956
16384.5246
16268.5653
16152.4913
16036.7673
15920.9416
15805.502
15689.975
15574.8681
15459.6889
15344.9619
15230.1789
15115.8778
15001.538
14887.7079
14773.8573
14660.5423
14547.2257
14434.4686
14321.7296
14209.5723
14097.4534
13985.9368
13874.479
13763.643
13652.8859
13542.7696
13432.7512
13323.3932
13214.1497
13105.5881
12997.1535
12889.4263
12781.8328
12674.9777
12568.2557
12462.3098
12356.4884
12251.4883
12146.5954
12042.5993
11939.8499
11837.9234
11736.1064
11635.0784
11534.2181
11434.1272
11334.25
11235.1322
11136.2645
11038.1532
10940.3214
10843.2475
10746.4773
10650.4696
10554.7862
10459.8712
10365.2989
10271.5012
10178.0631
10085.4056
9993.1235
9901.62761
9810.52204
9720.20769
9630.29762
9541.18337
9452.48634
9364.58943
9277.12149
9190.4579
9104.2337
9018.81808
8933.851
8849.69652
8765.99903
8683.11714
8600.70107
8519.10123
8437.978
8357.6676
8277.84781
8198.66463
8119.91388
8041.98491
7964.5704
7887.98007
7811.90729
7736.65716
7661.92961
7588.02105
7514.64048
7442.07446
7370.0413
7298.81812
7228.1317
7158.25081
7088.90958
7020.36946
6952.37103
6885.16921
6818.51039
6752.64349
6687.32028
6622.78403
6558.79163
6495.58093
6432.91376
6371.0227
6309.67442
6249.09631
6189.05981
6129.78721
6071.05466
6013.07943
5955.64228
5898.95553
5842.80455
5787.39676
5732.52205
5678.38299
5624.77402
5571.89285
5519.53846
5467.90373
5416.79216
5366.39182
5316.51075
5267.33218
5218.66874
5170.69879
5123.23957
5076.46457
5030.19568
4984.60147
4939.50853
4895.08047
4851.14866
4807.87168
4765.08575
4722.94437
4681.28867
4640.26701
4599.72551
4559.80734
4520.36367
4481.53242
4443.16987
4405.40866
4368.11024
4331.4019
4295.15034
4259.47746
4224.25523
4189.60016
4155.38954
4121.7344
4088.51744
4055.84422
4023.60281
3991.8933
3960.60919
3929.84507
3899.49986
3869.66269
3840.2379
3811.2787
3781.67863
3750.54454
3717.74579
3683.33873
3647.20086
3609.40878
3569.85579
3528.64329
3485.69021
3441.12742
3394.91127
3347.20652
3298.02071
3247.5556
3195.88463
3143.24757
3089.7977
3035.80983
2981.52772
2927.25258
2873.32165
2820.04653
2767.84824
2717.02418
2668.05178
2621.18147
2576.89958
2535.37158
2497.02915
2461.91582
2430.34305
2402.20677
2377.6523
2356.42937
2338.50556
2323.53505
2311.31792
2301.52001
2293.80721
2287.90987
2283.52831
2280.44554
2278.15723
2275.90538
2274.61907
2274.11806
2273.94418
2273.89877
2273.89167
2273.89141
2273.89289
2273.89393
2273.89439
2273.89455
2273.89459
2273.89461
2273.89461
2273.89461
2273.89461
2273.89461
2273.89461
2273.89461
2273.89461
2273.89461
2273.89461
2273.89461
2273.89461
2273.89461
2273.89461
2273.89461
2273.89461
2273.89461
2273.89461
2273.89461
2273.89461
2273.89461
2273.89461
)
;

boundaryField
{
    closed
    {
        type            lookUpEnthalpy;
        h0              nonuniform List<scalar> 0();
        value           nonuniform List<scalar> 0();
    }
    open
    {
        type            zeroGradient;
    }
    sides
    {
        type            empty;
    }
    procBoundary5to4
    {
        type            processor;
        value           uniform -630.64572;
    }
}


// ************************************************************************* //
