/*--------------------------------*- C++ -*----------------------------------*\
| =========                 |                                                 |
| \\      /  F ield         | OpenFOAM: The Open Source CFD Toolbox           |
|  \\    /   O peration     | Version:  2306                                  |
|   \\  /    A nd           | Website:  www.openfoam.com                      |
|    \\/     M anipulation  |                                                 |
\*---------------------------------------------------------------------------*/
FoamFile
{
    version     2.0;
    format      ascii;
    arch        "LSB;label=32;scalar=64";
    class       volScalarField;
    location    "0.00114";
    object      sourcePV;
}
// * * * * * * * * * * * * * * * * * * * * * * * * * * * * * * * * * * * * * //

dimensions      [1 -3 -1 0 0 0 0];

internalField   nonuniform List<scalar> 
530
(
0.299525044
0.292632473
0.286492764
0.279887798
0.274006583
0.267673164
0.262032469
0.255955199
0.250538755
0.244702714
0.239495766
0.233886514
0.229180778
0.224447607
0.220208984
0.215463348
0.211162983
0.206535416
0.202417128
0.1979841
0.194038601
0.189788934
0.186007563
0.181930602
0.178305204
0.174390811
0.170913685
0.167152206
0.16381605
0.160198288
0.157044136
0.154038915
0.151386201
0.148490405
0.145942281
0.143150164
0.140702591
0.138008592
0.135657768
0.13305655
0.130798847
0.128285322
0.126117249
0.123686577
0.121604773
0.119252341
0.117253571
0.114974971
0.113056131
0.110847127
0.109005261
0.106861763
0.105094066
0.103012117
0.10131592
0.0992917362
0.0976644291
0.0956945133
0.0942023601
0.0926345172
0.0914104734
0.08988286
0.0887064837
0.0872192124
0.0860866842
0.0846632552
0.0835539106
0.0821818747
0.0810855095
0.0797756336
0.0786842856
0.0774431634
0.0763561974
0.0751814471
0.0740989301
0.0729877496
0.0719099854
0.0708595383
0.0697867739
0.0687944374
0.0677267454
0.0667901798
0.0657274338
0.0648445642
0.0637865036
0.0629554065
0.0619018023
0.0611204864
0.0600714083
0.0593374989
0.0582936558
0.0576040279
0.0565811907
0.0559037739
0.0549168951
0.0542496426
0.053298323
0.052640282
0.0517233179
0.0510741692
0.0501899543
0.0495496559
0.0486964679
0.0480650248
0.0472411946
0.0466185392
0.0459508521
0.0455110679
0.0449567384
0.0445225937
0.043985647
0.0435571607
0.043036956
0.0426141348
0.0421100586
0.0416929021
0.041204366
0.0407928673
0.0403193077
0.039913453
0.0394543306
0.0390540998
0.0386088988
0.0382142649
0.0377824923
0.0373934223
0.036974607
0.0365910612
0.0361847539
0.035806686
0.0354124589
0.0350398157
0.0346572621
0.0342899835
0.0339187172
0.0335567366
0.0331963908
0.0328396355
0.0324898614
0.0321382544
0.0317987188
0.0314521803
0.0311225625
0.0307810137
0.0304610008
0.0301243676
0.0298136503
0.0294818674
0.029180136
0.0288531497
0.0285600944
0.0282378612
0.0279531767
0.0276356579
0.0273590486
0.0270462096
0.0267773823
0.0264692035
0.0262078635
0.025904353
0.025650211
0.0253549356
0.0251037405
0.0248137901
0.024568563
0.0242837626
0.0240443169
0.0237646701
0.0235306763
0.0232562822
0.023027371
0.0227583288
0.0225341534
0.0222705248
0.022050785
0.0217925827
0.0215770306
0.0213242205
0.0211126552
0.0208651663
0.0206574232
0.0204151589
0.0202110993
0.019973947
0.0197734486
0.0195412877
0.0193442375
0.0191169449
0.0189232344
0.0187006884
0.0185102107
0.0182922936
0.0181049422
0.0178915403
0.0177072113
0.0174936401
0.0173042477
0.0170904017
0.0169039114
0.0166937524
0.0165100406
0.0163034436
0.0161223954
0.0159192303
0.0157407356
0.0155408705
0.0153648181
0.0151681245
0.0149943957
0.0148007524
0.0146292171
0.0144385128
0.0142953305
0.0142100074
0.0141340518
0.0140495397
0.0139739872
0.0138902839
0.0138151122
0.0137322075
0.013657403
0.0135752809
0.0135008357
0.0134194776
0.0133453855
0.0132647739
0.0131910275
0.013111149
0.0130377378
0.0129585848
0.0128854957
0.0128065735
0.0127270535
0.0126429879
0.0125650662
0.0124827075
0.0124063184
0.0123256303
0.0122507142
0.0121716561
0.012098159
0.0120206871
0.0119485589
0.0118726272
0.0118018212
0.0117273825
0.0116578541
0.0115848606
0.0115165669
0.0114449707
0.0113778701
0.0113076239
0.0112416753
0.0111727333
0.0111078956
0.0110402139
0.0109764458
0.0109099831
0.0108472422
0.010781961
0.0107202036
0.0106560708
0.0105952512
0.0105322394
0.0104723095
0.0104103983
0.0103513083
0.0102886548
0.0102240274
0.0101573972
0.0100931136
0.0100268273
0.00996286411
0.00989694126
0.00983328442
0.00976773825
0.00970438109
0.00963922055
0.00957616135
0.0095113926
0.00944863304
0.00938426038
0.00932180451
0.00925783108
0.00919568449
0.00913211276
0.00907028207
0.0090071143
0.00894560665
0.00888284519
0.00882166801
0.00875931551
0.00869847627
0.00863653583
0.00857604197
0.00851451715
0.00845437605
0.00839327085
0.00833348979
0.00827280865
0.00821339485
0.00815314254
0.00809410322
0.00803428473
0.00797562721
0.00791624756
0.00785797943
0.00779904341
0.00774117286
0.00768268471
0.00762522075
0.00756718382
0.00751013677
0.00745255314
0.0073959349
0.0073388052
0.00728262946
0.00722595288
0.007170235
0.00711400972
0.00705876611
0.00700299013
0.0069482376
0.00689290938
0.00683866594
0.00678378345
0.00672994578
0.00666796488
0.00660736043
0.00654641296
0.00648668154
0.00642672262
0.00636785611
0.00630885058
0.00625083967
0.00619275615
0.00613559123
0.00607840113
0.00602207174
0.00596574952
0.00591024403
0.00585476717
0.00580007282
0.00574542146
0.00569152477
0.00563768116
0.00558456832
0.00553151628
0.0054791736
0.00542689799
0.00537531222
0.00532379861
0.00527295717
0.0052221916
0.00517208269
0.00512205158
0.00507266415
0.00502335444
0.00497467789
0.00492607755
0.00487810114
0.00483019991
0.00478291191
0.00473570211
0.00468908908
0.00464256562
0.00459661239
0.00455077154
0.00450615696
0.00446198747
0.00441833254
0.00437476859
0.00433172177
0.00428876083
0.00424630936
0.00420394695
0.00416208075
0.00412031062
0.00407902201
0.004037837
0.00399711983
0.00395651273
0.00391636159
0.00387632557
0.00383673542
0.00379726419
0.00375823011
0.00371931797
0.00368083519
0.00364247688
0.00360454078
0.00356673146
0.0035293376
0.00349207273
0.00345521688
0.0034184922
0.00338217031
0.00334598179
0.00331019002
0.00327453378
0.00323926847
0.00320414082
0.00316939845
0.00313479581
0.00310057299
0.00306649194
0.00303278538
0.00299922257
0.00296602908
0.00293298124
0.00290029769
0.00286776164
0.00283558495
0.00280355752
0.00277188466
0.00274036275
0.00270919068
0.00267817118
0.0026474969
0.00261697672
0.0025867972
0.00255677325
0.00252708544
0.00249755461
0.00246835545
0.00243931459
0.00241060098
0.00238204691
0.00235381571
0.00232574521
0.00229799322
0.00227040301
0.00224312699
0.00221601375
0.00218921038
0.00216257071
0.00213623662
0.00211006707
0.00208419881
0.00205849586
0.0020330899
0.00200784995
0.00198290271
0.00195812209
0.00193362991
0.00190930487
0.00188526399
0.00186139072
0.00183779733
0.00181437193
0.00179122213
0.00176824061
0.0017455065
0.001722113
0.00169736784
0.00167109961
0.00164335842
0.00161396533
0.00158298281
0.00155022817
0.00151577927
0.00147945525
0.0014413529
0.00140130079
0.00135941885
0.00131555535
0.00126985796
0.00122220774
0.00117278504
0.00112151971
0.0010686294
0.00101411153
0.000958224494
0.000901053465
0.000842898644
0.000783952393
0.000724553209
0.000665015381
0.000605705297
0.000547062996
0.000489463018
0.000433455622
0.000379393394
0.000327891506
0.00027924319
0.000234043081
0.000192490253
0.000155030268
0.000121748384
9.27968016e-05
6.81301984e-05
4.75443385e-05
3.07930285e-05
1.74576977e-05
7.05109796e-06
9.94545879e-08
9.94528056e-08
9.94518267e-08
9.94515031e-08
9.94514236e-08
9.94514228e-08
9.94514322e-08
9.9451441e-08
9.94514466e-08
9.9451449e-08
9.94514499e-08
9.94514502e-08
9.94514503e-08
9.94514503e-08
9.94514503e-08
9.94514503e-08
9.94514503e-08
9.94514503e-08
9.94514503e-08
9.94514503e-08
9.94514503e-08
9.94514503e-08
9.94514503e-08
9.94514503e-08
9.94514503e-08
9.94514503e-08
9.94514503e-08
9.94514503e-08
9.94514503e-08
9.94514503e-08
9.94514503e-08
9.94514503e-08
9.94514503e-08
9.94514503e-08
9.94514503e-08
)
;

boundaryField
{
    closed
    {
        type            calculated;
        value           nonuniform List<scalar> 0();
    }
    open
    {
        type            calculated;
        value           uniform 0;
    }
    sides
    {
        type            empty;
    }
    procBoundary5to4
    {
        type            processor;
        value           uniform 0;
    }
}


// ************************************************************************* //
