/*--------------------------------*- C++ -*----------------------------------*\
| =========                 |                                                 |
| \\      /  F ield         | OpenFOAM: The Open Source CFD Toolbox           |
|  \\    /   O peration     | Version:  2306                                  |
|   \\  /    A nd           | Website:  www.openfoam.com                      |
|    \\/     M anipulation  |                                                 |
\*---------------------------------------------------------------------------*/
FoamFile
{
    version     2.0;
    format      ascii;
    arch        "LSB;label=32;scalar=64";
    class       volScalarField;
    location    "0.00078";
    object      h;
}
// * * * * * * * * * * * * * * * * * * * * * * * * * * * * * * * * * * * * * //

dimensions      [0 2 -2 0 0 0 0];

internalField   nonuniform List<scalar> 
531
(
8377.10814
-2814.3002
-4094.2499
2102.89024
9313.60973
7644.86238
-3926.48231
-4485.59489
2669.18785
8741.25218
4126.73624
-3499.46289
597.846871
8895.50666
6766.34838
-3142.97154
-2942.98969
4873.3088
8622.71046
2569.11816
-2867.24014
2457.66216
9170.4813
6360.88768
-1990.93801
-1534.85243
6303.1672
8859.72177
2600.98125
-4596.28795
-4645.47629
-3089.51599
4891.35332
8683.29683
2944.95977
-3535.43826
-1539.22734
7836.74844
7810.48173
-863.999586
-2759.33485
5288.77288
7829.14328
-116.477993
-1917.12407
6247.61021
8395.04777
529.56891
-3887.99312
-605.809886
8255.76114
7756.77152
-1657.00973
-2795.19735
5999.80604
8166.75401
-166.940576
-4370.02257
-748.945227
8040.20706
7491.88398
-2290.03294
-2986.17402
5830.50717
6796.63963
-2108.74263
-2348.93392
7130.56631
7307.24331
-2137.50946
-2163.4454
7164.44464
7116.07875
-2324.70328
-2164.87374
7265.03139
7133.03949
-2075.88408
-1838.86918
7883.25877
7842.0342
-1974.07376
-4462.5729
175.333968
8123.19119
6845.87744
-2538.54389
-1965.45222
7003.1642
6463.0611
-2158.50182
-1385.58091
8125.4089
7892.49875
-2300.48314
-4340.85234
789.933466
8423.80272
6552.96613
-2182.69468
-1106.31083
8169.93396
7777.26087
-2734.31063
-4461.6052
1064.62909
8557.4604
6220.44117
-2291.42974
-814.945881
8502.81476
7958.13574
-2697.9848
-4008.06589
1851.85376
9225.12769
7806.03641
-2816.22096
-4079.01591
1704.62556
9207.8096
7588.71896
-3271.84555
-4277.68172
1716.53369
9236.12303
7465.49106
-3609.07188
-4389.90611
1770.35318
9235.28671
7354.61772
-4007.96802
-4548.98475
2114.00732
9255.83152
5613.26
-2488.5862
499.885245
9236.7884
7450.74473
-4345.42125
-4515.91125
2746.04186
9373.44376
5331.25723
-2285.25232
875.781219
9571.26901
8269.04777
-3991.12605
-4116.029
2777.23976
9779.49789
8291.33987
-3925.02823
-4578.79042
-3287.01322
1979.45261
9565.81179
7947.54837
-4723.56455
-4767.5813
3248.10139
9349.63905
4333.17682
-2782.9844
1215.2439
9611.29275
7547.62641
-4655.52945
-4633.12703
3621.0363
9331.48173
3919.45759
-2923.45651
1213.1674
9558.79488
7484.31175
-4721.26595
-4639.92797
3598.64889
9298.57505
3822.87462
-3031.50456
1003.29878
9621.15025
8335.48993
-4479.75784
-4665.71413
1908.53893
9572.08994
8372.6394
-4368.5102
-4828.12481
1521.85624
9456.06508
8319.33781
-4679.2919
-5028.94631
2853.61962
9092.72775
3840.04722
-1613.00899
2380.15714
4333.6036
-993.622986
-807.409309
9455.98442
9634.26319
-850.522877
-4279.42795
145.98653
9482.47632
9189.86155
-2998.80453
-5375.65677
581.879667
9231.5268
6283.49767
-3245.26628
-1672.30316
9213.92053
9244.84163
-2611.16556
-5412.59686
-124.791807
8962.29402
6844.43577
-2738.56776
-2088.69632
8863.81607
9371.45777
-990.198661
-4875.99034
-1641.75006
8716.60671
9454.26487
101.314495
-4421.53065
-1310.46555
8593.60976
9017.99795
-151.049449
-3631.78259
1525.82243
8864.71412
8419.60956
-2533.7892
-5500.25319
-4066.3494
6745.39692
7594.7938
-1085.24536
-2789.86296
5268.58158
7629.87758
-3.58771298
-2480.54927
4427.23136
7586.15667
860.455285
-2314.39234
3975.30984
7521.64279
1387.38009
-2092.1666
3626.53037
7570.95252
2139.22548
-2195.24762
2208.71201
8505.96487
6258.88322
-2651.34581
-4193.23102
2268.7186
8513.64089
6000.42011
-3079.93506
-4107.88497
3446.88127
7841.60175
2727.23528
-2197.32708
1935.88527
8561.37709
6186.54637
-2758.55246
-3977.52539
3337.60294
8308.08493
3542.37272
-3032.34583
-150.916759
8371.43858
8907.69721
266.88542
-4222.02113
-1454.44125
7886.96912
8408.25358
-489.089268
-3781.47784
1482.54679
8612.78125
5580.61181
-3580.12925
-4735.7441
2920.01486
8541.57524
3399.46121
-2647.33865
1722.39183
8912.16759
5450.76441
-3409.28891
-4267.51216
4020.08516
8908.50845
3230.01629
-2694.47078
2035.78936
9158.23213
5264.93262
-3490.64649
-4233.11926
3797.03391
9370.82537
4682.32241
-3886.14233
-4476.958
4292.88396
9201.04318
3355.15051
-2577.38898
2716.35054
9370.04449
4400.67053
-4214.19178
-4505.61721
4689.74799
9390.5533
3189.54435
-2626.34717
3228.311
9615.78092
4290.95556
-4240.35105
-4280.17108
5325.40672
9650.70639
3708.39386
-4712.70945
-4744.22714
5205.75962
9437.95353
2185.64257
-3029.57009
3587.14897
9530.21616
3648.27888
-4812.29617
-4681.21917
5187.28823
9414.95879
2342.44151
-2689.48115
3769.34787
9567.91931
4090.24119
-4269.49744
-3949.29093
5120.15751
9514.32784
4094.66606
-4266.105
-3925.80282
4819.72953
9494.80645
3974.37876
-3343.37704
-1953.18861
8568.03604
9722.56326
3892.81922
-4016.81918
-3697.60956
4573.80639
9469.54236
5262.59873
-4226.58596
-4368.56614
-3536.58256
3363.1282
10041.7454
9862.71789
4583.11956
-4192.82339
-3973.50337
4341.37319
9233.19278
4394.08089
-4831.30667
-4353.35142
4623.67138
8946.14266
2370.13629
-2609.99112
3412.93839
9238.39341
4181.33823
-5033.71128
-4513.32277
4545.86089
8821.5836
1960.57609
-2987.07677
3699.23014
8984.7717
2317.33231
-2857.66118
2959.89596
9365.19649
4866.09193
-4913.77516
-4413.9775
4671.75321
9037.80619
2666.01189
-2686.10281
2828.67787
9532.51177
5452.446
-4975.16414
-4544.80881
4720.20334
9088.25632
2706.7403
-2698.07143
2611.54181
9733.68431
6422.14606
-4478.83232
-4163.02364
4022.04604
9816.35901
7038.8196
-4014.99316
-3774.43036
4240.95873
9924.41641
7742.59388
-4537.04092
-4827.42245
-3816.19154
3635.80915
9263.6598
3138.83414
-3291.59477
1517.57501
9727.70685
7226.8794
-5397.58159
-5345.6776
3833.28562
9193.62047
2648.36478
-3721.851
2704.69499
9342.82838
2703.59385
-3725.27566
2831.7375
9426.54566
2746.87667
-3652.34525
1331.72299
9851.29843
7585.86369
-5224.82612
-5549.31225
4311.71697
9356.40286
1728.48095
-4070.31641
3231.6379
9567.52177
2429.19986
-3854.09931
1290.71374
9965.84437
7881.0876
-5075.86393
-5530.64947
5102.74403
9494.93635
852.269088
-4317.41904
3916.04826
9643.42587
1535.60781
-4079.82211
1471.67677
10117.1772
8738.62289
-4408.75331
-5186.80578
2826.72901
10083.6248
8490.45584
-4440.88571
-5152.37282
3152.73073
10089.8697
8307.60458
-4530.23712
-5275.74853
2847.75439
10103.2915
8653.32598
-4535.13023
-5380.2506
2538.95214
10114.3373
9066.05623
-4487.39143
-5311.64261
2326.41693
10114.9987
9213.69597
)
;

boundaryField
{
    closed
    {
        type            lookUpEnthalpy;
        h0              nonuniform List<scalar> 0();
        value           nonuniform List<scalar> 0();
    }
    open
    {
        type            zeroGradient;
    }
    sides
    {
        type            empty;
    }
    procBoundary1to0
    {
        type            processor;
        value           uniform 9522.49773;
    }
    procBoundary1to2
    {
        type            processor;
        value           uniform -4504.68331;
    }
}


// ************************************************************************* //
