/*--------------------------------*- C++ -*----------------------------------*\
| =========                 |                                                 |
| \\      /  F ield         | OpenFOAM: The Open Source CFD Toolbox           |
|  \\    /   O peration     | Version:  2306                                  |
|   \\  /    A nd           | Website:  www.openfoam.com                      |
|    \\/     M anipulation  |                                                 |
\*---------------------------------------------------------------------------*/
FoamFile
{
    version     2.0;
    format      ascii;
    arch        "LSB;label=32;scalar=64";
    class       volScalarField;
    location    "0.00078";
    object      H2;
}
// * * * * * * * * * * * * * * * * * * * * * * * * * * * * * * * * * * * * * //

dimensions      [0 0 0 0 0 0 0];

internalField   nonuniform List<scalar> 
531
(
0.0110681432
0.0106883831
0.0106781977
0.0107941095
0.0110326231
0.0110567956
0.0106783
0.0106745115
0.0108140517
0.0110530816
0.0108860852
0.0106827914
0.0107530044
0.0110438045
0.0110009141
0.0106909084
0.0106912346
0.0108951326
0.0110607593
0.0108187271
0.0106878789
0.0108093273
0.0110360314
0.0109722535
0.0107020918
0.010708586
0.0109559008
0.0110546036
0.0108179775
0.0106717961
0.0106669587
0.0106840155
0.0108972005
0.0110579893
0.010827718
0.0106862251
0.0107066468
0.0110470723
0.011053753
0.0107176449
0.0106897216
0.0109277774
0.0110686087
0.0107350797
0.0107018351
0.0109636507
0.0110699397
0.0107511426
0.0106832793
0.0107245186
0.0110734657
0.0110534132
0.0107032193
0.0106912446
0.0109600144
0.011074662
0.010733792
0.0106781352
0.0107214773
0.0110606173
0.0110411424
0.0106941136
0.0106889903
0.0109586269
0.0110130862
0.0106978342
0.0106969895
0.0110240973
0.0110355711
0.0106988811
0.0106991064
0.0110298572
0.0110286666
0.0106969957
0.0106982975
0.0110372287
0.0110298469
0.0107012795
0.0107048795
0.0110711345
0.0110639901
0.010699211
0.0106783896
0.0107423087
0.0110746051
0.0110153874
0.0106957828
0.0106992741
0.0110261038
0.0109956805
0.0107005062
0.0107117004
0.0110742118
0.0110694499
0.0106952357
0.0106800479
0.0107575467
0.0110662869
0.0109966491
0.0107022579
0.01071664
0.0110716711
0.0110670916
0.0106904028
0.010677536
0.0107649269
0.0110603834
0.0109790719
0.0107008976
0.0107220804
0.0110590903
0.0110795119
0.0106917985
0.010682579
0.0107857232
0.0110383588
0.0110644054
0.0106899987
0.0106814077
0.0107817587
0.0110380267
0.0110537976
0.0106848685
0.0106781168
0.0107822833
0.0110367805
0.0110484703
0.0106814084
0.01067641
0.0107838225
0.0110366541
0.0110431358
0.0106768911
0.0106738642
0.0107952592
0.011035256
0.01094654
0.0106970086
0.0107502793
0.0110340819
0.0110491174
0.0106732202
0.0106744151
0.0108149266
0.0110323824
0.0109298584
0.0106983959
0.0107593491
0.0110241489
0.0110665608
0.010678477
0.0106803205
0.010811938
0.011022009
0.0110648297
0.0106802024
0.0106730691
0.0106842521
0.0107878825
0.0110241269
0.0110779882
0.0106686153
0.0106720708
0.0108323137
0.0110344495
0.010883472
0.0106920674
0.010767969
0.011022698
0.0110646974
0.0106682142
0.0106732637
0.0108458705
0.0110358799
0.0108649741
0.0106906215
0.0107680113
0.0110245226
0.0110601202
0.0106672204
0.0106728396
0.0108449548
0.0110371037
0.010860595
0.0106892375
0.0107627379
0.0110228307
0.0110657981
0.0106716984
0.0106720309
0.0107867266
0.0110270326
0.0110646741
0.0106732596
0.0106700886
0.0107761299
0.011029706
0.0110658694
0.0106674088
0.0106665667
0.0108209904
0.0110385018
0.0108634341
0.010705569
0.0108044859
0.0108781279
0.0107165693
0.010720082
0.011022352
0.0110216964
0.0107193416
0.0106733633
0.0107418027
0.0110280528
0.011033728
0.0106823813
0.010662927
0.010752249
0.0110380175
0.0109769385
0.0106867872
0.010706247
0.0110366271
0.011031109
0.0106826956
0.0106624042
0.0107354029
0.0110492145
0.0110024819
0.010691921
0.0107006111
0.0110528954
0.011027486
0.0107145786
0.0106685471
0.0107062997
0.0110624159
0.0110264089
0.0107402817
0.0106745061
0.0107130382
0.0110687024
0.0110428893
0.0107341362
0.0106841163
0.0107783402
0.011056761
0.0110658195
0.010681237
0.0106594775
0.0106787093
0.0110014369
0.0110530123
0.0107131622
0.0106915269
0.0109230641
0.0110519199
0.0107375938
0.010693989
0.0108847532
0.0110475449
0.0107604545
0.0106955425
0.0108654984
0.0110416211
0.0107757326
0.0106980038
0.010851378
0.0110403099
0.0107990617
0.0106969348
0.0107987347
0.0110654193
0.010965891
0.0106842595
0.0106764563
0.0108011246
0.0110645777
0.0109565989
0.0106811264
0.0106776203
0.0108447475
0.0110574394
0.0108183522
0.010698678
0.0107899088
0.0110627774
0.0109648147
0.010685696
0.0106804909
0.0108377229
0.0110711457
0.0108490604
0.0106913972
0.0107343111
0.0110708441
0.0110522917
0.0107444261
0.0106784317
0.01070555
0.0110674006
0.0110687726
0.0107268993
0.0106842907
0.0107771994
0.0110576372
0.0109391109
0.0106776141
0.0106713284
0.0108235111
0.0110602166
0.0108444021
0.0106960606
0.0107835495
0.011047563
0.0109305834
0.0106810849
0.0106759677
0.0108642369
0.0110466518
0.010837168
0.0106944751
0.0107932363
0.0110385064
0.0109208176
0.0106800753
0.0106747057
0.0108538799
0.0110319405
0.0108920409
0.0106754641
0.0106720505
0.0108746541
0.0110364077
0.0108417597
0.0106945939
0.0108156559
0.0110322897
0.010880513
0.0106725646
0.0106700056
0.010890918
0.0110306062
0.0108347108
0.0106924692
0.0108334365
0.0110259069
0.0108737324
0.0106725605
0.0106717246
0.0109202743
0.0110251543
0.0108493251
0.0106657125
0.0106659797
0.0109172548
0.0110299163
0.0107993917
0.0106874
0.0108490545
0.0110274064
0.0108506028
0.0106647773
0.0106659808
0.0109153993
0.0110301584
0.0108042041
0.0106913516
0.0108543579
0.0110261485
0.0108688259
0.0106718092
0.0106750592
0.0109086362
0.0110285409
0.0108685537
0.010671803
0.0106757596
0.010894431
0.0110300788
0.0108650575
0.0106885386
0.0106977637
0.0110620277
0.011022702
0.010855851
0.0106753262
0.0106795889
0.0108802688
0.0110306951
0.0109230073
0.0106748291
0.0106705891
0.0106804257
0.0108362543
0.0110137409
0.0110194335
0.0108888271
0.0106722496
0.0106773445
0.0108741863
0.0110375147
0.010886657
0.010666178
0.0106727284
0.0108878072
0.0110472112
0.0108063247
0.0106942988
0.0108395163
0.0110363142
0.0108784373
0.0106632581
0.0106704164
0.0108852798
0.0110513586
0.0107938515
0.0106898292
0.0108533738
0.0110452035
0.0108058153
0.0106898744
0.0108222525
0.0110319219
0.0109138842
0.0106650166
0.0106722338
0.0108870411
0.0110457816
0.0108176286
0.0106916896
0.010815873
0.0110266593
0.0109458591
0.0106641004
0.0106711886
0.0108888023
0.0110447683
0.0108193723
0.0106908355
0.0108077301
0.0110203945
0.0110000016
0.0106715664
0.0106769281
0.0108533771
0.0110210752
0.0110282209
0.0106788395
0.0106815221
0.0108600572
0.0110185389
0.0110681075
0.0106745982
0.0106677302
0.0106766381
0.0108436632
0.0110380068
0.0108356555
0.0106837086
0.0107758637
0.0110199322
0.0110449107
0.0106593812
0.0106634316
0.0108539279
0.0110425248
0.0108186103
0.0106797335
0.0108154274
0.011035601
0.0108209154
0.0106787307
0.010819682
0.0110328898
0.0108200456
0.0106795892
0.0107709276
0.0110174545
0.0110658008
0.0106600263
0.0106603594
0.0108750774
0.0110368487
0.0107859076
0.010675068
0.0108353463
0.0110281677
0.0108083912
0.0106768774
0.0107698656
0.011015267
0.0110811739
0.0106616891
0.0106606029
0.0109108172
0.0110324144
0.0107596448
0.0106719145
0.0108632509
0.0110255006
0.0107790846
0.010673702
0.0107750594
0.0110113862
0.0110478352
0.010670172
0.0106636235
0.0108125894
0.0110152509
0.0110569208
0.0106703601
0.0106651282
0.0108228997
0.0110154035
0.0110635457
0.0106688916
0.010663672
0.0108140175
0.0110145331
0.0110514059
0.0106684276
0.0106608754
0.0108058062
0.0110135501
0.0110394542
0.0106683849
0.0106591567
0.0108003119
0.0110123194
0.0110353948
)
;

boundaryField
{
    closed
    {
        type            calculated;
        value           nonuniform List<scalar> 0();
    }
    open
    {
        type            calculated;
        value           nonuniform List<scalar> 0();
    }
    sides
    {
        type            empty;
    }
    procBoundary1to0
    {
        type            processor;
        value           uniform 0.0110266599;
    }
    procBoundary1to2
    {
        type            processor;
        value           uniform 0.0106679971;
    }
}


// ************************************************************************* //
