/*--------------------------------*- C++ -*----------------------------------*\
| =========                 |                                                 |
| \\      /  F ield         | OpenFOAM: The Open Source CFD Toolbox           |
|  \\    /   O peration     | Version:  2306                                  |
|   \\  /    A nd           | Website:  www.openfoam.com                      |
|    \\/     M anipulation  |                                                 |
\*---------------------------------------------------------------------------*/
FoamFile
{
    version     2.0;
    format      ascii;
    arch        "LSB;label=32;scalar=64";
    class       volScalarField;
    location    "0.00078";
    object      prefDPV_H2O;
}
// * * * * * * * * * * * * * * * * * * * * * * * * * * * * * * * * * * * * * //

dimensions      [1 -1 -1 0 0 0 0];

internalField   nonuniform List<scalar> 
531
(
-3.86533267e-07
-3.66257598e-07
-3.65462266e-07
-3.72501891e-07
-3.8500349e-07
-3.85918364e-07
-3.65530627e-07
-3.65199068e-07
-3.73609595e-07
-3.85885305e-07
-3.77427169e-07
-3.65829484e-07
-3.70271786e-07
-3.85485396e-07
-3.83180941e-07
-3.66210718e-07
-3.66296574e-07
-3.77857263e-07
-3.86215125e-07
-3.73923665e-07
-3.66222434e-07
-3.73379037e-07
-3.85150253e-07
-3.81761957e-07
-3.6698739e-07
-3.67457184e-07
-3.80946636e-07
-3.85949715e-07
-3.73870818e-07
-3.65075545e-07
-3.64914047e-07
-3.66021261e-07
-3.77965241e-07
-3.86096107e-07
-3.74368731e-07
-3.65918926e-07
-3.67420664e-07
-3.85463787e-07
-3.85782514e-07
-3.68228154e-07
-3.66319128e-07
-3.79530579e-07
-3.86492923e-07
-3.69218495e-07
-3.67033891e-07
-3.81333056e-07
-3.86609472e-07
-3.70157419e-07
-3.65693745e-07
-3.68551494e-07
-3.86751653e-07
-3.85763096e-07
-3.67264641e-07
-3.66352437e-07
-3.81149056e-07
-3.86814151e-07
-3.69156329e-07
-3.65351154e-07
-3.68368755e-07
-3.86124801e-07
-3.85159869e-07
-3.66627925e-07
-3.66211922e-07
-3.81078465e-07
-3.83773853e-07
-3.66810554e-07
-3.66695118e-07
-3.84320852e-07
-3.84882474e-07
-3.66831673e-07
-3.66829085e-07
-3.84600365e-07
-3.84540704e-07
-3.66704284e-07
-3.66803526e-07
-3.84960077e-07
-3.84598387e-07
-3.66928629e-07
-3.67155e-07
-3.8661654e-07
-3.86273591e-07
-3.66937397e-07
-3.65321273e-07
-3.69589663e-07
-3.86797097e-07
-3.83887311e-07
-3.66587464e-07
-3.66945122e-07
-3.84411963e-07
-3.8291569e-07
-3.66874181e-07
-3.67632796e-07
-3.86795611e-07
-3.86536925e-07
-3.66658837e-07
-3.65418629e-07
-3.70467124e-07
-3.86453465e-07
-3.8296575e-07
-3.66919221e-07
-3.67950055e-07
-3.86686552e-07
-3.86417476e-07
-3.66349352e-07
-3.65296879e-07
-3.70896504e-07
-3.86199677e-07
-3.82095555e-07
-3.66836825e-07
-3.68292975e-07
-3.86144594e-07
-3.87019511e-07
-3.66405718e-07
-3.65625695e-07
-3.72015884e-07
-3.85250906e-07
-3.86291202e-07
-3.66306431e-07
-3.65563085e-07
-3.71801851e-07
-3.85236564e-07
-3.85771819e-07
-3.65978783e-07
-3.65387483e-07
-3.71836965e-07
-3.85182848e-07
-3.85509977e-07
-3.65745936e-07
-3.65292775e-07
-3.71922592e-07
-3.85177394e-07
-3.85248336e-07
-3.65457035e-07
-3.65154838e-07
-3.72579287e-07
-3.85117071e-07
-3.8047429e-07
-3.66643743e-07
-3.69992186e-07
-3.85066224e-07
-3.85540165e-07
-3.65216532e-07
-3.65184145e-07
-3.73640377e-07
-3.84993352e-07
-3.79635552e-07
-3.66762093e-07
-3.70484436e-07
-3.84638202e-07
-3.86466797e-07
-3.65510821e-07
-3.65516406e-07
-3.73433538e-07
-3.84547041e-07
-3.86392359e-07
-3.65587898e-07
-3.65119718e-07
-3.65954338e-07
-3.7209323e-07
-3.84637206e-07
-3.86959298e-07
-3.64931892e-07
-3.65014767e-07
-3.74573678e-07
-3.85082527e-07
-3.77275102e-07
-3.66382187e-07
-3.70997254e-07
-3.84575629e-07
-3.86289698e-07
-3.64947056e-07
-3.65103608e-07
-3.75292773e-07
-3.85144175e-07
-3.76318086e-07
-3.66285262e-07
-3.71008131e-07
-3.84654303e-07
-3.86067862e-07
-3.64891928e-07
-3.65088539e-07
-3.75244013e-07
-3.8519688e-07
-3.76089414e-07
-3.6620237e-07
-3.70723075e-07
-3.84581463e-07
-3.86433529e-07
-3.65118834e-07
-3.65054654e-07
-3.72054177e-07
-3.84763051e-07
-3.86385049e-07
-3.65208633e-07
-3.64932919e-07
-3.7146355e-07
-3.84878042e-07
-3.8643673e-07
-3.64914015e-07
-3.64749924e-07
-3.7398707e-07
-3.85256779e-07
-3.76242812e-07
-3.67340665e-07
-3.7309308e-07
-3.76989906e-07
-3.68063342e-07
-3.68295096e-07
-3.84559008e-07
-3.84532385e-07
-3.682407e-07
-3.65246584e-07
-3.69530232e-07
-3.84806672e-07
-3.85050626e-07
-3.66004804e-07
-3.64504036e-07
-3.70164834e-07
-3.85236202e-07
-3.81991824e-07
-3.6604704e-07
-3.67305772e-07
-3.85176169e-07
-3.84937456e-07
-3.66156338e-07
-3.64473935e-07
-3.691766e-07
-3.85718241e-07
-3.83260172e-07
-3.66394328e-07
-3.6690322e-07
-3.85876608e-07
-3.84781281e-07
-3.68066114e-07
-3.64868957e-07
-3.67330531e-07
-3.86284422e-07
-3.84735246e-07
-3.69530954e-07
-3.6522439e-07
-3.67717596e-07
-3.86553144e-07
-3.85446073e-07
-3.69181301e-07
-3.6581852e-07
-3.71664378e-07
-3.86041717e-07
-3.86397977e-07
-3.66146279e-07
-3.64354539e-07
-3.65488353e-07
-3.83205702e-07
-3.85734598e-07
-3.67943505e-07
-3.66363075e-07
-3.79290879e-07
-3.85684311e-07
-3.69409993e-07
-3.66553863e-07
-3.77336323e-07
-3.85472268e-07
-3.70712836e-07
-3.66663208e-07
-3.76340643e-07
-3.85184457e-07
-3.71561258e-07
-3.66825998e-07
-3.75603936e-07
-3.85124085e-07
-3.72829837e-07
-3.66750149e-07
-3.72777148e-07
-3.86415378e-07
-3.81444631e-07
-3.66190307e-07
-3.65371908e-07
-3.729138e-07
-3.86379401e-07
-3.80978809e-07
-3.65936242e-07
-3.65439814e-07
-3.75257594e-07
-3.8596073e-07
-3.73859969e-07
-3.66803334e-07
-3.72287682e-07
-3.86301995e-07
-3.81390077e-07
-3.66195493e-07
-3.65575963e-07
-3.74873434e-07
-3.86662198e-07
-3.75486244e-07
-3.66267672e-07
-3.69167785e-07
-3.86648311e-07
-3.85850431e-07
-3.69739076e-07
-3.65418831e-07
-3.67484677e-07
-3.86438959e-07
-3.86559619e-07
-3.68704909e-07
-3.65765516e-07
-3.71604748e-07
-3.86081565e-07
-3.80100932e-07
-3.65642244e-07
-3.650061e-07
-3.74123194e-07
-3.86192663e-07
-3.75245701e-07
-3.66555202e-07
-3.719376e-07
-3.85647476e-07
-3.7967063e-07
-3.65812005e-07
-3.65328276e-07
-3.76266617e-07
-3.85608254e-07
-3.74861771e-07
-3.66489021e-07
-3.72475326e-07
-3.8525717e-07
-3.79176072e-07
-3.65750662e-07
-3.65304459e-07
-3.75719937e-07
-3.84974243e-07
-3.77705271e-07
-3.65461165e-07
-3.651303e-07
-3.76806332e-07
-3.85166648e-07
-3.75102848e-07
-3.66536476e-07
-3.73695937e-07
-3.84989334e-07
-3.77112289e-07
-3.65248215e-07
-3.65058769e-07
-3.77645474e-07
-3.84916636e-07
-3.74727148e-07
-3.66452984e-07
-3.74644519e-07
-3.84714617e-07
-3.76756625e-07
-3.65237952e-07
-3.65197642e-07
-3.79146777e-07
-3.84682273e-07
-3.75475808e-07
-3.64850952e-07
-3.64846434e-07
-3.78994821e-07
-3.84887043e-07
-3.72832361e-07
-3.66147104e-07
-3.75479191e-07
-3.84778986e-07
-3.75557247e-07
-3.64784299e-07
-3.64871204e-07
-3.78899904e-07
-3.84897394e-07
-3.73089249e-07
-3.66395167e-07
-3.75750607e-07
-3.84724784e-07
-3.7650987e-07
-3.65204298e-07
-3.65424836e-07
-3.78552465e-07
-3.8482796e-07
-3.76494606e-07
-3.65205429e-07
-3.65454854e-07
-3.77823292e-07
-3.84894319e-07
-3.76316665e-07
-3.66062439e-07
-3.66924766e-07
-3.86269903e-07
-3.8457665e-07
-3.75817182e-07
-3.6540688e-07
-3.65657306e-07
-3.7708511e-07
-3.84920837e-07
-3.79288103e-07
-3.65310669e-07
-3.6512957e-07
-3.65743884e-07
-3.74782369e-07
-3.84191199e-07
-3.84436199e-07
-3.77541641e-07
-3.65247089e-07
-3.65483905e-07
-3.76776521e-07
-3.85214522e-07
-3.77439437e-07
-3.64817829e-07
-3.65198884e-07
-3.7748486e-07
-3.85632266e-07
-3.73217097e-07
-3.66515253e-07
-3.7496328e-07
-3.85162727e-07
-3.77018977e-07
-3.64652111e-07
-3.65067859e-07
-3.77355842e-07
-3.85810942e-07
-3.72555996e-07
-3.66237145e-07
-3.75705318e-07
-3.85545802e-07
-3.73202959e-07
-3.66287135e-07
-3.74035613e-07
-3.84973412e-07
-3.7883188e-07
-3.64751139e-07
-3.65160495e-07
-3.77440789e-07
-3.85570559e-07
-3.73832504e-07
-3.66406802e-07
-3.73673681e-07
-3.84746668e-07
-3.80440433e-07
-3.64699981e-07
-3.65078163e-07
-3.77531268e-07
-3.85526868e-07
-3.7392758e-07
-3.6637612e-07
-3.73216294e-07
-3.84476808e-07
-3.83125036e-07
-3.65115313e-07
-3.65397715e-07
-3.75657923e-07
-3.84506895e-07
-3.84515658e-07
-3.65512299e-07
-3.65685733e-07
-3.76006255e-07
-3.84397933e-07
-3.86463743e-07
-3.65181029e-07
-3.64864684e-07
-3.65523193e-07
-3.75162764e-07
-3.85235765e-07
-3.74791693e-07
-3.65936099e-07
-3.71440854e-07
-3.84456713e-07
-3.85326807e-07
-3.64393644e-07
-3.6453075e-07
-3.75717472e-07
-3.85430181e-07
-3.73896714e-07
-3.65652375e-07
-3.73685177e-07
-3.85132171e-07
-3.74021183e-07
-3.65620899e-07
-3.73912653e-07
-3.85015426e-07
-3.73957878e-07
-3.65674597e-07
-3.7115999e-07
-3.84350401e-07
-3.86344497e-07
-3.64481855e-07
-3.64359403e-07
-3.76827498e-07
-3.85185905e-07
-3.72114271e-07
-3.65378517e-07
-3.74755802e-07
-3.84812079e-07
-3.73329026e-07
-3.65515893e-07
-3.71100103e-07
-3.84256633e-07
-3.87096177e-07
-3.64589625e-07
-3.64374028e-07
-3.78666133e-07
-3.84995058e-07
-3.70630674e-07
-3.65188805e-07
-3.76224313e-07
-3.84697203e-07
-3.71718112e-07
-3.65334042e-07
-3.71417278e-07
-3.84089881e-07
-3.85659252e-07
-3.65101554e-07
-3.64601131e-07
-3.73457684e-07
-3.84256873e-07
-3.86051322e-07
-3.65094589e-07
-3.64658405e-07
-3.740196e-07
-3.84263508e-07
-3.86337107e-07
-3.65016232e-07
-3.64566307e-07
-3.73545418e-07
-3.84225983e-07
-3.85813353e-07
-3.65000606e-07
-3.64443558e-07
-3.73115737e-07
-3.84183558e-07
-3.85297861e-07
-3.65017961e-07
-3.64421861e-07
-3.72831255e-07
-3.8413029e-07
-3.85122911e-07
)
;

boundaryField
{
    closed
    {
        type            calculated;
        value           nonuniform List<scalar> 0();
    }
    open
    {
        type            calculated;
        value           nonuniform List<scalar> 0();
    }
    sides
    {
        type            empty;
    }
    procBoundary1to0
    {
        type            processor;
        value           uniform -3.84746629e-07;
    }
    procBoundary1to2
    {
        type            processor;
        value           uniform -3.64999737e-07;
    }
}


// ************************************************************************* //
