/*--------------------------------*- C++ -*----------------------------------*\
| =========                 |                                                 |
| \\      /  F ield         | OpenFOAM: The Open Source CFD Toolbox           |
|  \\    /   O peration     | Version:  2306                                  |
|   \\  /    A nd           | Website:  www.openfoam.com                      |
|    \\/     M anipulation  |                                                 |
\*---------------------------------------------------------------------------*/
FoamFile
{
    version     2.0;
    format      ascii;
    arch        "LSB;label=32;scalar=64";
    class       volScalarField;
    location    "0.00078";
    object      prefDZ_H2O;
}
// * * * * * * * * * * * * * * * * * * * * * * * * * * * * * * * * * * * * * //

dimensions      [1 -1 -1 0 0 0 0];

internalField   nonuniform List<scalar> 
531
(
-7.79227875e-07
-7.38353343e-07
-7.3675e-07
-7.50941462e-07
-7.76143936e-07
-7.77988267e-07
-7.36887812e-07
-7.3621941e-07
-7.53174526e-07
-7.77921621e-07
-7.60870527e-07
-7.37490289e-07
-7.46445703e-07
-7.77115429e-07
-7.72469785e-07
-7.38258835e-07
-7.38431916e-07
-7.6173757e-07
-7.78586519e-07
-7.53807674e-07
-7.38282454e-07
-7.52709735e-07
-7.764398e-07
-7.696092e-07
-7.39824559e-07
-7.40771635e-07
-7.6796556e-07
-7.78051468e-07
-7.53701136e-07
-7.35970394e-07
-7.35644823e-07
-7.37876901e-07
-7.61955248e-07
-7.78346585e-07
-7.54704899e-07
-7.37670599e-07
-7.40698013e-07
-7.77071867e-07
-7.77714401e-07
-7.42325866e-07
-7.38477383e-07
-7.65110875e-07
-7.79146542e-07
-7.44322333e-07
-7.39918303e-07
-7.68744561e-07
-7.79381499e-07
-7.46215147e-07
-7.37216649e-07
-7.42977699e-07
-7.79668128e-07
-7.77675256e-07
-7.40383479e-07
-7.38544531e-07
-7.68373627e-07
-7.7979412e-07
-7.4419701e-07
-7.36526004e-07
-7.42609308e-07
-7.78404431e-07
-7.76459186e-07
-7.39099899e-07
-7.38261262e-07
-7.68231321e-07
-7.73665062e-07
-7.39468068e-07
-7.39235356e-07
-7.74767778e-07
-7.75899975e-07
-7.39510643e-07
-7.39505425e-07
-7.75331261e-07
-7.75210986e-07
-7.39253835e-07
-7.394539e-07
-7.76056417e-07
-7.75327272e-07
-7.397061e-07
-7.40162451e-07
-7.79395749e-07
-7.78704382e-07
-7.39723776e-07
-7.36465768e-07
-7.45070586e-07
-7.7975974e-07
-7.73893786e-07
-7.39018332e-07
-7.3973935e-07
-7.74951452e-07
-7.71935057e-07
-7.39596336e-07
-7.41125658e-07
-7.79756743e-07
-7.79235248e-07
-7.39162216e-07
-7.36662032e-07
-7.46839495e-07
-7.79066998e-07
-7.72035973e-07
-7.39687135e-07
-7.41765234e-07
-7.79536887e-07
-7.78994446e-07
-7.38538312e-07
-7.3641659e-07
-7.47705099e-07
-7.78555377e-07
-7.70281714e-07
-7.39521029e-07
-7.42456539e-07
-7.78444332e-07
-7.80208114e-07
-7.38651943e-07
-7.37079463e-07
-7.49961701e-07
-7.76642711e-07
-7.78739885e-07
-7.38451786e-07
-7.36953246e-07
-7.49530224e-07
-7.766138e-07
-7.77692841e-07
-7.37791269e-07
-7.36599242e-07
-7.49601012e-07
-7.76505511e-07
-7.77164982e-07
-7.37321861e-07
-7.36408317e-07
-7.49773631e-07
-7.76494515e-07
-7.76637531e-07
-7.36739456e-07
-7.36130245e-07
-7.51097487e-07
-7.76372909e-07
-7.67013341e-07
-7.39131788e-07
-7.45882047e-07
-7.76270403e-07
-7.77225841e-07
-7.36254616e-07
-7.36189325e-07
-7.53236582e-07
-7.76123498e-07
-7.65322495e-07
-7.39370374e-07
-7.46874395e-07
-7.75407537e-07
-7.79093875e-07
-7.36847884e-07
-7.36859143e-07
-7.52819608e-07
-7.75223761e-07
-7.78943811e-07
-7.37003267e-07
-7.36059445e-07
-7.37741988e-07
-7.50117626e-07
-7.75405529e-07
-7.80086727e-07
-7.35680799e-07
-7.35847869e-07
-7.5511806e-07
-7.7630327e-07
-7.60563969e-07
-7.38604506e-07
-7.47908203e-07
-7.75281393e-07
-7.78736855e-07
-7.35711368e-07
-7.36026967e-07
-7.56567713e-07
-7.76427547e-07
-7.58634682e-07
-7.38409111e-07
-7.47930131e-07
-7.75439996e-07
-7.78289647e-07
-7.35600234e-07
-7.3599659e-07
-7.56469415e-07
-7.76533798e-07
-7.58173694e-07
-7.38242007e-07
-7.47355475e-07
-7.75293155e-07
-7.79026808e-07
-7.36057662e-07
-7.35928279e-07
-7.50038898e-07
-7.75659225e-07
-7.78929076e-07
-7.36238692e-07
-7.3568287e-07
-7.4884823e-07
-7.75891041e-07
-7.79033261e-07
-7.35644759e-07
-7.35313961e-07
-7.53935493e-07
-7.7665455e-07
-7.58482933e-07
-7.40536739e-07
-7.52133263e-07
-7.59989031e-07
-7.41993614e-07
-7.42460815e-07
-7.75247886e-07
-7.75194217e-07
-7.42351157e-07
-7.36315199e-07
-7.44950776e-07
-7.75747163e-07
-7.7623896e-07
-7.37843725e-07
-7.34818266e-07
-7.46230096e-07
-7.7661307e-07
-7.70072598e-07
-7.3792887e-07
-7.40466398e-07
-7.76492045e-07
-7.76010816e-07
-7.38149207e-07
-7.34757585e-07
-7.44237876e-07
-7.77584831e-07
-7.72629511e-07
-7.38628981e-07
-7.39654878e-07
-7.7790409e-07
-7.75695977e-07
-7.41999203e-07
-7.35553924e-07
-7.4051631e-07
-7.78726217e-07
-7.75603171e-07
-7.44952232e-07
-7.36270457e-07
-7.4129661e-07
-7.79267945e-07
-7.77036156e-07
-7.44247353e-07
-7.37468187e-07
-7.49253085e-07
-7.78236938e-07
-7.78955137e-07
-7.38128929e-07
-7.34516889e-07
-7.3680259e-07
-7.72519704e-07
-7.77617805e-07
-7.41752029e-07
-7.38565977e-07
-7.64627655e-07
-7.7751643e-07
-7.44708382e-07
-7.38950595e-07
-7.60687388e-07
-7.77088963e-07
-7.47334834e-07
-7.39171027e-07
-7.58680155e-07
-7.76508753e-07
-7.49045202e-07
-7.39499202e-07
-7.57194999e-07
-7.76387048e-07
-7.51602583e-07
-7.39346295e-07
-7.51496364e-07
-7.78990217e-07
-7.6896949e-07
-7.38217688e-07
-7.36567843e-07
-7.51771846e-07
-7.78917689e-07
-7.6803042e-07
-7.37705507e-07
-7.36704739e-07
-7.56496793e-07
-7.78073673e-07
-7.53679267e-07
-7.39453513e-07
-7.50509629e-07
-7.78761643e-07
-7.68859512e-07
-7.38228141e-07
-7.36979207e-07
-7.5572235e-07
-7.79487791e-07
-7.56957739e-07
-7.3837365e-07
-7.44220105e-07
-7.79459797e-07
-7.77851318e-07
-7.45371793e-07
-7.36662439e-07
-7.40827059e-07
-7.79037755e-07
-7.79280998e-07
-7.43286973e-07
-7.37361335e-07
-7.49132876e-07
-7.78317269e-07
-7.66260673e-07
-7.37112826e-07
-7.35830397e-07
-7.54209911e-07
-7.78541238e-07
-7.56472818e-07
-7.38953294e-07
-7.49803886e-07
-7.77442173e-07
-7.65393209e-07
-7.37455054e-07
-7.36479885e-07
-7.58530925e-07
-7.77363103e-07
-7.55698838e-07
-7.38819877e-07
-7.50887908e-07
-7.76655339e-07
-7.6439621e-07
-7.3733139e-07
-7.36431871e-07
-7.57428849e-07
-7.76084976e-07
-7.61431164e-07
-7.3674778e-07
-7.36080776e-07
-7.59618956e-07
-7.76472851e-07
-7.56184836e-07
-7.38915543e-07
-7.53348588e-07
-7.76115399e-07
-7.60235748e-07
-7.36318486e-07
-7.35936575e-07
-7.61310618e-07
-7.75968843e-07
-7.55427448e-07
-7.38747229e-07
-7.55260873e-07
-7.75561585e-07
-7.5951875e-07
-7.36297798e-07
-7.36216534e-07
-7.64337154e-07
-7.75496382e-07
-7.56936701e-07
-7.35517628e-07
-7.35508519e-07
-7.6403082e-07
-7.75909185e-07
-7.5160767e-07
-7.38130593e-07
-7.5694352e-07
-7.7569135e-07
-7.57100876e-07
-7.35383259e-07
-7.35558455e-07
-7.63839472e-07
-7.75930053e-07
-7.52125541e-07
-7.38630674e-07
-7.57490678e-07
-7.75582082e-07
-7.59021308e-07
-7.36229953e-07
-7.36674544e-07
-7.63139056e-07
-7.75790078e-07
-7.58990536e-07
-7.36232233e-07
-7.36735059e-07
-7.61669088e-07
-7.75923852e-07
-7.58631818e-07
-7.37959914e-07
-7.39698314e-07
-7.78696948e-07
-7.75283453e-07
-7.5762489e-07
-7.36638345e-07
-7.3714319e-07
-7.60180957e-07
-7.75977311e-07
-7.64622059e-07
-7.36444391e-07
-7.36079306e-07
-7.37317726e-07
-7.55538769e-07
-7.74506406e-07
-7.75000312e-07
-7.61101296e-07
-7.36316216e-07
-7.36793624e-07
-7.59558859e-07
-7.76569363e-07
-7.60895259e-07
-7.35450855e-07
-7.36219039e-07
-7.60986828e-07
-7.7741151e-07
-7.52383274e-07
-7.38872759e-07
-7.55903474e-07
-7.76464947e-07
-7.60047637e-07
-7.35116777e-07
-7.35954899e-07
-7.60726736e-07
-7.7777171e-07
-7.51050535e-07
-7.3831211e-07
-7.57399378e-07
-7.77237204e-07
-7.52354773e-07
-7.38412887e-07
-7.54033354e-07
-7.76083299e-07
-7.63702339e-07
-7.3531641e-07
-7.36141648e-07
-7.60897985e-07
-7.77287112e-07
-7.53623898e-07
-7.38654129e-07
-7.53303721e-07
-7.75626198e-07
-7.66945086e-07
-7.35213281e-07
-7.35975673e-07
-7.61080385e-07
-7.77199034e-07
-7.53815565e-07
-7.38592276e-07
-7.52381657e-07
-7.75082176e-07
-7.72357085e-07
-7.36050563e-07
-7.36619869e-07
-7.57303834e-07
-7.7514283e-07
-7.75160495e-07
-7.36850864e-07
-7.37200496e-07
-7.5800605e-07
-7.74923169e-07
-7.79087717e-07
-7.36183044e-07
-7.35545312e-07
-7.36872826e-07
-7.56305622e-07
-7.76612187e-07
-7.55557566e-07
-7.37705219e-07
-7.48802475e-07
-7.75041666e-07
-7.76795723e-07
-7.34595723e-07
-7.3487212e-07
-7.57423881e-07
-7.77004119e-07
-7.53753342e-07
-7.37133248e-07
-7.53326897e-07
-7.76403348e-07
-7.54004265e-07
-7.37069795e-07
-7.53785474e-07
-7.76167998e-07
-7.53876646e-07
-7.37178048e-07
-7.4823627e-07
-7.74827347e-07
-7.78847326e-07
-7.3477355e-07
-7.34526695e-07
-7.59661626e-07
-7.76511673e-07
-7.50160044e-07
-7.36581167e-07
-7.55485211e-07
-7.75758064e-07
-7.52608916e-07
-7.3685811e-07
-7.48115542e-07
-7.74638316e-07
-7.80362666e-07
-7.34990809e-07
-7.34556177e-07
-7.63368204e-07
-7.76126938e-07
-7.47169202e-07
-7.3619872e-07
-7.58445641e-07
-7.75526479e-07
-7.4936141e-07
-7.36491508e-07
-7.48754948e-07
-7.74302155e-07
-7.77465913e-07
-7.36022826e-07
-7.35014004e-07
-7.52868283e-07
-7.746388e-07
-7.78256302e-07
-7.36008785e-07
-7.35129464e-07
-7.54001073e-07
-7.74652176e-07
-7.78832427e-07
-7.35850822e-07
-7.34943801e-07
-7.5304515e-07
-7.74576527e-07
-7.77776571e-07
-7.35819322e-07
-7.34696346e-07
-7.52178939e-07
-7.74491001e-07
-7.7673737e-07
-7.35854309e-07
-7.34652607e-07
-7.5160544e-07
-7.74383616e-07
-7.76384681e-07
)
;

boundaryField
{
    closed
    {
        type            calculated;
        value           nonuniform List<scalar> 0();
    }
    open
    {
        type            calculated;
        value           nonuniform List<scalar> 0();
    }
    sides
    {
        type            empty;
    }
    procBoundary1to0
    {
        type            processor;
        value           uniform -7.75626119e-07;
    }
    procBoundary1to2
    {
        type            processor;
        value           uniform -7.3581757e-07;
    }
}


// ************************************************************************* //
