/*--------------------------------*- C++ -*----------------------------------*\
| =========                 |                                                 |
| \\      /  F ield         | OpenFOAM: The Open Source CFD Toolbox           |
|  \\    /   O peration     | Version:  2306                                  |
|   \\  /    A nd           | Website:  www.openfoam.com                      |
|    \\/     M anipulation  |                                                 |
\*---------------------------------------------------------------------------*/
FoamFile
{
    version     2.0;
    format      ascii;
    arch        "LSB;label=32;scalar=64";
    class       volScalarField;
    location    "0.0015";
    object      H2O;
}
// * * * * * * * * * * * * * * * * * * * * * * * * * * * * * * * * * * * * * //

dimensions      [0 0 0 0 0 0 0];

internalField   nonuniform List<scalar> 
531
(
0.00735154301
0.00729171052
0.00089704674
0.00105604054
0.00461050532
0.00735494355
0.00733754471
0.000907658712
0.00104991386
0.00476394257
0.00740607521
0.00739751189
0.000901102864
0.00103829694
0.00491114089
0.00752668466
0.0075088878
0.000882663468
0.0010535636
0.00647509129
0.00693051922
0.000859014236
0.00108277741
0.00645046784
0.00688088972
0.000854557211
0.00107093481
0.00457688846
0.00736978417
0.00736587684
0.000846906235
0.00106437829
0.00494804544
0.00690775107
0.00687938215
0.00732689546
0.00624039104
0.000917345308
0.00105601055
0.00101119517
0.000998139997
0.00106836275
0.000992646651
0.00610396023
0.00731983822
0.00745760822
0.00665896824
0.000921846713
0.00135312563
0.00694244169
0.00750964784
0.00625174552
0.00091992662
0.0010959166
0.00272307344
0.0072994583
0.00736952181
0.0010807949
0.0010493932
0.00612659571
0.00679173323
0.000743347797
0.00109258423
0.00430726936
0.00666842626
0.00688480188
0.00692730347
0.00738560801
0.00704950539
0.000794958078
0.00107877181
0.000964176743
0.00107403384
0.00107426009
0.00661226481
0.00745444269
0.00163409957
0.00101447821
0.004358753
0.0073389958
0.00733237267
0.00144446841
0.00103271308
0.00415751884
0.00727011394
0.00726571605
0.0014475413
0.00103849906
0.00396873091
0.00719891342
0.00719759216
0.00154252952
0.00105002234
0.00340828169
0.00704361329
0.00708586663
0.00141202006
0.00107334308
0.00413688356
0.00656278146
0.00727043781
0.00726046348
0.00124518251
0.00105156682
0.00593935748
0.00678775928
0.000913292336
0.00106731804
0.00410049305
0.00709732856
0.00714086749
0.00161781538
0.00103854222
0.00404444731
0.00717848588
0.00720915425
0.00164569155
0.00103082513
0.0038391491
0.00726813255
0.00727121049
0.00137531131
0.00107735077
0.00107883455
0.0038804751
0.00670450856
0.00738113725
0.00737559891
0.0015899261
0.00103031559
0.00602046258
0.00696482934
0.00124701999
0.00104688663
0.00446674274
0.00718818261
0.00722009954
0.00167367443
0.00103723508
0.0041983464
0.00714283699
0.00718573932
0.001646738
0.00104335038
0.00398147859
0.00708854675
0.00714904367
0.00168739277
0.00105165161
0.00346343182
0.00699164729
0.00710678616
0.00201510776
0.00106097661
0.00184984561
0.0068410107
0.00714941468
0.00158873244
0.00104485924
0.004258295
0.00712529487
0.00717708744
0.00150580807
0.0010405595
0.00437305963
0.00717795251
0.00720522248
0.00142706532
0.00106090566
0.00584084967
0.00674470143
0.000950333855
0.00109102547
0.00457845958
0.00669063977
0.00713828244
0.00713349267
0.00107419023
0.00105205001
0.0046496399
0.00711208045
0.00712042286
0.00109954015
0.00105971875
0.00421228636
0.00709163568
0.0070815894
0.000826823167
0.00496917636
0.00691994832
0.000749266947
0.00110450233
0.00105996765
0.00547129136
0.00763760909
0.00725381675
0.000861009124
0.00509158396
0.00704201284
0.000704524392
0.00109736725
0.00105234975
0.0058514138
0.00760694708
0.0069106685
0.000921381142
0.00108015461
0.00578653206
0.00733483224
0.00687168636
0.000934638748
0.00107538348
0.00623041286
0.00742587243
0.00468540768
0.000987706681
0.00640394519
0.00704547989
0.000760460307
0.00110314517
0.00103737148
0.00622223869
0.00768519523
0.00669494447
0.000943236941
0.00108403977
0.00655973695
0.00739130152
0.00360628879
0.00103890578
0.00342613191
0.00678275083
0.00749785508
0.00749167661
0.000844460769
0.00107493752
0.00100952104
0.00111331166
0.00110330967
0.00518819987
0.00698921542
0.00702961039
0.00718197421
0.00755549117
0.00755527852
0.000902821097
0.00105833256
0.00618223963
0.00689938425
0.000903508135
0.00110213993
0.00368315172
0.00673642714
0.00726438407
0.00586058662
0.000986868458
0.00564282983
0.00701932578
0.000905956032
0.00108162271
0.00681596097
0.00690787244
0.000815928642
0.00112336497
0.00103001982
0.00585147335
0.00726482869
0.00664298497
0.00101255096
0.00111907221
0.00444372663
0.00696662172
0.0069872608
0.00774691589
0.00774259048
0.000829360554
0.00105579
0.00095487358
0.00109823644
0.00105024066
0.00620866549
0.00793735153
0.00792380341
0.000937581823
0.00103905226
0.00406861471
0.00698490651
0.00724318131
0.0060556187
0.000983241501
0.00108424344
0.00705612835
0.00753557926
0.000818048725
0.00104408795
0.00689555015
0.00714484194
0.000837437552
0.00106411884
0.00253854862
0.00747416844
0.00753336926
0.000824307075
0.00103256716
0.00390698795
0.00758883672
0.00758241116
0.000861012271
0.00104952468
0.00678204697
0.00711413704
0.000837099582
0.00106477756
0.00255521023
0.00747250997
0.0075188478
0.000819102421
0.00104181847
0.00358090163
0.00738393057
0.00750180486
0.00384363135
0.0010201824
0.000999137129
0.00697868536
0.00772578593
0.00081099527
0.00105001973
0.0066293793
0.00684513801
0.000905605033
0.00112707002
0.0048191098
0.00648460193
0.00734049717
0.00733271223
0.000859720797
0.00105888259
0.00673764895
0.00709122593
0.000845075896
0.00107070613
0.00691182795
0.00717428384
0.000777451643
0.00105159196
0.0010042084
0.00105023124
0.00581736921
0.00719998575
0.00770415127
0.00770041033
0.000805285475
0.00100072835
0.00558996209
0.00786081238
0.00774102701
0.000904608946
0.00104343732
0.00671885475
0.00709529142
0.000858961315
0.00107582852
0.00657879034
0.00696259672
0.000866977688
0.00106703499
0.00379315366
0.00743320269
0.00742849933
0.000848821514
0.00105179817
0.0066530062
0.00706860163
0.000859346673
0.00105570008
0.00415990851
0.00749157507
0.00748644866
0.000865604212
0.00104676151
0.00665100962
0.00710827204
0.000862193411
0.00104891133
0.00457346735
0.00754883367
0.00754376021
0.000879489259
0.00104207274
0.00665937411
0.00715787913
0.000862537894
0.00104106583
0.00482877069
0.00767798706
0.00766931574
0.000892245994
0.00103286869
0.00677530926
0.00717061891
0.000843898592
0.00106316999
0.00667484336
0.00701338899
0.000861049055
0.00107527182
0.00660598084
0.00700134031
0.000881883012
0.00105592143
0.00459077127
0.00759777382
0.00757944325
0.00088171254
0.00104793101
0.00677965939
0.00707761046
0.000867008465
0.00107553045
0.00671546252
0.00700478042
0.000861129969
0.00107044396
0.00328528959
0.00745869104
0.00745855575
0.000814120851
0.00105589061
0.00675625586
0.00706072971
0.00256549661
0.00107226298
0.000992859974
0.00676452769
0.0073805952
0.000892664888
0.00107553656
0.00542856042
0.00677491623
0.007300223
0.00729412091
0.000913506364
0.00108155747
0.00511053956
0.00672782307
0.00710915595
0.0070260489
0.000971677816
0.00529319379
0.00721597461
0.000945767202
0.00106399015
0.00673840878
0.0070905346
0.000950977414
0.00106183717
0.00629922818
0.00718604388
0.00443358603
0.00104715788
0.00110731565
0.00110841977
0.00436487738
0.00702556356
0.00695273611
0.00739106601
0.00674870155
0.00101828275
0.00107944012
0.00656704842
0.00740820739
0.00400607059
0.00103422421
0.00625154727
0.00699847914
0.00100619811
0.00109176951
0.00694996395
0.00693133635
0.000913295943
0.00112371012
0.00095050993
0.00654277686
0.00770309897
0.00600220087
0.00103717011
0.00109099124
0.00667143854
0.00734513362
0.00476144718
0.00106439291
0.00101124665
0.0068156351
0.00733472326
0.00748796866
0.00748280077
0.00247746626
0.00102979352
0.00105123359
0.00102841296
0.00666333491
0.00734813647
0.00098070321
0.00104874655
0.00709712394
0.00718074353
0.00104909594
0.00105343192
0.00508394615
0.00769076129
0.00728228682
0.000884200662
0.00105334927
0.00421622823
0.00742302347
0.00733336411
0.00321667533
0.00107112392
0.00093994232
0.00704294104
0.00756024736
0.00522150064
0.00107302704
0.00105722488
0.00662985561
0.00747890714
0.00613874753
0.00107358844
0.00111860965
0.0048124861
)
;

boundaryField
{
    closed
    {
        type            calculated;
        value           nonuniform List<scalar> 0();
    }
    open
    {
        type            calculated;
        value           nonuniform List<scalar> 0();
    }
    sides
    {
        type            empty;
    }
    procBoundary3to2
    {
        type            processor;
        value           uniform 0.00458120018;
    }
    procBoundary3to4
    {
        type            processor;
        value           uniform 0.00705121257;
    }
}


// ************************************************************************* //
