/*--------------------------------*- C++ -*----------------------------------*\
| =========                 |                                                 |
| \\      /  F ield         | OpenFOAM: The Open Source CFD Toolbox           |
|  \\    /   O peration     | Version:  2306                                  |
|   \\  /    A nd           | Website:  www.openfoam.com                      |
|    \\/     M anipulation  |                                                 |
\*---------------------------------------------------------------------------*/
FoamFile
{
    version     2.0;
    format      ascii;
    arch        "LSB;label=32;scalar=64";
    class       volScalarField;
    location    "0.0015";
    object      prefDZ_T;
}
// * * * * * * * * * * * * * * * * * * * * * * * * * * * * * * * * * * * * * //

dimensions      [1 -1 -1 -1 0 0 0];

internalField   nonuniform List<scalar> 
531
(
-1.18745174e-09
-1.18756417e-09
-1.22964412e-09
-1.22762659e-09
-1.20359627e-09
-1.18738431e-09
-1.18733342e-09
-1.22947704e-09
-1.22766619e-09
-1.20249954e-09
-1.18707776e-09
-1.18706032e-09
-1.22955216e-09
-1.22789589e-09
-1.20138154e-09
-1.18663642e-09
-1.1862344e-09
-1.23029438e-09
-1.22701559e-09
-1.19147393e-09
-1.18875908e-09
-1.23078427e-09
-1.22646965e-09
-1.19157512e-09
-1.18912745e-09
-1.23074156e-09
-1.22708966e-09
-1.20381095e-09
-1.18722971e-09
-1.18698772e-09
-1.23072109e-09
-1.2270012e-09
-1.20109483e-09
-1.18904172e-09
-1.18880584e-09
-1.18733625e-09
-1.19212266e-09
-1.23003011e-09
-1.22683743e-09
-1.22825276e-09
-1.2279665e-09
-1.22677824e-09
-1.22792584e-09
-1.19301189e-09
-1.18708788e-09
-1.18651687e-09
-1.19047644e-09
-1.22966538e-09
-1.22922143e-09
-1.18845874e-09
-1.18684222e-09
-1.1920846e-09
-1.23038853e-09
-1.22637636e-09
-1.21793222e-09
-1.18754509e-09
-1.18691072e-09
-1.23160993e-09
-1.22714522e-09
-1.19373728e-09
-1.18941371e-09
-1.23364165e-09
-1.22627866e-09
-1.20586746e-09
-1.18973437e-09
-1.18945387e-09
-1.18872211e-09
-1.18749397e-09
-1.18849015e-09
-1.23302999e-09
-1.22679279e-09
-1.2296649e-09
-1.22668551e-09
-1.22677852e-09
-1.19010303e-09
-1.18673482e-09
-1.22691278e-09
-1.22851643e-09
-1.20542833e-09
-1.18772979e-09
-1.18724861e-09
-1.22849379e-09
-1.22799686e-09
-1.20693248e-09
-1.18790367e-09
-1.18750938e-09
-1.22847132e-09
-1.22784178e-09
-1.20832844e-09
-1.18818068e-09
-1.18782153e-09
-1.22766711e-09
-1.2276667e-09
-1.21256731e-09
-1.18890245e-09
-1.18827426e-09
-1.22876599e-09
-1.226884e-09
-1.20712939e-09
-1.1903648e-09
-1.18804995e-09
-1.18734994e-09
-1.23019184e-09
-1.22721271e-09
-1.19484903e-09
-1.1895749e-09
-1.2330269e-09
-1.22718846e-09
-1.20736005e-09
-1.188595e-09
-1.18799391e-09
-1.22702853e-09
-1.22771675e-09
-1.20775625e-09
-1.18817107e-09
-1.18770085e-09
-1.22679622e-09
-1.22791065e-09
-1.20928301e-09
-1.18777909e-09
-1.18742309e-09
-1.22908979e-09
-1.22706391e-09
-1.22727571e-09
-1.20894041e-09
-1.18977015e-09
-1.18729887e-09
-1.18684087e-09
-1.2272746e-09
-1.22766933e-09
-1.19412163e-09
-1.18879534e-09
-1.2301742e-09
-1.22755863e-09
-1.20464488e-09
-1.18816168e-09
-1.18755929e-09
-1.22655366e-09
-1.22771968e-09
-1.20659946e-09
-1.18832046e-09
-1.18772934e-09
-1.22677834e-09
-1.22763345e-09
-1.20821808e-09
-1.18855849e-09
-1.18795752e-09
-1.22643367e-09
-1.22757772e-09
-1.21214798e-09
-1.18898969e-09
-1.18820608e-09
-1.22369431e-09
-1.22742228e-09
-1.22503692e-09
-1.18950173e-09
-1.18819474e-09
-1.22726921e-09
-1.22765594e-09
-1.20615496e-09
-1.18838612e-09
-1.18772493e-09
-1.22796543e-09
-1.22759311e-09
-1.20526998e-09
-1.18812066e-09
-1.18742273e-09
-1.22862585e-09
-1.22691668e-09
-1.19533773e-09
-1.18957354e-09
-1.23267207e-09
-1.22646804e-09
-1.20386487e-09
-1.18976552e-09
-1.18840309e-09
-1.18788179e-09
-1.23163671e-09
-1.22732069e-09
-1.20328999e-09
-1.18847415e-09
-1.18792081e-09
-1.23138516e-09
-1.22715095e-09
-1.20651943e-09
-1.18831079e-09
-1.18842707e-09
-1.23240636e-09
-1.20102615e-09
-1.18898864e-09
-1.23446753e-09
-1.22618432e-09
-1.22714865e-09
-1.19739105e-09
-1.18600977e-09
-1.18757885e-09
-1.23166592e-09
-1.20015232e-09
-1.18861148e-09
-1.23455018e-09
-1.22632572e-09
-1.22720316e-09
-1.19470534e-09
-1.18601692e-09
-1.1888845e-09
-1.23008403e-09
-1.2265835e-09
-1.19529068e-09
-1.18715597e-09
-1.18913543e-09
-1.22961708e-09
-1.2266004e-09
-1.19227129e-09
-1.18656213e-09
-1.20281365e-09
-1.22860523e-09
-1.19135415e-09
-1.18844406e-09
-1.23322496e-09
-1.22621746e-09
-1.22775773e-09
-1.19222027e-09
-1.18609079e-09
-1.1896766e-09
-1.22999109e-09
-1.22627232e-09
-1.19059497e-09
-1.18663247e-09
-1.2108869e-09
-1.22767628e-09
-1.21238578e-09
-1.1895826e-09
-1.18669244e-09
-1.18641299e-09
-1.23185842e-09
-1.22692549e-09
-1.22825782e-09
-1.22608581e-09
-1.22630705e-09
-1.19936216e-09
-1.18860382e-09
-1.18833139e-09
-1.18773777e-09
-1.18604848e-09
-1.18596587e-09
-1.23056906e-09
-1.22696858e-09
-1.19279985e-09
-1.18883323e-09
-1.23023123e-09
-1.22596022e-09
-1.21035384e-09
-1.18915271e-09
-1.1873367e-09
-1.19460621e-09
-1.22843901e-09
-1.1962206e-09
-1.18839918e-09
-1.23044427e-09
-1.22660197e-09
-1.18957196e-09
-1.18889961e-09
-1.2317154e-09
-1.22579775e-09
-1.22771744e-09
-1.19477447e-09
-1.1879276e-09
-1.19017655e-09
-1.22858757e-09
-1.22616567e-09
-1.20479907e-09
-1.18890997e-09
-1.188811e-09
-1.18554848e-09
-1.18534995e-09
-1.23204365e-09
-1.22741355e-09
-1.22940811e-09
-1.22654042e-09
-1.22739552e-09
-1.19261025e-09
-1.1846815e-09
-1.18433058e-09
-1.23001546e-09
-1.22737986e-09
-1.20756277e-09
-1.18826555e-09
-1.18787945e-09
-1.19331639e-09
-1.22910471e-09
-1.22622277e-09
-1.18866175e-09
-1.18596275e-09
-1.23227828e-09
-1.22753017e-09
-1.18970257e-09
-1.18824962e-09
-1.23231819e-09
-1.22761125e-09
-1.21942104e-09
-1.18674924e-09
-1.18659778e-09
-1.23202137e-09
-1.22812446e-09
-1.20872637e-09
-1.18628955e-09
-1.18600962e-09
-1.2315611e-09
-1.22753931e-09
-1.19010777e-09
-1.18837375e-09
-1.23209328e-09
-1.22756525e-09
-1.21928489e-09
-1.18681912e-09
-1.18665907e-09
-1.23225819e-09
-1.22793855e-09
-1.21123235e-09
-1.18686846e-09
-1.18658122e-09
-1.2090094e-09
-1.22827547e-09
-1.22787584e-09
-1.18888166e-09
-1.18531565e-09
-1.23218794e-09
-1.22750688e-09
-1.19081948e-09
-1.18950229e-09
-1.23054641e-09
-1.22613335e-09
-1.2021548e-09
-1.19093036e-09
-1.18747806e-09
-1.18698112e-09
-1.23134798e-09
-1.22705007e-09
-1.19037046e-09
-1.18816302e-09
-1.23177669e-09
-1.22702006e-09
-1.18967681e-09
-1.18791989e-09
-1.23285992e-09
-1.22753139e-09
-1.22881222e-09
-1.22758063e-09
-1.195291e-09
-1.18811415e-09
-1.18570339e-09
-1.18575184e-09
-1.23218876e-09
-1.22872209e-09
-1.19680503e-09
-1.18520635e-09
-1.18527207e-09
-1.23045724e-09
-1.2274866e-09
-1.19035074e-09
-1.18826302e-09
-1.23144455e-09
-1.22703998e-09
-1.19109766e-09
-1.18904995e-09
-1.23126825e-09
-1.22741622e-09
-1.20961301e-09
-1.18700956e-09
-1.18676368e-09
-1.23163529e-09
-1.22745742e-09
-1.19060384e-09
-1.18856479e-09
-1.23130295e-09
-1.2275993e-09
-1.20687258e-09
-1.18671429e-09
-1.18648355e-09
-1.23125121e-09
-1.22749839e-09
-1.19049893e-09
-1.18834138e-09
-1.23121303e-09
-1.22764786e-09
-1.20385128e-09
-1.18638125e-09
-1.18618823e-09
-1.23090439e-09
-1.22755032e-09
-1.19029602e-09
-1.18813595e-09
-1.23112284e-09
-1.22788009e-09
-1.20198088e-09
-1.18585349e-09
-1.18551852e-09
-1.23048007e-09
-1.22741888e-09
-1.18988705e-09
-1.18772512e-09
-1.23176058e-09
-1.22693454e-09
-1.19043252e-09
-1.18850611e-09
-1.23128616e-09
-1.22685121e-09
-1.19054992e-09
-1.18877694e-09
-1.23080592e-09
-1.22759052e-09
-1.20365495e-09
-1.18621121e-09
-1.18594926e-09
-1.23051672e-09
-1.22723117e-09
-1.18990645e-09
-1.18823527e-09
-1.23148057e-09
-1.22691818e-09
-1.19023157e-09
-1.18880257e-09
-1.23148134e-09
-1.22749499e-09
-1.21348271e-09
-1.18698212e-09
-1.18669714e-09
-1.23224489e-09
-1.22745158e-09
-1.19016004e-09
-1.18860192e-09
-1.21916901e-09
-1.2272904e-09
-1.228617e-09
-1.1895528e-09
-1.1871281e-09
-1.23050496e-09
-1.22711831e-09
-1.19773755e-09
-1.18981427e-09
-1.18720001e-09
-1.18727234e-09
-1.2300979e-09
-1.22673447e-09
-1.19991105e-09
-1.18981578e-09
-1.18799878e-09
-1.18847174e-09
-1.22864768e-09
-1.19862889e-09
-1.18745207e-09
-1.22924081e-09
-1.22682429e-09
-1.18931657e-09
-1.18807675e-09
-1.22890021e-09
-1.22692296e-09
-1.19164191e-09
-1.18777477e-09
-1.2045398e-09
-1.22753102e-09
-1.22574138e-09
-1.2262708e-09
-1.20513019e-09
-1.18846962e-09
-1.18833368e-09
-1.18684924e-09
-1.189361e-09
-1.22783177e-09
-1.22626074e-09
-1.19026462e-09
-1.18648936e-09
-1.20786189e-09
-1.22750602e-09
-1.19231264e-09
-1.18865283e-09
-1.22840994e-09
-1.22655195e-09
-1.18907459e-09
-1.18891152e-09
-1.22979969e-09
-1.22584675e-09
-1.22903002e-09
-1.19010947e-09
-1.18602653e-09
-1.19361889e-09
-1.22805767e-09
-1.22603251e-09
-1.19005744e-09
-1.18691176e-09
-1.20229587e-09
-1.22726284e-09
-1.22732649e-09
-1.18952606e-09
-1.18737837e-09
-1.18656852e-09
-1.18667036e-09
-1.21988634e-09
-1.22793887e-09
-1.22760469e-09
-1.22769022e-09
-1.19015171e-09
-1.18707917e-09
-1.22793201e-09
-1.22738886e-09
-1.18794026e-09
-1.18801463e-09
-1.22694095e-09
-1.22774283e-09
-1.20007578e-09
-1.18603316e-09
-1.18732064e-09
-1.23004987e-09
-1.22760784e-09
-1.20642102e-09
-1.18693493e-09
-1.18719924e-09
-1.21399704e-09
-1.2271088e-09
-1.23275736e-09
-1.18812988e-09
-1.18661077e-09
-1.1989881e-09
-1.22692519e-09
-1.22659042e-09
-1.18995576e-09
-1.18634021e-09
-1.19284168e-09
-1.22669197e-09
-1.22586918e-09
-1.20203781e-09
)
;

boundaryField
{
    closed
    {
        type            calculated;
        value           nonuniform List<scalar> 0();
    }
    open
    {
        type            calculated;
        value           nonuniform List<scalar> 0();
    }
    sides
    {
        type            empty;
    }
    procBoundary3to2
    {
        type            processor;
        value           uniform -1.20382423e-09;
    }
    procBoundary3to4
    {
        type            processor;
        value           uniform -1.18834578e-09;
    }
}


// ************************************************************************* //
