/*--------------------------------*- C++ -*----------------------------------*\
| =========                 |                                                 |
| \\      /  F ield         | OpenFOAM: The Open Source CFD Toolbox           |
|  \\    /   O peration     | Version:  2306                                  |
|   \\  /    A nd           | Website:  www.openfoam.com                      |
|    \\/     M anipulation  |                                                 |
\*---------------------------------------------------------------------------*/
FoamFile
{
    version     2.0;
    format      ascii;
    arch        "LSB;label=32;scalar=64";
    class       volScalarField;
    location    "0.0015";
    object      prefDPV_T;
}
// * * * * * * * * * * * * * * * * * * * * * * * * * * * * * * * * * * * * * //

dimensions      [1 -1 -1 -1 0 0 0];

internalField   nonuniform List<scalar> 
531
(
5.89547261e-10
5.89595876e-10
6.10004615e-10
6.09013091e-10
5.9733946e-10
5.89513914e-10
5.89486178e-10
6.09922228e-10
6.09032234e-10
5.96805386e-10
5.89366924e-10
5.89357085e-10
6.09959082e-10
6.09145809e-10
5.96260422e-10
5.89161358e-10
5.88957647e-10
6.1032812e-10
6.08707426e-10
5.91449477e-10
5.90148029e-10
6.10570477e-10
6.08437661e-10
5.91497003e-10
5.90326181e-10
6.10548659e-10
6.0874631e-10
5.97443793e-10
5.89438372e-10
5.89316638e-10
6.10537619e-10
6.08701393e-10
5.96120617e-10
5.90286687e-10
5.90164886e-10
5.89486227e-10
5.91753606e-10
6.10199701e-10
6.08618634e-10
6.09321297e-10
6.0917682e-10
6.08590372e-10
6.0915591e-10
5.92185934e-10
5.89360889e-10
5.89092558e-10
5.90973425e-10
6.1001788e-10
6.09837134e-10
5.8999911e-10
5.89262268e-10
5.91735421e-10
6.1037911e-10
6.08392438e-10
6.0432748e-10
5.89587317e-10
5.89278531e-10
6.11003854e-10
6.08771777e-10
5.92546369e-10
5.9045813e-10
6.11986433e-10
6.08343246e-10
5.98446295e-10
5.90602934e-10
5.90490197e-10
5.90129096e-10
5.89572806e-10
5.90028598e-10
6.11686134e-10
6.08598756e-10
6.10022112e-10
6.08544625e-10
6.08591142e-10
5.90780393e-10
5.89201344e-10
6.0871046e-10
6.09453432e-10
5.98231877e-10
5.89684944e-10
5.89443025e-10
6.09482194e-10
6.09195679e-10
5.98964886e-10
5.89763181e-10
5.89565082e-10
6.09471247e-10
6.09118786e-10
5.99645054e-10
5.8989279e-10
5.89712695e-10
6.09078603e-10
6.09032499e-10
6.01711142e-10
5.90234385e-10
5.89925124e-10
6.0961507e-10
6.08643766e-10
5.99061173e-10
5.90905165e-10
5.89836505e-10
5.89484532e-10
6.10311314e-10
6.08805743e-10
5.93085919e-10
5.90538361e-10
6.11695656e-10
6.08795304e-10
5.99173263e-10
5.90087274e-10
5.89791754e-10
6.0876682e-10
6.09056294e-10
5.99366164e-10
5.89885345e-10
5.89653726e-10
6.08653423e-10
6.09152392e-10
6.00110132e-10
5.89700511e-10
5.89522559e-10
6.09773253e-10
6.0873412e-10
6.08840144e-10
5.99942911e-10
5.90625482e-10
5.89474487e-10
5.8924432e-10
6.08887028e-10
6.09031717e-10
5.92730503e-10
5.901706e-10
6.10302686e-10
6.0897815e-10
5.9785027e-10
5.89881887e-10
5.89584218e-10
6.08534958e-10
6.09057622e-10
5.98802383e-10
5.89955597e-10
5.89664987e-10
6.08644632e-10
6.09015172e-10
5.99591153e-10
5.90067855e-10
5.89774577e-10
6.08476347e-10
6.08988202e-10
6.01506739e-10
5.90271405e-10
5.8989366e-10
6.07139142e-10
6.08911501e-10
6.07794255e-10
5.90508548e-10
5.89893461e-10
6.0888429e-10
6.09026573e-10
5.98585793e-10
5.89986233e-10
5.89661662e-10
6.09224168e-10
6.0899471e-10
5.98154311e-10
5.89860021e-10
5.8951389e-10
6.09546564e-10
6.08658774e-10
5.93322155e-10
5.90532156e-10
6.11522132e-10
6.08437744e-10
5.97470577e-10
5.90621387e-10
5.89996404e-10
5.89734639e-10
6.11016724e-10
6.08859768e-10
5.97190092e-10
5.90028633e-10
5.89752507e-10
6.10893653e-10
6.08775747e-10
5.98763567e-10
5.89944163e-10
5.90001124e-10
6.11377797e-10
5.9608784e-10
5.90261665e-10
6.12399376e-10
6.08297369e-10
6.08774623e-10
5.94317288e-10
5.88861704e-10
5.89598354e-10
6.11011333e-10
5.95662319e-10
5.90088418e-10
6.12436431e-10
6.08367282e-10
6.08801053e-10
5.93009682e-10
5.8886133e-10
5.90208307e-10
6.1022708e-10
6.08494292e-10
5.93295711e-10
5.89396929e-10
5.90328998e-10
6.09995093e-10
6.08502229e-10
5.91826608e-10
5.89111149e-10
5.96956345e-10
6.09494978e-10
5.91382612e-10
5.90004994e-10
6.11779971e-10
6.08313788e-10
6.09076653e-10
5.91800877e-10
5.88908441e-10
5.90577395e-10
6.10182934e-10
6.08339157e-10
5.91020064e-10
5.89141935e-10
6.00890688e-10
6.09036108e-10
6.01622307e-10
5.90541575e-10
5.89185709e-10
5.89044906e-10
6.11105803e-10
6.08664676e-10
6.0932365e-10
6.08249072e-10
6.08358586e-10
5.95276728e-10
5.90077791e-10
5.89946513e-10
5.89668724e-10
5.8887051e-10
5.8882909e-10
6.10467539e-10
6.08684439e-10
5.92085497e-10
5.90181175e-10
6.10298762e-10
6.08185091e-10
6.00631236e-10
5.90320302e-10
5.89478403e-10
5.92961139e-10
6.09411802e-10
5.93747764e-10
5.89979149e-10
6.10405497e-10
6.08503682e-10
5.90540507e-10
5.90215514e-10
6.11031326e-10
6.08106159e-10
6.09055733e-10
5.93043914e-10
5.8977449e-10
5.90821159e-10
6.09488786e-10
6.08289609e-10
5.97925269e-10
5.90228252e-10
5.90181328e-10
5.88644691e-10
5.8854466e-10
6.11196793e-10
6.08906586e-10
6.09892787e-10
6.08474695e-10
6.08896983e-10
5.91993159e-10
5.88234892e-10
5.88057309e-10
6.10194514e-10
6.08887956e-10
5.99271777e-10
5.89907792e-10
5.89747577e-10
5.92333881e-10
6.0974415e-10
6.08314409e-10
5.90115416e-10
5.88824993e-10
6.11312869e-10
6.08963628e-10
5.90616163e-10
5.89920367e-10
6.11334841e-10
6.09006283e-10
6.05053867e-10
5.89211113e-10
5.89142863e-10
6.1118513e-10
6.0925944e-10
5.99838481e-10
5.88995589e-10
5.88854509e-10
6.10958944e-10
6.08968775e-10
5.90804553e-10
5.899786e-10
6.11222407e-10
6.08983363e-10
6.04987429e-10
5.89245907e-10
5.89171694e-10
6.11302939e-10
6.09167505e-10
6.01060238e-10
5.89259215e-10
5.89130494e-10
5.99974936e-10
6.09333601e-10
6.09131609e-10
5.90215619e-10
5.88525308e-10
6.11266983e-10
6.08952619e-10
5.91141456e-10
5.90509359e-10
6.10456512e-10
6.0827431e-10
5.96637909e-10
5.91178424e-10
5.89559023e-10
5.89309062e-10
6.10852299e-10
6.08725229e-10
5.90930437e-10
5.89870085e-10
6.11065023e-10
6.08711495e-10
5.90605351e-10
5.8975897e-10
6.11599313e-10
6.08965038e-10
6.09600181e-10
6.08989504e-10
5.93297659e-10
5.89859598e-10
5.88716785e-10
5.8874058e-10
6.11266791e-10
6.09554765e-10
5.94034037e-10
5.88487984e-10
5.8850544e-10
6.10411839e-10
6.08941779e-10
5.90918148e-10
5.89920703e-10
6.10900481e-10
6.08721999e-10
5.91274308e-10
5.90297859e-10
6.10813214e-10
6.08909116e-10
6.00270839e-10
5.89336249e-10
5.8921246e-10
6.10994745e-10
6.08928086e-10
5.91036475e-10
5.90068448e-10
6.10829755e-10
6.08999419e-10
5.98935369e-10
5.89195846e-10
5.8907958e-10
6.10804551e-10
6.08948029e-10
5.90983666e-10
5.89961629e-10
6.10785112e-10
6.09022968e-10
5.97463561e-10
5.89036371e-10
5.88939009e-10
6.10632674e-10
6.08973486e-10
5.908831e-10
5.89865096e-10
6.10740072e-10
6.09138204e-10
5.96552367e-10
5.88788614e-10
5.88619663e-10
6.10421944e-10
6.08906803e-10
5.90693125e-10
5.89660925e-10
6.11056848e-10
6.08667944e-10
5.90953463e-10
5.90031952e-10
6.10821542e-10
6.08627585e-10
5.9100343e-10
5.90166072e-10
6.10583713e-10
6.08995055e-10
5.97367368e-10
5.88957491e-10
5.88823887e-10
6.10439152e-10
6.08814582e-10
5.90703399e-10
5.89904528e-10
6.10919326e-10
6.08661088e-10
5.90858015e-10
5.90179353e-10
6.10919098e-10
6.08948849e-10
6.02157212e-10
5.89325789e-10
5.89182997e-10
6.11295772e-10
6.08925603e-10
5.90827425e-10
5.90086035e-10
6.04930661e-10
6.08846785e-10
6.09501406e-10
5.90524311e-10
5.8938886e-10
6.10434428e-10
6.08761119e-10
5.94486351e-10
5.90656616e-10
5.89414536e-10
5.89449986e-10
6.1023318e-10
6.08569902e-10
5.95543969e-10
5.90651328e-10
5.89790117e-10
5.90016363e-10
6.09514488e-10
5.94919788e-10
5.89529972e-10
6.09808203e-10
6.08612919e-10
5.90402633e-10
5.89826781e-10
6.09638512e-10
6.08662011e-10
5.91519007e-10
5.89687784e-10
5.97796331e-10
6.08964382e-10
6.08076254e-10
6.08341014e-10
5.98084635e-10
5.90015237e-10
5.89937789e-10
5.89250501e-10
5.90426205e-10
6.09111626e-10
6.08332876e-10
5.90855537e-10
5.89072415e-10
5.99416245e-10
6.08950504e-10
5.91848307e-10
5.90103535e-10
6.09399328e-10
6.08479764e-10
5.90308576e-10
5.90224495e-10
6.10084103e-10
6.08130689e-10
6.09703348e-10
5.90774712e-10
5.88878556e-10
5.9248055e-10
6.09226546e-10
6.0822003e-10
5.90765147e-10
5.89275909e-10
5.96704407e-10
6.08832174e-10
6.08858299e-10
5.90517474e-10
5.89508336e-10
5.8912235e-10
5.89172705e-10
6.05280695e-10
6.09166388e-10
6.09001636e-10
6.09041957e-10
5.90811325e-10
5.89360166e-10
6.09157716e-10
6.08893491e-10
5.89759252e-10
5.89807264e-10
6.08669635e-10
6.09070912e-10
5.95623986e-10
5.88880286e-10
5.89472662e-10
6.10206066e-10
6.09003435e-10
5.98715076e-10
5.89297549e-10
5.89418419e-10
6.02407871e-10
6.08755895e-10
6.11563753e-10
5.89847282e-10
5.89152839e-10
5.95093472e-10
6.08664321e-10
6.08495287e-10
5.90708879e-10
5.89006798e-10
5.92103683e-10
6.08547809e-10
6.08141356e-10
5.96579606e-10
)
;

boundaryField
{
    closed
    {
        type            calculated;
        value           nonuniform List<scalar> 0();
    }
    open
    {
        type            calculated;
        value           nonuniform List<scalar> 0();
    }
    sides
    {
        type            empty;
    }
    procBoundary3to2
    {
        type            processor;
        value           uniform 5.97450618e-10;
    }
    procBoundary3to4
    {
        type            processor;
        value           uniform 5.89956495e-10;
    }
}


// ************************************************************************* //
