/*--------------------------------*- C++ -*----------------------------------*\
| =========                 |                                                 |
| \\      /  F ield         | OpenFOAM: The Open Source CFD Toolbox           |
|  \\    /   O peration     | Version:  2306                                  |
|   \\  /    A nd           | Website:  www.openfoam.com                      |
|    \\/     M anipulation  |                                                 |
\*---------------------------------------------------------------------------*/
FoamFile
{
    version     2.0;
    format      ascii;
    arch        "LSB;label=32;scalar=64";
    class       volScalarField;
    location    "0.0015";
    object      T;
}
// * * * * * * * * * * * * * * * * * * * * * * * * * * * * * * * * * * * * * //

dimensions      [0 0 0 1 0 0 0];

internalField   nonuniform List<scalar> 
531
(
322.772057
323.235421
340.095421
339.541204
329.909568
322.74985
322.890111
340.08864
339.596927
329.780212
322.366926
322.436043
340.118301
339.565302
329.56295
321.438272
321.617727
339.723139
340.125786
329.347248
325.938983
339.632054
340.177072
329.528663
326.311136
339.735219
339.797167
329.901922
322.643216
322.68882
339.865696
339.975213
329.499303
326.113159
326.308391
322.973251
328.833019
339.451325
340.250493
339.649553
340.101418
340.116378
340.221183
328.81614
323.040111
322.000897
327.972525
339.709313
336.26158
325.842037
321.555169
328.887405
339.09945
340.061622
332.803293
323.175986
322.664701
337.198415
340.071544
330.104866
326.964467
338.777585
340.200986
330.314377
327.852265
326.291631
325.96099
322.496772
325.059366
338.583769
339.945658
339.093391
340.114287
340.026724
328.272752
322.009493
335.609547
339.367908
330.170676
322.851257
322.93536
336.094881
339.558404
330.437196
323.3857
323.439308
336.093728
339.610323
330.668502
323.928103
323.950875
335.822381
339.594867
331.501257
325.100693
324.787953
336.182011
339.945499
330.523421
328.63802
323.374077
323.485152
336.682906
339.977802
329.919015
327.001367
337.666674
339.763017
330.514887
324.697042
324.377345
335.603316
339.720982
330.55855
324.086513
323.866
335.53157
339.662946
330.824336
323.408151
323.400407
336.313801
339.724088
339.513836
330.723038
327.603658
322.548314
322.621279
335.706662
339.88629
329.637289
325.689535
336.673499
339.737709
330.06164
324.012023
323.786388
335.437013
339.737835
330.344468
324.355752
324.042955
335.507237
339.723662
330.630891
324.764675
324.316219
335.387861
339.649721
331.414819
325.492366
324.631473
334.500932
339.64923
334.852362
326.613773
324.308752
335.674433
339.681147
330.269832
324.48825
324.108301
335.899933
339.80136
330.079942
324.092316
323.901112
336.112212
340.104091
329.680813
327.307361
337.484469
340.053035
329.992635
327.700414
324.388325
324.433686
337.160235
339.873426
329.838803
324.587105
324.53103
337.017304
339.910647
330.359384
324.74446
324.819051
338.673713
329.59976
326.022703
338.223782
340.104744
339.908973
329.119741
320.603533
323.528175
338.830434
329.499975
325.115285
338.535334
340.085372
339.974609
328.856161
320.852863
326.086955
339.345148
340.113704
329.086544
322.921111
326.378032
339.564577
340.170963
328.954874
322.246356
329.495828
339.683312
329.293459
325.089278
338.898388
340.095411
339.701864
328.800253
320.197995
327.663488
339.110785
340.337597
328.6804
322.510542
330.965684
339.751683
331.415551
327.037615
321.665887
321.739756
338.898008
339.884175
339.669841
340.059684
340.01193
329.276617
325.506878
325.205639
324.071243
321.263477
321.272391
339.187632
340.096095
329.264802
326.166427
339.474868
340.344896
330.912048
327.333279
323.455668
328.799617
339.844327
329.060959
325.282255
339.251781
340.07468
326.798174
326.107717
339.430568
340.167174
339.847549
328.957931
323.42586
328.065255
339.333556
339.900235
330.066861
325.678142
325.524146
319.760185
319.823918
338.951194
339.734331
339.453642
339.878688
339.833443
329.242665
318.290329
318.46687
339.171008
340.015636
330.508657
325.529588
323.597628
328.794779
339.30705
340.379813
325.008839
321.428366
338.907686
339.804942
326.215008
324.342294
338.600786
339.435283
333.210862
321.850945
321.38802
339.042247
339.447698
330.665717
320.969901
321.051715
338.92108
339.715606
327.064339
324.573534
338.79891
339.466141
333.17335
321.857994
321.499521
338.910214
339.47551
331.203028
322.555001
321.644531
330.497037
339.496676
340.168604
325.588449
319.966554
339.086199
339.737157
328.20447
326.583734
339.167402
339.808283
329.804778
329.23109
322.857656
322.945658
339.124867
340.014113
327.398391
324.748222
338.960156
339.862955
326.092616
324.125858
338.97603
339.691856
339.2582
339.668264
329.384925
323.922575
320.094202
320.118655
339.166755
339.388195
329.405073
318.851675
319.847103
339.259838
339.853717
327.534595
324.717363
339.051496
339.76824
328.584035
325.709533
339.090742
339.564541
330.868374
322.156309
322.212567
339.029845
339.754774
328.022593
324.915644
339.169575
339.570427
330.37604
321.714389
321.775535
339.125249
339.793407
328.030734
324.618594
339.207492
339.628087
329.927255
321.28511
321.344493
339.229551
339.817037
327.958312
324.245619
339.281656
339.538341
329.64702
320.290748
320.402324
339.418574
340.073632
327.105455
324.156957
338.990861
340.053632
327.856297
325.32747
339.159886
339.945904
328.353421
325.419283
339.281484
339.574929
329.809925
320.905849
321.08134
339.539167
340.015969
327.074701
324.849675
338.905792
339.881808
327.55363
325.393773
338.988612
339.444385
331.672014
321.954219
321.979825
338.992238
339.698917
327.254779
324.974674
333.134403
339.598449
339.596738
327.1658
322.564857
339.390546
339.702705
329.214311
327.105127
323.186254
323.230251
339.447281
339.956089
329.332002
327.442166
324.614813
325.233586
339.883145
329.214845
323.819852
339.735934
340.141033
327.332958
324.753325
339.964199
340.08429
328.697154
324.039761
329.611478
339.758312
340.4657
339.967081
329.810666
325.237154
325.763149
322.500499
327.264585
339.920554
340.418878
328.598935
322.387302
330.363449
339.974534
329.221603
325.439369
339.58376
339.966048
325.803591
325.93751
339.715169
340.117442
339.854443
328.747262
320.05703
328.721496
339.438863
340.450391
327.856654
322.853149
329.467284
339.740335
340.486526
326.798631
322.909523
321.756352
321.788795
333.343906
339.653144
339.631956
339.896025
327.92043
322.821804
340.396558
339.861812
324.703946
324.074171
340.261535
339.476976
329.317637
320.159676
323.319257
339.919683
339.597736
330.258729
322.243296
322.930275
331.773911
339.77722
337.508734
325.104627
321.166983
329.052824
339.913217
340.457878
328.138099
321.846053
328.903511
340.115194
340.175109
329.575913
)
;

boundaryField
{
    closed
    {
        type            fixedValue;
        value           nonuniform List<scalar> 0();
    }
    open
    {
        type            zeroGradient;
    }
    sides
    {
        type            empty;
    }
    procBoundary3to2
    {
        type            processor;
        value           uniform 329.960562;
    }
    procBoundary3to4
    {
        type            processor;
        value           uniform 325.046236;
    }
}


// ************************************************************************* //
