/*--------------------------------*- C++ -*----------------------------------*\
| =========                 |                                                 |
| \\      /  F ield         | OpenFOAM: The Open Source CFD Toolbox           |
|  \\    /   O peration     | Version:  2306                                  |
|   \\  /    A nd           | Website:  www.openfoam.com                      |
|    \\/     M anipulation  |                                                 |
\*---------------------------------------------------------------------------*/
FoamFile
{
    version     2.0;
    format      ascii;
    arch        "LSB;label=32;scalar=64";
    class       volScalarField;
    location    "0.00184";
    object      h;
}
// * * * * * * * * * * * * * * * * * * * * * * * * * * * * * * * * * * * * * //

dimensions      [0 2 -2 0 0 0 0];

internalField   nonuniform List<scalar> 
530
(
9760.84593
-2370.90737
-5539.69323
-2164.40082
10338.4488
10047.9486
-779.699805
-5341.63836
-2413.87462
10350.8841
10101.9719
-895.537415
-5293.78488
-2660.7974
10347.4367
10100.9599
-1380.7904
-5441.14724
-3051.98153
10300.7132
10013.8538
-2042.89219
-6517.96125
-3688.52381
9700.61281
9578.77752
9924.68809
8062.54156
-5074.21765
-5631.87117
-5107.8031
-3121.64926
9983.1593
10735.011
10280.6877
-281.615548
-1215.46809
10349.4564
10544.72
-410.446989
-3636.81415
-4361.05561
-3714.08279
10173.6959
10129.8739
-2032.99306
-5688.09876
-3626.79049
10077.0046
10271.9609
-650.394736
-4556.31804
-3693.97687
-5340.79549
-3860.34272
9902.82849
10413.9167
10396.2413
10497.1787
-571.477131
-1451.16349
10271.0332
10566.627
-1057.05916
-3802.65776
-4499.92895
-4340.4461
10137.4094
10086.0947
-2470.04427
-5822.56068
-4299.99266
10101.4061
10119.7533
-1166.36713
-5616.99103
-4047.81513
10030.1335
10266.2607
-3006.02556
-2891.26908
10074.4481
10471.7184
3623.80341
-4342.53421
-4502.10333
-6546.0855
-5316.73551
9586.20953
9820.17356
9755.35064
9360.11744
-5529.0087
-4342.07569
9358.19308
-4132.8357
-5216.5534
9592.47532
9717.23296
9737.92152
8789.14378
-5745.6471
-4006.73546
9205.47565
-2792.31171
-3837.38093
10120.9567
9154.82149
-2841.1608
-1715.11004
10199.1424
9970.66103
-1060.02357
-3680.77537
-4054.74877
-2223.70135
10166.8016
9513.05439
-1887.05252
-6037.05847
-2911.21693
9871.13516
10147.6157
6590.52802
-5109.41676
-3291.67096
9360.31998
1862.28629
-1700.28535
10248.1447
9539.50735
-2664.13842
-3795.50436
-3923.29092
-1700.59378
10275.5345
9458.72408
-1696.35773
-4833.83712
-1502.19226
10268.6552
9393.93364
-2159.93551
-4926.9396
-1709.37407
10220.6929
9192.11352
-3465.36333
-5643.16502
-2430.37915
10185.4268
8706.64966
890.356364
9924.38586
9340.37287
-4011.87212
-4038.11747
-4576.55411
-2593.96343
10160.6884
8421.82757
-630.674015
9769.4628
9452.83233
-3520.66274
-3634.7241
-4007.64235
-1612.23475
10345.6471
9737.05494
-132.064294
-4910.07709
-2054.91268
10151.5294
8887.04807
-3215.85259
-1802.73728
10291.9069
9708.82887
-2984.33524
-4940.39877
-1808.9108
10197.839
9823.52597
-1152.35204
-5275.77062
-2001.58365
9974.81711
9995.70045
1527.50298
-5897.22674
-2918.96762
9445.52328
10320.4084
9173.14339
-5181.66639
-6646.16259
-5835.67858
-4128.04597
9713.64435
9109.0003
-4141.55282
-3456.43331
9857.09299
9460.56803
-3693.4032
-3062.15875
9927.06199
9848.96885
-4282.94597
-6210.60181
-3848.0353
9708.37426
9186.98723
-4067.84
-3981.80076
9755.39623
9411.53516
-3888.7227
-3570.0509
9886.09737
9567.31378
-3588.11301
-3185.52935
9988.90676
9664.44956
-3496.36753
-2034.43003
9805.21339
1510.35973
-2827.55302
9922.91701
9835.38048
-3376.61824
-5688.52692
-3228.87666
9927.58276
9567.35383
-3519.86922
-3146.73631
10149.3044
9991.78362
-3218.97145
-5344.00888
-3057.95349
10028.0183
9663.99037
-3293.22525
-2915.33512
10271.9933
10082.4287
-2615.14831
-4825.71996
-2588.51367
10172.9963
9980.08469
-2554.98687
-5334.08025
-3055.94883
10004.7563
9779.29773
-3383.98194
-3161.29292
10164.392
10088.185
-3089.1634
-5874.20172
-3475.73783
9812.53356
10243.0067
9986.55875
4376.40207
-5302.12325
-4256.21497
9957.81831
9959.80396
-3190.6959
-4735.48998
-4867.30096
-4231.67198
9773.63697
9672.48318
-4313.15791
-4554.79327
9461.49363
9696.56824
-4432.37734
-4316.00821
9625.10151
10598.271
9984.71739
278.219659
-5877.90033
-4089.79491
9719.7332
9877.39165
-3087.42932
-3557.88073
9650.88878
10165.0467
-2231.43234
-4917.62444
-3532.01865
9933.55922
10150.7649
-1131.55574
-4835.92062
-3493.68327
9949.3633
10193.3237
-899.865132
-4795.17471
-3595.01066
9943.20382
10201.1555
-1207.87679
-5055.65712
-3993.04851
9813.62354
10150.2553
-2577.53304
-3253.83446
9642.2001
10298.1466
-969.289551
-4622.56322
-3698.02652
9947.60162
10286.9121
262.81034
-4537.81317
-3685.58177
9972.89669
10335.9089
-405.860613
-3845.23744
-4031.74979
-4034.04197
9734.17783
10257.8495
-2461.14515
-3087.35022
9642.60917
10364.9791
183.764326
-4327.67179
-3843.6382
9948.87403
10236.7185
-759.446848
-4983.56927
-4316.1632
9793.00397
10248.1662
-2459.80086
-3243.96643
9590.20505
10376.2456
279.603848
-4246.2283
-3914.98411
9970.03924
10332.3796
-741.987989
-3997.84413
-4314.94963
-4316.85507
9505.41953
10279.6185
-2599.02523
-3317.28451
9548.99933
10430.1739
-1490.8078
-3421.82408
-4527.67924
-3689.32187
9517.37206
-1594.21631
-4724.42939
9348.11308
10162.0416
-3226.34354
-4206.66799
9232.50622
10212.2253
-3264.12364
-4112.27914
9234.61537
10235.6073
-3185.63703
-4029.43456
9239.83439
10258.2317
-3064.58102
-3882.32283
9274.07489
10307.666
-2773.79041
-3566.30332
9401.6092
10387.04
-1269.76347
-3450.59881
-4037.72872
-233.674589
9827.80552
-1215.69001
-3977.94488
9293.86942
10277.2958
-2980.8442
-3898.45472
9190.65949
10296.8838
-2827.10217
-3687.15492
9304.76713
10347.283
-1299.70372
-3660.64289
-4100.50662
485.082599
9865.09738
-1292.11452
-3904.21328
9254.95939
10318.3267
-2678.22146
-3655.61583
9220.24741
10385.7435
-2344.87913
-3191.62969
9370.35395
10459.0575
300.080077
-3572.95906
-3004.78293
-4397.43773
-4387.1078
9564.6789
10233.6161
10274.8297
10079.7264
-1227.62442
-6018.09166
-5877.17381
9459.12561
10092.5685
-3070.22502
-4520.62829
9142.63424
10083.3917
-1902.25352
-5676.12115
-5550.5169
9573.38837
10196.2706
-2454.40246
-3838.03646
9317.22392
10291.7135
-641.234674
-4601.16606
-4602.54758
9612.82339
10236.5814
216.706096
-4690.98317
-4691.66938
9635.83148
10203.6939
-193.917744
-5023.78458
-5025.24767
9712.79919
10294.5665
-2233.75386
-3607.58317
9428.9411
10305.6993
-714.900159
-4767.35891
-4768.1066
9547.44429
10132.5383
-670.205699
-5404.21846
-5297.40989
9655.76201
10235.3791
-2567.20588
-3943.34566
9394.64846
10197.7402
-1309.21953
-5348.11174
-5349.07116
9632.02802
10231.5373
-2514.53561
-3807.14427
9364.09807
10414.406
-2390.00337
-3334.26375
9514.36727
10382.9332
-133.385381
-4445.61104
-4445.28041
9660.97034
10281.7927
611.655668
-4565.61001
-4565.01477
9673.05
10262.633
429.101714
-4612.02281
-4613.9551
9677.54553
10257.7682
399.748225
-4621.37638
-4624.16281
9664.43696
10254.626
368.297413
)
;

boundaryField
{
    closed
    {
        type            lookUpEnthalpy;
        h0              nonuniform List<scalar> 0();
        value           nonuniform List<scalar> 0();
    }
    open
    {
        type            zeroGradient;
    }
    sides
    {
        type            empty;
    }
    procBoundary2to1
    {
        type            processor;
        value           uniform 10448.4617;
    }
    procBoundary2to3
    {
        type            processor;
        value           uniform -4633.52603;
    }
}


// ************************************************************************* //
