/*--------------------------------*- C++ -*----------------------------------*\
| =========                 |                                                 |
| \\      /  F ield         | OpenFOAM: The Open Source CFD Toolbox           |
|  \\    /   O peration     | Version:  2306                                  |
|   \\  /    A nd           | Website:  www.openfoam.com                      |
|    \\/     M anipulation  |                                                 |
\*---------------------------------------------------------------------------*/
FoamFile
{
    version     2.0;
    format      ascii;
    arch        "LSB;label=32;scalar=64";
    class       volScalarField;
    location    "0.00184";
    object      prefDh_T;
}
// * * * * * * * * * * * * * * * * * * * * * * * * * * * * * * * * * * * * * //

dimensions      [1 1 -3 -1 0 0 0];

internalField   nonuniform List<scalar> 
530
(
-0.000742313083
-0.000596167066
-0.000492637565
-0.000595117981
-0.000748207104
-0.000748124143
-0.000591229843
-0.000499693328
-0.000594925111
-0.000749532736
-0.000748621375
-0.000591140322
-0.000501313279
-0.000587095353
-0.000748881278
-0.000750026957
-0.000593779071
-0.000496330876
-0.000574945184
-0.000748293784
-0.00074877471
-0.000597968051
-0.000458396968
-0.000555021252
-0.000741738395
-0.000732499791
-0.000740589656
-0.000723931959
-0.00050871773
-0.00048845107
-0.000507543741
-0.000573902082
-0.000745847054
-0.000746915434
-0.000749460638
-0.000590461344
-0.000594977862
-0.000749445709
-0.000748867805
-0.000587328337
-0.000556348293
-0.00053215342
-0.00055366169
-0.000752345679
-0.000752751243
-0.000591482271
-0.000488172163
-0.000556048341
-0.000749353454
-0.000750838064
-0.000587762249
-0.000526120779
-0.000553639766
-0.000499788972
-0.000548484679
-0.000747785346
-0.000752129521
-0.000749944908
-0.000752967556
-0.000590239139
-0.0005932041
-0.000748017783
-0.000750404633
-0.000589995569
-0.000550837741
-0.000527711752
-0.000533169489
-0.000750415811
-0.000750647299
-0.000592768548
-0.0004834833
-0.000534419085
-0.000747271366
-0.000747850915
-0.0005930895
-0.000490151564
-0.000542707352
-0.00074339971
-0.000746766495
-0.0005776413
-0.000581696914
-0.000742016197
-0.000736505278
-0.000604734
-0.000533552515
-0.000528087796
-0.000456525683
-0.000500255266
-0.000740226091
-0.000739691144
-0.000737962798
-0.000732125991
-0.000492860722
-0.000533523798
-0.000736208642
-0.000540761866
-0.00050368429
-0.000740353427
-0.000738237266
-0.00073856586
-0.000723831825
-0.000485834914
-0.000544262195
-0.000738795052
-0.000585141457
-0.000549726446
-0.000747069578
-0.00072312977
-0.000582322221
-0.000598165556
-0.000750001522
-0.000730842316
-0.000591034835
-0.000555580351
-0.000542411289
-0.000596333153
-0.000750010358
-0.000726330857
-0.000595345243
-0.000474286591
-0.000577887403
-0.000744628493
-0.000744128812
-0.000681774231
-0.000507576405
-0.000567699288
-0.000736989193
-0.000593046503
-0.000593254166
-0.000748553024
-0.000729084596
-0.000588361016
-0.000551562864
-0.000546810047
-0.000591469605
-0.000751012173
-0.00073101893
-0.000592056626
-0.000516863559
-0.000587258804
-0.000749660398
-0.000733305551
-0.000595565286
-0.000513718679
-0.000587549587
-0.000747555221
-0.000735051116
-0.000562220446
-0.000489475142
-0.000592100556
-0.000750221474
-0.000726306822
-0.000589420272
-0.000739300214
-0.000727696293
-0.000544536543
-0.000543638437
-0.000525450106
-0.000589803224
-0.000751325934
-0.000725268505
-0.000590511231
-0.000736013833
-0.000731485436
-0.000561138429
-0.000557157473
-0.000544466261
-0.000595407391
-0.000750127699
-0.000739411685
-0.000586427546
-0.000514244982
-0.000597390572
-0.00074518014
-0.000734231847
-0.000569948382
-0.000608358806
-0.00074655655
-0.000739761806
-0.000577382764
-0.000513126225
-0.000595635907
-0.000743597584
-0.000744717002
-0.000593528808
-0.000501624628
-0.00059772351
-0.000743880153
-0.000742665986
-0.00058843299
-0.000479542187
-0.000579013519
-0.000731537597
-0.000742034062
-0.000741635402
-0.000504878502
-0.000452308346
-0.000482176266
-0.000540945791
-0.000737413189
-0.00073703103
-0.000539999923
-0.000564243367
-0.000740872433
-0.000741716818
-0.00055460071
-0.000577151396
-0.000741806198
-0.000744135724
-0.000535120437
-0.00046857215
-0.000549787146
-0.000737845652
-0.000747598573
-0.000542343087
-0.000545839309
-0.000740772004
-0.000746219707
-0.000548172803
-0.000559811228
-0.000743152094
-0.000746249364
-0.000558019293
-0.000572601162
-0.000744172337
-0.000748537893
-0.000561058329
-0.000600700582
-0.000748218379
-0.00059022402
-0.000582184067
-0.000746171963
-0.000749533318
-0.000564466997
-0.000487582946
-0.000569414242
-0.000744528945
-0.000750861629
-0.00056005817
-0.000572988591
-0.000748923131
-0.00074641214
-0.000569639677
-0.000499364795
-0.000574935855
-0.000744693263
-0.000750517921
-0.000567555971
-0.000580502587
-0.000749680005
-0.00074639667
-0.000588828082
-0.000517112893
-0.000589570261
-0.000745739426
-0.000748590896
-0.000591237864
-0.000499714301
-0.000575273998
-0.000743388253
-0.000747572366
-0.000564934031
-0.000572998495
-0.000745299636
-0.000742890535
-0.000574275163
-0.000480324426
-0.000561604857
-0.000738410374
-0.000746778542
-0.000740595958
-0.0006157601
-0.000500747585
-0.000536285083
-0.000737687966
-0.000743121731
-0.000571914496
-0.000520125177
-0.000515624753
-0.000537290141
-0.000738759861
-0.00074447173
-0.000534352653
-0.000526306951
-0.000734907176
-0.000745776981
-0.00053029867
-0.000534330122
-0.000739236578
-0.0007458453
-0.000747299103
-0.000589793867
-0.000480917402
-0.000541534096
-0.00073870118
-0.000750314875
-0.000574281448
-0.000559409333
-0.000736061104
-0.000746054019
-0.000597491642
-0.000513983492
-0.000559872107
-0.000740899389
-0.000748810598
-0.000592711866
-0.000516789686
-0.000560926317
-0.000742109195
-0.000749809628
-0.000591931272
-0.000518163325
-0.000557676024
-0.00074311888
-0.000748973996
-0.000592397224
-0.000509340284
-0.000544595958
-0.000741040754
-0.000752047794
-0.000590393219
-0.000568923535
-0.000739177337
-0.000747422731
-0.000592208216
-0.000523962721
-0.000554208677
-0.000744302541
-0.000749674488
-0.000588652876
-0.000526754017
-0.000554522951
-0.000743715407
-0.000750040022
-0.000591722062
-0.000549604801
-0.000543528597
-0.000543449343
-0.000741951995
-0.000750064217
-0.000594116439
-0.00057446253
-0.000741602181
-0.000746414554
-0.000590163801
-0.000533830041
-0.000549500316
-0.00074469365
-0.000748884879
-0.000590995378
-0.000511811
-0.000533905385
-0.000743382497
-0.000751934818
-0.00059434639
-0.000569125129
-0.000742566775
-0.00074663542
-0.000589859839
-0.000536578537
-0.000547089919
-0.000743306916
-0.000749880934
-0.000593333817
-0.00054453165
-0.000534217421
-0.000533993785
-0.000739987433
-0.000749866738
-0.000590275915
-0.000566840398
-0.000740862611
-0.00074699921
-0.000596956408
-0.000563816947
-0.000527086283
-0.000555154096
-0.000747288429
-0.000600027025
-0.000520510832
-0.000738384806
-0.000749451718
-0.000570552537
-0.000537613477
-0.000738083905
-0.000749457021
-0.000569299292
-0.000540724609
-0.000738432506
-0.000749606204
-0.000571819335
-0.000543399178
-0.000739349117
-0.000750298004
-0.000575615542
-0.000548107336
-0.000741000468
-0.000751399949
-0.000584716496
-0.000558250306
-0.000743589119
-0.000751307844
-0.000592867224
-0.000561924865
-0.000542952258
-0.000588909988
-0.000749627693
-0.000593431382
-0.000544981551
-0.000742884633
-0.000751604673
-0.000578075257
-0.0005474615
-0.000742002304
-0.00075157322
-0.000582953922
-0.000554379207
-0.00074372388
-0.000750654028
-0.000592771147
-0.000555257306
-0.000540866159
-0.000588156902
-0.000749278032
-0.000594622296
-0.000547428658
-0.000741487839
-0.000750727996
-0.000588238489
-0.000555527496
-0.000740202038
-0.000749357738
-0.000598986248
-0.000571025017
-0.000741276475
-0.000745497385
-0.000591709167
-0.000558981598
-0.000576923253
-0.000531630461
-0.000531854169
-0.000740009134
-0.00074455682
-0.000743541237
-0.000745492525
-0.000593297409
-0.000476039155
-0.000481676217
-0.000739564437
-0.000747629392
-0.000575638615
-0.000527341249
-0.000739229842
-0.000744092189
-0.000600766385
-0.000487622063
-0.000492603733
-0.000737884065
-0.000746350033
-0.000596051996
-0.000550085595
-0.000738420151
-0.000743377642
-0.000597089782
-0.000524725838
-0.000524635671
-0.000736399946
-0.000743987592
-0.000594693896
-0.000521682494
-0.000521648004
-0.00073872522
-0.000743187383
-0.000593298937
-0.000510327439
-0.000510438428
-0.000740010916
-0.000747419096
-0.000602684304
-0.000557509675
-0.000740327504
-0.000745059366
-0.00059548335
-0.00051908775
-0.00051906314
-0.000738390346
-0.000744965364
-0.000594123179
-0.000497386383
-0.000501298017
-0.000741695128
-0.000747883153
-0.000591375722
-0.000546441178
-0.000742641485
-0.000745153617
-0.00059476761
-0.000499223804
-0.000499609863
-0.000739058567
-0.000749356032
-0.000593579012
-0.000550625814
-0.000739699084
-0.00074863196
-0.000597538366
-0.000566402566
-0.000741289084
-0.00074511056
-0.000593117069
-0.00052996082
-0.00052982256
-0.000738795728
-0.000745157666
-0.000592074266
-0.00052589023
-0.000525835661
-0.000739751885
-0.000745240956
-0.000591543405
-0.000524331675
-0.000524195168
-0.000739703176
-0.000745370094
-0.000591488297
-0.000524016544
-0.00052384858
-0.000739578958
-0.000745576099
-0.000591433
)
;

boundaryField
{
    closed
    {
        type            calculated;
        value           nonuniform List<scalar> 0();
    }
    open
    {
        type            calculated;
        value           nonuniform List<scalar> 0();
    }
    sides
    {
        type            empty;
    }
    procBoundary2to1
    {
        type            processor;
        value           uniform -0.000750824678;
    }
    procBoundary2to3
    {
        type            processor;
        value           uniform -0.00052360539;
    }
}


// ************************************************************************* //
