/*--------------------------------*- C++ -*----------------------------------*\
| =========                 |                                                 |
| \\      /  F ield         | OpenFOAM: The Open Source CFD Toolbox           |
|  \\    /   O peration     | Version:  2306                                  |
|   \\  /    A nd           | Website:  www.openfoam.com                      |
|    \\/     M anipulation  |                                                 |
\*---------------------------------------------------------------------------*/
FoamFile
{
    version     2.0;
    format      ascii;
    arch        "LSB;label=32;scalar=64";
    class       volScalarField;
    location    "0.00184";
    object      prefDPV_H2O;
}
// * * * * * * * * * * * * * * * * * * * * * * * * * * * * * * * * * * * * * //

dimensions      [1 -1 -1 0 0 0 0];

internalField   nonuniform List<scalar> 
530
(
-3.84519745e-07
-3.66416496e-07
-3.64201148e-07
-3.66647059e-07
-3.83764915e-07
-3.84067695e-07
-3.68330779e-07
-3.64299001e-07
-3.66393318e-07
-3.83716625e-07
-3.83998349e-07
-3.68183963e-07
-3.64337455e-07
-3.66210536e-07
-3.83737638e-07
-3.83961751e-07
-3.67585267e-07
-3.64217181e-07
-3.65949834e-07
-3.83801505e-07
-3.84085785e-07
-3.66812399e-07
-3.63446381e-07
-3.65563787e-07
-3.84597708e-07
-3.84958921e-07
-3.84393143e-07
-3.86792355e-07
-3.64525037e-07
-3.6424375e-07
-3.6451275e-07
-3.66022878e-07
-3.84195392e-07
-3.83393076e-07
-3.83790948e-07
-3.68976514e-07
-3.6779162e-07
-3.83720432e-07
-3.83535335e-07
-3.68823012e-07
-3.65549687e-07
-3.64910787e-07
-3.65468995e-07
-3.83823718e-07
-3.83858118e-07
-3.66780152e-07
-3.63979199e-07
-3.65478626e-07
-3.84004683e-07
-3.83762897e-07
-3.68504497e-07
-3.64871377e-07
-3.65399307e-07
-3.64279499e-07
-3.65300842e-07
-3.8422779e-07
-3.83581624e-07
-3.83658853e-07
-3.83473266e-07
-3.6859953e-07
-3.67497005e-07
-3.83839493e-07
-3.83471584e-07
-3.67979612e-07
-3.65411631e-07
-3.64826382e-07
-3.65002071e-07
-3.83913491e-07
-3.83960491e-07
-3.66323495e-07
-3.63897577e-07
-3.65013513e-07
-3.84034874e-07
-3.84000445e-07
-3.67847252e-07
-3.64113629e-07
-3.65208523e-07
-3.84210699e-07
-3.83877675e-07
-3.66104711e-07
-3.66222285e-07
-3.84200649e-07
-3.83932107e-07
-3.75191016e-07
-3.65185225e-07
-3.65010929e-07
-3.6347589e-07
-3.64386293e-07
-3.84756743e-07
-3.84525215e-07
-3.8463703e-07
-3.85198644e-07
-3.64231421e-07
-3.65148054e-07
-3.85099182e-07
-3.65387993e-07
-3.64468204e-07
-3.8474689e-07
-3.84669968e-07
-3.84639949e-07
-3.86006605e-07
-3.63998611e-07
-3.65276389e-07
-3.8519579e-07
-3.66317084e-07
-3.65389056e-07
-3.84019954e-07
-3.85632499e-07
-3.66161951e-07
-3.67202923e-07
-3.838607e-07
-3.84590194e-07
-3.67976648e-07
-3.65618845e-07
-3.65191413e-07
-3.66585862e-07
-3.83893942e-07
-3.85177903e-07
-3.66979983e-07
-3.63904503e-07
-3.65921765e-07
-3.84344155e-07
-3.84069807e-07
-3.83972843e-07
-3.64471981e-07
-3.65821874e-07
-3.85077293e-07
-3.72069713e-07
-3.67193456e-07
-3.83848849e-07
-3.85083768e-07
-3.66323082e-07
-3.6549519e-07
-3.65307614e-07
-3.67184499e-07
-3.83754507e-07
-3.85121699e-07
-3.67192413e-07
-3.64689773e-07
-3.67415094e-07
-3.8379801e-07
-3.85133783e-07
-3.66655693e-07
-3.64629166e-07
-3.671573e-07
-3.83903811e-07
-3.85304265e-07
-3.6571375e-07
-3.64056493e-07
-3.66306576e-07
-3.83868981e-07
-3.8603673e-07
-3.70622916e-07
-3.84426514e-07
-3.85327311e-07
-3.65365804e-07
-3.65340638e-07
-3.64857519e-07
-3.66306726e-07
-3.83864817e-07
-3.86369167e-07
-3.68522479e-07
-3.84671491e-07
-3.85116476e-07
-3.65778439e-07
-3.65661631e-07
-3.65321282e-07
-3.67310911e-07
-3.8370603e-07
-3.8461929e-07
-3.69205861e-07
-3.64679012e-07
-3.66793902e-07
-3.84038175e-07
-3.85650255e-07
-3.65855914e-07
-3.67173904e-07
-3.83856772e-07
-3.84639906e-07
-3.66025e-07
-3.64695473e-07
-3.67075471e-07
-3.84031729e-07
-3.84391562e-07
-3.67865545e-07
-3.64426661e-07
-3.66859532e-07
-3.84255677e-07
-3.84265578e-07
-3.71693228e-07
-3.63991121e-07
-3.66031139e-07
-3.85122905e-07
-3.83945934e-07
-3.85157517e-07
-3.6449663e-07
-3.63428281e-07
-3.63994432e-07
-3.65407059e-07
-3.84694619e-07
-3.8534308e-07
-3.65214468e-07
-3.6601538e-07
-3.84456347e-07
-3.84850794e-07
-3.65521383e-07
-3.66226912e-07
-3.84359298e-07
-3.8438019e-07
-3.65059035e-07
-3.63735112e-07
-3.65448832e-07
-3.84689187e-07
-3.84987082e-07
-3.65248565e-07
-3.65472503e-07
-3.84565223e-07
-3.84785246e-07
-3.65370931e-07
-3.65799644e-07
-3.84367087e-07
-3.8462008e-07
-3.65597062e-07
-3.66075093e-07
-3.84233381e-07
-3.84457296e-07
-3.65671549e-07
-3.66843207e-07
-3.84318249e-07
-3.71584789e-07
-3.66120683e-07
-3.84249565e-07
-3.84251598e-07
-3.65705186e-07
-3.64073554e-07
-3.65834361e-07
-3.84287894e-07
-3.84497231e-07
-3.65624727e-07
-3.65993685e-07
-3.83941214e-07
-3.84171506e-07
-3.65832034e-07
-3.64355436e-07
-3.65962841e-07
-3.84179077e-07
-3.84404806e-07
-3.65810374e-07
-3.66162574e-07
-3.83794036e-07
-3.8407773e-07
-3.66266853e-07
-3.64743586e-07
-3.66278205e-07
-3.84001225e-07
-3.8412583e-07
-3.66350963e-07
-3.64361468e-07
-3.65991096e-07
-3.84237371e-07
-3.84362537e-07
-3.65781301e-07
-3.66040428e-07
-3.84021715e-07
-3.84163703e-07
-3.65973917e-07
-3.64011911e-07
-3.65671407e-07
-3.84565874e-07
-3.83901369e-07
-3.84328592e-07
-3.77167401e-07
-3.64399854e-07
-3.65157129e-07
-3.84432767e-07
-3.84291074e-07
-3.66004313e-07
-3.64867207e-07
-3.64755659e-07
-3.65248308e-07
-3.84597636e-07
-3.84556182e-07
-3.65104103e-07
-3.6499949e-07
-3.85022645e-07
-3.84496671e-07
-3.64986065e-07
-3.65130194e-07
-3.84741169e-07
-3.83560976e-07
-3.84155376e-07
-3.69736233e-07
-3.63939022e-07
-3.65214811e-07
-3.84655552e-07
-3.84186739e-07
-3.65970164e-07
-3.65674715e-07
-3.84794503e-07
-3.84001153e-07
-3.66585919e-07
-3.6467608e-07
-3.65641926e-07
-3.84375933e-07
-3.8394271e-07
-3.67889653e-07
-3.64703263e-07
-3.65646431e-07
-3.84328232e-07
-3.83871877e-07
-3.68178512e-07
-3.6471454e-07
-3.65576364e-07
-3.84308432e-07
-3.83886172e-07
-3.67794316e-07
-3.64542946e-07
-3.65266264e-07
-3.8449741e-07
-3.83856087e-07
-3.66324195e-07
-3.65849634e-07
-3.84724725e-07
-3.83827354e-07
-3.68091424e-07
-3.64853392e-07
-3.65484316e-07
-3.84272966e-07
-3.83778784e-07
-3.69728728e-07
-3.64893184e-07
-3.65481555e-07
-3.84261976e-07
-3.83718425e-07
-3.68808934e-07
-3.65404374e-07
-3.65274642e-07
-3.65272199e-07
-3.84557014e-07
-3.83798319e-07
-3.66411107e-07
-3.65988429e-07
-3.84662087e-07
-3.83785236e-07
-3.6960219e-07
-3.65079955e-07
-3.65381068e-07
-3.84261398e-07
-3.83851784e-07
-3.68356793e-07
-3.64580333e-07
-3.65005235e-07
-3.84458327e-07
-3.83757814e-07
-3.66426796e-07
-3.65844135e-07
-3.84692222e-07
-3.83767791e-07
-3.69737366e-07
-3.65151909e-07
-3.65315204e-07
-3.842756e-07
-3.83726341e-07
-3.68377071e-07
-3.65278962e-07
-3.65077818e-07
-3.65031561e-07
-3.84847915e-07
-3.83781148e-07
-3.66355636e-07
-3.65799726e-07
-3.84779562e-07
-3.83702688e-07
-3.67464989e-07
-3.65768275e-07
-3.64898473e-07
-3.65588472e-07
-3.84645264e-07
-3.67357912e-07
-3.64739695e-07
-3.85054914e-07
-3.83913866e-07
-3.6595452e-07
-3.65111708e-07
-3.85185113e-07
-3.83861784e-07
-3.65924848e-07
-3.65184069e-07
-3.85174037e-07
-3.83833606e-07
-3.65976668e-07
-3.65238108e-07
-3.85145191e-07
-3.83791634e-07
-3.66048781e-07
-3.65332305e-07
-3.85066599e-07
-3.8371086e-07
-3.66232198e-07
-3.65553426e-07
-3.84864589e-07
-3.83631554e-07
-3.67718912e-07
-3.6563283e-07
-3.65201796e-07
-3.69049144e-07
-3.84256991e-07
-3.67787107e-07
-3.65259552e-07
-3.84996988e-07
-3.83736665e-07
-3.66083846e-07
-3.65302252e-07
-3.85129425e-07
-3.83717296e-07
-3.66188818e-07
-3.65468298e-07
-3.84963638e-07
-3.83690163e-07
-3.67681706e-07
-3.65490492e-07
-3.65148125e-07
-3.70051208e-07
-3.84227377e-07
-3.67696675e-07
-3.65321277e-07
-3.85074355e-07
-3.83718018e-07
-3.66342422e-07
-3.65508027e-07
-3.85144219e-07
-3.83685428e-07
-3.66588037e-07
-3.65904985e-07
-3.84957484e-07
-3.83712771e-07
-3.69744559e-07
-3.65673463e-07
-3.66028871e-07
-3.65091846e-07
-3.65037836e-07
-3.8478495e-07
-3.83969649e-07
-3.83953687e-07
-3.84104385e-07
-3.67772042e-07
-3.63829553e-07
-3.63847385e-07
-3.84907553e-07
-3.84034533e-07
-3.66067204e-07
-3.64912846e-07
-3.85251582e-07
-3.84137329e-07
-3.66998933e-07
-3.6413254e-07
-3.64133667e-07
-3.84829914e-07
-3.83961022e-07
-3.66557784e-07
-3.65450669e-07
-3.85086729e-07
-3.83940546e-07
-3.68502386e-07
-3.64961932e-07
-3.64870061e-07
-3.84825944e-07
-3.839815e-07
-3.69605021e-07
-3.64851618e-07
-3.64806555e-07
-3.84742931e-07
-3.84036378e-07
-3.69076868e-07
-3.64609111e-07
-3.64516703e-07
-3.84629368e-07
-3.83831143e-07
-3.66679967e-07
-3.65599701e-07
-3.84919907e-07
-3.83882063e-07
-3.68410642e-07
-3.64797595e-07
-3.64718881e-07
-3.84844367e-07
-3.8406349e-07
-3.68466953e-07
-3.64290737e-07
-3.64296912e-07
-3.84645878e-07
-3.83879905e-07
-3.66385704e-07
-3.65340991e-07
-3.84896546e-07
-3.83991053e-07
-3.67676241e-07
-3.64352232e-07
-3.64236475e-07
-3.84738434e-07
-3.83844523e-07
-3.66467745e-07
-3.65398678e-07
-3.85004539e-07
-3.83675385e-07
-3.66555065e-07
-3.65800158e-07
-3.84805072e-07
-3.83801183e-07
-3.69156465e-07
-3.65025828e-07
-3.64958934e-07
-3.8471475e-07
-3.83904131e-07
-3.70170113e-07
-3.64909657e-07
-3.64866856e-07
-3.84677673e-07
-3.8392171e-07
-3.69923478e-07
-3.64874832e-07
-3.6482446e-07
-3.84674204e-07
-3.83923332e-07
-3.6988366e-07
-3.64866974e-07
-3.6481318e-07
-3.84691131e-07
-3.83921149e-07
-3.69841037e-07
)
;

boundaryField
{
    closed
    {
        type            calculated;
        value           nonuniform List<scalar> 0();
    }
    open
    {
        type            calculated;
        value           nonuniform List<scalar> 0();
    }
    sides
    {
        type            empty;
    }
    procBoundary2to1
    {
        type            processor;
        value           uniform -3.83581448e-07;
    }
    procBoundary2to3
    {
        type            processor;
        value           uniform -3.64854821e-07;
    }
}


// ************************************************************************* //
