/*--------------------------------*- C++ -*----------------------------------*\
| =========                 |                                                 |
| \\      /  F ield         | OpenFOAM: The Open Source CFD Toolbox           |
|  \\    /   O peration     | Version:  2306                                  |
|   \\  /    A nd           | Website:  www.openfoam.com                      |
|    \\/     M anipulation  |                                                 |
\*---------------------------------------------------------------------------*/
FoamFile
{
    version     2.0;
    format      ascii;
    arch        "LSB;label=32;scalar=64";
    class       volScalarField;
    location    "0.00184";
    object      prefDh_H2;
}
// * * * * * * * * * * * * * * * * * * * * * * * * * * * * * * * * * * * * * //

dimensions      [1 1 -3 0 0 0 0];

internalField   nonuniform List<scalar> 
530
(
38.2400979
28.909308
22.752168
28.8617139
38.6581394
38.6274271
28.7195392
23.1738658
28.8346697
38.7418356
38.6631688
28.7079788
23.2697426
28.3693854
38.700937
38.7506685
28.8291327
22.9749892
27.6448028
38.6602293
38.6649577
29.0288161
20.7248102
26.4540533
38.1989778
37.6131591
38.1472664
36.9442246
23.7071821
22.4971179
23.6366522
27.5716665
38.4798494
38.6123296
38.7311822
28.7049828
28.9056203
38.736287
38.7173733
28.5222448
26.5373177
25.1091565
26.3797946
38.9015879
38.9230113
28.6641289
22.4947952
26.5263302
38.7065876
38.8162582
28.5326014
24.7425679
26.3858495
23.1809421
26.0774749
38.5935125
38.9092079
38.7714987
38.9687397
28.6758604
28.7929324
38.6404261
38.8150632
28.6346505
26.2113932
24.8438975
25.1632873
38.7781113
38.7880194
28.7092192
22.2154966
25.2389782
38.5790038
38.6167279
28.8022473
22.6067539
25.7304241
38.3315532
38.5620455
27.7940347
28.0319439
38.2492971
37.9410636
29.765113
25.1715519
24.8516451
20.6114067
23.2024813
38.0946715
38.0820922
37.9687658
37.5704705
22.7639435
25.1727134
37.8243278
25.595532
23.4052726
38.1031554
37.9824763
38.0047626
37.0036557
22.3520888
25.8196252
37.971689
28.2345418
26.1451372
38.5681531
36.9927684
28.0779025
29.0576291
38.7577237
37.5447033
28.6928126
26.4830996
25.7138453
28.9269707
38.7554298
37.2236558
28.8895446
21.660414
27.8319292
38.3940541
38.3873079
34.4094419
23.6414137
27.2099605
37.8730956
28.9826079
28.7820562
38.6717666
37.3972411
28.4338377
26.2478524
25.9734668
28.6816572
38.8274235
37.5103766
28.7149079
24.1914038
28.4559779
38.742574
37.6468645
28.8871523
24.0042043
28.4607455
38.6071828
37.7374843
26.8828078
22.5691319
28.677314
38.770225
37.1500936
28.7176871
38.0669601
37.2932038
25.8282779
25.7754406
24.7026754
28.5258807
38.8368828
37.059864
28.6877218
37.8487095
37.5388717
26.8095608
26.5759858
25.8279821
28.9080067
38.7784541
38.0573405
28.4883462
24.0327048
28.9956394
38.4531376
37.6591989
27.3455072
29.6270738
38.5512174
38.0766381
27.7873196
23.9635684
28.9101525
38.3586371
38.3953581
28.8277007
23.2829946
29.0172674
38.3565984
38.2828229
28.7063589
21.9726856
27.8880816
37.5414666
38.2720251
38.145631
23.4759051
20.3604715
22.1312866
25.6052526
37.9308635
37.8532701
25.5634924
26.9782427
38.1589034
38.1763251
26.4323793
27.7506546
38.2232259
38.3614029
25.2779455
21.3242227
26.1430623
37.9573151
38.518268
25.7042536
25.8988392
38.1436562
38.452401
26.0512101
26.7260018
38.3034228
38.4681018
26.6355709
27.4857837
38.3760394
38.6193004
26.8154694
29.1832132
38.6118624
28.8031992
28.074428
38.4947726
38.696466
27.0227514
22.4536286
27.3148471
38.3928395
38.7554833
26.7586354
27.5183622
38.6861384
38.5158127
27.3291051
23.1504018
27.6426623
38.4119343
38.7426422
27.2023654
27.9647817
38.7440891
38.5228385
28.4702195
24.2026656
28.5151102
38.4898653
38.6505253
28.6096708
23.1712146
27.6603228
38.3286027
38.569319
27.0433063
27.5139102
38.4617126
38.304956
27.6003279
22.018808
26.849268
38.0016846
38.5607536
38.1531172
30.4576915
23.2314867
25.3408078
37.9695463
38.3080391
27.4508049
24.37719
24.1113037
25.3947247
38.0200001
38.3667069
25.2269855
24.7439356
37.7525295
38.4501434
24.9887342
25.2234344
38.036519
38.5337299
38.5704471
28.7006803
22.0581543
25.6576644
38.0115759
38.7488851
27.6011545
26.7133648
37.8411517
38.5087639
28.9918318
24.0170028
26.7453078
38.1673346
38.6792547
28.7829731
24.1859044
26.8099919
38.244062
38.7452533
28.7521095
24.268813
26.6165334
38.3063967
38.6938687
28.7610563
23.7438123
25.8411299
38.1655412
38.8809575
28.5604357
27.2826912
38.0343474
38.6057306
28.763756
24.6120987
26.4119829
38.3805049
38.7450554
28.6361692
24.7795193
26.4316797
38.3461682
38.7721357
28.7683875
26.1361289
25.7746851
25.7700415
38.2152516
38.7667906
28.7815802
27.6102733
38.1853547
38.5487811
28.7156615
25.1970286
26.1319938
38.4049779
38.6914414
28.707539
23.8915339
25.2081775
38.3095418
38.8825262
28.7938513
27.295803
38.2407705
38.5635288
28.7044404
25.3592243
25.9899646
38.3204752
38.7619116
28.8396585
25.8359567
25.2209364
25.2112527
38.072638
38.7563957
28.549036
27.1592328
38.1309979
38.5909189
29.0017687
26.9756736
24.799412
26.4598103
38.5283946
29.1689391
24.4101794
37.9588746
38.7201978
27.3719845
25.4262597
37.929836
38.7249417
27.2977252
25.6107658
37.951723
38.7362934
27.4478981
25.7701705
38.0092468
38.781394
27.6748611
26.0509817
38.1151097
38.8544138
28.2182526
26.654491
38.2876704
38.8556364
28.7840247
26.8733091
25.7461558
28.6210203
38.7016769
28.8187167
25.8655272
38.2341971
38.8645073
27.8233492
26.0141676
38.1700415
38.864267
28.113918
26.424189
38.2874334
38.8113999
28.7769676
26.4761192
25.6228779
28.6221459
38.6831859
28.881414
26.0102404
38.1437493
38.8134691
28.4238211
26.4909685
38.0605962
38.7339868
29.062311
27.4066729
38.1408771
38.4998847
28.808769
26.6871271
27.758295
25.0615567
25.0796167
38.0792529
38.4215272
38.3618902
38.4662764
28.8105288
21.7693755
22.1089588
38.0421885
38.6005321
27.674225
24.8138304
37.9931398
38.3793743
29.1940014
22.4527983
22.7541049
37.9477381
38.5299505
28.8832955
26.1612425
37.9583221
38.353183
29.0559889
24.6503945
24.65189
37.8588646
38.3863323
28.9704687
24.4731242
24.47442
38.0056377
38.3336039
28.8687946
23.7993343
23.8124958
38.0924988
38.6051898
29.2810701
26.6038433
38.087009
38.4591593
28.9617571
24.319018
24.3233901
37.9769489
38.4380882
28.887961
23.0344466
23.271503
38.1923086
38.6289057
28.613762
25.9475242
38.228037
38.455549
28.8886393
23.1420532
23.17292
38.0260516
38.7203458
28.7406339
26.1996288
38.042113
38.6912717
28.9762653
27.1320849
38.1544749
38.4691209
28.8620967
24.9648291
24.9618595
38.0122555
38.4631845
28.8477824
24.7253956
24.7254966
38.0728505
38.4666907
28.807226
24.632951
24.628611
38.0702164
38.4743078
28.802397
24.6143235
24.6083292
38.0613213
38.4868648
28.7974345
)
;

boundaryField
{
    closed
    {
        type            calculated;
        value           nonuniform List<scalar> 0();
    }
    open
    {
        type            calculated;
        value           nonuniform List<scalar> 0();
    }
    sides
    {
        type            empty;
    }
    procBoundary2to1
    {
        type            processor;
        value           uniform 38.830904;
    }
    procBoundary2to3
    {
        type            processor;
        value           uniform 24.5901675;
    }
}


// ************************************************************************* //
