/*--------------------------------*- C++ -*----------------------------------*\
| =========                 |                                                 |
| \\      /  F ield         | OpenFOAM: The Open Source CFD Toolbox           |
|  \\    /   O peration     | Version:  2306                                  |
|   \\  /    A nd           | Website:  www.openfoam.com                      |
|    \\/     M anipulation  |                                                 |
\*---------------------------------------------------------------------------*/
FoamFile
{
    version     2.0;
    format      ascii;
    arch        "LSB;label=32;scalar=64";
    class       volScalarField;
    location    "0.00184";
    object      PV;
}
// * * * * * * * * * * * * * * * * * * * * * * * * * * * * * * * * * * * * * //

dimensions      [0 0 0 0 0 0 0];

internalField   nonuniform List<scalar> 
530
(
-0.00689253691
-0.00709071618
-0.00713608394
-0.007087646
-0.0068879969
-0.00688847038
-0.00706803231
-0.00713148935
-0.00709162218
-0.00688715193
-0.0068881758
-0.0070694732
-0.00713099219
-0.00709458866
-0.00688754394
-0.00688739995
-0.00707729168
-0.00713264005
-0.0071002107
-0.00688800676
-0.00688845135
-0.00708771183
-0.00714905785
-0.0071107749
-0.00689313318
-0.00689861244
-0.00689364368
-0.0069051781
-0.00712896625
-0.00714172585
-0.00713010601
-0.00710543143
-0.00689062928
-0.00688957615
-0.0068883061
-0.0070624673
-0.0070772185
-0.00688828967
-0.00688796667
-0.00706116888
-0.00710888049
-0.00711488669
-0.00710861688
-0.0068853737
-0.00688556179
-0.00708358013
-0.00713353967
-0.00710515224
-0.00688708903
-0.0068858725
-0.00706342167
-0.0071200623
-0.00710534644
-0.0071303665
-0.00710848296
-0.00688912553
-0.00688610022
-0.00688784924
-0.00688558723
-0.00706578314
-0.00707869857
-0.00688861834
-0.00688648603
-0.00707113018
-0.0071098963
-0.00711660139
-0.00711581541
-0.00688591003
-0.006886239
-0.00709030864
-0.00713551354
-0.00711420694
-0.00688771229
-0.00688769364
-0.00707309378
-0.0071353345
-0.00711143341
-0.00689068232
-0.00688815401
-0.00710275078
-0.00710239624
-0.00689127808
-0.00689438966
-0.00699723247
-0.00712263791
-0.00712220931
-0.0071509863
-0.00713263414
-0.00689375621
-0.00689394678
-0.00689544045
-0.00689906264
-0.0071368942
-0.00712278662
-0.00689636646
-0.00712306381
-0.00713320932
-0.00689499856
-0.00689624027
-0.00689626407
-0.00690559952
-0.00713814819
-0.00711549209
-0.00689578061
-0.00710424566
-0.00711211297
-0.00689076626
-0.00690547409
-0.00710114173
-0.00708574699
-0.00688864727
-0.00689987111
-0.00707311858
-0.00711338096
-0.00711359176
-0.00709014801
-0.00688788672
-0.00690271594
-0.00708521098
-0.00714671492
-0.00709567716
-0.0068914757
-0.00689151601
-0.00692749068
-0.00712894631
-0.00710579262
-0.00689593156
-0.00702947353
-0.00708188635
-0.0068888453
-0.00690038935
-0.00709842193
-0.00711276641
-0.00711173972
-0.00708041981
-0.0068864785
-0.00689932677
-0.00708050756
-0.00712548322
-0.00707543473
-0.00688740966
-0.00689808458
-0.00708813266
-0.00712707916
-0.00707844254
-0.00688882182
-0.00689756184
-0.00710767707
-0.00713554672
-0.00709022113
-0.0068877503
-0.00690398223
-0.00704301583
-0.00689510099
-0.00690172004
-0.00711715972
-0.00711717869
-0.00712170336
-0.00709601467
-0.00688712838
-0.0069050666
-0.00706653947
-0.0068972646
-0.00689935103
-0.00711231423
-0.00711252122
-0.0071156409
-0.00708193462
-0.00688750402
-0.00689479395
-0.00705647153
-0.00712881016
-0.0070883262
-0.00689099199
-0.00689861324
-0.00710410323
-0.00709118581
-0.00688948833
-0.00689465716
-0.00710035412
-0.00713017389
-0.00708390238
-0.00689111409
-0.00689089025
-0.0070744625
-0.00713343129
-0.00708706854
-0.00689076437
-0.0068915132
-0.00702858921
-0.00714266228
-0.00709780493
-0.00689798184
-0.00689108867
-0.00689194977
-0.0071306896
-0.00715207144
-0.00713930237
-0.00712003983
-0.00689392794
-0.00689469092
-0.00711542436
-0.00711562122
-0.00689210124
-0.00689249176
-0.00710921388
-0.00710875303
-0.00689154642
-0.00689141739
-0.00711557891
-0.00714730197
-0.0071123063
-0.00689550091
-0.00688986622
-0.00711560598
-0.00711929183
-0.00689410352
-0.00689149908
-0.00711351462
-0.00711542351
-0.00689311449
-0.00689202398
-0.00711025955
-0.00711070703
-0.00689269744
-0.00689107074
-0.00710934918
-0.00709190428
-0.00689042251
-0.00703455138
-0.0070999727
-0.00689198175
-0.00689027367
-0.00710594586
-0.00713966697
-0.00710446184
-0.00689281182
-0.0068892039
-0.00710875665
-0.00710687519
-0.00688932004
-0.00689170689
-0.00710368803
-0.00713567787
-0.00710196566
-0.00689236167
-0.00688891583
-0.00710622333
-0.00710352515
-0.00688856977
-0.00689118446
-0.00709587781
-0.00712826745
-0.00709536142
-0.00689090713
-0.00688968529
-0.00709601775
-0.00713487495
-0.00710242441
-0.00689267033
-0.00689021001
-0.00710805243
-0.0071081781
-0.00689082631
-0.00689315717
-0.00710285771
-0.00714463033
-0.00710723355
-0.00689603061
-0.00688991198
-0.00689452512
-0.00697926867
-0.00713473839
-0.00711899884
-0.0068953035
-0.00689160593
-0.00710691891
-0.00712703471
-0.00712887697
-0.00712014706
-0.00689452918
-0.00689089411
-0.00711955174
-0.00712499028
-0.00689733964
-0.00689081182
-0.00712043713
-0.0071210185
-0.00689500023
-0.00689023411
-0.00689022736
-0.00705308981
-0.00714135219
-0.00711489034
-0.00689521652
-0.0068880294
-0.00710287644
-0.00711040254
-0.00689606184
-0.00689024931
-0.00708973004
-0.00712842588
-0.00710740574
-0.00689280268
-0.00688791299
-0.00707344802
-0.00712569077
-0.00710607575
-0.00689175904
-0.00688710983
-0.00706977143
-0.00712435075
-0.00710741776
-0.00689098101
-0.0068876365
-0.00707380714
-0.00712874465
-0.00711166424
-0.00689274443
-0.00688555792
-0.00709505839
-0.007104146
-0.00689352246
-0.00688843504
-0.00707055825
-0.00712238826
-0.00710792866
-0.00689010108
-0.00688672826
-0.00705058882
-0.00712036136
-0.00710702002
-0.0068904711
-0.00688578057
-0.00706278292
-0.00711035173
-0.00711353921
-0.00711283185
-0.00689158993
-0.00688614499
-0.00709314297
-0.00710216891
-0.00689181543
-0.00688866085
-0.0070530495
-0.00711865787
-0.00710983956
-0.00688977132
-0.00688723577
-0.00706672807
-0.00712681934
-0.00711470487
-0.00689092861
-0.00688506745
-0.00709348496
-0.00710320589
-0.00689103529
-0.00688833142
-0.00705082458
-0.00711774916
-0.00710949274
-0.00689034843
-0.0068852908
-0.00706781946
-0.00711122226
-0.00711697735
-0.0071147309
-0.00689230233
-0.00688540501
-0.00709533204
-0.00710366266
-0.00689160629
-0.00688732878
-0.00707894037
-0.00710656139
-0.00711870097
-0.00711052238
-0.00688790055
-0.00708325435
-0.00712140669
-0.00689474965
-0.00688713481
-0.00710672747
-0.00711567988
-0.00689586434
-0.00688814916
-0.00710790699
-0.00711545567
-0.00689633877
-0.00688877104
-0.00710729685
-0.00711476572
-0.00689623987
-0.00688880843
-0.00710555375
-0.00711281365
-0.00689536392
-0.00688838059
-0.00710095222
-0.00710867015
-0.00689338857
-0.00688846483
-0.00707693896
-0.00710713168
-0.00711346357
-0.00706136859
-0.00688889145
-0.00707760371
-0.00711326956
-0.0068944459
-0.00688781047
-0.00710387892
-0.00711230192
-0.0068949025
-0.00688814514
-0.00710146052
-0.00711016432
-0.0068933511
-0.00688876922
-0.00707719247
-0.00711000824
-0.00711398425
-0.00704985088
-0.0068889956
-0.00707916356
-0.00711251353
-0.00689524344
-0.00688820761
-0.00710102222
-0.00710992023
-0.00689589598
-0.00688912867
-0.00709660018
-0.00710565373
-0.00689465252
-0.00689107218
-0.00705463341
-0.00711165352
-0.00710200308
-0.00712315967
-0.00712062347
-0.00689496038
-0.00689199543
-0.00689205508
-0.00689160736
-0.00707589426
-0.00714336151
-0.00713640086
-0.00689488223
-0.00688887325
-0.00710473379
-0.00712094699
-0.00689437646
-0.00689129963
-0.00708686141
-0.00713955277
-0.00713269533
-0.00689508652
-0.00688883785
-0.00709752974
-0.00711263828
-0.00689448023
-0.00689098362
-0.00706935721
-0.00712550768
-0.00712138331
-0.00689537976
-0.00689022216
-0.00705633898
-0.00712490029
-0.00712273861
-0.00689370095
-0.00689089923
-0.00706078205
-0.00712981984
-0.00712538761
-0.00689341205
-0.00688799312
-0.00709350984
-0.00710891706
-0.00689311873
-0.00688982689
-0.00706922018
-0.00712614329
-0.00712253445
-0.00689401114
-0.00688981818
-0.00706763905
-0.00713355518
-0.00712827792
-0.00689236281
-0.00688780416
-0.00709627274
-0.00711303268
-0.00689174778
-0.00689028259
-0.00707634817
-0.00713413076
-0.0071283927
-0.00689456581
-0.00688720448
-0.00709751281
-0.0071102059
-0.00689442393
-0.00688800637
-0.00709564715
-0.00710614019
-0.00689296662
-0.00689029069
-0.0070603855
-0.0071220658
-0.00711872607
-0.00689413822
-0.0068896649
-0.00704856289
-0.0071221805
-0.00711991182
-0.0068930727
-0.00688936136
-0.00705047823
-0.00712248576
-0.00711997837
-0.00689280712
-0.006888981
-0.00705060761
-0.00712231519
-0.00711975512
-0.00689267191
-0.00688867005
-0.00705085403
)
;

boundaryField
{
    closed
    {
        type            zeroGradient;
    }
    open
    {
        type            zeroGradient;
    }
    sides
    {
        type            empty;
    }
    procBoundary2to1
    {
        type            processor;
        value           uniform -0.00688616649;
    }
    procBoundary2to3
    {
        type            processor;
        value           uniform -0.00712221163;
    }
}


// ************************************************************************* //
