/*--------------------------------*- C++ -*----------------------------------*\
| =========                 |                                                 |
| \\      /  F ield         | OpenFOAM: The Open Source CFD Toolbox           |
|  \\    /   O peration     | Version:  2306                                  |
|   \\  /    A nd           | Website:  www.openfoam.com                      |
|    \\/     M anipulation  |                                                 |
\*---------------------------------------------------------------------------*/
FoamFile
{
    version     2.0;
    format      ascii;
    arch        "LSB;label=32;scalar=64";
    class       volScalarField;
    location    "0.00134";
    object      alpha;
}
// * * * * * * * * * * * * * * * * * * * * * * * * * * * * * * * * * * * * * //

dimensions      [1 -1 -1 0 0 0 0];

internalField   nonuniform List<scalar> 
530
(
3.68012021e-05
3.67896459e-05
3.67949622e-05
3.58063391e-05
3.53108073e-05
3.50229151e-05
3.50202233e-05
3.67847833e-05
3.68123325e-05
3.52923326e-05
3.50831598e-05
3.67797027e-05
3.6817611e-05
3.52375866e-05
3.52277756e-05
3.67859411e-05
3.68109811e-05
3.67791648e-05
3.57399861e-05
3.48893155e-05
3.49079466e-05
3.67783071e-05
3.68072033e-05
3.67895214e-05
3.68098438e-05
3.57585805e-05
3.52331836e-05
3.48961264e-05
3.48978405e-05
3.68122537e-05
3.68044637e-05
3.68085284e-05
3.57365067e-05
3.52726626e-05
3.68070633e-05
3.67959607e-05
3.57560212e-05
3.54637796e-05
3.51148757e-05
3.51165449e-05
3.68052237e-05
3.67957656e-05
3.6806165e-05
3.57375367e-05
3.53248217e-05
3.68130709e-05
3.68033139e-05
3.68030482e-05
3.57515848e-05
3.51684602e-05
3.52844794e-05
3.48086516e-05
3.48134203e-05
3.67978617e-05
3.67990354e-05
3.67968437e-05
3.55952226e-05
3.52400112e-05
3.6806406e-05
3.67991265e-05
3.57621921e-05
3.50330996e-05
3.50401614e-05
3.68010559e-05
3.68200079e-05
3.67991387e-05
3.57178035e-05
3.5061456e-05
3.50721418e-05
3.67954916e-05
3.68314939e-05
3.55225006e-05
3.54087391e-05
3.68139747e-05
3.68140663e-05
3.68093445e-05
3.57433921e-05
3.53359238e-05
3.5094868e-05
3.50925744e-05
3.6806932e-05
3.68072336e-05
3.57315973e-05
3.482795e-05
3.48533762e-05
3.67954194e-05
3.67888459e-05
3.67941881e-05
3.5757747e-05
3.53220566e-05
3.67922806e-05
3.6784703e-05
3.5762017e-05
3.53270269e-05
3.47920233e-05
3.47920474e-05
3.67889589e-05
3.67923148e-05
3.67871022e-05
3.68005703e-05
3.67970977e-05
3.54724095e-05
3.49022564e-05
3.68055103e-05
3.68116841e-05
3.53213375e-05
3.50452299e-05
3.67999254e-05
3.68130501e-05
3.55084301e-05
3.52660031e-05
3.68041257e-05
3.68047702e-05
3.5751488e-05
3.54342773e-05
3.51399626e-05
3.51379116e-05
3.6817492e-05
3.68016528e-05
3.68089794e-05
3.57385605e-05
3.52199659e-05
3.6822244e-05
3.6805424e-05
3.57250948e-05
3.49981591e-05
3.50055049e-05
3.68071349e-05
3.68237843e-05
3.56132454e-05
3.5146097e-05
3.68216059e-05
3.68058937e-05
3.57195226e-05
3.49591989e-05
3.49691034e-05
3.67924891e-05
3.68310894e-05
3.55286735e-05
3.51981486e-05
3.67973577e-05
3.68293134e-05
3.54661868e-05
3.52514205e-05
3.67991366e-05
3.68297493e-05
3.54878986e-05
3.52975122e-05
3.68026793e-05
3.68292659e-05
3.55434601e-05
3.53539568e-05
3.68082473e-05
3.68261285e-05
3.56456805e-05
3.5442036e-05
3.68148286e-05
3.68150702e-05
3.57583773e-05
3.55101815e-05
3.51583417e-05
3.51574571e-05
3.68176542e-05
3.68118717e-05
3.68093785e-05
3.68131395e-05
3.57684077e-05
3.5412537e-05
3.51280834e-05
3.5142919e-05
3.68249814e-05
3.57329425e-05
3.48814508e-05
3.68077975e-05
3.68066519e-05
3.5455589e-05
3.52102556e-05
3.68012917e-05
3.68034133e-05
3.53475237e-05
3.53461693e-05
3.68119279e-05
3.6794099e-05
3.68000386e-05
3.57545506e-05
3.52057852e-05
3.49162401e-05
3.49209072e-05
3.68019216e-05
3.68019103e-05
3.67942116e-05
3.68089007e-05
3.67938345e-05
3.57288543e-05
3.50149915e-05
3.50175842e-05
3.68148582e-05
3.68135215e-05
3.57238858e-05
3.48381391e-05
3.48555009e-05
3.67958091e-05
3.68173406e-05
3.54084112e-05
3.5406561e-05
3.681166e-05
3.57015977e-05
3.49411324e-05
3.6815044e-05
3.67870376e-05
3.68018812e-05
3.56536056e-05
3.50424317e-05
3.6811041e-05
3.67882224e-05
3.68054228e-05
3.67927594e-05
3.57520409e-05
3.50713188e-05
3.50809817e-05
3.67973649e-05
3.68094919e-05
3.57568842e-05
3.53613423e-05
3.50960956e-05
3.50991769e-05
3.68074098e-05
3.68073099e-05
3.6794378e-05
3.57206656e-05
3.49236044e-05
3.49416368e-05
3.67833745e-05
3.68232271e-05
3.55224269e-05
3.52638536e-05
3.67958671e-05
3.68131864e-05
3.53909494e-05
3.53879048e-05
3.68206509e-05
3.68059011e-05
3.68101302e-05
3.57358777e-05
3.51901084e-05
3.51052922e-05
3.5101666e-05
3.68123698e-05
3.68038615e-05
3.56176909e-05
3.53209529e-05
3.68134953e-05
3.67931973e-05
3.57822791e-05
3.51039026e-05
3.51105016e-05
3.68060569e-05
3.68031481e-05
3.67981074e-05
3.6799527e-05
3.59205116e-05
3.53358036e-05
3.53491464e-05
3.4897505e-05
3.49039281e-05
3.68050742e-05
3.67970672e-05
3.67954895e-05
3.53818095e-05
3.49709174e-05
3.68069042e-05
3.6787303e-05
3.56441078e-05
3.45748847e-05
3.46081263e-05
3.67706207e-05
3.67983617e-05
3.67650109e-05
3.68000823e-05
3.54131757e-05
3.53347577e-05
3.67909902e-05
3.55753732e-05
3.45171659e-05
3.67948465e-05
3.67744567e-05
3.67771488e-05
3.67849888e-05
3.53314742e-05
3.52375867e-05
3.67904073e-05
3.55331808e-05
3.47585294e-05
3.68019739e-05
3.67659765e-05
3.67888845e-05
3.56369645e-05
3.45144391e-05
3.4529882e-05
3.67822836e-05
3.67839398e-05
3.67847608e-05
3.6787368e-05
3.57511042e-05
3.48827538e-05
3.51787835e-05
3.67900353e-05
3.5743824e-05
3.49358804e-05
3.68196717e-05
3.67830233e-05
3.57556306e-05
3.49996162e-05
3.50708895e-05
3.68036057e-05
3.6805327e-05
3.68094541e-05
3.55872258e-05
3.52082125e-05
3.68182313e-05
3.68145472e-05
3.53571865e-05
3.53546981e-05
3.68199778e-05
3.68081673e-05
3.68015715e-05
3.58274942e-05
3.54267793e-05
3.5164353e-05
3.51740116e-05
3.68181149e-05
3.57253223e-05
3.48840035e-05
3.68063746e-05
3.6798808e-05
3.53240055e-05
3.50558187e-05
3.68080289e-05
3.6798337e-05
3.67971513e-05
3.68013848e-05
3.57612602e-05
3.52644471e-05
3.51622127e-05
3.50736059e-05
3.68032525e-05
3.67944787e-05
3.57476063e-05
3.47908226e-05
3.48854951e-05
3.67958402e-05
3.679474e-05
3.67994632e-05
3.54999628e-05
3.49854367e-05
3.68008781e-05
3.68008258e-05
3.53617881e-05
3.52121001e-05
3.67932233e-05
3.67999793e-05
3.535731e-05
3.53583675e-05
3.68007756e-05
3.67954569e-05
3.67919134e-05
3.58429712e-05
3.49673079e-05
3.51068183e-05
3.68163701e-05
3.5562455e-05
3.5052109e-05
3.68278863e-05
3.68064447e-05
3.68183274e-05
3.57297818e-05
3.51005549e-05
3.68216975e-05
3.68047745e-05
3.57436385e-05
3.51361536e-05
3.51435742e-05
3.68077022e-05
3.68090737e-05
3.58825959e-05
3.55331935e-05
3.5231534e-05
3.5232169e-05
3.68194424e-05
3.5742878e-05
3.50819061e-05
3.68033692e-05
3.67981393e-05
3.5372457e-05
3.52787748e-05
3.67966102e-05
3.67668847e-05
3.67770881e-05
3.63323896e-05
3.50339982e-05
3.50151443e-05
3.67965495e-05
3.6796223e-05
3.57508988e-05
3.51146869e-05
3.51175475e-05
3.68018848e-05
3.67959745e-05
3.57829538e-05
3.51297677e-05
3.51365172e-05
3.67933154e-05
3.68079154e-05
3.56793475e-05
3.51581237e-05
3.67984909e-05
3.67931669e-05
3.57487373e-05
3.47883503e-05
3.48468334e-05
3.6792973e-05
3.67938731e-05
3.67950784e-05
3.54317604e-05
3.49510304e-05
3.679869e-05
3.67993977e-05
3.50608695e-05
3.50442152e-05
3.68057532e-05
3.67999026e-05
3.68010954e-05
3.55290852e-05
3.49394787e-05
3.68045482e-05
3.67923086e-05
3.55296396e-05
3.50829113e-05
3.68035184e-05
3.67783322e-05
3.57449231e-05
3.49801904e-05
3.4995437e-05
3.67639452e-05
3.68003452e-05
3.53448555e-05
3.51438416e-05
3.67874628e-05
3.67888517e-05
3.67874757e-05
3.52636941e-05
3.48103994e-05
3.67909216e-05
3.67880976e-05
3.51741712e-05
3.51736387e-05
3.67951686e-05
3.67887431e-05
3.67856753e-05
3.57542858e-05
3.48407915e-05
3.51196881e-05
3.67976225e-05
3.56401215e-05
3.51133935e-05
3.6808571e-05
3.67875821e-05
3.67977057e-05
3.58803586e-05
3.49666775e-05
3.52160979e-05
3.68187128e-05
3.57414128e-05
3.5014975e-05
3.68072437e-05
3.68124924e-05
3.55442832e-05
3.53022627e-05
3.68051949e-05
3.68137688e-05
3.53933475e-05
3.5388384e-05
3.68135181e-05
3.6814426e-05
3.68057258e-05
3.57307992e-05
3.48852109e-05
3.52000528e-05
3.68110761e-05
3.5772973e-05
3.51297133e-05
3.68255964e-05
3.68160982e-05
3.56822092e-05
3.54115209e-05
3.68256569e-05
3.68133672e-05
3.57488116e-05
3.5502134e-05
3.52375917e-05
3.52349247e-05
3.6816427e-05
3.67932388e-05
3.54301215e-05
3.50756684e-05
3.68140258e-05
3.67382664e-05
3.51294169e-05
3.67389901e-05
3.68266139e-05
3.54874069e-05
3.53598871e-05
3.67923884e-05
3.68096835e-05
3.57691361e-05
3.55105637e-05
3.52030052e-05
3.52016741e-05
3.67986115e-05
3.68108667e-05
3.52427397e-05
3.50696026e-05
3.68014611e-05
3.6812459e-05
3.67989964e-05
3.68185961e-05
3.55718756e-05
3.49974196e-05
3.6810312e-05
3.68055262e-05
)
;

boundaryField
{
    closed
    {
        type            calculated;
        value           nonuniform List<scalar> 0();
    }
    open
    {
        type            calculated;
        value           nonuniform List<scalar> 0();
    }
    sides
    {
        type            empty;
    }
    procBoundary2to1
    {
        type            processor;
        value           uniform 3.54081523e-05;
    }
    procBoundary2to3
    {
        type            processor;
        value           uniform 3.57289564e-05;
    }
}


// ************************************************************************* //
