/*--------------------------------*- C++ -*----------------------------------*\
| =========                 |                                                 |
| \\      /  F ield         | OpenFOAM: The Open Source CFD Toolbox           |
|  \\    /   O peration     | Version:  2306                                  |
|   \\  /    A nd           | Website:  www.openfoam.com                      |
|    \\/     M anipulation  |                                                 |
\*---------------------------------------------------------------------------*/
FoamFile
{
    version     2.0;
    format      ascii;
    arch        "LSB;label=32;scalar=64";
    class       volScalarField;
    location    "0.0003";
    object      H;
}
// * * * * * * * * * * * * * * * * * * * * * * * * * * * * * * * * * * * * * //

dimensions      [0 0 0 0 0 0 0];

internalField   nonuniform List<scalar> 
531
(
4.38971142e-08
1.22854748e-09
1.0337105e-09
4.61907301e-08
4.37930069e-08
1.22321576e-09
9.99943512e-10
4.62676461e-08
4.35494046e-08
1.22086694e-09
9.76903941e-10
4.60533686e-08
4.29262689e-08
1.22032878e-09
9.79543218e-10
4.59472951e-08
4.15807353e-08
1.21879447e-09
1.06183188e-09
4.6343248e-08
3.07174058e-08
1.12943373e-09
3.1291189e-08
4.38088799e-08
1.5933377e-08
2.39690246e-09
2.60986897e-08
3.35383288e-08
1.88342011e-08
1.7029694e-08
2.51244377e-08
2.48487135e-08
1.96340483e-08
2.14442653e-08
2.44873647e-08
2.209378e-08
2.0214997e-08
2.33275434e-08
2.42214672e-08
2.01243472e-08
1.98488187e-08
2.54164618e-08
2.54877524e-08
1.7878696e-08
1.75392979e-08
2.64731486e-08
2.80610794e-08
1.83137196e-08
1.41648647e-08
2.43514344e-08
3.00793642e-08
2.29122476e-08
1.25611725e-08
1.85549533e-08
2.99083202e-08
2.83970878e-08
1.44110623e-08
1.39268619e-08
2.67871606e-08
2.94231106e-08
2.06004049e-08
1.46162001e-08
2.1728323e-08
2.775457e-08
2.38252378e-08
1.82221031e-08
2.06462118e-08
2.45254315e-08
2.27413539e-08
2.08637522e-08
2.37907926e-08
2.42014794e-08
1.85265127e-08
1.86636518e-08
2.75197436e-08
2.77061618e-08
1.53099918e-08
1.3990047e-08
2.78379333e-08
3.03880382e-08
1.75609086e-08
1.19623046e-08
2.49450346e-08
3.02586347e-08
2.11649286e-08
1.43169297e-08
2.21673683e-08
2.79801238e-08
2.28014617e-08
1.75745611e-08
2.1701234e-08
2.57714961e-08
2.24973957e-08
1.9066902e-08
2.22971912e-08
2.5350127e-08
2.22455874e-08
1.86972901e-08
2.17034422e-08
2.5656835e-08
2.382108e-08
1.89898852e-08
1.95472472e-08
2.40566087e-08
2.43696625e-08
2.33942741e-08
2.1569425e-08
1.91096726e-08
1.98077065e-08
2.63886215e-08
2.88806509e-08
1.89380902e-08
1.04171248e-08
2.27521719e-08
3.5771529e-08
2.85978221e-08
5.39128212e-10
5.10407979e-09
3.86881803e-08
3.95251924e-08
8.99058531e-09
9.00232445e-10
2.7894817e-08
4.29134151e-08
2.7839171e-08
9.2762615e-10
4.57306966e-10
3.95816395e-08
4.01996048e-08
1.44966556e-08
5.54084241e-10
2.19709324e-08
3.54594008e-08
3.23761874e-08
1.30439096e-08
3.19763196e-09
2.33618359e-08
3.5009954e-08
3.30871662e-08
9.16748106e-09
5.44676702e-10
2.72491929e-08
4.10146325e-08
3.08637872e-08
8.7073706e-10
7.00072977e-10
3.55046832e-08
4.25024354e-08
2.25547568e-08
1.02930559e-09
9.59013763e-09
4.03559427e-08
3.93409436e-08
9.045321e-09
1.00505792e-09
2.63357499e-08
4.19120977e-08
3.36315957e-08
7.50810731e-10
9.42050455e-10
3.23885255e-08
4.23012862e-08
3.01630097e-08
8.62740726e-10
7.53799792e-10
3.41836897e-08
4.24663278e-08
2.76060292e-08
9.8225014e-10
4.4164404e-10
3.74604306e-08
4.2178179e-08
1.92168062e-08
1.04185739e-09
1.72223634e-08
4.30695687e-08
3.69689048e-08
9.34198375e-10
1.05067787e-09
3.37202744e-08
4.40603042e-08
2.81812519e-08
1.13793646e-09
6.82973305e-10
4.35675954e-08
4.33793822e-08
1.74846181e-09
1.05319158e-09
3.04239006e-08
4.40235172e-08
3.04055275e-08
1.03379084e-09
9.71370946e-10
3.6379927e-08
4.14799778e-08
2.21601811e-08
4.72044006e-10
1.33442444e-08
3.35721601e-08
3.28351745e-08
2.02007506e-08
8.75652715e-09
1.72661194e-08
2.96758898e-08
3.00470363e-08
2.27945079e-08
1.20003035e-08
1.5293738e-08
2.84136902e-08
3.13065143e-08
2.1884703e-08
9.28670108e-09
1.77639971e-08
3.13380865e-08
2.96520214e-08
1.41225361e-08
1.21611171e-08
2.64774054e-08
2.95623957e-08
2.11265393e-08
1.60969282e-08
2.1784604e-08
2.60677669e-08
2.31239091e-08
2.02775512e-08
2.18066731e-08
2.30362727e-08
2.17176717e-08
2.1872697e-08
2.42979785e-08
2.32618213e-08
1.85288788e-08
1.94127144e-08
2.71246047e-08
2.73156813e-08
1.65439089e-08
1.41216802e-08
2.56591499e-08
3.16940879e-08
2.28145348e-08
8.15704367e-09
1.72189339e-08
3.32012571e-08
3.18412031e-08
9.82421145e-09
6.31549341e-09
2.80824464e-08
3.55045718e-08
2.37752774e-08
4.43860632e-09
1.46795404e-08
3.35200035e-08
3.26792158e-08
1.30680388e-08
6.77787674e-09
2.5486511e-08
3.35193069e-08
2.54458259e-08
1.00033126e-08
1.40814211e-08
3.02519698e-08
3.02045604e-08
1.69537946e-08
1.35359529e-08
2.44529478e-08
2.89374645e-08
2.20881142e-08
1.57900476e-08
2.13723683e-08
2.80256014e-08
2.38969576e-08
1.55165269e-08
1.95165887e-08
2.92477922e-08
2.6704257e-08
1.30449295e-08
1.48880448e-08
3.09177466e-08
3.10453473e-08
1.17101115e-08
9.62712154e-09
2.92757257e-08
3.54196179e-08
1.7482315e-08
1.98202561e-09
2.26871301e-08
4.06906888e-08
2.92308681e-08
8.39905066e-10
5.96109538e-09
4.0449491e-08
4.03082581e-08
2.21648868e-09
8.598152e-10
3.04966906e-08
4.00955952e-08
2.13644878e-08
3.57651259e-09
1.93102536e-08
3.38832192e-08
2.73103386e-08
1.23198055e-08
1.54011197e-08
2.95495842e-08
2.89453047e-08
1.52197481e-08
1.46093188e-08
2.69574105e-08
3.00654569e-08
1.92826908e-08
1.16829356e-08
2.24187106e-08
3.20448512e-08
2.64468591e-08
9.61513953e-09
1.31629565e-08
3.07663604e-08
3.13465182e-08
1.70854181e-08
1.06073485e-08
2.28314421e-08
3.04798134e-08
2.64941404e-08
1.54214193e-08
1.51032944e-08
2.48683652e-08
2.81144323e-08
2.43910784e-08
1.69972473e-08
1.71460906e-08
2.51966463e-08
2.7053209e-08
2.23501587e-08
1.72676213e-08
2.02390237e-08
2.60894928e-08
2.5290764e-08
1.91138541e-08
1.88916021e-08
2.40808052e-08
2.49558472e-08
2.1427396e-08
1.99553946e-08
2.25161996e-08
2.40111785e-08
2.22810594e-08
2.08415406e-08
2.20881138e-08
2.33360854e-08
2.24577283e-08
2.13868474e-08
2.20219187e-08
2.28898429e-08
2.24622496e-08
2.18003755e-08
2.20803826e-08
2.2533059e-08
2.23278347e-08
2.20572124e-08
2.23020468e-08
2.24495853e-08
2.20169163e-08
2.19129917e-08
2.26969244e-08
2.28261136e-08
2.156639e-08
2.14425316e-08
2.32703772e-08
2.31944699e-08
2.02424825e-08
2.14368685e-08
2.70593002e-08
2.30693353e-08
1.44160266e-08
2.1054035e-08
3.84403445e-08
3.31156061e-08
1.11177485e-09
7.55111732e-10
4.37215007e-08
4.29792684e-08
1.07417525e-09
1.30109896e-09
3.63026005e-08
4.42579513e-08
3.14803268e-08
1.15654029e-09
1.36933316e-09
3.88165398e-08
4.85812204e-08
2.99863904e-08
1.11916122e-09
1.43055236e-09
5.08277025e-08
5.30781303e-08
8.00784647e-10
1.59449057e-09
1.5791498e-09
4.76400499e-08
5.01498344e-08
2.90366017e-09
4.18794036e-09
4.294462e-09
3.42579146e-08
1.89305173e-08
7.77843653e-09
8.27059585e-09
9.57087916e-09
1.01406458e-08
1.11573118e-08
1.16683701e-08
1.19474092e-08
1.15845269e-08
9.52757544e-09
8.71261976e-09
9.15585544e-09
9.84478604e-09
1.0484309e-08
1.16390238e-08
1.2540874e-08
1.42593945e-08
1.49539231e-08
1.23043743e-08
1.1292015e-08
3.23920165e-08
5.95895832e-08
6.25983636e-08
9.05285477e-08
2.05013835e-07
1.60514454e-07
2.17601291e-07
1.99994191e-07
2.46494945e-07
2.1645082e-07
1.28495585e-07
1.02457317e-07
1.18459174e-06
1.34401913e-06
1.71190719e-06
2.04264564e-06
2.59166248e-06
3.07522449e-06
3.50230916e-06
4.25570448e-06
5.08740359e-06
6.1760128e-06
8.14131523e-06
9.90241212e-06
1.36106353e-05
1.63994335e-05
2.56717377e-05
3.49807617e-05
4.49150629e-05
4.96983283e-05
5.67059559e-05
5.52205415e-05
6.2014286e-05
5.94571793e-05
6.84679649e-05
6.45632113e-05
7.19841907e-05
7.09949431e-05
8.57445032e-05
7.81422001e-05
7.83570704e-05
7.32350837e-05
0.000106052736
8.65745502e-05
7.12865361e-05
6.40690313e-05
0.000124912649
8.76763951e-05
4.86370638e-05
4.48814148e-05
0.000147079858
8.17906006e-05
3.366036e-05
3.28397102e-05
0.000153762648
5.57099969e-05
8.62125497e-06
1.24144556e-05
0.00012966837
3.3547512e-05
2.85891938e-11
9.57511151e-07
0.000109150873
1.68266725e-05
3.5064722e-11
1.22265757e-11
8.51838388e-05
6.28565468e-06
4.54473382e-11
1.8145818e-11
6.1993128e-05
2.95957948e-06
5.68525009e-11
2.77885628e-11
4.74101787e-05
1.71773475e-06
6.75197101e-11
3.73010815e-11
4.0505739e-05
1.482883e-06
7.75406263e-11
5.15476131e-11
3.49970025e-05
2.44357099e-06
8.81553883e-11
6.84560791e-11
2.96825668e-05
4.22111194e-06
9.94889681e-11
5.64884452e-08
2.49836864e-05
5.97477371e-06
1.13914057e-10
1.12484112e-07
2.09715099e-05
7.27654112e-06
1.33616075e-10
9.66055172e-08
1.77901366e-05
8.10109888e-06
1.55400187e-10
3.49946945e-08
1.54061815e-05
8.42348031e-06
1.83223312e-10
1.83218978e-10
1.36268397e-05
)
;

boundaryField
{
    closed
    {
        type            calculated;
        value           nonuniform List<scalar> 0();
    }
    open
    {
        type            calculated;
        value           nonuniform List<scalar> 0();
    }
    sides
    {
        type            empty;
    }
    procBoundary4to3
    {
        type            processor;
        value           uniform 4.59599193e-08;
    }
    procBoundary4to5
    {
        type            processor;
        value           uniform 8.4421242e-06;
    }
}


// ************************************************************************* //
