/*--------------------------------*- C++ -*----------------------------------*\
| =========                 |                                                 |
| \\      /  F ield         | OpenFOAM: The Open Source CFD Toolbox           |
|  \\    /   O peration     | Version:  2306                                  |
|   \\  /    A nd           | Website:  www.openfoam.com                      |
|    \\/     M anipulation  |                                                 |
\*---------------------------------------------------------------------------*/
FoamFile
{
    version     2.0;
    format      ascii;
    arch        "LSB;label=32;scalar=64";
    class       volScalarField;
    location    "0.0003";
    object      H2O;
}
// * * * * * * * * * * * * * * * * * * * * * * * * * * * * * * * * * * * * * //

dimensions      [0 0 0 0 0 0 0];

internalField   nonuniform List<scalar> 
531
(
0.00713922606
0.00105416019
0.000964495378
0.0073380632
0.00712697622
0.00105263736
0.000950955484
0.00734329348
0.00710480647
0.00105293496
0.000939744698
0.00732501425
0.00705705121
0.00105305538
0.000930758458
0.00731642744
0.00696456469
0.00104867212
0.000951841788
0.00734864717
0.00582288088
0.00100453949
0.00590701987
0.0071201229
0.0034813297
0.00109456085
0.00512378341
0.00622938803
0.00395427974
0.00365972173
0.00496831521
0.00492581435
0.00408158334
0.00437859811
0.00486640338
0.00448287556
0.00417602587
0.00468128414
0.00482390502
0.00416103101
0.00411569213
0.00501285867
0.00502414735
0.00378834339
0.00373229685
0.005178075
0.00542335388
0.00386089432
0.00316091529
0.0048445754
0.00572852829
0.00461464869
0.00288473102
0.00390134671
0.00570295589
0.00547451904
0.00320246599
0.00311926342
0.00522716548
0.00563010452
0.00423941977
0.00323780098
0.00442293454
0.0053763524
0.00476050161
0.00384643894
0.00424637617
0.00487233144
0.00458708583
0.00428246867
0.00475552204
0.00482088008
0.00389701595
0.00391998735
0.00534018416
0.00536891974
0.00335494841
0.00313032463
0.00538903983
0.00577455783
0.00373521056
0.00278070176
0.0049385213
0.00575527299
0.00433116925
0.00318736943
0.00449401786
0.00541099584
0.00459643206
0.00373844665
0.00441850079
0.00506871555
0.00454747727
0.00398652313
0.00451511486
0.00500240786
0.00450674931
0.00392482848
0.00441885868
0.00505049266
0.00475989699
0.0039732639
0.00406543287
0.00479770919
0.00484747361
0.00469209022
0.00439807728
0.00399371095
0.00411123086
0.00516506872
0.00554839826
0.00396638164
0.00251919542
0.00459124368
0.00648334497
0.0055056947
0.000749900102
0.00157253417
0.00669837586
0.00676830217
0.00227177799
0.000893115106
0.00539919618
0.00702700313
0.00539130691
0.000892523165
0.00071233622
0.00677732153
0.00679833464
0.00323274815
0.000763904799
0.004468809
0.00646125942
0.00606592507
0.00297921116
0.00122158154
0.00469356669
0.00643442318
0.00616696782
0.00229920027
0.000755921263
0.00530125084
0.00686448815
0.00584433048
0.000859021224
0.000796701625
0.00647579441
0.00699200661
0.0045685225
0.000938219494
0.00236906869
0.00684477974
0.00676893614
0.00228937674
0.000928137271
0.00516188366
0.00694629506
0.00624813733
0.000822100503
0.00088664992
0.00606400372
0.00697386704
0.00574032855
0.000860582522
0.00081565997
0.00632158202
0.00698494648
0.00535778861
0.000908615303
0.000722296835
0.00662758143
0.00696813902
0.00402680655
0.00095497935
0.00369006341
0.00704572351
0.00660672415
0.000883080573
0.000944556085
0.00625572916
0.00713807673
0.00544492721
0.00100085719
0.000783780368
0.00709363445
0.0070749124
0.00097841567
0.000973816455
0.00577853308
0.00712690361
0.0057767666
0.000926244613
0.000884247122
0.00654814865
0.00690901463
0.00450327354
0.000742363837
0.00302255148
0.00623581553
0.00613282881
0.00418123203
0.00221921403
0.0036891387
0.00566814197
0.00572371046
0.00459882831
0.0027856782
0.00335488157
0.00547722004
0.00591035669
0.00445021673
0.00231193623
0.00377022724
0.00591497482
0.00566450064
0.00315400067
0.0028137523
0.00517919017
0.00565106836
0.00432560449
0.00349022141
0.00443216995
0.00511520312
0.00464831825
0.00418649951
0.00443569931
0.00463445273
0.0044214027
0.00444652024
0.00483613054
0.00467076324
0.00389722846
0.00404424297
0.00527914188
0.00530898865
0.0035637207
0.00315544688
0.00505110223
0.00596692097
0.00459981697
0.00211471721
0.00368088278
0.00618483974
0.00598851923
0.0024064719
0.0017885136
0.00542697381
0.00646748766
0.00475488033
0.00145182929
0.00325030355
0.00622995635
0.0061102523
0.00297476923
0.00186903319
0.00502506434
0.00622971245
0.0050183825
0.00244214321
0.00314487255
0.00575426113
0.00574724456
0.00363519216
0.00305326629
0.00486105273
0.00555681924
0.00448158762
0.00343882606
0.00436512544
0.00541804409
0.00477218489
0.00339251855
0.00406111702
0.00560372947
0.00521437406
0.00296978412
0.00328566436
0.00585303509
0.00587174936
0.00273585032
0.00238128477
0.00560789543
0.0064583093
0.0037230079
0.00102099571
0.00458049583
0.0068436733
0.00560140862
0.0008627659
0.00172958185
0.0068311547
0.00682505
0.00104629504
0.000860509235
0.00579028286
0.00680017152
0.00436746508
0.00130885963
0.00402787991
0.00628003998
0.00530800015
0.00285038062
0.0033715896
0.00564918677
0.00555797401
0.00334131775
0.00323841414
0.00525344407
0.00572642476
0.00402228769
0.00273504075
0.0045355476
0.00601811099
0.00517458108
0.00237037514
0.00298810518
0.00583075827
0.00591633681
0.00365675101
0.00254461933
0.00460257625
0.0057881608
0.00518169929
0.00337564215
0.00331937535
0.00492705016
0.0054314351
0.00485139326
0.00364089661
0.00366546391
0.00497830814
0.00526813987
0.00452406192
0.00368611867
0.0041797068
0.00511834127
0.00499291588
0.0039940171
0.00395690559
0.00480139595
0.00494017265
0.00437402359
0.00413298427
0.00455048209
0.00479028555
0.00451246146
0.00427836044
0.00448122064
0.00468235034
0.00454099606
0.0043673262
0.00447049064
0.00461066333
0.00454172734
0.00443456584
0.00447997188
0.00455317362
0.00452003251
0.00447624839
0.00451590314
0.00453976704
0.00446984259
0.00445304076
0.00457993342
0.00460079405
0.00439746986
0.00437731186
0.00467353585
0.00466091093
0.00418573276
0.00437825145
0.00527168762
0.00464289969
0.00322181901
0.00432128125
0.00672240871
0.00617225235
0.000995279274
0.000812490929
0.00715758879
0.00706161113
0.000976872374
0.00106731845
0.00660505103
0.00719699922
0.0059389346
0.000992869884
0.00104700757
0.00683316836
0.00756440667
0.00571144234
0.000927315299
0.000979329042
0.00778531395
0.00800468795
0.000639010704
0.000961678748
0.000845956222
0.00770918999
0.00795051845
0.00106638933
0.00146035795
0.00129445119
0.00629228232
0.00352429829
0.00222747943
0.00225086335
0.00268545335
0.0027919862
0.00311610834
0.00325991191
0.00344204112
0.00349463834
0.00331795329
0.00341642887
0.00371182023
0.00411741835
0.00445771248
0.00503254526
0.00542773527
0.00619013625
0.00637117929
0.00622111227
0.00612930441
0.0110284169
0.0137655156
0.00912518427
0.00765579131
0.014501546
0.00840743474
0.0113194896
0.0091365693
0.00936830403
0.0102490223
0.0109376163
0.00898625329
0.0194183307
0.0193923507
0.021148306
0.0220368319
0.0241053187
0.0250770424
0.0266027906
0.0279521277
0.0298543947
0.0315991589
0.0343940707
0.0365335975
0.0400452265
0.0426787359
0.0483944571
0.0532721808
0.0580317364
0.0606954752
0.0639873806
0.0646214135
0.067801031
0.068304306
0.0719333213
0.0723335881
0.0759286764
0.0774110883
0.0805799817
0.0821934233
0.0857591928
0.0854359308
0.0889522416
0.0895030927
0.0943013335
0.0937402531
0.094701924
0.0946993272
0.100271407
0.0984071341
0.0992309294
0.0993040474
0.107172672
0.104837139
0.102856683
0.101721578
0.11206996
0.108869343
0.106661569
0.10661421
0.114626006
0.110991058
0.108721583
0.10925034
0.114860593
0.111659676
0.110380971
0.111156076
0.115303115
0.112267376
0.111682007
0.112249616
0.115516099
0.113011547
0.11234184
0.112990293
0.115587794
0.113486875
0.112800904
0.113555652
0.11560442
0.1140598
0.11314639
0.11394458
0.115601621
0.11464773
0.113528472
0.114191262
0.115668162
0.115109393
0.113941894
0.114460721
0.115818719
0.115481694
0.114378491
0.114765349
0.116055949
0.115864113
0.114834189
0.115112603
0.116355241
0.116271278
0.11530102
0.115508067
0.116697843
0.116684343
0.115783859
)
;

boundaryField
{
    closed
    {
        type            calculated;
        value           nonuniform List<scalar> 0();
    }
    open
    {
        type            calculated;
        value           nonuniform List<scalar> 0();
    }
    sides
    {
        type            empty;
    }
    procBoundary4to3
    {
        type            processor;
        value           uniform 0.00732048769;
    }
    procBoundary4to5
    {
        type            processor;
        value           uniform 0.115937096;
    }
}


// ************************************************************************* //
