/*--------------------------------*- C++ -*----------------------------------*\
| =========                 |                                                 |
| \\      /  F ield         | OpenFOAM: The Open Source CFD Toolbox           |
|  \\    /   O peration     | Version:  2306                                  |
|   \\  /    A nd           | Website:  www.openfoam.com                      |
|    \\/     M anipulation  |                                                 |
\*---------------------------------------------------------------------------*/
FoamFile
{
    version     2.0;
    format      ascii;
    arch        "LSB;label=32;scalar=64";
    class       volScalarField;
    location    "0.0003";
    object      prefDZ_H;
}
// * * * * * * * * * * * * * * * * * * * * * * * * * * * * * * * * * * * * * //

dimensions      [1 -1 -1 0 0 0 0];

internalField   nonuniform List<scalar> 
531
(
0.000106627251
0.000110307123
0.000110204092
0.00010626082
0.000106648792
0.000110301337
0.000110179934
0.000106250515
0.000106689496
0.000110295716
0.000110169802
0.000106284249
0.000106779936
0.000110294263
0.000110203969
0.000106300321
0.000106956294
0.000110305106
0.000110300622
0.000106240084
0.000107783424
0.000110267331
0.000107804611
0.000106658513
0.000108200635
0.000109502398
0.000107781162
0.000107907803
0.000108013973
0.000108126319
0.000107766198
0.000107778773
0.000107962975
0.000107878583
0.000107771643
0.000107848651
0.000107931011
0.000107803462
0.000107776804
0.000107935331
0.000107949365
0.000107749335
0.000107748685
0.000108060385
0.000108082322
0.000107731773
0.000107725168
0.000108033986
0.000108321681
0.000107773497
0.000107740944
0.000107817434
0.000108453227
0.000108020175
0.000107737365
0.000107721045
0.000108302385
0.000108340433
0.00010773221
0.000107731559
0.000107912665
0.000108286628
0.00010786116
0.000107724961
0.000107786327
0.000108040471
0.000107909192
0.000107770018
0.000107823174
0.000107900223
0.000107790048
0.000107778233
0.000108022377
0.000108014682
0.000107724441
0.000107725112
0.000108234173
0.000108335423
0.00010772249
0.00010774442
0.000108080248
0.000108505247
0.000107758766
0.000107743842
0.000107885284
0.000108309856
0.000107843129
0.000107725992
0.000107819702
0.00010808035
0.000107862184
0.000107744116
0.000107830973
0.000107991318
0.000107838445
0.000107750483
0.000107840355
0.000108011683
0.000107862089
0.000107743864
0.000107786759
0.00010799485
0.000107964224
0.000107781488
0.000107773049
0.000107801882
0.00010787073
0.000107989109
0.00010795598
0.000107734601
0.000107739832
0.00010800038
0.000108642228
0.000107832574
0.000107847395
0.000107744617
0.000109904882
0.00010919669
0.000107447791
0.000107317326
0.000108777159
0.000110166323
0.000107756517
0.000106826349
0.000107771707
0.000110223014
0.000109862682
0.000107301026
0.000107256622
0.000108298976
0.000109889054
0.000107873242
0.000107887943
0.000107809888
0.000108411475
0.000109428018
0.000107835174
0.000107936383
0.000107859641
0.000108762261
0.000109896283
0.000107774085
0.000107131512
0.000107792612
0.00011021715
0.000110076876
0.000107859971
0.00010689209
0.000107875995
0.000110279366
0.000108723809
0.000107175761
0.000107317797
0.000108766439
0.000110263297
0.000107796233
0.000106979389
0.000107822781
0.000110096296
0.0001102706
0.00010788851
0.000106925827
0.000107812524
0.000110196152
0.000110123208
0.000107920409
0.000106903947
0.000107821829
0.00011028031
0.000109797638
0.000107580205
0.000106938156
0.000108009615
0.000110250832
0.000108112656
0.000106793255
0.000107617769
0.000110266404
0.000110301665
0.000107906598
0.000106623657
0.000107834813
0.000110295988
0.000110084561
0.00010670567
0.00010673965
0.000109579677
0.0001102132
0.000107834189
0.000106641149
0.00010777692
0.000110326463
0.000110336505
0.00010772645
0.000107049197
0.000107880844
0.000109793046
0.00010838749
0.000107883446
0.000107812203
0.000107948176
0.000108808322
0.000108102155
0.000107744748
0.000107737472
0.000107834369
0.000108502349
0.00010823637
0.000107726456
0.000107766458
0.000107860914
0.000108755917
0.00010806863
0.000107768046
0.000107727703
0.000108325046
0.000108488184
0.000107737084
0.00010773422
0.000107888882
0.000108178601
0.000107859137
0.000107740858
0.000107808774
0.000107928349
0.000107858062
0.000107812637
0.000107862218
0.000107855709
0.000107775166
0.000107805647
0.000108021993
0.000107973254
0.000107725436
0.000107729732
0.000108146545
0.000108325293
0.000107746018
0.000107784475
0.000107824468
0.000108868246
0.00010810485
0.000107836358
0.000107785208
0.000108703329
0.000109062615
0.000107734256
0.000107876179
0.000107800156
0.000109274161
0.000108282175
0.000107855965
0.000107808567
0.00010841022
0.000109014217
0.000107758198
0.000107858327
0.000107756394
0.000108683691
0.000108328073
0.000107746042
0.000107738187
0.000108121006
0.000108371929
0.000107773176
0.000107730772
0.000107847609
0.000108200477
0.000107876538
0.000107728115
0.000107785528
0.000108220094
0.000107967198
0.000107734348
0.000107733927
0.00010841223
0.000108266384
0.000107758779
0.000107766899
0.000108527917
0.000108716763
0.000107730596
0.000107893368
0.000108086175
0.000109550782
0.000107833648
0.000107172276
0.00010775531
0.000110143384
0.000109097231
0.000107197446
0.000107209974
0.00010954426
0.000110190539
0.000107777588
0.00010725528
0.000107887315
0.000109360397
0.000107979755
0.000107894564
0.000107726995
0.00010847237
0.000108227927
0.000107742176
0.000107729105
0.000108241448
0.00010828754
0.000107729284
0.000107746359
0.000107979502
0.000108529081
0.000107836775
0.000107793217
0.000107739119
0.000108723259
0.000108402597
0.000107749296
0.000107763744
0.00010811194
0.000108628307
0.000107824049
0.000107749811
0.000107735774
0.000108226688
0.000108249377
0.000107765015
0.000107723133
0.000107775695
0.000108116831
0.000108106707
0.000107754084
0.000107726593
0.000107837822
0.000108099048
0.000107929247
0.000107737918
0.000107750476
0.000107988258
0.000108000309
0.000107779887
0.00010775812
0.000107873975
0.000107943377
0.000107830162
0.00010778171
0.000107838903
0.000107900055
0.000107846362
0.000107801785
0.000107832161
0.000107875459
0.000107848969
0.000107816625
0.000107831997
0.000107857968
0.000107846679
0.000107829428
0.000107837144
0.000107847697
0.000107838271
0.000107832785
0.000107849711
0.000107854028
0.000107824776
0.000107820436
0.000107870514
0.000107875719
0.000107811812
0.000107812122
0.000107941014
0.000107881413
0.000107767499
0.000107825318
0.000108305531
0.000107912472
0.000107404956
0.000107838872
0.000110261626
0.000110136115
0.00010660339
0.000106771482
0.000110245352
0.000110409507
0.000107614615
0.000106529416
0.00010764505
0.000110358281
0.000110606993
0.000107198453
0.00010585865
0.000107475786
0.000110491581
0.000110933719
0.000105479756
0.000105112964
0.000110778431
0.000111297573
0.00011107917
0.000105649456
0.000105242243
0.000110788059
0.000111216203
0.00011047085
0.000105877309
0.000107906912
0.000111079876
0.000110745838
0.000111289347
0.000111205666
0.00011155094
0.000111646755
0.00011205593
0.000112508501
0.000113469318
0.000113055868
0.000112216162
0.000111329517
0.000110772738
0.000110103009
0.000109872027
0.000109586765
0.000109365068
0.000108907959
0.000108834567
0.000104495207
0.000110002406
0.000116723542
0.000115745211
0.000123911089
0.000121793016
0.000127842754
0.000125955751
0.000127354192
0.000130082761
0.000129404682
0.000126131532
0.00015561277
0.000155588439
0.000161997372
0.00016457417
0.00017120892
0.000173616429
0.00017812892
0.000181312301
0.000186426942
0.000190354301
0.000197386045
0.000201901878
0.000210074189
0.000215395785
0.00022725582
0.000236018186
0.000244771497
0.000248837369
0.000254437866
0.000255152777
0.000260350704
0.000260893157
0.000266606716
0.000266942
0.000272365209
0.00027424357
0.000278692903
0.000280920723
0.000286311343
0.000285376114
0.000289871065
0.000290657
0.000297927045
0.000296814076
0.00029732215
0.000297626887
0.000306136718
0.000303011582
0.000303144223
0.000303983025
0.000316668076
0.000311865758
0.000308506758
0.000307589515
0.000324630399
0.000318894991
0.000314871921
0.000315142171
0.0003296733
0.000322283686
0.000319743377
0.000320645135
0.00033108865
0.000324505483
0.000324891714
0.000324819958
0.000332938871
0.000327014056
0.000328723681
0.000327935203
0.000334532754
0.000329762291
0.000330938011
0.000330481075
0.000335812015
0.000331775739
0.0003326207
0.000332633849
0.00033686734
0.00033393616
0.000333971754
0.000334415103
0.000337760277
0.000336021532
0.000335285054
0.00033584353
0.000338706653
0.000337729071
0.000336605277
0.000337177804
0.000339749878
0.000339178042
0.000337965372
0.000338457967
0.000340899219
0.000340575603
0.000339357742
0.000339744241
0.000342118068
0.000341981798
0.00034076578
0.000341079605
0.000343382887
0.000343381208
0.000342202181
)
;

boundaryField
{
    closed
    {
        type            calculated;
        value           nonuniform List<scalar> 0();
    }
    open
    {
        type            calculated;
        value           nonuniform List<scalar> 0();
    }
    sides
    {
        type            empty;
    }
    procBoundary4to3
    {
        type            processor;
        value           uniform 0.000106294232;
    }
    procBoundary4to5
    {
        type            processor;
        value           uniform 0.000342471353;
    }
}


// ************************************************************************* //
