/*--------------------------------*- C++ -*----------------------------------*\
| =========                 |                                                 |
| \\      /  F ield         | OpenFOAM: The Open Source CFD Toolbox           |
|  \\    /   O peration     | Version:  2306                                  |
|   \\  /    A nd           | Website:  www.openfoam.com                      |
|    \\/     M anipulation  |                                                 |
\*---------------------------------------------------------------------------*/
FoamFile
{
    version     2.0;
    format      ascii;
    arch        "LSB;label=32;scalar=64";
    class       volScalarField;
    location    "0.00028";
    object      prefDZ_T;
}
// * * * * * * * * * * * * * * * * * * * * * * * * * * * * * * * * * * * * * //

dimensions      [1 -1 -1 -1 0 0 0];

internalField   nonuniform List<scalar> 
530
(
-1.20550837e-09
-1.20411785e-09
-1.20403302e-09
-1.20403319e-09
-1.20403318e-09
-1.20403318e-09
-1.20403318e-09
-1.20403318e-09
-1.20403318e-09
-1.20403318e-09
-1.20403318e-09
-1.20403318e-09
-1.20403318e-09
-1.20403318e-09
-1.20403318e-09
-1.20403318e-09
-1.20403318e-09
-1.20403318e-09
-1.20403318e-09
-1.20403318e-09
-1.20403318e-09
-1.20403318e-09
-1.20403318e-09
-1.20403318e-09
-1.20403318e-09
-1.20403318e-09
-1.20403318e-09
-1.20403318e-09
-1.20403318e-09
-1.20403318e-09
-1.20403318e-09
-1.20403318e-09
-1.20403318e-09
-1.20403318e-09
-1.20403318e-09
-1.20403318e-09
-1.20403318e-09
-1.20403318e-09
-1.20403318e-09
-1.20403318e-09
-1.20403318e-09
-1.20403318e-09
-1.20403318e-09
-1.20403318e-09
-1.20403318e-09
-1.20403318e-09
-1.20403318e-09
-1.20403318e-09
-1.20403318e-09
-1.20403318e-09
-1.20403318e-09
-1.20403318e-09
-1.20403318e-09
-1.20403318e-09
-1.20403318e-09
-1.20403318e-09
-1.20403318e-09
-1.20403318e-09
-1.20403318e-09
-1.20403318e-09
-1.20403318e-09
-1.20403318e-09
-1.20403318e-09
-1.20403318e-09
-1.20403318e-09
-1.20403318e-09
-1.20403318e-09
-1.20403318e-09
-1.20403318e-09
-1.20403318e-09
-1.20403318e-09
-1.20403318e-09
-1.20403318e-09
-1.20403318e-09
-1.20403318e-09
-1.20403318e-09
-1.20403318e-09
-1.20403318e-09
-1.20403318e-09
-1.20403318e-09
-1.20403318e-09
-1.20403318e-09
-1.20403318e-09
-1.20403318e-09
-1.20403318e-09
-1.20403318e-09
-1.20403318e-09
-1.20403318e-09
-1.20403318e-09
-1.20403318e-09
-1.20403318e-09
-1.20403318e-09
-1.20403318e-09
-1.20403318e-09
-1.20403316e-09
-1.20403318e-09
-1.20403326e-09
-1.20403318e-09
-1.20403284e-09
-1.20403308e-09
-1.2040342e-09
-1.20403372e-09
-1.20403098e-09
-1.20403161e-09
-1.20403632e-09
-1.20403589e-09
-1.20403009e-09
-1.20403027e-09
-1.20403603e-09
-1.2040359e-09
-1.20402992e-09
-1.20402998e-09
-1.2040376e-09
-1.20403798e-09
-1.20402791e-09
-1.20402566e-09
-1.20403779e-09
-1.2040437e-09
-1.20403134e-09
-1.20402065e-09
-1.2040309e-09
-1.20404578e-09
-1.20403886e-09
-1.20402243e-09
-1.20402694e-09
-1.20404166e-09
-1.20403775e-09
-1.20402418e-09
-1.20402986e-09
-1.20404736e-09
-1.20403961e-09
-1.20401012e-09
-1.20401509e-09
-1.20406615e-09
-1.20406578e-09
-1.20399972e-09
-1.20398518e-09
-1.20405612e-09
-1.20409375e-09
-1.20403022e-09
-1.20396701e-09
-1.20401192e-09
-1.20409726e-09
-1.2040763e-09
-1.20397774e-09
-1.2039815e-09
-1.20407183e-09
-1.20408183e-09
-1.20401396e-09
-1.20399172e-09
-1.20403801e-09
-1.20406602e-09
-1.20403726e-09
-1.20400897e-09
-1.20402489e-09
-1.20404959e-09
-1.20404177e-09
-1.20402352e-09
-1.20402726e-09
-1.20403796e-09
-1.20403538e-09
-1.20402937e-09
-1.20403433e-09
-1.20404049e-09
-1.20403063e-09
-1.20401949e-09
-1.20403277e-09
-1.20405404e-09
-1.204042e-09
-1.2040067e-09
-1.20401167e-09
-1.20406233e-09
-1.20406261e-09
-1.20401066e-09
-1.20399896e-09
-1.20404548e-09
-1.20406891e-09
-1.20403192e-09
-1.20399869e-09
-1.2040244e-09
-1.20406516e-09
-1.20405069e-09
-1.20400408e-09
-1.20400831e-09
-1.20405899e-09
-1.20406072e-09
-1.20401545e-09
-1.20400347e-09
-1.20404169e-09
-1.20406417e-09
-1.20403478e-09
-1.20400281e-09
-1.20402185e-09
-1.20406069e-09
-1.20405177e-09
-1.20401052e-09
-1.20401242e-09
-1.20404934e-09
-1.20405113e-09
-1.20402371e-09
-1.20401918e-09
-1.20403903e-09
-1.20404384e-09
-1.20402829e-09
-1.20402408e-09
-1.20403845e-09
-1.20404269e-09
-1.20402773e-09
-1.20402189e-09
-1.20403741e-09
-1.20404666e-09
-1.20403213e-09
-1.204018e-09
-1.20402929e-09
-1.20404891e-09
-1.2040428e-09
-1.20401835e-09
-1.20401972e-09
-1.20404474e-09
-1.20404725e-09
-1.20402673e-09
-1.20401995e-09
-1.20403559e-09
-1.20404498e-09
-1.20403303e-09
-1.20402222e-09
-1.20403227e-09
-1.20404501e-09
-1.20403557e-09
-1.20401852e-09
-1.20402688e-09
-1.20405182e-09
-1.2040472e-09
-1.20401079e-09
-1.20401148e-09
-1.2040543e-09
-1.2040617e-09
-1.2040184e-09
-1.20399954e-09
-1.20403804e-09
-1.20406919e-09
-1.20403984e-09
-1.20399818e-09
-1.2040159e-09
-1.20406422e-09
-1.20405817e-09
-1.20400801e-09
-1.20400841e-09
-1.20404833e-09
-1.20405436e-09
-1.20402675e-09
-1.20401713e-09
-1.20403389e-09
-1.2040436e-09
-1.204035e-09
-1.20402806e-09
-1.2040315e-09
-1.2040343e-09
-1.20403281e-09
-1.20403373e-09
-1.20403777e-09
-1.20403351e-09
-1.20402284e-09
-1.20402765e-09
-1.20405024e-09
-1.20404839e-09
-1.20401087e-09
-1.20400623e-09
-1.20405391e-09
-1.20407459e-09
-1.20402299e-09
-1.20397649e-09
-1.20402155e-09
-1.20410328e-09
-1.20407813e-09
-1.20395504e-09
-1.20395933e-09
-1.20410065e-09
-1.2041278e-09
-1.20399576e-09
-1.20392471e-09
-1.20402959e-09
-1.20414724e-09
-1.20408204e-09
-1.20392502e-09
-1.20394473e-09
-1.20412625e-09
-1.20413149e-09
-1.20397919e-09
-1.20393742e-09
-1.2040497e-09
-1.20411912e-09
-1.20404628e-09
-1.20396212e-09
-1.20400091e-09
-1.20408818e-09
-1.20407481e-09
-1.20399325e-09
-1.20399463e-09
-1.20405619e-09
-1.20406447e-09
-1.20402368e-09
-1.20400907e-09
-1.20403389e-09
-1.20405107e-09
-1.2040379e-09
-1.2040205e-09
-1.20402523e-09
-1.2040415e-09
-1.20404102e-09
-1.20403007e-09
-1.20402719e-09
-1.20403163e-09
-1.20403694e-09
-1.2040365e-09
-1.20403256e-09
-1.20403041e-09
-1.20403117e-09
-1.20403454e-09
-1.20403563e-09
-1.20403402e-09
-1.20403118e-09
-1.20403132e-09
-1.20403371e-09
-1.20403482e-09
-1.20403433e-09
-1.20403246e-09
-1.20403152e-09
-1.20403206e-09
-1.20403482e-09
-1.20403565e-09
-1.20403268e-09
-1.20402927e-09
-1.20403138e-09
-1.20403879e-09
-1.20403831e-09
-1.20402664e-09
-1.20402393e-09
-1.20403798e-09
-1.20404775e-09
-1.20403403e-09
-1.20401304e-09
-1.20402165e-09
-1.20405764e-09
-1.20405608e-09
-1.20401088e-09
-1.20400132e-09
-1.20404474e-09
-1.20407159e-09
-1.20403814e-09
-1.2039928e-09
-1.20400945e-09
-1.20407021e-09
-1.20406771e-09
-1.20400914e-09
-1.20399756e-09
-1.204039e-09
-1.20406482e-09
-1.20404266e-09
-1.20400908e-09
-1.20401485e-09
-1.20404866e-09
-1.20404984e-09
-1.20402881e-09
-1.20402092e-09
-1.20403071e-09
-1.20404081e-09
-1.20403818e-09
-1.20402929e-09
-1.20402941e-09
-1.20403383e-09
-1.20403496e-09
-1.20403396e-09
-1.20403289e-09
-1.20403275e-09
-1.20403249e-09
-1.20403287e-09
-1.20403396e-09
-1.20403386e-09
-1.20403281e-09
-1.20403282e-09
-1.20403301e-09
-1.20403275e-09
-1.20403312e-09
-1.20403498e-09
-1.2040347e-09
-1.20402979e-09
-1.20402917e-09
-1.20403697e-09
-1.2040407e-09
-1.20403126e-09
-1.20402176e-09
-1.20403028e-09
-1.20404779e-09
-1.2040439e-09
-1.20401665e-09
-1.20401687e-09
-1.20404617e-09
-1.20405338e-09
-1.2040269e-09
-1.20401093e-09
-1.20403134e-09
-1.20405547e-09
-1.2040431e-09
-1.20401266e-09
-1.2040163e-09
-1.20405074e-09
-1.20405177e-09
-1.204023e-09
-1.2040144e-09
-1.20403556e-09
-1.20405101e-09
-1.2040381e-09
-1.20401761e-09
-1.20402199e-09
-1.20404589e-09
-1.20404567e-09
-1.20402641e-09
-1.20402161e-09
-1.20403452e-09
-1.20404274e-09
-1.20403541e-09
-1.20402623e-09
-1.20402952e-09
-1.20403756e-09
-1.20403634e-09
-1.20403077e-09
-1.20403136e-09
-1.20403493e-09
-1.20403416e-09
-1.20403049e-09
-1.20403148e-09
-1.20403777e-09
-1.2040374e-09
-1.20402737e-09
-1.20402543e-09
-1.20403736e-09
-1.20404486e-09
-1.20403426e-09
-1.20401865e-09
-1.20402294e-09
-1.20404898e-09
-1.20404908e-09
-1.20402352e-09
-1.20401392e-09
-1.20403349e-09
-1.20405291e-09
-1.20404276e-09
-1.20401567e-09
-1.20401775e-09
-1.20404519e-09
-1.20404871e-09
-1.20402892e-09
-1.2040198e-09
-1.20403171e-09
-1.20404334e-09
-1.20403772e-09
-1.20402631e-09
-1.20402781e-09
-1.20403742e-09
-1.20403733e-09
-1.20403138e-09
-1.20403046e-09
-1.20403362e-09
-1.20403479e-09
-1.20403329e-09
-1.2040323e-09
-1.20403294e-09
-1.20403361e-09
-1.20403338e-09
-1.20403298e-09
-1.20403305e-09
-1.20403326e-09
-1.20403325e-09
-1.20403315e-09
-1.20403315e-09
-1.20403319e-09
-1.20403319e-09
-1.20403318e-09
-1.20403319e-09
-1.20403321e-09
-1.20403317e-09
-1.20403302e-09
-1.20403306e-09
-1.20403374e-09
-1.20403393e-09
-1.20403183e-09
-1.20402979e-09
-1.20403463e-09
-1.2040456e-09
-1.20404067e-09
-1.20399451e-09
-1.20399189e-09
-1.20411673e-09
-1.20418903e-09
-1.20392644e-09
-1.2035618e-09
-1.20391718e-09
-1.20519789e-09
-1.20500849e-09
-1.20185816e-09
-1.20100633e-09
-1.20663274e-09
-1.21069016e-09
-1.20264059e-09
-1.19258135e-09
-1.19534841e-09
-1.2330998e-09
-1.2345468e-09
-1.19071619e-09
-1.18902842e-09
-1.20436218e-09
-1.22744053e-09
-1.23225216e-09
-1.18836292e-09
-1.18880156e-09
-1.21273752e-09
-1.22828722e-09
-1.21977116e-09
-1.1877217e-09
-1.18959753e-09
-1.23012828e-09
-1.23039227e-09
-1.19413047e-09
-1.18836535e-09
-1.20119001e-09
-1.22804121e-09
-1.22630297e-09
-1.18851387e-09
-1.19437801e-09
)
;

boundaryField
{
    closed
    {
        type            calculated;
        value           uniform -1.47051858e-09;
    }
    open
    {
        type            calculated;
        value           nonuniform List<scalar> 0();
    }
    sides
    {
        type            empty;
    }
    procBoundary0to1
    {
        type            processor;
        value           uniform -1.23314844e-09;
    }
}


// ************************************************************************* //
