/*--------------------------------*- C++ -*----------------------------------*\
| =========                 |                                                 |
| \\      /  F ield         | OpenFOAM: The Open Source CFD Toolbox           |
|  \\    /   O peration     | Version:  2306                                  |
|   \\  /    A nd           | Website:  www.openfoam.com                      |
|    \\/     M anipulation  |                                                 |
\*---------------------------------------------------------------------------*/
FoamFile
{
    version     2.0;
    format      ascii;
    arch        "LSB;label=32;scalar=64";
    class       volScalarField;
    location    "0.00028";
    object      rho;
}
// * * * * * * * * * * * * * * * * * * * * * * * * * * * * * * * * * * * * * //

dimensions      [1 -3 0 0 0 0 0];

internalField   nonuniform List<scalar> 
530
(
0.933260533
0.938712798
0.939710139
0.939346319
0.939107841
0.939101224
0.939354138
0.939757187
0.940081382
0.940225982
0.940286528
0.940331447
0.940368397
0.940290163
0.940053889
0.939713269
0.939319882
0.938914641
0.938560389
0.938365549
0.938250349
0.938039817
0.937664228
0.937225743
0.936888582
0.936836686
0.936992852
0.937031858
0.9369016
0.936943396
0.937162188
0.937110887
0.936641541
0.936219133
0.936165364
0.936379781
0.936661507
0.936912646
0.936971104
0.936848844
0.936715487
0.936666597
0.936701506
0.936808219
0.936944891
0.937021275
0.937000075
0.936924095
0.93685631
0.936807009
0.936755245
0.936704041
0.936666977
0.936649239
0.93665395
0.936677801
0.936706677
0.936719098
0.936700354
0.936650986
0.936581971
0.936506296
0.936433862
0.936371222
0.936323035
0.936292351
0.936280195
0.936285587
0.936306097
0.936338538
0.936379528
0.936425829
0.936474547
0.936523241
0.936569978
0.936613344
0.936652423
0.93668674
0.936716184
0.936740921
0.936761317
0.936777853
0.936791071
0.936801524
0.936809744
0.936816219
0.936821385
0.936825619
0.936829238
0.936832505
0.936835627
0.936838768
0.936842048
0.936845557
0.936849355
0.936853445
0.936857824
0.936862623
0.936867887
0.936873071
0.936877949
0.936884038
0.936891705
0.93689742
0.936900699
0.936907405
0.93691785
0.936924981
0.936929051
0.936937184
0.936949375
0.936958215
0.936962776
0.936972242
0.936988611
0.937000525
0.937003889
0.937011505
0.93703085
0.93704952
0.937055537
0.937059006
0.937076349
0.937099912
0.937110757
0.937115518
0.937132124
0.937154965
0.937166055
0.937169985
0.937189785
0.937223238
0.937235405
0.937218998
0.937234648
0.937291172
0.937315672
0.937287062
0.937279038
0.937333945
0.937388415
0.937375668
0.937337474
0.937365276
0.937441027
0.937452908
0.937410663
0.937417983
0.937473393
0.937499952
0.937483497
0.937477873
0.937507061
0.937535369
0.93753562
0.937529776
0.937543518
0.937563067
0.937568238
0.937568356
0.937575996
0.937585007
0.937586423
0.93758631
0.93759537
0.937604428
0.937597515
0.937584828
0.937592088
0.937613014
0.937608156
0.937574123
0.937570694
0.937599055
0.937601679
0.937567469
0.937546956
0.937563464
0.937577018
0.93755343
0.937519943
0.937520366
0.937540319
0.937528269
0.937486963
0.937475759
0.937493488
0.937490226
0.937455531
0.937430377
0.937437316
0.937445664
0.937422184
0.937386247
0.937379925
0.937393604
0.937380399
0.937345361
0.937332127
0.937337028
0.937327667
0.937303146
0.937287964
0.937285447
0.937275879
0.937254774
0.93723997
0.937237122
0.937228604
0.937206826
0.937188952
0.937185871
0.937182532
0.937163403
0.937139083
0.937130752
0.937133796
0.937120773
0.937093016
0.937079208
0.937079672
0.937071533
0.937049399
0.937031072
0.937025923
0.937019974
0.937000952
0.936980148
0.936973
0.93697045
0.936951978
0.93692304
0.936912326
0.936921193
0.936906846
0.936866147
0.93684728
0.936859748
0.936856828
0.936818125
0.936783764
0.936786868
0.936797396
0.936770894
0.936725189
0.936713121
0.936728292
0.936711899
0.936670819
0.936650642
0.936651247
0.936640534
0.936613326
0.936590376
0.936578699
0.936565889
0.936546546
0.936527504
0.93651105
0.936493025
0.936472998
0.936458063
0.936447057
0.936426389
0.936394637
0.936378041
0.936383575
0.936368677
0.936321291
0.936290662
0.936304984
0.936316099
0.936270501
0.936202054
0.936200186
0.9362591
0.93623909
0.936134111
0.936100066
0.93616521
0.936192339
0.936110781
0.93602107
0.936045501
0.936126815
0.936098881
0.935970654
0.935952159
0.936031894
0.936043108
0.935959277
0.935902138
0.935933948
0.935972966
0.935936231
0.93586974
0.935866249
0.935905541
0.935893851
0.935845344
0.935830422
0.935846551
0.935846977
0.93582354
0.935805442
0.93580682
0.935811458
0.935803021
0.935788077
0.935784214
0.935787542
0.935786555
0.935781738
0.935777103
0.935776762
0.935779333
0.935781541
0.935782699
0.935783004
0.935785496
0.935790447
0.935796949
0.935802398
0.935807256
0.935813718
0.935821986
0.935831929
0.935842119
0.935852203
0.935861732
0.935873277
0.935887983
0.935903767
0.935916907
0.935927533
0.935943817
0.935967779
0.935986902
0.935996307
0.936009041
0.936037
0.936070079
0.936085377
0.936084208
0.936106884
0.936157151
0.93618574
0.93618188
0.936188666
0.936233304
0.936285616
0.936299776
0.936286782
0.936313335
0.936374942
0.936407524
0.936407368
0.936417005
0.936456581
0.936503304
0.936525652
0.936530608
0.936555826
0.936594825
0.936625611
0.936645346
0.936664784
0.93669201
0.936722986
0.9367482
0.936770546
0.936794732
0.936820003
0.936845058
0.936869257
0.93689323
0.936916485
0.936938943
0.936961779
0.936984815
0.937006785
0.937028209
0.937049465
0.937069854
0.937088834
0.937108638
0.937130803
0.937149767
0.937162959
0.937178129
0.937200929
0.937223211
0.937233732
0.93723811
0.93725525
0.937286368
0.937299893
0.93729483
0.937303005
0.937331666
0.937353331
0.937351969
0.93734786
0.937366077
0.937395148
0.937402681
0.937390715
0.937399184
0.937425854
0.937439645
0.937434601
0.937432756
0.937448191
0.937467971
0.9374719
0.937463289
0.937469257
0.937486641
0.937494581
0.937491057
0.937489993
0.937498146
0.937507008
0.937507677
0.93750498
0.937507648
0.93751266
0.93751351
0.937512204
0.937513322
0.937516002
0.937515571
0.937511637
0.93751166
0.937517509
0.93751815
0.937509987
0.93750438
0.937509835
0.937518188
0.937513945
0.937495943
0.937493834
0.937507445
0.937510878
0.937495943
0.937480867
0.937483979
0.937497419
0.937492551
0.937471765
0.937465729
0.937474085
0.937475732
0.937464254
0.937452928
0.93745232
0.937455336
0.937450348
0.937440368
0.937436471
0.937436274
0.937433
0.937427248
0.937422768
0.937419976
0.937416854
0.937412682
0.937408403
0.937404535
0.937400537
0.937395912
0.937390738
0.93738509
0.937378706
0.93737126
0.937362582
0.937352519
0.93734089
0.937327583
0.937312622
0.937296217
0.937278712
0.937260408
0.937241613
0.937223665
0.937208264
0.937194409
0.937178059
0.937159637
0.937152598
0.937172153
0.937165513
0.937079688
0.937026917
0.937182151
0.937397054
0.937170023
0.936343654
0.93645056
0.938304451
0.938694975
0.93527874
0.932219481
0.937623613
0.939990073
0.94019568
0.907139743
0.908349919
0.944466431
0.952817451
0.936139544
0.905110299
0.911350593
0.953889902
0.953503025
0.930324162
0.906130504
0.924239294
0.958809443
0.947427205
0.905438633
0.907225232
0.940947869
0.954858973
0.938120286
0.905485338
0.917517831
0.955388016
0.940769704
)
;

boundaryField
{
    closed
    {
        type            calculated;
        value           uniform 0.583939388;
    }
    open
    {
        type            calculated;
        value           nonuniform List<scalar> 0();
    }
    sides
    {
        type            empty;
    }
    procBoundary0to1
    {
        type            processor;
        value           uniform 0.907331223;
    }
}


// ************************************************************************* //
