/*--------------------------------*- C++ -*----------------------------------*\
| =========                 |                                                 |
| \\      /  F ield         | OpenFOAM: The Open Source CFD Toolbox           |
|  \\    /   O peration     | Version:  2306                                  |
|   \\  /    A nd           | Website:  www.openfoam.com                      |
|    \\/     M anipulation  |                                                 |
\*---------------------------------------------------------------------------*/
FoamFile
{
    version     2.0;
    format      ascii;
    arch        "LSB;label=32;scalar=64";
    class       volScalarField;
    location    "0.00014";
    object      prefDZ_H;
}
// * * * * * * * * * * * * * * * * * * * * * * * * * * * * * * * * * * * * * //

dimensions      [1 -1 -1 0 0 0 0];

internalField   nonuniform List<scalar> 
3816
(
0.000108109741
0.000107890105
0.000107840138
0.000107840108
0.000107840095
0.000107840095
0.000107840095
0.000107840095
0.000107840095
0.000107840095
0.000107840095
0.000107840095
0.000107840095
0.000107840095
0.000107840095
0.000107840095
0.000107840095
0.000107840095
0.000107840095
0.000107840095
0.000107840095
0.000107840095
0.000107840095
0.000107840095
0.000107840095
0.000107840095
0.000107840095
0.000107840095
0.000107840095
0.000107840095
0.000107840095
0.000107840095
0.000107840095
0.000107840095
0.000107840095
0.000107840095
0.000107840095
0.000107840095
0.000107840095
0.000107840095
0.000107840095
0.000107840095
0.000107840095
0.000107840095
0.000107840095
0.000107840095
0.000107840095
0.000107840095
0.000107840095
0.000107840095
0.000107840095
0.000107840095
0.000107840095
0.000107840095
0.000107840095
0.000107840095
0.000107840095
0.000107840095
0.000107840095
0.000107840095
0.000107840095
0.000107840095
0.000107840095
0.000107840095
0.000107840095
0.000107840095
0.000107840095
0.000107840095
0.000107840095
0.000107840095
0.000107840095
0.000107840095
0.000107840095
0.000107840095
0.000107840095
0.000107840095
0.000107840095
0.000107840096
0.000107840096
0.000107840097
0.000107840101
0.000107840109
0.000107840129
0.000107840171
0.000107840255
0.000107840411
0.000107840683
0.000107841129
0.000107841816
0.000107842832
0.000107844206
0.000107846171
0.000107848483
0.000107851417
0.000107855218
0.000107862002
0.000107861957
0.000107846564
0.000107869739
0.000107962426
0.000107925075
0.000107736202
0.000107726789
0.000107638737
0.000107803795
0.000107915566
0.000110301332
0.000110414236
0.000110409066
0.000106895671
0.000106740651
0.000108346346
0.000110187101
0.000110282202
0.000110348148
0.00010672536
0.000106495004
0.00010711993
0.000107797756
0.000110344317
0.000110489343
0.000106997918
0.000106915348
0.000110331824
0.000110383007
0.000106668431
0.000106637524
0.000110264767
0.000110280702
0.000106184037
0.000106129276
0.000105574864
0.000106370512
0.00011023406
0.000110191468
0.000110229279
0.000110187002
0.000110211988
0.000110178
0.000106130838
0.000105685261
0.000106725774
0.000105940967
0.000107201983
0.000110240361
0.000110253947
0.000110248168
0.00011026933
0.00011025109
0.000106566407
0.000106170871
0.000106505696
0.000106625087
0.000110349996
0.000110224876
0.000106870216
0.000106429088
0.000107178922
0.000110249276
0.000110351561
0.00011024635
0.000107150277
0.000106315485
0.000107274594
0.000110260535
0.000110357122
0.000110255334
0.000110359968
0.000106574108
0.000106764503
0.000106571052
0.000107098839
0.000110295895
0.000110326067
0.000106427182
0.000107285426
0.000110358674
0.000110284403
0.000110363577
0.000106663734
0.000106268637
0.000106550658
0.000106674652
0.000110336768
0.00011031982
0.000106722435
0.000106784692
0.000110380854
0.000110283543
0.000106869418
0.000106432067
0.000107047672
0.000110294692
0.000110380163
0.000110304093
0.000110387819
0.00010655344
0.000106782679
0.00010651509
0.000107030424
0.000110359049
0.00011032758
0.000110363629
0.00011032881
0.000106494001
0.000106104672
0.000106663346
0.000110297695
0.000110391353
0.000106434437
0.000106653101
0.000110312191
0.000110372927
0.000106580638
0.000106629962
0.000110318743
0.000110353007
0.000106513442
0.000106541394
0.000110325908
0.00011033421
0.000106422584
0.000106537076
0.000106408638
0.000106951616
0.000106400594
0.000107254611
0.000110348021
0.000110307788
0.000110348031
0.000110315709
0.000110349115
0.00011031699
0.000106259269
0.000105959224
0.000106478132
0.000110294787
0.000110369664
0.000106597248
0.000106847797
0.000106811889
0.000107076165
0.000110301702
0.000110375297
0.000107044351
0.000107118744
0.00011032607
0.000110369627
0.000106977161
0.000106980914
0.00011034923
0.000110364946
0.000106793085
0.000106805815
0.000110369542
0.000110365053
0.000106603417
0.000106719807
0.000110390735
0.000110374198
0.000106486002
0.000107184139
0.000106425999
0.000107776137
0.00011040143
0.000110359887
0.000110394918
0.00010708204
0.00010671454
0.000106763528
0.000106910971
0.000110346008
0.000110342079
0.000110326597
0.000107019342
0.000106419092
0.000106972302
0.000110305594
0.000110371954
0.000106571925
0.00010679395
0.000110327844
0.000110359723
0.000106582387
0.000106624047
0.00011033465
0.000110343728
0.000106491511
0.000106513284
0.000110340634
0.000110319822
0.000106379454
0.000106441191
0.000110343521
0.000110284885
0.00010631957
0.00010649712
0.000110357312
0.000110229715
0.000106346329
0.000106697171
0.000106282979
0.000107196523
0.00011036653
0.000110283486
0.000110266163
0.000106787483
0.000106675604
0.000110304573
0.000110164955
0.00010660427
0.000106845438
0.000110330778
0.000110195243
0.000106353751
0.000106330174
0.000107210758
0.000110315313
0.000110083303
0.000106574358
0.000106568404
0.000107059924
0.000106720945
0.000107776823
0.000110326928
0.000110207297
0.000110319279
0.000109931036
0.00010667665
0.000107281475
0.00011035698
0.000109923564
0.00010762428
0.00011016038
0.000109893684
0.000107475984
0.00011006732
0.000109946274
0.000106389547
0.000106396213
0.000106623973
0.000107887462
0.000110299704
0.000109984875
0.000106615394
0.000107953219
0.00011030445
0.000110057402
0.000110277211
0.000109897105
0.000105979504
0.000105940493
0.000106478926
0.000106851227
0.000106649528
0.000107767848
0.000110297491
0.00011033876
0.000110051453
0.00011026966
0.000109938703
0.000105979238
0.00010594977
0.000106751965
0.000107932208
0.000110306077
0.000110088031
0.000106679424
0.00010749879
0.000110322789
0.000110031025
0.000106645081
0.000107394051
0.000110333331
0.000110053479
0.000106566441
0.000107258209
0.000110338584
0.000110089537
0.000106509804
0.000107155979
0.000110337681
0.000110133496
0.000106509909
0.000107154137
0.00011032103
0.000110215794
0.000106264472
0.000106248354
0.000106787427
0.000107855534
0.000110246501
0.000110277607
0.000110283365
0.000106302697
0.000106057448
0.00010783776
0.000110221039
0.000110420097
0.000106625162
0.000107826911
0.000110262307
0.000110211237
0.000110228461
0.0001103007
0.000105976231
0.000105921549
0.000106480781
0.000107940326
0.000110225548
0.000110258084
0.000110317962
0.000105858645
0.000105435925
0.000106756623
0.000106207539
0.000107840528
0.000110184192
0.000110240288
0.000110202239
0.00011023194
0.00011021619
0.00011023507
0.000105897672
0.000105098191
0.000107229749
0.000110143515
0.000110396035
0.000106262041
0.000106698874
0.000110249679
0.000110280825
0.00010624329
0.000105715291
0.000107289672
0.000110187684
0.00011043873
0.000106503438
0.000106666399
0.000110250093
0.00011039929
0.000106608536
0.000106600725
0.000110287415
0.000110349355
0.000106426708
0.000106421621
0.000106650062
0.000107891115
0.000110301514
0.000110341024
0.000110310318
0.000110347719
0.000106296988
0.000105789952
0.000107006838
0.000106401355
0.000107824677
0.000110281142
0.000110330597
0.000110324993
0.000106978742
0.000106660422
0.00010694883
0.000107843149
0.000110290475
0.000110369266
0.000110286732
0.000110382971
0.000106663924
0.00010637173
0.000106687423
0.000107264849
0.00011034709
0.000110258532
0.000106897113
0.000106290975
0.000107256852
0.000110246348
0.000110418876
0.000106804283
0.000106815811
0.000110258896
0.000110405786
0.000106793627
0.000106699407
0.000110274224
0.000110370368
0.000106679179
0.000106721224
0.000106614067
0.000107669317
0.000110283071
0.000110326964
0.000110283377
0.000110353088
0.000110275337
0.000106647908
0.000105573119
0.000106899783
0.000110264016
0.00011037129
0.000106429491
0.000106566512
0.000110291594
0.000110367981
0.000106603021
0.000106535384
0.000110325407
0.000110343869
0.00010656405
0.000106526578
0.000110339691
0.000110315139
0.000106513194
0.000106549746
0.000110345005
0.000110280066
0.000106474358
0.000106595262
0.000110356988
0.00011022895
0.000106449448
0.00010649546
0.000106567974
0.000107204881
0.0001103793
0.00011021317
0.000106587391
0.00010653069
0.000107203044
0.000106655646
0.00010776015
0.000110357137
0.000110390443
0.000110251903
0.000110363517
0.000110143185
0.000106511963
0.000105626887
0.000107716354
0.000110288931
0.000110307604
0.000110148219
0.000106247901
0.000106232156
0.000106423044
0.000107765744
0.000110322486
0.000110333683
0.000110179745
0.00011028205
0.000110047736
0.000105861959
0.000105418469
0.000107493751
0.000110205875
0.000110042748
0.000106195143
0.000107050153
0.000110215625
0.000110047684
0.000105910926
0.000105911024
0.000106409505
0.000106818039
0.000106543496
0.000107809786
0.00011029022
0.000110321899
0.000110162074
0.000110280303
0.000109992306
0.000110253391
0.000109934217
0.0001057867
0.000106155747
0.000110253885
0.000110041698
0.000105215009
0.000105132854
0.000106349445
0.000105961047
0.000107822563
0.000110251981
0.000110253613
0.000110239052
0.000110174822
0.000110200816
0.000110214141
0.000105638731
0.000105611995
0.000106304286
0.000107171542
0.000110243021
0.00011033944
0.000106612001
0.000106859541
0.000110284065
0.000110305565
0.000106667664
0.000106809565
0.000110301573
0.000110327112
0.000106609961
0.000106613607
0.000106558661
0.00010787536
0.000110309486
0.000110296906
0.000110375962
0.000107040199
0.0001066077
0.000110295155
0.000110367519
0.00010676771
0.000106662343
0.00011031524
0.000110356171
0.000106607373
0.000106717906
0.000110352519
0.000110286208
0.000106411989
0.000105980301
0.000107280053
0.00011027907
0.000110323329
0.000110331845
0.000106811085
0.000106595637
0.000106734225
0.000107636079
0.000110314516
0.000110315702
0.000110319197
0.000110320973
0.000106655686
0.000106063446
0.000107045377
0.000110270682
0.000110366632
0.000106753395
0.00010675571
0.000110324576
0.000110299177
0.000106752662
0.000106285967
0.000107099385
0.000106575082
0.000107694665
0.000110234799
0.000110349083
0.000110271095
0.000110363885
0.000110301833
0.000106493496
0.000105861203
0.000106833651
0.000106168896
0.000107353329
0.000110237842
0.000110376847
0.000110248802
0.000110393893
0.000106676507
0.000106359576
0.000106487428
0.000106906335
0.000110325815
0.000110266867
0.000106900908
0.000106254496
0.000107129221
0.000110280164
0.00011037047
0.000110258706
0.000110373988
0.000106462542
0.000106277551
0.000110298918
0.000110284397
0.000106377973
0.000106376873
0.000110304282
0.000110222263
0.000106366508
0.000106480359
0.000110307137
0.000110172412
0.000106369112
0.000106579157
0.000110308077
0.000110128676
0.00010636802
0.000106663967
0.000110308219
0.000110090204
0.000106362598
0.000106733388
0.000110308367
0.000110057619
0.000106355793
0.000106791797
0.000110308858
0.00011003152
0.000106349021
0.000106839683
0.000110309543
0.000110012818
0.00010634593
0.000106879048
0.000110310608
0.000110001898
0.000106345155
0.000106911716
0.000110312369
0.000109998505
0.000106346881
0.000106936827
0.000110314692
0.000110001404
0.000106348434
0.000106951586
0.000110317371
0.000110009864
0.000106350285
0.000106958689
0.000110320709
0.000110023234
0.000106353518
0.000106961484
0.000110324776
0.000110040125
0.00010635725
0.000106964393
0.000110329833
0.000110058715
0.000106363794
0.000106971736
0.000110336759
0.000110077651
0.0001063733
0.000106992699
0.00011034479
0.000110107537
0.000106368683
0.000107140269
0.000110334979
0.000110145943
0.000105855291
0.000105799211
0.000107583221
0.000110241249
0.000110279141
0.000106437789
0.000107146258
0.000110307125
0.000110223928
0.000106122833
0.000106095357
0.000106841582
0.000106820145
0.000107369463
0.00010720476
0.000107770544
0.00011030257
0.000110372889
0.000110249026
0.000110343985
0.000110195409
0.000110310615
0.00011019013
0.000105785252
0.000105484232
0.000107415907
0.000110228656
0.000110363239
0.000106336682
0.000106848371
0.000110281053
0.00011030639
0.000106548848
0.00010679317
0.000110288075
0.000110286247
0.000106441069
0.000106440896
0.000106582227
0.000107876415
0.000110269978
0.000110294532
0.000110283375
0.000106485884
0.000105764063
0.000107529438
0.000110273344
0.000110381552
0.000106263237
0.000106946445
0.000110306823
0.00011031572
0.000106104607
0.000106060529
0.000106989062
0.000106586555
0.000107840413
0.000110284277
0.00011032832
0.00011028709
0.000110355591
0.000110282778
0.000110375859
0.00010643151
0.000106241319
0.000110298241
0.000110324512
0.000106502695
0.000106672385
0.000110327662
0.000110268129
0.000106408998
0.000106060287
0.000107253481
0.000110277696
0.000110330825
0.000106490397
0.000106314517
0.000107190816
0.000110294817
0.000110393749
0.000106671528
0.000106796014
0.00011031321
0.000110395725
0.000106715053
0.000106651218
0.000110322304
0.000110382838
0.000106640017
0.000106577556
0.000110329294
0.000110377276
0.000106553776
0.000106710412
0.000106409496
0.000107852087
0.000110402457
0.000110318997
0.000110419507
0.000106877697
0.000106592819
0.000106784301
0.000107429618
0.000110313625
0.000110418396
0.00011031361
0.000110444416
0.00010659074
0.000106509096
0.000106746875
0.000107139903
0.000110342565
0.000110408681
0.00010700192
0.00010702714
0.000110382128
0.000110390001
0.000106889032
0.000106948738
0.000110422084
0.000110328111
0.000106672111
0.000106484301
0.000107201999
0.000106729261
0.000107772509
0.000110325165
0.00011039531
0.000110325544
0.000110383282
0.000110318922
0.000106439238
0.00010611204
0.0001068305
0.000106685702
0.000107247054
0.000110379106
0.000110284535
0.000107478055
0.000110335017
0.000110306434
0.000106482271
0.000107153937
0.000110329755
0.00011025638
0.000106576727
0.0001070622
0.000110340578
0.000110178234
0.000106339348
0.000106324706
0.000106971593
0.000106584423
0.000107659691
0.000110330417
0.000110336165
0.000110247599
0.000110312227
0.00011015851
0.000105634575
0.000105434048
0.000106491589
0.000105762793
0.00010765437
0.000110280044
0.000110304611
0.000110135054
0.000106184071
0.000106179623
0.000106273833
0.00010776605
0.000110299318
0.000110276835
0.000110283106
0.00011014952
0.000110266315
0.000110056313
0.000105308859
0.000105280573
0.000106187898
0.00010621752
0.000106963786
0.000106850191
0.000107972969
0.000110274863
0.000110243929
0.000110271334
0.000110165845
0.000110252354
0.000110112087
0.000105740026
0.00010569359
0.000107516745
0.000110226564
0.000110200867
0.000106426937
0.000107149239
0.000110275373
0.000110169017
0.000106692483
0.000107126355
0.00011029586
0.000110200066
0.00010667988
0.000106668515
0.000106865267
0.00010787988
0.000110310946
0.00011022567
0.000110289912
0.000110222008
0.000106022793
0.00010593033
0.000107534265
0.000110267376
0.000110335566
0.000106248688
0.000106229816
0.000107135742
0.000106694634
0.000107787081
0.000110265755
0.00011033782
0.000110281248
0.000110297526
0.00011032901
0.00010624595
0.000106202393
0.000106540979
0.000107475984
0.000110296403
0.000110437993
0.000106366739
0.000107669094
0.000110302335
0.000110320397
0.000110310078
0.000110300417
0.000110344896
0.000105732653
0.000105551513
0.000106313495
0.000106643071
0.000106686599
0.000107481962
0.000110318165
0.00011043149
0.000106943388
0.000107383904
0.000110362829
0.00011034397
0.000106977184
0.000106711126
0.000107815368
0.00011030574
0.000110370503
0.000110312156
0.000110358038
0.000106397491
0.000106143562
0.000106973375
0.000106454914
0.000107600674
0.000110275894
0.00011032766
0.000110279935
0.000110333303
0.000110270996
0.000106157802
0.000105719533
0.000106631112
0.00010613075
0.000107130706
0.000110297167
0.000110294461
0.000106640407
0.000106666492
0.000106854281
0.000107297394
0.000106997441
0.000107828806
0.000110350105
0.000110347891
0.000110308988
0.000110340605
0.000110292198
0.000110225526
0.000106354484
0.000106409609
0.000110329271
0.000110113913
0.00010627113
0.000106669345
0.000110344118
0.000110134073
0.000105984949
0.000105726401
0.000107157775
0.000110278028
0.000110254314
0.000110270757
0.000110070684
0.000106072741
0.00010647145
0.000110281006
0.000110087354
0.000106159086
0.000106166833
0.000106414106
0.000107630755
0.000110304958
0.000110204767
0.000110293468
0.000110040206
0.000106415525
0.00010683507
0.00011030943
0.000110072661
0.00010651107
0.000106982947
0.000110314765
0.000110077004
0.000106611323
0.000107105122
0.000110320348
0.000110085403
0.00010667399
0.000107185032
0.000110327692
0.000110093588
0.000106671746
0.000107208407
0.000110338599
0.000110105397
0.00010657986
0.000107210595
0.000110347213
0.000110140499
0.000106183165
0.000106142653
0.000106990461
0.000106777073
0.000107793531
0.000110250468
0.000110347964
0.000110255093
0.000106411327
0.000106221299
0.00010783212
0.000110272611
0.000110354148
0.000106632173
0.000107318575
0.000110329243
0.000110293234
0.000106395021
0.000106351048
0.000107228246
0.00010702303
0.000107776029
0.000110226026
0.000110351421
0.000110227894
0.000110318501
0.000110252358
0.000106159966
0.000105731448
0.000107523696
0.000110227886
0.000110411356
0.000106324653
0.000107082294
0.000110286427
0.00011029773
0.000106077053
0.000105885783
0.000107307408
0.000110233759
0.000110400357
0.000106329377
0.00010674003
0.000110281093
0.00011034794
0.000106284209
0.000106582636
0.000110314998
0.000110294813
0.000105955866
0.000105819995
0.000106816924
0.000106508237
0.00010770383
0.000110206992
0.000110347357
0.000110259536
0.000110340079
0.000110297467
0.000106142113
0.000105519027
0.000107040534
0.000110209663
0.000110299268
0.000110216229
0.000110336986
0.000110231177
0.000110344909
0.000105367544
0.000105067557
0.000105943698
0.000106475209
0.000106359976
0.00010740712
0.000110240027
0.000110374282
0.000110247042
0.000110408524
0.00010649103
0.000106356216
0.000106386777
0.000107408361
0.000110315164
0.000110293706
0.000110334152
0.000107130083
0.000106605806
0.000110356922
0.000110264567
0.000106696994
0.000106002667
0.00010697767
0.000110244036
0.000110403499
0.000106709644
0.000106721532
0.000110263929
0.000110396515
0.000106899989
0.00010667279
0.000106846823
0.000107205147
0.00011029619
0.000110395197
0.000107292386
0.000107188607
0.000107163489
0.000107788827
0.000110281746
0.000110419934
0.000107211847
0.00010781603
0.000110328466
0.000110350165
0.000110355516
0.00011033706
0.000110381032
0.000106817455
0.000105995185
0.000110258438
0.000110342502
0.000106502272
0.000106247008
0.000106396165
0.00010687794
0.000110260038
0.000110329852
0.000106819721
0.000106906488
0.000110280157
0.000110355435
0.000110290352
0.000110377829
0.000106500954
0.000106246049
0.000106447806
0.000106799529
0.000110263117
0.000110340322
0.000106882785
0.000106823323
0.000110253114
0.000110341326
0.000106828788
0.000106729448
0.000110266374
0.000110312085
0.000106638596
0.000106624027
0.000110303647
0.000110264141
0.000106590662
0.000106177175
0.000106963851
0.000106387422
0.000107346424
0.000110212481
0.000110421021
0.000110240096
0.000110443749
0.000106462205
0.000106291748
0.000110164654
0.000110401496
0.000106421019
0.000106243067
0.000110152887
0.000110357463
0.00010656522
0.00010653333
0.000106297988
0.000106910184
0.000110212286
0.00011030145
0.000110279173
0.000110335818
0.000110313823
0.000106930435
0.000105483483
0.00010641001
0.000110161159
0.000110291146
0.000106660989
0.000106447176
0.00011004667
0.000110260774
0.000107285768
0.000106075324
0.000106131703
0.000110023367
0.000110330594
0.000107448241
0.000106624707
0.000109670481
0.000110328987
0.000107835059
0.000106899322
0.000106506924
0.000106501754
0.000109168112
0.000110254394
0.000110150778
0.000110325109
0.000107790809
0.000106739806
0.000108494843
0.000110221775
0.000107789847
0.000106758223
0.000108122561
0.000110130085
0.000107813418
0.000106799986
0.000107919527
0.000110077711
0.000108011462
0.0001067451
0.000106140988
0.000107693398
0.000110044444
0.000108234863
0.000107342597
0.000107046704
0.000106748986
0.000106437384
0.000107698056
0.000109998502
0.000110354413
0.000110093166
0.000110308784
0.000108619064
0.00010739771
0.000106043382
0.000107639835
0.000110155301
0.000108379442
0.000106841796
0.00010770388
0.000110227891
0.000108459474
0.000106814694
0.000107721603
0.000110269825
0.000108497111
0.000106777697
0.000107738192
0.000110302668
0.000108553458
0.000107317991
0.00010675236
0.000106260144
0.000107679989
0.000110238214
0.00011049298
0.000108443282
0.000107212174
0.000105855938
0.000107670315
0.000110343682
0.00011038923
0.000110197394
0.000108518296
0.000106808866
0.000106416644
0.000105956962
0.000107694234
0.000110457171
0.000110459444
0.00010810058
0.000106978321
0.000105947947
0.000107645569
0.000110390135
0.00011049829
0.000110263117
0.00011040796
0.000108251125
0.000106689761
0.000105712155
0.000107793607
0.000110261689
0.000109541948
0.000106404165
0.000107829102
0.000110361057
0.000110365008
0.000108147827
0.000106972821
0.000106243134
0.000107785389
0.000110271482
0.000110356619
0.000106602463
0.000106419486
0.000106807007
0.000107961863
0.000110308113
0.00011015422
0.000107092093
0.000108026163
0.000110329521
0.000110235412
0.000106883274
0.000105953624
0.000107872389
0.000110210553
0.000110254655
0.000106905861
0.000107832735
0.000110322887
0.000110297351
0.000106620214
0.000106229997
0.000107142457
0.000106594997
0.000107796739
0.000110264501
0.000110349858
0.000110246514
0.000110356975
0.000106601615
0.000106186637
0.000106660853
0.000107785069
0.000110117462
0.00011037145
0.000109482189
0.000107070832
0.000107388666
0.000110422372
0.000110176229
0.000106627597
0.00010717054
0.000110392253
0.000110178432
0.000106550081
0.000107300088
0.000110323322
0.000110220952
0.000105933188
0.000105931419
0.00010681233
0.000106923931
0.000106859802
0.000107919214
0.000110316927
0.000110215293
0.000110312645
0.000110144857
0.000110288452
0.000110075421
0.000105906768
0.000105257919
0.000107944734
0.000110137482
0.000107760209
0.000107880963
0.000110401952
0.000109351572
0.000106553076
0.000107516375
0.000110363584
0.000109944192
0.000106405039
0.000107504319
0.000110304855
0.000109849682
0.000105732743
0.000105672237
0.00010682298
0.000106670222
0.000107823971
0.000110122322
0.00011029134
0.000109976032
0.000110215713
0.000109684591
0.000105715548
0.00010565907
0.000106835697
0.000107991181
0.000110267727
0.000109819389
0.000106626499
0.000107831714
0.000110274422
0.000109807628
0.000106558182
0.000107658189
0.000110264909
0.000109869196
0.000105750777
0.000105705042
0.000107094146
0.000107980827
0.000110389026
0.000110177249
0.000110404743
0.000110074099
0.000107242961
0.000106217299
0.000106972476
0.000106492421
0.000107779458
0.000110298159
0.000110110118
0.000105749632
0.000105725992
0.000107293772
0.000107943239
0.000110313028
0.000110402195
0.000110205847
0.000110457096
0.000110107671
0.000107701591
0.000106132484
0.000107016706
0.00010663725
0.000107807691
0.000110229727
0.000110159113
0.000105859273
0.000105829263
0.00010714605
0.000107991149
0.000110203205
0.000110013386
0.000110170212
0.00011000794
0.000105055412
0.000105005348
0.000106829108
0.00010717168
0.000108485157
0.000110155754
0.000110267496
0.000110145504
0.000110298002
0.000110158541
0.000106859446
0.000106257388
0.000110210674
0.000110178835
0.000106236361
0.000105956015
0.000106790843
0.000106721922
0.000107218956
0.000108076148
0.000110342462
0.000110373514
0.000110309307
0.000110382808
0.000110303372
0.000106407565
0.000105885739
0.000106962137
0.000106904152
0.000107887634
0.000110310091
0.000110385482
0.000110319764
0.000106804491
0.00010619669
0.000107100951
0.000106725962
0.000107954389
0.000110252143
0.000110297702
0.000110221363
0.000110294131
0.00010528155
0.000105280368
0.000106808335
0.000107897787
0.000110214305
0.000110223256
0.000110223584
0.000110241909
0.000105381445
0.000104626356
0.000107800306
0.000110133452
0.000110431046
0.000106189556
0.00010709636
0.000110177157
0.000110321805
0.000105621611
0.00010558085
0.000106956963
0.000108394206
0.000110258095
0.000110120548
0.000110353167
0.000106578391
0.000107451013
0.00011025154
0.000110194388
0.000110319627
0.000105710034
0.000105569174
0.000106807795
0.000107835669
0.000110145197
0.000110410562
0.000105755486
0.000105684432
0.000105960339
0.000107149309
0.000110148768
0.000110340137
0.000110215065
0.000110351573
0.000110310378
0.0001071217
0.000107367658
0.000110391583
0.000110367062
0.000106863767
0.000106859729
0.000107230285
0.000107726839
0.000110416694
0.000110562326
0.000107230724
0.000107720895
0.00011039103
0.000110440532
0.000106784361
0.000106583477
0.000107234731
0.000106803168
0.000107742501
0.00011026349
0.000110415744
0.000106227343
0.000105611462
0.000107841314
0.000110229855
0.000110341091
0.000106004344
0.000105699966
0.00010679241
0.000106346412
0.000107666694
0.000110145643
0.000110292451
0.000110266248
0.000110325737
0.000110324468
0.00011033917
0.000108330393
0.000106244534
0.000106287056
0.000106883786
0.000107796086
0.000110286556
0.000110398063
0.000110402136
0.000110401256
0.000107708821
0.000106320683
0.000107252376
0.000106423699
0.000107288554
0.000110042107
0.000110395068
0.000106134962
0.000105496699
0.000109804269
0.000110270315
0.000110114018
0.000110296308
0.000110322002
0.000110329634
0.000107719936
0.000105811571
0.00010662157
0.000106428624
0.000106950559
0.000106877464
0.000107748147
0.000110282818
0.000110444613
0.000107776622
0.000107636506
0.000107775169
0.000107706029
0.000107794622
0.000107360641
0.000107744434
0.000110205996
0.000110151107
0.000106610558
0.000106564759
0.000110260018
0.000110280248
0.000110000236
0.000110233755
0.000109729388
0.000106574502
0.000106791226
0.00011032523
0.000109740305
0.000106031325
0.000104652957
0.000107215094
0.000110302151
0.000110308972
0.000110148496
0.000110292597
0.000109977951
0.000110312055
0.000109794594
0.000106891579
0.000106179623
0.000106804737
0.000106610992
0.000107026305
0.000106907777
0.000107822831
0.000110283973
0.00010987772
0.000107385272
0.000108042219
0.000110338855
0.000109857381
0.000107014607
0.000107918643
0.00011031862
0.000109872559
0.000106779956
0.000107706075
0.000110313814
0.000109881245
0.000106479629
0.000107599233
0.000110279714
0.000109958952
0.000105379242
0.000105338119
0.000106335168
0.000106360793
0.000106759182
0.000107036263
0.000106958542
0.000107820535
0.00011032064
0.000110325237
0.000110295894
0.000110251231
0.000110256556
0.000110153838
0.000110226047
0.000110077144
0.000110186487
0.000110112549
0.000105165371
0.000105036565
0.000105955231
0.000106035502
0.0001057499
0.00010733898
0.000110255697
0.000110321932
0.000110103032
0.000110242269
0.000110106376
0.000106316487
0.000105908353
0.000106399348
0.000107846824
0.000110309112
0.00011035571
0.000110258673
0.000110303488
0.000110222266
0.000106247462
0.000106235901
0.000106811137
0.000107872402
0.000110311916
0.000110304265
0.000106068684
0.000105895985
0.000107780249
0.000110301268
0.000110446211
0.000106631107
0.000107194514
0.000110357499
0.000110336642
0.000106356518
0.000106344485
0.000107194
0.000107863379
0.000110359447
0.000110345679
0.000107065149
0.000106172787
0.000107761572
0.000110317293
0.000110382858
0.000110295427
0.000110335634
0.000106235024
0.000105739487
0.000106881302
0.000106095414
0.000107801668
0.000110332513
0.00011035049
0.000110358202
0.000106964656
0.000107702803
0.000110357475
0.000110271519
0.000110314306
0.000106507382
0.000106425955
0.000106929186
0.00010780594
0.000110305007
0.000110310222
0.000106146489
0.000105942454
0.00010779919
0.000110299519
0.000110315783
0.000106137466
0.00010614019
0.0001070665
0.000106902511
0.000107771359
0.000110291399
0.000110399149
0.000107075963
0.000107772751
0.000110329056
0.000110359045
0.000110254183
0.000106117177
0.000105533085
0.000107452027
0.000108824625
0.000110198729
0.000110026268
0.000106634135
0.000106985177
0.000110192877
0.000110131968
0.000110067647
0.000110084044
0.000105697034
0.000105698929
0.000106720725
0.000106223959
0.000107791391
0.000110299838
0.000110370559
0.000110229528
0.000110322619
0.000110173479
0.000105543983
0.000105534331
0.000106083656
0.000107853794
0.000110293029
0.000110223195
0.000110278012
0.000110138387
0.000105586517
0.000105554673
0.000106747101
0.000106472654
0.000107787927
0.000110279902
0.000110359619
0.000110225174
0.000110325353
0.000110170629
0.000106310776
0.000105708359
0.000107807285
0.00011020411
0.000110226157
0.000105864061
0.000105861275
0.000107888744
0.000110277943
0.00011023022
0.00010640185
0.000107180226
0.000110305011
0.000110213566
0.000106442877
0.000106966701
0.000110302391
0.000110225569
0.000106369761
0.000107057568
0.000110272486
0.000110294692
0.000106066019
0.000107784954
0.000110244339
0.000107724508
0.000105760858
0.000106803457
0.000106244462
0.000106982937
0.000106592499
0.000107776805
0.000110301384
0.000110295344
0.000110305312
0.000110204586
0.000110286017
0.000110162522
0.000106778854
0.000107096356
0.000110259812
0.000110181435
0.000106478612
0.000107900699
0.000110206839
0.000110241251
0.000110181706
0.000105978808
0.000105973247
0.000106544904
0.000107841233
0.000110258478
0.000110288862
0.000110202702
0.000106503418
0.000106499196
0.00010699373
0.00010786779
0.000110297666
0.000110156204
0.000106042284
0.000106003172
0.000107851324
0.000110237744
0.000110213942
0.000105936001
0.000106118262
0.000106452672
0.000107825339
0.000110309028
0.000110362027
0.000110212553
0.000110335086
0.000110116246
0.000106812928
0.000106939356
0.000110337839
0.000110065736
0.00010596947
0.000105917023