/*--------------------------------*- C++ -*----------------------------------*\
| =========                 |                                                 |
| \\      /  F ield         | OpenFOAM: The Open Source CFD Toolbox           |
|  \\    /   O peration     | Version:  2306                                  |
|   \\  /    A nd           | Website:  www.openfoam.com                      |
|    \\/     M anipulation  |                                                 |
\*---------------------------------------------------------------------------*/
FoamFile
{
    version     2.0;
    format      ascii;
    arch        "LSB;label=32;scalar=64";
    class       volScalarField;
    location    "0.0004";
    object      Z;
}
// * * * * * * * * * * * * * * * * * * * * * * * * * * * * * * * * * * * * * //

dimensions      [0 0 0 0 0 0 0];

internalField   nonuniform List<scalar> 
531
(
0.0141081802
0.0140846248
0.0148374867
0.0148698358
0.0141097195
0.0140803138
0.014756648
0.0147533696
0.0140948742
0.0145841481
0.0148508519
0.0140896889
0.014083554
0.0147392065
0.0148188943
0.0140865395
0.01408426
0.0145871345
0.0148335481
0.0148229991
0.014091729
0.0140790974
0.0147510569
0.0148253844
0.0140960182
0.0140802838
0.0147583022
0.0148207912
0.0140888233
0.0140843607
0.0145822228
0.0148320844
0.0148262057
0.0140877991
0.0140804345
0.0147296393
0.0148134693
0.0140852134
0.0140832823
0.0145701799
0.014825529
0.0148154955
0.0140910901
0.014079034
0.0147546665
0.0148236645
0.0140974495
0.0140810021
0.0147701257
0.0148258426
0.0140898567
0.0140853243
0.0145645264
0.0148278604
0.0148208154
0.0140929467
0.0140801253
0.0147555828
0.0148254765
0.0140988761
0.0140804229
0.0147601171
0.0148249889
0.0140919478
0.0140839925
0.0145709367
0.0148271453
0.0148209246
0.0140921944
0.0140779409
0.0147419342
0.0148201146
0.0141002719
0.0140781066
0.0147498522
0.0148136406
0.0140955018
0.0140834275
0.0145093423
0.0148418686
0.0148382215
0.0140925175
0.0140789775
0.014723943
0.0148080645
0.0140956412
0.0140820129
0.0145095545
0.0148272796
0.0148224212
0.0140957919
0.0140769944
0.014719203
0.0148077467
0.0140968722
0.0140792465
0.014515531
0.014814798
0.0148139267
0.0140922819
0.0140783753
0.0145492703
0.0147987032
0.0147888312
0.0140847771
0.014075178
0.0145640546
0.0148069242
0.0148069188
0.0140945093
0.0140795451
0.0145018123
0.0148044024
0.0148008089
0.0140896371
0.0140746142
0.0147193443
0.0148150556
0.014097797
0.0140787374
0.0145598016
0.0148133104
0.0147737607
0.0140909292
0.0140709605
0.0147183261
0.0148177045
0.0140995698
0.0140817496
0.0145494622
0.0148197049
0.0146362866
0.0141014241
0.0143780206
0.0147310248
0.014459366
0.0143078036
0.0147137385
0.0147722042
0.0141166179
0.0140760018
0.014747001
0.0148233009
0.0141248689
0.0140798693
0.0147476583
0.0148226534
0.0141205066
0.0140848739
0.0144686291
0.0148283158
0.0148203173
0.0141249528
0.014080605
0.014707306
0.014811134
0.014124095
0.0140838762
0.0144884895
0.0148260192
0.0148174013
0.0141330715
0.0140801009
0.0147050948
0.0148142032
0.0141356115
0.014083224
0.0144511626
0.0148267591
0.0148212213
0.0141429519
0.0140839599
0.0144431343
0.0148106901
0.0148049957
0.0141459924
0.0140838101
0.0144886745
0.014808923
0.0147824795
0.0141191261
0.0140732443
0.0147008674
0.0148284579
0.0141707289
0.0140849534
0.0146985114
0.014816343
0.0141713283
0.0140914724
0.0144326674
0.0148273035
0.0148187898
0.0142026788
0.0140865456
0.0146809749
0.0148178997
0.0142024331
0.0140871379
0.0146836639
0.0148213666
0.0141976845
0.014090465
0.0144503419
0.0148165667
0.0148086611
0.0142034058
0.0140835459
0.0146444211
0.0148033607
0.0141920428
0.014086004
0.0144407476
0.0148093549
0.0148011261
0.0141789954
0.0140769594
0.0146447577
0.0147928225
0.0141931317
0.0140736004
0.0144166517
0.0147077724
0.0147016429
0.0143846529
0.0144317645
0.0146485441
0.0144559193
0.0142164423
0.0146329724
0.0147882883
0.0142020362
0.014082388
0.0146497816
0.0148029976
0.014208382
0.0140866009
0.0144480196
0.0148068241
0.0148046221
0.0141252477
0.0140923884
0.0147145982
0.0148264542
0.0142419333
0.0140921118
0.0146560785
0.0148407315
0.0142939327
0.0140924264
0.0146379283
0.0148237027
0.014242592
0.0140875517
0.0146576115
0.0148107134
0.0142092476
0.0140879169
0.0143948943
0.0148097288
0.0148059246
0.0142289449
0.0140863116
0.0146579381
0.0148061708
0.0141843782
0.0140869163
0.0143846996
0.0148148289
0.0148098728
0.0142179135
0.0140857802
0.0146781052
0.0148030088
0.0141586994
0.0140849445
0.0144071859
0.014821205
0.0147985821
0.0141550394
0.0140851706
0.0145262935
0.0148111663
0.0147132732
0.0140877864
0.0141035271
0.0147110878
0.0147874313
0.0144280924
0.0141465344
0.0143693859
0.0146569815
0.0147221068
0.0146131376
0.0141041335
0.0141055346
0.0148117625
0.0148173148
0.0142018792
0.0140831905
0.0147111917
0.0148179474
0.0141481594
0.0140855738
0.0144857877
0.0148199891
0.0147988883
0.0141002478
0.0140779665
0.014724249
0.0148243406
0.0141312408
0.0140843516
0.0144861849
0.0148148521
0.0147973524
0.014096018
0.0140767409
0.0147216335
0.0148206894
0.0141230619
0.0140839823
0.0144647722
0.0148197445
0.0148096905
0.0140948759
0.0140779388
0.0145709266
0.0147868574
0.0145806635
0.0141737566
0.0142962304
0.0146394038
0.0146526636
0.0145231773
0.0142752805
0.0142843411
0.0145578331
0.014739899
0.0145884962
0.0141144173
0.0141823489
0.0148129354
0.0148114643
0.0141261585
0.0140782104
0.014739125
0.014816778
0.0141313647
0.0140831365
0.0145173382
0.0148088045
0.0147695273
0.0141036773
0.0140748346
0.0147395934
0.0148256096
0.0141330129
0.0140829124
0.0145172884
0.0148034577
0.0147234366
0.0140946582
0.0140908255
0.0147115733
0.0147002786
0.0143127499
0.0143945247
0.0147491562
0.0145759408
0.0140935838
0.0145782978
0.0148203822
0.0141364766
0.0140861394
0.014424109
0.0148131352
0.0148111282
0.0141139233
0.0140810844
0.0144894276
0.014808441
0.0147902746
0.0140913724
0.0140781081
0.0145231909
0.0148247231
0.0147552586
0.0140933246
0.0140722424
0.0146635843
0.0148307048
0.0144206488
0.0140957126
0.0142263655
0.0148239598
0.0148323648
0.0141186303
0.0140817775
0.0146211369
0.0148141331
0.0144407642
0.0140912067
0.0142568635
0.0148063008
0.0148189406
0.014113522
0.0140800321
0.0146002227
0.0148176498
0.0144957732
0.0140938932
0.0141936926
0.014801842
0.0148270678
0.0141190553
0.0140795514
0.014607377
0.0147854046
0.014523573
0.0141880135
0.0143737034
0.0146617341
0.0145649397
0.0143666721
0.0143797572
0.0145231516
0.0145211269
0.0144356987
0.0144303801
0.0144731966
0.0144800126
0.0144528846
0.0144481249
0.0144770094
0.0144837673
0.0144382132
0.0144220608
0.0144868399
0.0145411195
0.0144540862
0.014346002
0.0144240234
0.0146590791
0.0146290055
0.0142143928
0.014197565
0.0147388232
0.0147793182
0.0141799272
0.0140822961
0.0145896955
0.0148168451
0.0145384525
0.014101713
0.014255645
0.0148031194
0.0147899881
0.0141113251
0.0140770762
0.0147529433
0.0148328372
0.0141331831
0.014084342
0.0145998377
0.0148200302
0.0145289574
0.0141002937
0.0142543944
0.0148051424
0.014800555
0.0141092892
0.0140778015
0.0147482902
0.0148253823
0.0141286876
0.0140855801
0.014541409
0.0148224814
0.0147005708
0.0141091235
0.0140890513
0.01477981
0.014842415
0.0141473543
0.0140867206
0.0147467127
0.014820767
0.0141378016
0.0140873548
0.0144933168
0.0148292157
0.014828536
0.0141168737
0.0140834929
0.0144861992
0.0148180605
0.0147994771
0.0141005268
0.0140776218
0.0144918308
0.0148151238
0.0147942293
0.0140992481
0.0140759638
0.0144880609
0.0148101059
0.0147866014
0.014098219
0.014075599
0.0144884677
0.0148159173
0.0147988491
0.0140976055
0.0140739077
0.0145403939
0.0148043968
0.014696655
0.0140954744
0.0140681069
0.014476805
0.0148256979
0.0148253335
0.0141008691
0.0140722911
0.0146082302
0.014806617
0.0145410191
0.0140951601
0.0140546074
0.0143544324
)
;

boundaryField
{
    closed
    {
        type            zeroGradient;
    }
    open
    {
        type            zeroGradient;
    }
    sides
    {
        type            empty;
    }
    procBoundary1to0
    {
        type            processor;
        value           uniform 0.0148549808;
    }
    procBoundary1to2
    {
        type            processor;
        value           uniform 0.0146063086;
    }
}


// ************************************************************************* //
