/*--------------------------------*- C++ -*----------------------------------*\
| =========                 |                                                 |
| \\      /  F ield         | OpenFOAM: The Open Source CFD Toolbox           |
|  \\    /   O peration     | Version:  2306                                  |
|   \\  /    A nd           | Website:  www.openfoam.com                      |
|    \\/     M anipulation  |                                                 |
\*---------------------------------------------------------------------------*/
FoamFile
{
    version     2.0;
    format      ascii;
    arch        "LSB;label=32;scalar=64";
    class       volScalarField;
    location    "0.00048";
    object      prefDZ_H2O;
}
// * * * * * * * * * * * * * * * * * * * * * * * * * * * * * * * * * * * * * //

dimensions      [1 -1 -1 0 0 0 0];

internalField   nonuniform List<scalar> 
531
(
-7.74585754e-07
-7.76193037e-07
-7.35889815e-07
-7.36631871e-07
-7.75752169e-07
-7.76526245e-07
-7.35782713e-07
-7.37031975e-07
-7.75754821e-07
-7.76628908e-07
-7.35689853e-07
-7.36934385e-07
-7.75746436e-07
-7.76735588e-07
-7.35567863e-07
-7.366082e-07
-7.75344315e-07
-7.75988731e-07
-7.36282553e-07
-7.38267953e-07
-7.74424078e-07
-7.74192877e-07
-7.38336936e-07
-7.36135958e-07
-7.48783311e-07
-7.7393087e-07
-7.73712316e-07
-7.45170112e-07
-7.37230165e-07
-7.37370593e-07
-7.36257361e-07
-7.44312847e-07
-7.74149645e-07
-7.73967687e-07
-7.4034081e-07
-7.35869945e-07
-7.453104e-07
-7.74802192e-07
-7.73673658e-07
-7.57312269e-07
-7.36185373e-07
-7.33904171e-07
-7.36620072e-07
-7.76112831e-07
-7.76350047e-07
-7.36339008e-07
-7.38701079e-07
-7.75506643e-07
-7.66850725e-07
-7.35978608e-07
-7.4573043e-07
-7.75166478e-07
-7.59517342e-07
-7.36346134e-07
-7.44150313e-07
-7.74399531e-07
-7.74325032e-07
-7.37878208e-07
-7.34156572e-07
-7.51007124e-07
-7.75568297e-07
-7.52280085e-07
-7.35770479e-07
-7.46516526e-07
-7.74447758e-07
-7.74269179e-07
-7.37886671e-07
-7.34741926e-07
-7.45737447e-07
-7.7488886e-07
-7.74211901e-07
-7.37261154e-07
-7.35532842e-07
-7.508755e-07
-7.74015961e-07
-7.74180916e-07
-7.43077156e-07
-7.3489843e-07
-7.34479363e-07
-7.54983465e-07
-7.75723208e-07
-7.3925208e-07
-7.36480933e-07
-7.7065652e-07
-7.74241146e-07
-7.76050328e-07
-7.35702239e-07
-7.32975273e-07
-7.65186406e-07
-7.77173974e-07
-7.37436866e-07
-7.36776436e-07
-7.7449625e-07
-7.7509037e-07
-7.35310499e-07
-7.36044441e-07
-7.74433549e-07
-7.75352752e-07
-7.35205353e-07
-7.36359848e-07
-7.74282821e-07
-7.76494868e-07
-7.35561118e-07
-7.38621363e-07
-7.73627252e-07
-7.74332113e-07
-7.37802347e-07
-7.35911402e-07
-7.49904915e-07
-7.73443406e-07
-7.73893111e-07
-7.4245062e-07
-7.35969099e-07
-7.35147027e-07
-7.41322008e-07
-7.73872478e-07
-7.74480503e-07
-7.37017149e-07
-7.3495346e-07
-7.63646051e-07
-7.72572898e-07
-7.37470351e-07
-7.41973713e-07
-7.73063432e-07
-7.7469064e-07
-7.38628949e-07
-7.35368949e-07
-7.46131243e-07
-7.73780304e-07
-7.74756354e-07
-7.44541222e-07
-7.33512522e-07
-7.36127216e-07
-7.75475367e-07
-7.75285165e-07
-7.50956417e-07
-7.34106959e-07
-7.36675573e-07
-7.74888743e-07
-7.75309736e-07
-7.48936163e-07
-7.34420382e-07
-7.37229033e-07
-7.75383773e-07
-7.80465183e-07
-7.35837446e-07
-7.40558002e-07
-7.73985164e-07
-7.74707948e-07
-7.46576248e-07
-7.34466962e-07
-7.35665569e-07
-7.775434e-07
-7.75048403e-07
-7.56895102e-07
-7.34767804e-07
-7.36574457e-07
-7.75676642e-07
-7.76222846e-07
-7.35798352e-07
-7.4056069e-07
-7.74024801e-07
-7.74198534e-07
-7.5058508e-07
-7.35345251e-07
-7.35599996e-07
-7.58706384e-07
-7.74516785e-07
-7.75301771e-07
-7.3586835e-07
-7.34969516e-07
-7.56566165e-07
-7.74651587e-07
-7.78716899e-07
-7.36243693e-07
-7.35027274e-07
-7.56173013e-07
-7.74089321e-07
-7.77161963e-07
-7.38061545e-07
-7.3822544e-07
-7.52919867e-07
-7.46979338e-07
-7.37208314e-07
-7.47822608e-07
-7.76056297e-07
-7.72653616e-07
-7.79085939e-07
-7.39389701e-07
-7.38409499e-07
-7.46106951e-07
-7.43356821e-07
-7.37648649e-07
-7.46692625e-07
-7.75345708e-07
-7.72947417e-07
-7.71330299e-07
-7.3686646e-07
-7.34170466e-07
-7.47717906e-07
-7.74589432e-07
-7.77244338e-07
-7.375591e-07
-7.34593695e-07
-7.48445942e-07
-7.74554332e-07
-7.76825524e-07
-7.37919387e-07
-7.34806518e-07
-7.47692896e-07
-7.7468919e-07
-7.7681663e-07
-7.37869806e-07
-7.34524015e-07
-7.4720596e-07
-7.75524801e-07
-7.78458429e-07
-7.35896978e-07
-7.35368355e-07
-7.7852067e-07
-7.75287758e-07
-7.4600209e-07
-7.35318122e-07
-7.39389493e-07
-7.75888183e-07
-7.74984671e-07
-7.41489103e-07
-7.35195825e-07
-7.43013539e-07
-7.77464704e-07
-7.73063771e-07
-7.71183408e-07
-7.37743534e-07
-7.34706833e-07
-7.49693141e-07
-7.76095799e-07
-7.6622604e-07
-7.36927857e-07
-7.34039975e-07
-7.41347523e-07
-7.76993699e-07
-7.77934461e-07
-7.3717462e-07
-7.3717484e-07
-7.78609989e-07
-7.77830266e-07
-7.38162333e-07
-7.37914793e-07
-7.78113604e-07
-7.75137079e-07
-7.49442116e-07
-7.35500519e-07
-7.3768768e-07
-7.7822359e-07
-7.76813469e-07
-7.40028923e-07
-7.36521295e-07
-7.54256071e-07
-7.75609815e-07
-7.79585193e-07
-7.3801935e-07
-7.35360436e-07
-7.5282888e-07
-7.76750811e-07
-7.65504306e-07
-7.35948867e-07
-7.35993393e-07
-7.79665659e-07
-7.78353502e-07
-7.39170598e-07
-7.38228437e-07
-7.78709831e-07
-7.7485015e-07
-7.53217249e-07
-7.36920567e-07
-7.44928597e-07
-7.55660723e-07
-7.40890656e-07
-7.39304713e-07
-7.80208851e-07
-7.78378677e-07
-7.39192603e-07
-7.385807e-07
-7.80064673e-07
-7.75624945e-07
-7.49788956e-07
-7.36524134e-07
-7.38179924e-07
-7.80011101e-07
-7.74870512e-07
-7.53405943e-07
-7.37242352e-07
-7.44916479e-07
-7.53437135e-07
-7.40665663e-07
-7.3999869e-07
-7.79322063e-07
-7.77067255e-07
-7.43756388e-07
-7.37542067e-07
-7.497498e-07
-7.76472326e-07
-7.74598924e-07
-7.50796362e-07
-7.37910382e-07
-7.41970545e-07
-7.45187573e-07
-7.39817755e-07
-7.41593089e-07
-7.78399022e-07
-7.76872578e-07
-7.43153685e-07
-7.38121874e-07
-7.53069043e-07
-7.76205229e-07
-7.75002578e-07
-7.45468879e-07
-7.35521317e-07
-7.44582318e-07
-7.54078044e-07
-7.40945954e-07
-7.40220926e-07
-7.73151657e-07
-7.74399148e-07
-7.79069973e-07
-7.38041126e-07
-7.35807752e-07
-7.57264582e-07
-7.72994767e-07
-7.45320677e-07
-7.37721721e-07
-7.51663554e-07
-7.76550981e-07
-7.75537552e-07
-7.44771673e-07
-7.34654767e-07
-7.36975961e-07
-7.76387448e-07
-7.76405637e-07
-7.49891717e-07
-7.3721186e-07
-7.48017165e-07
-7.56403325e-07
-7.41456884e-07
-7.41122842e-07
-7.76636247e-07
-7.74059006e-07
-7.76087569e-07
-7.40852452e-07
-7.35029718e-07
-7.46702511e-07
-7.58233953e-07
-7.42339289e-07
-7.42212014e-07
-7.79015566e-07
-7.76884381e-07
-7.47338987e-07
-7.36552132e-07
-7.39374323e-07
-7.7889908e-07
-7.7577518e-07
-7.52734007e-07
-7.36619594e-07
-7.39216057e-07
-7.79479592e-07
-7.78228765e-07
-7.43173992e-07
-7.34866195e-07
-7.38219445e-07
-7.78321997e-07
-7.77371515e-07
-7.45802919e-07
-7.35871179e-07
-7.40627711e-07
-7.75264978e-07
-7.74126204e-07
-7.7844933e-07
-7.44814026e-07
-7.36142942e-07
-7.33933445e-07
-7.37722483e-07
-7.79886913e-07
-7.68807866e-07
-7.37032607e-07
-7.41972545e-07
-7.78833404e-07
-7.66151945e-07
-7.3683921e-07
-7.42164063e-07
-7.80330746e-07
-7.73934526e-07
-7.75008766e-07
-7.35529578e-07
-7.28731006e-07
-7.38451652e-07
-7.8216888e-07
-7.65275682e-07
-7.73306261e-07
-7.72659945e-07
-7.78307128e-07
-7.27473956e-07
-7.24522978e-07
-7.48803458e-07
-7.65643662e-07
-7.63118736e-07
-7.58694974e-07
-7.5709304e-07
-7.52650902e-07
-7.50420442e-07
-7.4689492e-07
-7.43983401e-07
-7.41253063e-07
-7.37742298e-07
-7.3575745e-07
-7.32875693e-07
-7.31365285e-07
-7.30487905e-07
-7.26267252e-07
-7.2250427e-07
-7.18086942e-07
-7.12370266e-07
-7.07905201e-07
-7.00553548e-07
-6.95902909e-07
-6.88621012e-07
-6.88394746e-07
-6.84622136e-07
-6.74347359e-07
-6.70846952e-07
-6.5151484e-07
-6.49012152e-07
-5.64165844e-07
-5.60728706e-07
-4.93728763e-07
-6.0646361e-07
-5.85586911e-07
-5.71019713e-07
-5.34117049e-07
-4.99441123e-07
-5.16612537e-07
-4.59000769e-07
-4.14472907e-07
-3.92941959e-07
-3.70354198e-07
-3.85913073e-07
-2.76357056e-07
-1.89061462e-07
-1.28535179e-07
-6.94851462e-08
-9.03934134e-09
5.6601881e-08
1.23025485e-07
1.97918405e-07
2.68875576e-07
3.43319299e-07
4.08218014e-07
4.73844945e-07
5.36783212e-07
5.85675262e-07
6.46606192e-07
7.01174768e-07
7.66735128e-07
8.19348011e-07
8.83076978e-07
9.33225445e-07
1.00223804e-06
1.04526397e-06
1.10869026e-06
1.14116905e-06
1.19890005e-06
1.22812126e-06
1.28119698e-06
1.28555601e-06
1.35885516e-06
1.43985558e-06
1.40408907e-06
1.46282495e-06
1.55374845e-06
1.54257705e-06
1.53514253e-06
1.56590333e-06
1.62660758e-06
1.70014951e-06
1.64586886e-06
1.61094315e-06
1.77105922e-06
1.86022887e-06
1.72391034e-06
1.6907592e-06
1.9130566e-06
1.98009137e-06
1.78828876e-06
1.79279664e-06
2.00488848e-06
1.99598275e-06
1.84869396e-06
1.85999305e-06
2.02542857e-06
2.01502057e-06
1.8945309e-06
1.91906874e-06
2.03803754e-06
2.03066453e-06
1.93003179e-06
1.95591755e-06
2.04894155e-06
2.04274185e-06
1.95534281e-06
1.97860653e-06
2.05715286e-06
2.0515384e-06
1.97499654e-06
1.9934582e-06
2.06126301e-06
2.05844111e-06
1.99087005e-06
2.00382567e-06
2.06481282e-06
2.06407538e-06
2.0033333e-06
2.01263208e-06
2.06876208e-06
2.06883376e-06
2.01269656e-06
2.02203063e-06
2.07343493e-06
2.07296947e-06
2.01902678e-06
2.03185777e-06
2.07878125e-06
2.07703817e-06
)
;

boundaryField
{
    closed
    {
        type            calculated;
        value           nonuniform List<scalar> 0();
    }
    open
    {
        type            calculated;
        value           nonuniform List<scalar> 0();
    }
    sides
    {
        type            empty;
    }
    procBoundary4to3
    {
        type            processor;
        value           uniform -7.50907567e-07;
    }
    procBoundary4to5
    {
        type            processor;
        value           uniform 2.02503627e-06;
    }
}


// ************************************************************************* //
