/*--------------------------------*- C++ -*----------------------------------*\
| =========                 |                                                 |
| \\      /  F ield         | OpenFOAM: The Open Source CFD Toolbox           |
|  \\    /   O peration     | Version:  2306                                  |
|   \\  /    A nd           | Website:  www.openfoam.com                      |
|    \\/     M anipulation  |                                                 |
\*---------------------------------------------------------------------------*/
FoamFile
{
    version     2.0;
    format      ascii;
    arch        "LSB;label=32;scalar=64";
    class       volScalarField;
    location    "0.00048";
    object      prefDZ_H;
}
// * * * * * * * * * * * * * * * * * * * * * * * * * * * * * * * * * * * * * //

dimensions      [1 -1 -1 0 0 0 0];

internalField   nonuniform List<scalar> 
531
(
0.000110225449
0.00011037676
0.000106749661
0.000106838996
0.000110201793
0.000110274943
0.000106702558
0.000106942997
0.000110191937
0.000110252011
0.000106673112
0.000106907042
0.000110205728
0.000110247527
0.000106652752
0.000106821253
0.000110280421
0.000110374267
0.000106948323
0.000107476896
0.000110380401
0.000110408484
0.000107657818
0.000106799021
0.000107800198
0.000110323214
0.000110399498
0.000107747263
0.000107167794
0.000107302531
0.000106863155
0.000107760792
0.00011035189
0.000110424649
0.000107746717
0.000106663168
0.000107750174
0.000110210454
0.00011035921
0.000108110734
0.000106819033
0.000105936827
0.000106911333
0.000110181662
0.000110371653
0.000106844604
0.000107621241
0.000110212805
0.000108661009
0.0001067328
0.000107759295
0.00011027208
0.000108194179
0.000106894857
0.000107761073
0.000110327097
0.000110410624
0.000107525335
0.000106062466
0.000107806123
0.000110248536
0.000107852297
0.000106665772
0.000107727843
0.000110300441
0.000110453899
0.000107498201
0.000106295545
0.000107740947
0.000110245234
0.000110478866
0.000107228278
0.000106597018
0.000107860367
0.00011026689
0.000110377282
0.00010784682
0.000106372141
0.000106202238
0.000107996331
0.000110347189
0.000107832973
0.000106858061
0.000108941156
0.000110206919
0.000110160527
0.000106621237
0.000105485918
0.000108546534
0.000110117097
0.000107244561
0.000106860307
0.000110365262
0.000110316127
0.000106539526
0.000106710455
0.000110351898
0.000110295802
0.00010649701
0.000106791099
0.00011037731
0.000110291699
0.000106658409
0.000107646027
0.000110434964
0.000110355728
0.000107436123
0.000106738478
0.000107820172
0.000110348483
0.000110382826
0.000107822622
0.000106819841
0.00010650124
0.000107752377
0.000110414129
0.000110321068
0.00010712416
0.000106349978
0.000108443637
0.000109098353
0.000107336391
0.00010782403
0.000110518298
0.00011032737
0.000107763118
0.000106543487
0.000107768676
0.000110378748
0.000110207671
0.000107789765
0.000105806885
0.000106856011
0.00011038062
0.000110147554
0.000107873318
0.000106030843
0.000107019435
0.000110436736
0.00011015194
0.000107826071
0.000106109646
0.00010711445
0.000110287968
0.000109782424
0.000106666662
0.000107929481
0.000110403642
0.00011022479
0.000107780483
0.000106113438
0.000106677067
0.000109507741
0.000110175671
0.000108089778
0.000106235168
0.000106876138
0.00011028961
0.000109402896
0.00010663599
0.000107862491
0.000110406913
0.000110327309
0.000107849775
0.000106545156
0.000106634567
0.000108168287
0.000110283789
0.000109312766
0.000106715343
0.000106265122
0.000108060845
0.000110246239
0.000109616644
0.000106841224
0.00010630407
0.000108040852
0.000110324864
0.000110215218
0.000107507034
0.000107471382
0.000107902943
0.000107737217
0.000107155245
0.00010767242
0.00011013816
0.000110571675
0.000109910441
0.000107701746
0.000107466368
0.000107756555
0.000107755451
0.00010732552
0.000107682706
0.000110255388
0.000110521829
0.000108989772
0.00010719566
0.000105996746
0.000107782348
0.00011031214
0.000110168158
0.000107349591
0.000106098154
0.000107803342
0.000110287617
0.000110206037
0.000107476126
0.000106173891
0.000107793355
0.000110281427
0.00011019532
0.000107474116
0.000106042569
0.00010777906
0.00011013393
0.000109992487
0.00010658866
0.000106372463
0.000110119681
0.000110237745
0.000107802017
0.000106387361
0.000107848295
0.000110236503
0.000110331823
0.000107752307
0.000106285567
0.000107696449
0.000109957414
0.000110466235
0.000108963628
0.000107500319
0.000106127437
0.000107776107
0.000110175927
0.000108616883
0.000107104648
0.000105929276
0.000107834315
0.000110040087
0.000110042504
0.000107043392
0.000106968314
0.000109935901
0.000110078192
0.000107397382
0.00010727836
0.000110013524
0.000110253524
0.000107834857
0.000106398307
0.000107269445
0.000109963086
0.000110165779
0.000107851311
0.000106782598
0.000107939129
0.000110171828
0.000109704508
0.000107528044
0.000106328693
0.000107857159
0.000110055349
0.000108568107
0.000106566846
0.000106589428
0.000109820722
0.000110009024
0.000107710253
0.00010741283
0.000109614372
0.000110311324
0.000107932948
0.000107094372
0.000107673477
0.00010800271
0.000107804206
0.000107838417
0.000109785741
0.000110050537
0.000107772034
0.000107580018
0.000109735066
0.000110242284
0.000107829313
0.000106730885
0.000107503786
0.000109718014
0.00011031436
0.000107940098
0.000107211565
0.000107655185
0.000107898205
0.000107769528
0.00010773042
0.000109877983
0.000110186534
0.000107754783
0.000107183133
0.000107779343
0.000110102473
0.000110337862
0.000107808001
0.000107447901
0.000107688785
0.000107734208
0.000107824107
0.00010770975
0.00010996824
0.000110201345
0.000107748596
0.000107403881
0.00010788935
0.00011012277
0.000110235404
0.000107685366
0.000106549767
0.000107622044
0.000107924906
0.000107771776
0.000107656194
0.00010914459
0.000110408174
0.000109715819
0.000107611261
0.000106543236
0.000108052095
0.000109127041
0.000107717406
0.000107261845
0.000107857737
0.000110069053
0.000110153917
0.000107696484
0.000106080638
0.000107070546
0.000109406432
0.000110142945
0.000107814821
0.000107113118
0.000107708253
0.000108034682
0.000107777731
0.000107644081
0.000109423556
0.000110411164
0.000110061834
0.000107630187
0.000106333293
0.000107631008
0.00010812478
0.000107746176
0.000107731183
0.000109834725
0.000110089766
0.00010776107
0.000106758799
0.000107811503
0.000109606107
0.000110200997
0.000107903072
0.000106833737
0.000107819201
0.000109663772
0.00010989548
0.000107700521
0.000106163722
0.000107573424
0.000109564298
0.000110021343
0.000107710053
0.000106514927
0.000107623556
0.000109285802
0.000110337107
0.000109715047
0.000107756767
0.000106800207
0.000106000707
0.000107520915
0.000109724362
0.000108806373
0.00010719081
0.000107513433
0.000110010129
0.000108611559
0.000107191488
0.000107364738
0.000109869264
0.000110787959
0.000110614314
0.000107044417
0.000104612872
0.000106821562
0.000110270053
0.00010852295
0.00010925965
0.000111031249
0.000110530241
0.000105496978
0.000104499841
0.00010690467
0.000110491577
0.000110583962
0.000110773056
0.000110784202
0.000110911731
0.00011089679
0.000111006566
0.000111064145
0.000111184406
0.00011139322
0.000111589812
0.000112051252
0.000112871529
0.000113490416
0.000112663377
0.000112057081
0.000111483035
0.000110914624
0.000110612746
0.000110272175
0.000110125927
0.000109654122
0.000109876153
0.000109517283
0.000108997115
0.000109116244
0.000108615803
0.000109020807
0.000112187074
0.00011809118
0.000125886711
0.000106897338
0.000106114281
0.00010516221
0.000116481367
0.000121778157
0.000121047489
0.00012658631
0.000130585784
0.000132491895
0.000131734145
0.000129854202
0.000146237956
0.000159607928
0.000167294432
0.000174042396
0.000180816407
0.000187624019
0.000194662566
0.000201809912
0.000208836212
0.000215207203
0.000221058229
0.000226130912
0.000231512894
0.000234841051
0.000239902423
0.000243613836
0.000249196027
0.000252666034
0.000258222967
0.000261535888
0.000267975097
0.000270650584
0.000276575631
0.000278103406
0.000283410353
0.000283742689
0.000289829853
0.000289243163
0.000294090065
0.000297648271
0.000299726181
0.000301124795
0.000306235597
0.000302423005
0.000308192683
0.000308682025
0.000309923838
0.000311999167
0.00031580521
0.000313585516
0.000319431967
0.00032291729
0.00032187135
0.000319871091
0.000327984884
0.000330641374
0.00032679541
0.000325626866
0.000334029695
0.000332055255
0.000330809638
0.000329940486
0.000336331246
0.00033484254
0.00033370551
0.000333763013
0.000338217302
0.000337157739
0.000335848478
0.000336275474
0.000339859524
0.000338964087
0.000337485476
0.000338003367
0.000341110408
0.000340293478
0.000338788659
0.00033927468
0.000341923171
0.00034134539
0.000339856833
0.000340245148
0.000342609882
0.000342207905
0.000340740649
0.000341048805
0.000343248328
0.000342940652
0.00034148633
0.0003417873
0.000343873105
0.000343579155
0.000342111035
0.000342514556
0.000344494876
0.000344206235
)
;

boundaryField
{
    closed
    {
        type            calculated;
        value           nonuniform List<scalar> 0();
    }
    open
    {
        type            calculated;
        value           nonuniform List<scalar> 0();
    }
    sides
    {
        type            empty;
    }
    procBoundary4to3
    {
        type            processor;
        value           uniform 0.000107867481;
    }
    procBoundary4to5
    {
        type            processor;
        value           uniform 0.000342683038;
    }
}


// ************************************************************************* //
