/*--------------------------------*- C++ -*----------------------------------*\
| =========                 |                                                 |
| \\      /  F ield         | OpenFOAM: The Open Source CFD Toolbox           |
|  \\    /   O peration     | Version:  2306                                  |
|   \\  /    A nd           | Website:  www.openfoam.com                      |
|    \\/     M anipulation  |                                                 |
\*---------------------------------------------------------------------------*/
FoamFile
{
    version     2.0;
    format      ascii;
    arch        "LSB;label=32;scalar=64";
    class       volScalarField;
    location    "0.00048";
    object      T;
}
// * * * * * * * * * * * * * * * * * * * * * * * * * * * * * * * * * * * * * //

dimensions      [0 0 0 1 0 0 0];

internalField   nonuniform List<scalar> 
531
(
339.656839
340.330353
324.855452
325.256029
339.630681
339.95598
324.669626
325.681275
339.592804
339.873211
324.551132
325.537845
339.645542
339.861836
324.464055
325.18741
339.911323
340.309372
325.633243
327.789755
340.245814
340.341295
328.468203
325.062208
329.321929
339.997488
340.279718
329.005614
326.539934
327.054959
325.312996
329.037383
340.120417
340.391107
328.868388
324.529807
329.021439
339.611081
340.122027
330.825589
325.141517
321.632305
325.525943
339.573106
340.319369
325.250994
328.368523
339.659476
333.32905
324.800293
329.070481
339.869213
331.223281
325.439537
329.034015
340.038697
340.356947
327.931558
322.126553
329.405315
339.800776
329.628919
324.530801
328.962824
339.938518
340.520887
327.831848
323.052511
328.995316
339.750122
340.614081
326.768245
324.25224
329.625711
339.78487
340.220181
329.355646
323.353602
322.679531
330.293559
340.190094
329.209001
325.314076
334.576806
339.566058
339.488097
324.357895
319.854163
332.817529
339.383065
326.845508
325.348669
340.19141
340.034946
324.017255
324.722406
340.136323
339.971145
323.848678
325.052482
340.225987
340.01889
324.484621
328.452842
340.411876
340.145438
327.593197
324.815548
329.434242
340.067714
340.225479
329.238839
325.124924
323.859432
328.919213
340.345168
340.019955
326.35733
323.275053
332.354429
335.269118
327.190441
329.23118
340.702063
340.056022
328.887158
324.037224
329.12005
340.203421
339.597779
329.162622
321.110357
325.27445
340.305313
339.395386
329.681271
322.003326
325.934946
340.489219
339.413677
329.432555
322.326047
326.3407
339.942643
338.275067
324.540044
329.62303
340.310989
339.661128
329.180788
322.344173
324.563771
337.076484
339.490636
330.728411
322.827593
325.390111
339.965303
336.611371
324.421628
329.348792
340.325833
340.028277
329.574344
324.041404
324.398835
331.097684
339.878113
336.220279
324.725116
322.957182
330.60004
339.740743
337.552118
325.229769
323.108635
330.507457
340.012727
339.760871
327.881851
327.765162
329.854744
329.013971
326.491088
328.770132
339.402148
340.885224
338.692241
328.657362
327.763948
329.069587
328.988839
327.167119
328.782048
339.814803
340.709195
334.79446
326.609135
321.879946
329.219646
339.991585
339.583914
327.248082
322.296916
329.325759
339.894985
339.706771
327.753174
322.599947
329.264234
339.878634
339.664935
327.740846
322.081492
329.192181
339.356202
338.97379
324.25254
323.394641
339.467669
339.743495
329.253431
323.446495
329.257443
339.772173
340.089623
328.923625
323.052973
328.73727
338.783473
340.501036
334.68728
327.825425
322.416603
329.247
339.550034
333.133699
326.276237
321.614772
329.255652
339.076068
339.137606
326.070057
325.788829
338.764042
339.269442
327.483444
327.016118
339.035795
339.79597
329.482358
323.503002
326.961795
338.847436
339.550809
329.287937
325.034779
330.038228
339.507141
337.926318
327.955651
323.229117
329.662953
339.121417
332.914763
324.174996
324.26369
338.378516
339.031734
328.745037
327.547266
337.542857
340.003001
329.986493
326.237237
328.695972
330.336494
329.119402
329.214598
338.273712
339.193186
328.97692
328.203562
338.072336
339.779813
329.468817
324.840841
327.881323
338.002666
340.015856
330.020902
326.704225
328.620513
329.848207
328.970996
328.791983
338.580194
339.644964
328.997245
326.626045
329.26184
339.287664
340.09139
329.407571
327.647471
328.676746
328.952492
329.170557
328.752122
338.877026
339.691285
328.955056
327.50387
329.802277
339.351081
339.718545
328.759628
324.074063
328.475237
329.974832
328.98811
328.494152
335.473742
340.351629
337.941396
328.265969
324.074204
330.579345
335.398803
328.887163
326.936597
329.635511
339.16315
339.434016
328.786128
322.235774
326.153459
336.631807
339.440056
329.411837
326.334148
328.92285
330.48715
329.026902
328.469781
336.709039
340.344157
339.109503
328.405268
323.218788
328.569682
330.904902
328.922351
328.857319
338.396538
339.261573
329.121836
324.948119
329.10638
337.517239
339.628889
329.850523
325.235228
329.133411
337.767617
338.587121
328.758437
322.566479
328.143768
337.329898
339.024779
328.870201
323.973123
328.371805
336.112784
340.062048
337.904039
329.034775
325.067273
321.875517
327.899519
338.023204
333.974148
326.607053
327.957622
339.062554
333.104354
326.591002
327.352541
338.602271
341.792372
341.181531
325.856485
316.226088
325.021634
340.248371
332.698383
335.920319
342.66055
341.0388
319.394763
315.454311
325.611329
340.181801
340.395457
340.8729
340.823948
341.058658
340.870712
341.085424
341.132783
341.429389
342.013213
342.640271
344.21322
347.224875
349.459852
345.940768
343.32288
340.795146
338.216741
336.764138
334.996403
334.15444
331.838634
332.492515
330.741722
328.050365
328.286569
325.281119
326.708155
335.006626
357.524179
385.005947
316.076471
311.762361
307.320317
348.940529
367.70891
365.120566
384.517661
398.577579
404.997359
400.077517
393.343601
456.242993
509.746162
541.401649
569.581491
598.724919
628.41152
660.097081
692.433078
725.279136
754.893373
783.057941
806.920855
833.38162
848.8814
874.171632
891.931724
920.702089
937.537925
966.918571
983.337617
1018.60402
1031.88602
1065.01592
1071.9377
1102.03253
1101.12599
1137.63159
1133.32879
1159.03691
1175.11308
1194.17177
1197.56619
1223.94133
1198.12472
1240.35858
1240.60399
1242.86907
1250.05643
1283.3576
1271.04835
1295.76262
1311.36413
1318.57658
1307.56422
1343.15159
1354.93964
1347.10703
1337.84736
1377.39681
1363.55849
1369.73807
1361.95375
1391.7252
1381.63189
1385.79516
1383.5474
1403.81702
1396.58575
1397.49969
1397.92849
1414.29635
1408.19434
1406.60179
1408.00997
1422.23707
1416.66645
1413.86465
1415.52164
1427.41362
1423.32373
1419.79069
1421.2744
1431.75854
1428.74082
1424.71276
1425.97344
1435.7467
1433.34191
1428.95335
1430.1417
1439.57845
1437.34289
1432.63596
1434.19764
1443.32866
1441.28104
)
;

boundaryField
{
    closed
    {
        type            fixedValue;
        value           nonuniform List<scalar> 0();
    }
    open
    {
        type            zeroGradient;
    }
    sides
    {
        type            empty;
    }
    procBoundary4to3
    {
        type            processor;
        value           uniform 329.655901;
    }
    procBoundary4to5
    {
        type            processor;
        value           uniform 1435.99834;
    }
}


// ************************************************************************* //
