/*--------------------------------*- C++ -*----------------------------------*\
| =========                 |                                                 |
| \\      /  F ield         | OpenFOAM: The Open Source CFD Toolbox           |
|  \\    /   O peration     | Version:  2306                                  |
|   \\  /    A nd           | Website:  www.openfoam.com                      |
|    \\/     M anipulation  |                                                 |
\*---------------------------------------------------------------------------*/
FoamFile
{
    version     2.0;
    format      ascii;
    arch        "LSB;label=32;scalar=64";
    class       volScalarField;
    location    "0.0001";
    object      H;
}
// * * * * * * * * * * * * * * * * * * * * * * * * * * * * * * * * * * * * * //

dimensions      [0 0 0 0 0 0 0];

internalField   nonuniform List<scalar> 
530
(
4.68835139e-07
2.40454846e-10
6.10071571e-07
1.60271854e-05
7.60052938e-07
3.68601637e-10
5.17720576e-07
1.2696307e-05
1.41335262e-06
5.56758757e-10
3.42257961e-07
9.66254064e-06
1.8265941e-06
7.83435548e-10
3.09315532e-07
7.91863807e-06
1.7223706e-06
1.04242878e-09
1.67635455e-07
6.97102148e-06
1.68431448e-06
1.40355746e-09
1.39121883e-08
6.10700346e-06
1.5073799e-06
1.85091969e-09
2.12831375e-09
5.24548998e-06
1.27348176e-06
2.41149325e-09
2.69232117e-09
4.08727218e-06
1.09337785e-06
3.0040019e-09
3.30641505e-09
3.1854921e-06
1.06800674e-06
3.68689363e-09
3.93489475e-09
2.34258628e-06
1.05017941e-06
4.31442344e-09
4.51062926e-09
1.68588815e-06
1.05309516e-06
4.93801289e-09
5.149757e-09
1.27724334e-06
1.03650223e-06
5.63722044e-09
5.81578284e-09
1.17600974e-06
9.89318848e-07
6.25284801e-09
6.398806e-09
1.07353085e-06
9.16557314e-07
6.78084193e-09
6.90265492e-09
9.53707645e-07
8.27918395e-07
7.22947361e-09
7.33066996e-09
8.10921874e-07
7.25776829e-07
7.60841655e-09
7.68856136e-09
6.56718104e-07
6.17861264e-07
7.92679212e-09
7.99398296e-09
5.14888066e-07
5.12584434e-07
8.21151478e-09
8.25842927e-09
3.95271277e-07
4.13904013e-07
8.43419592e-09
8.4653086e-09
2.98820006e-07
3.25795573e-07
8.60401248e-09
8.6238883e-09
2.22771927e-07
2.50279287e-07
8.73098483e-09
8.74280947e-09
1.62674394e-07
1.88236012e-07
8.82394595e-09
8.8304864e-09
1.15870573e-07
1.38155437e-07
8.89080542e-09
8.89396348e-09
8.01098276e-08
9.83365673e-08
8.93795275e-09
8.9392032e-09
5.32459158e-08
6.74726478e-08
8.97055881e-09
8.9708954e-09
3.37360251e-08
4.40318913e-08
8.9926472e-09
8.99261065e-09
1.99660169e-08
2.70940508e-08
9.00699923e-09
9.00703176e-09
1.10755886e-08
1.5575853e-08
9.01518432e-09
9.01615845e-09
9.01754933e-09
9.01989384e-09
9.01946779e-09
9.02055407e-09
9.02111577e-09
9.02200325e-09
9.0224831e-09
9.02312859e-09
9.02359301e-09
9.02409239e-09
9.02448307e-09
9.02486597e-09
9.02518641e-09
9.02548289e-09
9.02573735e-09
9.02596587e-09
9.02616487e-09
9.02634049e-09
9.02649403e-09
9.02662824e-09
9.02674546e-09
9.02684737e-09
9.02693599e-09
9.02701281e-09
9.02707917e-09
9.02713659e-09
9.0271858e-09
9.02722831e-09
9.02726442e-09
9.02729554e-09
9.02732173e-09
9.02734423e-09
9.02736297e-09
9.02737898e-09
9.02739218e-09
9.02740337e-09
9.02741247e-09
9.0274201e-09
9.02742624e-09
9.02743127e-09
9.02743526e-09
9.02743844e-09
9.02744091e-09
9.02744278e-09
9.0274442e-09
9.02744516e-09
9.02744585e-09
9.0274462e-09
9.02744643e-09
9.02744638e-09
9.02744631e-09
9.02744602e-09
9.02744577e-09
9.02744535e-09
9.02744501e-09
9.02744453e-09
9.02744415e-09
9.02744366e-09
9.02744328e-09
9.02744281e-09
9.02744245e-09
9.02744201e-09
9.02744168e-09
9.02744129e-09
9.02744101e-09
9.02744066e-09
9.02744042e-09
9.02744012e-09
9.02743991e-09
9.02743966e-09
9.02743949e-09
9.02743928e-09
9.02743913e-09
9.02743896e-09
9.02743884e-09
9.02743871e-09
9.02743861e-09
9.0274385e-09
9.02743842e-09
9.02743833e-09
9.02743827e-09
9.0274382e-09
9.02743815e-09
9.02743809e-09
9.02743805e-09
9.02743801e-09
9.02743798e-09
9.02743795e-09
9.02743792e-09
9.0274379e-09
9.02743788e-09
9.02743786e-09
9.02743785e-09
9.02743783e-09
9.02743782e-09
9.02743781e-09
9.0274378e-09
9.02743779e-09
9.02743779e-09
9.02743778e-09
9.02743778e-09
9.02743777e-09
9.02743777e-09
9.02743776e-09
9.02743776e-09
9.02743776e-09
9.02743776e-09
9.02743775e-09
9.02743775e-09
9.02743775e-09
9.02743775e-09
9.02743775e-09
9.02743775e-09
9.02743775e-09
9.02743775e-09
9.02743775e-09
9.02743775e-09
9.02743775e-09
9.02743775e-09
9.02743775e-09
9.02743775e-09
9.02743775e-09
9.02743775e-09
9.02743775e-09
9.02743775e-09
9.02743775e-09
9.02743775e-09
9.02743775e-09
9.02743775e-09
9.02743774e-09
9.02743774e-09
9.02743774e-09
9.02743774e-09
9.02743774e-09
9.02743774e-09
9.02743774e-09
9.02743774e-09
9.02743774e-09
9.02743774e-09
9.02743774e-09
9.02743774e-09
9.02743774e-09
9.02743774e-09
9.02743774e-09
9.02743774e-09
9.02743774e-09
9.02743774e-09
9.02743774e-09
9.02743774e-09
9.02743774e-09
9.02743774e-09
9.02743774e-09
9.02743774e-09
9.02743774e-09
9.02743774e-09
9.02743774e-09
9.02743774e-09
9.02743774e-09
9.02743774e-09
9.02743774e-09
9.02743774e-09
9.02743774e-09
9.02743774e-09
9.02743774e-09
9.02743774e-09
9.02743774e-09
9.02743774e-09
9.02743774e-09
9.02743774e-09
9.02743774e-09
9.02743774e-09
9.02743774e-09
9.02743774e-09
9.02743774e-09
9.02743774e-09
9.02743774e-09
9.02743774e-09
9.02743774e-09
9.02743774e-09
9.02743774e-09
9.02743774e-09
9.02743774e-09
9.02743774e-09
9.02743774e-09
9.02743774e-09
9.02743774e-09
9.02743774e-09
9.02743774e-09
9.02743774e-09
9.02743774e-09
9.02743774e-09
9.02743774e-09
9.02743774e-09
9.02743774e-09
9.02743774e-09
9.02743774e-09
9.02743774e-09
9.02743774e-09
9.02743774e-09
9.02743774e-09
9.02743774e-09
9.02743774e-09
9.02743774e-09
9.02743774e-09
9.02743774e-09
9.02743774e-09
9.02743774e-09
9.02743774e-09
9.02743774e-09
9.02743774e-09
9.02743774e-09
9.02743774e-09
9.02743774e-09
9.02743774e-09
9.02743774e-09
9.02743774e-09
9.02743774e-09
9.02743774e-09
9.02743774e-09
9.02743774e-09
9.02743774e-09
9.02743774e-09
9.02743774e-09
9.02743774e-09
9.02743774e-09
9.02743774e-09
9.02743774e-09
9.02743774e-09
9.02743774e-09
9.02743774e-09
9.02743774e-09
9.02743774e-09
9.02743774e-09
9.02743774e-09
9.02743774e-09
9.02743774e-09
9.02743774e-09
9.02743774e-09
9.02743774e-09
9.02743774e-09
9.02743774e-09
9.02743774e-09
9.02743774e-09
9.02743774e-09
9.02743774e-09
9.02743774e-09
9.02743774e-09
9.02743774e-09
9.02743774e-09
9.02743774e-09
9.02743774e-09
9.02743774e-09
9.02743774e-09
9.02743774e-09
9.02743774e-09
9.02743774e-09
9.02743774e-09
9.02743774e-09
9.02743774e-09
9.02743774e-09
9.02743774e-09
9.02743774e-09
9.02743774e-09
9.02743774e-09
9.02743774e-09
9.02743774e-09
9.02743774e-09
9.02743774e-09
9.02743774e-09
9.02743774e-09
9.02743774e-09
9.02743774e-09
9.02743774e-09
9.02743774e-09
9.02743774e-09
9.02743774e-09
9.02743774e-09
9.02743774e-09
9.02743774e-09
9.02743774e-09
9.02743774e-09
9.02743774e-09
9.02743774e-09
9.02743774e-09
9.02743774e-09
9.02743774e-09
9.02743774e-09
9.02743774e-09
9.02743774e-09
9.02743774e-09
9.02743774e-09
9.02743774e-09
9.02743774e-09
9.02743774e-09
9.02743774e-09
9.02743774e-09
9.02743774e-09
9.02743774e-09
9.02743774e-09
9.02743774e-09
9.02743774e-09
9.02743774e-09
9.02743774e-09
9.02743774e-09
9.02743774e-09
9.02743774e-09
9.02743774e-09
9.02743774e-09
9.02743774e-09
9.02743774e-09
9.02743774e-09
9.02743774e-09
9.02743774e-09
9.02743774e-09
9.02743774e-09
9.02743774e-09
9.02743774e-09
9.02743774e-09
9.02743774e-09
9.02743774e-09
9.02743774e-09
9.02743774e-09
9.02743774e-09
9.02743774e-09
9.02743774e-09
9.02743774e-09
9.02743774e-09
9.02743774e-09
9.02743774e-09
9.02743774e-09
9.02743774e-09
9.02743774e-09
9.02743774e-09
9.02743774e-09
9.02743774e-09
9.02743774e-09
9.02743774e-09
9.02743774e-09
9.02743774e-09
9.02743774e-09
9.02743774e-09
9.02743774e-09
9.02743774e-09
9.02743774e-09
9.02743774e-09
9.02743774e-09
9.02743774e-09
9.02743774e-09
9.02743774e-09
9.02743774e-09
9.02743774e-09
9.02743774e-09
9.02743774e-09
9.02743774e-09
9.02743774e-09
9.02743774e-09
9.02743774e-09
9.02743774e-09
9.02743774e-09
9.02743774e-09
9.02743774e-09
9.02743774e-09
9.02743774e-09
9.02743774e-09
9.02743774e-09
9.02743774e-09
9.02743774e-09
9.02743774e-09
9.02743774e-09
9.02743774e-09
9.02743774e-09
9.02743774e-09
9.02743774e-09
9.02743774e-09
9.02743774e-09
9.02743774e-09
9.02743774e-09
9.02743774e-09
9.02743774e-09
9.02743774e-09
9.02743774e-09
9.02743774e-09
9.02743774e-09
9.02743774e-09
9.02743774e-09
9.02743774e-09
9.02743774e-09
9.02743774e-09
9.02743774e-09
9.02743774e-09
9.02743774e-09
9.02743774e-09
9.02743774e-09
9.02743774e-09
9.02743774e-09
9.02743774e-09
9.02743774e-09
9.02743774e-09
9.02743774e-09
9.02743774e-09
9.02743774e-09
9.02743774e-09
9.02743774e-09
9.02743774e-09
9.02743774e-09
9.02743774e-09
9.02743774e-09
9.02743774e-09
9.02743774e-09
9.02743774e-09
9.02743774e-09
9.02743774e-09
9.02743774e-09
9.02743774e-09
9.02743774e-09
)
;

boundaryField
{
    closed
    {
        type            calculated;
        value           nonuniform List<scalar> 0();
    }
    open
    {
        type            calculated;
        value           uniform 9.02743774e-09;
    }
    sides
    {
        type            empty;
    }
    procBoundary5to4
    {
        type            processor;
        value           uniform 2.01668475e-05;
    }
}


// ************************************************************************* //
