/*--------------------------------*- C++ -*----------------------------------*\
| =========                 |                                                 |
| \\      /  F ield         | OpenFOAM: The Open Source CFD Toolbox           |
|  \\    /   O peration     | Version:  2306                                  |
|   \\  /    A nd           | Website:  www.openfoam.com                      |
|    \\/     M anipulation  |                                                 |
\*---------------------------------------------------------------------------*/
FoamFile
{
    version     2.0;
    format      ascii;
    arch        "LSB;label=32;scalar=64";
    class       volScalarField;
    location    "0.00018";
    object      mu;
}
// * * * * * * * * * * * * * * * * * * * * * * * * * * * * * * * * * * * * * //

dimensions      [1 -1 -1 0 0 0 0];

internalField   nonuniform List<scalar> 
3816
(
1.98633097e-05
1.98100535e-05
1.9798559e-05
1.97985395e-05
1.97985358e-05
1.97985358e-05
1.97985358e-05
1.97985358e-05
1.97985358e-05
1.97985358e-05
1.97985358e-05
1.97985358e-05
1.97985358e-05
1.97985358e-05
1.97985358e-05
1.97985358e-05
1.97985358e-05
1.97985358e-05
1.97985358e-05
1.97985358e-05
1.97985358e-05
1.97985358e-05
1.97985358e-05
1.97985358e-05
1.97985358e-05
1.97985358e-05
1.97985358e-05
1.97985358e-05
1.97985358e-05
1.97985358e-05
1.97985358e-05
1.97985358e-05
1.97985358e-05
1.97985358e-05
1.97985358e-05
1.97985358e-05
1.97985358e-05
1.97985358e-05
1.97985358e-05
1.97985358e-05
1.97985358e-05
1.97985358e-05
1.97985358e-05
1.97985358e-05
1.97985358e-05
1.97985358e-05
1.97985358e-05
1.97985358e-05
1.97985358e-05
1.97985358e-05
1.97985358e-05
1.97985358e-05
1.97985358e-05
1.97985358e-05
1.97985358e-05
1.97985358e-05
1.97985358e-05
1.97985358e-05
1.97985358e-05
1.97985358e-05
1.97985358e-05
1.97985358e-05
1.97985358e-05
1.97985358e-05
1.97985358e-05
1.97985358e-05
1.97985358e-05
1.97985358e-05
1.97985358e-05
1.97985358e-05
1.97985358e-05
1.97985358e-05
1.97985358e-05
1.97985358e-05
1.97985358e-05
1.97985359e-05
1.9798536e-05
1.97985364e-05
1.97985374e-05
1.97985398e-05
1.97985449e-05
1.97985555e-05
1.97985758e-05
1.97986123e-05
1.9798674e-05
1.97987725e-05
1.97989207e-05
1.97991345e-05
1.97994277e-05
1.97998372e-05
1.98002608e-05
1.9800594e-05
1.98019761e-05
1.9804518e-05
1.98024561e-05
1.97912623e-05
1.97963315e-05
1.98424172e-05
1.98323523e-05
1.9760617e-05
1.97113524e-05
1.97088051e-05
1.9709235e-05
1.98340864e-05
2.02940237e-05
2.03126747e-05
2.0269004e-05
1.98242502e-05
1.95160734e-05
1.9759424e-05
2.02906018e-05
2.03048647e-05
2.02742725e-05
1.9888435e-05
1.93900495e-05
1.94410692e-05
1.95929347e-05
1.97847158e-05
2.02912939e-05
2.02830493e-05
1.958057e-05
1.96939174e-05
2.02912825e-05
2.02788557e-05
1.95344313e-05
1.96370927e-05
2.02882466e-05
2.02764414e-05
1.94448708e-05
1.94402779e-05
1.96263443e-05
1.98515391e-05
2.02797333e-05
2.0269648e-05
2.02789223e-05
2.02720957e-05
2.02772708e-05
2.02722847e-05
1.92409928e-05
1.92185322e-05
1.95244945e-05
1.94418789e-05
1.97659755e-05
2.02664794e-05
2.02712032e-05
2.02727489e-05
2.02686191e-05
2.02792498e-05
1.92449668e-05
1.92303586e-05
1.93964273e-05
1.95084928e-05
1.94271973e-05
1.97755396e-05
2.0281254e-05
2.02718939e-05
2.02886082e-05
1.95463967e-05
1.95067292e-05
2.02744939e-05
2.02846507e-05
1.9481334e-05
1.96267992e-05
2.02833357e-05
2.02740087e-05
2.02832396e-05
2.02799165e-05
2.02836928e-05
2.02817264e-05
1.9256152e-05
1.92131351e-05
1.9527972e-05
1.94182311e-05
1.97654592e-05
2.02733744e-05
2.02994976e-05
1.9521704e-05
1.9666806e-05
2.02881762e-05
2.02900595e-05
1.95170963e-05
1.94679918e-05
1.9675561e-05
2.0287569e-05
2.02950596e-05
2.02912969e-05
1.9578011e-05
1.94030964e-05
1.97302401e-05
2.0281383e-05
2.0304795e-05
1.94983848e-05
1.96876529e-05
2.0288219e-05
2.02973195e-05
2.02925024e-05
2.02968609e-05
1.94404389e-05
1.93127931e-05
1.95426175e-05
2.02853538e-05
2.0289775e-05
2.02935276e-05
2.02925115e-05
1.94555035e-05
1.9352718e-05
1.95645158e-05
1.94609975e-05
1.97505656e-05
2.02705505e-05
2.03003735e-05
1.96187094e-05
1.95726732e-05
2.02551444e-05
2.02946731e-05
1.96565002e-05
1.94737064e-05
1.96030776e-05
1.95189739e-05
1.96943742e-05
2.02545818e-05
2.03046235e-05
2.02884194e-05
1.9750208e-05
1.95065267e-05
1.94983456e-05
2.01894399e-05
2.02856104e-05
2.02648912e-05
2.029941e-05
2.02962935e-05
2.03206262e-05
2.03133206e-05
1.97464556e-05
1.93820435e-05
1.94177087e-05
1.93679722e-05
1.93555547e-05
1.98570314e-05
2.02653646e-05
1.98417445e-05
1.97462222e-05
1.96173557e-05
1.95855755e-05
1.98071897e-05
2.02583854e-05
1.98882914e-05
1.97334751e-05
1.97887282e-05
2.02675165e-05
1.99056278e-05
1.9670995e-05
1.9761002e-05
2.02697096e-05
1.99271613e-05
1.96216578e-05
1.97478917e-05
2.02773473e-05
1.99553013e-05
1.97193836e-05
1.95612784e-05
1.94797217e-05
1.97470104e-05
2.02582004e-05
2.0317585e-05
2.02485345e-05
2.03022039e-05
2.00321374e-05
1.9662442e-05
1.95057931e-05
1.94186763e-05
1.97542747e-05
2.02949669e-05
2.00657612e-05
1.96687503e-05
1.95542282e-05
1.94875077e-05
1.97526933e-05
2.02641766e-05
2.03150521e-05
2.00904679e-05
1.97097706e-05
1.95076418e-05
1.97994308e-05
2.02772944e-05
2.0036919e-05
1.96547003e-05
1.97825466e-05
2.02986538e-05
2.00972547e-05
1.9596267e-05
1.97846324e-05
2.02998667e-05
2.01081429e-05
1.95592053e-05
1.97840421e-05
2.02995839e-05
2.01014259e-05
1.95411096e-05
1.97936038e-05
2.02972747e-05
2.02214369e-05
1.95439013e-05
1.94902125e-05
1.95321986e-05
1.97813637e-05
2.02975795e-05
2.02813539e-05
1.95509049e-05
1.94135343e-05
1.97806584e-05
2.02738674e-05
2.00583891e-05
1.95929719e-05
1.97945563e-05
2.02948541e-05
2.02519285e-05
1.95068596e-05
1.93848171e-05
1.97785766e-05
2.02794708e-05
2.02591997e-05
1.9575409e-05
1.97726575e-05
2.03049997e-05
2.03034797e-05
2.03124318e-05
2.03012693e-05
1.98231516e-05
1.94528313e-05
1.94562759e-05
1.97707385e-05
2.03097077e-05
2.03029788e-05
1.97802326e-05
1.95095291e-05
1.95154554e-05
1.97706652e-05
2.02918509e-05
2.02545142e-05
1.94786078e-05
1.94795548e-05
1.9874324e-05
2.02736819e-05
2.02405236e-05
1.94698531e-05
1.94690367e-05
1.98641113e-05
2.02908129e-05
2.02722987e-05
1.97552188e-05
1.94979251e-05
1.95487023e-05
1.95564748e-05
1.95640783e-05
1.98129619e-05
2.03079772e-05
2.03044156e-05
2.03153162e-05
2.02872215e-05
2.03197128e-05
2.02591184e-05
1.9745515e-05
1.94194952e-05
1.95249225e-05
1.95383701e-05
1.95819383e-05
1.98652855e-05
2.02771442e-05
1.98647294e-05
1.9623827e-05
1.97976366e-05
2.02764508e-05
1.99080138e-05
1.96270367e-05
1.97976573e-05
2.02711154e-05
1.98375804e-05
1.96163126e-05
1.98125566e-05
2.02669132e-05
1.98063189e-05
1.96155626e-05
1.98580704e-05
2.02473781e-05
1.97540991e-05
1.96154362e-05
1.98726033e-05
2.02513186e-05
1.97550325e-05
1.94383474e-05
1.95043915e-05
1.97758164e-05
2.00037438e-05
2.02479969e-05
1.9756486e-05
1.95178412e-05
1.95816119e-05
1.97741848e-05
2.01477914e-05
2.02694808e-05
1.97820774e-05
1.97692809e-05
2.00617905e-05
2.02569712e-05
2.02651609e-05
2.01687574e-05
1.94683656e-05
1.94240944e-05
1.95872994e-05
1.97714158e-05
2.02874228e-05
2.02472173e-05
1.96902436e-05
1.9489989e-05
1.9784848e-05
2.02820346e-05
2.02924609e-05
2.02841811e-05
2.02680798e-05
2.03055349e-05
2.02495e-05
1.97404907e-05
1.93643874e-05
1.94701135e-05
1.95278513e-05
1.95326043e-05
1.97996323e-05
2.02838392e-05
1.99113758e-05
1.95522826e-05
1.97747422e-05
2.02857346e-05
2.02781333e-05
1.93633298e-05
1.93349094e-05
1.97854996e-05
2.02689805e-05
2.00892636e-05
1.95352087e-05
1.97709721e-05
2.0288323e-05
1.99989373e-05
1.9505481e-05
1.97853926e-05
2.02973827e-05
2.02203648e-05
1.942709e-05
1.93724861e-05
1.9781706e-05
2.0302256e-05
2.03094405e-05
1.97515685e-05
1.95040099e-05
1.96157946e-05
1.96316097e-05
1.97816216e-05
2.03129241e-05
2.03070689e-05
2.03273234e-05
2.03028204e-05
1.97604968e-05
1.94490037e-05
1.95716703e-05
1.95648467e-05
1.97495e-05
2.02935437e-05
2.03166626e-05
2.02947708e-05
1.98731449e-05
1.94398625e-05
1.94625631e-05
1.95945174e-05
1.95581888e-05
1.97550547e-05
2.02975906e-05
2.03158887e-05
1.97334037e-05
1.9642835e-05
2.03134602e-05
2.03016894e-05
1.96636966e-05
1.96005931e-05
2.03118828e-05
2.02929657e-05
1.96443024e-05
1.94761266e-05
1.97584106e-05
2.02852511e-05
2.03034221e-05
1.9677933e-05
1.96766307e-05
2.02970337e-05
2.0294634e-05
2.02910515e-05
2.02905916e-05
1.94243508e-05
1.93280804e-05
1.95742103e-05
1.95956034e-05
1.9649949e-05
1.9795704e-05
2.02916572e-05
2.02769178e-05
1.967424e-05
1.97221744e-05
2.03065965e-05
2.02678361e-05
1.95848376e-05
1.966431e-05
2.0304543e-05
2.02613248e-05
1.95070367e-05
1.96104041e-05
2.03045535e-05
2.02595739e-05
1.94773409e-05
1.94753122e-05
1.96066605e-05
1.97844047e-05
2.03137006e-05
2.02862235e-05
1.97452446e-05
1.95620004e-05
1.96338805e-05
1.96364126e-05
1.96663327e-05
1.98073215e-05
2.03129709e-05
2.02876253e-05
1.97117502e-05
1.97606218e-05
2.03280213e-05
2.03009332e-05
2.03321278e-05
2.02963289e-05
1.97293639e-05
1.95625961e-05
1.96549934e-05
1.97912606e-05
2.03274067e-05
2.03019726e-05
1.97064209e-05
1.95722668e-05
1.96778596e-05
1.96533725e-05
1.98217961e-05
2.0313625e-05
2.02969369e-05
2.0310372e-05
2.02980747e-05
1.96201709e-05
1.94707502e-05
1.95952837e-05
1.96009924e-05
1.95818549e-05
1.97612284e-05
2.03068376e-05
2.0298089e-05
1.94780095e-05
1.94543752e-05
1.97627568e-05
2.02872985e-05
2.02892256e-05
1.95066814e-05
1.95051473e-05
1.9953102e-05
2.02805335e-05
2.02575026e-05
2.02816554e-05
2.02585103e-05
2.02776943e-05
2.02644996e-05
1.92742011e-05
1.9269205e-05
1.95026648e-05
1.97863454e-05
2.02865179e-05
2.02603822e-05
1.93690294e-05
1.92970752e-05
1.96731458e-05
2.02573856e-05
2.02915051e-05
2.02295106e-05
2.02885938e-05
2.02351425e-05
2.02834241e-05
2.0250957e-05
1.92274563e-05
1.92164452e-05
1.94925871e-05
1.95203834e-05
1.96502162e-05
1.96490204e-05
1.97741345e-05
2.0290825e-05
2.03028984e-05
1.96590325e-05
1.97097452e-05
2.03076238e-05
2.03002315e-05
1.96137455e-05
1.96891694e-05
2.03175419e-05
2.02993771e-05
1.96541074e-05
1.97702015e-05
2.03202694e-05
2.02932754e-05
1.97138786e-05
1.95787742e-05
1.96996042e-05
1.96235097e-05
1.97534564e-05
2.02994549e-05
2.03058212e-05
1.96231791e-05
1.96967192e-05
2.03064524e-05
2.02923661e-05
1.95755054e-05
1.96499253e-05
2.03081095e-05
2.02875076e-05
1.95366641e-05
1.96628123e-05
2.03079219e-05
2.02840355e-05
1.94915291e-05
1.94894017e-05
1.97877838e-05
2.02893886e-05
2.02973807e-05
2.02892222e-05
2.02888964e-05
1.94939631e-05
1.94904593e-05
1.96115295e-05
1.9638777e-05
1.96329968e-05
1.97700846e-05
2.02977605e-05
2.02857989e-05
1.95524677e-05
1.96925776e-05
2.03051584e-05
2.02767579e-05
1.93749004e-05
1.9355879e-05
1.97464855e-05
2.0285488e-05
2.03095518e-05
2.0279107e-05
1.96801404e-05
1.94144244e-05
1.96616634e-05
1.94976331e-05
1.97404321e-05
2.02905101e-05
2.03145448e-05
2.02929367e-05
2.03091681e-05
2.02943613e-05
1.95203015e-05
1.94456209e-05
1.96439468e-05
1.9600811e-05
1.97971951e-05
2.02891009e-05
2.03037847e-05
1.96149906e-05
1.96211275e-05
1.9935e-05
2.02934074e-05
2.02886239e-05
2.02974452e-05
1.96409762e-05
1.95423179e-05
1.97005445e-05
1.95937664e-05
1.97487513e-05
2.02978436e-05
2.03117361e-05
1.95992901e-05
1.96483957e-05
2.03013182e-05
2.03016761e-05
1.95536889e-05
1.95884624e-05
2.03021171e-05
2.02935614e-05
1.95271684e-05
1.95651605e-05
2.03015923e-05
2.02895325e-05
1.95100899e-05
1.9550313e-05
2.03009467e-05
2.02884865e-05
1.94996872e-05
1.9540644e-05
2.03004253e-05
2.02886507e-05
1.94946774e-05
1.95358051e-05
2.02998702e-05
2.02889674e-05
1.94940488e-05
1.95347708e-05
2.02992161e-05
2.02889812e-05
1.94953205e-05
1.95362671e-05
2.02985284e-05
2.02885562e-05
1.94973355e-05
1.95392848e-05
2.02978848e-05
2.02877298e-05
1.9499634e-05
1.95426622e-05
2.02973873e-05
2.02866887e-05
1.95005389e-05
1.95446101e-05
2.02971561e-05
2.02857663e-05
1.94975817e-05
1.95426289e-05
2.02971761e-05
2.02853114e-05
1.94905396e-05
1.95365126e-05
2.02972548e-05
2.02854561e-05
1.94800821e-05
1.95285427e-05
2.02971143e-05
2.02859405e-05
1.94684225e-05
1.95243491e-05
2.02966234e-05
2.02867333e-05
1.94670054e-05
1.94658669e-05
1.95512877e-05
1.97190695e-05
2.02982599e-05
2.02933887e-05
1.95481859e-05
1.95565199e-05
1.95919766e-05
1.97624407e-05
2.03003833e-05
2.03009993e-05
1.95303692e-05
1.96636924e-05
2.03067799e-05
2.02981602e-05
1.94527064e-05
1.94505027e-05
1.97325765e-05
2.03021797e-05
2.02994647e-05
2.02993699e-05
2.02970724e-05
2.02957257e-05
2.02941637e-05
2.02920441e-05
2.02908007e-05
1.94008296e-05
1.93992467e-05
1.95617305e-05
1.95351586e-05
1.96716457e-05
1.95973401e-05
1.9759151e-05
2.02889677e-05
2.03009223e-05
1.95621979e-05
1.96448837e-05
2.02948758e-05
2.02949881e-05
1.95020576e-05
1.95657262e-05
2.02969632e-05
2.02894828e-05
1.94758983e-05
1.94752949e-05
1.95549775e-05
1.9717292e-05
2.03010948e-05
2.02910263e-05
1.95883905e-05
1.95930056e-05
1.96646104e-05
1.97627548e-05
2.0302945e-05
2.02975061e-05
1.96934331e-05
1.97619603e-05
2.03078018e-05
2.02946288e-05
1.96846745e-05
1.97689476e-05
2.03070992e-05
2.02948313e-05
2.03041114e-05
2.02907185e-05
2.03014648e-05
2.0281674e-05
1.94263208e-05
1.94221395e-05
1.96028186e-05
1.95080928e-05
1.97534097e-05
2.0291693e-05
2.02975176e-05
1.94901159e-05
1.96825843e-05
2.02979721e-05
2.02897602e-05
1.94018557e-05
1.93989428e-05
1.97245104e-05
2.03001629e-05
2.02868319e-05
1.94470504e-05
1.94438282e-05
1.97422253e-05
2.02933492e-05
2.02957654e-05
1.95180489e-05
1.96665305e-05
2.0299139e-05
2.02931869e-05
1.95365553e-05
1.96346482e-05
2.03035793e-05
2.02924241e-05
1.95330599e-05
1.96583367e-05
2.03075918e-05
2.02913416e-05
1.95089844e-05
1.9506032e-05
1.97682621e-05
2.02909697e-05
2.02986916e-05
1.95649356e-05
1.95646599e-05
1.96534635e-05
1.96304457e-05
1.98476837e-05
2.02974388e-05
2.02832994e-05
2.02981976e-05
2.02860876e-05
1.93835068e-05
1.93792055e-05
1.95899647e-05
1.95416594e-05
1.97649718e-05
2.0292222e-05
2.02992899e-05
1.96046569e-05
1.97344441e-05
2.02980464e-05
2.02930346e-05
1.95846456e-05
1.96941009e-05
2.0299696e-05
2.02873989e-05
1.95154404e-05
1.9515313e-05
1.98808546e-05
2.02840987e-05
2.02827904e-05
2.02849954e-05
2.02838285e-05
1.94711375e-05
1.94700644e-05
1.96067817e-05
1.9654856e-05
1.9649566e-05
1.97693327e-05
2.02948976e-05
2.02962101e-05
1.95728919e-05
1.97227694e-05
2.03030741e-05
2.02874373e-05
1.94408382e-05
1.9436296e-05
1.97205397e-05
2.0291663e-05
2.02993888e-05
1.94718182e-05
1.96043295e-05
2.02949476e-05
2.0294865e-05
1.94983005e-05
1.94992351e-05
1.95435403e-05
1.97623763e-05
2.02969216e-05
2.02967395e-05
2.02945636e-05
2.02972202e-05
1.94299083e-05
1.94281204e-05
1.94586724e-05
1.97576892e-05
2.02984402e-05
2.02997883e-05
2.02993179e-05
1.95060319e-05
1.95055383e-05
1.96236818e-05
1.97745805e-05
2.02962694e-05
2.02976069e-05
2.02947366e-05
2.02944561e-05
2.02945216e-05
1.94294026e-05
1.94259401e-05
1.95293833e-05
1.95854779e-05
1.95760101e-05
1.97557572e-05
2.03012615e-05
2.03029403e-05
2.02983116e-05
2.03007142e-05
2.02940316e-05
2.02966749e-05
2.02885053e-05
1.93882276e-05
1.93855175e-05
1.95590085e-05
1.95501645e-05
1.96808084e-05
1.96309836e-05
1.9766781e-05
2.02870059e-05
2.03018907e-05
1.96244766e-05
1.97138785e-05
2.02940656e-05
2.02961533e-05
1.95679521e-05
1.96926805e-05
2.02992563e-05
2.02885536e-05
1.94648592e-05
1.94455737e-05
1.97617561e-05
2.02945665e-05
2.02923819e-05
2.02954845e-05
1.94722132e-05
1.94643877e-05
1.95399475e-05
1.97295453e-05
2.02917228e-05
2.03000518e-05
1.95302019e-05
1.97622703e-05
2.02961137e-05
2.02951584e-05
2.02932337e-05
2.02954637e-05
2.02901536e-05
2.02953366e-05
1.93529664e-05
1.93492005e-05
1.95171433e-05
1.95846193e-05
1.95854397e-05
1.97550654e-05
2.02907521e-05
2.03085908e-05
1.95496158e-05
1.97562434e-05
2.02966909e-05
2.02988186e-05
2.02980477e-05
1.94580149e-05
1.9445629e-05
1.95700468e-05
1.95626535e-05
1.96381574e-05
1.96176516e-05
1.98612138e-05
2.02905156e-05
2.02911015e-05
2.02966665e-05
1.9650266e-05
1.96819204e-05
2.03014476e-05
2.02929689e-05
1.95383704e-05
1.95309827e-05
1.97812328e-05
2.02892688e-05
2.02968839e-05
2.02928292e-05
1.95248102e-05
1.95242681e-05
1.95430337e-05
1.97687354e-05
2.02952231e-05
2.0284958e-05
2.02929072e-05
2.02811417e-05
1.92625307e-05
1.92564349e-05
1.94122989e-05
1.94047021e-05
1.95375232e-05
1.9474413e-05
1.97444103e-05
2.02896403e-05
2.02927818e-05
2.02857091e-05
2.02882616e-05
1.96075281e-05
1.97540221e-05
2.02854169e-05
2.02876054e-05
2.02795429e-05
2.02878544e-05
2.02738084e-05
2.02875945e-05
2.02714111e-05
1.93203274e-05
1.93154952e-05
1.94914704e-05
1.94805174e-05
1.9634068e-05
1.95614008e-05
1.97622787e-05
2.029139e-05
2.02958982e-05
2.02923954e-05
2.02915685e-05
1.94946543e-05
1.96669907e-05
2.02996121e-05
2.0292219e-05
2.02978444e-05
2.02860543e-05
1.93576133e-05
1.93542888e-05
1.96865108e-05
2.02973228e-05
2.02931557e-05
1.95400961e-05
1.95397083e-05
1.9778041e-05
2.02944623e-05
2.02946131e-05
1.95869765e-05
1.95872306e-05
1.96939016e-05
1.96451134e-05
1.97625846e-05
2.02944501e-05
2.03041007e-05
1.9615265e-05
1.96848067e-05
2.03006953e-05
2.0300899e-05
1.95686447e-05
1.96164518e-05
2.03023744e-05
2.02975602e-05
1.95383181e-05
1.9579559e-05
2.03015897e-05
2.02942692e-05
1.95151468e-05
1.95573584e-05
2.02995028e-05
2.02919419e-05
1.9492522e-05
1.95421675e-05
2.02969166e-05
2.02909532e-05
1.94681878e-05
1.94674663e-05
1.95399016e-05
1.9682037e-05
2.02951361e-05
2.02968521e-05
1.95529685e-05
1.9563503e-05
1.95849223e-05
1.97596037e-05
2.02954638e-05
2.03038515e-05
1.9510133e-05
1.97578036e-05
2.02995146e-05
2.03014218e-05
2.02988477e-05
1.95741889e-05
1.94693229e-05
1.97586456e-05
2.02968129e-05
2.02992933e-05
2.02953828e-05
2.02990419e-05
1.94913778e-05
1.94890591e-05
1.95942228e-05
1.96484019e-05
1.96398152e-05
1.97568485e-05
2.02975704e-05
2.03041608e-05
1.96097553e-05
1.96930615e-05
2.03045115e-05
2.03026132e-05
1.95673634e-05
1.96419726e-05
2.03089098e-05
2.0299723e-05
1.95312948e-05
1.96416651e-05
2.03140246e-05
2.02967571e-05
1.94768371e-05
1.94704221e-05
1.96894836e-05
2.0301252e-05
2.03077372e-05
1.95426855e-05
1.95399698e-05
1.98164296e-05
2.03019104e-05
2.03054328e-05
2.03011697e-05
2.03038144e-05
1.95030244e-05
1.94981562e-05
1.96484336e-05
1.95813334e-05
1.97620231e-05
2.02952254e-05
2.03071518e-05
2.02882166e-05
1.95080801e-05
1.94553235e-05
1.9580102e-05
1.93824434e-05
1.96668364e-05
2.02783736e-05
2.03002988e-05
2.02634405e-05
2.02986051e-05
2.02633145e-05
2.02961334e-05
2.02764709e-05
1.94477181e-05
1.9422081e-05
1.95562972e-05
1.96309254e-05
1.96039179e-05
1.97643072e-05
2.02987473e-05
2.03016677e-05
1.95604278e-05
1.95387997e-05
1.97094242e-05
2.03012266e-05
2.02985469e-05
1.95096318e-05
1.94952849e-05
1.96685313e-05
2.02927128e-05
2.03078565e-05
1.9508248e-05
1.95923277e-05
2.02913014e-05
2.03021939e-05
1.9526032e-05
1.9530246e-05
1.95652193e-05
1.97171902e-05
2.02931181e-05
2.02960856e-05
1.94879458e-05
1.97669233e-05
2.02947832e-05
2.02891286e-05
2.02934422e-05
1.95855875e-05
1.96340583e-05
2.02889112e-05
2.02897011e-05
2.02826828e-05
2.02891879e-05
2.02764125e-05
1.93872668e-05
1.93135991e-05
1.96620784e-05
2.02827031e-05
2.02818171e-05
1.94869522e-05
1.95476945e-05
1.9551584e-05
1.97625262e-05
2.02883137e-05
2.02855439e-05
1.95159382e-05
1.97603263e-05
2.02963798e-05
2.02997169e-05
2.02858386e-05
1.94187095e-05
1.94141722e-05
1.95944889e-05
1.95217722e-05
1.97554027e-05
2.02951342e-05
2.02879062e-05
1.95776941e-05
1.97415965e-05
2.03011942e-05
2.02840496e-05
1.95811228e-05
1.97129274e-05
2.03057755e-05
2.02806581e-05
1.95748574e-05
1.97269578e-05
2.03101899e-05
2.02785385e-05
1.95351332e-05
1.95333892e-05
1.97522291e-05
2.0292196e-05
2.02932932e-05
2.02919893e-05
2.0283798e-05
1.94935106e-05
1.9493266e-05
1.95756062e-05
1.97629265e-05
2.02974562e-05
2.02859529e-05
1.95718114e-05
1.96915973e-05
2.029991e-05
2.02820286e-05
1.95592758e-05
1.95584087e-05
1.96034359e-05
1.97700038e-05
2.02994116e-05
2.02808402e-05
2.02958015e-05
2.02784447e-05
1.94646727e-05
1.94634876e-05
1.95460906e-05
1.97706968e-05
2.0300023e-05
2.02839827e-05
1.95367348e-05
1.97184818e-05
2.03035927e-05
2.02780602e-05
1.94647241e-05
1.94591288e-05
1.97568696e-05
2.02878389e-05
2.02937567e-05
1.9525559e-05
1.97231774e-05
2.02989486e-05
2.02856484e-05
1.94800872e-05
1.94772972e-05
1.97612412e-05
2.02905585e-05
2.02877813e-05
2.02918827e-05
2.02822045e-05
1.94029793e-05
1.93965389e-05
1.97195753e-05
2.02872606e-05
2.0292997e-05
1.94880856e-05
1.9650653e-05
2.02970723e-05
2.02860939e-05
1.94810437e-05
1.96421664e-05
2.03021594e-05
2.0284262e-05
1.94129132e-05
1.94071155e-05
1.9688737e-05
2.02887067e-05
2.03015665e-05
1.95177687e-05
1.95567038e-05
1.95694062e-05
1.97648479e-05
2.02933007e-05
2.02960201e-05
2.02942319e-05
2.02930439e-05
2.0297185e-05
1.94199271e-05
1.941537e-05
1.95056196e-05
1.96733201e-05
2.02944818e-05
2.03027669e-05
1.95239322e-05
1.96100716e-05
2.02979127e-05
2.03018648e-05
1.95200254e-05
1.95726338e-05
2.02999153e-05
2.03016749e-05
1.95139176e-05
1.95501584e-05
2.03004814e-05
2.03005496e-05
1.95253081e-05
1.95259737e-05
1.95896994e-05
1.97388447e-05
2.03023869e-05
2.03029521e-05
1.9589345e-05
1.97635487e-05
2.03049661e-05
2.02979818e-05
2.0303318e-05
2.02972139e-05
1.94619513e-05
1.94398123e-05
1.96074231e-05
1.95248768e-05
1.97478313e-05
2.02915111e-05
2.0310078e-05
1.952215e-05
1.97258959e-05
2.02998401e-05
2.03007748e-05
2.02981909e-05
2.03014867e-05
2.02978929e-05
2.02960811e-05
1.93760132e-05
1.93289964e-05
1.95447628e-05
1.94570263e-05
1.96879638e-05
2.02902575e-05
2.03031839e-05
1.95153758e-05
1.96004414e-05
2.02928996e-05
2.03011469e-05
1.95209685e-05
1.95302165e-05
1.95743061e-05
1.96755991e-05
2.02953014e-05
2.02963078e-05
1.96020008e-05
1.96259649e-05
1.9646498e-05
1.97615573e-05
2.02961146e-05
2.02932556e-05
1.96180589e-05
1.97208728e-05
2.03025026e-05
2.02867496e-05
1.95379837e-05
1.95257198e-05
1.96935554e-05
2.02880311e-05
2.02967185e-05
1.95183347e-05
1.96630535e-05
2.02947765e-05
2.02921919e-05
1.94613342e-05
1.94600612e-05
1.96824785e-05
2.02952096e-05
2.0291849e-05
2.0293693e-05
2.02878116e-05
2.02916051e-05
2.02835419e-05
1.93385939e-05
1.93369587e-05
1.94344897e-05
1.96525265e-05
2.02985542e-05
2.0280642e-05
1.946548e-05
1.94612385e-05
1.97157093e-05
2.02897995e-05
2.02959609e-05
1.95423793e-05
1.96919073e-05
2.02976989e-05
2.02923173e-05
1.95716962e-05
1.97118847e-05
2.03041099e-05
2.0290156e-05
1.95637035e-05
1.95626634e-05
1.97568173e-05
2.02975731e-05
2.02951481e-05
2.02991829e-05
2.02862678e-05
2.02987579e-05
2.02836259e-05
1.93833144e-05
1.93784731e-05
1.95674932e-05
1.94991035e-05
1.97563938e-05
2.02929088e-05
2.0298341e-05
1.9528643e-05
1.96728478e-05
2.02976537e-05
2.0293137e-05
1.95176477e-05
1.96142804e-05
2.02989575e-05
2.02904625e-05
1.95113081e-05
1.95812289e-05
2.02977394e-05
2.02901275e-05
1.95088708e-05
1.95087711e-05
1.95513173e-05
1.97681283e-05
2.02966469e-05
2.02898115e-05
2.02924705e-05
2.02916982e-05
1.94261041e-05
1.94254307e-05
1.95642107e-05
1.96285697e-05
1.96306418e-05
1.97658586e-05
2.02905823e-05
2.02971209e-05
1.96273529e-05
1.97319694e-05
2.02956861e-05
2.0291968e-05
1.95686876e-05
1.96995234e-05
2.03004385e-05
2.02876763e-05
1.94646628e-05
1.94603109e-05
1.9732329e-05
2.02942288e-05
2.02927058e-05
2.02934889e-05
2.02886721e-05
1.93723579e-05
1.93686353e-05
1.9565666e-05
1.94796972e-05
1.97569004e-05
2.02880536e-05
2.03010848e-05
1.95004597e-05
1.96915309e-05
2.02931972e-05
2.02974652e-05
2.02889339e-05
2.02963476e-05
2.02849519e-05
1.93336842e-05
1.93289649e-05
1.95005208e-05
1.9497693e-05
1.9645053e-05
1.95917505e-05
1.97668623e-05
2.02882168e-05
2.03010398e-05
1.96141438e-05
1.97447613e-05
2.02952508e-05
2.02991754e-05
2.02895696e-05
2.02980564e-05
2.02839097e-05
1.94438812e-05
1.94404153e-05
1.96088274e-05
1.95505341e-05
1.97567851e-05
2.02927562e-05
2.03014729e-05
2.02874716e-05
2.03004014e-05
2.02821658e-05
1.93942516e-05
1.93057473e-05
1.9628735e-05
2.02872543e-05
2.02930375e-05
1.94513851e-05
1.9522817e-05
1.94989177e-05
1.97590762e-05
2.02952655e-05
2.02977922e-05
2.02910317e-05
2.02944514e-05
2.02879486e-05
1.93834935e-05
1.93828384e-05
1.95118429e-05
1.95982044e-05
1.9581344e-05
1.97621172e-05
2.02927671e-05
2.02957657e-05
2.02914315e-05
2.02921846e-05
1.95195636e-05
1.95300516e-05
1.95162564e-05
1.97597672e-05
2.02950789e-05
2.02969952e-05
2.02911598e-05
2.02935137e-05
2.02899022e-05
1.9417502e-05
1.94146509e-05
1.94736457e-05
1.96684041e-05
2.02938093e-05
2.02930401e-05
2.0290979e-05
2.02910666e-05
1.94541551e-05
1.94512431e-05
1.95271863e-05
1.9677339e-05
2.02905515e-05
2.02930751e-05
1.9562791e-05
1.96690669e-05
2.02931701e-05
2.0289887e-05
1.95488211e-05
1.96696036e-05
2.02972437e-05
2.02855064e-05
1.9474197e-05
1.94695399e-05
1.96758377e-05
2.02921772e-05
2.02908933e-05
2.02944164e-05
1.94542104e-05
1.94515114e-05
1.95475533e-05
1.96228226e-05
1.96039268e-05
1.97611241e-05
2.02922242e-05
2.02999152e-05
1.95696695e-05
1.97645784e-05
2.02961396e-05
2.0293083e-05
2.02950855e-05
2.02918091e-05
2.02948769e-05
2.02890564e-05
1.92787868e-05
1.92203134e-05
1.95136086e-05
2.02898463e-05
2.02984554e-05
1.94042034e-05
1.94623723e-05
1.94816538e-05
1.96489873e-05
2.02917559e-05
2.03016651e-05
1.95118223e-05
1.9595685e-05
2.02962527e-05
2.0302186e-05
1.95304939e-05
1.95323047e-05
1.95821232e-05
1.96836533e-05
2.03004212e-05
2.03068802e-05
1.96168469e-05
1.96336475e-05
1.96607407e-05
1.9754788e-05
2.03014528e-05
2.031109e-05
1.96387283e-05
1.97683356e-05
2.02991726e-05
2.03020648e-05
2.03002741e-05
2.03006872e-05
2.03032039e-05
2.02985855e-05
2.03050826e-05
1.93905881e-05
1.9387662e-05
1.95033283e-05
1.95976357e-05
1.95634165e-05
1.97592292e-05
2.03010491e-05
2.0303706e-05
2.03021274e-05
2.03044965e-05
1.94659549e-05
1.94574564e-05
1.96159315e-05
1.95427138e-05
1.97527539e-05
2.02914148e-05
2.03098816e-05
1.95653235e-05
1.96933717e-05
2.02989911e-05
2.03019132e-05
2.02984733e-05
2.03031042e-05
1.93620959e-05
1.93596416e-05
1.94699806e-05
1.94814824e-05
1.95811619e-05
1.95809962e-05
1.96884123e-05
1.96361914e-05
1.97608659e-05
2.02930669e-05
2.03010427e-05
2.0294856e-05
1.96477412e-05
1.95545804e-05
1.97534231e-05
2.02910128e-05
2.03084702e-05
2.02886559e-05
2.03082204e-05
1.95171229e-05
1.96494019e-05
2.02950144e-05
2.02914494e-05
2.02946835e-05
2.02905759e-05
2.02949891e-05
2.0287856e-05
1.93291842e-05
1.92437357e-05
1.95285287e-05
2.02850422e-05
2.02950149e-05
1.93674505e-05
1.95452191e-05
2.02899536e-05
2.02963348e-05
2.02890412e-05
2.02969177e-05
1.9296095e-05
1.9291428e-05
1.94344169e-05
1.94762516e-05
1.95468695e-05
1.96474907e-05
1.96099902e-05
1.97618025e-05
2.02922148e-05
2.03040646e-05
2.02908028e-05
2.030645e-05
1.95952404e-05
1.96129846e-05
2.02961033e-05
2.02942889e-05
1.95448786e-05
1.95438455e-05
1.96335496e-05
1.96085161e-05
1.97206018e-05
1.96268266e-05
1.97652963e-05
2.02896624e-05
2.02990625e-05
1.95057339e-05
1.95053571e-05
1.95819309e-05
1.95199674e-05
1.96749024e-05
2.02855002e-05
2.02890494e-05
2.02829433e-05
2.02884221e-05
2.02806452e-05
2.02860153e-05
2.02777677e-05
2.02823688e-05
2.02758849e-05
2.02782914e-05
2.02767139e-05
2.02746624e-05
2.02781581e-05
1.91175896e-05
1.90940175e-05
1.9302574e-05
1.93327503e-05
1.94262653e-05
1.95211704e-05
1.94902143e-05
1.96752667e-05
2.02760744e-05
2.02818336e-05
2.02792245e-05
2.02823773e-05
2.02848355e-05
2.02805727e-05
2.02901577e-05
1.94171117e-05
1.94138775e-05
1.94545034e-05
1.96402408e-05
2.02852973e-05
2.02803627e-05
2.02846216e-05
2.02851366e-05
1.94101973e-05
1.93967742e-05
1.95598433e-05
1.9476198e-05
1.96976842e-05
2.02892096e-05
2.0287476e-05
1.95218695e-05
1.95182308e-05
1.96534493e-05
2.02829515e-05
2.02994878e-05
1.95281998e-05
1.96028443e-05
2.0286619e-05
2.02940843e-05
1.95475763e-05
1.95611179e-05
1.95734332e-05
1.96957343e-05
2.02881921e-05
2.02900266e-05
1.9511103e-05
1.97491989e-05
2.02945733e-05
2.02866554e-05
2.02910802e-05
2.028498e-05
2.02874637e-05
1.93755773e-05
1.93652354e-05
1.93955754e-05
1.95647661e-05
2.02849237e-05
2.02814203e-05
2.02837576e-05
2.02722261e-05
1.92840009e-05
1.95296667e-05
2.02827314e-05
2.02838012e-05
2.02723491e-05
1.93109806e-05
1.93048193e-05
1.93546485e-05
1.95435504e-05
2.02844311e-05
2.02678932e-05
1.93924107e-05
1.93914454e-05
1.96117203e-05
2.02876928e-05
2.02611439e-05
1.94470834e-05
1.94440006e-05
1.96442049e-05
2.02804103e-05
2.02771335e-05
2.02812472e-05
2.02589262e-05
1.93945131e-05
1.96363638e-05
2.0282951e-05
2.02884879e-05
2.02682935e-05
1.94401898e-05
1.92915837e-05
1.96988044e-05
2.02836105e-05
2.02900422e-05
2.02551737e-05
1.94917123e-05
1.95738212e-05
2.02898327e-05
2.02655285e-05
2.02871506e-05
2.0242846e-05
1.93428242e-05
1.93351429e-05
1.94936708e-05
1.94234269e-05
1.97336137e-05
2.0292312e-05
2.02943111e-05
2.02676489e-05
2.02865501e-05
2.02507081e-05
1.94428131e-05
1.94396089e-05
1.9484567e-05
1.97642754e-05
2.02925332e-05
2.02681258e-05
2.02895303e-05
2.02514418e-05
1.94239946e-05
1.94175554e-05
1.95694965e-05
1.95159273e-05
1.97586347e-05
2.02896386e-05
2.02949411e-05
2.02764465e-05
2.02858751e-05
2.02671996e-05
1.93723513e-05
1.93065454e-05
1.97105061e-05
2.02822186e-05
2.02720188e-05
1.93626759e-05
1.93554308e-05
1.96631454e-05
2.02763504e-05
2.02732139e-05
1.94178981e-05
1.95728784e-05
2.02824318e-05
2.02651118e-05
1.93983861e-05
1.95370977e-05
2.02796774e-05
2.0269933e-05
1.93282518e-05
1.93260112e-05
1.9429524e-05
1.9501312e-05
1.94722366e-05
1.97339622e-05
2.02877938e-05
2.02922789e-05
2.02818345e-05
2.02883835e-05
2.02730941e-05
2.02841435e-05
2.02644198e-05
2.02811046e-05
2.02606203e-05
2.02784972e-05
2.02641171e-05
1.92309289e-05
1.92129494e-05
1.94652075e-05
1.94002528e-05
1.96926479e-05
2.02749341e-05
2.02927272e-05
1.95059594e-05
1.96585463e-05
2.02857463e-05
2.02804018e-05
1.94617447e-05
1.94452143e-05
1.9639736e-05
2.02771099e-05
2.03022757e-05
1.94423559e-05
1.94492449e-05
1.9475479e-05
1.96668056e-05
2.02851719e-05
2.02964283e-05
2.02814213e-05
2.03043489e-05
1.94832334e-05
1.9482497e-05
1.9561411e-05
1.97027265e-05
2.02805618e-05
2.03039539e-05
1.95552154e-05
1.97686306e-05
2.02848087e-05
2.02857387e-05
2.02917772e-05
2.02844819e-05
2.02969125e-05
1.94478908e-05
1.94087782e-05
1.94620234e-05
1.96120742e-05
2.02883284e-05
2.02875837e-05
1.945766e-05
1.93827943e-05