/*--------------------------------*- C++ -*----------------------------------*\
| =========                 |                                                 |
| \\      /  F ield         | OpenFOAM: The Open Source CFD Toolbox           |
|  \\    /   O peration     | Version:  2306                                  |
|   \\  /    A nd           | Website:  www.openfoam.com                      |
|    \\/     M anipulation  |                                                 |
\*---------------------------------------------------------------------------*/
FoamFile
{
    version     2.0;
    format      ascii;
    arch        "LSB;label=32;scalar=64";
    class       volScalarField;
    location    "0.00038";
    object      prefDZ_H;
}
// * * * * * * * * * * * * * * * * * * * * * * * * * * * * * * * * * * * * * //

dimensions      [1 -1 -1 0 0 0 0];

internalField   nonuniform List<scalar> 
530
(
0.000341554806
0.00034312851
0.000343599306
0.000341782276
0.000342411565
0.000343941324
0.000344364469
0.000342693549
0.000343324846
0.000344838914
0.000345249214
0.000343703406
0.000344321062
0.000345827003
0.000346213941
0.00034479236
0.000345401374
0.00034688647
0.000347253944
0.000345926813
0.000346549184
0.00034800226
0.000348363553
0.000347138252
0.000347753692
0.000349178327
0.00034953456
0.000348415411
0.000348997475
0.000350448768
0.000350741274
0.000349760551
0.000350290781
0.000351864314
0.00035201414
0.000351189507
0.000351653749
0.000353246806
0.00035335067
0.000352609553
0.000353021853
0.000354581334
0.000354661098
0.000353986142
0.000354348634
0.000355760072
0.000355898587
0.000355181494
0.000355556717
0.000356872291
0.000357051004
0.000356353616
0.000356717375
0.000358000392
0.000358175392
0.00035753572
0.000357882141
0.000359132785
0.000359293898
0.000358719941
0.000359027218
0.000360234256
0.000360380421
0.000359853605
0.000360124927
0.000361270314
0.000361410653
0.000360911573
0.000361157015
0.000362200041
0.00036237114
0.000361875493
0.000362163045
0.000363128811
0.000363287139
0.000362808617
0.000363088161
0.000364006929
0.000364160696
0.000363697929
0.000363971381
0.000364841465
0.000364988573
0.000364535103
0.000364817088
0.0003656388
0.000365787019
0.000365320547
0.00036562929
0.000366403478
0.000366563412
0.000366058581
0.000366403959
0.000367104536
0.000367286991
0.000366730214
0.000367126503
0.000367761372
0.000367961359
0.000367427768
0.000367778837
0.000368503832
0.000368612021
0.000368167292
0.000368341221
0.000369201214
0.000369191001
0.000368863632
0.000368903964
0.00036983165
0.000369743967
0.00036949429
0.000369450667
0.000370360609
0.000370265847
0.00037004361
0.000369971787
0.000370808821
0.000370733517
0.000370524409
0.000370454615
0.000371198763
0.000371154314
0.000370941542
0.000370887106
0.000371549053
0.00037152666
0.000371303904
0.000371270188
0.000371861367
0.000371840898
0.000371621742
0.000371597343
0.000372140888
0.000372119563
0.000371902805
0.000371871544
0.000372392141
0.000372368021
0.000372154142
0.000372108714
0.000372613787
0.000372602818
0.000372373812
0.000372352922
0.000372801958
0.000372874042
0.000372551556
0.000372698125
0.000372956352
0.000373064138
0.000372710031
0.000373234152
0.000373096017
0.000373025084
0.000372856326
0.000373268951
0.000373225234
0.000373064345
0.000372994952
0.000373362983
0.000373342369
0.000373164779
0.000373123705
0.000373462844
0.000373446715
0.00037327427
0.000373242187
0.000373554977
0.000373539275
0.000373381408
0.000373350492
0.000373638329
0.000373620993
0.000373484286
0.000373448396
0.000373713996
0.000373692548
0.000373583177
0.000373535696
0.000373785304
0.000373754865
0.000373688846
0.000373612638
0.000373872535
0.000373808535
0.000373788667
0.000373680958
0.000373840297
0.000373856362
0.000373940635
0.000373741191
0.000373826465
0.000373897216
0.00037392034
0.000373796119
0.000373835425
0.000373931165
0.00037393949
0.000373840384
0.000373859055
0.00037395856
0.000373962372
0.000373877539
0.0003738855
0.000373981252
0.000373989935
0.000373906759
0.000373927259
0.000373998109
0.000374042135
0.000373930734
0.000374008897
0.000374011033
0.000374023372
0.000373950728
0.000374047258
0.000374022735
0.000373998112
0.000373968281
0.000374045973
0.000374033053
0.000374001278
0.00037398388
0.000374050863
0.000374042008
0.000374010396
0.000373997783
0.000374056937
0.000374049607
0.000374021031
0.000374009886
0.000374062593
0.000374056199
0.000374030761
0.000374020756
0.000374067244
0.000374062414
0.000374038948
0.000374031082
0.000374070668
0.00037406969
0.000374045128
0.000374045154
0.00037407286
0.000374085282
0.000374049692
0.000374070571
0.000374074596
0.000374076542
0.000374053703
0.000374084272
0.000374076432
0.000374065382
0.000374057625
0.000374081667
0.000374078413
0.000374064467
0.000374061732
0.000374081729
0.000374080737
0.000374066348
0.000374066608
0.000374082398
0.000374084135
0.000374068908
0.000374073241
0.000374083296
0.000374092276
0.000374071489
0.000374088128
0.000374084106
0.000374083604
0.00037407397
0.000374088256
0.000374085048
0.000374078732
0.000374076432
0.000374087096
0.00037408597
0.00037407845
0.000374078722
0.000374086996
0.00037408671
0.000374079092
0.000374080833
0.000374087305
0.000374087496
0.000374080375
0.000374082508
0.00037408768
0.0003740883
0.000374081834
0.000374084461
0.000374088253
0.000374089202
0.000374083299
0.000374086658
0.000374089016
0.000374090527
0.000374085173
0.000374089178
0.000374090793
0.000374091191
0.000374088392
0.000374091263
0.000374089547
0.000374090055
0.000374090735
0.000374090806
0.000374088103
0.000374089794
0.000374090215
0.000374090718
0.000374087987
0.000374089848
0.000374090239
0.000374090765
0.000374088529
0.000374090097
0.000374090478
0.000374090891
0.000374089283
0.000374090446
0.00037409076
0.000374091052
0.000374090056
0.000374090835
0.000374091028
0.000374091217
0.000374090763
0.000374091232
0.000374091237
0.000374091306
0.000374091317
0.000374091239
0.000374091207
0.00037409111
0.000374091102
0.000374091016
0.000374090991
0.000374090932
0.000374090907
0.000374090856
0.000374090834
0.000374090791
0.000374090771
0.000374090736
0.000374090718
0.000374090689
0.000374090673
0.000374090649
0.000374090635
0.000374090616
0.000374090603
0.000374090588
0.000374090577
0.000374090564
0.000374090555
0.000374090545
0.000374090537
0.000374090528
0.000374090522
0.000374090515
0.000374090509
0.000374090504
0.000374090499
0.000374090495
0.000374090491
0.000374090487
0.000374090484
0.000374090481
0.000374090479
0.000374090476
0.000374090474
0.000374090472
0.00037409047
0.000374090469
0.000374090467
0.000374090466
0.000374090465
0.000374090464
0.000374090463
0.000374090462
0.000374090461
0.000374090461
0.00037409046
0.00037409046
0.000374090459
0.000374090459
0.000374090458
0.000374090458
0.000374090458
0.000374090457
0.000374090457
0.000374090457
0.000374090457
0.000374090457
0.000374090456
0.000374090456
0.000374090456
0.000374090456
0.000374090456
0.000374090456
0.000374090456
0.000374090456
0.000374090456
0.000374090456
0.000374090455
0.000374090455
0.000374090455
0.000374090455
0.000374090455
0.000374090455
0.000374090455
0.000374090455
0.000374090455
0.000374090455
0.000374090455
0.000374090455
0.000374090455
0.000374090455
0.000374090455
0.000374090455
0.000374090455
0.000374090455
0.000374090455
0.000374090455
0.000374090455
0.000374090455
0.000374090455
0.000374090455
0.000374090455
0.000374090455
0.000374090455
0.000374090455
0.000374090455
0.000374090455
0.000374090455
0.000374090455
0.000374090455
0.000374090455
0.000374090455
0.000374090455
0.000374090455
0.000374090455
0.000374090455
0.000374090455
0.000374090455
0.000374090455
0.000374090455
0.000374090455
0.000374090455
0.000374090455
0.000374090455
0.000374090455
0.000374090455
0.000374090455
0.000374090455
0.000374090455
0.000374090455
0.000374090455
0.000374090455
0.000374090455
0.000374090455
0.000374090455
0.000374090455
0.000374090455
0.000374090455
0.000374090455
0.000374090455
0.000374090455
0.000374090455
0.000374090455
0.000374090455
0.000374090455
0.000374090455
0.000374090455
0.000374090455
0.000374090455
0.000374090455
0.000374090455
0.000374090455
0.000374090455
0.000374090455
0.000374090455
0.000374090455
0.000374090455
0.000374090455
0.000374090455
0.000374090455
0.000374090455
0.000374090455
0.000374090455
0.000374090455
0.000374090455
0.000374090455
0.000374090455
0.000374090455
0.000374090455
0.000374090455
0.000374090455
0.000374090455
0.000374090455
0.000374090455
0.000374090455
0.000374090455
0.000374090455
0.000374090455
0.000374090455
0.000374090455
0.000374090455
0.000374090455
0.000374090455
0.000374090455
0.000374090455
0.000374090455
0.000374090455
0.000374090455
0.000374090455
0.000374090455
0.000374090455
0.000374090455
0.000374090455
0.000374090455
0.000374090455
0.000374090455
0.000374090455
0.000374090455
0.000374090455
)
;

boundaryField
{
    closed
    {
        type            calculated;
        value           nonuniform List<scalar> 0();
    }
    open
    {
        type            calculated;
        value           uniform 0.000374090455;
    }
    sides
    {
        type            empty;
    }
    procBoundary5to4
    {
        type            processor;
        value           uniform 0.000340974847;
    }
}


// ************************************************************************* //
