/*--------------------------------*- C++ -*----------------------------------*\
| =========                 |                                                 |
| \\      /  F ield         | OpenFOAM: The Open Source CFD Toolbox           |
|  \\    /   O peration     | Version:  2306                                  |
|   \\  /    A nd           | Website:  www.openfoam.com                      |
|    \\/     M anipulation  |                                                 |
\*---------------------------------------------------------------------------*/
FoamFile
{
    version     2.0;
    format      ascii;
    arch        "LSB;label=32;scalar=64";
    class       volScalarField;
    location    "0.00038";
    object      sourcePV;
}
// * * * * * * * * * * * * * * * * * * * * * * * * * * * * * * * * * * * * * //

dimensions      [1 -3 -1 0 0 0 0];

internalField   nonuniform List<scalar> 
530
(
0.273979775
3.42256902e-08
3.47513727e-08
0.452156695
0.230675188
3.5617351e-08
3.62035068e-08
0.392485575
0.201629518
3.71955589e-08
3.77443907e-08
0.332525238
0.173512237
3.87945048e-08
3.92878957e-08
0.284405311
0.147159817
4.04199971e-08
4.0986626e-08
0.242010404
0.125109733
4.23240887e-08
4.2853674e-08
0.207414893
0.105772101
4.41902992e-08
4.46824257e-08
0.174956221
0.0916034887
4.62016026e-08
4.67003939e-08
0.150242151
0.0795544324
4.86973417e-08
4.89428913e-08
0.126844367
0.0687515179
5.09506172e-08
5.11143375e-08
0.105700982
0.059132312
5.3406396e-08
5.3562963e-08
0.0874219313
0.0520563799
5.55487923e-08
5.57988849e-08
0.0788810924
0.0472897673
5.74342668e-08
5.77057602e-08
0.0734505036
0.0446385031
5.97089161e-08
6.00513512e-08
0.0671850263
0.0415686302
6.2077419e-08
6.23622378e-08
0.0588962848
0.0387688833
6.42066977e-08
6.44474304e-08
0.0510065908
0.0364050984
6.63442761e-08
6.66766958e-08
0.0460814001
0.0353427407
6.86319353e-08
6.90255013e-08
0.0449899815
0.033369118
7.07649233e-08
7.11055822e-08
0.0438108989
0.0332741356
7.26512033e-08
7.29629276e-08
0.0428138212
0.0332725862
7.44554233e-08
7.48991422e-08
0.0418696654
0.0325231614
7.67272452e-08
7.71639173e-08
0.0407507857
0.0307993211
7.87220137e-08
7.91911729e-08
0.0396476363
0.0286834822
8.03978934e-08
8.09166816e-08
0.038944135
0.0262614969
8.18274686e-08
8.2353048e-08
0.0340320996
0.0243246163
8.33033766e-08
8.3585982e-08
0.0248456196
0.0243417373
8.60852599e-08
8.61571487e-08
0.0155885878
0.0220763938
8.89705325e-08
8.86908377e-08
0.0131027279
0.0181893944
9.11836895e-08
9.08911538e-08
0.0115202446
0.0151790186
9.29069328e-08
9.26888348e-08
0.0104132396
0.0135733258
9.4272219e-08
9.4165021e-08
0.00974132354
0.0122084144
9.53855878e-08
9.53490962e-08
0.00935716782
0.0110663033
9.62728578e-08
9.62347483e-08
0.00910597097
0.0103824175
9.6977762e-08
9.69325862e-08
0.00890513524
0.0100704231
9.75367994e-08
9.74742753e-08
0.00864209714
0.00985186002
9.7966568e-08
9.79136846e-08
0.00842307075
0.0090986638
9.82700765e-08
9.84174461e-08
0.00846564707
0.00633781406
9.84667104e-08
0.00169053283
0.00842474262
9.93212152e-08
9.87562186e-08
0.00467529592
0.00824594495
9.91998341e-08
9.9007424e-08
0.00605129193
0.00788495563
9.93379657e-08
9.92153537e-08
0.00615089933
0.00742027781
9.9490297e-08
9.93809208e-08
0.00585544612
0.00689209924
9.96158993e-08
9.95100924e-08
0.00538374974
0.00632650904
9.97152709e-08
9.96082134e-08
0.00479542657
0.00575143445
9.97931251e-08
9.96784379e-08
0.00411069
0.00519083278
9.98610202e-08
9.97251795e-08
0.00317625182
0.00466142072
1.00013183e-07
9.97528521e-08
0.00221274273
0.00415292832
0.00166276809
9.97724101e-08
1.00074824e-07
0.00367287507
0.00236054282
9.97769946e-08
9.98180063e-08
0.00319402108
0.00260917241
9.97715682e-08
9.97752889e-08
0.00281212642
0.0025514479
9.97546245e-08
9.97456509e-08
0.00248259447
0.00238749939
9.97351755e-08
9.97363282e-08
0.00222856121
0.00192949601
9.97048399e-08
9.98553214e-08
0.00201646813
0.000793789061
9.96692716e-08
0.000632479476
0.00183291808
9.97282375e-08
9.96385717e-08
0.00115266576
0.00165952863
9.96648026e-08
9.96116268e-08
0.00119338075
0.00149396115
9.96285829e-08
9.95879484e-08
0.00111846841
0.00133653895
9.96015295e-08
9.95670243e-08
0.00100284575
0.00119261942
9.95791557e-08
9.95487088e-08
0.000888394113
0.00105632002
9.95593371e-08
9.95337969e-08
0.000788081991
0.000919160041
9.9540931e-08
9.95267082e-08
0.000711531752
0.000714922976
9.9522623e-08
9.95649628e-08
0.00065437031
0.000324139728
9.95065078e-08
0.000234345769
0.000601231772
9.95196654e-08
9.94940594e-08
0.000420635994
0.000545902922
9.94972515e-08
9.94848651e-08
0.000440380709
0.000484919414
9.94852151e-08
9.94788392e-08
0.000413362972
0.000409671421
9.94765687e-08
9.94780679e-08
0.000373909799
0.000305007357
9.94708157e-08
9.95034929e-08
0.000333033808
6.76086097e-05
9.94658919e-08
0.000139587662
0.000293007087
9.94732126e-08
9.94629797e-08
0.000216539009
0.000252774127
9.94640619e-08
9.94610532e-08
0.000219873399
0.000215025454
9.94594186e-08
9.94592817e-08
0.000208254247
0.000179967916
9.94569189e-08
9.94583796e-08
0.000186344957
0.000151836118
9.94552124e-08
9.94579978e-08
0.00016164002
0.000119266092
9.94545638e-08
9.94583441e-08
0.00013689227
8.28746969e-05
9.94548936e-08
9.94609711e-08
0.000105698527
4.14208568e-05
9.94605727e-08
8.71974978e-06
5.316343e-05
9.9461387e-08
3.4174358e-05
2.57947825e-05
9.94573247e-08
9.94589489e-08
5.62206485e-05
2.90174298e-05
9.94552336e-08
9.94578895e-08
5.71855279e-05
2.73070357e-05
9.94549113e-08
9.94573782e-08
4.77645601e-05
2.26036721e-05
9.9455338e-08
9.94572369e-08
3.50794412e-05
1.64161374e-05
9.94559822e-08
9.94573151e-08
2.22178169e-05
9.69438325e-06
9.94566647e-08
9.94575157e-08
1.05066222e-05
2.9600554e-06
9.94571871e-08
9.94574557e-08
1.35189919e-06
9.94564945e-08
9.94564264e-08
9.9455746e-08
9.94554474e-08
9.94549776e-08
9.94547687e-08
9.94544043e-08
9.94541537e-08
9.94538614e-08
9.94536635e-08
9.94534211e-08
9.9453242e-08
9.94530472e-08
9.94528953e-08
9.94527375e-08
9.94526071e-08
9.94524809e-08
9.9452371e-08
9.94522704e-08
9.94521784e-08
9.94520986e-08
9.94520225e-08
9.94519593e-08
9.94518971e-08
9.94518472e-08
9.94517967e-08
9.94517573e-08
9.94517167e-08
9.94516858e-08
9.94516534e-08
9.94516292e-08
9.94516036e-08
9.94515847e-08
9.94515646e-08
9.945155e-08
9.94515344e-08
9.9451523e-08
9.9451511e-08
9.94515023e-08
9.94514931e-08
9.94514866e-08
9.94514796e-08
9.94514747e-08
9.94514695e-08
9.94514659e-08
9.9451462e-08
9.94514594e-08
9.94514566e-08
9.94514547e-08
9.94514528e-08
9.94514515e-08
9.94514501e-08
9.94514492e-08
9.94514483e-08
9.94514478e-08
9.94514472e-08
9.94514469e-08
9.94514466e-08
9.94514465e-08
9.94514464e-08
9.94514463e-08
9.94514463e-08
9.94514464e-08
9.94514465e-08
9.94514466e-08
9.94514467e-08
9.94514468e-08
9.9451447e-08
9.94514471e-08
9.94514473e-08
9.94514475e-08
9.94514476e-08
9.94514478e-08
9.94514479e-08
9.94514481e-08
9.94514482e-08
9.94514484e-08
9.94514485e-08
9.94514486e-08
9.94514488e-08
9.94514489e-08
9.9451449e-08
9.94514491e-08
9.94514492e-08
9.94514493e-08
9.94514494e-08
9.94514494e-08
9.94514495e-08
9.94514496e-08
9.94514496e-08
9.94514497e-08
9.94514498e-08
9.94514498e-08
9.94514498e-08
9.94514499e-08
9.94514499e-08
9.945145e-08
9.945145e-08
9.945145e-08
9.945145e-08
9.94514501e-08
9.94514501e-08
9.94514501e-08
9.94514501e-08
9.94514501e-08
9.94514502e-08
9.94514502e-08
9.94514502e-08
9.94514502e-08
9.94514502e-08
9.94514502e-08
9.94514502e-08
9.94514502e-08
9.94514502e-08
9.94514502e-08
9.94514503e-08
9.94514503e-08
9.94514503e-08
9.94514503e-08
9.94514503e-08
9.94514503e-08
9.94514503e-08
9.94514503e-08
9.94514503e-08
9.94514503e-08
9.94514503e-08
9.94514503e-08
9.94514503e-08
9.94514503e-08
9.94514503e-08
9.94514503e-08
9.94514503e-08
9.94514503e-08
9.94514503e-08
9.94514503e-08
9.94514503e-08
9.94514503e-08
9.94514503e-08
9.94514503e-08
9.94514503e-08
9.94514503e-08
9.94514503e-08
9.94514503e-08
9.94514503e-08
9.94514503e-08
9.94514503e-08
9.94514503e-08
9.94514503e-08
9.94514503e-08
9.94514503e-08
9.94514503e-08
9.94514503e-08
9.94514503e-08
9.94514503e-08
9.94514503e-08
9.94514503e-08
9.94514503e-08
9.94514503e-08
9.94514503e-08
9.94514503e-08
9.94514503e-08
9.94514503e-08
9.94514503e-08
9.94514503e-08
9.94514503e-08
9.94514503e-08
9.94514503e-08
9.94514503e-08
9.94514503e-08
9.94514503e-08
9.94514503e-08
9.94514503e-08
9.94514503e-08
9.94514503e-08
9.94514503e-08
9.94514503e-08
9.94514503e-08
9.94514503e-08
9.94514503e-08
9.94514503e-08
9.94514503e-08
9.94514503e-08
9.94514503e-08
9.94514503e-08
9.94514503e-08
9.94514503e-08
9.94514503e-08
9.94514503e-08
9.94514503e-08
9.94514503e-08
9.94514503e-08
9.94514503e-08
9.94514503e-08
9.94514503e-08
9.94514503e-08
)
;

boundaryField
{
    closed
    {
        type            calculated;
        value           nonuniform List<scalar> 0();
    }
    open
    {
        type            calculated;
        value           uniform 0;
    }
    sides
    {
        type            empty;
    }
    procBoundary5to4
    {
        type            processor;
        value           uniform 0;
    }
}


// ************************************************************************* //
