/*--------------------------------*- C++ -*----------------------------------*\
| =========                 |                                                 |
| \\      /  F ield         | OpenFOAM: The Open Source CFD Toolbox           |
|  \\    /   O peration     | Version:  2306                                  |
|   \\  /    A nd           | Website:  www.openfoam.com                      |
|    \\/     M anipulation  |                                                 |
\*---------------------------------------------------------------------------*/
FoamFile
{
    version     2.0;
    format      ascii;
    arch        "LSB;label=32;scalar=64";
    class       volScalarField;
    location    "0.00026";
    object      Z;
}
// * * * * * * * * * * * * * * * * * * * * * * * * * * * * * * * * * * * * * //

dimensions      [0 0 0 0 0 0 0];

internalField   nonuniform List<scalar> 
530
(
0.0144958073
0.014470001
0.0144617348
0.014461711
0.0144617069
0.0144617069
0.0144617069
0.0144617069
0.0144617069
0.0144617069
0.0144617069
0.0144617069
0.0144617069
0.0144617069
0.0144617069
0.0144617069
0.0144617069
0.0144617069
0.0144617069
0.0144617069
0.0144617069
0.0144617069
0.0144617069
0.0144617069
0.0144617069
0.0144617069
0.0144617069
0.0144617069
0.0144617069
0.0144617069
0.0144617069
0.0144617069
0.0144617069
0.0144617069
0.0144617069
0.0144617069
0.0144617069
0.0144617069
0.0144617069
0.0144617069
0.0144617069
0.0144617069
0.0144617069
0.0144617069
0.0144617069
0.0144617069
0.0144617069
0.0144617069
0.0144617069
0.0144617069
0.0144617069
0.0144617069
0.0144617069
0.0144617069
0.0144617069
0.0144617069
0.0144617069
0.0144617069
0.0144617069
0.0144617069
0.0144617069
0.0144617069
0.0144617069
0.0144617069
0.0144617069
0.0144617069
0.0144617069
0.0144617069
0.0144617069
0.0144617069
0.0144617069
0.0144617069
0.0144617069
0.0144617069
0.0144617069
0.0144617069
0.0144617069
0.0144617069
0.0144617069
0.0144617069
0.0144617069
0.0144617069
0.0144617069
0.0144617069
0.0144617069
0.0144617069
0.0144617069
0.0144617069
0.0144617069
0.0144617069
0.014461707
0.0144617072
0.0144617061
0.0144617044
0.0144617117
0.014461723
0.0144616842
0.0144616269
0.0144617827
0.014462011
0.0144615425
0.0144608547
0.0144618643
0.0144633962
0.0144619291
0.0144595085
0.0144608574
0.0144638575
0.0144630279
0.0144598102
0.0144600477
0.0144632852
0.01446357
0.0144607139
0.0144593892
0.0144619029
0.0144647807
0.0144628047
0.0144576677
0.0144585249
0.0144667722
0.0144668004
0.0144569359
0.0144545805
0.0144649321
0.01447068
0.014461473
0.0144514591
0.0144576789
0.0144722498
0.0144703439
0.0144521064
0.0144508314
0.0144672346
0.014473875
0.0144612816
0.0144489199
0.0144567075
0.0144743713
0.0144718331
0.0144498999
0.0144493534
0.0144697066
0.0144752023
0.0144581922
0.0144478903
0.0144607635
0.0144747529
0.0144665286
0.0144503048
0.0144540524
0.0144708532
0.0144699939
0.0144556001
0.0144547957
0.0144646269
0.0144665526
0.014460785
0.0144590748
0.0144619504
0.0144625965
0.014461166
0.0144616413
0.0144633059
0.0144616132
0.0144591001
0.0144615082
0.0144649042
0.0144622465
0.0144582669
0.0144610286
0.0144653705
0.0144624336
0.0144575351
0.0144606714
0.0144666511
0.0144637028
0.0144560489
0.014458034
0.0144675309
0.0144670179
0.0144568426
0.014455809
0.0144640863
0.014467422
0.0144621921
0.0144568547
0.0144587187
0.014465408
0.0144652901
0.0144599828
0.0144583572
0.0144619343
0.0144646473
0.0144621879
0.0144591575
0.0144610872
0.0144640182
0.014462183
0.0144593444
0.0144614946
0.0144644788
0.0144616494
0.0144581814
0.0144618837
0.0144663189
0.0144618337
0.0144557561
0.0144606401
0.014469048
0.014464633
0.0144530978
0.0144561177
0.0144710441
0.014470183
0.0144525905
0.0144513988
0.0144686238
0.0144733737
0.0144578784
0.0144492299
0.0144619809
0.014474275
0.0144651037
0.0144495836
0.0144550164
0.0144727458
0.0144710038
0.0144520391
0.0144520669
0.0144684045
0.0144709909
0.0144578337
0.0144531612
0.0144631471
0.0144692532
0.0144623342
0.014455257
0.0144593551
0.0144669846
0.0144656272
0.0144575156
0.0144575712
0.0144637846
0.0144656925
0.0144617308
0.0144580295
0.0144599489
0.0144648621
0.0144644485
0.0144594222
0.0144590188
0.0144627498
0.0144637667
0.0144615417
0.0144606536
0.0144616162
0.0144617533
0.0144613065
0.0144623246
0.0144631768
0.0144609443
0.0144592433
0.0144620087
0.0144646425
0.0144621148
0.0144589932
0.0144608682
0.0144636455
0.014462421
0.0144605435
0.0144616005
0.0144626884
0.014460984
0.0144601705
0.01446312
0.0144642179
0.0144601445
0.0144582077
0.0144627466
0.0144658941
0.0144617351
0.01445726
0.0144603213
0.0144659126
0.0144644671
0.0144582354
0.0144584143
0.0144633888
0.0144646377
0.0144627014
0.0144595717
0.0144594314
0.0144613428
0.0144645322
0.0144643435
0.0144592806
0.0144576896
0.0144627745
0.0144664759
0.0144623088
0.0144568635
0.0144595729
0.0144660071
0.0144647566
0.0144583684
0.0144586083
0.0144639328
0.0144641437
0.0144604076
0.0144599596
0.0144626917
0.0144630784
0.0144605871
0.0144602785
0.014463121
0.0144635413
0.0144600928
0.0144592924
0.0144633185
0.0144647564
0.0144602973
0.0144580062
0.0144627233
0.0144660764
0.0144613237
0.0144566687
0.0144611341
0.0144673639
0.0144635872
0.0144555776
0.0144581724
0.0144680644
0.0144671606
0.0144554169
0.0144551149
0.0144665004
0.0144693723
0.0144593285
0.014453059
0.0144605981
0.014470877
0.0144677497
0.0144525237
0.014452622
0.0144671382
0.0144725707
0.0144625374
0.0144504413
0.0144536028
0.0144713761
0.0144732566
0.0144588282
0.014448713
0.0144561525
0.0144742558
0.0144732057
0.0144530242
0.0144476672
0.0144639294
0.01447653
0.0144661809
0.0144472426
0.0144512541
0.0144748754
0.0144745346
0.0144525315
0.0144482488
0.0144662706
0.0144747668
0.0144613684
0.0144498028
0.0144587186
0.0144718312
0.0144668742
0.0144535892
0.0144554295
0.0144679917
0.0144677193
0.0144574155
0.0144564145
0.0144642884
0.014466516
0.0144605731
0.0144571102
0.014461281
0.0144661533
0.0144640258
0.0144575676
0.0144579254
0.0144647493
0.0144661266
0.0144605372
0.0144569689
0.0144610222
0.0144665281
0.0144640243
0.0144569167
0.014457977
0.0144664263
0.0144662809
0.0144575141
0.0144566119
0.0144650221
0.0144671483
0.0144594461
0.0144561621
0.0144628209
0.0144670393
0.0144617033
0.014456814
0.0144607722
0.0144660169
0.0144634033
0.014457994
0.0144593631
0.0144648376
0.0144644804
0.0144593304
0.0144589683
0.0144628391
0.0144642271
0.0144619526
0.0144597606
0.0144603034
0.014462593
0.0144630736
0.0144625894
0.0144611044
0.0144600513
0.0144604898
0.0144632206
0.0144642263
0.0144621213
0.0144585781
0.0144588935
0.0144639221
0.0144660977
0.0144623926
0.0144564775
0.0144575707
0.0144666484
0.0144677508
0.0144591647
0.014454769
0.0144613296
0.0144684598
0.0144645318
0.0144559437
0.0144576555
0.0144660755
0.0144655675
0.0144585511
0.0144587495
0.0144645218
0.0144641395
0.0144580425
0.0144586444
0.0144671035
0.0144668384
0.0144546911
0.0144537313
0.0144687374
0.0144730407
0.0144568022
0.0144473357
0.0144621992
0.0144778759
0.0144674034
0.0144452676
0.0144491926
0.0144767489
0.0144766733
0.0144522769
0.0144463529
0.0144650265
0.0144758476
0.0144635353
0.0144495969
0.0144564177
0.0144716336
0.0144690251
0.0144535256
0.0144538805
0.0144679147
0.0144696747
0.0144576192
0.0144532695
0.0144634013
0.014470635
0.0144630893
0.0144527022
0.0144568214
0.0144700182
0.0144691375
0.0144552454
0.014453615
0.0144652181
0.0144697905
0.0144606435
0.0144536911
0.0144609938
0.0144701118
0.0144640206
0.014452371
0.0144573165
0.0144723298
0.0144688514
0.0144499576
0.0144512012
0.0144743485
0.0144743572
0.0144496294
0.0144468568
0.014472887
0.0144795237
0.0144522453
0.01443998
0.0144672459
0.0144879184
0.0144638049
0.0144317955
0.0144488484
0.0144919233
0.0144864754
0.0144339378
0.0144323351
0.0144782972
0.0144908058
0.0144577233
)
;

boundaryField
{
    closed
    {
        type            zeroGradient;
    }
    open
    {
        type            zeroGradient;
    }
    sides
    {
        type            empty;
    }
    procBoundary0to1
    {
        type            processor;
        value           uniform 0.0144357124;
    }
}


// ************************************************************************* //
