/*--------------------------------*- C++ -*----------------------------------*\
| =========                 |                                                 |
| \\      /  F ield         | OpenFOAM: The Open Source CFD Toolbox           |
|  \\    /   O peration     | Version:  2306                                  |
|   \\  /    A nd           | Website:  www.openfoam.com                      |
|    \\/     M anipulation  |                                                 |
\*---------------------------------------------------------------------------*/
FoamFile
{
    version     2.0;
    format      ascii;
    arch        "LSB;label=32;scalar=64";
    class       volScalarField;
    location    "0.00016";
    object      alpha;
}
// * * * * * * * * * * * * * * * * * * * * * * * * * * * * * * * * * * * * * //

dimensions      [1 -1 -1 0 0 0 0];

internalField   nonuniform List<scalar> 
3810
(
3.52522947e-05
3.53511137e-05
3.57283342e-05
3.68265765e-05
3.68183022e-05
3.53631692e-05
3.56298215e-05
3.68349088e-05
3.68174165e-05
3.54002336e-05
3.56178305e-05
3.68352199e-05
3.6812929e-05
3.54211226e-05
3.56698764e-05
3.68347634e-05
3.68091722e-05
3.52082015e-05
3.52062687e-05
3.53984448e-05
3.53958752e-05
3.55398485e-05
3.5540697e-05
3.58397001e-05
3.68311543e-05
3.68305286e-05
3.56328064e-05
3.53897777e-05
3.57592655e-05
3.67880156e-05
3.68247648e-05
3.52067003e-05
3.53333629e-05
3.68075334e-05
3.68090454e-05
3.6766948e-05
3.68136799e-05
3.49223777e-05
3.49095647e-05
3.59234943e-05
3.68083168e-05
3.68414049e-05
3.52647555e-05
3.55081945e-05
3.68248734e-05
3.68499444e-05
3.52717617e-05
3.57344371e-05
3.68525824e-05
3.56112793e-05
3.54349317e-05
3.68409427e-05
3.68597037e-05
3.52842158e-05
3.57147383e-05
3.68641119e-05
3.56021963e-05
3.53532559e-05
3.6841752e-05
3.68654748e-05
3.5260828e-05
3.57111733e-05
3.68663758e-05
3.56259438e-05
3.53163982e-05
3.68384864e-05
3.68685422e-05
3.52874666e-05
3.57093281e-05
3.68636821e-05
3.56733084e-05
3.53077392e-05
3.68367929e-05
3.68687597e-05
3.53183956e-05
3.57119215e-05
3.68485228e-05
3.57012347e-05
3.52764098e-05
3.68473176e-05
3.68354823e-05
3.51941154e-05
3.51711796e-05
3.68148215e-05
3.68360759e-05
3.52139325e-05
3.51597798e-05
3.68078789e-05
3.6833455e-05
3.52736683e-05
3.52029495e-05
3.52357905e-05
3.55066797e-05
3.68025059e-05
3.68299249e-05
3.54175474e-05
3.52897762e-05
3.50856128e-05
3.54918296e-05
3.68268089e-05
3.67982085e-05
3.68085457e-05
3.54964198e-05
3.53551712e-05
3.68227906e-05
3.68145135e-05
3.55261208e-05
3.54231567e-05
3.68383696e-05
3.68355257e-05
3.54676091e-05
3.53938754e-05
3.68292954e-05
3.68425595e-05
3.5450047e-05
3.53779577e-05
3.68282667e-05
3.68437638e-05
3.54371401e-05
3.53733855e-05
3.68278457e-05
3.68413457e-05
3.54314212e-05
3.5374282e-05
3.68331876e-05
3.68350466e-05
3.54350076e-05
3.53451437e-05
3.68385478e-05
3.68293306e-05
3.54959976e-05
3.52345234e-05
3.55360328e-05
3.54005483e-05
3.57191105e-05
3.68395339e-05
3.68296196e-05
3.57032415e-05
3.52449676e-05
3.56838291e-05
3.68475862e-05
3.6841092e-05
3.58517225e-05
3.5529745e-05
3.57230911e-05
3.68381846e-05
3.6888683e-05
3.5478536e-05
3.55692089e-05
3.68591111e-05
3.68750594e-05
3.54929345e-05
3.57430494e-05
3.68780431e-05
3.68170775e-05
3.56850908e-05
3.51714889e-05
3.53534665e-05
3.51518594e-05
3.54637101e-05
3.68605049e-05
3.68328897e-05
3.57708389e-05
3.52867962e-05
3.53795472e-05
3.58455057e-05
3.68291241e-05
3.69110245e-05
3.53620371e-05
3.56946263e-05
3.6840258e-05
3.60583755e-05
3.52460002e-05
3.53268443e-05
3.55672057e-05
3.57485967e-05
3.68281873e-05
3.69077456e-05
3.54847236e-05
3.57112717e-05
3.68408781e-05
3.62546182e-05
3.53024546e-05
3.52962404e-05
3.56230502e-05
3.57832435e-05
3.68289744e-05
3.68839914e-05
3.5574886e-05
3.56704931e-05
3.68399518e-05
3.68751231e-05
3.54873904e-05
3.57802672e-05
3.68626784e-05
3.6816439e-05
3.58853822e-05
3.52110673e-05
3.52806151e-05
3.55207785e-05
3.57734763e-05
3.68235162e-05
3.68635108e-05
3.5374193e-05
3.57552248e-05
3.68222808e-05
3.68269243e-05
3.63078694e-05
3.53904427e-05
3.57200662e-05
3.68238334e-05
3.68851685e-05
3.68400831e-05
3.575377e-05
3.49940061e-05
3.52162696e-05
3.53720401e-05
3.57803317e-05
3.68238224e-05
3.62481549e-05
3.51505156e-05
3.51193533e-05
3.58132813e-05
3.68023796e-05
3.64521954e-05
3.51295888e-05
3.51027197e-05
3.57980048e-05
3.6801241e-05
3.6751106e-05
3.53196451e-05
3.57864735e-05
3.68204619e-05
3.66336941e-05
3.50954397e-05
3.50859711e-05
3.54446324e-05
3.5785094e-05
3.67809203e-05
3.68294372e-05
3.67894835e-05
3.54977104e-05
3.57995303e-05
3.68316624e-05
3.67536385e-05
3.52793725e-05
3.52773859e-05
3.57815073e-05
3.68006833e-05
3.67668622e-05
3.54220846e-05
3.5422511e-05
3.57722907e-05
3.6815461e-05
3.67607058e-05
3.53671236e-05
3.53739543e-05
3.57192487e-05
3.68239219e-05
3.67811883e-05
3.54302649e-05
3.56831252e-05
3.68384939e-05
3.67755787e-05
3.53068908e-05
3.53094864e-05
3.52515788e-05
3.55124663e-05
3.68570843e-05
3.68435355e-05
3.68527555e-05
3.68380845e-05
3.68407847e-05
3.68291183e-05
3.54304004e-05
3.50647114e-05
3.52061376e-05
3.6853923e-05
3.68216091e-05
3.55901204e-05
3.5220761e-05
3.53901683e-05
3.5139026e-05
3.51924056e-05
3.68355176e-05
3.6835865e-05
3.55455667e-05
3.54295284e-05
3.68494756e-05
3.68319602e-05
3.5521419e-05
3.54187055e-05
3.68656544e-05
3.68283115e-05
3.57140816e-05
3.54093103e-05
3.51698241e-05
3.52158669e-05
3.68508483e-05
3.68174595e-05
3.68045391e-05
3.57624053e-05
3.51224959e-05
3.51987309e-05
3.68638602e-05
3.68065928e-05
3.57465956e-05
3.51092923e-05
3.5201533e-05
3.68489834e-05
3.68330211e-05
3.5545138e-05
3.55348892e-05
3.68719323e-05
3.68269514e-05
3.68188491e-05
3.57921019e-05
3.54676198e-05
3.5456367e-05
3.53871813e-05
3.50781097e-05
3.51413349e-05
3.68471429e-05
3.68199042e-05
3.57416494e-05
3.558917e-05
3.68401455e-05
3.6807077e-05
3.5518037e-05
3.55353613e-05
3.6839755e-05
3.68011201e-05
3.68015075e-05
3.67931662e-05
3.60607072e-05
3.50011651e-05
3.51057952e-05
3.6862445e-05
3.68032582e-05
3.54134067e-05
3.53296731e-05
3.68762836e-05
3.67972325e-05
3.57288207e-05
3.52161323e-05
3.5293108e-05
3.47871353e-05
3.48824674e-05
3.68584175e-05
3.67840869e-05
3.57368634e-05
3.47826486e-05
3.51442368e-05
3.68267663e-05
3.67951654e-05
3.67989164e-05
3.56677748e-05
3.53776379e-05
3.68599009e-05
3.67850158e-05
3.53938131e-05
3.53802309e-05
3.68703882e-05
3.68095558e-05
3.57122188e-05
3.51661689e-05
3.5174794e-05
3.57557662e-05
3.6855591e-05
3.68527839e-05
3.68445439e-05
3.68285432e-05
3.55359291e-05
3.53848493e-05
3.68974772e-05
3.67917245e-05
3.55684253e-05
3.51573422e-05
3.53574509e-05
3.50220892e-05
3.56655362e-05
3.68504755e-05
3.68427689e-05
3.68467955e-05
3.68223444e-05
3.56780356e-05
3.56587262e-05
3.68755442e-05
3.68155994e-05
3.56757107e-05
3.52964522e-05
3.53639817e-05
3.59641187e-05
3.68035304e-05
3.56587828e-05
3.57007852e-05
3.68729192e-05
3.67908865e-05
3.56958181e-05
3.53575077e-05
3.53120312e-05
3.53936537e-05
3.67167672e-05
3.67746332e-05
3.55141844e-05
3.57454542e-05
3.68440815e-05
3.68080635e-05
3.56027466e-05
3.52873129e-05
3.53846825e-05
3.52926044e-05
3.52405504e-05
3.58337788e-05
3.68367307e-05
3.68166308e-05
3.6820664e-05
3.68423433e-05
3.54534112e-05
3.54453555e-05
3.57458934e-05
3.5570947e-05
3.525229e-05
3.5718099e-05
3.68096357e-05
3.68068083e-05
3.6835643e-05
3.49680619e-05
3.50926438e-05
3.68078028e-05
3.67890056e-05
3.67754394e-05
3.67886982e-05
3.67913223e-05
3.53811002e-05
3.52183666e-05
3.53692201e-05
3.56801828e-05
3.68458737e-05
3.68503597e-05
3.55909024e-05
3.57257694e-05
3.68617475e-05
3.68272875e-05
3.68493896e-05
3.68463433e-05
3.53534517e-05
3.53043952e-05
3.53819771e-05
3.57065547e-05
3.68381643e-05
3.6855288e-05
3.52559654e-05
3.49810004e-05
3.56170623e-05
3.68615969e-05
3.68418504e-05
3.57190116e-05
3.53954032e-05
3.56601441e-05
3.68374266e-05
3.68879177e-05
3.52470237e-05
3.56900807e-05
3.68554295e-05
3.56406406e-05
3.51112564e-05
3.56648805e-05
3.68444244e-05
3.6869669e-05
3.53664144e-05
3.52416902e-05
3.570531e-05
3.68614839e-05
3.68408863e-05
3.5609961e-05
3.53613254e-05
3.56721415e-05
3.68300168e-05
3.68777228e-05
3.53076933e-05
3.569026e-05
3.68378261e-05
3.56606501e-05
3.51138277e-05
3.56828528e-05
3.68343776e-05
3.68501109e-05
3.55438153e-05
3.51793656e-05
3.56852418e-05
3.68233015e-05
3.68400214e-05
3.56198146e-05
3.56171938e-05
3.68193504e-05
3.68204105e-05
3.68232164e-05
3.68535362e-05
3.53539919e-05
3.49961914e-05
3.52151295e-05
3.57336433e-05
3.67927075e-05
3.68416005e-05
3.54838462e-05
3.51637497e-05
3.67895794e-05
3.68286024e-05
3.52849085e-05
3.48882368e-05
3.47679364e-05
3.49312612e-05
3.68021814e-05
3.68023709e-05
3.68087736e-05
3.55376802e-05
3.50806898e-05
3.51916523e-05
3.53522064e-05
3.67931083e-05
3.68120174e-05
3.57604272e-05
3.56110951e-05
3.67722507e-05
3.68360717e-05
3.68008882e-05
3.68504306e-05
3.55851196e-05
3.51060877e-05
3.51587913e-05
3.53144057e-05
3.68014363e-05
3.68292521e-05
3.56972559e-05
3.55864902e-05
3.67760409e-05
3.67968321e-05
3.6790516e-05
3.67908143e-05
3.68119423e-05
3.68350473e-05
3.53105362e-05
3.50339803e-05
3.51678655e-05
3.54171812e-05
3.67987873e-05
3.68279984e-05
3.55642378e-05
3.539905e-05
3.68081213e-05
3.68298287e-05
3.53469944e-05
3.5004998e-05
3.53342569e-05
3.51734891e-05
3.56914867e-05
3.67978705e-05
3.68755997e-05
3.68056686e-05
3.68874257e-05
3.53531492e-05
3.55539473e-05
3.68571225e-05
3.56996315e-05
3.53308307e-05
3.68515833e-05
3.68239496e-05
3.52698801e-05
3.50304954e-05
3.56858196e-05
3.68370813e-05
3.68470196e-05
3.52789525e-05
3.51561168e-05
3.5715561e-05
3.68274894e-05
3.68403378e-05
3.5483695e-05
3.56651882e-05
3.68203623e-05
3.68367998e-05
3.54555765e-05
3.56453973e-05
3.68194026e-05
3.6825316e-05
3.68103587e-05
3.68184045e-05
3.68108117e-05
3.50139492e-05
3.48807972e-05
3.53673524e-05
3.52549521e-05
3.57348048e-05
3.68027215e-05
3.68375509e-05
3.5140208e-05
3.51360545e-05
3.53966561e-05
3.53971113e-05
3.54793854e-05
3.55537027e-05
3.5540968e-05
3.58034841e-05
3.68380617e-05
3.68364466e-05
3.56833983e-05
3.57604373e-05
3.68501795e-05
3.67888083e-05
3.68350259e-05
3.68071325e-05
3.54082836e-05
3.55437848e-05
3.6847898e-05
3.68043268e-05
3.53910501e-05
3.55890419e-05
3.68481034e-05
3.68079996e-05
3.5406847e-05
3.56020022e-05
3.68473166e-05
3.68088359e-05
3.54403888e-05
3.56167833e-05
3.68463659e-05
3.680942e-05
3.54668344e-05
3.56629856e-05
3.68474604e-05
3.68127427e-05
3.52978696e-05
3.51141776e-05
3.57362235e-05
3.6821625e-05
3.684352e-05
3.52308375e-05
3.51895755e-05
3.54305264e-05
3.54541972e-05
3.55411541e-05
3.55406827e-05
3.58054614e-05
3.68288477e-05
3.68142802e-05
3.68147404e-05
3.68328291e-05
3.55627946e-05
3.56349362e-05
3.68102983e-05
3.68324805e-05
3.67991669e-05
3.54859334e-05
3.50473833e-05
3.54218244e-05
3.5473778e-05
3.53669628e-05
3.57229713e-05
3.68670233e-05
3.68466024e-05
3.55599391e-05
3.52599233e-05
3.53165273e-05
3.56898185e-05
3.68087761e-05
3.68676389e-05
3.67887152e-05
3.57232333e-05
3.56303554e-05
3.66983771e-05
3.68093176e-05
3.67973062e-05
3.68227234e-05
3.57930662e-05
3.53156843e-05
3.5343935e-05
3.57078141e-05
3.64466439e-05
3.68325651e-05
3.57403303e-05
3.55390335e-05
3.62749283e-05
3.61200224e-05
3.50579185e-05
3.50776577e-05
3.52294934e-05
3.52050306e-05
3.5466283e-05
3.61114652e-05
3.68224149e-05
3.68477468e-05
3.67894734e-05
3.57553578e-05
3.53920924e-05
3.58900547e-05
3.67933691e-05
3.58686776e-05
3.5453941e-05
3.59356999e-05
3.68179547e-05
3.67864759e-05
3.5928401e-05
3.55296849e-05
3.58307482e-05
3.67879482e-05
3.61511238e-05
3.51919823e-05
3.53200383e-05
3.59118889e-05
3.6778348e-05
3.67878786e-05
3.6255028e-05
3.51965339e-05
3.52092383e-05
3.54150929e-05
3.53328281e-05
3.53284274e-05
3.52962837e-05
3.52319808e-05
3.57111671e-05
3.68433655e-05
3.68446081e-05
3.68257747e-05
3.68247569e-05
3.67820181e-05
3.68097767e-05
3.67160516e-05
3.50439283e-05
3.50066342e-05
3.56953318e-05
3.68117675e-05
3.66706695e-05
3.52806328e-05
3.56130525e-05
3.68213454e-05
3.67517276e-05
3.50875965e-05
3.49543684e-05
3.56012296e-05
3.6812068e-05
3.67324404e-05
3.51846202e-05
3.55738691e-05
3.68402053e-05
3.6794813e-05
3.68251261e-05
3.67613231e-05
3.53494736e-05
3.51291808e-05
3.57112095e-05
3.67960504e-05
3.67889277e-05
3.49943067e-05
3.49764228e-05
3.50511984e-05
3.50342666e-05
3.49437317e-05
3.54756844e-05
3.68329852e-05
3.68388514e-05
3.68148583e-05
3.68296639e-05
3.67835421e-05
3.68279731e-05
3.6770044e-05
3.56987449e-05
3.53165345e-05
3.55238031e-05
3.53588054e-05
3.56919693e-05
3.68302183e-05
3.68271606e-05
3.55164963e-05
3.56659622e-05
3.68559985e-05
3.68212903e-05
3.55539353e-05
3.57440359e-05
3.68625818e-05
3.68141133e-05
3.56250195e-05
3.52311181e-05
3.51971568e-05
3.54371513e-05
3.68619044e-05
3.68332194e-05
3.53379777e-05
3.47966623e-05
3.54327535e-05
3.68034261e-05
3.68448754e-05
3.68190935e-05
3.6823451e-05
3.68345162e-05
3.54543264e-05
3.50794496e-05
3.51062645e-05
3.53550728e-05
3.68325102e-05
3.68337843e-05
3.54374381e-05
3.52313116e-05
3.51744274e-05
3.54053196e-05
3.68134434e-05
3.68362607e-05
3.68294186e-05
3.68406297e-05
3.68388966e-05
3.56905721e-05
3.52764429e-05
3.557286e-05
3.53165778e-05
3.56147286e-05
3.67832098e-05
3.6856813e-05
3.53441797e-05
3.50585473e-05
3.50319884e-05
3.50850361e-05
3.67793934e-05
3.68054028e-05
3.67939083e-05
3.68009421e-05
3.67966138e-05
3.62377135e-05
3.54132261e-05
3.53685662e-05
3.52861927e-05
3.52818164e-05
3.67489167e-05
3.68183999e-05
3.533618e-05
3.49924504e-05
3.6671569e-05
3.68202523e-05
3.67616511e-05
3.68181419e-05
3.6780894e-05
3.68179529e-05
3.61840069e-05
3.544457e-05
3.53246115e-05
3.53800266e-05
3.54121783e-05
3.5522193e-05
3.54541253e-05
3.5692032e-05
3.67703807e-05
3.68510394e-05
3.58077569e-05
3.56927987e-05
3.64791088e-05
3.6846144e-05
3.68109424e-05
3.56293256e-05
3.49810022e-05
3.56984767e-05
3.67653191e-05
3.6758181e-05
3.53638383e-05
3.57367111e-05
3.68019937e-05
3.57822348e-05
3.5479994e-05
3.65714422e-05
3.6612488e-05
3.54690602e-05
3.52000799e-05
3.50771729e-05
3.50387695e-05
3.58767855e-05
3.67992128e-05
3.61072889e-05
3.5693401e-05
3.52518767e-05
3.52217475e-05
3.59424234e-05
3.67939655e-05
3.67888168e-05
3.68056532e-05
3.64672309e-05
3.56906122e-05
3.57394139e-05
3.67538201e-05
3.68324879e-05
3.6354233e-05
3.5518405e-05
3.50835314e-05
3.57583748e-05
3.67850975e-05
3.68456407e-05
3.68258837e-05
3.60679375e-05
3.53568388e-05
3.5160263e-05
3.51550355e-05
3.50404752e-05
3.49415068e-05
3.57421958e-05
3.67566189e-05
3.6837e-05
3.6784841e-05
3.6786793e-05
3.60728463e-05
3.51981355e-05
3.50088743e-05
3.5941532e-05
3.68046416e-05
3.59765019e-05
3.55994591e-05
3.52866132e-05
3.52841938e-05
3.6714493e-05
3.68273567e-05
3.5802699e-05
3.57271638e-05
3.6735099e-05
3.58872962e-05
3.55110098e-05
3.66360036e-05
3.68304763e-05
3.58003003e-05
3.54041067e-05
3.65760528e-05
3.68375316e-05
3.5789235e-05
3.53719e-05
3.67247825e-05
3.68139729e-05
3.5751271e-05
3.50291993e-05
3.50765708e-05
3.67912206e-05
3.68044883e-05
3.5733524e-05
3.50820634e-05
3.5246771e-05
3.67976552e-05
3.68259834e-05
3.68280703e-05
3.56981002e-05
3.52827265e-05
3.53168299e-05
3.53138442e-05
3.67609774e-05
3.68314469e-05
3.57510646e-05
3.55190987e-05
3.67663245e-05
3.68402379e-05
3.5739596e-05
3.55125665e-05
3.67804583e-05
3.68364828e-05
3.56861757e-05
3.54478572e-05
3.54315748e-05
3.54663406e-05
3.68242449e-05
3.68311919e-05
3.56608209e-05
3.53056424e-05
3.55711357e-05
3.68016083e-05
3.68426387e-05
3.68263154e-05
3.68400837e-05
3.68474003e-05
3.54407535e-05
3.51873052e-05
3.53384616e-05
3.52863425e-05
3.5316725e-05
3.53740557e-05
3.53138998e-05
3.55680242e-05
3.6830534e-05
3.68539054e-05
3.55008716e-05
3.56039713e-05
3.68459318e-05
3.68416263e-05
3.53728031e-05
3.5715438e-05
3.68681073e-05
3.67997796e-05
3.68630952e-05
3.68038398e-05
3.54621741e-05
3.56986549e-05
3.68540239e-05
3.68081108e-05
3.5396947e-05
3.52275413e-05
3.57120336e-05
3.68253042e-05
3.67955182e-05
3.55448734e-05
3.57641542e-05
3.68414501e-05
3.67648616e-05
3.54068166e-05
3.57138097e-05
3.68369211e-05
3.67962674e-05
3.4947037e-05
3.4910347e-05
3.56828523e-05
3.68309211e-05
3.68145681e-05
3.54057257e-05
3.51298997e-05
3.57126645e-05
3.6837183e-05
3.68100933e-05
3.55942237e-05
3.52249874e-05
3.57224768e-05
3.68535795e-05
3.67988435e-05
3.56876752e-05
3.52807421e-05
3.57227356e-05
3.68266092e-05
3.67365839e-05
3.55117211e-05
3.57749483e-05
3.68160017e-05
3.66826332e-05
3.51046237e-05
3.50976422e-05
3.51529046e-05
3.50647904e-05
3.48524864e-05
3.56702003e-05
3.6818558e-05
3.68231653e-05
3.67962961e-05
3.67923537e-05
3.67984839e-05
3.67697875e-05
3.59559124e-05
3.49464843e-05
3.57084087e-05
3.68227374e-05
3.63770851e-05
3.54060471e-05
3.57851275e-05
3.68442774e-05
3.67394751e-05
3.55130006e-05
3.52567653e-05
3.57799373e-05
3.68191632e-05
3.67603698e-05
3.54325576e-05
3.53110182e-05
3.53494367e-05
3.57384641e-05
3.68333527e-05
3.68414702e-05
3.65883331e-05
3.57008424e-05
3.57916675e-05
3.68282053e-05
3.67441481e-05
3.51973974e-05
3.51874436e-05
3.52153764e-05
3.57587735e-05
3.68542091e-05
3.68070289e-05
3.68370922e-05
3.64223036e-05
3.55654927e-05
3.55802718e-05
3.5707108e-05
3.56050581e-05
3.55077826e-05
3.58294666e-05
3.68477475e-05
3.67844817e-05
3.54433329e-05
3.53673668e-05
3.54743185e-05
3.57924863e-05
3.68499006e-05
3.67543271e-05
3.55932508e-05
3.5820246e-05
3.6847413e-05
3.67094414e-05
3.55105015e-05
3.58175533e-05
3.68386257e-05
3.67540028e-05
3.51024191e-05
3.50894016e-05
3.5408936e-05
3.54068942e-05
3.58494507e-05
3.68152088e-05
3.68210271e-05
3.55664232e-05
3.5749107e-05
3.68396784e-05
3.5904291e-05
3.5714273e-05
3.68377249e-05
3.68261831e-05
3.50436725e-05
3.50413986e-05
3.57681164e-05
3.68145928e-05
3.68334451e-05
3.54521332e-05
3.57467169e-05
3.68389454e-05
3.68203632e-05
3.55360735e-05
3.5779054e-05
3.6827113e-05
3.68041972e-05
3.52701673e-05
3.51852098e-05
3.54013929e-05
3.52146436e-05
3.5735354e-05
3.68168776e-05
3.68334815e-05
3.51105846e-05
3.49025319e-05
3.57081074e-05
3.67900327e-05
3.68215045e-05
3.67691881e-05
3.68082798e-05
3.675105e-05
3.67904765e-05
3.67731108e-05
3.47284764e-05
3.47172529e-05
3.49519711e-05
3.57472628e-05
3.68447367e-05
3.681643e-05
3.68455575e-05
3.68226272e-05
3.561642e-05
3.51954694e-05
3.55052851e-05
3.52914297e-05
3.56899249e-05
3.68240088e-05
3.68471601e-05
3.53871707e-05
3.55895627e-05
3.68339419e-05
3.68154759e-05
3.5131587e-05
3.51274843e-05
3.54008914e-05
3.52980087e-05
3.57051025e-05
3.68162629e-05
3.68345678e-05
3.54577817e-05
3.54505725e-05
3.55504898e-05
3.57008504e-05
3.68280049e-05
3.68433802e-05
3.55658722e-05
3.56600922e-05
3.68382438e-05
3.68375233e-05
3.53652945e-05
3.57041186e-05
3.68578802e-05
3.68262244e-05
3.68511415e-05
3.54097744e-05
3.53655732e-05
3.68312247e-05
3.6836917e-05
3.53625232e-05
3.54468446e-05
3.68379956e-05
3.68255984e-05
3.52621999e-05
3.56329055e-05
3.68474702e-05
3.68198403e-05
3.68399886e-05
3.53950469e-05
3.54005984e-05
3.68349587e-05
3.68261793e-05
3.68362834e-05
3.68210486e-05
3.49926354e-05
3.48920124e-05
3.52999253e-05
3.51091341e-05
3.5587657e-05
3.68121805e-05
3.68336243e-05
3.52296206e-05
3.52291496e-05
3.53720034e-05
3.54706233e-05
3.54622102e-05
3.56933477e-05
3.68074342e-05
3.68376992e-05
3.54191857e-05
3.57052673e-05
3.68282507e-05
3.68294423e-05
3.68381764e-05
3.68274339e-05
3.68371045e-05
3.50281577e-05
3.47379161e-05
3.51510159e-05
3.5294693e-05
3.52097319e-05
3.5753006e-05
3.68478348e-05
3.68151966e-05
3.6854605e-05
3.54874258e-05
3.53382028e-05
3.68478573e-05
3.68338155e-05
3.52370243e-05
3.57846733e-05
3.68565485e-05
3.56015867e-05
3.54887715e-05
3.68483267e-05
3.6826443e-05
3.54222726e-05
3.57267081e-05
3.68580819e-05
3.5532784e-05
3.53755728e-05
3.68541491e-05
3.68370342e-05
3.51457425e-05
3.57038743e-05
3.68423222e-05
3.5597325e-05
3.57687946e-05
3.68563913e-05
3.55374052e-05
3.54892515e-05
3.6837742e-05
3.6824031e-05
3.53665821e-05
3.5416256e-05
3.68362467e-05
3.68169854e-05
3.52397301e-05
3.52507483e-05
3.52479439e-05
3.56069035e-05
3.68405637e-05
3.68181739e-05
3.52536356e-05
3.51577093e-05
3.56980784e-05
3.68354159e-05
3.68295167e-05
3.52658853e-05
3.52061659e-05
3.57212247e-05
3.68365625e-05
3.68133655e-05
3.52419781e-05
3.51345397e-05
3.5693895e-05
3.67864012e-05
3.68228679e-05
3.67896464e-05
3.68202232e-05
3.68321732e-05
3.54169632e-05
3.54167935e-05
3.68297964e-05
3.67898825e-05
3.68238958e-05
3.68229863e-05
3.48993837e-05
3.48646844e-05
3.51188033e-05
3.51138568e-05
3.52667458e-05
3.52080847e-05
3.53359304e-05
3.63135269e-05
3.68220337e-05
3.6765672e-05
3.6847686e-05
3.5278477e-05
3.55192676e-05
3.68241422e-05
3.68035987e-05
3.68565581e-05
3.49481382e-05
3.49035706e-05
3.51579904e-05
3.57193618e-05
3.68414391e-05
3.68188937e-05
3.68518934e-05
3.68200939e-05
3.57936689e-05
3.52516631e-05
3.56879446e-05
3.68131516e-05
3.68619262e-05
3.49164591e-05
3.48978988e-05
3.5175989e-05
3.53151451e-05
3.52549735e-05
3.57149634e-05
3.67971508e-05
3.68606037e-05
3.50250547e-05
3.52667146e-05
3.68020242e-05
3.68100843e-05
3.68227185e-05
3.67999505e-05
3.68427153e-05
3.52722848e-05
3.5414641e-05
3.68138293e-05
3.68008019e-05
3.68251265e-05
3.5208892e-05
3.48948314e-05
3.57519372e-05
3.67945772e-05
3.68252779e-05
3.68127063e-05
3.5327626e-05
3.51674403e-05
3.55317503e-05
3.54827147e-05
3.57991957e-05
3.68102411e-05
3.68479121e-05
3.55254648e-05
3.55928745e-05
3.68391629e-05
3.68334708e-05
3.54379602e-05
3.55496997e-05
3.6845995e-05
3.68229467e-05
3.53365948e-05
3.54937937e-05
3.68463545e-05
3.68099915e-05
3.50831519e-05
3.50799067e-05
3.54284662e-05
3.54568263e-05
3.58610566e-05
3.6812707e-05
3.68281196e-05
3.6816507e-05
3.55186582e-05
3.55521378e-05
3.68432032e-05
3.6813832e-05
3.5369727e-05
3.55371736e-05
3.68332328e-05
3.68043117e-05
3.50904431e-05
3.50889058e-05
3.53603142e-05
3.55362143e-05
3.61942045e-05
3.67980884e-05
3.67910985e-05
3.67974793e-05
3.68070319e-05
3.48201117e-05
3.4778351e-05
3.53249906e-05
3.53975237e-05
3.53936777e-05
3.5764816e-05
3.68115351e-05
3.68126613e-05
3.51939693e-05
3.51929022e-05
3.54383398e-05
3.58403422e-05
3.68014929e-05
3.67909059e-05
3.67857744e-05
3.68186806e-05
3.49970887e-05
3.51734342e-05
3.6780306e-05
3.67640751e-05
3.6806224e-05
3.49006922e-05
3.48941461e-05
3.53529955e-05
3.57776379e-05
3.67862192e-05
3.6806781e-05
3.68345011e-05
3.53154537e-05
3.53879556e-05
3.68511502e-05
3.68128798e-05
3.53472006e-05
3.52943427e-05
3.55532063e-05
3.58549682e-05
3.68362584e-05
3.68297927e-05
3.55134499e-05
3.56095827e-05
3.68654371e-05
3.68220438e-05
3.54935709e-05
3.56090007e-05
3.685672e-05
3.68179801e-05
3.54052936e-05
3.551704e-05
3.68545161e-05
3.68074672e-05
3.53803487e-05
3.54830937e-05
3.68508246e-05
3.67955755e-05
3.54059486e-05
3.55078977e-05
3.68443389e-05
3.67830259e-05
3.54611133e-05
3.55281989e-05
3.68454648e-05
3.67970106e-05
3.52997106e-05
3.50626084e-05
3.5349305e-05
3.53727977e-05
3.52644627e-05
3.57172653e-05
3.68123888e-05
3.67974919e-05
3.67809944e-05
3.6785123e-05
3.68135639e-05
3.67918808e-05
3.5481409e-05
3.50819601e-05
3.53757832e-05
3.57420163e-05
3.67582487e-05
3.68113791e-05
3.57689885e-05
3.56070421e-05
3.62516984e-05
3.68304394e-05
3.57600248e-05
3.57031591e-05
3.68017248e-05
3.59794391e-05
3.55039961e-05
3.61197897e-05
3.67811658e-05
3.56775557e-05
3.50591251e-05
3.52411547e-05
3.54020694e-05
3.54362277e-05
3.55229185e-05
3.57650561e-05
3.68584254e-05
3.67861707e-05
3.57059955e-05
3.52852724e-05
3.56870614e-05
3.68313096e-05
3.68070161e-05
3.57615266e-05
3.5438153e-05
3.59414433e-05
3.67988354e-05
3.57511087e-05
3.5107777e-05
3.5498491e-05
3.63512188e-05
3.68081926e-05
3.67832338e-05
3.68372633e-05
3.67866594e-05
3.58489769e-05
3.52767141e-05
3.5738427e-05
3.68139721e-05
3.61583906e-05
3.53129693e-05
3.57518145e-05
3.6815848e-05
3.63044841e-05
3.51468607e-05
3.51487223e-05
3.54439076e-05
3.57890219e-05
3.68279276e-05
3.66900033e-05
3.52555854e-05
3.52600485e-05
3.54856026e-05
3.57698787e-05
3.68310457e-05
3.67598813e-05
3.54734366e-05
3.57278638e-05
3.68396913e-05
3.68142915e-05
3.68339112e-05
3.67888422e-05
3.52026187e-05
3.52015461e-05
3.52701728e-05
3.56927916e-05
3.68401858e-05
3.68357699e-05
3.68405477e-05
3.68312005e-05
3.52181531e-05
3.50286908e-05
3.54101976e-05
3.51324694e-05
3.57033978e-05
3.68318361e-05
3.68411166e-05
3.68311131e-05
3.684612e-05
3.55996132e-05
3.49437004e-05
3.52320175e-05
3.68446185e-05
3.68181171e-05
3.56143696e-05
3.5073902e-05
3.51669688e-05
3.68204472e-05
3.68237507e-05
3.55762753e-05
3.53345527e-05
3.68353825e-05
3.68229729e-05
3.57081047e-05
3.50781352e-05
3.51200417e-05
3.68282046e-05
3.68385107e-05
3.57313952e-05
3.54404854e-05
3.5318571e-05
3.53161774e-05
3.67858779e-05
3.68408589e-05
3.57818135e-05
3.55967747e-05
3.67981707e-05
3.68514837e-05
3.57731705e-05
3.56293678e-05
3.68124914e-05
3.68518652e-05
3.67976879e-05
3.57327351e-05
3.53909402e-05
3.54639044e-05
3.52255075e-05
3.5335665e-05
3.67955658e-05
3.68380087e-05
3.67818042e-05
3.68476538e-05
3.57908978e-05
3.54416682e-05
3.68122307e-05
3.68518306e-05
3.57611604e-05
3.54119097e-05
3.68226947e-05
3.68388267e-05
3.57701853e-05
3.53951721e-05
3.54335717e-05
3.53986083e-05
3.54034973e-05
3.5497141e-05
3.53210155e-05
3.54532747e-05
3.68238639e-05
3.68105646e-05
3.68078987e-05
3.59099718e-05
3.56807221e-05
3.53127656e-05
3.531585e-05
3.67862896e-05
3.68317302e-05
3.580501e-05
3.55619018e-05
3.67963493e-05
3.68525197e-05
3.5793075e-05
3.54297527e-05
3.67994431e-05
3.68447892e-05
3.57309563e-05
3.53503665e-05
3.68191648e-05
3.68166498e-05
3.57732027e-05
3.49797625e-05
3.49828765e-05
3.68185214e-05
3.67948597e-05
3.57782724e-05
3.50457402e-05
3.50595796e-05
3.67935616e-05
3.68305738e-05
3.57615895e-05
3.54140842e-05
3.68194541e-05
3.68315087e-05
3.5762135e-05
3.54592442e-05
3.55234902e-05
3.53268101e-05
3.53252817e-05
3.6761623e-05
3.682685e-05
3.57989912e-05
3.56751351e-05
3.67723012e-05
3.68395854e-05
3.67849226e-05
3.68432647e-05
3.57566715e-05
3.54006904e-05
3.68063544e-05
3.6832375e-05
3.57392378e-05
3.53265853e-05
3.54015055e-05
3.51353616e-05
3.51404502e-05
3.67632484e-05
3.68319518e-05
3.57712837e-05
3.55422499e-05
3.67816248e-05
3.6839914e-05
3.57413345e-05
3.54506127e-05
3.67975416e-05
3.68367402e-05
3.57543887e-05
3.54572214e-05
3.5471647e-05
3.54199434e-05
3.51753574e-05
3.51774888e-05
3.67701349e-05
3.68075323e-05
3.67792633e-05
3.680753e-05
3.59986899e-05
3.5265601e-05
3.52600206e-05
3.67902071e-05
3.68271837e-05
3.57764685e-05
3.51728582e-05
3.51760879e-05
3.67988768e-05
3.68229961e-05
3.58746156e-05
3.54616594e-05
3.5664963e-05
3.68213703e-05
3.68455053e-05
3.56759096e-05
3.53530131e-05
3.68218576e-05
3.68452223e-05
3.5618433e-05
3.49670892e-05
3.56257727e-05
3.67879218e-05
3.68522272e-05
3.67949384e-05
3.68503741e-05
3.6114705e-05
3.54577791e-05
3.53413722e-05
3.53362239e-05
3.53734679e-05
3.53423299e-05
3.54975851e-05
3.52864883e-05
3.56239241e-05
3.68318607e-05
3.68186309e-05
3.68296167e-05
3.57170024e-05
3.55550639e-05
3.68375943e-05
3.6820456e-05
3.68337497e-05
3.57111467e-05
3.52178881e-05
3.6836067e-05
3.68172712e-05
3.54478887e-05
3.5215062e-05
3.68425798e-05
3.68148077e-05
3.55382604e-05
3.49319231e-05
3.50757892e-05
3.68209229e-05
3.6830271e-05
3.54915747e-05
3.50957581e-05
3.51450594e-05
3.51685481e-05
3.49731437e-05
3.51402154e-05
3.68292008e-05
3.68162571e-05
3.68268527e-05
3.68275169e-05
3.68282926e-05
3.6829557e-05
3.57002452e-05
3.5182233e-05
3.54263851e-05
3.68331175e-05
3.68391723e-05
3.56196579e-05
3.55107965e-05
3.68625293e-05
3.68306652e-05
3.56340065e-05
3.5219173e-05
3.54409057e-05
3.68442434e-05
3.68553856e-05
3.55850317e-05
3.55350361e-05
3.686135e-05
3.68435954e-05
3.56074113e-05
3.56305894e-05
3.68696373e-05
3.68248312e-05
3.56317097e-05
3.53711945e-05
3.55470229e-05
3.53128744e-05
3.56366366e-05
3.68454386e-05
3.68426571e-05
3.53726234e-05
3.53327139e-05
3.52210162e-05
3.56289113e-05
3.68653751e-05
3.68565778e-05
3.68527269e-05
3.68175683e-05
3.56139821e-05
3.56904064e-05
3.68453548e-05
3.68063442e-05
3.54870341e-05
3.54225853e-05
3.54822183e-05
3.54748676e-05
3.53854344e-05
3.5709747e-05
3.68365096e-05
3.67603306e-05
3.53766368e-05
3.57157745e-05
3.68576082e-05
3.68124276e-05
3.68582577e-05
3.67694914e-05
3.56849082e-05
3.5055225e-05
3.519505e-05
3.52026029e-05
3.51197599e-05
3.57437965e-05
3.68211147e-05
3.67234001e-05
3.53199089e-05
3.57601185e-05
3.68114151e-05
3.68205849e-05
3.67161924e-05
3.56556376e-05
3.58102015e-05
3.68137547e-05
3.66535354e-05
3.52253361e-05
3.52188074e-05
3.57155202e-05
3.61874316e-05
3.68347814e-05
3.67561997e-05
3.58862467e-05
3.48889181e-05
3.56421909e-05
3.68225871e-05
3.61641154e-05
3.55831852e-05
3.58621633e-05
3.67998027e-05
3.65030149e-05
3.49734499e-05
3.49521701e-05
3.5715011e-05
3.68098167e-05
3.67964788e-05
3.67968314e-05
3.67938033e-05
3.54518483e-05
3.4964231e-05
3.5178148e-05
3.51577969e-05
3.50757867e-05
3.56857983e-05
3.68335762e-05
3.68219977e-05
3.6816654e-05
3.67858827e-05
3.68236841e-05
3.67814046e-05
3.55364134e-05
3.50366658e-05
3.53449315e-05
3.52728621e-05
3.56847998e-05
3.68019332e-05
3.68606769e-05
3.67906831e-05
3.57252926e-05
3.55290662e-05
3.66090514e-05
3.68126097e-05
3.57780691e-05
3.57650555e-05
3.68540294e-05
3.67928424e-05
3.5716202e-05
3.52004925e-05
3.53709942e-05
3.52964631e-05
3.57346252e-05
3.68261404e-05
3.67916538e-05
3.55611875e-05
3.57456352e-05
3.68226763e-05
3.6807985e-05
3.61285675e-05
3.54122299e-05
3.56892879e-05
3.65499491e-05
3.5842137e-05
3.55886662e-05
3.62775625e-05
3.67402971e-05
3.57796004e-05
3.5949969e-05
3.68190782e-05
3.57396606e-05
3.52112989e-05
3.53116172e-05
3.57247171e-05
3.6378204e-05
3.67824993e-05
3.57363745e-05
3.51349593e-05
3.56373764e-05
3.67638725e-05
3.68108361e-05
3.61120276e-05
3.56353429e-05
3.57312428e-05
3.5735891e-05
3.57055754e-05
3.5435593e-05
3.54123933e-05
3.53510298e-05
3.53708284e-05
3.54472287e-05
3.5872345e-05
3.68101317e-05
3.68432411e-05
3.65984705e-05
3.56080887e-05
3.57731115e-05
3.68233843e-05
3.68255141e-05
3.66800684e-05
3.56236293e-05
3.57902747e-05
3.68292244e-05
3.6690486e-05
3.52200701e-05
3.52223228e-05
3.54213419e-05
3.57760296e-05
3.68513959e-05
3.67555391e-05
3.54778709e-05
3.57679782e-05
3.68405071e-05
3.67548297e-05
3.52044585e-05
3.52031806e-05
3.57538813e-05
3.68209663e-05
3.67808683e-05
3.54609192e-05
3.57416912e-05
3.68364973e-05