/*--------------------------------*- C++ -*----------------------------------*\
| =========                 |                                                 |
| \\      /  F ield         | OpenFOAM: The Open Source CFD Toolbox           |
|  \\    /   O peration     | Version:  2306                                  |
|   \\  /    A nd           | Website:  www.openfoam.com                      |
|    \\/     M anipulation  |                                                 |
\*---------------------------------------------------------------------------*/
FoamFile
{
    version     2.0;
    format      ascii;
    arch        "LSB;label=32;scalar=64";
    class       volScalarField;
    location    "0.0011";
    object      H2;
}
// * * * * * * * * * * * * * * * * * * * * * * * * * * * * * * * * * * * * * //

dimensions      [0 0 0 0 0 0 0];

internalField   nonuniform List<scalar> 
530
(
0.0110010675
0.0107247388
0.0106724193
0.0106776695
0.0106656429
0.0106626013
0.0110208928
0.0110012931
0.0106943649
0.0106770602
0.0110247496
0.0109995334
0.0106912376
0.0106788681
0.0110258194
0.0110075894
0.0107135223
0.0106561818
0.0106683885
0.0110295193
0.0110007801
0.0110065984
0.010688071
0.010657829
0.0106449477
0.0106461589
0.0110543785
0.0110145671
0.0110137541
0.0110122496
0.0107118344
0.0106509853
0.0106550443
0.0110302201
0.0110129298
0.0107270809
0.0106595182
0.0106662652
0.0110393081
0.0109995436
0.0110007731
0.0107222524
0.0106617524
0.0106572542
0.0110400498
0.0110090296
0.0107042146
0.0106638778
0.0106491385
0.0106452396
0.011074837
0.0110154934
0.0110163922
0.0110115405
0.0107465417
0.010658994
0.0106552477
0.01106025
0.0110105056
0.0107568635
0.0106704554
0.0106662499
0.0110696294
0.0110090217
0.010779138
0.0106749154
0.0106697774
0.0110517109
0.0110082404
0.0107967998
0.010677366
0.0106728414
0.0110350909
0.0110080203
0.0108038317
0.0106821555
0.0106793413
0.0106704381
0.0106643089
0.0109709294
0.0110123309
0.0107470775
0.010684429
0.0109789114
0.0110081533
0.0110013278
0.0107996595
0.0106650648
0.0106557215
0.0109382975
0.01102554
0.0108055972
0.010663395
0.0106520196
0.0109180066
0.0110256712
0.0110164109
0.0110095022
0.0108387876
0.0106754157
0.0106625446
0.0106579686
0.0108586976
0.0110329818
0.0107822784
0.01067499
0.0108692599
0.0110313172
0.0107932998
0.0106784786
0.0108639775
0.0110363367
0.0108429811
0.0106699598
0.0106561769
0.0108359224
0.0110352444
0.0110084992
0.0108588481
0.0106767324
0.010660463
0.0108149809
0.0110436982
0.0108729783
0.0106771829
0.0106588297
0.0108003984
0.0110442535
0.0108429982
0.0106839724
0.0108162249
0.0110442851
0.0108773448
0.0106743572
0.0106548716
0.0107678734
0.011051367
0.0108546849
0.010680451
0.0107891977
0.0110456662
0.0108540494
0.0106803885
0.0107835367
0.0110464423
0.0108592455
0.0106811315
0.0107793168
0.0110467447
0.0108654909
0.0106832328
0.0107783421
0.0110466194
0.0108751748
0.0106857373
0.0107780065
0.0110483325
0.0109269223
0.0106809663
0.0106595174
0.0107543307
0.0110562583
0.0110077138
0.0109397558
0.0106934914
0.0106790407
0.0106676903
0.0106603497
0.0107309625
0.0110575257
0.0109172957
0.0106918092
0.0107598626
0.0110487455
0.0109123951
0.0106884329
0.0107505578
0.0110523977
0.0109076129
0.0106801021
0.0107301007
0.0110593461
0.0108971005
0.0106731924
0.0107008468
0.0110767924
0.0110149549
0.0110316165
0.011010684
0.0109761841
0.0106826908
0.0106692096
0.0106558554
0.0106506972
0.0106952656
0.0110659353
0.010992861
0.0106868779
0.0106600144
0.0107051331
0.0110607727
0.010966563
0.0106904881
0.0107283994
0.0110500295
0.0109517688
0.0106903827
0.0107233505
0.0110622615
0.0110036265
0.0109827267
0.010688305
0.0107271817
0.0110430894
0.0109471971
0.010697363
0.0108057165
0.0108583956
0.0106936145
0.0107309766
0.0110400907
0.0110118321
0.0107059748
0.0106763803
0.0106695626
0.0107126431
0.0110466872
0.0110635063
0.0107010955
0.0106722363
0.0107192854
0.0110450177
0.0110149184
0.0106972102
0.0107340053
0.0110352824
0.0110570588
0.010698681
0.0106692168
0.0107111674
0.011044049
0.0110651616
0.0106990569
0.0106703444
0.0107118175
0.0110423629
0.0110184901
0.0107589575
0.0106705109
0.0107084826
0.01104276
0.0110248862
0.0106936272
0.0107267068
0.0110587736
0.0109968377
0.0110412961
0.0107303905
0.010682037
0.0106791249
0.010672909
0.0106657062
0.0107117963
0.0110604355
0.0109954486
0.011038994
0.0107064254
0.0106658895
0.0107080769
0.0110349367
0.0110596075
0.0106881636
0.0106616671
0.0107130982
0.0110552679
0.0109949794
0.0110004124
0.0106967869
0.0106621765
0.0107002005
0.0110362288
0.0110645017
0.0106866846
0.0107111342
0.011025547
0.0110736862
0.0106875436
0.0106600904
0.0106972213
0.0110369036
0.0110776783
0.0106868222
0.0107094135
0.0110257181
0.0110579919
0.0106831228
0.0106577611
0.010707593
0.0110551898
0.0109943934
0.0110150241
0.0106989393
0.0106740271
0.0106602494
0.0106927401
0.0110333078
0.0110788135
0.0106835661
0.0107040954
0.0110266664
0.0110715686
0.0106845728
0.0107051732
0.0110233781
0.0110438704
0.0106853754
0.0106610769
0.0107245285
0.0110497715
0.0109955332
0.011016155
0.0106915247
0.0107182135
0.0110186614
0.011071182
0.0106913957
0.0106701562
0.0106576587
0.0106880967
0.011037199
0.0110792246
0.0106749393
0.0106939883
0.0110311903
0.0110742789
0.0106772313
0.0106965434
0.011025407
0.0110284635
0.0106892256
0.0107760705
0.0108507475
0.010687622
0.0107066
0.0110203204
0.0110477799
0.0106870949
0.010656994
0.0106932494
0.0110319016
0.0110315883
0.0106839661
0.0106574544
0.0107176276
0.0110525334
0.010995172
0.0110403938
0.0106849865
0.0107058837
0.0110226128
0.0110716039
0.0106790677
0.0107000017
0.0110247274
0.0110539609
0.0106846022
0.0106562356
0.0106908099
0.0110366849
0.0110495953
0.0106847311
0.0107018284
0.0110253305
0.0110390141
0.0106945408
0.0106628236
0.0106954672
0.011033377
0.0110331355
0.0107005883
0.0106646874
0.0106970239
0.0110328189
0.0110323228
0.0107014661
0.0106621468
0.0106960963
0.0110374358
0.011052695
0.0106810483
0.0106949089
0.0110322106
0.0110537341
0.0106801803
0.0106945641
0.0110280549
0.011034414
0.0106978459
0.0106639316
0.0106936828
0.0110328054
0.0110242769
0.0107164421
0.01066816
0.0107027411
0.0110294362
0.0110236094
0.0107163735
0.010667172
0.0107018237
0.0110284348
0.0110234039
0.0107106014
0.0106647936
0.0106994931
0.0110279024
0.0110255688
0.0107060185
0.0106627575
0.0106976821
0.0110276513
0.0110266729
0.0107018472
0.0106616477
0.0106991262
0.011030085
0.0110428501
0.0106853433
0.0107022679
0.0110199384
0.0110328995
0.0106899021
0.0106592553
0.0106936216
0.0110326298
0.0110468006
0.0106835145
0.0107019185
0.0110218179
0.0110385302
0.0106884064
0.010658903
0.0106934826
0.0110342739
0.0110497115
0.0106832406
0.0107032968
0.0110235688
0.0110433291
0.010687832
0.0106596173
0.0106930972
0.011036266
0.0110558627
0.0106827985
0.0107043478
0.0110257274
0.0110526328
0.010686187
0.0106588165
0.0106920265
0.0110389062
0.0110653419
0.0106816936
0.0107047132
0.0110284601
0.0110642788
0.0106854705
0.0106582877
0.0106903005
0.0110412821
0.0110639287
0.0106815136
0.0107060924
0.0110325829
0.0110392766
0.0106813556
0.0107129867
0.0110323937
0.0110111305
0.010680034
0.0107137632
0.011030728
0.0110506413
0.0106848719
0.0106605754
0.0106928365
0.0110437169
0.0110650454
0.0106824686
0.0107162827
0.0110354758
0.0109903312
0.0106762606
0.0107164558
0.0110348585
0.0109667988
0.0106736309
0.010647189
0.0106781134
0.0110497785
0.0110504377
0.0106730562
0.0107018527
0.0110374336
0.0109947201
0.0106812492
0.0107312571
0.011030361
0.010951688
0.0106830875
0.0107503501
0.0110247695
0.0109965865
0.0106814987
0.0106606768
0.0107022137
0.01103943
0.0109788422
0.0106788677
0.0107220372
0.0110438248
0.0109950818
0.0109804569
0.0106775003
0.0106579325
0.0107072116
0.0110359351
0.0110605308
0.0106811113
)
;

boundaryField
{
    closed
    {
        type            calculated;
        value           nonuniform List<scalar> 0();
    }
    open
    {
        type            calculated;
        value           nonuniform List<scalar> 0();
    }
    sides
    {
        type            empty;
    }
    procBoundary2to1
    {
        type            processor;
        value           uniform 0.0110114997;
    }
    procBoundary2to3
    {
        type            processor;
        value           uniform 0.0106624594;
    }
}


// ************************************************************************* //
