/*--------------------------------*- C++ -*----------------------------------*\
| =========                 |                                                 |
| \\      /  F ield         | OpenFOAM: The Open Source CFD Toolbox           |
|  \\    /   O peration     | Version:  2306                                  |
|   \\  /    A nd           | Website:  www.openfoam.com                      |
|    \\/     M anipulation  |                                                 |
\*---------------------------------------------------------------------------*/
FoamFile
{
    version     2.0;
    format      ascii;
    arch        "LSB;label=32;scalar=64";
    class       surfaceScalarField;
    location    "0.0011";
    object      phi;
}
// * * * * * * * * * * * * * * * * * * * * * * * * * * * * * * * * * * * * * //

dimensions      [1 0 -1 0 0 0 0];

oriented        oriented;

internalField   nonuniform List<scalar> 
529
(
2.34068638e-06
2.42387683e-06
2.51615895e-06
2.58174464e-06
2.66063484e-06
2.75813834e-06
2.72857248e-06
2.80440083e-06
2.90141031e-06
2.99368753e-06
3.00043832e-06
3.0887317e-06
3.33409357e-06
3.43494686e-06
3.43834612e-06
3.54244347e-06
3.67761661e-06
3.82567085e-06
3.78417537e-06
3.85381591e-06
3.97782035e-06
4.04555981e-06
4.49265869e-06
4.69564847e-06
4.82648217e-06
4.99054674e-06
4.93981167e-06
5.08817235e-06
5.21449999e-06
5.37327081e-06
5.5788473e-06
5.82593249e-06
5.76289944e-06
5.85637195e-06
6.04584342e-06
6.30549711e-06
6.58255865e-06
6.53300705e-06
6.67198156e-06
6.89598994e-06
7.0258984e-06
7.33143884e-06
7.67251087e-06
7.59716867e-06
7.75060257e-06
7.99973857e-06
8.31364739e-06
8.70994007e-06
8.99100814e-06
8.86669931e-06
8.98164552e-06
9.25540321e-06
9.49865031e-06
9.77559225e-06
1.02048104e-05
1.06379463e-05
1.10121325e-05
1.0827878e-05
1.11215312e-05
1.16042548e-05
1.20455641e-05
1.24443026e-05
1.22471025e-05
1.25569527e-05
1.31247266e-05
1.36347791e-05
1.40463369e-05
1.35540229e-05
1.38627889e-05
1.4484384e-05
1.50405507e-05
1.54194763e-05
1.47581902e-05
1.50382911e-05
1.56659573e-05
1.62364424e-05
1.6554795e-05
1.69343222e-05
1.72281731e-05
1.63954919e-05
1.65619938e-05
1.69094908e-05
1.72617737e-05
1.64798858e-05
1.66019568e-05
1.66990953e-05
1.72563411e-05
1.78232154e-05
1.80223052e-05
1.70191326e-05
1.70514546e-05
1.75229231e-05
1.80420403e-05
1.81918515e-05
1.7093758e-05
1.70504927e-05
1.71102085e-05
1.71325241e-05
1.76187378e-05
1.80686382e-05
1.81901809e-05
1.81787562e-05
1.72899493e-05
1.71527617e-05
1.73770751e-05
1.75372054e-05
1.6725612e-05
1.65705655e-05
1.67829682e-05
1.69006321e-05
1.61078606e-05
1.59340051e-05
1.62538823e-05
1.65692255e-05
1.64921829e-05
1.56383208e-05
1.53801251e-05
1.526713e-05
1.55558369e-05
1.58478992e-05
1.57271113e-05
1.50042638e-05
1.47563165e-05
1.50420788e-05
1.52681089e-05
1.51191628e-05
1.44488873e-05
1.41785327e-05
1.43636141e-05
1.43415958e-05
1.37139522e-05
1.34700424e-05
1.37123507e-05
1.38935875e-05
1.37036902e-05
1.31719183e-05
1.28947012e-05
1.30717307e-05
1.30085849e-05
1.2487226e-05
1.22284234e-05
1.23888e-05
1.23091365e-05
1.18167453e-05
1.156422e-05
1.17195995e-05
1.16220926e-05
1.11550235e-05
1.09090657e-05
1.10591517e-05
1.09442281e-05
1.04967596e-05
1.02593541e-05
1.04094697e-05
1.02820059e-05
9.85434941e-06
9.64116462e-06
9.83940434e-06
9.88937618e-06
9.66012562e-06
9.2677821e-06
9.00277914e-06
8.84833507e-06
8.96811603e-06
8.77271369e-06
8.58659823e-06
8.47396874e-06
8.23488499e-06
7.9565367e-06
7.75955389e-06
7.91436821e-06
7.74039592e-06
7.44083597e-06
7.25462335e-06
7.3963812e-06
7.22602099e-06
6.95076711e-06
6.77777158e-06
6.9211029e-06
6.74913172e-06
6.5119146e-06
6.35150573e-06
6.49007824e-06
6.29296505e-06
6.11044876e-06
5.96292286e-06
5.81641918e-06
5.57642788e-06
5.42381179e-06
5.54940742e-06
5.51635317e-06
5.33014293e-06
5.24715502e-06
5.03417974e-06
4.90774785e-06
4.82499936e-06
5.02610382e-06
4.96012027e-06
4.7225248e-06
4.59040835e-06
4.49540514e-06
4.71157833e-06
4.51779204e-06
4.36784219e-06
4.27617448e-06
4.47493053e-06
4.27478107e-06
4.12478418e-06
4.02406435e-06
3.91368739e-06
4.02470982e-06
3.89906591e-06
3.77636683e-06
3.72120752e-06
3.87433216e-06
3.74751876e-06
3.5548626e-06
3.45466555e-06
3.33762377e-06
3.20955987e-06
3.16462736e-06
3.42465368e-06
3.31312024e-06
3.16950086e-06
3.02495834e-06
2.94223757e-06
2.90129265e-06
3.25191415e-06
3.14453853e-06
2.90314229e-06
2.80553822e-06
2.7432859e-06
3.02835059e-06
2.85650165e-06
2.77376644e-06
2.72934961e-06
3.05927232e-06
2.96763372e-06
2.74747446e-06
2.67397259e-06
2.63403606e-06
2.81636372e-06
2.72924126e-06
2.51600461e-06
2.41644894e-06
2.38174382e-06
2.3252022e-06
2.25886252e-06
2.12222706e-06
2.0497579e-06
2.00438391e-06
2.33794527e-06
2.14265576e-06
2.05019587e-06
2.03170546e-06
1.95658326e-06
1.94567416e-06
1.86806792e-06
1.74059897e-06
1.65355756e-06
1.59626693e-06
1.45832918e-06
1.37389266e-06
1.32762237e-06
1.26410226e-06
1.33785161e-06
1.26488764e-06
1.09308821e-06
1.02755666e-06
1.00470212e-06
1.12239248e-06
1.04725902e-06
8.41080657e-07
7.69082493e-07
7.3193217e-07
6.80578712e-07
6.84958121e-07
6.23167465e-07
4.83115322e-07
4.51924487e-07
4.35683171e-07
8.01240607e-07
6.51705974e-07
6.65866986e-07
6.6311087e-07
8.87414684e-07
8.11930038e-07
6.31522988e-07
6.21374199e-07
6.04452269e-07
1.00511971e-06
8.66220205e-07
8.73568615e-07
8.69415978e-07
9.73494674e-07
9.04953067e-07
7.29793396e-07
6.77973005e-07
6.48007034e-07
6.02343767e-07
6.73110892e-07
6.20880065e-07
5.29288501e-07
4.77361644e-07
2.60099691e-07
2.6431442e-07
6.52319547e-07
5.19554254e-07
5.60178561e-07
5.56260184e-07
9.30672847e-07
8.25245736e-07
8.37469681e-07
8.50018737e-07
9.18550423e-07
8.72124486e-07
7.5170059e-07
7.20886302e-07
7.04326565e-07
6.84275144e-07
8.17478618e-07
7.58243633e-07
7.96386428e-07
8.12281285e-07
1.193859e-06
1.14079769e-06
1.04552977e-06
1.03054146e-06
8.24396691e-07
8.50906391e-07
1.24622006e-06
1.18181286e-06
8.69683407e-07
8.95911733e-07
1.3178945e-06
1.26839686e-06
9.83306819e-07
1.0183031e-06
1.36035663e-06
1.33118312e-06
1.31415563e-06
1.34680466e-06
1.37880095e-06
1.40769247e-06
1.46400481e-06
1.64534499e-06
1.69892721e-06
1.67329869e-06
1.54543102e-06
1.60871608e-06
1.68774851e-06
1.81452072e-06
1.80728733e-06
1.85050257e-06
1.88533271e-06
1.94124551e-06
2.26746442e-06
2.34766193e-06
2.48855426e-06
2.55286299e-06
2.93358187e-06
3.0135796e-06
2.7160596e-06
2.7712434e-06
3.02075179e-06
3.15525781e-06
3.14996771e-06
2.92713955e-06
2.96408221e-06
3.2434775e-06
3.303157e-06
3.02802699e-06
3.07409184e-06
3.26746365e-06
3.33436983e-06
3.35512206e-06
3.15138108e-06
3.19509072e-06
3.2915253e-06
3.35385974e-06
3.37965933e-06
3.311359e-06
3.34821025e-06
3.4315849e-06
3.48782465e-06
3.50265608e-06
3.34939206e-06
3.36314883e-06
3.52403305e-06
3.70244125e-06
3.36510207e-06
3.36612036e-06
3.60170487e-06
3.63769268e-06
3.31666709e-06
3.32719733e-06
3.35974314e-06
3.372403e-06
3.34330056e-06
3.10606564e-06
3.10458888e-06
3.131048e-06
3.1543873e-06
3.14240414e-06
3.13123311e-06
3.13264728e-06
3.15818636e-06
3.17973924e-06
3.16821057e-06
3.15331122e-06
3.14675507e-06
3.16721001e-06
3.18275332e-06
3.16922706e-06
3.15205578e-06
3.13877618e-06
3.16292201e-06
3.17422534e-06
3.15852422e-06
3.14119695e-06
3.12482313e-06
3.15146122e-06
3.16565378e-06
3.15055575e-06
3.14266516e-06
3.12499852e-06
3.2358422e-06
3.38632415e-06
3.08250773e-06
3.07688006e-06
3.20703137e-06
3.2368354e-06
3.23118556e-06
2.98675221e-06
2.98871096e-06
3.1272128e-06
3.27811904e-06
2.97220932e-06
2.9823791e-06
3.13918062e-06
3.17952184e-06
3.17181117e-06
2.92352855e-06
2.9442352e-06
3.21492446e-06
3.27038398e-06
2.97945165e-06
3.02063962e-06
3.22004637e-06
3.27850668e-06
3.26976041e-06
3.01823587e-06
3.04315692e-06
3.33551301e-06
3.39599497e-06
3.28939752e-06
3.32955955e-06
3.57812447e-06
3.69045016e-06
3.66487555e-06
3.37895882e-06
3.39718125e-06
3.73924039e-06
3.79832419e-06
3.8873059e-06
3.90727807e-06
4.21105333e-06
4.34792683e-06
4.28109197e-06
3.9432969e-06
3.9264991e-06
4.25051342e-06
4.2888045e-06
4.34200941e-06
4.3181905e-06
4.82999397e-06
4.87129029e-06
4.89334578e-06
4.84905537e-06
5.30230098e-06
5.34378453e-06
5.35696978e-06
5.29855641e-06
5.7933833e-06
5.92751517e-06
5.80943692e-06
5.34005912e-06
5.25196734e-06
5.83512334e-06
5.86098299e-06
5.83418026e-06
5.73132035e-06
6.12974201e-06
6.15005406e-06
6.08562501e-06
5.96734467e-06
6.25531214e-06
6.34902427e-06
6.2247269e-06
5.6855124e-06
5.54167557e-06
6.04511592e-06
6.04264642e-06
6.00246202e-06
5.85827294e-06
6.2424775e-06
6.2291877e-06
6.09724582e-06
5.95451591e-06
6.24321881e-06
6.22130956e-06
6.04649856e-06
5.91079579e-06
6.2461488e-06
6.32833211e-06
6.1760785e-06
6.07188142e-06
5.91211435e-06
6.28444709e-06
6.25679283e-06
6.11959823e-06
5.94470509e-06
5.84815856e-06
6.05575251e-06
6.1714577e-06
6.05599447e-06
5.96033001e-06
5.82099508e-06
6.33688797e-06
)
;

boundaryField
{
    closed
    {
        type            calculated;
        value           nonuniform List<scalar> 0();
    }
    open
    {
        type            calculated;
        value           nonuniform List<scalar> 0();
    }
    sides
    {
        type            empty;
        value           nonuniform List<scalar> 0();
    }
    procBoundary2to1
    {
        type            processor;
        value           uniform -2.28164656e-06;
    }
    procBoundary2to3
    {
        type            processor;
        value           uniform 6.44279287e-06;
    }
}


// ************************************************************************* //
