/*--------------------------------*- C++ -*----------------------------------*\
| =========                 |                                                 |
| \\      /  F ield         | OpenFOAM: The Open Source CFD Toolbox           |
|  \\    /   O peration     | Version:  2306                                  |
|   \\  /    A nd           | Website:  www.openfoam.com                      |
|    \\/     M anipulation  |                                                 |
\*---------------------------------------------------------------------------*/
FoamFile
{
    version     2.0;
    format      ascii;
    arch        "LSB;label=32;scalar=64";
    class       volScalarField;
    location    "0.0011";
    object      PV;
}
// * * * * * * * * * * * * * * * * * * * * * * * * * * * * * * * * * * * * * //

dimensions      [0 0 0 0 0 0 0];

internalField   nonuniform List<scalar> 
530
(
-0.00695100915
-0.00712751444
-0.00717562941
-0.00716549059
-0.00718401736
-0.00718074068
-0.00695631354
-0.00694997741
-0.0071540937
-0.0071678353
-0.0069561822
-0.00695135121
-0.0071556844
-0.00717052159
-0.00695661497
-0.00695445453
-0.007137751
-0.00719825327
-0.00718091506
-0.00695700291
-0.00695272705
-0.00695298712
-0.00715517941
-0.00719366136
-0.00720438745
-0.00720447428
-0.00696312999
-0.00695495006
-0.00695475805
-0.00695405296
-0.00713855711
-0.00720137855
-0.00719663116
-0.00695848402
-0.00695545742
-0.00712852071
-0.00719809219
-0.00718477185
-0.0069614604
-0.00695239911
-0.00695347475
-0.007130735
-0.00719518987
-0.00719295984
-0.00696192492
-0.00695213416
-0.00714489014
-0.0071856673
-0.0072044417
-0.00720507492
-0.00697327858
-0.00695462045
-0.0069563204
-0.00695380557
-0.00711436662
-0.00719515306
-0.00719627941
-0.00696902301
-0.00695402763
-0.00710981465
-0.00718497161
-0.00718491376
-0.00697597512
-0.00695423339
-0.00709640075
-0.00717997548
-0.00717997888
-0.00698128986
-0.00695380082
-0.00708651148
-0.00717613775
-0.00717677665
-0.00698610362
-0.00695382118
-0.00708179903
-0.00716636749
-0.00716590411
-0.00718525912
-0.00718169221
-0.00700682766
-0.0069539487
-0.0071190383
-0.00716221385
-0.00700350311
-0.0069547482
-0.00695317257
-0.00708436464
-0.00718733015
-0.0071941481
-0.00701825748
-0.00695889309
-0.0070813516
-0.00719202601
-0.00719977074
-0.00702580276
-0.00695895133
-0.00695785869
-0.00695364728
-0.00706562721
-0.00716700719
-0.00719097253
-0.00719134983
-0.00704752503
-0.00696005072
-0.00709351639
-0.00717470484
-0.00704351222
-0.00696062004
-0.00708747074
-0.00717387287
-0.00704584837
-0.00696297464
-0.00706197934
-0.00718449043
-0.00719772335
-0.00705844566
-0.00696316935
-0.00695578379
-0.00705576644
-0.00717324954
-0.00719319006
-0.00706860077
-0.00696498892
-0.0070479477
-0.0071744241
-0.00719475552
-0.0070753849
-0.00696501354
-0.00706152282
-0.00716944197
-0.00706729192
-0.00696483638
-0.00704517171
-0.00717643936
-0.00719755976
-0.00709305019
-0.00696601114
-0.00705604602
-0.0071706468
-0.00708186798
-0.00696428061
-0.00705629988
-0.0071707457
-0.0070848869
-0.00696475118
-0.00705385207
-0.00717063212
-0.00708722756
-0.00696508098
-0.00705094587
-0.00716954926
-0.00708786936
-0.00696556426
-0.00704661476
-0.0071692598
-0.00708876208
-0.00696615126
-0.00702563132
-0.00716759667
-0.0071990427
-0.00710126162
-0.00697001019
-0.00695392565
-0.00702190661
-0.00715334925
-0.00717488362
-0.00718207844
-0.00719689846
-0.00711949117
-0.00696868296
-0.00702959302
-0.00716585049
-0.00710336196
-0.00696638693
-0.00703194555
-0.00716938234
-0.00710839996
-0.00696708177
-0.00703313412
-0.00717873723
-0.0071188166
-0.00696834088
-0.00703580207
-0.00718900308
-0.00713750081
-0.00697412766
-0.00695185361
-0.00696425982
-0.00695473456
-0.00700853747
-0.00715881338
-0.00718793897
-0.00718840841
-0.00720983869
-0.00714562383
-0.00696887439
-0.00699997336
-0.00716191867
-0.00720325445
-0.00713955994
-0.00696822684
-0.00700986995
-0.00716900594
-0.00712384931
-0.00696542171
-0.00701523233
-0.0071703929
-0.00712420118
-0.00697107555
-0.00695043295
-0.00700701789
-0.00715851964
-0.00712583961
-0.00696149604
-0.00701741739
-0.00715277851
-0.00707753413
-0.00705287745
-0.00715288984
-0.00712250212
-0.00696015576
-0.00699417743
-0.00714757047
-0.00717584078
-0.00718867106
-0.00713688881
-0.00696291651
-0.00697744706
-0.00714848634
-0.00719455922
-0.00713258557
-0.00696367412
-0.00699343747
-0.00715997111
-0.00712717596
-0.0069593279
-0.00698000807
-0.00714824757
-0.00719731727
-0.00714028907
-0.00696170184
-0.00696919867
-0.00714797352
-0.00719806068
-0.00713594307
-0.00696159565
-0.00695240911
-0.00710561455
-0.0071902703
-0.00713801792
-0.00696185222
-0.00698924987
-0.0071693783
-0.00712438349
-0.00696865013
-0.00694788229
-0.00696350559
-0.00712153982
-0.00717742657
-0.00717059949
-0.0071718695
-0.00719602771
-0.00713055504
-0.00696843222
-0.00694705216
-0.00698632147
-0.00713642092
-0.00720286116
-0.00714134058
-0.00695771177
-0.00696513646
-0.00715394017
-0.0072105298
-0.00713014651
-0.00696660192
-0.00694725325
-0.0069993167
-0.00714361907
-0.0072050384
-0.00714649909
-0.00695888497
-0.0069767512
-0.00717144833
-0.00714960638
-0.00695428795
-0.00697131515
-0.00715709386
-0.0072088822
-0.00715249638
-0.00695924146
-0.00697291703
-0.00717188503
-0.00715374269
-0.00695407861
-0.00696598235
-0.00715724726
-0.00721619814
-0.00713372504
-0.00696718187
-0.00694713782
-0.00699422528
-0.00714638365
-0.00718412543
-0.00719416061
-0.00716093666
-0.00695647921
-0.00697259054
-0.00717508226
-0.00715591799
-0.00695666307
-0.00697546206
-0.00717221958
-0.00715755287
-0.00695436303
-0.00696139892
-0.00715629452
-0.00721329718
-0.00712433471
-0.00696831126
-0.00694992123
-0.00699497706
-0.00715670806
-0.00714784505
-0.00695331722
-0.00697547608
-0.00716064419
-0.00718846955
-0.00720053517
-0.00716886023
-0.00695759449
-0.00697091209
-0.00718389098
-0.00716907295
-0.00695659142
-0.00697362506
-0.00717870755
-0.00716279777
-0.00695473258
-0.00698809765
-0.00715960754
-0.00709713606
-0.00705666874
-0.00715928501
-0.00714931412
-0.00695234005
-0.00696038868
-0.00715742637
-0.00721066277
-0.00716027172
-0.00695711024
-0.00695631976
-0.00715651505
-0.00721399256
-0.00712841005
-0.00696920139
-0.00694911953
-0.00698687207
-0.00716057019
-0.00715859759
-0.00695530548
-0.0069697799
-0.00717209604
-0.00716490399
-0.00695517483
-0.00696267143
-0.00715791331
-0.00721087005
-0.00716372121
-0.00696054885
-0.00695988499
-0.00716959467
-0.00716438114
-0.00695618119
-0.00695789239
-0.00715112768
-0.00720424191
-0.00715870633
-0.00695917496
-0.00695535554
-0.00714737712
-0.00720175378
-0.00715636475
-0.00695937207
-0.00695476314
-0.00714590324
-0.00720394573
-0.0071573518
-0.0069612871
-0.00696065103
-0.0071722598
-0.00717125898
-0.00695830145
-0.00696164586
-0.00717056181
-0.00717152412
-0.0069562825
-0.00695547656
-0.00714760042
-0.00720145475
-0.0071584649
-0.00695958266
-0.00695290571
-0.00713556864
-0.00719526203
-0.00714962549
-0.00695917337
-0.00695255402
-0.00713534486
-0.00719529832
-0.00714953732
-0.00695831587
-0.00695178742
-0.0071387371
-0.00719672745
-0.00715109743
-0.00695757116
-0.006952088
-0.00714124549
-0.00719892717
-0.00715196005
-0.00695733204
-0.00695206772
-0.0071439503
-0.00720084932
-0.00715241216
-0.00695931381
-0.00695656206
-0.00716470266
-0.00716094783
-0.00695424952
-0.00695470209
-0.00715136372
-0.00720557132
-0.00715770966
-0.00695983951
-0.00695809271
-0.0071671193
-0.00716212061
-0.00695495179
-0.00695689376
-0.00715260509
-0.00720674763
-0.00715876486
-0.00696050899
-0.00695949601
-0.00716865477
-0.00716081893
-0.00695578482
-0.00695892295
-0.00715303522
-0.00720660421
-0.00715988442
-0.00696120432
-0.00696221479
-0.00716918542
-0.00715919654
-0.00695658061
-0.00696269311
-0.00715368968
-0.00720749134
-0.00716090618
-0.00696199087
-0.00696617103
-0.0071704694
-0.00715714652
-0.00695781728
-0.00696756918
-0.00715506168
-0.0072073005
-0.00716463996
-0.00696263955
-0.00696611572
-0.00717087962
-0.00715271127
-0.00696054194
-0.00698566809
-0.00717016368
-0.00714303438
-0.00696072018
-0.00699460122
-0.00717141923
-0.00714358937
-0.00695942154
-0.00698192934
-0.00715692756
-0.00720354042
-0.00716125794
-0.00696421064
-0.0069774298
-0.00717158351
-0.00714105259
-0.00696193095
-0.00700123159
-0.00717556145
-0.007137281
-0.00695907776
-0.0070091647
-0.00716839564
-0.00720954025
-0.00717722539
-0.0069630276
-0.00698115721
-0.00717970392
-0.00715110429
-0.00696199657
-0.00699987631
-0.00717138152
-0.00712571691
-0.00696115482
-0.00701559319
-0.00716861967
-0.00711267189
-0.00695851275
-0.00699979602
-0.00715859533
-0.00719873075
-0.00714504749
-0.00696262082
-0.00700512782
-0.00717568482
-0.00712749009
-0.00696576231
-0.00694715323
-0.00700615518
-0.00715382194
-0.00720088065
-0.00714123498
-0.0069603719
-0.00697809149
-0.00716013008
)
;

boundaryField
{
    closed
    {
        type            zeroGradient;
    }
    open
    {
        type            zeroGradient;
    }
    sides
    {
        type            empty;
    }
    procBoundary2to1
    {
        type            processor;
        value           uniform -0.00695200028;
    }
    procBoundary2to3
    {
        type            processor;
        value           uniform -0.00719914825;
    }
}


// ************************************************************************* //
