/*--------------------------------*- C++ -*----------------------------------*\
| =========                 |                                                 |
| \\      /  F ield         | OpenFOAM: The Open Source CFD Toolbox           |
|  \\    /   O peration     | Version:  2306                                  |
|   \\  /    A nd           | Website:  www.openfoam.com                      |
|    \\/     M anipulation  |                                                 |
\*---------------------------------------------------------------------------*/
FoamFile
{
    version     2.0;
    format      ascii;
    arch        "LSB;label=32;scalar=64";
    class       volScalarField;
    location    "0.0011";
    object      sourcePV;
}
// * * * * * * * * * * * * * * * * * * * * * * * * * * * * * * * * * * * * * //

dimensions      [1 -3 -1 0 0 0 0];

internalField   nonuniform List<scalar> 
530
(
0.00630488197
0.112573422
0.146978577
0.139726691
0.153995332
0.153615589
0.00532076723
0.00629545718
0.127348602
0.140569509
0.00512587898
0.00638106217
0.128572517
0.141266386
0.00507297242
0.00598158901
0.117981793
0.164473514
0.151350544
0.00488548891
0.00631775649
0.00603094093
0.129591334
0.161935691
0.172306408
0.1720202
0.00363816
0.00563501832
0.0056757247
0.00575026868
0.118672202
0.168273707
0.164876543
0.00485602849
0.00571737899
0.112212214
0.163634036
0.154641311
0.00440306209
0.00637795118
0.00631747331
0.114156412
0.161442023
0.162633521
0.00437121552
0.00591025795
0.122590543
0.156186752
0.17137143
0.173259015
0.00348012543
0.0055892403
0.00554675284
0.00578565278
0.10377554
0.162481099
0.164953727
0.00337964243
0.00583730401
0.100048497
0.153094281
0.154890264
0.00383935979
0.00591095268
0.0913210166
0.148792847
0.150889578
0.00862591012
0.00594946949
0.0847339792
0.145828484
0.148086096
0.0131778856
0.00596043342
0.082077655
0.138711098
0.139659478
0.153500031
0.153751524
0.0308078344
0.00574658273
0.104525624
0.134974159
0.0291506906
0.00595374562
0.00629063786
0.0834598981
0.155628316
0.163032125
0.0400546964
0.00509197397
0.0813707921
0.158716689
0.167411664
0.0459021019
0.00508517072
0.00554615714
0.00588682899
0.0699270744
0.140841283
0.158791862
0.160901913
0.0634609453
0.00472183279
0.0897533082
0.145492365
0.0602496313
0.0048069658
0.0857214738
0.143702695
0.0618303566
0.00456126544
0.0685120797
0.152398757
0.165151504
0.0705295703
0.0046216599
0.00593718681
0.0633183121
0.143906881
0.161251853
0.0773764218
0.00420181643
0.0588027911
0.144679549
0.162812467
0.0822300429
0.00417479936
0.0684857106
0.139695167
0.0769313852
0.00416885992
0.0574661559
0.146520326
0.165622801
0.0936517075
0.00381506313
0.064657918
0.141377646
0.086073485
0.00409343894
0.0648605401
0.141168734
0.0880207311
0.00405423497
0.0631990055
0.140702742
0.0895020911
0.00403959774
0.0612261827
0.139328135
0.0898756933
0.00404877642
0.0581958915
0.138386237
0.0901685056
0.00396467156
0.0425081389
0.138802749
0.164589903
0.0987073242
0.00359210446
0.00597540884
0.0383911906
0.127452116
0.144860085
0.152386481
0.163443381
0.108888228
0.0035168461
0.045358701
0.13483979
0.0976248295
0.00394735358
0.0468389782
0.137689434
0.101039337
0.00376164467
0.0484033115
0.145696346
0.108655969
0.00340960152
0.0517150798
0.153644843
0.120748342
0.0025446461
0.00561592104
0.00480318243
0.00582824105
0.0282216926
0.133472776
0.155410537
0.160223039
0.173786026
0.125067235
0.00308400778
0.0241638952
0.134218156
0.166932815
0.120612615
0.00334363605
0.031627343
0.136989759
0.110421241
0.00387254191
0.0359216221
0.137278246
0.111641784
0.00327366325
0.00618209341
0.026632734
0.13069818
0.111016824
0.00420713299
0.0371210801
0.126055778
0.0808087537
0.063479291
0.127167071
0.109476868
0.00435960612
0.0193655345
0.122734529
0.146013987
0.155565427
0.118146124
0.00403551066
0.00576565277
0.124108417
0.157912607
0.115124072
0.00412516693
0.0184632408
0.129605502
0.109967423
0.00460112529
0.00729803243
0.124576555
0.160313335
0.119309342
0.00416389176
0.00312307469
0.124458416
0.16028625
0.117928398
0.00424854964
0.00543808214
0.0983352817
0.155828447
0.119227691
0.00422960887
0.0165642714
0.136222571
0.111053026
0.00344601179
0.00651944251
0.0043140239
0.109595965
0.145208807
0.142394493
0.145049623
0.161313056
0.116645084
0.00336770061
0.00658893459
0.0110785648
0.119436161
0.164616224
0.120531888
0.00461499056
0.00338466334
0.128910364
0.170083721
0.116006229
0.00361836722
0.00661325465
0.0215107292
0.123650458
0.166954052
0.123792562
0.00455294912
0.00630071295
0.139903836
0.122143678
0.00508367475
0.00269889714
0.130874756
0.169734265
0.12636437
0.00452007893
0.00286119625
0.140153654
0.123834869
0.00507480396
0.00347243893
0.132373214
0.17419786
0.11837231
0.00362400951
0.00664117263
0.0178712941
0.124137573
0.151425469
0.161747923
0.13187086
0.00469409432
0.00281590538
0.142837386
0.125610639
0.00503001119
0.00435178289
0.140504835
0.125795648
0.00519236679
0.00416865072
0.13045196
0.171009788
0.111412784
0.00390329254
0.00658061029
0.0175384886
0.128964923
0.119567755
0.00542967024
0.00430407299
0.13211159
0.155189622
0.166232297
0.138264496
0.00450004747
0.00240244788
0.151085003
0.136376484
0.00480237049
0.00393005821
0.147183738
0.131743573
0.00509139881
0.0154620933
0.131919196
0.0921202669
0.0659170851
0.132192258
0.12310791
0.00534598983
0.00396620365
0.131163709
0.171459903
0.131099787
0.00476602641
0.00478026786
0.131360206
0.172677101
0.114240127
0.00376722446
0.00660079813
0.0114478612
0.133100696
0.125787416
0.00523177542
0.00278186626
0.142097779
0.131549381
0.0051251943
0.00365667318
0.131956369
0.171841875
0.133851353
0.00453503717
0.00386926676
0.139381859
0.131051491
0.00509764678
0.00440766825
0.126601222
0.166382569
0.129868682
0.0047000393
0.00470149317
0.124149379
0.164493774
0.12817018
0.00472895931
0.00474215415
0.123425403
0.166616449
0.128810176
0.00450289768
0.00371495813
0.142430882
0.137435963
0.00475571684
0.00366647311
0.141552685
0.137779773
0.00496052425
0.00463646333
0.124765917
0.164538782
0.130251896
0.00473018097
0.00514701224
0.116793139
0.159724189
0.124304574
0.00489925301
0.00518054223
0.116751436
0.160123792
0.124516306
0.0049474111
0.00519053257
0.119162434
0.161755335
0.12558423
0.00497238316
0.00508120056
0.121029783
0.163625437
0.126307034
0.00498406162
0.00502524032
0.122757186
0.165016912
0.125982703
0.00486681509
0.00420668495
0.136364808
0.12901989
0.00536632242
0.00471178533
0.127731739
0.168244813
0.129606329
0.00473930487
0.00400762803
0.138332734
0.12975255
0.00527253047
0.00442928307
0.128448366
0.16895599
0.130267775
0.00465834185
0.00386275239
0.139324051
0.128526072
0.0051856017
0.00419008696
0.128717824
0.168629955
0.131075235
0.00456006549
0.00355751713
0.13978315
0.12722615
0.00507827318
0.00372862677
0.129306577
0.169366571
0.132020975
0.00442902948
0.00308904538
0.140831824
0.126013526
0.00494269266
0.00315599254
0.130109362
0.169349004
0.134569193
0.00430978942
0.00315822236
0.140985728
0.124038145
0.00474182536
0.0124275536
0.140415114
0.119443848
0.00475147415
0.0197446261
0.141530251
0.119513519
0.00483137138
0.00921195298
0.131288645
0.166524769
0.131692342
0.00419435037
0.00579763075
0.141252743
0.1181774
0.00460269335
0.0251733972
0.145590881
0.117229843
0.00462295975
0.031475786
0.142269336
0.174700147
0.14624436
0.00387898234
0.00978264415
0.149171686
0.124718621
0.00450296177
0.0241198779
0.141282352
0.110173575
0.00485627898
0.0357491841
0.138842905
0.102120072
0.00512940297
0.0233077644
0.13325615
0.163795197
0.122706602
0.0044037967
0.0285829802
0.144622148
0.112930227
0.00419619715
0.0066092368
0.0272769971
0.131861343
0.16608658
0.120622689
0.00457398347
0.00689403359
0.135081042
)
;

boundaryField
{
    closed
    {
        type            calculated;
        value           nonuniform List<scalar> 0();
    }
    open
    {
        type            calculated;
        value           nonuniform List<scalar> 0();
    }
    sides
    {
        type            empty;
    }
    procBoundary2to1
    {
        type            processor;
        value           uniform 0;
    }
    procBoundary2to3
    {
        type            processor;
        value           uniform 0;
    }
}


// ************************************************************************* //
