/*--------------------------------*- C++ -*----------------------------------*\
| =========                 |                                                 |
| \\      /  F ield         | OpenFOAM: The Open Source CFD Toolbox           |
|  \\    /   O peration     | Version:  2306                                  |
|   \\  /    A nd           | Website:  www.openfoam.com                      |
|    \\/     M anipulation  |                                                 |
\*---------------------------------------------------------------------------*/
FoamFile
{
    version     2.0;
    format      ascii;
    arch        "LSB;label=32;scalar=64";
    class       volScalarField;
    location    "0.00148";
    object      prefDPV_H2;
}
// * * * * * * * * * * * * * * * * * * * * * * * * * * * * * * * * * * * * * //

dimensions      [1 -1 -1 0 0 0 0];

internalField   nonuniform List<scalar> 
531
(
-3.15324548e-05
-3.15247186e-05
-3.09572597e-05
-3.07224655e-05
-3.06685185e-05
-3.06384195e-05
-3.03279285e-05
-3.03290014e-05
-3.1489286e-05
-3.1524521e-05
-3.09367464e-05
-3.07080901e-05
-3.15067924e-05
-3.15321592e-05
-3.08929339e-05
-3.06679498e-05
-3.15158984e-05
-3.15230343e-05
-3.09377328e-05
-3.0516241e-05
-3.05161201e-05
-3.15050767e-05
-3.15263083e-05
-3.0926403e-05
-3.06775283e-05
-3.15045229e-05
-3.15042598e-05
-3.09967674e-05
-3.03790593e-05
-3.03790158e-05
-3.14781016e-05
-3.15108231e-05
-3.14872423e-05
-3.09294381e-05
-3.01101968e-05
-3.01633316e-05
-3.14744004e-05
-3.1488163e-05
-3.14836544e-05
-3.06201847e-05
-3.04421448e-05
-3.14582024e-05
-3.15050788e-05
-3.14639144e-05
-3.09307412e-05
-3.03755064e-05
-3.03865157e-05
-3.14831283e-05
-3.15001167e-05
-3.09352383e-05
-3.06406573e-05
-3.02027168e-05
-3.02041767e-05
-3.14778558e-05
-3.1498217e-05
-3.1496376e-05
-3.09333457e-05
-3.05476447e-05
-3.14896394e-05
-3.15146673e-05
-3.07660712e-05
-3.05977498e-05
-3.14898702e-05
-3.15262025e-05
-3.06937844e-05
-3.06895177e-05
-3.14955627e-05
-3.09128009e-05
-3.03614531e-05
-3.1522112e-05
-3.15122728e-05
-3.07953951e-05
-3.05920087e-05
-3.15210091e-05
-3.1509818e-05
-3.09293127e-05
-3.05844556e-05
-3.05822574e-05
-3.15127221e-05
-3.15097767e-05
-3.09515754e-05
-3.06486229e-05
-3.06474189e-05
-3.15058317e-05
-3.15199589e-05
-3.09053734e-05
-3.05692708e-05
-3.03796289e-05
-3.02134491e-05
-3.08980006e-05
-3.14914539e-05
-3.15684521e-05
-3.14946964e-05
-3.15332595e-05
-3.10318998e-05
-3.08483981e-05
-3.03694421e-05
-3.03752371e-05
-3.14832462e-05
-3.15173757e-05
-3.06882816e-05
-3.05052064e-05
-3.14850087e-05
-3.15216601e-05
-3.06871914e-05
-3.06850865e-05
-3.1492814e-05
-3.09197532e-05
-3.04174626e-05
-3.15012695e-05
-3.15115041e-05
-3.0762472e-05
-3.05971704e-05
-3.14849628e-05
-3.15213816e-05
-3.06324232e-05
-3.06293624e-05
-3.14877682e-05
-3.15223876e-05
-3.14902367e-05
-3.09215452e-05
-3.026208e-05
-3.0266515e-05
-3.14938706e-05
-3.14900929e-05
-3.09231909e-05
-3.03100551e-05
-3.03188185e-05
-3.14908624e-05
-3.15266336e-05
-3.09294153e-05
-3.0670557e-05
-3.14972831e-05
-3.15420233e-05
-3.08736698e-05
-3.07269705e-05
-3.15110473e-05
-3.15454806e-05
-3.09556935e-05
-3.089873e-05
-3.04213445e-05
-3.04294562e-05
-3.15053512e-05
-3.15370308e-05
-3.0856935e-05
-3.06385981e-05
-3.15145082e-05
-3.15139893e-05
-3.09770631e-05
-3.05439363e-05
-3.05483214e-05
-3.15048794e-05
-3.15409582e-05
-3.09393007e-05
-3.07663183e-05
-3.1495205e-05
-3.15450707e-05
-3.08288945e-05
-3.07588607e-05
-3.14355489e-05
-3.15241414e-05
-3.14313941e-05
-3.09306283e-05
-3.05892331e-05
-3.03149666e-05
-3.03171932e-05
-3.14733172e-05
-3.15176853e-05
-3.07491723e-05
-3.05624574e-05
-3.14749237e-05
-3.15392922e-05
-3.09006811e-05
-3.07678852e-05
-3.14748876e-05
-3.1541617e-05
-3.10614084e-05
-3.09077853e-05
-3.03713678e-05
-3.03919476e-05
-3.14834086e-05
-3.15337798e-05
-3.08128018e-05
-3.07330373e-05
-3.14849691e-05
-3.15185557e-05
-3.14853147e-05
-3.09846359e-05
-3.07658158e-05
-3.06196669e-05
-3.06083681e-05
-3.01294938e-05
-3.01361339e-05
-3.122218e-05
-3.14971979e-05
-3.14826977e-05
-3.15103776e-05
-3.14875197e-05
-3.09295288e-05
-3.07987484e-05
-3.02304831e-05
-3.02328073e-05
-3.15001995e-05
-3.14987475e-05
-3.14937844e-05
-3.09331805e-05
-3.06473987e-05
-3.14830298e-05
-3.1512758e-05
-3.14667577e-05
-3.09411774e-05
-3.03215514e-05
-3.03356387e-05
-3.15048673e-05
-3.14971111e-05
-3.0923683e-05
-3.02037034e-05
-3.02250119e-05
-3.14917033e-05
-3.15143664e-05
-3.08949179e-05
-3.06019988e-05
-3.14856383e-05
-3.14901264e-05
-3.10232775e-05
-3.04627929e-05
-3.04390108e-05
-3.11889591e-05
-3.14893262e-05
-3.14738598e-05
-3.15066465e-05
-3.06578935e-05
-3.04929097e-05
-3.14587538e-05
-3.09359793e-05
-3.04452111e-05
-3.15119457e-05
-3.14925382e-05
-3.09330893e-05
-3.09218621e-05
-3.04452134e-05
-3.04499233e-05
-3.150509e-05
-3.15026538e-05
-3.09764983e-05
-3.06966241e-05
-3.06722663e-05
-3.02244987e-05
-3.02194653e-05
-3.10826764e-05
-3.15090942e-05
-3.15173609e-05
-3.15224623e-05
-3.09441093e-05
-3.07829247e-05
-3.14867172e-05
-3.15306938e-05
-3.14673842e-05
-3.09329229e-05
-3.03888916e-05
-3.04014482e-05
-3.15053511e-05
-3.14958332e-05
-3.09217152e-05
-3.0293461e-05
-3.03196737e-05
-3.14758088e-05
-3.15337885e-05
-3.0880796e-05
-3.07476661e-05
-3.14799596e-05
-3.1549995e-05
-3.14813907e-05
-3.08957924e-05
-3.05633098e-05
-3.06768491e-05
-3.04001305e-05
-3.04176739e-05
-3.14577244e-05
-3.15260648e-05
-3.1454155e-05
-3.15396111e-05
-3.1081066e-05
-3.08627388e-05
-3.03332138e-05
-3.03600969e-05
-3.14810709e-05
-3.15376222e-05
-3.08458125e-05
-3.07049249e-05
-3.13959818e-05
-3.15426489e-05
-3.14778689e-05
-3.08973404e-05
-3.05122461e-05
-3.06454133e-05
-3.03539039e-05
-3.058664e-05
-3.14916536e-05
-3.15135402e-05
-3.15087271e-05
-3.07999717e-05
-3.04744704e-05
-3.11867188e-05
-3.15071239e-05
-3.14982272e-05
-3.15143161e-05
-3.07861576e-05
-3.04653761e-05
-3.14423647e-05
-3.1500039e-05
-3.14684461e-05
-3.10450808e-05
-3.07259432e-05
-3.06331196e-05
-3.06160765e-05
-3.03840611e-05
-3.03984375e-05
-3.14640017e-05
-3.15327085e-05
-3.09626406e-05
-3.08269513e-05
-3.14940841e-05
-3.15589871e-05
-3.15067521e-05
-3.08994805e-05
-3.05626497e-05
-3.06345788e-05
-3.03206526e-05
-3.03318756e-05
-3.14885322e-05
-3.15170782e-05
-3.15152285e-05
-3.09386453e-05
-3.0812741e-05
-3.14386116e-05
-3.15594668e-05
-3.14496865e-05
-3.08790435e-05
-3.01407201e-05
-3.02011335e-05
-3.14660194e-05
-3.1556877e-05
-3.08390316e-05
-3.06919663e-05
-3.14842998e-05
-3.15757927e-05
-3.15109578e-05
-3.08755646e-05
-3.04686213e-05
-3.05712536e-05
-3.01996441e-05
-3.02200945e-05
-3.14815936e-05
-3.15647623e-05
-3.15172856e-05
-3.15702219e-05
-3.15636084e-05
-3.10187441e-05
-3.06708466e-05
-2.99634085e-05
-2.99844016e-05
-3.15983877e-05
-3.16606e-05
-3.16426493e-05
-3.05259476e-05
-3.01380164e-05
-3.16279459e-05
-3.17254323e-05
-3.17535169e-05
-3.17550627e-05
-3.06372748e-05
-3.16212018e-05
-3.18276949e-05
-3.03605533e-05
-3.02820715e-05
-3.15581674e-05
-3.17524717e-05
-3.17064041e-05
-3.02706283e-05
-3.00052899e-05
-3.13983818e-05
-3.15987904e-05
-3.14913333e-05
-3.15678541e-05
-3.15246792e-05
-3.1562547e-05
-3.15444265e-05
-3.15703647e-05
-3.1564494e-05
-3.15894554e-05
-3.15892607e-05
-3.16189704e-05
-3.16300184e-05
-3.16690353e-05
-3.1702705e-05
-3.17644619e-05
-3.18427426e-05
-3.20002506e-05
-3.22529755e-05
-3.21736047e-05
-3.20683611e-05
-3.19306137e-05
-3.18362672e-05
-3.17310559e-05
-3.16553817e-05
-3.15837176e-05
-3.15340189e-05
-3.14808363e-05
-3.13957864e-05
-3.13332435e-05
-3.13248965e-05
-3.13636896e-05
-3.12627126e-05
-3.12399107e-05
-3.11716722e-05
-3.1182528e-05
-3.11463643e-05
-3.11898345e-05
-3.10541222e-05
-3.10245618e-05
-3.080631e-05
-3.07958416e-05
-3.05558191e-05
-3.05743424e-05
-3.03029265e-05
-3.26435913e-05
-3.21027781e-05
-3.2096012e-05
-3.16670289e-05
-3.15653355e-05
-3.11979218e-05
-3.10316515e-05
-3.06869694e-05
-3.04469954e-05
-3.01055398e-05
-2.99262101e-05
-2.99626196e-05
-3.00069254e-05
-3.00457037e-05
-3.00944815e-05
-3.0133847e-05
-3.01863461e-05
-3.02051656e-05
-3.04545503e-05
-3.12355521e-05
-3.24137369e-05
-3.37652264e-05
-3.34041968e-05
-3.57298891e-05
-3.77466106e-05
-3.88694776e-05
-4.05523458e-05
-4.17601483e-05
-4.35201731e-05
-4.45876264e-05
-4.61534187e-05
-4.73787891e-05
-4.9134617e-05
-5.05143461e-05
-5.2459062e-05
-5.38645294e-05
-5.58491914e-05
-5.72193293e-05
-5.91617162e-05
-6.0416784e-05
-6.22258913e-05
-6.33270766e-05
-6.49684717e-05
-6.59109405e-05
-6.73913896e-05
-6.82622754e-05
-6.96140796e-05
-7.02991906e-05
-7.14646569e-05
-7.19998492e-05
-7.30150511e-05
-7.34346646e-05
-7.43464846e-05
-7.47065121e-05
-7.55532746e-05
-7.58411329e-05
-7.65966013e-05
-7.68348929e-05
-7.75234387e-05
-7.7710584e-05
-7.83197117e-05
-7.85336995e-05
-7.91341527e-05
-7.91986368e-05
-7.97532598e-05
-7.99170302e-05
-8.0486296e-05
-8.07102108e-05
-8.12825732e-05
-8.09725774e-05
-8.18269377e-05
-8.21040722e-05
-8.29244214e-05
-8.20269375e-05
-8.26358413e-05
-8.34486187e-05
-8.41586806e-05
-8.27166007e-05
-8.33912295e-05
-8.42924992e-05
-8.44613055e-05
-8.37294813e-05
-8.39831912e-05
-8.47930314e-05
-8.50251308e-05
-8.44207858e-05
-8.45532203e-05
-8.53089112e-05
-8.5429374e-05
-8.49309743e-05
-8.50118273e-05
-8.57246456e-05
-8.57841336e-05
-8.5314252e-05
-8.53716665e-05
-8.60150415e-05
-8.60592599e-05
-8.56153896e-05
-8.56581955e-05
-8.62539526e-05
-8.62837749e-05
-8.5853096e-05
-8.58969681e-05
-8.64769187e-05
-8.64800176e-05
)
;

boundaryField
{
    closed
    {
        type            calculated;
        value           nonuniform List<scalar> 0();
    }
    open
    {
        type            calculated;
        value           nonuniform List<scalar> 0();
    }
    sides
    {
        type            empty;
    }
    procBoundary4to3
    {
        type            processor;
        value           uniform -3.15053589e-05;
    }
    procBoundary4to5
    {
        type            processor;
        value           uniform -8.60636615e-05;
    }
}


// ************************************************************************* //
