/*--------------------------------*- C++ -*----------------------------------*\
| =========                 |                                                 |
| \\      /  F ield         | OpenFOAM: The Open Source CFD Toolbox           |
|  \\    /   O peration     | Version:  2306                                  |
|   \\  /    A nd           | Website:  www.openfoam.com                      |
|    \\/     M anipulation  |                                                 |
\*---------------------------------------------------------------------------*/
FoamFile
{
    version     2.0;
    format      ascii;
    arch        "LSB;label=32;scalar=64";
    class       volScalarField;
    location    "0.00054";
    object      h;
}
// * * * * * * * * * * * * * * * * * * * * * * * * * * * * * * * * * * * * * //

dimensions      [0 2 -2 0 0 0 0];

internalField   nonuniform List<scalar> 
531
(
-4509.93114
-4887.03496
6473.5505
2074.68587
-5655.62825
6205.82573
9891.83535
-1205.50966
-4514.78769
6994.43026
10059.4789
-971.986566
-4193.09809
6285.08345
10068.3
6122.59945
-4648.28877
-5598.69476
3800.26486
10095.7414
9983.30118
2626.14283
-5529.608
-6184.50277
2729.07067
9689.00902
8342.03236
-4702.88449
-6052.80635
4132.26394
10082.4576
10082.4886
2893.1172
-5317.34318
-5391.41453
5332.72214
10233.2164
6684.83918
-1414.9187
-5748.81551
-5732.15753
6558.92601
9945.01269
-1124.30983
-4199.24708
7625.66176
10110.8994
3927.99375
-4958.74723
-5062.57067
6222.47576
10001.3714
-902.57352
-3945.90514
7872.92817
10174.5516
3857.07518
-4693.24615
-4848.00019
5934.06559
9940.2032
5793.68953
-5246.38383
-5606.94116
5452.23664
10202.8083
10173.7128
1222.90857
-5961.89372
-5973.72103
5897.57314
9875.40657
4254.63634
-5033.82536
-5053.98404
7065.68583
10015.3813
4342.59516
-5113.14019
-5219.56391
6636.92556
9953.97293
-1636.74962
-4563.51076
7604.73222
10047.7069
-2023.34943
-4742.82079
7264.33084
9986.84272
-2106.41426
-4967.63056
6974.12671
9940.88023
-2108.1513
-5034.3073
6848.59538
9931.39393
-2076.79795
-4978.31789
6899.20128
9956.43852
-1918.31004
-4749.40404
7170.1633
10017.5507
-1467.62264
-4459.20276
7594.60349
9988.44261
1784.16118
-5719.22679
-5797.65526
6674.98978
9901.31101
-1351.21636
-4467.28977
7406.88186
10103.7875
-1220.95773
-4050.3149
7666.91265
10102.9808
2116.86918
-5126.44208
-5191.2042
7234.60253
9969.27636
2889.70399
-5304.40729
-5366.1678
6892.86653
9974.15983
-1297.82435
-4309.85988
7450.00594
10127.2755
-1165.6721
-4042.42034
7634.53017
10070.2084
1873.32959
-5363.99528
-5395.70343
6971.28432
10002.3272
-885.023897
-4098.05267
7641.78254
10083.353
2064.09359
-5231.2834
-5293.05746
7057.08208
10026.3368
-871.281342
-4051.74571
7678.52421
10092.5071
1952.636
-5210.72912
-5232.42042
7043.0124
10031.0337
-904.990764
-4056.9012
7716.11703
10100.3187
1882.84726
-5174.82874
-5213.64077
7153.67552
10059.7592
-907.350168
-3911.84074
7805.5839
10169.8539
2095.81381
-4785.76843
-4815.78895
7405.62846
10034.5235
2630.33519
-5076.73053
-5138.83153
7333.93933
10089.0323
-1027.34028
-3905.08979
7943.48723
10140.9508
1479.27913
-5171.93446
-5246.74314
7565.32128
10102.621
-1160.60802
-3921.02376
8036.1958
10144.297
1205.88029
-5230.71133
-5275.99318
7687.49143
10100.7067
-1349.92977
-4043.02606
8117.79032
10118.1087
895.211971
-5455.11304
-5475.86743
7710.226
10046.61
-2001.18494
-4464.58685
7939.34897
10189.2325
-1770.95901
-4066.2726
8195.94947
10155.1698
1189.74201
-5204.8762
-5197.09885
7980.93973
10109.352
-1818.13173
-4280.2134
8262.34672
10131.2588
2744.01913
-5249.18403
-3971.4209
8996.16065
257.446415
-4816.47963
6651.06042
10348.2971
10064.1533
752.492586
-4901.4809
-3043.87843
4850.09714
-1121.65283
-3878.32013
8680.87374
10215.8713
-2899.30467
-5266.25968
7841.30434
10037.12
-3503.34121
-4864.92864
8419.57522
10150.9084
-3170.1664
-4858.22046
8474.47046
10149.7073
-3275.68095
-4809.09214
8567.79311
10182.5611
-3031.29143
-4584.08713
8827.9528
10141.534
3029.72242
-5774.44022
-5805.92079
8676.75842
10041.7793
-4274.46895
-5424.95621
8134.3816
10097.1063
7672.82619
-5708.35251
-6465.11341
8496.10434
10059.0757
-4390.34062
-4741.89657
8681.19788
10526.8121
5933.64897
-1779.64486
-6138.26056
-2090.3987
9519.37295
89.2932853
-4651.38929
9599.99716
10274.756
589.786494
-4287.79736
-3636.22807
10062.9981
10355.1844
561.474707
-5164.7353
-5074.52494
9787.88579
10214.3551
-3157.03837
-4419.92967
9819.2043
10182.339
-385.015351
-5438.3827
-5101.89122
9892.1063
10203.9912
-3312.58556
-4378.98909
9937.97886
10173.7672
-330.196401
-5381.28954
-4962.16219
9966.39159
10183.3549
-3382.64435
-4222.38392
10006.852
10155.8048
-421.846268
-5368.19737
-4824.7931
10002.6108
10163.9453
-3446.38804
-4088.56662
10063.1814
10139.9164
-560.944127
-5366.25334
-4693.30741
10042.9798
10161.8731
-3438.97597
-3906.95643
10124.1688
10160.7764
-770.83178
-5078.05134
-4383.50636
10230.2162
10072.7448
-399.181618
-5581.75515
-4906.74024
10047.9393
10064.6495
-4223.20654
-4633.91564
9874.39953
9987.30464
-4545.32228
-4696.04519
9859.62302
9964.9882
-4491.22008
-4530.60976
9904.82443
10050.7337
-4106.19253
-4069.97339
10149.6928
10016.1747
-1777.61152
-5887.29589
-4856.99233
10023.6036
9961.08243
-4442.43585
-4702.8691
9881.38777
9908.35091
-4653.08106
-4731.15129
9870.63435
9903.63197
-4548.67766
-4544.86475
9932.20244
9967.47312
-4068.33241
-3887.27699
10182.0186
10139.1247
-851.543859
-5191.22986
-3701.32302
10189.3024
10434.082
2320.30891
-3221.77592
-4176.47045
-3133.12264
10335.0127
10340.1507
-234.702315
-4375.79906
-2339.46042
10316.9072
10329.2458
-1154.70865
-5385.22323
-4127.40203
10176.5068
10199.0142
209.087078
-4888.13377
-3591.87361
10234.7229
10284.0018
646.614896
-4675.37342
-3665.54704
10263.6421
10252.6966
-833.636496
-5429.23704
-4289.18691
10034.1623
10210.2393
-3535.93438
-3697.35684
10156.332
10218.9402
-1232.42356
-5464.41586
-4330.82214
10024.8673
10224.3567
-3536.39255
-3751.82575
10143.9218
10219.2539
-1396.74586
-5495.38541
-4359.82648
10014.4774
10231.4659
-3522.48266
-3767.00525
10141.7766
10267.1574
-803.177017
-5060.9872
-3815.39914
10196.6999
10235.119
-880.198398
-5500.36555
-4360.69404
9957.06784
10246.6806
-3718.68817
-3985.05384
10074.5596
10178.7342
17.1441083
-6428.2909
-4186.82668
9245.29895
10604.4866
9570.70536
-1937.98366
-6327.06837
-3055.31235
10121.3878
10283.1508
-1401.07537
-5838.47365
-4933.92556
9859.52087
10166.3903
-3913.01392
-4306.1138
10009.0981
10204.7807
-460.090481
-5528.79889
-4569.44833
9852.19411
10168.5268
-4237.10001
-4793.08151
9651.20561
10137.2606
-4211.88905
-4729.78269
9690.43073
10178.5805
-3655.40255
-3963.26102
9969.0251
10449.9217
1615.31668
-3437.4843
-4488.60098
-4156.09109
9964.91345
10249.5387
-3559.63388
-3963.96285
9948.94561
10216.5073
-665.11134
-5397.04326
-4026.84245
10056.3106
10191.3233
-478.461457
-5539.95125
-4339.09287
9864.31608
10211.6375
-3313.76995
-3663.36228
10021.2263
10457.2949
1196.01435
-3563.54662
-4531.89961
-4255.71484
9891.75709
10150.2255
)
;

boundaryField
{
    closed
    {
        type            lookUpEnthalpy;
        h0              nonuniform List<scalar> 0();
        value           nonuniform List<scalar> 0();
    }
    open
    {
        type            zeroGradient;
    }
    sides
    {
        type            empty;
    }
    procBoundary3to2
    {
        type            processor;
        value           uniform 7650.08971;
    }
    procBoundary3to4
    {
        type            processor;
        value           uniform -4007.99707;
    }
}


// ************************************************************************* //
