/*--------------------------------*- C++ -*----------------------------------*\
| =========                 |                                                 |
| \\      /  F ield         | OpenFOAM: The Open Source CFD Toolbox           |
|  \\    /   O peration     | Version:  2306                                  |
|   \\  /    A nd           | Website:  www.openfoam.com                      |
|    \\/     M anipulation  |                                                 |
\*---------------------------------------------------------------------------*/
FoamFile
{
    version     2.0;
    format      ascii;
    arch        "LSB;label=32;scalar=64";
    class       surfaceScalarField;
    location    "0.0013";
    object      phi;
}
// * * * * * * * * * * * * * * * * * * * * * * * * * * * * * * * * * * * * * //

dimensions      [1 0 -1 0 0 0 0];

oriented        oriented;

internalField   nonuniform List<scalar> 
530
(
1.94943041e-05
1.87081145e-05
1.72382351e-05
1.57780609e-05
1.39771376e-05
1.26095543e-05
1.18854367e-05
1.06266616e-05
9.34438104e-06
8.04285341e-06
7.14005838e-06
6.6828819e-06
5.86758736e-06
4.93260337e-06
3.99785781e-06
3.28744088e-06
2.75542736e-06
1.90514689e-06
8.74404901e-07
-7.03136808e-08
-8.39676085e-07
-1.56825438e-06
-2.54017795e-06
-3.56247344e-06
-4.36454851e-06
-5.0096843e-06
-5.70941005e-06
-6.38740645e-06
-7.07124027e-06
-7.59355356e-06
-7.89137801e-06
-8.40652344e-06
-9.12071493e-06
-9.50956872e-06
-9.99784833e-06
-1.02211044e-05
-1.0405599e-05
-9.9190969e-06
-1.01120696e-05
-1.06615211e-05
-1.12944475e-05
-1.13142802e-05
-1.12676745e-05
-1.12865686e-05
-1.15695102e-05
-1.21504971e-05
-1.2046554e-05
-1.18008535e-05
-1.16825834e-05
-1.20511389e-05
-1.18927904e-05
-1.15889694e-05
-1.13513772e-05
-1.16141757e-05
-1.14157205e-05
-1.10903283e-05
-1.08417529e-05
-1.08744716e-05
-1.11368245e-05
-1.08014924e-05
-1.03313598e-05
-1.00830465e-05
-1.00674876e-05
-1.03082007e-05
-1.00945941e-05
-9.73046136e-06
-9.36506199e-06
-9.12515917e-06
-9.00215585e-06
-8.99737289e-06
-9.06314248e-06
-8.77813125e-06
-8.4545955e-06
-8.27779278e-06
-8.41615649e-06
-8.28732244e-06
-8.04510824e-06
-7.84959094e-06
-7.71898858e-06
-7.58649453e-06
-7.54733288e-06
-7.39280719e-06
-7.16036011e-06
-6.86843035e-06
-6.72056243e-06
-6.96508934e-06
-6.90398028e-06
-6.82079949e-06
-6.5495279e-06
-6.49282348e-06
-6.72098333e-06
-6.80841377e-06
-6.78107228e-06
-6.34597848e-06
-6.33128769e-06
-6.49286395e-06
-6.76104295e-06
-6.83052806e-06
-6.82607186e-06
-6.70901443e-06
-6.54112012e-06
-6.52564852e-06
-6.51874454e-06
-6.79377977e-06
-6.77172251e-06
-6.59187683e-06
-6.54501555e-06
-6.52190366e-06
-6.74935344e-06
-6.65722532e-06
-6.40512347e-06
-6.27798216e-06
-6.35716984e-06
-6.27792491e-06
-6.05742885e-06
-5.88603613e-06
-5.77991159e-06
-5.85711582e-06
-5.66989806e-06
-5.41123687e-06
-5.24616351e-06
-5.08188331e-06
-5.16299304e-06
-5.03825606e-06
-4.83267401e-06
-4.71016374e-06
-4.55933346e-06
-4.65638298e-06
-4.57395573e-06
-4.40701182e-06
-4.30532603e-06
-4.14366374e-06
-4.23389831e-06
-4.17357921e-06
-4.02835977e-06
-3.9375765e-06
-3.76105989e-06
-3.84557981e-06
-3.80589723e-06
-3.67989524e-06
-3.5970469e-06
-3.40809302e-06
-3.4863336e-06
-3.45465046e-06
-3.30975174e-06
-3.21652284e-06
-3.19994394e-06
-3.2024811e-06
-3.11277485e-06
-3.02891819e-06
-3.0168218e-06
-2.971503e-06
-2.94494626e-06
-2.83911383e-06
-2.78042152e-06
-2.79775294e-06
-2.85110889e-06
-2.82240449e-06
-2.8014103e-06
-2.86615868e-06
-2.89389578e-06
-2.93561808e-06
-2.9181402e-06
-2.93746766e-06
-3.04818446e-06
-3.14901505e-06
-3.22576121e-06
-3.23611258e-06
-3.24666678e-06
-3.28764754e-06
-3.41283656e-06
-3.49153007e-06
-3.55155049e-06
-3.49653668e-06
-3.53156361e-06
-3.66629091e-06
-3.74092849e-06
-3.72979197e-06
-3.73520078e-06
-3.86848958e-06
-3.86954126e-06
-3.81868425e-06
-3.67534078e-06
-3.62339417e-06
-3.66498478e-06
-3.63227178e-06
-3.51694876e-06
-3.42477921e-06
-3.43558896e-06
-3.34454466e-06
-3.22062611e-06
-3.01192645e-06
-2.89781219e-06
-2.86754101e-06
-2.80981026e-06
-2.68735613e-06
-2.59728261e-06
-2.60027693e-06
-2.55327416e-06
-2.49390348e-06
-2.39578462e-06
-2.36464349e-06
-2.42980706e-06
-2.46117987e-06
-2.4579088e-06
-2.36553385e-06
-2.36796865e-06
-2.48044629e-06
-2.52466973e-06
-2.5214141e-06
-2.42038063e-06
-2.41383657e-06
-2.53264788e-06
-2.51589727e-06
-2.45886885e-06
-2.41100432e-06
-2.39296417e-06
-2.35297151e-06
-2.4777475e-06
-2.51191853e-06
-2.45553115e-06
-2.30818689e-06
-2.28257946e-06
-2.35170623e-06
-2.36723479e-06
-2.35194977e-06
-2.35597692e-06
-2.32352412e-06
-2.43422913e-06
-2.45901951e-06
-2.44912903e-06
-2.47317066e-06
-2.47033339e-06
-2.62219829e-06
-2.67261949e-06
-2.61509909e-06
-2.63985847e-06
-2.75576421e-06
-2.80307728e-06
-2.81645208e-06
-2.8522888e-06
-2.86503068e-06
-3.03431013e-06
-3.04946617e-06
-3.03632362e-06
-3.06287415e-06
-3.15676874e-06
-3.18481566e-06
-3.20722922e-06
-3.17801063e-06
-3.16986769e-06
-3.20323649e-06
-3.2083368e-06
-3.20915057e-06
-3.12517821e-06
-3.09053902e-06
-3.04191918e-06
-3.12000656e-06
-3.10555878e-06
-3.03112616e-06
-2.92460875e-06
-2.79319277e-06
-2.72630416e-06
-2.66975341e-06
-2.60303564e-06
-2.50964037e-06
-2.43096954e-06
-2.38512119e-06
-2.38476544e-06
-2.27713645e-06
-1.72862177e-06
-1.63262638e-06
-1.52925636e-06
-1.43732361e-06
-1.32387549e-06
-1.21097615e-06
-1.01781772e-06
-9.26949492e-07
-8.72283818e-07
-7.77768552e-07
-6.9153851e-07
-5.06362805e-07
-5.13284302e-07
-4.73933792e-07
-9.29645286e-08
1.72631825e-09
-1.22707926e-07
-9.91648431e-08
4.86884166e-08
1.25731523e-07
1.73539427e-07
1.94833396e-07
2.09806753e-07
2.58289963e-07
4.26944181e-07
5.13639291e-07
4.79268776e-07
4.53818735e-07
4.77845895e-07
8.87638486e-07
9.62983588e-07
8.76885331e-07
8.3865466e-07
8.50113115e-07
1.08766703e-06
1.15176514e-06
1.1001832e-06
1.06557177e-06
1.06720545e-06
1.18624326e-06
1.1739349e-06
1.099971e-06
1.20938813e-06
1.229758e-06
1.23656209e-06
1.21877164e-06
1.19258843e-06
1.18979564e-06
1.25874587e-06
1.27421645e-06
1.18395623e-06
1.18298753e-06
1.18373323e-06
1.15979569e-06
1.12600832e-06
1.10481071e-06
1.09686945e-06
1.1277724e-06
1.14732858e-06
1.07941365e-06
1.06919758e-06
1.08044962e-06
1.12050692e-06
1.08448296e-06
1.04820789e-06
1.06123422e-06
1.1015576e-06
1.09466292e-06
1.09296438e-06
1.10538993e-06
1.171874e-06
1.2195563e-06
1.20378917e-06
1.23129013e-06
1.26273448e-06
1.35150748e-06
1.3956799e-06
1.41797466e-06
1.4790436e-06
1.62680844e-06
1.75372231e-06
1.74616287e-06
1.83291877e-06
1.95057491e-06
2.06937411e-06
2.23529801e-06
2.24939532e-06
2.3561172e-06
2.50852095e-06
2.82622827e-06
2.97169536e-06
3.03048057e-06
3.21691977e-06
3.62107782e-06
3.78751541e-06
3.83309957e-06
4.04145224e-06
4.60153298e-06
4.93082481e-06
4.96285486e-06
5.12217359e-06
5.31426736e-06
5.83264898e-06
5.95864977e-06
5.87788723e-06
6.01628048e-06
6.17917349e-06
6.37599693e-06
6.48631197e-06
6.51322017e-06
6.63405435e-06
6.79485318e-06
7.00574649e-06
7.13931511e-06
7.18636065e-06
7.32815403e-06
7.52993813e-06
7.76419596e-06
7.91942772e-06
7.98165046e-06
8.14499615e-06
8.39913774e-06
8.66630643e-06
8.83437435e-06
8.88220614e-06
9.02157196e-06
9.22024747e-06
9.47424212e-06
9.55922965e-06
9.21686544e-06
9.16986089e-06
9.17570516e-06
9.20376619e-06
9.2768955e-06
9.36461312e-06
8.84346833e-06
8.69998538e-06
8.59199892e-06
8.59845907e-06
8.56810519e-06
8.03984497e-06
7.85184382e-06
7.68308466e-06
7.61037181e-06
7.4476861e-06
7.06777512e-06
6.88807357e-06
6.80511542e-06
6.66809144e-06
6.18829575e-06
6.03365852e-06
5.83939321e-06
5.73630444e-06
5.56023825e-06
5.26243813e-06
5.11207449e-06
5.02053595e-06
4.86518794e-06
4.64817239e-06
4.52888539e-06
4.46682153e-06
4.3326859e-06
4.20456841e-06
4.09731995e-06
4.05059775e-06
3.93435575e-06
3.67996417e-06
3.66814827e-06
3.54914845e-06
3.50018066e-06
3.37659694e-06
3.36507618e-06
3.27305626e-06
3.22431488e-06
3.11648123e-06
2.89658862e-06
2.90468577e-06
2.80562405e-06
2.76583543e-06
2.6763925e-06
2.49724283e-06
2.52776802e-06
2.45335892e-06
2.43088516e-06
2.36176884e-06
2.21301798e-06
2.24704118e-06
2.17394838e-06
2.13594654e-06
2.04837319e-06
1.90306176e-06
1.88778633e-06
1.7785766e-06
1.68780132e-06
1.53405844e-06
1.53417667e-06
1.40202453e-06
1.27265446e-06
1.0941076e-06
9.23025974e-07
8.40605966e-07
6.91407412e-07
5.15047214e-07
3.72675905e-07
2.28752767e-07
8.63330489e-08
-5.11948435e-08
-9.95553734e-08
-2.18956473e-07
-3.40030755e-07
-4.6305324e-07
-5.08760177e-07
-5.19781375e-07
-5.76006339e-07
-6.5345026e-07
-7.00332167e-07
-6.28175855e-07
-6.37828518e-07
-6.66663486e-07
-6.79768387e-07
-6.15793708e-07
-5.37191909e-07
-4.70021838e-07
-4.30850598e-07
-3.87918765e-07
-1.93808809e-07
-7.23868501e-08
-4.26680065e-09
5.3788815e-08
2.55092683e-07
3.94279772e-07
5.0095379e-07
6.14457336e-07
7.12685044e-07
8.61809493e-07
1.00751777e-06
1.14599256e-06
1.28980852e-06
1.37906151e-06
1.52829795e-06
1.68329651e-06
1.84074033e-06
2.00330913e-06
2.063133e-06
2.19697448e-06
2.34803548e-06
2.51598919e-06
2.68647624e-06
2.71311137e-06
2.83125434e-06
2.97224491e-06
3.14277289e-06
3.31121791e-06
3.30154109e-06
3.40049199e-06
3.52987057e-06
3.70252607e-06
3.86981523e-06
3.83273129e-06
3.91772913e-06
)
;

boundaryField
{
    closed
    {
        type            calculated;
        value           nonuniform List<scalar> 0();
    }
    open
    {
        type            calculated;
        value           nonuniform List<scalar> 0();
    }
    sides
    {
        type            empty;
        value           nonuniform List<scalar> 0();
    }
    procBoundary1to0
    {
        type            processor;
        value           uniform -2.11945701e-05;
    }
    procBoundary1to2
    {
        type            processor;
        value           uniform 4.03726053e-06;
    }
}


// ************************************************************************* //
