/*--------------------------------*- C++ -*----------------------------------*\
| =========                 |                                                 |
| \\      /  F ield         | OpenFOAM: The Open Source CFD Toolbox           |
|  \\    /   O peration     | Version:  2306                                  |
|   \\  /    A nd           | Website:  www.openfoam.com                      |
|    \\/     M anipulation  |                                                 |
\*---------------------------------------------------------------------------*/
FoamFile
{
    version     2.0;
    format      ascii;
    arch        "LSB;label=32;scalar=64";
    class       volScalarField;
    location    "0.0013";
    object      prefDZ_T;
}
// * * * * * * * * * * * * * * * * * * * * * * * * * * * * * * * * * * * * * //

dimensions      [1 -1 -1 -1 0 0 0];

internalField   nonuniform List<scalar> 
531
(
-1.22871989e-09
-1.22121524e-09
-1.19141734e-09
-1.18943443e-09
-1.20527845e-09
-1.23080439e-09
-1.22340041e-09
-1.19144647e-09
-1.18918826e-09
-1.20272633e-09
-1.23132683e-09
-1.22453052e-09
-1.19123993e-09
-1.18881929e-09
-1.20077821e-09
-1.23151895e-09
-1.22592343e-09
-1.19126081e-09
-1.18881869e-09
-1.20060261e-09
-1.23077115e-09
-1.23170187e-09
-1.19590167e-09
-1.19038011e-09
-1.20091537e-09
-1.23089813e-09
-1.22833757e-09
-1.19072259e-09
-1.18876436e-09
-1.2000673e-09
-1.2314673e-09
-1.22689686e-09
-1.22293488e-09
-1.19091404e-09
-1.18781643e-09
-1.18740898e-09
-1.1916209e-09
-1.23282813e-09
-1.22750788e-09
-1.22104248e-09
-1.18949695e-09
-1.18812186e-09
-1.19947563e-09
-1.23129301e-09
-1.22478202e-09
-1.19016468e-09
-1.18874488e-09
-1.20021575e-09
-1.23111913e-09
-1.22104227e-09
-1.19198438e-09
-1.20003289e-09
-1.23092866e-09
-1.21932753e-09
-1.1917309e-09
-1.20029056e-09
-1.23057146e-09
-1.22369149e-09
-1.1898136e-09
-1.18905217e-09
-1.20475817e-09
-1.23009828e-09
-1.22124658e-09
-1.19020094e-09
-1.18839804e-09
-1.18852254e-09
-1.19936521e-09
-1.22849803e-09
-1.22916756e-09
-1.20359288e-09
-1.18877995e-09
-1.18875899e-09
-1.20416575e-09
-1.2302093e-09
-1.21879463e-09
-1.19350464e-09
-1.20339041e-09
-1.22833938e-09
-1.23222762e-09
-1.19242459e-09
-1.18968404e-09
-1.18895513e-09
-1.18942337e-09
-1.20831593e-09
-1.22888165e-09
-1.22850989e-09
-1.18994557e-09
-1.19007969e-09
-1.21238052e-09
-1.22910946e-09
-1.21868896e-09
-1.19054617e-09
-1.19132703e-09
-1.227576e-09
-1.22738858e-09
-1.22695075e-09
-1.18999949e-09
-1.18966288e-09
-1.1893831e-09
-1.18997189e-09
-1.21307019e-09
-1.22786757e-09
-1.23257324e-09
-1.19007015e-09
-1.19005786e-09
-1.20863493e-09
-1.22857442e-09
-1.23054656e-09
-1.18918651e-09
-1.18900566e-09
-1.20535098e-09
-1.22949556e-09
-1.21843868e-09
-1.19117864e-09
-1.20132606e-09
-1.22889127e-09
-1.22604617e-09
-1.18847798e-09
-1.18859365e-09
-1.20436117e-09
-1.22911625e-09
-1.2287709e-09
-1.18884997e-09
-1.18892696e-09
-1.20491101e-09
-1.22896159e-09
-1.22922403e-09
-1.18883018e-09
-1.18888553e-09
-1.20486576e-09
-1.22889232e-09
-1.22973355e-09
-1.18876541e-09
-1.18888401e-09
-1.20468685e-09
-1.22883131e-09
-1.2302131e-09
-1.18873187e-09
-1.1889055e-09
-1.2047603e-09
-1.22879234e-09
-1.23052915e-09
-1.18859465e-09
-1.18878309e-09
-1.20568289e-09
-1.22895187e-09
-1.21829165e-09
-1.19111844e-09
-1.20114714e-09
-1.22840636e-09
-1.22542335e-09
-1.18830572e-09
-1.18863656e-09
-1.20644459e-09
-1.22886221e-09
-1.21723873e-09
-1.19091124e-09
-1.20133199e-09
-1.2284205e-09
-1.22314382e-09
-1.18819432e-09
-1.18854453e-09
-1.20676753e-09
-1.22893034e-09
-1.22185878e-09
-1.18860646e-09
-1.18833564e-09
-1.18923982e-09
-1.20583956e-09
-1.22821247e-09
-1.22629095e-09
-1.18872584e-09
-1.1890672e-09
-1.21000553e-09
-1.22826334e-09
-1.21751259e-09
-1.19071975e-09
-1.2009963e-09
-1.22805535e-09
-1.22218944e-09
-1.18811587e-09
-1.18849836e-09
-1.20893778e-09
-1.22832342e-09
-1.21640452e-09
-1.19042395e-09
-1.20105937e-09
-1.22800924e-09
-1.22125586e-09
-1.18804263e-09
-1.18846056e-09
-1.20996262e-09
-1.22832509e-09
-1.21454158e-09
-1.18998039e-09
-1.20123996e-09
-1.2282061e-09
-1.21707456e-09
-1.18786002e-09
-1.18837748e-09
-1.20991177e-09
-1.22839291e-09
-1.21753618e-09
-1.1885465e-09
-1.18902082e-09
-1.21441005e-09
-1.22822063e-09
-1.21602062e-09
-1.18846432e-09
-1.18887515e-09
-1.21450922e-09
-1.22843052e-09
-1.21534554e-09
-1.18718359e-09
-1.18752267e-09
-1.20486632e-09
-1.22697224e-09
-1.22966498e-09
-1.19077969e-09
-1.18900304e-09
-1.1900159e-09
-1.21631343e-09
-1.22763299e-09
-1.21041678e-09
-1.18926844e-09
-1.19798941e-09
-1.22697341e-09
-1.23027799e-09
-1.18888823e-09
-1.18834639e-09
-1.20345002e-09
-1.22765974e-09
-1.23046873e-09
-1.18841487e-09
-1.18833437e-09
-1.20992928e-09
-1.22883118e-09
-1.20915863e-09
-1.18845943e-09
-1.19608938e-09
-1.22715795e-09
-1.23014815e-09
-1.18850681e-09
-1.18726881e-09
-1.20012874e-09
-1.22768328e-09
-1.23033816e-09
-1.18921972e-09
-1.1890444e-09
-1.20754681e-09
-1.22744123e-09
-1.23234251e-09
-1.18820505e-09
-1.18843734e-09
-1.2080449e-09
-1.22760833e-09
-1.23114386e-09
-1.18822521e-09
-1.18834863e-09
-1.18960333e-09
-1.18964527e-09
-1.20885853e-09
-1.22700031e-09
-1.22184769e-09
-1.18984269e-09
-1.196866e-09
-1.22670506e-09
-1.23018457e-09
-1.18849169e-09
-1.18868394e-09
-1.23180126e-09
-1.22801428e-09
-1.19770732e-09
-1.18948004e-09
-1.20256865e-09
-1.22721986e-09
-1.23144697e-09
-1.18731183e-09
-1.1873582e-09
-1.20548941e-09
-1.22815209e-09
-1.22226588e-09
-1.18718268e-09
-1.18753935e-09
-1.23167416e-09
-1.2281411e-09
-1.19161114e-09
-1.1894556e-09
-1.22975857e-09
-1.2274373e-09
-1.19353506e-09
-1.18947252e-09
-1.20485169e-09
-1.22706579e-09
-1.2313675e-09
-1.18785726e-09
-1.1874775e-09
-1.20453693e-09
-1.22773426e-09
-1.23300654e-09
-1.18792712e-09
-1.18772064e-09
-1.20601931e-09
-1.22770309e-09
-1.22508115e-09
-1.18785853e-09
-1.1877623e-09
-1.20799537e-09
-1.22806944e-09
-1.21590947e-09
-1.18712635e-09
-1.18795904e-09
-1.23162257e-09
-1.22743819e-09
-1.19454215e-09
-1.18918759e-09
-1.21022046e-09
-1.22774886e-09
-1.21256908e-09
-1.18670842e-09
-1.18785987e-09
-1.22889503e-09
-1.22747283e-09
-1.1918446e-09
-1.18874415e-09
-1.21270838e-09
-1.22783029e-09
-1.2090101e-09
-1.18641462e-09
-1.18749204e-09
-1.22841979e-09
-1.22744997e-09
-1.18925051e-09
-1.18908104e-09
-1.22741669e-09
-1.22713061e-09
-1.19015925e-09
-1.18863595e-09
-1.21520652e-09
-1.22733729e-09
-1.21262547e-09
-1.18726903e-09
-1.18730833e-09
-1.21475971e-09
-1.22703708e-09
-1.20896587e-09
-1.18931194e-09
-1.20501375e-09
-1.2276102e-09
-1.20942328e-09
-1.18651399e-09
-1.18794616e-09
-1.22844744e-09
-1.22772508e-09
-1.19371866e-09
-1.18654127e-09
-1.18905624e-09
-1.22826558e-09
-1.22689815e-09
-1.18951926e-09
-1.18884057e-09
-1.22847909e-09
-1.22710581e-09
-1.18928149e-09
-1.18925331e-09
-1.22826285e-09
-1.22743468e-09
-1.18977744e-09
-1.18646069e-09
-1.19037287e-09
-1.22843729e-09
-1.22636614e-09
-1.19020483e-09
-1.1897705e-09
-1.2288783e-09
-1.22694393e-09
-1.190936e-09
-1.18726536e-09
-1.1920653e-09
-1.22851516e-09
-1.22660054e-09
-1.19187301e-09
-1.18730645e-09
-1.19174205e-09
-1.22882128e-09
-1.22657372e-09
-1.19294676e-09
-1.18753708e-09
-1.19150073e-09
-1.22918958e-09
-1.22656207e-09
-1.19395178e-09
-1.18772076e-09
-1.19091844e-09
-1.2298972e-09
-1.2262766e-09
-1.19429961e-09
-1.18797574e-09
-1.18814995e-09
-1.18907492e-09
-1.23225819e-09
-1.22577778e-09
-1.22649688e-09
-1.19468229e-09
-1.18722222e-09
-1.18940483e-09
-1.23153556e-09
-1.22690291e-09
-1.19517242e-09
-1.18695484e-09
-1.18867754e-09
-1.23208522e-09
-1.22652214e-09
-1.19430006e-09
-1.18984568e-09
-1.23132747e-09
-1.2273784e-09
-1.19506754e-09
-1.1866864e-09
-1.18781809e-09
-1.23308617e-09
-1.22704877e-09
-1.19383599e-09
-1.18896553e-09
-1.22804869e-09
-1.22747449e-09
-1.19383462e-09
-1.18907068e-09
-1.22778337e-09
-1.22734425e-09
-1.19426052e-09
-1.18946245e-09
-1.22876185e-09
-1.22766758e-09
-1.19587174e-09
-1.18680673e-09
-1.18748554e-09
-1.23301856e-09
-1.22655356e-09
-1.19574609e-09
-1.189921e-09
-1.23075723e-09
-1.22719619e-09
-1.19762248e-09
-1.18778309e-09
-1.18888696e-09
-1.23183338e-09
-1.22693862e-09
-1.19840954e-09
-1.18773803e-09
-1.18888739e-09
-1.2314748e-09
-1.22706288e-09
-1.19757949e-09
-1.18727026e-09
-1.18839802e-09
-1.23132358e-09
-1.22728975e-09
-1.19615736e-09
-1.18671288e-09
-1.1875528e-09
-1.23124571e-09
-1.22653886e-09
-1.19379664e-09
-1.18967177e-09
-1.23271487e-09
-1.22727445e-09
-1.19480414e-09
-1.18679273e-09
-1.18867454e-09
-1.23116258e-09
-1.22584516e-09
-1.22719993e-09
-1.1957612e-09
-1.18862824e-09
-1.18773999e-09
-1.18862916e-09
-1.22897911e-09
-1.22760727e-09
-1.19506835e-09
-1.18719253e-09
-1.18826058e-09
-1.22893669e-09
-1.22684907e-09
-1.19323574e-09
-1.19004854e-09
-1.22998803e-09
-1.22762253e-09
-1.19375837e-09
-1.18690435e-09
-1.18796595e-09
-1.22860086e-09
-1.22729782e-09
-1.19239123e-09
-1.18934757e-09
-1.23048188e-09
-1.22689025e-09
-1.19215004e-09
-1.18996162e-09
-1.22985693e-09
-1.22741769e-09
-1.19455228e-09
-1.18722819e-09
-1.18877837e-09
-1.22842315e-09
-1.22735669e-09
-1.19595401e-09
-1.18735641e-09
-1.18891113e-09
-1.22831707e-09
-1.22708312e-09
-1.19666083e-09
-1.18760371e-09
-1.18904139e-09
-1.22829929e-09
-1.22688155e-09
-1.19727442e-09
-1.18772771e-09
-1.18903382e-09
-1.22846573e-09
-1.226807e-09
-1.19774787e-09
-1.18776404e-09
-1.18892585e-09
-1.22868287e-09
-1.22677226e-09
-1.19816332e-09
-1.18779471e-09
-1.18878054e-09
-1.22891559e-09
-1.2267001e-09
)
;

boundaryField
{
    closed
    {
        type            calculated;
        value           nonuniform List<scalar> 0();
    }
    open
    {
        type            calculated;
        value           nonuniform List<scalar> 0();
    }
    sides
    {
        type            empty;
    }
    procBoundary1to0
    {
        type            processor;
        value           uniform -1.21850593e-09;
    }
    procBoundary1to2
    {
        type            processor;
        value           uniform -1.19870324e-09;
    }
}


// ************************************************************************* //
