/*--------------------------------*- C++ -*----------------------------------*\
| =========                 |                                                 |
| \\      /  F ield         | OpenFOAM: The Open Source CFD Toolbox           |
|  \\    /   O peration     | Version:  2306                                  |
|   \\  /    A nd           | Website:  www.openfoam.com                      |
|    \\/     M anipulation  |                                                 |
\*---------------------------------------------------------------------------*/
FoamFile
{
    version     2.0;
    format      ascii;
    arch        "LSB;label=32;scalar=64";
    class       volScalarField;
    location    "0.00198";
    object      prefDZ_H2O;
}
// * * * * * * * * * * * * * * * * * * * * * * * * * * * * * * * * * * * * * //

dimensions      [1 -1 -1 0 0 0 0];

internalField   nonuniform List<scalar> 
531
(
-7.74606338e-07
-7.74042798e-07
-7.48275624e-07
-7.33796881e-07
-7.34431878e-07
-7.75412773e-07
-7.7369039e-07
-7.74738651e-07
-7.40929202e-07
-7.3617023e-07
-7.74272871e-07
-7.73943491e-07
-7.43878613e-07
-7.36617998e-07
-7.33281293e-07
-7.33216365e-07
-7.76104133e-07
-7.74893248e-07
-7.35530056e-07
-7.33092413e-07
-7.62996305e-07
-7.74670306e-07
-7.74743348e-07
-7.73885619e-07
-7.74141664e-07
-7.3987631e-07
-7.36096025e-07
-7.33810161e-07
-7.34316117e-07
-7.75566679e-07
-7.40682473e-07
-7.34604089e-07
-7.75781539e-07
-7.73857555e-07
-7.75021847e-07
-7.50672471e-07
-7.36481257e-07
-7.32425992e-07
-7.32363985e-07
-7.76414581e-07
-7.74907372e-07
-7.35602507e-07
-7.34030767e-07
-7.75942972e-07
-7.74677863e-07
-7.36878436e-07
-7.3465864e-07
-7.75074355e-07
-7.7504167e-07
-7.46132974e-07
-7.31964339e-07
-7.32865638e-07
-7.76278778e-07
-7.74078593e-07
-7.75224174e-07
-7.42512104e-07
-7.36593499e-07
-7.75003362e-07
-7.73749856e-07
-7.38128732e-07
-7.38302067e-07
-7.750746e-07
-7.49237046e-07
-7.34374849e-07
-7.75711238e-07
-7.73875505e-07
-7.74792393e-07
-7.5084443e-07
-7.37177712e-07
-7.33460401e-07
-7.3343407e-07
-7.7569665e-07
-7.7525418e-07
-7.41604976e-07
-7.306212e-07
-7.30779775e-07
-7.7513261e-07
-7.75195365e-07
-7.42638534e-07
-7.33542573e-07
-7.42668319e-07
-7.75418202e-07
-7.43906047e-07
-7.35103596e-07
-7.63687032e-07
-7.74586011e-07
-7.7542578e-07
-7.5975153e-07
-7.3078889e-07
-7.31072746e-07
-7.80380315e-07
-7.75648671e-07
-7.77466388e-07
-7.75283902e-07
-7.75531972e-07
-7.34747752e-07
-7.32444966e-07
-7.76155441e-07
-7.75688768e-07
-7.44305803e-07
-7.32409541e-07
-7.33962795e-07
-7.76707352e-07
-7.40577211e-07
-7.32546381e-07
-7.7619922e-07
-7.74892222e-07
-7.35789567e-07
-7.35883348e-07
-7.76974546e-07
-7.73812301e-07
-7.75100791e-07
-7.52373956e-07
-7.3693046e-07
-7.32951691e-07
-7.3286944e-07
-7.76780782e-07
-7.74666485e-07
-7.35676342e-07
-7.35750237e-07
-7.76467312e-07
-7.3925699e-07
-7.3129787e-07
-7.7728452e-07
-7.74789485e-07
-7.76141958e-07
-7.37964208e-07
-7.3470981e-07
-7.76895454e-07
-7.73962125e-07
-7.75369749e-07
-7.4097108e-07
-7.36146457e-07
-7.75313067e-07
-7.74159939e-07
-7.44202711e-07
-7.37870416e-07
-7.33725829e-07
-7.3385292e-07
-7.76694432e-07
-7.38254418e-07
-7.31777497e-07
-7.77624671e-07
-7.74621502e-07
-7.76234977e-07
-7.38442966e-07
-7.33047747e-07
-7.76396609e-07
-7.75131233e-07
-7.37376863e-07
-7.34025213e-07
-7.75938229e-07
-7.7543509e-07
-7.4609552e-07
-7.3142964e-07
-7.31635759e-07
-7.77643528e-07
-7.74902542e-07
-7.76267872e-07
-7.74300884e-07
-7.74575066e-07
-7.56255104e-07
-7.38311003e-07
-7.33228752e-07
-7.33549411e-07
-7.76826537e-07
-7.40060127e-07
-7.31270244e-07
-7.7654048e-07
-7.75156578e-07
-7.37219308e-07
-7.34710085e-07
-7.76187123e-07
-7.74457403e-07
-7.41567503e-07
-7.36833202e-07
-7.32850895e-07
-7.32960046e-07
-7.77316186e-07
-7.74194359e-07
-7.75316399e-07
-7.42053057e-07
-7.36378619e-07
-7.75812096e-07
-7.74204868e-07
-7.44036589e-07
-7.37838626e-07
-7.32546327e-07
-7.32519122e-07
-7.78287169e-07
-7.75584976e-07
-7.75918911e-07
-7.75615869e-07
-7.52644116e-07
-7.316629e-07
-7.31507005e-07
-7.77219596e-07
-7.75106839e-07
-7.37054628e-07
-7.33904175e-07
-7.77341093e-07
-7.74865266e-07
-7.37943793e-07
-7.34475687e-07
-7.76643847e-07
-7.75477701e-07
-7.44230363e-07
-7.31223117e-07
-7.31172625e-07
-7.78482702e-07
-7.75798194e-07
-7.76802994e-07
-7.75593627e-07
-7.74826611e-07
-7.75105037e-07
-7.43254648e-07
-7.34582393e-07
-7.3546094e-07
-7.31533274e-07
-7.31288734e-07
-7.7781511e-07
-7.74900509e-07
-7.36549293e-07
-7.35501776e-07
-7.7782598e-07
-7.73894791e-07
-7.74728568e-07
-7.38732474e-07
-7.35341435e-07
-7.76356281e-07
-7.7489921e-07
-7.45719973e-07
-7.3303109e-07
-7.32838868e-07
-7.7691913e-07
-7.7472205e-07
-7.38786936e-07
-7.34923578e-07
-7.76619064e-07
-7.74797477e-07
-7.45402251e-07
-7.33628688e-07
-7.33521907e-07
-7.76570571e-07
-7.75106394e-07
-7.45690332e-07
-7.3309764e-07
-7.32889481e-07
-7.77056531e-07
-7.74324979e-07
-7.3806142e-07
-7.3765577e-07
-7.77757477e-07
-7.48837125e-07
-7.32846864e-07
-7.77259923e-07
-7.74841046e-07
-7.38240724e-07
-7.35442268e-07
-7.77251729e-07
-7.74290815e-07
-7.38815221e-07
-7.36433557e-07
-7.76793813e-07
-7.74145348e-07
-7.42243632e-07
-7.37014121e-07
-7.32615106e-07
-7.325902e-07
-7.78383861e-07
-7.74198604e-07
-7.75718226e-07
-7.41252852e-07
-7.34357265e-07
-7.77410658e-07
-7.74532295e-07
-7.38310141e-07
-7.35516593e-07
-7.77742018e-07
-7.74215287e-07
-7.37950742e-07
-7.35865199e-07
-7.77856986e-07
-7.74019838e-07
-7.37578038e-07
-7.36619993e-07
-7.78044151e-07
-7.73408223e-07
-7.74467161e-07
-7.44777261e-07
-7.36734759e-07
-7.3280539e-07
-7.32790009e-07
-7.78581456e-07
-7.74111422e-07
-7.75474778e-07
-7.42601219e-07
-7.30995553e-07
-7.30810161e-07
-7.78490365e-07
-7.74790758e-07
-7.75153692e-07
-7.37135722e-07
-7.3211811e-07
-7.77862257e-07
-7.77265483e-07
-7.40109627e-07
-7.79109653e-07
-7.73508373e-07
-7.37589967e-07
-7.36291779e-07
-7.77879064e-07
-7.74336206e-07
-7.40588947e-07
-7.36368802e-07
-7.3154126e-07
-7.31427038e-07
-7.79671297e-07
-7.74922414e-07
-7.76123519e-07
-7.38233927e-07
-7.32231872e-07
-7.79336835e-07
-7.75614853e-07
-7.34479363e-07
-7.3160164e-07
-7.80734491e-07
-7.7567846e-07
-7.7673576e-07
-7.75488825e-07
-7.39407363e-07
-7.33283561e-07
-7.78004924e-07
-7.75555391e-07
-7.41545109e-07
-7.31910857e-07
-7.31696025e-07
-7.78335065e-07
-7.7572817e-07
-7.42044434e-07
-7.30969753e-07
-7.30915542e-07
-7.78330077e-07
-7.74569362e-07
-7.74982904e-07
-7.3965236e-07
-7.3474742e-07
-7.77546875e-07
-7.75170999e-07
-7.44360191e-07
-7.32756883e-07
-7.32580993e-07
-7.78124524e-07
-7.7424178e-07
-7.74457758e-07
-7.39832074e-07
-7.35896471e-07
-7.77249431e-07
-7.74698324e-07
-7.46475035e-07
-7.34521132e-07
-7.34195712e-07
-7.77309605e-07
-7.7482569e-07
-7.4524347e-07
-7.33960136e-07
-7.33787413e-07
-7.7747046e-07
-7.74992459e-07
-7.44538983e-07
-7.33458863e-07
-7.33268348e-07
-7.77766883e-07
-7.74675151e-07
-7.3963547e-07
-7.35779333e-07
-7.77280782e-07
-7.74494345e-07
-7.48601433e-07
-7.35805809e-07
-7.35990469e-07
-7.3124846e-07
-7.30978233e-07
-7.79906552e-07
-7.75039953e-07
-7.76780293e-07
-7.74308976e-07
-7.74482208e-07
-7.38964196e-07
-7.35205375e-07
-7.77795532e-07
-7.74488184e-07
-7.37969586e-07
-7.3494742e-07
-7.77941401e-07
-7.74545946e-07
-7.38623275e-07
-7.3497866e-07
-7.77474757e-07
-7.74880167e-07
-7.43626479e-07
-7.33613297e-07
-7.33338598e-07
-7.77825342e-07
-7.74711245e-07
-7.39478182e-07
-7.34842209e-07
-7.77466758e-07
-7.74912389e-07
-7.43171286e-07
-7.33134348e-07
-7.3298959e-07
-7.77850708e-07
-7.76139479e-07
-7.41084606e-07
-7.77776064e-07
-7.73764549e-07
-7.42285903e-07
-7.35133222e-07
-7.3497171e-07
-7.77100806e-07
-7.74876407e-07
-7.4334751e-07
-7.33532361e-07
-7.33288872e-07
-7.77692179e-07
-7.7548092e-07
-7.41115075e-07
-7.30538108e-07
-7.30477821e-07
-7.78391707e-07
-7.75004854e-07
-7.75737011e-07
-7.36881985e-07
-7.32244676e-07
-7.79519466e-07
-7.75216343e-07
-7.76356543e-07
-7.74858669e-07
-7.36827074e-07
-7.34812115e-07
-7.78722691e-07
-7.73844959e-07
-7.75098606e-07
-7.40198287e-07
-7.3520919e-07
-7.76864346e-07
-7.74308061e-07
-7.44326109e-07
-7.37318227e-07
-7.35166676e-07
-7.35015983e-07
-7.77535934e-07
-7.74382487e-07
-7.38719029e-07
-7.3614578e-07
-7.77056244e-07
-7.74216011e-07
-7.41534971e-07
-7.36660596e-07
-7.33793855e-07
-7.33632409e-07
-7.78267855e-07
-7.74748442e-07
-7.36326595e-07
-7.34273595e-07
-7.78402242e-07
-7.74563916e-07
-7.35502898e-07
-7.34696478e-07
-7.78811599e-07
-7.74050954e-07
-7.75196879e-07
-7.38454107e-07
-7.33586338e-07
-7.77519157e-07
-7.75099929e-07
-7.37932494e-07
-7.3297155e-07
-7.77435659e-07
-7.75742217e-07
-7.39370294e-07
-7.29334708e-07
-7.29162091e-07
-7.78480327e-07
-7.75169771e-07
-7.76023618e-07
-7.74296693e-07
-7.74332676e-07
-7.3920753e-07
-7.38336728e-07
-7.77211349e-07
-7.43685118e-07
-7.34723934e-07
-7.77533299e-07
-7.73818648e-07
-7.74535087e-07
-7.49481514e-07
-7.35447112e-07
-7.35935087e-07
-7.31740117e-07
-7.314953e-07
-7.78598521e-07
-7.75130133e-07
-7.34836903e-07
-7.3389185e-07
-7.79143652e-07
-7.74476278e-07
-7.75675517e-07
-7.37846829e-07
-7.33464419e-07
-7.7809419e-07
-7.75171226e-07
-7.35874101e-07
-7.33437718e-07
-7.78803655e-07
-7.75294766e-07
-7.75473707e-07
-7.75337677e-07
-7.41767651e-07
-7.32393762e-07
-7.32189925e-07
-7.77422774e-07
-7.75610541e-07
-7.4026011e-07
-7.31047308e-07
-7.3174612e-07
-7.77310409e-07
-7.74243528e-07
-7.74756284e-07
-7.39965247e-07
)
;

boundaryField
{
    closed
    {
        type            calculated;
        value           nonuniform List<scalar> 0();
    }
    open
    {
        type            calculated;
        value           nonuniform List<scalar> 0();
    }
    sides
    {
        type            empty;
    }
    procBoundary1to0
    {
        type            processor;
        value           uniform -7.36271515e-07;
    }
    procBoundary1to2
    {
        type            processor;
        value           uniform -7.32632183e-07;
    }
}


// ************************************************************************* //
