/*--------------------------------*- C++ -*----------------------------------*\
| =========                 |                                                 |
| \\      /  F ield         | OpenFOAM: The Open Source CFD Toolbox           |
|  \\    /   O peration     | Version:  2306                                  |
|   \\  /    A nd           | Website:  www.openfoam.com                      |
|    \\/     M anipulation  |                                                 |
\*---------------------------------------------------------------------------*/
FoamFile
{
    version     2.0;
    format      ascii;
    arch        "LSB;label=32;scalar=64";
    class       volScalarField;
    location    "0.00078";
    object      prefDZ_H2;
}
// * * * * * * * * * * * * * * * * * * * * * * * * * * * * * * * * * * * * * //

dimensions      [1 -1 -1 0 0 0 0];

internalField   nonuniform List<scalar> 
530
(
6.35510759e-05
6.25151815e-05
6.23331493e-05
6.23306943e-05
6.23304655e-05
6.23304601e-05
6.23304598e-05
6.23304597e-05
6.23304597e-05
6.23304597e-05
6.23304597e-05
6.23304597e-05
6.23304597e-05
6.23304597e-05
6.23304597e-05
6.23304597e-05
6.23304597e-05
6.23304597e-05
6.23304597e-05
6.23304597e-05
6.23304597e-05
6.23304597e-05
6.23304597e-05
6.23304597e-05
6.23304597e-05
6.23304597e-05
6.23304597e-05
6.23304597e-05
6.23304597e-05
6.23304597e-05
6.23304597e-05
6.23304597e-05
6.23304597e-05
6.23304597e-05
6.23304597e-05
6.23304597e-05
6.23304597e-05
6.23304597e-05
6.23304597e-05
6.23304597e-05
6.23304597e-05
6.23304597e-05
6.23304597e-05
6.23304597e-05
6.23304597e-05
6.23304597e-05
6.23304597e-05
6.23304597e-05
6.23304597e-05
6.23304597e-05
6.23304597e-05
6.23304597e-05
6.23304597e-05
6.23304597e-05
6.23304597e-05
6.23304597e-05
6.23304597e-05
6.23304597e-05
6.23304597e-05
6.23304597e-05
6.23304597e-05
6.23304597e-05
6.23304597e-05
6.23304597e-05
6.23304597e-05
6.23304597e-05
6.23304597e-05
6.23304598e-05
6.23304598e-05
6.23304598e-05
6.23304598e-05
6.233046e-05
6.23304603e-05
6.23304616e-05
6.23304629e-05
6.23304699e-05
6.23304783e-05
6.23305075e-05
6.23305321e-05
6.23306531e-05
6.23307664e-05
6.2331046e-05
6.23314337e-05
6.23324542e-05
6.2332303e-05
6.23299697e-05
6.23329416e-05
6.23591602e-05
6.23639274e-05
6.22948926e-05
6.22963122e-05
6.24274672e-05
6.26167813e-05
6.22780342e-05
6.17745034e-05
6.22608073e-05
6.34535629e-05
6.3573789e-05
6.34756639e-05
6.16250069e-05
6.14621346e-05
6.16618275e-05
6.23429831e-05
6.35631097e-05
6.35657287e-05
6.35570344e-05
6.36017822e-05
6.12164716e-05
6.1126327e-05
6.18350666e-05
6.23790913e-05
6.36208461e-05
6.3572445e-05
6.22935161e-05
6.16323161e-05
6.18367411e-05
6.17844431e-05
6.23485791e-05
6.35613407e-05
6.35685424e-05
6.35611322e-05
6.35798644e-05
6.1378715e-05
6.10903308e-05
6.23012003e-05
6.35087617e-05
6.36260712e-05
6.15009098e-05
6.13302889e-05
6.23036519e-05
6.35269898e-05
6.36546721e-05
6.17781971e-05
6.19772013e-05
6.3522012e-05
6.35974698e-05
6.11541099e-05
6.11694089e-05
6.35608e-05
6.35416917e-05
6.19893982e-05
6.17608878e-05
6.36224401e-05
6.35460283e-05
6.23137652e-05
6.17289131e-05
6.22782258e-05
6.35346205e-05
6.36732735e-05
6.11671562e-05
6.1240333e-05
6.35704451e-05
6.36083729e-05
6.17890151e-05
6.19060543e-05
6.35871689e-05
6.35725983e-05
6.20415027e-05
6.17851563e-05
6.22932876e-05
6.35403147e-05
6.3677216e-05
6.14086051e-05
6.14370617e-05
6.35769532e-05
6.35932862e-05
6.18726434e-05
6.20157635e-05
6.36458769e-05
6.35555919e-05
6.22671132e-05
6.16414728e-05
6.22652785e-05
6.35409071e-05
6.36496114e-05
6.18728489e-05
6.17492614e-05
6.17647516e-05
6.20852898e-05
6.35928942e-05
6.36362833e-05
6.1781687e-05
6.18856558e-05
6.36090896e-05
6.36169724e-05
6.18288413e-05
6.1967766e-05
6.36174824e-05
6.35737495e-05
6.1891525e-05
6.14867237e-05
6.22862024e-05
6.35628159e-05
6.3663798e-05
6.19146228e-05
6.21021519e-05
6.3589888e-05
6.35920698e-05
6.19548725e-05
6.15765985e-05
6.23049846e-05
6.35586246e-05
6.36071532e-05
6.17615584e-05
6.14710213e-05
6.2165958e-05
6.35658997e-05
6.36231883e-05
6.16937801e-05
6.18068568e-05
6.35701865e-05
6.35974352e-05
6.16876936e-05
6.17291624e-05
6.35784996e-05
6.35786567e-05
6.16376529e-05
6.16934767e-05
6.35804091e-05
6.3571789e-05
6.16065045e-05
6.16658275e-05
6.35806965e-05
6.35688254e-05
6.15885315e-05
6.16537709e-05
6.35829244e-05
6.35685233e-05
6.15936693e-05
6.16721864e-05
6.35878328e-05
6.35711188e-05
6.16437106e-05
6.17394042e-05
6.35911617e-05
6.35722898e-05
6.1715044e-05
6.18874978e-05
6.35952498e-05
6.35470374e-05
6.16047872e-05
6.13296671e-05
6.21197258e-05
6.35634429e-05
6.36287227e-05
6.16991499e-05
6.18951329e-05
6.35813807e-05
6.36101487e-05
6.18223235e-05
6.2002771e-05
6.36038193e-05
6.35726774e-05
6.17124635e-05
6.14807165e-05
6.22690065e-05
6.35812136e-05
6.36437841e-05
6.18340167e-05
6.21064029e-05
6.35997138e-05
6.35981042e-05
6.17897126e-05
6.15994463e-05
6.22769179e-05
6.35807908e-05
6.3650771e-05
6.1960009e-05
6.21917689e-05
6.35832967e-05
6.3616435e-05
6.17839441e-05
6.18052127e-05
6.18263257e-05
6.2210608e-05
6.36150517e-05
6.36404609e-05
6.18897959e-05
6.21277743e-05
6.36271593e-05
6.36088167e-05
6.19257766e-05
6.17627644e-05
6.22921307e-05
6.35913868e-05
6.35992917e-05
6.36040641e-05
6.17888749e-05
6.17384726e-05
6.1820141e-05
6.22657558e-05
6.36173707e-05
6.36150779e-05
6.17557541e-05
6.1639409e-05
6.22716407e-05
6.36077641e-05
6.36294656e-05
6.20698974e-05
6.18699436e-05
6.22828049e-05
6.36010958e-05
6.3616358e-05
6.19144005e-05
6.16912074e-05
6.22887445e-05
6.36033418e-05
6.36133784e-05
6.17764217e-05
6.16098229e-05
6.22904868e-05
6.35971368e-05
6.36293303e-05
6.1874182e-05
6.2104939e-05
6.35985456e-05
6.35794861e-05
6.16733108e-05
6.14372976e-05
6.21315149e-05
6.35634362e-05
6.3619603e-05
6.1613559e-05
6.19728645e-05
6.35609896e-05
6.35866574e-05
6.35432257e-05
6.35698421e-05
6.1392971e-05
6.13839542e-05
6.15251302e-05
6.19221254e-05
6.35623633e-05
6.35868982e-05
6.16199228e-05
6.17478834e-05
6.35816244e-05
6.35847746e-05
6.1762975e-05
6.19833127e-05
6.35974166e-05
6.35534824e-05
6.16568453e-05
6.15047634e-05
6.21844685e-05
6.35809645e-05
6.36324289e-05
6.18232936e-05
6.1944734e-05
6.36003389e-05
6.36278773e-05
6.19093951e-05
6.20516902e-05
6.3619409e-05
6.36052931e-05
6.18068528e-05
6.17378309e-05
6.23437644e-05
6.35702105e-05
6.35905853e-05
6.19606473e-05
6.18609011e-05
6.2138732e-05
6.16018613e-05
6.21955495e-05
6.3598189e-05
6.36126134e-05
6.35695437e-05
6.3610991e-05
6.17095233e-05
6.15935041e-05
6.22906705e-05
6.35945686e-05
6.36137313e-05
6.19686207e-05
6.19518626e-05
6.2073288e-05
6.20642199e-05
6.19837539e-05
6.23918419e-05
6.3610758e-05
6.35990996e-05
6.36094339e-05
6.18963938e-05
6.19085664e-05
6.36260027e-05
6.35701824e-05
6.16548036e-05
6.14677676e-05
6.22413455e-05
6.35911454e-05
6.36277649e-05
6.18064557e-05
6.21028037e-05
6.36060128e-05
6.35877725e-05
6.16752335e-05
6.15054237e-05
6.22671429e-05
6.35887684e-05
6.36357103e-05
6.16127373e-05
6.22829101e-05
6.35600954e-05
6.19495172e-05
6.16131331e-05
6.24284712e-05
6.3527046e-05
6.35912707e-05
6.12862577e-05
6.17067703e-05
6.35576751e-05
6.35663665e-05
6.35458457e-05
6.16935076e-05
6.15496828e-05
6.20835534e-05
6.19514233e-05
6.23249061e-05
6.35009053e-05
6.35929056e-05
6.13931555e-05
6.17359829e-05
6.3571609e-05
6.35897853e-05
6.35768272e-05
6.1552974e-05
6.14531683e-05
6.36008059e-05
6.35029271e-05
6.20571692e-05
6.15376514e-05
6.2277767e-05
6.34867345e-05
6.35847208e-05
6.13633238e-05
6.17958503e-05
6.35417677e-05
6.35528934e-05
6.352302e-05
6.14027834e-05
6.09965242e-05
6.21162822e-05
6.35639098e-05
6.35621788e-05
6.20972922e-05
6.16960525e-05
6.23012892e-05
6.35926291e-05
6.35961786e-05
6.19431778e-05
6.17001374e-05
6.22927559e-05
6.35981624e-05
6.35927027e-05
6.18784964e-05
6.16611583e-05
6.23150189e-05
6.35887425e-05
6.3573297e-05
6.16909587e-05
6.13628865e-05
6.22199927e-05
6.35867556e-05
6.35819524e-05
6.35768605e-05
6.35651787e-05
6.16798515e-05
6.12509682e-05
6.22506713e-05
6.35703699e-05
6.3558249e-05
6.15399001e-05
6.14375984e-05
6.21525834e-05
6.35778424e-05
6.35667905e-05
6.16239016e-05
6.18733386e-05
6.35615357e-05
6.3567236e-05
6.15439676e-05
6.16694413e-05
6.35680921e-05
6.35547613e-05
6.17078378e-05
6.19942925e-05
6.35883286e-05
6.35380336e-05
6.17493829e-05
6.15482973e-05
6.22961684e-05
6.35674012e-05
6.36129051e-05
6.16309108e-05
6.18842771e-05
6.3569304e-05
6.35980403e-05
6.17412541e-05
6.20398187e-05
6.35959443e-05
6.35637164e-05
6.16753394e-05
6.15280951e-05
6.22268476e-05
6.3581895e-05
6.36236278e-05
6.16241161e-05
6.18798753e-05
6.35806428e-05
6.36150212e-05
6.17513194e-05
6.20391484e-05
6.36037633e-05
6.35824964e-05
6.1738625e-05
6.16395336e-05
6.2280884e-05
6.35847978e-05
6.36280838e-05
6.16694265e-05
6.15712836e-05
6.23999675e-05
6.3626058e-05
6.20922195e-05
6.20387369e-05
6.36138285e-05
6.3626434e-05
6.18930779e-05
6.20318285e-05
)
;

boundaryField
{
    closed
    {
        type            calculated;
        value           uniform 8.13933213e-05;
    }
    open
    {
        type            calculated;
        value           nonuniform List<scalar> 0();
    }
    sides
    {
        type            empty;
    }
    procBoundary0to1
    {
        type            processor;
        value           uniform 6.36418739e-05;
    }
}


// ************************************************************************* //
