/*--------------------------------*- C++ -*----------------------------------*\
| =========                 |                                                 |
| \\      /  F ield         | OpenFOAM: The Open Source CFD Toolbox           |
|  \\    /   O peration     | Version:  2306                                  |
|   \\  /    A nd           | Website:  www.openfoam.com                      |
|    \\/     M anipulation  |                                                 |
\*---------------------------------------------------------------------------*/
FoamFile
{
    version     2.0;
    format      ascii;
    arch        "LSB;label=32;scalar=64";
    class       volScalarField;
    location    "0.00078";
    object      sourcePV;
}
// * * * * * * * * * * * * * * * * * * * * * * * * * * * * * * * * * * * * * //

dimensions      [1 -3 -1 0 0 0 0];

internalField   nonuniform List<scalar> 
530
(
0.0722302076
0.0817610689
0.0815660294
0.0815330714
0.0815304823
0.0815304444
0.0815304429
0.0815304428
0.0815304428
0.0815304428
0.0815304428
0.0815304428
0.0815304428
0.0815304428
0.0815304428
0.0815304428
0.0815304428
0.0815304428
0.0815304428
0.0815304428
0.0815304428
0.0815304428
0.0815304428
0.0815304428
0.0815304428
0.0815304428
0.0815304428
0.0815304428
0.0815304428
0.0815304428
0.0815304428
0.0815304428
0.0815304428
0.0815304428
0.0815304428
0.0815304428
0.0815304428
0.0815304428
0.0815304428
0.0815304428
0.0815304428
0.0815304428
0.0815304428
0.0815304428
0.0815304428
0.0815304428
0.0815304428
0.0815304428
0.0815304428
0.0815304428
0.0815304428
0.0815304428
0.0815304428
0.0815304428
0.0815304428
0.0815304428
0.0815304428
0.0815304428
0.0815304428
0.0815304428
0.0815304428
0.0815304428
0.0815304428
0.0815304428
0.0815304428
0.0815304428
0.0815304428
0.0815304428
0.0815304428
0.081530443
0.0815304433
0.0815304443
0.0815304435
0.0815304538
0.0815304848
0.0815304856
0.0815303423
0.0815307107
0.0815317178
0.0815313161
0.081531518
0.0815359909
0.0815183001
0.0814663666
0.0816086645
0.0823279575
0.0820438144
0.0776697551
0.077492066
0.0928303831
0.102254799
0.0681154391
0.0487144556
0.0945576841
0.154198343
0.120417988
0.00398425791
0.00627456273
0.00395822723
0.159440604
0.166695661
0.157925302
0.108829938
0.0056663473
0.00537712146
0.00549197475
0.00486181128
0.176377024
0.180184224
0.150080362
0.0802418465
0.00639492299
0.00606818522
0.0911528618
0.159001306
0.149587361
0.15249881
0.0838358814
0.00579111546
0.00552651929
0.00564460522
0.00504782371
0.169552782
0.181689585
0.104530935
0.00531301584
0.00590294227
0.164663339
0.171775182
0.108294855
0.00557903178
0.00617314194
0.153187359
0.144177094
0.00548210135
0.00544235557
0.179059222
0.17841864
0.00524077963
0.00549366648
0.144116358
0.153927488
0.00579604283
0.00575219072
0.124530874
0.155402276
0.108665062
0.00552753921
0.00601149497
0.178442536
0.175191829
0.00563024584
0.00564641239
0.152184964
0.147376682
0.00609836681
0.00595323058
0.140963263
0.152868604
0.0964283184
0.00570246325
0.00599372664
0.168418303
0.167010575
0.00588762965
0.00573149168
0.148124247
0.142922801
0.00651269222
0.00586928445
0.12477219
0.159020338
0.121349219
0.005851955
0.00638264167
0.148883983
0.15357908
0.15338844
0.138941478
0.00601419827
0.0061613801
0.152207641
0.147747294
0.00615112246
0.00603078985
0.15003319
0.144565102
0.0062366743
0.00581556505
0.147046659
0.165340283
0.129011343
0.00586688307
0.00648166073
0.146906616
0.138090197
0.00620267493
0.00599369184
0.144648991
0.16153454
0.123262887
0.00583221122
0.00614160744
0.153420639
0.165846301
0.135533628
0.0057692678
0.00614065475
0.15642789
0.151194633
0.00592328489
0.00580910176
0.156541527
0.15483784
0.00593060927
0.00568653934
0.1586116
0.156455746
0.00590637828
0.00562042441
0.159923122
0.157654631
0.0058902559
0.00557782797
0.160673267
0.158164859
0.00589422545
0.00556551113
0.16041917
0.157363253
0.00593552257
0.00559970339
0.158240732
0.154464032
0.00600157035
0.00569229586
0.155192376
0.148250308
0.00597974642
0.00560166497
0.159750138
0.171887813
0.137114514
0.00576279139
0.00609450157
0.156155863
0.147025292
0.00603081809
0.00593197928
0.150609417
0.142814305
0.00609771105
0.00578958843
0.154953728
0.165492597
0.130048913
0.00595098387
0.00632125654
0.150246463
0.137661636
0.00611872522
0.00598432801
0.151604921
0.160379308
0.125410598
0.00606984745
0.00643393147
0.144952142
0.13366256
0.00611280595
0.00605290357
0.152236979
0.151057265
0.150408149
0.132844945
0.0061944561
0.00628167213
0.147286117
0.136620915
0.00631105781
0.00611485384
0.145558598
0.153236616
0.0981916399
0.00604074254
0.00642085142
0.00588001713
0.151966455
0.154033917
0.150670088
0.130641766
0.00614619706
0.00616519264
0.152968623
0.158368262
0.117151248
0.00626423668
0.00639570912
0.139517486
0.148400231
0.107142573
0.00622426883
0.00627949341
0.146334568
0.15623308
0.119069493
0.00610895899
0.00623904961
0.152309383
0.159741257
0.129292733
0.00608388053
0.00638732285
0.148441059
0.137927486
0.00607127943
0.00591808748
0.156729988
0.167319378
0.136458951
0.00578439145
0.00620978944
0.159937601
0.143753813
0.00575981058
0.00584775156
0.00560618865
0.00543835288
0.169207565
0.169423029
0.163736162
0.14636445
0.00577176654
0.00581956718
0.159439417
0.153691778
0.00597242135
0.00582229872
0.153218512
0.143856731
0.00601508904
0.00577232804
0.157456405
0.164543791
0.13406242
0.00599069736
0.00619222254
0.150644497
0.144492456
0.00617856133
0.00607088856
0.146591687
0.140105071
0.00623155403
0.00603962782
0.150846972
0.154285852
0.0817672075
0.00611358514
0.00611183543
0.144755654
0.149570748
0.136713616
0.160644207
0.133798964
0.00547713924
0.00619282286
0.00542134329
0.00585387133
0.155671093
0.160343524
0.104602293
0.00616979219
0.00623981074
0.14427625
0.144702109
0.13973682
0.139841013
0.143438134
0.0740658041
0.00605192825
0.00631353178
0.00573623737
0.147127912
0.146656493
0.00616573819
0.00572065363
0.157236086
0.165986613
0.131070809
0.00602720608
0.006195293
0.151394056
0.13772214
0.00605413082
0.00588374729
0.156470262
0.164341327
0.124815578
0.00594008624
0.00636941943
0.159760219
0.0977806439
0.00559572914
0.144627071
0.160015743
0.068000679
0.00559911918
0.00559924672
0.173636611
0.155350683
0.00538554712
0.00592359309
0.00525824694
0.156401681
0.162856755
0.1394134
0.146182167
0.0880152912
0.00571765719
0.00584042564
0.169308466
0.153921586
0.00531545514
0.00594286743
0.0051620452
0.162090884
0.166627015
0.00620683811
0.00529886539
0.139943394
0.163737355
0.115224548
0.00557187677
0.00593628383
0.17072829
0.15170088
0.00529667161
0.00580657844
0.00482550046
0.168671867
0.18545635
0.138034807
0.00588523881
0.00589407007
0.138738228
0.156345782
0.120820611
0.00614778628
0.0061309154
0.145199651
0.155922628
0.117260692
0.0061551509
0.00612506383
0.148135287
0.157665121
0.123403687
0.00594634988
0.00591810554
0.156268725
0.170326121
0.133106979
0.00571051352
0.00601587468
0.00577953236
0.00549360905
0.156827858
0.17504883
0.131902153
0.00566120319
0.00586569296
0.162812455
0.16727372
0.136193293
0.00586201261
0.00584121509
0.159421177
0.148238802
0.0057849233
0.00556679195
0.162722397
0.157154073
0.00586882423
0.00560340101
0.155712123
0.143506192
0.00601129421
0.00571212679
0.153530916
0.162839929
0.127748509
0.00587482466
0.00610733655
0.159124958
0.147283789
0.00591719904
0.00590990595
0.154251994
0.141046907
0.00600962857
0.0058230581
0.156639278
0.163524821
0.132086387
0.00590568462
0.0061233628
0.159281013
0.147344948
0.00595362392
0.0059755306
0.153703535
0.140843566
0.00606806381
0.00593421126
0.153847433
0.158702191
0.121469795
0.00599504415
0.00624764604
0.157256495
0.16094647
0.0737003276
0.00608699375
0.138839763
0.140590146
0.00636612259
0.00609712168
0.147008538
0.141023863
)
;

boundaryField
{
    closed
    {
        type            calculated;
        value           uniform 0;
    }
    open
    {
        type            calculated;
        value           nonuniform List<scalar> 0();
    }
    sides
    {
        type            empty;
    }
    procBoundary0to1
    {
        type            processor;
        value           uniform 0;
    }
}


// ************************************************************************* //
