/*--------------------------------*- C++ -*----------------------------------*\
| =========                 |                                                 |
| \\      /  F ield         | OpenFOAM: The Open Source CFD Toolbox           |
|  \\    /   O peration     | Version:  2306                                  |
|   \\  /    A nd           | Website:  www.openfoam.com                      |
|    \\/     M anipulation  |                                                 |
\*---------------------------------------------------------------------------*/
FoamFile
{
    version     2.0;
    format      ascii;
    arch        "LSB;label=32;scalar=64";
    class       volScalarField;
    location    "0.00078";
    object      T;
}
// * * * * * * * * * * * * * * * * * * * * * * * * * * * * * * * * * * * * * //

dimensions      [0 0 0 1 0 0 0];

internalField   nonuniform List<scalar> 
530
(
339.648428
331.084071
329.595091
329.575252
329.5734
329.573355
329.573353
329.573353
329.573353
329.573353
329.573353
329.573353
329.573353
329.573353
329.573353
329.573353
329.573353
329.573353
329.573353
329.573353
329.573353
329.573353
329.573353
329.573353
329.573353
329.573353
329.573353
329.573353
329.573353
329.573353
329.573353
329.573353
329.573353
329.573353
329.573353
329.573353
329.573353
329.573353
329.573353
329.573353
329.573353
329.573353
329.573353
329.573353
329.573353
329.573353
329.573353
329.573353
329.573353
329.573353
329.573353
329.573353
329.573353
329.573353
329.573353
329.573353
329.573353
329.573353
329.573353
329.573353
329.573353
329.573353
329.573353
329.573353
329.573353
329.573353
329.573353
329.573353
329.573353
329.573353
329.573353
329.573355
329.573357
329.573367
329.573378
329.573436
329.573506
329.573741
329.573935
329.574928
329.575853
329.578107
329.58141
329.590144
329.587853
329.56344
329.589857
329.83679
329.877088
329.199397
329.143089
330.467017
332.162104
329.048726
324.821967
328.722093
339.195634
339.968122
339.369194
323.591363
322.303098
323.888008
329.478929
339.928989
339.970125
339.894177
340.287547
320.306845
319.592886
325.26638
329.980746
340.32638
339.972686
329.200306
323.64598
325.270366
324.866005
329.704649
339.906212
339.98136
339.915145
340.103655
321.605649
319.311283
329.166867
339.531122
340.402827
322.595857
321.227141
329.160067
339.653927
340.606507
324.82685
326.412077
339.62214
340.212816
319.816702
319.937827
339.941452
339.774552
326.519671
324.688196
340.382193
339.789721
329.127557
324.435259
328.948835
339.717051
340.763385
319.913344
320.486335
339.988743
340.283226
324.899766
325.844009
340.085285
339.982222
326.919865
324.882041
329.160211
339.748804
340.795444
321.850763
322.070391
340.020915
340.159494
325.560653
326.729932
340.513151
339.855765
328.742894
323.732194
328.752165
339.742611
340.551794
325.579458
324.57297
324.709223
327.26935
340.136033
340.463835
324.833873
325.66913
340.25241
340.322621
325.209235
326.33595
340.311667
340.00115
325.706872
322.48536
328.86951
339.912232
340.655349
325.910524
327.402706
340.098901
340.131091
326.222774
323.204795
329.064478
339.882078
340.237997
324.680923
322.353332
327.919092
339.943315
340.363157
324.140199
325.037605
339.965592
340.186256
324.087289
324.421827
340.02986
340.048691
323.683943
324.138187
340.046498
339.99992
323.433551
323.917078
340.049904
339.979885
323.288881
323.820322
340.066985
339.978415
323.329014
323.967463
340.102265
339.996186
323.729311
324.505686
340.12344
339.998657
324.301949
325.696859
340.156896
339.808429
323.412428
321.227118
327.540247
339.924636
340.409682
324.182064
325.738642
340.045059
340.276537
325.163643
326.61216
340.215179
339.994668
324.272315
322.433204
328.731436
340.049542
340.510771
325.260761
327.432611
340.181634
340.178823
324.892316
323.381786
328.818843
340.037627
340.55711
326.274786
328.114154
340.054043
340.316829
324.855028
325.019581
325.195097
328.265682
340.295772
340.48771
325.69639
327.602496
340.381761
340.252914
325.982016
324.687255
329.138011
340.122356
340.156312
340.232834
324.893204
324.486128
325.14535
328.712198
340.317368
340.298102
324.617168
323.693184
328.834257
340.233843
340.393589
327.144021
325.542419
328.997288
340.184739
340.299778
325.896374
324.11116
328.960973
340.210639
340.279476
324.788628
323.458952
328.906907
340.164065
340.393145
325.581376
327.424369
340.175966
340.038456
323.960279
322.085349
327.632579
339.923026
340.330167
323.499959
326.364995
339.905735
340.099442
339.778414
339.997797
321.731692
321.651772
322.793473
325.966024
339.915577
340.103353
323.543865
324.563229
340.051193
340.086601
324.688719
326.459973
340.171234
339.846339
323.828595
322.628386
328.056778
340.044724
340.43152
325.173225
326.129604
340.182161
340.404795
325.857015
326.994046
340.327071
340.230884
325.029585
324.48665
329.680454
339.951965
340.110946
326.276395
325.487769
327.700323
323.413269
328.149415
340.215939
340.276869
339.996688
340.288737
324.264119
323.325168
329.079991
340.137796
340.282174
326.337652
326.197053
327.17797
327.09981
326.455521
330.130886
340.272617
340.16266
340.285056
325.752052
325.850964
340.383298
339.980192
323.804056
322.327382
328.50615
340.121455
340.394903
325.038703
327.402024
340.235446
340.105537
323.971109
322.627096
328.742829
340.109229
340.444245
323.486689
329.065386
339.91058
326.174704
323.498493
330.47609
339.652919
340.153276
320.876432
324.230443
339.906785
339.935797
339.823739
324.136949
322.995931
327.262658
326.224894
329.480276
339.440844
340.148683
321.738576
324.460744
340.020335
340.116957
340.071899
323.000524
322.211437
340.183747
339.486728
327.039455
322.915025
328.898255
339.341096
340.077948
321.510352
324.950021
339.789241
339.839275
339.676757
321.804501
318.555978
327.52619
339.919428
339.905299
327.371514
324.15884
329.051487
340.124271
340.153178
326.129753
324.184756
329.006761
340.166888
340.126497
325.613365
323.874151
329.145845
340.108574
339.990211
324.109839
321.483816
328.351929
340.110093
340.0506
340.027996
339.957509
324.02302
320.590501
328.600532
339.985931
339.87673
322.90113
322.086337
327.813006
340.029698
339.945062
323.58042
325.569355
339.908178
339.968293
322.936574
323.93619
339.953209
339.868473
324.249754
326.550619
340.100645
339.730339
324.572892
322.982022
328.960282
339.947391
340.28535
323.636669
325.647053
339.959155
340.183704
324.517034
326.90654
340.160149
339.922417
323.976473
322.814011
328.39546
340.058132
340.36784
323.578111
325.609028
340.044902
340.311395
324.5948
326.896816
340.216892
340.060757
324.482927
323.704101
328.879392
340.074294
340.393589
323.938907
323.136442
330.20001
340.389435
327.328615
326.888539
340.273725
340.391635
325.719949
326.835464
)
;

boundaryField
{
    closed
    {
        type            fixedValue;
        value           uniform 400;
    }
    open
    {
        type            zeroGradient;
    }
    sides
    {
        type            empty;
    }
    procBoundary0to1
    {
        type            processor;
        value           uniform 340.498484;
    }
}


// ************************************************************************* //
