/*--------------------------------*- C++ -*----------------------------------*\
| =========                 |                                                 |
| \\      /  F ield         | OpenFOAM: The Open Source CFD Toolbox           |
|  \\    /   O peration     | Version:  2306                                  |
|   \\  /    A nd           | Website:  www.openfoam.com                      |
|    \\/     M anipulation  |                                                 |
\*---------------------------------------------------------------------------*/
FoamFile
{
    version     2.0;
    format      ascii;
    arch        "LSB;label=32;scalar=64";
    class       volVectorField;
    location    "0.00078";
    object      U;
}
// * * * * * * * * * * * * * * * * * * * * * * * * * * * * * * * * * * * * * //

dimensions      [0 1 -1 0 0 0 0];

internalField   nonuniform List<vector> 
530
(
(0.19927652 0 0)
(0.320958908 0 0)
(0.274495327 0 0)
(0.199664722 0 0)
(0.110261547 0 0)
(0.0612307492 0 0)
(0.0920924025 0 0)
(0.24995602 0 0)
(0.463212856 0 0)
(0.671790683 0 0)
(0.708737383 0 0)
(0.495712337 0 0)
(0.156007227 0 0)
(-0.0579576913 0 0)
(0.0334767102 0 0)
(0.439026927 0 0)
(0.927407497 0 0)
(1.27687837 0 0)
(1.33128511 0 0)
(1.03495128 0 0)
(0.562351361 0 0)
(0.195695003 0 0)
(0.0937679329 0 0)
(0.262961044 0 0)
(0.580971529 0 0)
(0.910827113 0 0)
(1.14640674 0 0)
(1.16546925 0 0)
(0.895919943 0 0)
(0.439109901 0 0)
(-0.0350534647 0 0)
(-0.40747059 0 0)
(-0.625438412 0 0)
(-0.708943546 0 0)
(-0.705573299 0 0)
(-0.64004638 0 0)
(-0.529054914 0 0)
(-0.403188439 0 0)
(-0.285698118 0 0)
(-0.193089861 0 0)
(-0.139093101 0 0)
(-0.129511563 0 0)
(-0.159466132 0 0)
(-0.222157077 0 0)
(-0.302682233 0 0)
(-0.383201952 0 0)
(-0.454781619 0 0)
(-0.507252658 0 0)
(-0.540498965 0 0)
(-0.555977584 0 0)
(-0.554319156 0 0)
(-0.54131161 0 0)
(-0.520424862 0 0)
(-0.495973834 0 0)
(-0.469825715 0 0)
(-0.442663361 0 0)
(-0.416604491 0 0)
(-0.391460883 0 0)
(-0.366653611 0 0)
(-0.34174733 0 0)
(-0.317980037 0 0)
(-0.294594587 0 0)
(-0.270924772 0 0)
(-0.247727809 0 0)
(-0.225042525 0 0)
(-0.202888298 0 0)
(-0.181948512 0 0)
(-0.161772357 0 0)
(-0.143039606 0 0)
(-0.126071535 0 0)
(-0.110404799 0 0)
(-0.0960214983 0 0)
(-0.083058019 0 0)
(-0.0715424636 0 0)
(-0.0612052829 0 0)
(-0.0519857877 0 0)
(-0.0437657227 0 0)
(-0.0363860019 0 0)
(-0.0297288202 0 0)
(-0.0237653748 0 0)
(-0.0184078566 0 0)
(-0.0136156878 0 0)
(-0.00929816082 0 0)
(-0.00534695698 0 0)
(-0.00178758117 0 0)
(0.00128398435 0 0)
(0.00392741038 0 0)
(0.00692951152 0 0)
(0.0101206137 0 0)
(0.0116750397 0 0)
(0.0123575251 0 0)
(0.0152475596 0 0)
(0.0210821541 0 0)
(0.0251899409 0 0)
(0.0187696104 0 0)
(0.0136198179 0 0)
(0.0216582912 0 0)
(0.0234688341 0 0)
(0.0287513739 0 0)
(0.0326786095 0 0)
(0.0345775645 0 0)
(0.0327630411 0 0)
(0.0310188838 0 0)
(0.0315233587 0 0)
(0.0332416091 0 0)
(0.0357489224 0 0)
(0.0378565217 0 0)
(0.0413576369 0 0)
(0.0479760782 0 0)
(0.0480159633 0 0)
(0.0433956791 0 0)
(0.042180856 0 0)
(0.0429085067 0 0)
(0.0419607903 0 0)
(0.0426506263 0 0)
(0.0482752866 0 0)
(0.0503093557 0 0)
(0.0466958026 0 0)
(0.0451995205 0 0)
(0.0470521247 0 0)
(0.0493264282 0 0)
(0.0503556036 0 0)
(0.0558256487 0 0)
(0.0615965431 0 0)
(0.0592953685 0 0)
(0.0585827368 0 0)
(0.0592185376 0 0)
(0.0628693486 0 0)
(0.0692996613 0 0)
(0.0696013335 0 0)
(0.069368061 0 0)
(0.0697893264 0 0)
(0.0686983576 0 0)
(0.0619758572 0 0)
(0.0565352068 0 0)
(0.0578909402 0 0)
(0.0588114511 0 0)
(0.0585597089 0 0)
(0.0606486395 0 0)
(0.0626124859 0 0)
(0.0563134939 0 0)
(0.0485479211 0 0)
(0.0494334032 0 0)
(0.0503527306 0 0)
(0.0471037645 0 0)
(0.0429748698 0 0)
(0.0404324372 0 0)
(0.0399318136 0 0)
(0.0397296066 0 0)
(0.0407609806 0 0)
(0.0424895613 0 0)
(0.0427007724 0 0)
(0.0428826066 0 0)
(0.042116159 0 0)
(0.0373926339 0 0)
(0.0338469975 0 0)
(0.0340922683 0 0)
(0.0341794352 0 0)
(0.0334220659 0 0)
(0.0300763899 0 0)
(0.0283218357 0 0)
(0.0279263928 0 0)
(0.028871071 0 0)
(0.0290715637 0 0)
(0.0280353668 0 0)
(0.0285639107 0 0)
(0.0289893131 0 0)
(0.0244438281 0 0)
(0.0196518028 0 0)
(0.0192530545 0 0)
(0.018305896 0 0)
(0.0182420043 0 0)
(0.0183153917 0 0)
(0.0176907549 0 0)
(0.0168806301 0 0)
(0.0152085189 0 0)
(0.0163279062 0 0)
(0.0185571946 0 0)
(0.0143496019 0 0)
(0.00993093266 0 0)
(0.00958546409 0 0)
(0.00927765866 0 0)
(0.00601810007 0 0)
(0.00307267697 0 0)
(0.00284291833 0 0)
(0.00315594561 0 0)
(-0.000948413501 0 0)
(-0.00532837079 0 0)
(-0.005134414 0 0)
(-0.00432816018 0 0)
(-0.0021381253 0 0)
(-0.00260932802 0 0)
(-0.0045843116 0 0)
(-0.0053507308 0 0)
(-0.00655493307 0 0)
(-0.0104311472 0 0)
(-0.0138642334 0 0)
(-0.0142464355 0 0)
(-0.0131386005 0 0)
(-0.0116025933 0 0)
(-0.0121558425 0 0)
(-0.013418762 0 0)
(-0.0141655174 0 0)
(-0.013901094 0 0)
(-0.0108187934 0 0)
(-0.0137232844 0 0)
(-0.0186614376 0 0)
(-0.0188337105 0 0)
(-0.0195288577 0 0)
(-0.0220019258 0 0)
(-0.0245567549 0 0)
(-0.0248285708 0 0)
(-0.0243299156 0 0)
(-0.0266297042 0 0)
(-0.0296635426 0 0)
(-0.0301048935 0 0)
(-0.0293127744 0 0)
(-0.0313501928 0 0)
(-0.0344734263 0 0)
(-0.0348953716 0 0)
(-0.0338568604 0 0)
(-0.0357871868 0 0)
(-0.0389549877 0 0)
(-0.0392983417 0 0)
(-0.038113432 0 0)
(-0.0399060308 0 0)
(-0.0430601078 0 0)
(-0.0433968485 0 0)
(-0.0419029048 0 0)
(-0.0433837525 0 0)
(-0.0466324405 0 0)
(-0.0470815565 0 0)
(-0.0455346221 0 0)
(-0.046690531 0 0)
(-0.0497749539 0 0)
(-0.0505398673 0 0)
(-0.0497023311 0 0)
(-0.0516811404 0 0)
(-0.0550427167 0 0)
(-0.0553613882 0 0)
(-0.0528001607 0 0)
(-0.0504064621 0 0)
(-0.0532297597 0 0)
(-0.0579260988 0 0)
(-0.0586257473 0 0)
(-0.0576390661 0 0)
(-0.0580325372 0 0)
(-0.0600428634 0 0)
(-0.0608846774 0 0)
(-0.0600824818 0 0)
(-0.0615025805 0 0)
(-0.0643539812 0 0)
(-0.0645904338 0 0)
(-0.0619694486 0 0)
(-0.0596943218 0 0)
(-0.0619041887 0 0)
(-0.0659356589 0 0)
(-0.0667889177 0 0)
(-0.0661296506 0 0)
(-0.066860182 0 0)
(-0.0688901765 0 0)
(-0.068986249 0 0)
(-0.0664979768 0 0)
(-0.0642650524 0 0)
(-0.0642454707 0 0)
(-0.0660074872 0 0)
(-0.0665894642 0 0)
(-0.0661222032 0 0)
(-0.0672177799 0 0)
(-0.0693928748 0 0)
(-0.0696795969 0 0)
(-0.0671505599 0 0)
(-0.0648886526 0 0)
(-0.0638176879 0 0)
(-0.0648286535 0 0)
(-0.0671700578 0 0)
(-0.0679789529 0 0)
(-0.0665765973 0 0)
(-0.0663671569 0 0)
(-0.067941884 0 0)
(-0.0679329662 0 0)
(-0.0657860261 0 0)
(-0.0647008176 0 0)
(-0.0654939803 0 0)
(-0.0669432049 0 0)
(-0.0667134585 0 0)
(-0.0656798437 0 0)
(-0.0635713798 0 0)
(-0.0616139576 0 0)
(-0.0603022589 0 0)
(-0.0620280078 0 0)
(-0.0649574162 0 0)
(-0.0650444246 0 0)
(-0.0619740746 0 0)
(-0.058502534 0 0)
(-0.0576484353 0 0)
(-0.0589636143 0 0)
(-0.0587641269 0 0)
(-0.0575624511 0 0)
(-0.0564677938 0 0)
(-0.0564380002 0 0)
(-0.0579095764 0 0)
(-0.057788646 0 0)
(-0.0555139272 0 0)
(-0.0529772438 0 0)
(-0.0524474605 0 0)
(-0.0536562934 0 0)
(-0.053311989 0 0)
(-0.0508704591 0 0)
(-0.0477926823 0 0)
(-0.0486678732 0 0)
(-0.0518128097 0 0)
(-0.0523314443 0 0)
(-0.0519915473 0 0)
(-0.0527505426 0 0)
(-0.0542393519 0 0)
(-0.0539070925 0 0)
(-0.0511005799 0 0)
(-0.0483797711 0 0)
(-0.0496466794 0 0)
(-0.052900558 0 0)
(-0.0533413981 0 0)
(-0.0523173711 0 0)
(-0.0538535012 0 0)
(-0.0562086666 0 0)
(-0.0564421616 0 0)
(-0.0562395873 0 0)
(-0.0554176373 0 0)
(-0.0530723668 0 0)
(-0.0510115573 0 0)
(-0.0506150817 0 0)
(-0.0527376094 0 0)
(-0.0557170349 0 0)
(-0.0563315933 0 0)
(-0.0549516219 0 0)
(-0.0545461168 0 0)
(-0.0558765315 0 0)
(-0.0564435275 0 0)
(-0.0558049115 0 0)
(-0.0571935674 0 0)
(-0.0596733979 0 0)
(-0.0596286974 0 0)
(-0.057004147 0 0)
(-0.0547779182 0 0)
(-0.0571373662 0 0)
(-0.061474129 0 0)
(-0.0622255905 0 0)
(-0.06107544 0 0)
(-0.0609429953 0 0)
(-0.0624216714 0 0)
(-0.0629345996 0 0)
(-0.0621145525 0 0)
(-0.0630806928 0 0)
(-0.0655038094 0 0)
(-0.0660602478 0 0)
(-0.0646366711 0 0)
(-0.0639029001 0 0)
(-0.0649673689 0 0)
(-0.0669554537 0 0)
(-0.0674399975 0 0)
(-0.0674227348 0 0)
(-0.068904686 0 0)
(-0.071014519 0 0)
(-0.0726468361 0 0)
(-0.0746561331 0 0)
(-0.0765795187 0 0)
(-0.0770409115 0 0)
(-0.075913248 0 0)
(-0.0742570089 0 0)
(-0.0734650577 0 0)
(-0.0734411969 0 0)
(-0.0746982595 0 0)
(-0.0778162436 0 0)
(-0.0796157538 0 0)
(-0.0788187422 0 0)
(-0.0783882066 0 0)
(-0.0795663078 0 0)
(-0.0814468086 0 0)
(-0.0829747424 0 0)
(-0.0839120252 0 0)
(-0.0855582275 0 0)
(-0.0871896309 0 0)
(-0.0873942289 0 0)
(-0.0862812906 0 0)
(-0.0868465972 0 0)
(-0.0896369025 0 0)
(-0.089895686 0 0)
(-0.0869928595 0 0)
(-0.0849730649 0 0)
(-0.0875810914 0 0)
(-0.0923338654 0 0)
(-0.093255181 0 0)
(-0.0918369238 0 0)
(-0.0923404179 0 0)
(-0.0947553992 0 0)
(-0.0948164006 0 0)
(-0.0920096087 0 0)
(-0.0901765993 0 0)
(-0.091102976 0 0)
(-0.0939444901 0 0)
(-0.0945831319 0 0)
(-0.0929558088 0 0)
(-0.0940813255 0 0)
(-0.096201587 0 0)
(-0.0964650176 0 0)
(-0.0975926088 0 0)
(-0.099496197 0 0)
(-0.101614195 0 0)
(-0.101832621 0 0)
(-0.0989232597 0 0)
(-0.0971138356 0 0)
(-0.0988566974 0 0)
(-0.100697096 0 0)
(-0.100263394 0 0)
(-0.0989055705 0 0)
(-0.0992596126 0 0)
(-0.101170621 0 0)
(-0.10435664 0 0)
(-0.108091873 0 0)
(-0.111208707 0 0)
(-0.111403285 0 0)
(-0.108379387 0 0)
(-0.105824746 0 0)
(-0.107081001 0 0)
(-0.10923211 0 0)
(-0.108764155 0 0)
(-0.107219407 0 0)
(-0.107028924 0 0)
(-0.109460979 0 0)
(-0.110652335 0 0)
(-0.110457738 0 0)
(-0.111720979 0 0)
(-0.113935996 0 0)
(-0.116922822 0 0)
(-0.117233713 0 0)
(-0.114117186 0 0)
(-0.113901696 0 0)
(-0.11710714 0 0)
(-0.118537253 0 0)
(-0.116733598 0 0)
(-0.112147493 0 0)
(-0.109587476 0 0)
(-0.110305285 0 0)
(-0.11412139 0 0)
(-0.116078355 0 0)
(-0.116795093 0 0)
(-0.117668863 0 0)
(-0.118499628 0 0)
(-0.12260396 0 0)
(-0.124245322 0 0)
(-0.12279645 0 0)
(-0.12179526 0 0)
(-0.122640324 0 0)
(-0.127237878 0 0)
(-0.1288836 0 0)
(-0.126870073 0 0)
(-0.126081897 0 0)
(-0.127555004 0 0)
(-0.132039921 0 0)
(-0.133029118 0 0)
(-0.130460866 0 0)
(-0.128633645 0 0)
(-0.128026124 0 0)
(-0.130970579 0 0)
(-0.132597533 0 0)
(-0.132834319 0 0)
(-0.13230953 0 0)
(-0.130105543 0 0)
(-0.129219995 0 0)
(-0.129644284 0 0)
(-0.132913166 0 0)
(-0.133573825 0 0)
(-0.130370414 0 0)
(-0.12879826 0 0)
(-0.128346458 0 0)
(-0.132360844 0 0)
(-0.134348191 0 0)
(-0.130305137 0 0)
(-0.128127147 0 0)
(-0.130113512 0 0)
(-0.130670086 0 0)
(-0.125921129 0 0)
(-0.122279177 0 0)
(-0.123681842 0 0)
(-0.124306123 0 0)
(-0.120426352 0 0)
(-0.119142884 0 0)
(-0.121380629 0 0)
(-0.121048294 0 0)
(-0.117481847 0 0)
(-0.115719486 0 0)
(-0.116310698 0 0)
(-0.11891823 0 0)
(-0.118814219 0 0)
(-0.114243342 0 0)
(-0.110639097 0 0)
(-0.111195454 0 0)
(-0.111320324 0 0)
(-0.107595063 0 0)
(-0.106464751 0 0)
(-0.108257769 0 0)
(-0.107461572 0 0)
(-0.103109424 0 0)
(-0.10031257 0 0)
(-0.102120142 0 0)
(-0.106118706 0 0)
(-0.105589556 0 0)
(-0.100887352 0 0)
(-0.0975997912 0 0)
(-0.0979339497 0 0)
(-0.0975472122 0 0)
(-0.0939332995 0 0)
(-0.0925731781 0 0)
(-0.0938735087 0 0)
(-0.09276937 0 0)
(-0.0883802274 0 0)
(-0.0856156331 0 0)
(-0.0855209169 0 0)
(-0.0868133368 0 0)
(-0.0853091131 0 0)
(-0.0815696995 0 0)
(-0.0785826564 0 0)
(-0.0768419867 0 0)
(-0.0766161122 0 0)
(-0.0755834366 0 0)
(-0.0755768871 0 0)
(-0.076310092 0 0)
(-0.0757214173 0 0)
(-0.072504139 0 0)
(-0.0708122352 0 0)
)
;

boundaryField
{
    closed
    {
        type            noSlip;
    }
    open
    {
        type            inletOutlet;
        inletValue      nonuniform List<vector> 0();
        value           nonuniform List<vector> 0();
    }
    sides
    {
        type            empty;
    }
    procBoundary0to1
    {
        type            processor;
        value           uniform (-0.0714093056 0 0);
    }
}


// ************************************************************************* //
