/*--------------------------------*- C++ -*----------------------------------*\
| =========                 |                                                 |
| \\      /  F ield         | OpenFOAM: The Open Source CFD Toolbox           |
|  \\    /   O peration     | Version:  2306                                  |
|   \\  /    A nd           | Website:  www.openfoam.com                      |
|    \\/     M anipulation  |                                                 |
\*---------------------------------------------------------------------------*/
FoamFile
{
    version     2.0;
    format      ascii;
    arch        "LSB;label=32;scalar=64";
    class       volScalarField;
    location    "0.00028";
    object      prefDh_H2O;
}
// * * * * * * * * * * * * * * * * * * * * * * * * * * * * * * * * * * * * * //

dimensions      [1 1 -3 0 0 0 0];

internalField   nonuniform List<scalar> 
531
(
89.7296452
92.8997103
87.9610426
87.9619164
92.5796681
92.5501905
88.5017045
88.1095971
89.9633395
91.6249012
90.0599158
88.8343093
89.5319954
90.3472594
90.0368447
89.5675311
89.6888392
89.9208376
89.8855433
89.7811914
89.7895669
89.8328012
89.8318277
89.8152152
89.8151648
89.8206634
89.8210513
89.8193589
89.8191016
89.8195994
89.8197185
89.8195801
89.819533
89.8195696
89.8195863
89.8195772
89.8195717
89.8195739
89.8195755
89.8195751
89.8195746
89.8195747
89.8195748
89.8195748
89.8195748
89.8195748
89.8195748
89.8195748
89.8195748
89.8195748
89.8195748
89.8195748
89.8195748
89.8195748
89.8195748
89.8195748
89.8195748
89.8195748
89.8195748
89.8195748
89.8195748
89.8195748
89.8195748
89.8195748
89.8195748
89.8195748
89.8195748
89.8195748
89.8195748
89.8195748
89.8195748
89.8195748
89.8195748
89.8195748
89.8195748
89.8195748
89.8195748
89.8195748
89.8195748
89.8195748
89.8195748
89.8195748
89.8195748
89.8195748
89.8195748
89.8195748
89.8195748
89.8195748
89.8195748
89.8195748
89.8195748
89.8195748
89.8195748
89.8195748
89.8195748
89.8195748
89.8195748
89.8195748
89.8195748
89.8195748
89.8195748
89.8195748
89.8195748
89.8195748
89.8195748
89.8195748
89.8195748
89.8195748
89.8195748
89.8195748
89.8195748
89.8195748
89.8195748
89.8195748
89.8195748
89.8195748
89.8195749
89.8195748
89.8195746
89.8195746
89.8195751
89.8195752
89.8195744
89.8195738
89.8195748
89.8195765
89.8195759
89.8195722
89.8195723
89.8195773
89.8195785
89.8195735
89.8195703
89.8195743
89.8195792
89.819577
89.8195711
89.8195717
89.8195773
89.8195774
89.8195737
89.8195729
89.819575
89.8195759
89.8195749
89.8195742
89.8195746
89.8195751
89.8195749
89.8195747
89.8195747
89.8195748
89.8195748
89.8195747
89.8195748
89.8195748
89.8195748
89.8195747
89.8195748
89.8195748
89.8195748
89.8195748
89.8195748
89.8195748
89.8195748
89.8195748
89.8195748
89.8195748
89.8195748
89.8195748
89.8195748
89.8195748
89.8195748
89.8195748
89.8195748
89.8195748
89.8195748
89.8195748
89.8195748
89.8195748
89.8195748
89.8195748
89.8195748
89.8195748
89.8195748
89.8195748
89.8195748
89.8195748
89.8195748
89.8195748
89.8195748
89.8195748
89.8195748
89.8195748
89.8195748
89.8195747
89.8195748
89.8195749
89.8195748
89.8195746
89.8195746
89.8195751
89.8195752
89.8195745
89.819574
89.8195745
89.8195758
89.8195758
89.8195742
89.8195733
89.8195736
89.8195758
89.8195779
89.8195771
89.8195698
89.8195672
89.8195779
89.8195903
89.8195804
89.81955
89.8195529
89.8196048
89.8196143
89.8195537
89.8195182
89.8195732
89.8196417
89.8196069
89.8195088
89.8195177
89.8196274
89.8196363
89.8195492
89.8195187
89.8195769
89.81962
89.8195875
89.8195416
89.8195555
89.8195974
89.8195946
89.819561
89.8195586
89.8195802
89.8195875
89.8195754
89.8195654
89.8195694
89.8195806
89.8195806
89.8195766
89.819571
89.8195674
89.8195693
89.8195867
89.8195934
89.8195674
89.8195371
89.8195594
89.8196351
89.8196299
89.8195064
89.8194742
89.8196117
89.8197188
89.8196103
89.8194098
89.819447
89.8197265
89.8197349
89.8194997
89.8194298
89.8195819
89.8196746
89.8195895
89.8195099
89.8195684
89.8196511
89.8196004
89.819452
89.8194673
89.8197173
89.8197837
89.8195245
89.8192775
89.8194233
89.8199131
89.8198968
89.8193396
89.81916
89.8195927
89.8200103
89.8198122
89.8191878
89.8192059
89.8197632
89.8199629
89.8196697
89.8192354
89.8192754
89.81974
89.8199247
89.8197222
89.8192443
89.8192505
89.8196944
89.8199401
89.8197669
89.8192604
89.8192596
89.8196218
89.8198516
89.8197863
89.8194633
89.8193161
89.8194157
89.8197783
89.8198362
89.8195389
89.819318
89.8194803
89.8197807
89.8197228
89.8194146
89.8194232
89.8197066
89.8197278
89.8194682
89.8194016
89.8196396
89.8197646
89.8195781
89.8193959
89.8194995
89.8197084
89.8196863
89.8195095
89.8194928
89.8195616
89.8196117
89.8196081
89.8195858
89.819554
89.8195411
89.8195699
89.8196179
89.8196043
89.8195405
89.8195144
89.8195758
89.8196672
89.8196667
89.8194939
89.8193701
89.8195138
89.8199346
89.8199273
89.8191766
89.8188891
89.8197985
89.8207229
89.8198814
89.8179665
89.8186236
89.8218218
89.821269
89.8164847
89.8175304
89.8257197
89.8220732
89.8007832
89.8116208
89.8816827
89.864757
89.6255032
89.6251513
90.2557721
90.2545403
88.9639215
88.3230875
90.7617064
92.5457528
89.6537408
87.8572613
88.101029
91.8976926
92.2723777
93.1058724
87.245138
87.2193271
89.8595256
92.3288822
92.0834979
92.6780204
87.0805405
87.3039952
91.7514783
91.3911402
91.5349495
89.6829158
90.6027786
90.1768613
89.7422438
89.1753483
88.8341003
88.244492
87.9169589
87.4029055
87.1821042
86.7372284
86.2622518
85.6489424
84.8835297
84.2005712
83.1087086
82.3951618
81.8840024
81.3656422
79.7600404
79.2040276
76.5420322
76.0950493
64.5828185
68.5209617
63.3436745
57.7067149
59.2531942
54.249231
53.3537966
55.24288
45.1804293
39.1959916
31.1584086
18.9719781
1.51736936
-9.88333339
-22.7070175
-38.7141051
-51.4695607
-61.613818
-71.3892342
-79.802083
-87.2493534
-93.6972828
-100.06711
-105.7527
-111.702433
-116.800678
-121.876448
-126.498941
-131.563139
-135.553145
-139.339424
-142.073462
-144.622391
-146.729409
-148.857285
-150.52525
-152.201061
-153.934373
-155.741071
-157.416861
-159.136691
-160.696217
-162.234776
-163.824118
-165.264848
-166.593549
-167.843125
-169.114924
-170.36387
-171.431557
-172.451476
-173.383894
-174.317088
-175.15918
-176.056904
-176.927996
-177.861335
-178.734573
-179.520513
-180.314912
-181.059342
-181.803597
-182.4585
-183.091989
-183.664853
-184.250396
-184.787572
-185.341431
-185.842823
-186.35867
-186.881701
-187.444909
-187.950683
-188.488583
-188.961301
-189.487557
-189.939868
-190.425407
-190.83942
-191.290238
-191.670926
-192.077365
-192.410841
-192.791682
-193.10403
-193.471613
-193.76249
-194.120415
-194.383223
-194.716111
-194.973672
-195.283454
-195.534834
-195.825288
-196.069737
-196.343818
-196.575488
-196.826632
-197.04942
-197.28882
-197.505404
-197.733929
-197.944381
-198.162781
-198.367248
-198.576233
-198.770789
-198.964124
-199.150414
)
;

boundaryField
{
    closed
    {
        type            calculated;
        value           nonuniform List<scalar> 0();
    }
    open
    {
        type            calculated;
        value           nonuniform List<scalar> 0();
    }
    sides
    {
        type            empty;
    }
    procBoundary4to3
    {
        type            processor;
        value           uniform 87.8741873;
    }
    procBoundary4to5
    {
        type            processor;
        value           uniform -199.335373;
    }
}


// ************************************************************************* //
