/*--------------------------------*- C++ -*----------------------------------*\
| =========                 |                                                 |
| \\      /  F ield         | OpenFOAM: The Open Source CFD Toolbox           |
|  \\    /   O peration     | Version:  2306                                  |
|   \\  /    A nd           | Website:  www.openfoam.com                      |
|    \\/     M anipulation  |                                                 |
\*---------------------------------------------------------------------------*/
FoamFile
{
    version     2.0;
    format      ascii;
    arch        "LSB;label=32;scalar=64";
    class       volScalarField;
    location    "0.00028";
    object      prefDh_T;
}
// * * * * * * * * * * * * * * * * * * * * * * * * * * * * * * * * * * * * * //

dimensions      [1 1 -3 -1 0 0 0];

internalField   nonuniform List<scalar> 
531
(
-0.0005976731
-0.000724298743
-0.000527996726
-0.000532289162
-0.000743562329
-0.000736746115
-0.000601901471
-0.000562367913
-0.000596074774
-0.000646560148
-0.000596445816
-0.000593256437
-0.000588481708
-0.000603135758
-0.00059545986
-0.000588650336
-0.000589591843
-0.00059307954
-0.000592383201
-0.000590669303
-0.000590780865
-0.000591418886
-0.000591406092
-0.000591129091
-0.000591131494
-0.000591212009
-0.000591219605
-0.000591191149
-0.000591187651
-0.00059119489
-0.000591196927
-0.000591194587
-0.000591193893
-0.000591194423
-0.000591194695
-0.000591194541
-0.000591194457
-0.000591194488
-0.000591194514
-0.000591194506
-0.000591194498
-0.0005911945
-0.000591194502
-0.000591194501
-0.000591194501
-0.000591194501
-0.000591194501
-0.000591194501
-0.000591194501
-0.000591194501
-0.000591194501
-0.000591194501
-0.000591194501
-0.000591194501
-0.000591194501
-0.000591194501
-0.000591194501
-0.000591194501
-0.000591194501
-0.000591194501
-0.000591194501
-0.000591194501
-0.000591194501
-0.000591194501
-0.000591194501
-0.000591194501
-0.000591194501
-0.000591194501
-0.000591194501
-0.000591194501
-0.000591194501
-0.000591194501
-0.000591194501
-0.000591194501
-0.000591194501
-0.000591194501
-0.000591194501
-0.000591194501
-0.000591194501
-0.000591194501
-0.000591194501
-0.000591194501
-0.000591194501
-0.000591194501
-0.000591194501
-0.000591194501
-0.000591194501
-0.000591194501
-0.000591194501
-0.000591194501
-0.000591194501
-0.000591194501
-0.000591194501
-0.000591194501
-0.000591194501
-0.000591194501
-0.000591194501
-0.000591194501
-0.000591194501
-0.000591194501
-0.000591194501
-0.000591194501
-0.000591194501
-0.000591194501
-0.000591194501
-0.000591194501
-0.000591194501
-0.000591194501
-0.000591194501
-0.000591194501
-0.000591194501
-0.000591194501
-0.000591194501
-0.000591194501
-0.000591194501
-0.000591194501
-0.000591194502
-0.000591194501
-0.000591194498
-0.000591194498
-0.000591194506
-0.000591194508
-0.000591194495
-0.000591194485
-0.000591194501
-0.000591194528
-0.000591194518
-0.000591194461
-0.000591194462
-0.00059119454
-0.000591194559
-0.00059119448
-0.000591194431
-0.000591194494
-0.00059119457
-0.000591194535
-0.000591194444
-0.000591194453
-0.000591194541
-0.000591194542
-0.000591194484
-0.000591194471
-0.000591194505
-0.000591194519
-0.000591194503
-0.000591194491
-0.000591194498
-0.000591194505
-0.000591194502
-0.000591194499
-0.0005911945
-0.000591194502
-0.000591194501
-0.0005911945
-0.000591194501
-0.000591194502
-0.000591194501
-0.0005911945
-0.000591194501
-0.000591194501
-0.000591194501
-0.000591194501
-0.000591194501
-0.000591194501
-0.000591194501
-0.000591194501
-0.000591194501
-0.000591194501
-0.000591194501
-0.000591194501
-0.000591194501
-0.000591194501
-0.000591194501
-0.000591194501
-0.000591194501
-0.000591194501
-0.000591194501
-0.000591194501
-0.000591194501
-0.000591194501
-0.000591194501
-0.000591194501
-0.000591194501
-0.000591194501
-0.000591194501
-0.000591194501
-0.000591194501
-0.000591194501
-0.000591194501
-0.000591194501
-0.000591194501
-0.000591194501
-0.000591194501
-0.000591194501
-0.000591194501
-0.0005911945
-0.000591194501
-0.000591194502
-0.000591194501
-0.000591194498
-0.000591194499
-0.000591194505
-0.000591194507
-0.000591194497
-0.000591194489
-0.000591194497
-0.000591194517
-0.000591194517
-0.000591194491
-0.000591194478
-0.000591194482
-0.000591194518
-0.000591194549
-0.000591194538
-0.000591194423
-0.000591194381
-0.000591194551
-0.000591194744
-0.000591194589
-0.000591194112
-0.000591194157
-0.000591194973
-0.000591195121
-0.00059119417
-0.000591193612
-0.000591194477
-0.000591195552
-0.000591195005
-0.000591193464
-0.000591193605
-0.000591195327
-0.000591195468
-0.0005911941
-0.00059119362
-0.000591194534
-0.000591195211
-0.000591194701
-0.00059119398
-0.000591194198
-0.000591194856
-0.000591194812
-0.000591194284
-0.000591194247
-0.000591194586
-0.0005911947
-0.000591194511
-0.000591194353
-0.000591194417
-0.000591194592
-0.000591194592
-0.000591194529
-0.000591194441
-0.000591194384
-0.000591194415
-0.000591194688
-0.000591194794
-0.000591194385
-0.000591193909
-0.000591194259
-0.000591195448
-0.000591195367
-0.000591193427
-0.000591192922
-0.000591195081
-0.000591196762
-0.000591195058
-0.000591191911
-0.000591192494
-0.000591196884
-0.000591197015
-0.000591193322
-0.000591192226
-0.000591194613
-0.000591196068
-0.000591194731
-0.000591193482
-0.0005911944
-0.0005911957
-0.000591194903
-0.000591192573
-0.000591192814
-0.000591196739
-0.000591197781
-0.000591193712
-0.000591189835
-0.000591192122
-0.000591199814
-0.000591199558
-0.000591190809
-0.00059118799
-0.000591194783
-0.000591201341
-0.00059119823
-0.000591188427
-0.000591188711
-0.00059119746
-0.000591200597
-0.000591195992
-0.000591189174
-0.000591189802
-0.000591197096
-0.000591199996
-0.000591196816
-0.000591189314
-0.00059118941
-0.000591196379
-0.000591200238
-0.000591197518
-0.000591189565
-0.000591189554
-0.000591195239
-0.000591198848
-0.000591197823
-0.000591192751
-0.000591190441
-0.000591192004
-0.000591197697
-0.000591198606
-0.000591193938
-0.00059119047
-0.000591193018
-0.000591197734
-0.000591196825
-0.000591191985
-0.000591192121
-0.00059119657
-0.000591196903
-0.000591192827
-0.00059119178
-0.000591195517
-0.000591197478
-0.000591194548
-0.000591191686
-0.000591193309
-0.000591196586
-0.000591196235
-0.000591193449
-0.00059119318
-0.000591194245
-0.000591195016
-0.000591194938
-0.000591194557
-0.000591194013
-0.000591193761
-0.000591194137
-0.000591194795
-0.000591194464
-0.00059119329
-0.000591192687
-0.000591193359
-0.000591194431
-0.000591194028
-0.000591190656
-0.000591188043
-0.000591189374
-0.000591194704
-0.000591193476
-0.000591179495
-0.000591173333
-0.00059118462
-0.000591196493
-0.000591179679
-0.000591145493
-0.000591152186
-0.000591197098
-0.000591185633
-0.000591105676
-0.000591122423
-0.000591252198
-0.000591205352
-0.000590887728
-0.000591103839
-0.00059227762
-0.000592146343
-0.000588851678
-0.000589405162
-0.000600211011
-0.00060105086
-0.000585736268
-0.000596476356
-0.000613717263
-0.000747285282
-0.000583525703
-0.000510285906
-0.000579601999
-0.000658266959
-0.000764766086
-0.000725772796
-0.00041218197
-0.000397434929
-0.000575219488
-0.000787667597
-0.000810011455
-0.000753225681
-0.000425725179
-0.000480293895
-0.000774388346
-0.000771398313
-0.000716654134
-0.000542315283
-0.000738413005
-0.000756902024
-0.000751696761
-0.000768228929
-0.000766305397
-0.000782784075
-0.000790857393
-0.000826384472
-0.000869636011
-0.000841264618
-0.000783922761
-0.000725952548
-0.000670705922
-0.000637630883
-0.000602713075
-0.000579617812
-0.000561455266
-0.000532630686
-0.000471669392
-0.000479604144
-0.000415752924
-0.000520889359
-0.000984469892
-0.000622415461
-0.000774982948
-0.00106067238
-0.000918984904
-0.00105958766
-0.0010040364
-0.000868271234
-0.00107597048
-0.00123011028
-0.00137993186
-0.00157885295
-0.00177420874
-0.00184720648
-0.00191898323
-0.00209558231
-0.0022468197
-0.00235296696
-0.00252244103
-0.00264872563
-0.00283015536
-0.00294648843
-0.00310943219
-0.00320847161
-0.00338142021
-0.00348096295
-0.00359949282
-0.00366972446
-0.00377565754
-0.00380147896
-0.0038069145
-0.00376090954
-0.00369993392
-0.00363058459
-0.00356750994
-0.00351157461
-0.00344459181
-0.00332656784
-0.00317253395
-0.00299376335
-0.00278630764
-0.00256665753
-0.00233073657
-0.00206586868
-0.0018155643
-0.0015621986
-0.00130629214
-0.0010382861
-0.000777335457
-0.000541108084
-0.000309368583
-9.01716314e-05
0.000134268257
0.000339247638
0.000562526885
0.000775208384
0.00100536021
0.00121635316
0.00141474384
0.00160929875
0.00179660826
0.00197927595
0.00214615367
0.00230505896
0.00245263711
0.002600862
0.0027377957
0.00287605714
0.00300365783
0.0031347121
0.00326520723
0.00340431964
0.00352958107
0.00366278771
0.00377946598
0.00390820481
0.00401790325
0.00413659797
0.00423668046
0.00434675542
0.00443852051
0.00453547628
0.00461318437
0.00470316546
0.00477630957
0.00486328114
0.00493176205
0.00501633191
0.00507747376
0.00515460909
0.00521409313
0.00528607477
0.00534393807
0.00541146995
0.00546759667
0.00553128418
0.00558329689
0.00563998729
0.00568950438
0.00574352328
0.00579163775
0.0058431576
0.00588986201
0.00593903533
0.0059843385
0.00603130906
0.00607332935
0.00611535213
0.00615518501
)
;

boundaryField
{
    closed
    {
        type            calculated;
        value           nonuniform List<scalar> 0();
    }
    open
    {
        type            calculated;
        value           nonuniform List<scalar> 0();
    }
    sides
    {
        type            empty;
    }
    procBoundary4to3
    {
        type            processor;
        value           uniform -0.000511247233;
    }
    procBoundary4to5
    {
        type            processor;
        value           uniform 0.00619533191;
    }
}


// ************************************************************************* //
