/*--------------------------------*- C++ -*----------------------------------*\
| =========                 |                                                 |
| \\      /  F ield         | OpenFOAM: The Open Source CFD Toolbox           |
|  \\    /   O peration     | Version:  2306                                  |
|   \\  /    A nd           | Website:  www.openfoam.com                      |
|    \\/     M anipulation  |                                                 |
\*---------------------------------------------------------------------------*/
FoamFile
{
    version     2.0;
    format      ascii;
    arch        "LSB;label=32;scalar=64";
    class       volScalarField;
    location    "0.00134";
    object      h;
}
// * * * * * * * * * * * * * * * * * * * * * * * * * * * * * * * * * * * * * //

dimensions      [0 2 -2 0 0 0 0];

internalField   nonuniform List<scalar> 
530
(
10312.5112
4283.26487
2334.05489
2279.13047
2274.11703
2273.91042
2273.89529
2273.89465
2273.89461
2273.89461
2273.89461
2273.89461
2273.89461
2273.89461
2273.89461
2273.89461
2273.89461
2273.89461
2273.89461
2273.89461
2273.89461
2273.89461
2273.89461
2273.89461
2273.89461
2273.89461
2273.89461
2273.89461
2273.89461
2273.89461
2273.89461
2273.89461
2273.89461
2273.89461
2273.89461
2273.89461
2273.89461
2273.89461
2273.89461
2273.89461
2273.89461
2273.89461
2273.89461
2273.89461
2273.89461
2273.89461
2273.89461
2273.89461
2273.89461
2273.89461
2273.89461
2273.89461
2273.89461
2273.89461
2273.89461
2273.89461
2273.89461
2273.89461
2273.89461
2273.89461
2273.89462
2273.89467
2273.89478
2273.89522
2273.89619
2273.89938
2273.90607
2273.92385
2273.94896
2274.02194
2274.13522
2274.44276
2274.88192
2275.44777
2276.92088
2279.70719
2282.20748
2283.72201
2292.20129
2298.86425
2317.06956
2321.14825
2305.18588
2235.96637
2296.1472
2789.45652
2839.41629
2457.67039
-1509.46532
-2332.85892
-697.311456
7946.90667
9816.25254
9610.57219
117.616203
-3737.8998
-3945.64616
-4326.67399
-4456.75032
3615.26184
9207.42664
9418.90515
9718.815
9576.12925
3407.94725
-3761.06607
-4434.71531
-4348.57353
-4574.43185
-4357.50286
4715.09079
9379.31722
9655.96184
9475.77494
9717.62821
9420.08037
3737.00172
-4026.51257
-4626.3769
-4527.37621
-4611.50965
-4248.39996
4372.888
9788.37333
9642.14698
4286.60368
-3704.12252
-4617.46203
-3433.60916
6862.20744
9901.51026
9507.4063
4327.49924
-3705.56782
-4331.10795
-2789.09763
7153.35135
8982.61971
2581.87038
-2906.95018
-1211.64822
8289.54654
8079.66205
-452.739161
-1927.74371
5765.80321
8070.28677
773.601251
-1989.09723
4144.85241
9446.98604
7671.97659
-2101.63694
-5174.14881
-2989.08203
7132.00337
9883.74747
8562.56298
1120.71212
-2719.52901
552.638985
8641.88967
7996.5134
-270.73931
-2164.27188
2841.15863
8886.0696
6814.97754
-2989.68182
-4826.31651
-4408.72275
-4195.20762
-3280.92054
3219.07954
9147.60552
6922.90118
-873.15666
-589.213218
7447.19323
8176.42476
762.895347
-2658.37973
1538.86075
8978.2456
8184.73634
-284.379767
-4668.34194
-4320.08623
-1564.57211
7748.48861
9440.13086
5093.20464
-1138.75975
732.984877
7611.25506
5893.95305
-1587.21761
-40.8385025
7849.87127
7040.42178
-2664.8244
-4372.05196
698.180861
7878.53422
5554.34961
-2004.50716
-86.5733211
7408.3379
5318.34897
-2665.9372
-984.263912
7735.78674
7046.04962
-2799.98847
-4573.54974
675.796306
8100.77244
5711.67403
-2555.44263
-846.1874
7917.33435
7094.29826
-3191.06522
-4885.12793
448.135936
8201.10775
5785.3151
-2352.82407
-289.477517
7820.89542
5622.33254
-2627.62174
-474.792317
8185.74099
6212.84471
-2452.27698
-573.31772
8251.12042
6463.06277
-2984.90316
-1987.61746
8208.40291
8216.59078
-2357.9527
-5060.17958
-824.558278
8314.2476
7348.96572
-2334.37178
-1905.89624
7756.85672
7595.09197
-2209.64544
-2262.60871
7539.90864
7965.21286
-1759.29574
-2893.72765
6289.47893
8604.75078
1091.65348
-4508.13612
-3415.18526
7411.44055
8888.67358
1787.16775
-4443.1595
-4387.80248
6749.26895
8695.28257
1937.63315
-1527.27636
4791.65468
8400.68644
1509.16297
-2483.34491
3836.32638
8455.40204
3219.2626
-4295.27894
-4898.59972
4407.7169
8585.72904
3000.8254
-1766.5682
3444.60887
8612.61042
3821.08453
-3367.96086
-3984.04571
-4480.86697
-4515.00038
3734.97607
8778.44951
3766.609
-1840.32975
2631.17378
8714.06738
4958.03612
-1937.84258
-611.482931
7993.72979
8547.57805
-375.022862
-3546.40713
2350.25465
8808.29318
6021.93382
-2230.26805
-4275.18828
-4354.64919
3031.39564
9009.37871
4684.91988
-1765.09535
1906.47531
8865.02038
7034.67515
-2255.15891
-4091.17875
1601.41524
9161.51692
9850.47522
2266.49895
-4106.72323
-5049.24248
1783.14631
9061.86655
7660.8543
-2011.48012
-3738.79705
2809.24842
9251.96807
7197.61822
-2246.30027
-3525.88998
3503.40376
9256.48997
6356.32366
-3075.67092
-4087.29573
3161.39603
9076.44638
5987.1985
-3536.84148
-4195.98875
3357.45085
9029.25107
5675.66136
-3904.59583
-4290.69625
3544.4385
9010.03656
5383.53515
-3709.59094
-4522.16621
-4069.2533
3660.67619
8850.90099
3158.69261
-1566.59426
4169.76857
9085.2917
4525.45274
-4002.41757
-3694.10309
5112.44003
8940.50899
2571.2041
-1146.41947
5297.77894
9068.64048
3270.3561
-4199.14598
-3492.09386
6039.17909
8723.76148
1033.20563
-2177.09703
5351.37121
8700.74248
1549.30857
-4952.87874
-3815.35546
6391.83665
8650.00338
531.0638
-1932.96079
6228.17385
8786.28568
1105.99529
-4754.90932
-3327.48236
7160.00158
8689.54589
10.9518134
-1910.46188
6788.11175
8737.47949
351.823417
-4998.85518
-3165.434
7753.2478
8731.5027
207.787196
-4941.7108
-2997.28334
7997.95403
8794.13346
134.271256
-4947.15846
-3029.55037
8035.6563
8855.78862
-537.549227
-1983.80341
7406.19814
8900.79948
-875.036358
-2264.79235
7407.95446
8896.05004
-272.241504
-5323.18346
-3236.05801
8437.18005
8960.79895
-1059.39978
-2230.32718
7837.74187
9093.23441
-1173.76366
-2304.47361
7823.79388
9176.45327
27.836699
-5018.65889
-2942.21935
8904.82464
9342.74112
545.487437
-4129.33136
-3692.43509
-4425.00699
-2412.25834
9266.10715
9699.83944
1969.1071
-3750.95171
-1843.59928
9280.05767
9542.78125
678.107729
-4766.3342
-3050.87394
9114.20458
9415.29041
-1437.80585
-2544.86498
8448.21162
9473.53077
-1926.21195
-2885.29716
8538.97855
9519.29513
-2180.43423
-3107.20135
8426.2069
9505.18106
-872.985829
-5781.34733
-4039.64835
9178.21327
9548.80531
-351.487797
-5478.77574
-3704.69012
9303.4739
9683.33503
-53.2181923
-5253.07776
-3518.59644
9364.74809
9761.64129
2.52644257
-5229.32415
-3476.97505
9405.3223
9870.19831
-1867.28694
-2897.5667
8768.62884
9849.46466
-247.691811
-5455.6265
-3923.1152
9283.10214
9845.65708
-1947.8804
-3176.48415
8614.71122
9886.50218
9.6476419
-5350.45945
-4130.29695
9188.29908
9959.50119
964.485031
-4799.49244
-2961.61034
8796.44559
10550.2372
10361.4333
-1705.77672
-4627.26759
-4074.86284
-5243.43752
-4678.44364
8348.18186
10417.8929
10345.9832
-827.997827
-4874.35645
-3501.92342
8982.82767
10043.8308
1210.63478
-4326.3356
-4788.71202
111.969115
)
;

boundaryField
{
    closed
    {
        type            lookUpEnthalpy;
        h0              uniform 256960.989;
        value           uniform 256960.989;
    }
    open
    {
        type            zeroGradient;
    }
    sides
    {
        type            empty;
    }
    procBoundary0to1
    {
        type            processor;
        value           uniform 9423.55546;
    }
}


// ************************************************************************* //
