/*--------------------------------*- C++ -*----------------------------------*\
| =========                 |                                                 |
| \\      /  F ield         | OpenFOAM: The Open Source CFD Toolbox           |
|  \\    /   O peration     | Version:  2306                                  |
|   \\  /    A nd           | Website:  www.openfoam.com                      |
|    \\/     M anipulation  |                                                 |
\*---------------------------------------------------------------------------*/
FoamFile
{
    version     2.0;
    format      ascii;
    arch        "LSB;label=32;scalar=64";
    class       volScalarField;
    location    "0.00134";
    object      H2O;
}
// * * * * * * * * * * * * * * * * * * * * * * * * * * * * * * * * * * * * * //

dimensions      [0 0 0 0 0 0 0];

internalField   nonuniform List<scalar> 
530
(
0.00320982929
0.00456867218
0.00451878067
0.00450817031
0.00450716533
0.00450713706
0.00450713549
0.00450713543
0.00450713542
0.00450713542
0.00450713542
0.00450713542
0.00450713542
0.00450713542
0.00450713542
0.00450713542
0.00450713542
0.00450713542
0.00450713542
0.00450713542
0.00450713542
0.00450713542
0.00450713542
0.00450713542
0.00450713542
0.00450713542
0.00450713542
0.00450713542
0.00450713542
0.00450713542
0.00450713542
0.00450713542
0.00450713542
0.00450713542
0.00450713542
0.00450713542
0.00450713542
0.00450713542
0.00450713542
0.00450713542
0.00450713542
0.00450713542
0.00450713542
0.00450713542
0.00450713542
0.00450713542
0.00450713542
0.00450713542
0.00450713542
0.00450713542
0.00450713542
0.00450713542
0.00450713542
0.00450713542
0.00450713542
0.00450713542
0.00450713542
0.00450713542
0.00450713542
0.00450713543
0.00450713543
0.00450713543
0.00450713544
0.00450713549
0.00450713559
0.00450713594
0.00450713666
0.00450713852
0.00450714108
0.00450714998
0.00450716478
0.00450718072
0.00450721183
0.00450742764
0.0045075169
0.00450725342
0.00450754078
0.00450974658
0.00450935166
0.00450858837
0.00450676861
0.00450971031
0.00452694835
0.00457267266
0.00455520113
0.00430099527
0.00429265332
0.00450451822
0.00620884255
0.00650693429
0.00587444239
0.00105339507
0.00100546316
0.000974120892
0.00551000381
0.00689974203
0.0069581346
0.00706752399
0.00710607981
0.00377533064
0.000919363648
0.000948892443
0.000992789982
0.000970519577
0.00393145021
0.00690596979
0.00709768987
0.00707358105
0.00713838534
0.00707881755
0.00314085185
0.000944905883
0.000983661392
0.000957493907
0.000991913493
0.00094705021
0.00371910593
0.00698079925
0.00715150835
0.0071234101
0.00714758118
0.00704466585
0.00339685548
0.00100376235
0.000980651902
0.0034449761
0.00688989543
0.00715050478
0.00681386892
0.00186190083
0.00102132709
0.000964214603
0.00342504048
0.00689054596
0.00706860684
0.00663481142
0.00163023052
0.000887073474
0.00439259031
0.00666468254
0.0060987275
0.00078166262
0.000766976241
0.00580271206
0.00637450808
0.00244760681
0.00075117401
0.00525335581
0.00639864511
0.00351591211
0.0009498991
0.0011776973
0.00642461471
0.00730951037
0.00669414468
0.00178224938
0.00101659549
0.000835188713
0.00509028606
0.00661205032
0.00536477435
0.000835422547
0.00100814978
0.00574189118
0.00645727825
0.00422740508
0.000865492252
0.00165003189
0.00668914846
0.007210783
0.00708902148
0.0070292906
0.00677065213
0.00408558937
0.000906722507
0.00168526701
0.00599081246
0.00587818402
0.00125885396
0.000767501779
0.00526868245
0.00659372614
0.00493936911
0.000883318787
0.00084279908
0.00572980697
0.00716721123
0.00706441746
0.00622159733
0.00121881061
0.000950008879
0.00296652327
0.0060977339
0.00532032814
0.00109038679
0.00229439034
0.00626344141
0.00565306304
0.000884509261
0.00153158529
0.00659735
0.00708442788
0.0052754578
0.000901668015
0.00246007086
0.00640980331
0.00564892936
0.00113828356
0.00262812431
0.0065962405
0.00601972244
0.000928069584
0.00149900626
0.00663468454
0.00714496436
0.00529973485
0.000760504889
0.00235848863
0.00656406458
0.00597110804
0.000765503287
0.00144181888
0.00674480344
0.00723671587
0.00540492789
0.000769878384
0.00230279435
0.00650646812
0.00574518529
0.000855722762
0.00245802805
0.00658414526
0.00582676693
0.000763583672
0.00206991295
0.00653417059
0.00587455687
0.000772266974
0.00188352673
0.00668590924
0.0064041946
0.000764616581
0.000768098083
0.00651281963
0.00729117236
0.00595476609
0.000785139823
0.00111255904
0.00650192062
0.0063757776
0.000865094916
0.000971816303
0.00646754813
0.00648158093
0.0010689595
0.000734181529
0.00631828491
0.00665989219
0.00195362068
0.000823527964
0.00512191121
0.00712591921
0.00680880795
0.00131797896
0.000865261705
0.0047928853
0.00710578659
0.00709172972
0.00178813742
0.000835833634
0.00474796047
0.00624742411
0.00305984631
0.000793141902
0.00490750469
0.00654410637
0.0035830626
0.000803885465
0.00403812897
0.00706087259
0.00723913814
0.00327858355
0.000820362384
0.00415673763
0.00632653124
0.00384489081
0.000826292518
0.00369218927
0.0067950332
0.00696934461
0.00711284613
0.00712546606
0.00367726114
0.00085015681
0.00373530598
0.00635068096
0.00431326115
0.000843620154
0.00304727374
0.00638800301
0.00589003541
0.000956157483
0.000822265409
0.0057764006
0.00684646533
0.00446657004
0.000856792955
0.00243038652
0.00647832085
0.00705277582
0.00707769743
0.00408741964
0.000884949353
0.00318104155
0.00632367035
0.00470431329
0.000864474272
0.00167832225
0.00648514455
0.00700279147
0.00484619151
0.00091085883
0.00101116231
0.00460850424
0.0070039171
0.0072780379
0.00478152859
0.000894224573
0.00122706882
0.00640416026
0.00690191438
0.00427252568
0.000922515995
0.00157221914
0.00648184756
0.00684038101
0.00389134604
0.000922728756
0.0021569131
0.00671308084
0.00700093034
0.00405950851
0.000895449587
0.00236850977
0.00684274226
0.00703178542
0.00395585508
0.000888748401
0.00256940789
0.00694727932
0.00705849154
0.00386475059
0.000886208523
0.00275189294
0.00689250425
0.00712268918
0.0069939761
0.0037817928
0.000863505296
0.0040739045
0.00625368592
0.00352240066
0.00089825504
0.0033104484
0.00697585287
0.00688736962
0.00297203424
0.000879533293
0.00443468026
0.00610096589
0.00285031348
0.00089761766
0.00404838493
0.0070321493
0.00683013472
0.00234445194
0.000847770774
0.00516296097
0.00646142341
0.00271252995
0.00084237284
0.00489981379
0.00724895197
0.00692116355
0.00210807471
0.000836201932
0.00540689831
0.0063821667
0.00214354115
0.00085652301
0.0051282162
0.00719320989
0.00678454034
0.00157262403
0.000841671938
0.00564127557
0.006374737
0.00170985885
0.000848370638
0.00547102153
0.00726542252
0.00673938506
0.00109618699
0.000847815925
0.0055457621
0.00725000116
0.0066924799
0.000886894975
0.000856465607
0.00557839115
0.00725210982
0.0067017596
0.00085824787
0.000862706679
0.00587753059
0.00640112047
0.00120889795
0.000868494997
0.00600019878
0.00648411043
0.00117081915
0.000869280664
0.00573777096
0.00736346186
0.00675932245
0.000802456271
0.000876407144
0.00608000475
0.00647501528
0.000849490218
0.000896589589
0.00611896399
0.00649539203
0.000814695412
0.000910938701
0.00562057703
0.00727272829
0.00667751533
0.000868167606
0.000934789969
0.00541497759
0.00701241809
0.00688660953
0.00709772991
0.00652915721
0.000922762744
0.000989653743
0.00476596173
0.0069045301
0.00634301454
0.00092421513
0.000965555196
0.0053466401
0.00719732992
0.00670709946
0.000899412652
0.000944212133
0.0062143115
0.00656384156
0.000799022942
0.000953178852
0.00638645237
0.00665907127
0.000812020933
0.000960196903
0.00645915331
0.00672123996
0.000793477717
0.000959383023
0.00598811777
0.00749207285
0.00698462341
0.000908716506
0.000965421976
0.00577922952
0.00740214204
0.00689007323
0.000928022597
0.000985830505
0.00565788969
0.00733534002
0.0068376346
0.000937476781
0.000997601752
0.00562933821
0.00732812095
0.00682611759
0.000945243641
0.00101321089
0.00635527919
0.0066629726
0.000847581412
0.0010111352
0.0057343885
0.00739351369
0.00695164139
0.000927691216
0.00100949993
0.00638162532
0.00674128428
0.000825851764
0.00101669089
0.00563009957
0.0073612849
0.00701064247
0.000911754229
0.001027436
0.00519242249
0.00720565612
0.00668295972
0.000856715164
0.00111455652
0.0010868108
0.00627103154
0.00715619658
0.00699407146
0.00733906028
0.0071668227
0.000789113596
0.00109538066
0.00108482459
0.00593930563
0.00722811289
0.00683295532
0.00088606692
0.00103950132
0.00513750759
0.00706489577
0.00719771497
0.00556870952
)
;

boundaryField
{
    closed
    {
        type            calculated;
        value           uniform 9.47486682e-07;
    }
    open
    {
        type            calculated;
        value           nonuniform List<scalar> 0();
    }
    sides
    {
        type            empty;
    }
    procBoundary0to1
    {
        type            processor;
        value           uniform 0.000950933437;
    }
}


// ************************************************************************* //
