/*--------------------------------*- C++ -*----------------------------------*\
| =========                 |                                                 |
| \\      /  F ield         | OpenFOAM: The Open Source CFD Toolbox           |
|  \\    /   O peration     | Version:  2306                                  |
|   \\  /    A nd           | Website:  www.openfoam.com                      |
|    \\/     M anipulation  |                                                 |
\*---------------------------------------------------------------------------*/
FoamFile
{
    version     2.0;
    format      ascii;
    arch        "LSB;label=32;scalar=64";
    class       volScalarField;
    location    "0.00134";
    object      prefDPV_T;
}
// * * * * * * * * * * * * * * * * * * * * * * * * * * * * * * * * * * * * * //

dimensions      [1 -1 -1 -1 0 0 0];

internalField   nonuniform List<scalar> 
530
(
6.09397526e-10
5.98544379e-10
5.97540312e-10
5.97548841e-10
5.97549775e-10
5.97549776e-10
5.97549775e-10
5.97549775e-10
5.97549775e-10
5.97549775e-10
5.97549775e-10
5.97549775e-10
5.97549775e-10
5.97549775e-10
5.97549775e-10
5.97549775e-10
5.97549775e-10
5.97549775e-10
5.97549775e-10
5.97549775e-10
5.97549775e-10
5.97549775e-10
5.97549775e-10
5.97549775e-10
5.97549775e-10
5.97549775e-10
5.97549775e-10
5.97549775e-10
5.97549775e-10
5.97549775e-10
5.97549775e-10
5.97549775e-10
5.97549775e-10
5.97549775e-10
5.97549775e-10
5.97549775e-10
5.97549775e-10
5.97549775e-10
5.97549775e-10
5.97549775e-10
5.97549775e-10
5.97549775e-10
5.97549775e-10
5.97549775e-10
5.97549775e-10
5.97549775e-10
5.97549775e-10
5.97549775e-10
5.97549775e-10
5.97549775e-10
5.97549775e-10
5.97549775e-10
5.97549775e-10
5.97549775e-10
5.97549775e-10
5.97549775e-10
5.97549775e-10
5.97549775e-10
5.97549775e-10
5.97549775e-10
5.97549775e-10
5.97549775e-10
5.97549775e-10
5.97549775e-10
5.97549775e-10
5.97549775e-10
5.97549775e-10
5.97549777e-10
5.97549779e-10
5.97549782e-10
5.97549783e-10
5.97549857e-10
5.97549937e-10
5.97549539e-10
5.97549853e-10
5.97551681e-10
5.97551827e-10
5.97546126e-10
5.97550539e-10
5.97555296e-10
5.97567537e-10
5.97560791e-10
5.9750595e-10
5.97350986e-10
5.97423865e-10
5.9833769e-10
5.98379106e-10
5.9762921e-10
5.91883488e-10
5.91100617e-10
5.92866651e-10
6.1106543e-10
6.09073709e-10
6.09323507e-10
5.94018624e-10
5.90433803e-10
5.90210911e-10
5.90093687e-10
5.90090338e-10
6.00247042e-10
6.10431796e-10
6.09990315e-10
6.09464901e-10
6.09597632e-10
5.99677645e-10
5.90311764e-10
5.89981515e-10
5.90066589e-10
5.89941057e-10
5.90218915e-10
6.02676707e-10
6.10161149e-10
6.09580857e-10
6.09909087e-10
6.09400233e-10
6.09839703e-10
6.0046356e-10
5.90125074e-10
5.89812226e-10
5.89879061e-10
5.8983985e-10
5.90101192e-10
6.01700825e-10
6.09412349e-10
6.09518875e-10
6.01516442e-10
5.90319982e-10
5.89903865e-10
5.90472318e-10
6.07752702e-10
6.09306563e-10
6.09978743e-10
6.01593502e-10
5.90446402e-10
5.9007814e-10
5.90761065e-10
6.08694941e-10
6.10839551e-10
5.97995203e-10
5.90973706e-10
5.92247284e-10
6.11905608e-10
6.12278733e-10
5.93198223e-10
5.914887e-10
6.05401367e-10
6.12339199e-10
5.94956294e-10
5.91448457e-10
6.01243157e-10
6.09672219e-10
6.10559209e-10
5.91181632e-10
5.8952986e-10
5.90389277e-10
6.08069712e-10
6.09136381e-10
6.11816608e-10
5.95509498e-10
5.91069569e-10
5.94602576e-10
6.11358424e-10
6.11253813e-10
5.93438742e-10
5.91346364e-10
5.98578319e-10
6.10642732e-10
6.08626976e-10
5.90775594e-10
5.89792583e-10
5.89900861e-10
5.90112091e-10
5.90637955e-10
5.99131145e-10
6.10325242e-10
6.08476847e-10
5.92706492e-10
5.93043491e-10
6.10231546e-10
6.12175452e-10
5.94922253e-10
5.91224189e-10
5.96090035e-10
6.10711234e-10
6.11943706e-10
5.93418865e-10
5.89970576e-10
5.9000287e-10
5.91787212e-10
6.10380093e-10
6.09802994e-10
6.03362566e-10
5.92423283e-10
5.94819792e-10
6.10933887e-10
6.06012786e-10
5.91950691e-10
5.93740284e-10
6.11794075e-10
6.09110034e-10
5.91042854e-10
5.90277595e-10
5.9486061e-10
6.11718174e-10
6.05346822e-10
5.91514151e-10
5.93684983e-10
6.10744679e-10
6.04676894e-10
5.91176122e-10
5.92541684e-10
6.11616838e-10
6.09245767e-10
5.91021458e-10
5.90230676e-10
5.9480283e-10
6.12304653e-10
6.05754181e-10
5.9134989e-10
5.92718407e-10
6.12299592e-10
6.09482647e-10
5.9083934e-10
5.90055502e-10
5.94456068e-10
6.12097265e-10
6.05977908e-10
5.91494789e-10
5.93413343e-10
6.11919976e-10
6.05356674e-10
5.91362816e-10
5.93179272e-10
6.11998929e-10
6.06917688e-10
5.9148843e-10
5.9306648e-10
6.11847482e-10
6.07674317e-10
5.91169464e-10
5.91535447e-10
6.11875904e-10
6.11942367e-10
5.9114526e-10
5.90020011e-10
5.92731165e-10
6.11857173e-10
6.10858117e-10
5.91447121e-10
5.9161874e-10
6.11885081e-10
6.11440714e-10
5.91465795e-10
5.91497466e-10
6.11030266e-10
6.12430298e-10
5.91708355e-10
5.91211446e-10
6.07390521e-10
6.11154955e-10
5.95426897e-10
5.90272417e-10
5.90848719e-10
6.09984647e-10
6.10595122e-10
5.96569231e-10
5.9026541e-10
5.90380688e-10
6.08058578e-10
6.10921058e-10
5.96755949e-10
5.92061594e-10
6.02986403e-10
6.11525242e-10
5.96145778e-10
5.91346438e-10
6.00956125e-10
6.11534376e-10
5.99282964e-10
5.90256512e-10
5.90003779e-10
6.02134689e-10
6.11172741e-10
5.98845784e-10
5.91757525e-10
5.99975262e-10
6.11217354e-10
6.00572097e-10
5.90631859e-10
5.90243501e-10
5.90066967e-10
5.90173358e-10
6.00607976e-10
6.10880678e-10
6.00413677e-10
5.91659315e-10
5.9824885e-10
6.11139085e-10
6.03048212e-10
5.91603375e-10
5.93020705e-10
6.11475626e-10
6.11544303e-10
5.93301055e-10
5.90779786e-10
5.9769546e-10
6.10940108e-10
6.05474641e-10
5.91168365e-10
5.90122001e-10
5.90205214e-10
5.99074768e-10
6.10490275e-10
6.02524754e-10
5.91733981e-10
5.96853051e-10
6.10804147e-10
6.0850112e-10
5.9115787e-10
5.90423849e-10
5.96342611e-10
6.10421939e-10
6.09123503e-10
5.97267516e-10
5.9013911e-10
5.89759739e-10
5.96595545e-10
6.10488673e-10
6.10351388e-10
5.91396388e-10
5.90682601e-10
5.9843004e-10
6.10163983e-10
6.08933423e-10
5.91206077e-10
5.9076209e-10
5.99832383e-10
6.10123743e-10
6.06565401e-10
5.90744687e-10
5.90377521e-10
5.99199008e-10
6.1040492e-10
6.05718665e-10
5.90531393e-10
5.90286512e-10
5.99585311e-10
6.10508139e-10
6.04920101e-10
5.90361333e-10
5.9019813e-10
5.99930115e-10
6.10560467e-10
6.04199443e-10
5.90590214e-10
5.89930649e-10
5.90240574e-10
6.00234191e-10
6.10884755e-10
5.99152091e-10
5.91952987e-10
6.01224114e-10
6.10479964e-10
6.02032638e-10
5.90371559e-10
5.90473469e-10
6.03343289e-10
6.10855443e-10
5.97869552e-10
5.92416395e-10
6.03817421e-10
6.10602745e-10
5.99263291e-10
5.90248727e-10
5.90505159e-10
6.05814845e-10
6.11229328e-10
5.953086e-10
5.91308164e-10
6.04349815e-10
6.11191908e-10
5.96185985e-10
5.89779928e-10
5.90202391e-10
6.06761835e-10
6.11329539e-10
5.94529909e-10
5.91548789e-10
6.06619776e-10
6.11105565e-10
5.95424648e-10
5.89957113e-10
5.90464794e-10
6.08933536e-10
6.11248335e-10
5.93807499e-10
5.9157838e-10
6.08380156e-10
6.11151508e-10
5.94288651e-10
5.89853487e-10
5.90551787e-10
6.10898708e-10
6.11174652e-10
5.9407672e-10
5.89925983e-10
5.90655693e-10
6.11771309e-10
6.11043136e-10
5.93975483e-10
5.89937982e-10
5.90611192e-10
6.11890749e-10
6.10799473e-10
5.93136537e-10
5.91511883e-10
6.10445366e-10
6.1066724e-10
5.92727674e-10
5.91362008e-10
6.10606596e-10
6.10760062e-10
5.93435772e-10
5.89733517e-10
5.90483061e-10
6.11613713e-10
6.10488094e-10
5.92564142e-10
5.91348143e-10
6.11945313e-10
6.10275029e-10
5.92425135e-10
5.91328066e-10
6.12096001e-10
6.10270449e-10
5.93832767e-10
5.89885927e-10
5.90659354e-10
6.10599945e-10
6.09908172e-10
5.94535159e-10
5.90311258e-10
5.90304148e-10
5.90149996e-10
5.91044161e-10
6.09989885e-10
6.0946627e-10
5.96727489e-10
5.90588525e-10
5.91568428e-10
6.09895861e-10
6.0965334e-10
5.94736968e-10
5.89979954e-10
5.90653004e-10
6.10209442e-10
6.09585466e-10
5.92143424e-10
5.91107621e-10
6.11383497e-10
6.09511764e-10
5.91658153e-10
5.90925742e-10
6.11186444e-10
6.09451332e-10
5.91495405e-10
5.90843601e-10
6.11305468e-10
6.09660459e-10
5.92700408e-10
5.89318084e-10
5.90137321e-10
6.10061817e-10
6.09528948e-10
5.9333677e-10
5.89472294e-10
5.90348068e-10
6.098871e-10
6.09339217e-10
5.93723944e-10
5.89578794e-10
5.90466978e-10
6.09807003e-10
6.09220002e-10
5.93799346e-10
5.89583324e-10
5.90425563e-10
6.09897253e-10
6.08827289e-10
5.91577302e-10
5.90868857e-10
6.10833969e-10
6.09142824e-10
5.93469109e-10
5.89437645e-10
5.90194974e-10
6.10147748e-10
6.08865286e-10
5.91466194e-10
5.90700322e-10
6.11178445e-10
6.09090571e-10
5.93807828e-10
5.89452249e-10
5.90129303e-10
6.10181607e-10
6.0895909e-10
5.95205688e-10
5.89912656e-10
5.90643693e-10
6.11035302e-10
6.08015794e-10
6.08305759e-10
5.91602704e-10
5.9003135e-10
5.90016926e-10
5.89760084e-10
5.89806861e-10
6.11763122e-10
6.08312218e-10
6.08418724e-10
5.92705387e-10
5.89894185e-10
5.90469239e-10
6.10796735e-10
6.08708595e-10
5.9548284e-10
5.89864884e-10
5.89708481e-10
5.9395603e-10
)
;

boundaryField
{
    closed
    {
        type            calculated;
        value           uniform 7.2771869e-10;
    }
    open
    {
        type            calculated;
        value           nonuniform List<scalar> 0();
    }
    sides
    {
        type            empty;
    }
    procBoundary0to1
    {
        type            processor;
        value           uniform 6.10063009e-10;
    }
}


// ************************************************************************* //
