/*--------------------------------*- C++ -*----------------------------------*\
| =========                 |                                                 |
| \\      /  F ield         | OpenFOAM: The Open Source CFD Toolbox           |
|  \\    /   O peration     | Version:  2306                                  |
|   \\  /    A nd           | Website:  www.openfoam.com                      |
|    \\/     M anipulation  |                                                 |
\*---------------------------------------------------------------------------*/
FoamFile
{
    version     2.0;
    format      ascii;
    arch        "LSB;label=32;scalar=64";
    class       volScalarField;
    location    "0.00134";
    object      sourcePV;
}
// * * * * * * * * * * * * * * * * * * * * * * * * * * * * * * * * * * * * * //

dimensions      [1 -3 -1 0 0 0 0];

internalField   nonuniform List<scalar> 
530
(
0.0531915628
0.080651281
0.0816793229
0.0815437426
0.08153073
0.0815304535
0.0815304433
0.0815304428
0.0815304428
0.0815304428
0.0815304428
0.0815304428
0.0815304428
0.0815304428
0.0815304428
0.0815304428
0.0815304428
0.0815304428
0.0815304428
0.0815304428
0.0815304428
0.0815304428
0.0815304428
0.0815304428
0.0815304428
0.0815304428
0.0815304428
0.0815304428
0.0815304428
0.0815304428
0.0815304428
0.0815304428
0.0815304428
0.0815304428
0.0815304428
0.0815304428
0.0815304428
0.0815304428
0.0815304428
0.0815304428
0.0815304428
0.0815304428
0.0815304428
0.0815304428
0.0815304428
0.0815304428
0.0815304428
0.0815304428
0.0815304428
0.0815304428
0.0815304428
0.0815304428
0.0815304428
0.0815304428
0.0815304428
0.0815304428
0.0815304428
0.0815304428
0.0815304428
0.0815304428
0.0815304428
0.0815304429
0.0815304429
0.0815304433
0.081530444
0.0815304464
0.0815304515
0.0815304641
0.0815304804
0.0815305565
0.0815306942
0.0815305895
0.0815306047
0.0815340948
0.0815338487
0.0815248461
0.0815271139
0.0815686331
0.0815492914
0.0815251405
0.0814644057
0.0815170703
0.0818801654
0.0828813741
0.0824538654
0.0767567347
0.0765210978
0.0812298305
0.121365582
0.129457091
0.113187473
0.00797952255
0.0055249201
0.00528402491
0.104546396
0.146074693
0.147994581
0.152824273
0.154652355
0.0653955997
0.00426254563
0.00467065938
0.00516470063
0.00503315051
0.0686902878
0.14586036
0.153835849
0.153009373
0.155627166
0.153841659
0.0516815977
0.00451889737
0.00505601491
0.00474839531
0.00522209596
0.0048024442
0.064133875
0.148744904
0.15576477
0.154673735
0.15568231
0.15175364
0.0570196863
0.00521796261
0.00510949334
0.0580653399
0.145102381
0.156064373
0.14200109
0.0244687348
0.00532231306
0.00469314748
0.057622971
0.145677814
0.152815573
0.134321691
0.0197716882
0.0038821824
0.0788474195
0.136837815
0.118677493
0.00286021544
0.00270484845
0.111490238
0.125599813
0.037113005
0.00246044246
0.0985041008
0.126245807
0.0596333862
0.00495466436
0.0107354592
0.126668083
0.162223321
0.13553398
0.0225039333
0.00547198703
0.00301097575
0.0947343246
0.134647569
0.101087183
0.00338553375
0.00708379574
0.110035316
0.128145753
0.0752501072
0.00403062429
0.0208191037
0.137144798
0.158511657
0.153100437
0.151053897
0.140593153
0.071937263
0.00434366361
0.0212186903
0.116118033
0.113352418
0.0126297962
0.00261833131
0.0988440536
0.134452544
0.0911643031
0.00398750107
0.00379884904
0.109734928
0.157102096
0.152316392
0.121629521
0.0112938429
0.00483708176
0.0477919971
0.118795673
0.0999973094
0.00933730434
0.0341158659
0.122963885
0.107900714
0.00524070117
0.0182669969
0.133780291
0.154324449
0.0990377865
0.00547839169
0.0377499972
0.126656471
0.107800564
0.0106022751
0.0412289116
0.134354333
0.116776107
0.00624214122
0.0176821994
0.135558118
0.156987223
0.0995807772
0.00254710019
0.035621797
0.133556166
0.115602545
0.00302682773
0.0165768783
0.140211176
0.160627414
0.102036574
0.00268573529
0.0344807705
0.131357169
0.110111597
0.00480146614
0.0375806054
0.134614055
0.112090647
0.00275820926
0.0294780476
0.13270992
0.113269734
0.00289624649
0.0256648954
0.138765925
0.126520644
0.00286261773
0.00281139212
0.129982481
0.162993499
0.1151812
0.00290507633
0.0102780672
0.130902589
0.125799913
0.00510101141
0.00730303734
0.129258646
0.130120454
0.00911402232
0.0023802228
0.124250077
0.137673537
0.0272586915
0.00354503283
0.0954294713
0.15624812
0.143388242
0.0137411173
0.00407240187
0.0878756134
0.155283131
0.155039318
0.0233930357
0.00376035555
0.0867837821
0.122634555
0.0500572535
0.00319425979
0.0905366023
0.132542327
0.0614192123
0.00319915767
0.0710262387
0.153132137
0.160567555
0.0547716521
0.00352642925
0.0736433587
0.124546375
0.0669901673
0.0034942998
0.0634863581
0.141776929
0.148677956
0.154885955
0.155873536
0.0633522813
0.00380889551
0.0643888235
0.125122625
0.0772267246
0.00358010661
0.0495194064
0.126137054
0.113648984
0.00618249925
0.0032139517
0.110860868
0.144926711
0.0806257932
0.00376416462
0.0363013707
0.128327954
0.152226604
0.153737089
0.0722641685
0.00418090992
0.0524746794
0.124435068
0.0859389084
0.00388895764
0.0208658196
0.128625931
0.15100929
0.0891772498
0.0042630408
0.00548138675
0.0835589377
0.149931904
0.161545241
0.0876493475
0.00419022974
0.0116233821
0.126339976
0.147203054
0.0761730762
0.00449784615
0.0186568101
0.128699978
0.144558831
0.0677736102
0.00453348909
0.030740149
0.138203275
0.150740864
0.0715264465
0.0042645313
0.0352587688
0.143693594
0.151861905
0.0692359665
0.00416847762
0.0394800381
0.148090123
0.15279623
0.0672021428
0.0041206072
0.0433403623
0.146374312
0.154838103
0.149862276
0.0654417861
0.00381855751
0.0718066491
0.122688273
0.0597109819
0.00420137388
0.0551479952
0.149513756
0.145637007
0.0478566722
0.00386045832
0.0796910108
0.118878612
0.0452900194
0.00409476566
0.0711425813
0.151732687
0.142955746
0.0347248952
0.00350872
0.0963550104
0.128166314
0.0426892366
0.00353390087
0.0903344662
0.160259834
0.146138029
0.029797964
0.00341067983
0.102040024
0.125895518
0.0307581933
0.00362312177
0.0955511474
0.15827513
0.140498868
0.018741925
0.00348546769
0.107619483
0.125717601
0.0219299682
0.00357494881
0.103568874
0.161277419
0.138628671
0.00913814173
0.00355476501
0.10533473
0.16080834
0.136746739
0.00496630982
0.00367587905
0.106112601
0.160945744
0.137005194
0.00438689296
0.00389130644
0.113385575
0.126399427
0.0118413825
0.00401173017
0.116385636
0.129590635
0.0111717071
0.00393171569
0.109932841
0.165379106
0.139313465
0.00313066328
0.00417594622
0.118434795
0.129059826
0.00465710186
0.00438023936
0.119386961
0.129997049
0.00408170699
0.00439515983
0.107121676
0.161722402
0.13600434
0.00407052175
0.00473346991
0.102217129
0.151031799
0.144870603
0.154479808
0.130314674
0.0046526688
0.00516166882
0.0871140307
0.146949135
0.124793289
0.00473823662
0.00498035789
0.100613852
0.158548327
0.137473971
0.00444072272
0.00503121141
0.121781307
0.132396151
0.00332226265
0.00510267727
0.126165576
0.13633476
0.00350616865
0.00516106588
0.128978198
0.139062412
0.00338420785
0.00497041192
0.116041939
0.169942615
0.148983296
0.0045792572
0.00509241994
0.110941412
0.166325006
0.14523308
0.00474832447
0.00527433536
0.10801655
0.163593784
0.143158969
0.00482602073
0.00538795007
0.107331452
0.163274194
0.142401812
0.00475004899
0.00575609724
0.125154556
0.136264684
0.00384723179
0.00546379786
0.109855791
0.165817706
0.147608849
0.00451613927
0.00571978283
0.125776975
0.139411087
0.00352720477
0.00551358379
0.107349709
0.164374702
0.150218889
0.00447421358
0.00563751923
0.0970432259
0.158700512
0.136205882
0.00368280775
0.00652762856
0.00625448232
0.12281661
0.156803845
0.148941208
0.16435307
0.15647706
0.00298860878
0.0062497883
0.00614951546
0.114768364
0.159684748
0.142936838
0.00391733112
0.00587181309
0.0956644642
0.151781106
0.157581402
0.105888856
)
;

boundaryField
{
    closed
    {
        type            calculated;
        value           uniform 0;
    }
    open
    {
        type            calculated;
        value           nonuniform List<scalar> 0();
    }
    sides
    {
        type            empty;
    }
    procBoundary0to1
    {
        type            processor;
        value           uniform 0;
    }
}


// ************************************************************************* //
