/*--------------------------------*- C++ -*----------------------------------*\
| =========                 |                                                 |
| \\      /  F ield         | OpenFOAM: The Open Source CFD Toolbox           |
|  \\    /   O peration     | Version:  2306                                  |
|   \\  /    A nd           | Website:  www.openfoam.com                      |
|    \\/     M anipulation  |                                                 |
\*---------------------------------------------------------------------------*/
FoamFile
{
    version     2.0;
    format      ascii;
    arch        "LSB;label=32;scalar=64";
    class       volScalarField;
    location    "0.00024";
    object      Z;
}
// * * * * * * * * * * * * * * * * * * * * * * * * * * * * * * * * * * * * * //

dimensions      [0 0 0 0 0 0 0];

internalField   nonuniform List<scalar> 
531
(
0.014478872
0.0144754107
0.0144529788
0.0144532216
0.0144650033
0.0144662187
0.0144609322
0.0144596168
0.0144617041
0.014462592
0.0144618401
0.0144613693
0.0144616126
0.0144618279
0.0144617524
0.0144616624
0.0144616878
0.0144617282
0.0144617172
0.0144616922
0.0144616971
0.0144617186
0.0144617175
0.0144616986
0.0144616975
0.014461711
0.0144617145
0.0144617058
0.0144617012
0.0144617062
0.014461711
0.0144617085
0.014461704
0.0144617048
0.0144617089
0.0144617089
0.014461706
0.0144617053
0.0144617069
0.0144617082
0.0144617074
0.014461706
0.0144617062
0.0144617076
0.0144617075
0.0144617064
0.0144617063
0.0144617074
0.0144617076
0.0144617064
0.0144617059
0.0144617072
0.0144617083
0.014461707
0.0144617053
0.0144617062
0.0144617085
0.0144617081
0.0144617055
0.0144617055
0.0144617079
0.0144617083
0.0144617061
0.0144617051
0.0144617074
0.0144617096
0.0144617074
0.0144617026
0.0144617037
0.0144617133
0.0144617139
0.0144617004
0.0144616946
0.0144617101
0.0144617253
0.0144617118
0.0144616833
0.0144616894
0.0144617334
0.0144617331
0.0144616865
0.0144616756
0.0144617165
0.0144617395
0.0144617089
0.0144616771
0.0144616956
0.014461731
0.0144617232
0.0144616895
0.014461691
0.0144617172
0.0144617189
0.0144617026
0.0144616989
0.0144617079
0.0144617117
0.0144617073
0.0144617042
0.0144617062
0.0144617083
0.0144617075
0.0144617062
0.0144617064
0.0144617072
0.0144617072
0.0144617069
0.0144617067
0.0144617066
0.0144617068
0.0144617074
0.0144617074
0.0144617063
0.0144617059
0.0144617072
0.0144617085
0.0144617074
0.0144617049
0.0144617053
0.0144617089
0.0144617092
0.0144617057
0.0144617044
0.014461707
0.0144617092
0.0144617076
0.0144617052
0.0144617058
0.014461708
0.0144617079
0.0144617064
0.0144617063
0.014461707
0.0144617072
0.0144617069
0.0144617069
0.0144617069
0.0144617068
0.0144617068
0.014461707
0.0144617073
0.0144617068
0.0144617061
0.0144617066
0.0144617082
0.0144617081
0.0144617052
0.0144617045
0.0144617082
0.0144617108
0.0144617072
0.0144617017
0.0144617038
0.0144617128
0.0144617124
0.014461702
0.0144617001
0.0144617093
0.0144617139
0.0144617072
0.0144617005
0.0144617045
0.0144617121
0.0144617106
0.014461703
0.0144617032
0.0144617089
0.0144617102
0.0144617067
0.0144617041
0.0144617052
0.0144617092
0.0144617093
0.0144617063
0.0144617042
0.0144617055
0.0144617097
0.0144617096
0.0144617051
0.0144617036
0.0144617073
0.0144617105
0.0144617081
0.0144617034
0.0144617043
0.0144617101
0.01446171
0.0144617048
0.0144617038
0.0144617078
0.0144617096
0.014461707
0.0144617048
0.0144617064
0.0144617083
0.0144617074
0.0144617059
0.0144617066
0.0144617079
0.0144617072
0.0144617054
0.0144617058
0.014461709
0.0144617089
0.014461705
0.0144617038
0.0144617076
0.0144617109
0.0144617081
0.0144617025
0.0144617035
0.0144617109
0.0144617112
0.0144617046
0.0144617025
0.0144617073
0.0144617108
0.014461708
0.0144617039
0.0144617051
0.0144617088
0.0144617086
0.0144617061
0.014461706
0.014461707
0.014461707
0.0144617068
0.0144617073
0.0144617075
0.0144617063
0.0144617058
0.0144617073
0.0144617083
0.0144617069
0.0144617056
0.0144617064
0.0144617079
0.0144617076
0.0144617062
0.0144617063
0.0144617073
0.0144617073
0.0144617067
0.0144617066
0.014461707
0.0144617071
0.0144617067
0.0144617067
0.0144617072
0.0144617075
0.0144617067
0.0144617058
0.0144617066
0.0144617088
0.0144617085
0.0144617043
0.0144617037
0.014461709
0.0144617119
0.0144617068
0.0144617004
0.0144617039
0.0144617139
0.014461713
0.0144617007
0.0144616996
0.0144617103
0.0144617141
0.0144617064
0.0144617008
0.0144617054
0.0144617115
0.0144617093
0.0144617038
0.0144617045
0.0144617088
0.0144617087
0.014461706
0.0144617057
0.0144617072
0.0144617076
0.0144617068
0.0144617065
0.0144617069
0.0144617071
0.0144617069
0.0144617068
0.0144617069
0.0144617069
0.0144617069
0.0144617069
0.0144617069
0.0144617069
0.0144617069
0.0144617069
0.0144617069
0.0144617068
0.0144617069
0.014461707
0.014461707
0.0144617068
0.0144617065
0.0144617069
0.0144617076
0.0144617073
0.0144617058
0.0144617058
0.0144617079
0.0144617087
0.0144617065
0.0144617045
0.0144617062
0.0144617096
0.014461709
0.0144617044
0.0144617043
0.0144617083
0.0144617094
0.0144617066
0.0144617048
0.0144617065
0.0144617083
0.0144617076
0.0144617061
0.0144617063
0.0144617073
0.0144617072
0.0144617068
0.0144617068
0.0144617069
0.0144617069
0.0144617069
0.0144617069
0.0144617069
0.0144617069
0.0144617069
0.0144617069
0.0144617069
0.0144617069
0.0144617069
0.014461707
0.0144617069
0.0144617067
0.0144617068
0.0144617072
0.0144617071
0.0144617066
0.0144617065
0.0144617071
0.0144617076
0.014461707
0.0144617061
0.0144617064
0.0144617077
0.0144617077
0.0144617062
0.014461706
0.0144617073
0.0144617078
0.0144617067
0.014461706
0.0144617068
0.0144617077
0.0144617072
0.0144617062
0.0144617065
0.0144617073
0.0144617071
0.0144617067
0.0144617069
0.0144617072
0.0144617067
0.0144617062
0.0144617071
0.014461708
0.0144617072
0.0144617055
0.0144617059
0.0144617083
0.0144617083
0.014461706
0.0144617055
0.014461707
0.0144617082
0.0144617077
0.0144617059
0.0144617058
0.0144617068
0.014461708
0.0144617079
0.0144617062
0.0144617052
0.0144617065
0.0144617092
0.0144617088
0.0144617045
0.014461704
0.0144617085
0.0144617105
0.0144617066
0.0144617031
0.0144617058
0.0144617105
0.0144617092
0.0144617039
0.0144617041
0.0144617089
0.0144617094
0.014461706
0.0144617049
0.0144617071
0.0144617083
0.0144617071
0.014461706
0.0144617066
0.0144617074
0.0144617072
0.0144617066
0.0144617067
0.014461707
0.014461707
0.0144617068
0.0144617068
0.0144617069
0.0144617069
0.0144617069
0.0144617069
0.0144617069
0.0144617069
0.0144617069
0.0144617069
0.0144617069
0.0144617069
0.0144617069
0.0144617069
0.0144617069
0.0144617069
0.0144617069
0.0144617069
0.0144617069
0.0144617069
0.0144617069
0.0144617069
0.0144617069
0.0144617069
0.0144617069
0.0144617069
0.0144617068
0.0144617068
0.0144617071
0.0144617071
0.0144617067
0.0144617065
0.014461707
0.0144617075
0.014461707
0.0144617061
0.0144617064
0.0144617078
0.0144617078
0.0144617059
0.0144617058
0.0144617077
0.0144617084
0.0144617063
0.014461705
0.0144617072
0.0144617093
0.0144617074
0.0144617039
0.0144617052
0.0144617104
0.01446171
0.0144617034
0.0144617027
0.0144617094
0.014461712
0.0144617061
0.0144617014
0.0144617054
0.0144617121
0.0144617102
0.0144617029
0.0144617032
0.0144617091
0.0144617095
0.0144617061
0.0144617055
0.0144617081
0.0144617085
0.0144617041
0.0144617009
0.0144617074
0.0144617261
0.0144617245
0.0144616638
0.0144616283
0.0144617542
0.0144619661
0.0144618444
0.0144609976
0.0144609982
0.0144630045
0.0144640481
0.0144605144
0.0144557874
0.0144594651
0.0144742842
0.0144734562
0.0144433747
0.0144347907
0.0144766897
0.0145151816
0.0144739411
0.0143810598
0.0144015327
0.0145558286
0.0145747846
0.0143968038
0.0143014904
0.014467326
0.014620127
0.0145325503
0.0143100405
0.0143302931
0.0145732824
0.0145774033
0.0144168623
0.0143725196
0.0144692228
0.0145243122
)
;

boundaryField
{
    closed
    {
        type            zeroGradient;
    }
    open
    {
        type            zeroGradient;
    }
    sides
    {
        type            empty;
    }
    procBoundary1to0
    {
        type            processor;
        value           uniform 0.0144460829;
    }
    procBoundary1to2
    {
        type            processor;
        value           uniform 0.0144728498;
    }
}


// ************************************************************************* //
