/*--------------------------------*- C++ -*----------------------------------*\
| =========                 |                                                 |
| \\      /  F ield         | OpenFOAM: The Open Source CFD Toolbox           |
|  \\    /   O peration     | Version:  2306                                  |
|   \\  /    A nd           | Website:  www.openfoam.com                      |
|    \\/     M anipulation  |                                                 |
\*---------------------------------------------------------------------------*/
FoamFile
{
    version     2.0;
    format      ascii;
    arch        "LSB;label=32;scalar=64";
    class       volScalarField;
    location    "0.00028";
    object      prefDh_H2O;
}
// * * * * * * * * * * * * * * * * * * * * * * * * * * * * * * * * * * * * * //

dimensions      [1 1 -3 0 0 0 0];

internalField   nonuniform List<scalar> 
530
(
89.9025473
89.8143392
89.8195061
89.8195687
89.8195748
89.8195748
89.8195748
89.8195748
89.8195748
89.8195748
89.8195748
89.8195748
89.8195748
89.8195748
89.8195748
89.8195748
89.8195748
89.8195748
89.8195748
89.8195748
89.8195748
89.8195748
89.8195748
89.8195748
89.8195748
89.8195748
89.8195748
89.8195748
89.8195748
89.8195748
89.8195748
89.8195748
89.8195748
89.8195748
89.8195748
89.8195748
89.8195748
89.8195748
89.8195748
89.8195748
89.8195748
89.8195748
89.8195748
89.8195748
89.8195748
89.8195748
89.8195748
89.8195748
89.8195748
89.8195748
89.8195748
89.8195748
89.8195748
89.8195748
89.8195748
89.8195748
89.8195748
89.8195748
89.8195748
89.8195748
89.8195748
89.8195748
89.8195748
89.8195748
89.8195748
89.8195748
89.8195748
89.8195748
89.8195748
89.8195748
89.8195748
89.8195748
89.8195748
89.8195748
89.8195748
89.8195748
89.8195748
89.8195748
89.8195748
89.8195748
89.8195748
89.8195748
89.8195748
89.8195748
89.8195748
89.8195748
89.8195748
89.8195749
89.8195752
89.8195737
89.8195698
89.8195841
89.8196194
89.8195117
89.8192581
89.8198947
89.821338
89.8184371
89.8119566
89.8219435
89.8442808
89.8190508
89.7605872
89.8039928
89.9173338
89.8703334
89.7130672
89.7368679
89.9253157
89.9213258
89.7372005
89.7069941
89.8689451
89.9585368
89.8177865
89.6499547
89.7458963
90.0415906
90.0034891
89.5738793
89.5471586
90.0491462
90.2221867
89.6897621
89.3653535
89.7768216
90.4123001
90.1035145
89.2922599
89.3506559
90.3388611
90.4857881
89.5550059
89.1898196
89.7929133
90.6046001
90.1561234
89.1839002
89.2748353
90.4768221
90.5846682
89.4431976
89.131959
89.9474043
90.6633036
89.9386663
89.1646756
89.5017581
90.4925039
90.3398487
89.3474378
89.3620492
90.1341165
90.2458972
89.6818063
89.5339707
89.8530634
89.9918163
89.8206322
89.7417457
89.8368166
89.8419075
89.7575985
89.8069919
89.9358148
89.8455524
89.6715204
89.7742107
89.9954105
89.878877
89.633779
89.7492688
90.0412991
89.9176464
89.5728733
89.6667005
90.1175881
90.0747465
89.5354291
89.5276157
90.0423776
90.1694381
89.7267229
89.5067445
89.765869
90.1117693
90.007151
89.6057672
89.6122353
89.9262426
90.020921
89.8045857
89.6537639
89.7858969
89.9634591
89.8679099
89.6972154
89.7776016
89.9423308
89.8495602
89.6815136
89.7981963
90.0024045
89.8423566
89.58822
89.77039
90.1359158
89.9316367
89.456371
89.6056692
90.2864342
90.2123893
89.3640514
89.3611896
90.2611524
90.4437525
89.5341013
89.2172192
89.9377086
90.577198
89.8960536
89.1834917
89.5490074
90.5363889
90.3171238
89.2631916
89.3000919
90.3144515
90.425964
89.5260609
89.3132997
89.9641239
90.3449359
89.8099977
89.4025958
89.7187995
90.2099057
90.0203689
89.52396
89.569215
90.0503778
90.0851618
89.7178015
89.5854949
89.8024624
90.0388549
89.9344833
89.6469464
89.6638566
89.9383332
89.9740392
89.7722416
89.7052731
89.8214448
89.8827031
89.8283049
89.806749
89.8335341
89.80407
89.75387
89.837735
89.9362072
89.826847
89.6817748
89.7778558
89.9561347
89.8814421
89.7205047
89.7682171
89.8828736
89.8399061
89.7670071
89.8364141
89.8989819
89.7737728
89.6927601
89.8683849
90.0037554
89.8017389
89.6071741
89.7780962
90.0618595
89.9373617
89.603253
89.6384238
90.0036535
90.0224169
89.7483011
89.6480868
89.7490281
89.9512128
89.9543549
89.827367
89.6721682
89.6842173
89.9386845
90.0364976
89.7837482
89.5778877
89.7590741
90.0834281
89.9661876
89.5994272
89.6299285
90.0045779
90.0059016
89.709968
89.6745001
89.8816651
89.930676
89.7765151
89.7335192
89.866308
89.9045701
89.7616812
89.7190481
89.8863053
89.9514319
89.7563539
89.6592349
89.8693329
90.0220578
89.7963653
89.5916714
89.8023292
90.0975129
89.8934568
89.5302873
89.6737551
90.1544525
90.0732321
89.4975137
89.5087202
90.1287399
90.2200302
89.6168597
89.4012368
89.8802226
90.3397588
89.9584392
89.3472092
89.4455067
90.3202825
90.3885419
89.5819522
89.2516639
89.6910814
90.5083737
90.3491286
89.3410092
89.2102898
89.9097855
90.6311745
90.2066991
89.1793305
89.2079991
90.267911
90.7072885
89.7426369
89.0714536
89.5092016
90.7069133
90.5329315
89.1732196
89.1392034
90.2661203
90.673018
89.651065
89.1400258
89.748793
90.5504025
90.0859342
89.2845978
89.4681673
90.298748
90.2537388
89.4902389
89.4628507
90.0287352
90.1582087
89.7150753
89.535399
89.8386402
90.1005156
89.8887458
89.5725483
89.6503377
90.0613577
90.0538982
89.669424
89.5723231
89.8622205
90.0964584
89.8818478
89.5612292
89.6660585
90.0870644
90.0558957
89.5852659
89.5658614
90.0148886
90.1156753
89.6855736
89.5289753
89.8953295
90.136341
89.8067504
89.5363114
89.7742361
90.0985947
89.9165612
89.5860795
89.686195
90.0319801
89.9921554
89.6493088
89.6511654
89.9340409
89.9873129
89.775889
89.6748707
89.7904117
89.9334512
89.9054291
89.76569
89.7466001
89.7786574
89.8455764
89.8983506
89.8860368
89.7615014
89.6920383
89.7633579
89.9886335
89.9850022
89.723521
89.5888111
89.7532801
90.1092686
90.0620694
89.5809207
89.5033355
89.9280103
90.2140915
89.8667653
89.4730371
89.6452887
90.1444053
90.0765288
89.5824215
89.5926971
89.9946167
90.0116815
89.6699836
89.6536753
90.0117726
90.0199396
89.5683041
89.5319186
90.1428345
90.2784613
89.5416662
89.2456327
89.97252
90.6740898
89.9064957
89.0444009
89.4056168
90.8179048
90.6643538
89.1230356
89.0429283
90.2630175
90.8139963
89.7120831
89.0823293
89.6394477
90.577492
90.2253083
89.2829662
89.3596186
90.294762
90.3310384
89.5288303
89.3631401
89.9801731
90.3420154
89.8033917
89.3463249
89.6634379
90.3472114
90.1881302
89.3866529
89.4012647
90.1461949
90.3198471
89.6675532
89.3746938
89.8283681
90.3062098
89.9215159
89.3733958
89.6181635
90.3521297
90.1600872
89.3015169
89.3634847
90.467002
90.4651535
89.2801352
89.1575619
90.3783919
90.7473629
89.3960092
88.9122927
90.1252834
91.224023
89.7662066
88.6016259
89.3758266
91.8849694
91.1388029
88.4908499
88.521152
91.2482036
92.1925432
89.2230198
88.412276
89.6858574
91.6979901
)
;

boundaryField
{
    closed
    {
        type            calculated;
        value           uniform 120.143995;
    }
    open
    {
        type            calculated;
        value           nonuniform List<scalar> 0();
    }
    sides
    {
        type            empty;
    }
    procBoundary0to1
    {
        type            processor;
        value           uniform 90.5893104;
    }
}


// ************************************************************************* //
