/*--------------------------------*- C++ -*----------------------------------*\
| =========                 |                                                 |
| \\      /  F ield         | OpenFOAM: The Open Source CFD Toolbox           |
|  \\    /   O peration     | Version:  2306                                  |
|   \\  /    A nd           | Website:  www.openfoam.com                      |
|    \\/     M anipulation  |                                                 |
\*---------------------------------------------------------------------------*/
FoamFile
{
    version     2.0;
    format      ascii;
    arch        "LSB;label=32;scalar=64";
    class       volScalarField;
    location    "0.00028";
    object      prefDPV_T;
}
// * * * * * * * * * * * * * * * * * * * * * * * * * * * * * * * * * * * * * //

dimensions      [1 -1 -1 -1 0 0 0];

internalField   nonuniform List<scalar> 
530
(
5.98283912e-10
5.97593852e-10
5.97549703e-10
5.97549781e-10
5.97549775e-10
5.97549775e-10
5.97549775e-10
5.97549775e-10
5.97549775e-10
5.97549775e-10
5.97549775e-10
5.97549775e-10
5.97549775e-10
5.97549775e-10
5.97549775e-10
5.97549775e-10
5.97549775e-10
5.97549775e-10
5.97549775e-10
5.97549775e-10
5.97549775e-10
5.97549775e-10
5.97549775e-10
5.97549775e-10
5.97549775e-10
5.97549775e-10
5.97549775e-10
5.97549775e-10
5.97549775e-10
5.97549775e-10
5.97549775e-10
5.97549775e-10
5.97549775e-10
5.97549775e-10
5.97549775e-10
5.97549775e-10
5.97549775e-10
5.97549775e-10
5.97549775e-10
5.97549775e-10
5.97549775e-10
5.97549775e-10
5.97549775e-10
5.97549775e-10
5.97549775e-10
5.97549775e-10
5.97549775e-10
5.97549775e-10
5.97549775e-10
5.97549775e-10
5.97549775e-10
5.97549775e-10
5.97549775e-10
5.97549775e-10
5.97549775e-10
5.97549775e-10
5.97549775e-10
5.97549775e-10
5.97549775e-10
5.97549775e-10
5.97549775e-10
5.97549775e-10
5.97549775e-10
5.97549775e-10
5.97549775e-10
5.97549775e-10
5.97549775e-10
5.97549775e-10
5.97549775e-10
5.97549775e-10
5.97549775e-10
5.97549775e-10
5.97549775e-10
5.97549775e-10
5.97549775e-10
5.97549775e-10
5.97549775e-10
5.97549775e-10
5.97549775e-10
5.97549775e-10
5.97549775e-10
5.97549775e-10
5.97549775e-10
5.97549775e-10
5.97549775e-10
5.97549775e-10
5.97549774e-10
5.97549775e-10
5.97549776e-10
5.9754977e-10
5.97549753e-10
5.97549815e-10
5.97549969e-10
5.97549501e-10
5.97548399e-10
5.97551165e-10
5.97557438e-10
5.97544833e-10
5.97516682e-10
5.97560072e-10
5.9765721e-10
5.97547503e-10
5.97293837e-10
5.97482096e-10
5.9797555e-10
5.97770607e-10
5.97088163e-10
5.97191105e-10
5.98010406e-10
5.97993001e-10
5.97192571e-10
5.97061976e-10
5.97764599e-10
5.98155643e-10
5.9754208e-10
5.96815925e-10
5.97230319e-10
5.98519485e-10
5.98352507e-10
5.96488805e-10
5.96374561e-10
5.98552665e-10
5.99315084e-10
5.96987728e-10
5.95600273e-10
5.97364527e-10
6.00158143e-10
5.98791671e-10
5.95290991e-10
5.95537931e-10
5.99831833e-10
6.00485673e-10
5.96408676e-10
5.94862156e-10
5.97434613e-10
6.01016641e-10
5.99023352e-10
5.94836812e-10
5.95217873e-10
6.00445691e-10
6.0092743e-10
5.95931237e-10
5.94620979e-10
5.98107286e-10
6.01279732e-10
5.98068798e-10
5.94757075e-10
5.96179782e-10
6.0051565e-10
5.99835855e-10
5.95524623e-10
5.95586127e-10
5.98926661e-10
5.9941997e-10
5.96953485e-10
5.96318263e-10
5.97695508e-10
5.983015e-10
5.97554405e-10
5.97212418e-10
5.97624772e-10
5.97646949e-10
5.97280926e-10
5.9749514e-10
5.9805629e-10
5.97662734e-10
5.96908813e-10
5.97352866e-10
5.98317002e-10
5.97807839e-10
5.96746266e-10
5.9724483e-10
5.9851824e-10
5.97976974e-10
5.96484556e-10
5.9688807e-10
5.98853481e-10
5.98665069e-10
5.96323958e-10
5.96290636e-10
5.98522934e-10
5.99081988e-10
5.97147349e-10
5.96201423e-10
5.97316777e-10
5.98827937e-10
5.98368321e-10
5.966258e-10
5.96653497e-10
5.98014582e-10
5.98428815e-10
5.97484722e-10
5.96832316e-10
5.9740355e-10
5.98177163e-10
5.97760049e-10
5.97019748e-10
5.97367586e-10
5.98084798e-10
5.97680193e-10
5.96952009e-10
5.97456965e-10
5.98347723e-10
5.97648884e-10
5.96550552e-10
5.97336409e-10
5.98934364e-10
5.98038152e-10
5.95986715e-10
5.96625522e-10
5.99599266e-10
5.99271734e-10
5.95594355e-10
5.95582749e-10
5.99487324e-10
6.00298315e-10
5.96318615e-10
5.94976671e-10
5.98064726e-10
6.00894025e-10
5.97882857e-10
5.94835578e-10
5.9638219e-10
6.00711556e-10
5.99735097e-10
5.95169146e-10
5.953244e-10
5.99723656e-10
6.00219079e-10
5.96284413e-10
5.95380498e-10
5.98180184e-10
5.99858897e-10
5.97508236e-10
5.95758244e-10
5.97112962e-10
5.99260802e-10
5.98426303e-10
5.96275149e-10
5.96468785e-10
5.98558139e-10
5.98710912e-10
5.9710881e-10
5.96538755e-10
5.97475521e-10
5.98507493e-10
5.98050413e-10
5.96802912e-10
5.96875697e-10
5.98067319e-10
5.98223399e-10
5.97344377e-10
5.97054521e-10
5.97557918e-10
5.97824546e-10
5.97587732e-10
5.97494092e-10
5.97610485e-10
5.97482438e-10
5.97264752e-10
5.97628724e-10
5.98057976e-10
5.97581375e-10
5.96952995e-10
5.97368653e-10
5.9814506e-10
5.9781899e-10
5.97120342e-10
5.97326891e-10
5.97825281e-10
5.97638191e-10
5.97321687e-10
5.97623003e-10
5.9789553e-10
5.9735098e-10
5.970005e-10
5.97762125e-10
5.98353549e-10
5.97472318e-10
5.96631756e-10
5.97369729e-10
5.98608419e-10
5.98063e-10
5.96614868e-10
5.96766115e-10
5.98353099e-10
5.98435324e-10
5.9724072e-10
5.96807831e-10
5.97243794e-10
5.98123618e-10
5.98137297e-10
5.97583802e-10
5.96911556e-10
5.96963646e-10
5.98068823e-10
5.98497105e-10
5.97394287e-10
5.96505976e-10
5.9728727e-10
5.98703196e-10
5.98188988e-10
5.96598471e-10
5.96729536e-10
5.98357173e-10
5.98362945e-10
5.9707485e-10
5.96921704e-10
5.97820014e-10
5.98033872e-10
5.97362877e-10
5.97176674e-10
5.97753087e-10
5.97919895e-10
5.97298569e-10
5.97114072e-10
5.97840211e-10
5.98124556e-10
5.97275488e-10
5.96855883e-10
5.97766263e-10
5.98433815e-10
5.97448999e-10
5.96565259e-10
5.97474902e-10
5.98765224e-10
5.9787143e-10
5.96302143e-10
5.96918507e-10
5.99015947e-10
5.98658441e-10
5.96161942e-10
5.96210016e-10
5.98902656e-10
5.99305527e-10
5.96673579e-10
5.95752404e-10
5.97813947e-10
5.99835792e-10
5.98155422e-10
5.95523177e-10
5.9594034e-10
5.9974931e-10
6.00052525e-10
5.96524362e-10
5.9512081e-10
5.96994055e-10
6.00586237e-10
5.99877302e-10
5.95497549e-10
5.94947358e-10
5.97943942e-10
6.01135564e-10
5.99246728e-10
5.94816989e-10
5.94937712e-10
5.99517805e-10
6.01477091e-10
5.97217329e-10
5.94369941e-10
5.96212294e-10
6.01475396e-10
6.00695788e-10
5.94792583e-10
5.94650811e-10
5.99509774e-10
6.01323338e-10
5.96821242e-10
5.94654624e-10
5.97242863e-10
6.00774278e-10
5.98714072e-10
5.95259675e-10
5.96036508e-10
5.99654042e-10
5.99454503e-10
5.96131373e-10
5.96014495e-10
5.98463255e-10
5.99032683e-10
5.97096984e-10
5.96324204e-10
5.97632724e-10
5.98778479e-10
5.97850889e-10
5.96483186e-10
5.96817466e-10
5.98606244e-10
5.98573502e-10
5.96899864e-10
5.96482203e-10
5.97735377e-10
5.98760568e-10
5.97820825e-10
5.96434633e-10
5.96885228e-10
5.98719233e-10
5.98582253e-10
5.96537711e-10
5.96454494e-10
5.98402366e-10
5.98845134e-10
5.9696946e-10
5.96296517e-10
5.97879565e-10
5.98936131e-10
5.97494069e-10
5.96327903e-10
5.9735297e-10
5.98769968e-10
5.97972171e-10
5.96541226e-10
5.96972095e-10
5.98477314e-10
5.98302712e-10
5.96813086e-10
5.9682109e-10
5.98048556e-10
5.98281534e-10
5.97360185e-10
5.96923264e-10
5.97423152e-10
5.98045959e-10
5.97923579e-10
5.97315989e-10
5.97233248e-10
5.97372183e-10
5.97662883e-10
5.97892725e-10
5.9783908e-10
5.97297828e-10
5.96997344e-10
5.97305928e-10
5.9828725e-10
5.98271443e-10
5.97133497e-10
5.96552903e-10
5.97262359e-10
5.98816805e-10
5.98609396e-10
5.96518993e-10
5.96186826e-10
5.98022305e-10
5.99279108e-10
5.97755132e-10
5.96057522e-10
5.96795613e-10
5.98971668e-10
5.98672793e-10
5.96525626e-10
5.96569649e-10
5.98313652e-10
5.9838842e-10
5.96902364e-10
5.96832154e-10
5.98388824e-10
5.98424781e-10
5.96465074e-10
5.96309687e-10
5.98964741e-10
5.99564347e-10
5.96350859e-10
5.95096215e-10
5.98217042e-10
6.01328121e-10
5.97928844e-10
5.94257855e-10
5.95770868e-10
6.01974538e-10
6.01284169e-10
5.94583372e-10
5.94251883e-10
5.99496151e-10
6.01957105e-10
5.9708469e-10
5.94415479e-10
5.96770706e-10
6.00895518e-10
5.99328505e-10
5.95253042e-10
5.95575686e-10
5.99636468e-10
5.99797277e-10
5.96296349e-10
5.95591305e-10
5.98250462e-10
5.99845958e-10
5.97479685e-10
5.95519826e-10
5.96874105e-10
5.9986886e-10
5.99164374e-10
5.95690153e-10
5.9575228e-10
5.98979722e-10
5.99747476e-10
5.96892008e-10
5.95639995e-10
5.97588158e-10
5.99687146e-10
5.97993933e-10
5.95634704e-10
5.96679257e-10
5.99890897e-10
5.99040962e-10
5.953308e-10
5.95592619e-10
6.00401888e-10
6.00393867e-10
5.95240869e-10
5.94728694e-10
6.00007563e-10
6.01657651e-10
5.95730619e-10
5.9372048e-10
5.98887985e-10
6.03813938e-10
5.97320151e-10
5.92481866e-10
5.95648109e-10
6.06844176e-10
6.03426527e-10
5.9203992e-10
5.92166859e-10
6.03924065e-10
6.0826757e-10
5.95006646e-10
5.91756127e-10
5.96973143e-10
6.05981974e-10
)
;

boundaryField
{
    closed
    {
        type            calculated;
        value           uniform 7.29446068e-10;
    }
    open
    {
        type            calculated;
        value           nonuniform List<scalar> 0();
    }
    sides
    {
        type            empty;
    }
    procBoundary0to1
    {
        type            processor;
        value           uniform 6.00947504e-10;
    }
}


// ************************************************************************* //
