/*--------------------------------*- C++ -*----------------------------------*\
| =========                 |                                                 |
| \\      /  F ield         | OpenFOAM: The Open Source CFD Toolbox           |
|  \\    /   O peration     | Version:  2306                                  |
|   \\  /    A nd           | Website:  www.openfoam.com                      |
|    \\/     M anipulation  |                                                 |
\*---------------------------------------------------------------------------*/
FoamFile
{
    version     2.0;
    format      ascii;
    arch        "LSB;label=32;scalar=64";
    class       volScalarField;
    location    "0.00062";
    object      h;
}
// * * * * * * * * * * * * * * * * * * * * * * * * * * * * * * * * * * * * * //

dimensions      [0 2 -2 0 0 0 0];

internalField   nonuniform List<scalar> 
531
(
8433.106
-2425.1245
-3826.18189
5663.74766
10216.0494
7798.633
-356.240741
-4401.70358
-5403.86448
373.553828
8860.35585
3956.74273
-3097.14392
-605.216317
9014.6632
9855.89115
2343.50458
-4590.77074
-3675.61401
8091.73606
10199.9656
5444.83571
-4129.97344
-4935.19137
5155.46469
10112.4029
8744.8219
230.578078
-5357.49279
-5537.72963
6944.20797
9869.6766
3349.12546
-5104.82422
-5336.07512
7027.30563
10325.4459
10038.8272
966.056405
-5307.77224
-5489.21926
8221.9474
9996.73968
3438.4274
-5635.35734
-6155.38587
5677.32465
9396.49299
-1533.76024
-4682.32914
5062.1842
9883.65133
6971.34732
-4044.81473
-5016.71326
6397.20382
9648.49253
-957.750613
-4325.00607
2727.21655
9891.60516
9679.61534
-97.8275226
-5561.26676
-4037.38167
8754.25517
10137.2165
2292.45127
-5215.84952
-4925.5889
8108.58991
10409.9593
7274.64402
-1333.73554
-5312.59255
-3952.57331
8828.02948
9909.42411
-62.1466149
-5357.14357
-2575.32264
9081.98606
9514.34674
-847.700371
-2245.35813
2214.81763
-178.987979
-2608.22359
4792.05467
9866.45305
3331.46172
-3899.66167
-1029.65592
9193.62086
8792.60621
-3866.51962
-4368.36422
7927.19915
9088.40316
-2796.29157
-3915.87614
7827.80491
8799.34929
-3168.17898
-2642.80811
8404.96908
3883.91489
-3820.52376
2568.53901
9482.32862
4601.07101
-3562.87163
-2073.29333
8927.04462
10349.1266
3696.4406
-2569.09633
-2090.01425
350.139122
-2207.62307
-2311.02365
6951.57518
10096.6782
3885.11091
-3264.16816
-2799.24396
8715.53582
10143.7035
3667.80038
-5332.63713
-5610.12
6340.92312
9981.92893
5489.40696
-1827.36334
-1774.24906
1465.15758
-94.1506077
-2209.80756
2815.03724
9645.05659
6825.82541
-3149.47379
-3466.45347
7759.66914
10248.0169
5329.28035
-2196.06123
-2477.85343
2052.9051
2301.11902
-1869.93908
-1499.12696
8702.57704
10314.532
5229.13833
-2496.52216
-2718.07601
2499.94866
2729.16105
-1970.34323
-1444.21943
8683.0315
10263.8809
4949.53427
-2694.92705
-2783.78436
2875.17095
3017.22276
-1946.80295
-1586.1434
8632.99526
10154.9672
4324.70514
-3885.31327
-3653.0025
5589.0626
5661.06755
-2526.18662
-2594.61655
8160.0288
10026.9189
4035.23085
-4485.47548
-4941.10689
5878.9348
9646.54689
4629.67284
-4102.6241
-4099.05275
6723.60876
6917.33167
-2658.27049
-3214.65232
7731.66288
9899.79631
4132.41476
-4569.10033
-4430.43445
7258.15974
7698.06395
-2726.39491
-3302.5289
7479.81633
9811.35437
4088.08257
-4555.33125
-4555.69749
7073.09473
7634.32736
-2556.16928
-3384.2409
7273.4299
9766.39458
3987.16124
-1129.31864
-798.334731
-573.500433
-1980.70679
-1513.65386
8353.25581
9891.05161
4125.54223
-3754.4665
-3940.1795
6694.38306
9709.27126
5175.99889
-3725.04542
-4500.4506
5397.53847
8463.88408
61.4660202
-3310.8423
2847.07955
9571.05404
9957.85231
2412.00152
-2206.00928
-3044.33698
-4707.45012
-4438.40734
5353.15661
9320.16336
9857.69931
9692.10365
2835.41446
-3346.95825
-5386.17946
-5401.99108
5575.97661
9075.16088
3380.19425
-4269.16499
-3369.46456
7681.96636
8052.93025
-2144.4181
-2666.40954
7327.85056
7781.04149
-2165.3064
-2430.27459
7360.95792
7555.84748
-2304.93923
-3012.11898
6780.30335
8748.24535
31.5395754
-3334.88165
3226.44041
9231.49344
6369.18161
-3140.17524
-4469.43927
4142.61028
8424.7658
1444.28364
-3828.8072
213.145891
8762.72001
8740.47863
-2429.76281
-4289.32993
4037.94456
8216.53655
934.329433
-3617.11004
1257.75275
8741.84946
10225.8345
7341.99699
-300.268825
-2509.65311
-2897.82295
-4256.32523
-3496.71436
7104.7078
9791.81764
5651.62781
-2987.22973
-3646.14026
5793.60058
9310.6983
3982.33351
-4027.76742
-4075.18947
7197.08511
8268.17378
-1194.297
-2867.49078
5799.62843
9338.92825
3399.2563
-4437.72549
-4335.60995
7065.67331
7915.56319
-1338.28055
-2994.3043
6373.20123
9378.39261
3093.55425
-4538.63388
-4029.30175
7253.81188
7739.92349
-1643.76265
-2818.32653
6773.84337
9444.94254
2777.33623
-4580.25418
-3747.49101
7394.63134
7601.26226
-1896.43036
-2649.14199
7157.88469
9486.90353
2513.18943
-4628.81347
-3453.5295
7521.5488
7635.63186
-2349.50218
-2429.57912
7630.37141
9379.88785
1983.72475
-4614.51148
-3420.15203
7520.5218
9249.40975
1635.67722
-5213.31013
-3370.71347
7567.10407
7038.89218
-3036.3621
-2215.91793
8000.71449
6911.82206
-2943.77803
-1660.94105
8161.6247
6494.40054
-2948.83972
-1127.99366
8314.72195
6105.49336
-2904.6619
-1425.36148
8374.63988
9206.2242
575.958872
-5443.18856
-2594.19678
7838.79795
5795.85232
-3611.22818
-956.863273
8348.07592
5247.66974
-3534.21464
27.328989
8607.88762
4296.8315
-3498.87432
1192.43865
8960.55394
4738.34652
-3237.73759
-1792.83118
8537.26147
9685.02267
2056.73293
-4530.05472
-3792.70559
7966.08015
10105.4725
4367.77569
-3419.18677
-5148.30903
-1653.42661
8705.95733
9487.75196
376.490808
-4798.69917
-1594.37581
8798.56619
9449.97709
140.607898
-4997.56971
-2033.86377
8746.58088
9489.07964
26.0471765
-5047.34399
-1815.91445
8853.89848
9587.6735
106.126546
-4964.80633
-1156.64257
9017.5611
9370.49756
-1163.58834
-5621.23803
338.094987
9028.14191
3685.21544
-3425.50855
1029.09433
9531.66117
9094.43781
-2284.68858
-5616.08496
766.402512
9137.10921
3481.70022
-3553.30403
935.298964
9563.30185
9079.13628
-2247.67185
-5667.29304
919.878257
9228.83836
3304.29688
-3490.79201
875.823857
9659.24553
9095.58053
-1966.58855
-5265.1607
-713.645942
9308.0896
9219.95096
-2115.33205
-5922.44365
1057.08517
9240.94832
3272.85298
-3708.20735
679.797154
9662.11188
9163.57723
-2125.46864
-5472.56844
-1117.54991
8973.86842
10532.5049
6770.84326
-2323.61122
-5144.73128
-896.657025
9297.54439
9016.26385
-2985.78853
-6096.09653
537.811709
9202.59479
3458.9892
-3767.45776
556.693807
9616.3116
8788.26816
-2848.53182
-5970.82816
1057.13966
9234.95913
2963.03462
-4222.78707
2488.30875
9521.39221
2405.55724
-4091.76034
3149.9045
9676.65289
3078.0716
-3374.68072
594.803434
9897.53527
9892.61219
-15.9242399
-5222.07672
-5345.10291
3790.8295
9532.04634
1428.48432
-4044.32177
1679.80483
9886.68014
8877.97413
-2668.7198
-5463.84757
225.860858
9585.42874
8995.52381
-3268.6833
-5842.37009
3066.42075
9561.73018
2458.50285
-3725.67818
851.795511
9906.78809
9972.8367
-117.589865
)
;

boundaryField
{
    closed
    {
        type            lookUpEnthalpy;
        h0              nonuniform List<scalar> 0();
        value           nonuniform List<scalar> 0();
    }
    open
    {
        type            zeroGradient;
    }
    sides
    {
        type            empty;
    }
    procBoundary3to2
    {
        type            processor;
        value           uniform 7980.55015;
    }
    procBoundary3to4
    {
        type            processor;
        value           uniform -4873.69555;
    }
}


// ************************************************************************* //
