/*--------------------------------*- C++ -*----------------------------------*\
| =========                 |                                                 |
| \\      /  F ield         | OpenFOAM: The Open Source CFD Toolbox           |
|  \\    /   O peration     | Version:  2306                                  |
|   \\  /    A nd           | Website:  www.openfoam.com                      |
|    \\/     M anipulation  |                                                 |
\*---------------------------------------------------------------------------*/
FoamFile
{
    version     2.0;
    format      ascii;
    arch        "LSB;label=32;scalar=64";
    class       volScalarField;
    location    "0.00062";
    object      prefDPV_H2O;
}
// * * * * * * * * * * * * * * * * * * * * * * * * * * * * * * * * * * * * * //

dimensions      [1 -1 -1 0 0 0 0];

internalField   nonuniform List<scalar> 
531
(
-3.86317979e-07
-3.6651536e-07
-3.65605538e-07
-3.80308731e-07
-3.84076062e-07
-3.84148796e-07
-3.68878318e-07
-3.65111444e-07
-3.64272356e-07
-3.70049598e-07
-3.85780142e-07
-3.76220725e-07
-3.6604274e-07
-3.68569947e-07
-3.85731036e-07
-3.84170709e-07
-3.7306294e-07
-3.64987455e-07
-3.65615408e-07
-3.86700331e-07
-3.8402146e-07
-3.78541261e-07
-3.65285832e-07
-3.64670242e-07
-3.79700395e-07
-3.84181785e-07
-3.86278355e-07
-3.69672481e-07
-3.64557049e-07
-3.64270601e-07
-3.84374475e-07
-3.84528006e-07
-3.74518433e-07
-3.64677651e-07
-3.64437618e-07
-3.84679621e-07
-3.83885866e-07
-3.84226154e-07
-3.70738034e-07
-3.64601766e-07
-3.64373204e-07
-3.8684617e-07
-3.84436467e-07
-3.74390919e-07
-3.64256992e-07
-3.63760372e-07
-3.81188977e-07
-3.8493442e-07
-3.6743008e-07
-3.64961037e-07
-3.79510355e-07
-3.84712689e-07
-3.82032151e-07
-3.6549518e-07
-3.64688247e-07
-3.83202904e-07
-3.84585436e-07
-3.68111233e-07
-3.65145229e-07
-3.73823777e-07
-3.84536447e-07
-3.84543627e-07
-3.69232353e-07
-3.64365656e-07
-3.65403392e-07
-3.86035047e-07
-3.84127593e-07
-3.72672571e-07
-3.64576659e-07
-3.64711985e-07
-3.86920162e-07
-3.83744608e-07
-3.82817653e-07
-3.67635814e-07
-3.64563264e-07
-3.65435458e-07
-3.85855665e-07
-3.8420181e-07
-3.69278546e-07
-3.64380439e-07
-3.6636418e-07
-3.85510872e-07
-3.84449471e-07
-3.6824801e-07
-3.66670746e-07
-3.72806596e-07
-3.69088246e-07
-3.66286218e-07
-3.79007592e-07
-3.84299435e-07
-3.74797218e-07
-3.65432028e-07
-3.68019839e-07
-3.85420761e-07
-3.85700784e-07
-3.65530847e-07
-3.65303148e-07
-3.86301999e-07
-3.8527218e-07
-3.66296833e-07
-3.65635375e-07
-3.85854025e-07
-3.85675213e-07
-3.66049295e-07
-3.66491991e-07
-3.8632806e-07
-3.76089776e-07
-3.65592537e-07
-3.73890153e-07
-3.84952058e-07
-3.77599771e-07
-3.65710647e-07
-3.66758331e-07
-3.85715682e-07
-3.83559344e-07
-3.75353515e-07
-3.66215353e-07
-3.66777788e-07
-3.69846823e-07
-3.66777049e-07
-3.6649633e-07
-3.85513642e-07
-3.8394562e-07
-3.75522433e-07
-3.65910773e-07
-3.66332187e-07
-3.85971682e-07
-3.84110325e-07
-3.75104441e-07
-3.64448746e-07
-3.64125841e-07
-3.83594702e-07
-3.84125136e-07
-3.7904399e-07
-3.67035492e-07
-3.6714845e-07
-3.71537107e-07
-3.69220337e-07
-3.66617852e-07
-3.74235079e-07
-3.84645749e-07
-3.83162296e-07
-3.65997029e-07
-3.65785128e-07
-3.86624915e-07
-3.83758248e-07
-3.78750465e-07
-3.66585104e-07
-3.66406936e-07
-3.72559839e-07
-3.73002086e-07
-3.67028417e-07
-3.67433264e-07
-3.85943761e-07
-3.83586397e-07
-3.78779854e-07
-3.66221138e-07
-3.66200294e-07
-3.73417557e-07
-3.7384116e-07
-3.66911207e-07
-3.67499173e-07
-3.85977165e-07
-3.83662688e-07
-3.78126041e-07
-3.66115166e-07
-3.66151893e-07
-3.74100189e-07
-3.74377697e-07
-3.66948465e-07
-3.67342201e-07
-3.86054202e-07
-3.83927107e-07
-3.76648012e-07
-3.65431776e-07
-3.65640557e-07
-3.80267434e-07
-3.80353762e-07
-3.66532182e-07
-3.66473671e-07
-3.86830101e-07
-3.84230855e-07
-3.75778083e-07
-3.65114293e-07
-3.64732551e-07
-3.81890465e-07
-3.84729783e-07
-3.770778e-07
-3.65408726e-07
-3.65443718e-07
-3.8340633e-07
-3.83833849e-07
-3.66499389e-07
-3.66115505e-07
-3.8622556e-07
-3.8445314e-07
-3.75934376e-07
-3.65108686e-07
-3.65221173e-07
-3.85199152e-07
-3.86406875e-07
-3.66468898e-07
-3.66085002e-07
-3.85459186e-07
-3.84583172e-07
-3.75829548e-07
-3.65119828e-07
-3.65135709e-07
-3.84766357e-07
-3.86370525e-07
-3.6652042e-07
-3.6593416e-07
-3.85168194e-07
-3.84334975e-07
-3.75989433e-07
-3.6789344e-07
-3.68306236e-07
-3.68595828e-07
-3.66933988e-07
-3.67429085e-07
-3.86374654e-07
-3.842246e-07
-3.76295604e-07
-3.65637931e-07
-3.65465394e-07
-3.8355091e-07
-3.84598758e-07
-3.78204647e-07
-3.65624522e-07
-3.65128907e-07
-3.8013871e-07
-3.86130707e-07
-3.69470234e-07
-3.65972313e-07
-3.74135574e-07
-3.84820399e-07
-3.84202914e-07
-3.73048508e-07
-3.66835647e-07
-3.66059951e-07
-3.64970726e-07
-3.65174671e-07
-3.79699121e-07
-3.85212221e-07
-3.84487777e-07
-3.84665667e-07
-3.73612732e-07
-3.65870215e-07
-3.64386902e-07
-3.64428143e-07
-3.80563261e-07
-3.85484219e-07
-3.74867825e-07
-3.65407824e-07
-3.65977911e-07
-3.86077692e-07
-3.86879022e-07
-3.66861063e-07
-3.66571545e-07
-3.85164649e-07
-3.86529483e-07
-3.66845275e-07
-3.66718662e-07
-3.8524401e-07
-3.85623655e-07
-3.6674465e-07
-3.66317836e-07
-3.83375085e-07
-3.85845794e-07
-3.6940232e-07
-3.66017826e-07
-3.74913264e-07
-3.85305491e-07
-3.81422939e-07
-3.66024936e-07
-3.65190909e-07
-3.7694899e-07
-3.8634859e-07
-3.71613773e-07
-3.65712157e-07
-3.69663586e-07
-3.85985971e-07
-3.85896072e-07
-3.66448948e-07
-3.65339887e-07
-3.76912208e-07
-3.86549971e-07
-3.70862291e-07
-3.65805315e-07
-3.71428783e-07
-3.86134517e-07
-3.83847265e-07
-3.83525368e-07
-3.6894873e-07
-3.66633111e-07
-3.66153254e-07
-3.65358368e-07
-3.65841972e-07
-3.84130887e-07
-3.84547152e-07
-3.79242956e-07
-3.66201168e-07
-3.65756152e-07
-3.80998034e-07
-3.85164293e-07
-3.75953742e-07
-3.65516684e-07
-3.65491726e-07
-3.84665031e-07
-3.86550698e-07
-3.67825811e-07
-3.6637565e-07
-3.80909584e-07
-3.85171568e-07
-3.74783886e-07
-3.65221872e-07
-3.65290484e-07
-3.84258508e-07
-3.8676918e-07
-3.67658177e-07
-3.66296231e-07
-3.82360609e-07
-3.85112751e-07
-3.74215822e-07
-3.65151682e-07
-3.65484959e-07
-3.8471461e-07
-3.86159593e-07
-3.67315524e-07
-3.66398259e-07
-3.83345993e-07
-3.85007518e-07
-3.73663782e-07
-3.65117484e-07
-3.65658698e-07
-3.85049848e-07
-3.85670375e-07
-3.67045549e-07
-3.66498684e-07
-3.84249484e-07
-3.84943582e-07
-3.73207116e-07
-3.65083059e-07
-3.65839963e-07
-3.85292108e-07
-3.85614906e-07
-3.66712503e-07
-3.66639386e-07
-3.85388939e-07
-3.8510621e-07
-3.7232702e-07
-3.65124406e-07
-3.65892046e-07
-3.85134834e-07
-3.85269854e-07
-3.71810285e-07
-3.64648127e-07
-3.65833737e-07
-3.8538092e-07
-3.83896069e-07
-3.66204312e-07
-3.66651008e-07
-3.8649973e-07
-3.83416154e-07
-3.6626302e-07
-3.67258372e-07
-3.86809284e-07
-3.82205213e-07
-3.66248031e-07
-3.67891195e-07
-3.86733749e-07
-3.81114784e-07
-3.66293931e-07
-3.67543859e-07
-3.8668436e-07
-3.85343751e-07
-3.70227351e-07
-3.64466911e-07
-3.66267787e-07
-3.86061447e-07
-3.80572e-07
-3.65761707e-07
-3.68109368e-07
-3.86665679e-07
-3.79093303e-07
-3.65790452e-07
-3.69483404e-07
-3.86267819e-07
-3.76885669e-07
-3.6578785e-07
-3.71408564e-07
-3.85761348e-07
-3.77712011e-07
-3.66002591e-07
-3.67113484e-07
-3.86463688e-07
-3.84503158e-07
-3.72494926e-07
-3.65125532e-07
-3.65590682e-07
-3.85993841e-07
-3.84065081e-07
-3.76137935e-07
-3.65657856e-07
-3.64575432e-07
-3.67266131e-07
-3.86199731e-07
-3.84779921e-07
-3.69918361e-07
-3.64933417e-07
-3.67345734e-07
-3.86119737e-07
-3.84834368e-07
-3.69579286e-07
-3.64785572e-07
-3.66849215e-07
-3.86157529e-07
-3.84746839e-07
-3.69419494e-07
-3.64731074e-07
-3.67084885e-07
-3.85993136e-07
-3.84604874e-07
-3.69527262e-07
-3.64778894e-07
-3.67863932e-07
-3.85749898e-07
-3.84924449e-07
-3.67843115e-07
-3.64268394e-07
-3.69926298e-07
-3.8562114e-07
-3.75627595e-07
-3.6585105e-07
-3.70880517e-07
-3.84969706e-07
-3.85365319e-07
-3.66475014e-07
-3.64291594e-07
-3.70587973e-07
-3.85441825e-07
-3.75217886e-07
-3.65750632e-07
-3.70721032e-07
-3.8491143e-07
-3.85361317e-07
-3.66513656e-07
-3.64245091e-07
-3.70817315e-07
-3.8532039e-07
-3.74848089e-07
-3.65795469e-07
-3.70613134e-07
-3.84792013e-07
-3.85322396e-07
-3.6686784e-07
-3.64592235e-07
-3.68412201e-07
-3.85279991e-07
-3.85125829e-07
-3.66675306e-07
-3.64042913e-07
-3.71013969e-07
-3.85299104e-07
-3.74782306e-07
-3.65638187e-07
-3.70320853e-07
-3.84741124e-07
-3.8513465e-07
-3.66659593e-07
-3.64444613e-07
-3.67902982e-07
-3.85854516e-07
-3.83459134e-07
-3.81767335e-07
-3.66428835e-07
-3.6464355e-07
-3.68186598e-07
-3.85227807e-07
-3.85425256e-07
-3.65943254e-07
-3.63929025e-07
-3.70177565e-07
-3.85348626e-07
-3.75159946e-07
-3.65624527e-07
-3.70106072e-07
-3.84828174e-07
-3.85858236e-07
-3.66031239e-07
-3.64038229e-07
-3.70998826e-07
-3.85308053e-07
-3.74250595e-07
-3.65272947e-07
-3.73586524e-07
-3.84875128e-07
-3.73182777e-07
-3.65329354e-07
-3.74907305e-07
-3.84635369e-07
-3.74335262e-07
-3.6585562e-07
-3.70191681e-07
-3.84479772e-07
-3.84200707e-07
-3.69302821e-07
-3.64492698e-07
-3.64360627e-07
-3.76029815e-07
-3.84781201e-07
-3.71457906e-07
-3.65392359e-07
-3.7184036e-07
-3.84464915e-07
-3.85625236e-07
-3.66198902e-07
-3.64439558e-07
-3.69639852e-07
-3.84891746e-07
-3.85412701e-07
-3.65787361e-07
-3.64104171e-07
-3.74661396e-07
-3.8481038e-07
-3.73222571e-07
-3.65600618e-07
-3.70595755e-07
-3.84359717e-07
-3.84065564e-07
-3.69200165e-07
)
;

boundaryField
{
    closed
    {
        type            calculated;
        value           nonuniform List<scalar> 0();
    }
    open
    {
        type            calculated;
        value           nonuniform List<scalar> 0();
    }
    sides
    {
        type            empty;
    }
    procBoundary3to2
    {
        type            processor;
        value           uniform -3.86632209e-07;
    }
    procBoundary3to4
    {
        type            processor;
        value           uniform -3.64730431e-07;
    }
}


// ************************************************************************* //
