/*--------------------------------*- C++ -*----------------------------------*\
| =========                 |                                                 |
| \\      /  F ield         | OpenFOAM: The Open Source CFD Toolbox           |
|  \\    /   O peration     | Version:  2306                                  |
|   \\  /    A nd           | Website:  www.openfoam.com                      |
|    \\/     M anipulation  |                                                 |
\*---------------------------------------------------------------------------*/
FoamFile
{
    version     2.0;
    format      ascii;
    arch        "LSB;label=32;scalar=64";
    class       volScalarField;
    location    "0.00062";
    object      prefDPV_H2;
}
// * * * * * * * * * * * * * * * * * * * * * * * * * * * * * * * * * * * * * //

dimensions      [1 -1 -1 0 0 0 0];

internalField   nonuniform List<scalar> 
531
(
-3.1447236e-05
-3.08963116e-05
-3.07163426e-05
-3.1123452e-05
-3.15219272e-05
-3.12634531e-05
-3.08943668e-05
-3.06411991e-05
-3.05105083e-05
-3.08658534e-05
-3.14642669e-05
-3.09939828e-05
-3.08113375e-05
-3.08787387e-05
-3.14457005e-05
-3.15625571e-05
-3.09239793e-05
-3.06155512e-05
-3.07368507e-05
-3.13814061e-05
-3.1533127e-05
-3.10664818e-05
-3.06775588e-05
-3.05713703e-05
-3.11013686e-05
-3.15212631e-05
-3.13969288e-05
-3.08955498e-05
-3.05029341e-05
-3.0487284e-05
-3.12859863e-05
-3.1503952e-05
-3.09630307e-05
-3.0542591e-05
-3.05141671e-05
-3.1299362e-05
-3.15351857e-05
-3.15257259e-05
-3.09004641e-05
-3.05095213e-05
-3.04899684e-05
-3.13918618e-05
-3.14983982e-05
-3.09689596e-05
-3.04698792e-05
-3.0404749e-05
-3.11571957e-05
-3.15144474e-05
-3.09177482e-05
-3.06018783e-05
-3.10944829e-05
-3.1470935e-05
-3.11828764e-05
-3.06862909e-05
-3.05573261e-05
-3.12382514e-05
-3.15299852e-05
-3.09094056e-05
-3.06518336e-05
-3.09360814e-05
-3.1499022e-05
-3.15317047e-05
-3.0890588e-05
-3.0476604e-05
-3.06890424e-05
-3.14389936e-05
-3.15260337e-05
-3.09330289e-05
-3.05281461e-05
-3.05714382e-05
-3.14000279e-05
-3.15444577e-05
-3.12121062e-05
-3.08906865e-05
-3.05111366e-05
-3.07005908e-05
-3.14570069e-05
-3.15496095e-05
-3.08916191e-05
-3.05134046e-05
-3.0876577e-05
-3.14717155e-05
-3.15717314e-05
-3.0882364e-05
-3.09194669e-05
-3.0921053e-05
-3.09101986e-05
-3.08713305e-05
-3.10763086e-05
-3.15409992e-05
-3.09613668e-05
-3.07078748e-05
-3.09039972e-05
-3.14678578e-05
-3.14891246e-05
-3.07115429e-05
-3.06409676e-05
-3.13643755e-05
-3.15100132e-05
-3.08501505e-05
-3.07027295e-05
-3.1343854e-05
-3.1492202e-05
-3.08025741e-05
-3.08708457e-05
-3.14505148e-05
-3.09901939e-05
-3.07172958e-05
-3.0927058e-05
-3.14976188e-05
-3.10337205e-05
-3.07514286e-05
-3.08994592e-05
-3.14636741e-05
-3.15819635e-05
-3.09771109e-05
-3.0873809e-05
-3.09162922e-05
-3.08944373e-05
-3.09259678e-05
-3.09062304e-05
-3.13411849e-05
-3.15607283e-05
-3.09845526e-05
-3.07898784e-05
-3.08502109e-05
-3.14568401e-05
-3.15277709e-05
-3.09753183e-05
-3.05141841e-05
-3.04823739e-05
-3.12567469e-05
-3.15504197e-05
-3.10809552e-05
-3.08913525e-05
-3.09179309e-05
-3.09050406e-05
-3.0897916e-05
-3.09077842e-05
-3.0938429e-05
-3.15209302e-05
-3.12319536e-05
-3.08045831e-05
-3.07639033e-05
-3.13837565e-05
-3.1566745e-05
-3.10714565e-05
-3.08865104e-05
-3.08881659e-05
-3.09155029e-05
-3.09223254e-05
-3.09140147e-05
-3.08912814e-05
-3.14638672e-05
-3.15829605e-05
-3.10716804e-05
-3.08814256e-05
-3.08575037e-05
-3.09276227e-05
-3.09360211e-05
-3.09139734e-05
-3.08900134e-05
-3.14615926e-05
-3.15789056e-05
-3.10511416e-05
-3.08581061e-05
-3.08492872e-05
-3.09418786e-05
-3.09477289e-05
-3.09182907e-05
-3.0902033e-05
-3.14572041e-05
-3.1554776e-05
-3.10093086e-05
-3.07098086e-05
-3.07397553e-05
-3.11220095e-05
-3.11251002e-05
-3.08851783e-05
-3.08763105e-05
-3.14066742e-05
-3.15268431e-05
-3.09910709e-05
-3.06282857e-05
-3.05681134e-05
-3.11850982e-05
-3.15071479e-05
-3.10229246e-05
-3.06794434e-05
-3.06792404e-05
-3.12439711e-05
-3.12611453e-05
-3.08690606e-05
-3.07966367e-05
-3.13640493e-05
-3.15112803e-05
-3.09952794e-05
-3.06150357e-05
-3.06336783e-05
-3.13210681e-05
-3.13737891e-05
-3.08604227e-05
-3.0784899e-05
-3.13302877e-05
-3.15043711e-05
-3.09930946e-05
-3.06168889e-05
-3.0616238e-05
-3.13028728e-05
-3.1373077e-05
-3.08815023e-05
-3.07745048e-05
-3.13193291e-05
-3.15508873e-05
-3.09916712e-05
-3.08980135e-05
-3.09004491e-05
-3.08932279e-05
-3.09284946e-05
-3.09018981e-05
-3.14517016e-05
-3.15488858e-05
-3.09992667e-05
-3.0726039e-05
-3.07019821e-05
-3.12508505e-05
-3.15182307e-05
-3.10554272e-05
-3.07301876e-05
-3.06254617e-05
-3.11173735e-05
-3.14737124e-05
-3.08852911e-05
-3.07841131e-05
-3.0940261e-05
-3.15046471e-05
-3.15419914e-05
-3.09295916e-05
-3.09273061e-05
-3.08178767e-05
-3.05974219e-05
-3.06338864e-05
-3.11016976e-05
-3.14814866e-05
-3.15124092e-05
-3.1510196e-05
-3.09460562e-05
-3.07793232e-05
-3.0507985e-05
-3.05028021e-05
-3.11330334e-05
-3.14773582e-05
-3.09634578e-05
-3.06535615e-05
-3.07763367e-05
-3.13575093e-05
-3.14180237e-05
-3.09347922e-05
-3.08686908e-05
-3.13183238e-05
-3.13785141e-05
-3.09321176e-05
-3.08991685e-05
-3.13216679e-05
-3.13371208e-05
-3.09143056e-05
-3.08232696e-05
-3.12419321e-05
-3.14725235e-05
-3.08934246e-05
-3.07808328e-05
-3.09574563e-05
-3.14808238e-05
-3.11631535e-05
-3.08059296e-05
-3.06283894e-05
-3.10115105e-05
-3.14434216e-05
-3.08972261e-05
-3.07142479e-05
-3.08913151e-05
-3.14460428e-05
-3.1465375e-05
-3.0894329e-05
-3.06524969e-05
-3.10088025e-05
-3.14459206e-05
-3.08818533e-05
-3.07435404e-05
-3.08856256e-05
-3.1423643e-05
-3.15564002e-05
-3.12418905e-05
-3.08966437e-05
-3.08885547e-05
-3.08363247e-05
-3.06571706e-05
-3.07598036e-05
-3.12724481e-05
-3.15133551e-05
-3.10876322e-05
-3.0826062e-05
-3.07399675e-05
-3.11492028e-05
-3.14910251e-05
-3.09911308e-05
-3.06883947e-05
-3.06817633e-05
-3.12962622e-05
-3.14364567e-05
-3.09116824e-05
-3.08421292e-05
-3.11457438e-05
-3.14851166e-05
-3.09642695e-05
-3.06324749e-05
-3.06466475e-05
-3.12789126e-05
-3.13882403e-05
-3.09155852e-05
-3.0825586e-05
-3.12014971e-05
-3.14882995e-05
-3.09524227e-05
-3.06184601e-05
-3.06888195e-05
-3.12978013e-05
-3.13605941e-05
-3.09252392e-05
-3.08484528e-05
-3.12406996e-05
-3.14946563e-05
-3.09412588e-05
-3.06128588e-05
-3.0726803e-05
-3.13117466e-05
-3.13386671e-05
-3.09345331e-05
-3.08701589e-05
-3.12772457e-05
-3.1498258e-05
-3.09329472e-05
-3.06061022e-05
-3.07655504e-05
-3.13214706e-05
-3.13353651e-05
-3.09086078e-05
-3.08981127e-05
-3.13244111e-05
-3.14891342e-05
-3.09186295e-05
-3.06068063e-05
-3.07698468e-05
-3.13138795e-05
-3.14837542e-05
-3.09083195e-05
-3.0524504e-05
-3.07762042e-05
-3.13250536e-05
-3.12624749e-05
-3.08199103e-05
-3.0922167e-05
-3.13729695e-05
-3.12422738e-05
-3.0831882e-05
-3.09054713e-05
-3.13856001e-05
-3.11939539e-05
-3.08311524e-05
-3.08903344e-05
-3.13948149e-05
-3.11525154e-05
-3.08369643e-05
-3.09081993e-05
-3.13924421e-05
-3.14786888e-05
-3.08863559e-05
-3.04925146e-05
-3.08724356e-05
-3.13539442e-05
-3.11329412e-05
-3.07447396e-05
-3.08762491e-05
-3.14009809e-05
-3.10813444e-05
-3.07549969e-05
-3.08698572e-05
-3.14244023e-05
-3.10130628e-05
-3.07596838e-05
-3.08789697e-05
-3.14499874e-05
-3.10382577e-05
-3.07935847e-05
-3.09114599e-05
-3.14021306e-05
-3.15372372e-05
-3.09183392e-05
-3.062081e-05
-3.07211902e-05
-3.13483143e-05
-3.15408437e-05
-3.10038174e-05
-3.07691442e-05
-3.05400213e-05
-3.09047652e-05
-3.1418551e-05
-3.15245531e-05
-3.08873831e-05
-3.0583638e-05
-3.09103597e-05
-3.14158634e-05
-3.15218962e-05
-3.08863184e-05
-3.05560627e-05
-3.09189479e-05
-3.14186484e-05
-3.15295941e-05
-3.08854599e-05
-3.05500272e-05
-3.0910726e-05
-3.14284082e-05
-3.15364715e-05
-3.08870742e-05
-3.05621114e-05
-3.09036873e-05
-3.1441896e-05
-3.15202263e-05
-3.08780065e-05
-3.04718109e-05
-3.08755263e-05
-3.14622743e-05
-3.09788546e-05
-3.07692059e-05
-3.08958679e-05
-3.14865604e-05
-3.14938495e-05
-3.08843757e-05
-3.04711874e-05
-3.08799666e-05
-3.14739477e-05
-3.09686824e-05
-3.07525975e-05
-3.08965059e-05
-3.14909812e-05
-3.14970469e-05
-3.08818312e-05
-3.04645193e-05
-3.08835944e-05
-3.14787801e-05
-3.09603105e-05
-3.07607314e-05
-3.08981748e-05
-3.14949032e-05
-3.15006881e-05
-3.08909661e-05
-3.05182395e-05
-3.09078149e-05
-3.14721485e-05
-3.15121974e-05
-3.08834315e-05
-3.04290732e-05
-3.08878049e-05
-3.14802981e-05
-3.09588939e-05
-3.07323808e-05
-3.08967079e-05
-3.15027792e-05
-3.15199007e-05
-3.08816049e-05
-3.04883509e-05
-3.08863051e-05
-3.14313011e-05
-3.15701821e-05
-3.11739973e-05
-3.08844126e-05
-3.05372788e-05
-3.0910301e-05
-3.14826832e-05
-3.14970076e-05
-3.0822961e-05
-3.04026563e-05
-3.08849005e-05
-3.14784859e-05
-3.09675159e-05
-3.07243655e-05
-3.09028838e-05
-3.14959903e-05
-3.14635015e-05
-3.08397649e-05
-3.04194206e-05
-3.08891217e-05
-3.14798116e-05
-3.09455386e-05
-3.06643605e-05
-3.09246953e-05
-3.15038095e-05
-3.09256998e-05
-3.06823642e-05
-3.09544901e-05
-3.15175574e-05
-3.0950813e-05
-3.07757625e-05
-3.08970071e-05
-3.15073223e-05
-3.15523531e-05
-3.09087372e-05
-3.05312464e-05
-3.05164181e-05
-3.09868886e-05
-3.15172762e-05
-3.09060132e-05
-3.0688213e-05
-3.09117805e-05
-3.15114723e-05
-3.14872256e-05
-3.08628531e-05
-3.04903996e-05
-3.0903418e-05
-3.14905842e-05
-3.15024892e-05
-3.07882973e-05
-3.04403947e-05
-3.09500209e-05
-3.15077872e-05
-3.09285881e-05
-3.07302501e-05
-3.08954645e-05
-3.1525177e-05
-3.1560997e-05
-3.08927669e-05
)
;

boundaryField
{
    closed
    {
        type            calculated;
        value           nonuniform List<scalar> 0();
    }
    open
    {
        type            calculated;
        value           nonuniform List<scalar> 0();
    }
    sides
    {
        type            empty;
    }
    procBoundary3to2
    {
        type            processor;
        value           uniform -3.13800507e-05;
    }
    procBoundary3to4
    {
        type            processor;
        value           uniform -3.05791102e-05;
    }
}


// ************************************************************************* //
