/*--------------------------------*- C++ -*----------------------------------*\
| =========                 |                                                 |
| \\      /  F ield         | OpenFOAM: The Open Source CFD Toolbox           |
|  \\    /   O peration     | Version:  2306                                  |
|   \\  /    A nd           | Website:  www.openfoam.com                      |
|    \\/     M anipulation  |                                                 |
\*---------------------------------------------------------------------------*/
FoamFile
{
    version     2.0;
    format      ascii;
    arch        "LSB;label=32;scalar=64";
    class       volScalarField;
    location    "0.0019";
    object      H2;
}
// * * * * * * * * * * * * * * * * * * * * * * * * * * * * * * * * * * * * * //

dimensions      [0 0 0 0 0 0 0];

internalField   nonuniform List<scalar> 
530
(
0.0113023531
0.0108607175
0.0108036766
0.010803453
0.0108034628
0.0108034606
0.0108034603
0.0108034603
0.0108034603
0.0108034603
0.0108034603
0.0108034603
0.0108034603
0.0108034603
0.0108034603
0.0108034603
0.0108034603
0.0108034603
0.0108034603
0.0108034603
0.0108034603
0.0108034603
0.0108034603
0.0108034603
0.0108034603
0.0108034603
0.0108034603
0.0108034603
0.0108034603
0.0108034603
0.0108034603
0.0108034603
0.0108034603
0.0108034603
0.0108034603
0.0108034603
0.0108034603
0.0108034603
0.0108034603
0.0108034603
0.0108034603
0.0108034603
0.0108034603
0.0108034603
0.0108034603
0.0108034603
0.0108034603
0.0108034603
0.0108034603
0.0108034603
0.0108034603
0.0108034603
0.0108034603
0.0108034603
0.0108034603
0.0108034603
0.0108034603
0.0108034603
0.0108034603
0.0108034603
0.0108034603
0.0108034603
0.0108034603
0.0108034605
0.0108034606
0.0108034617
0.0108034613
0.010803463
0.010803472
0.0108034888
0.010803466
0.0108033156
0.0108033056
0.0108049838
0.0108058819
0.0107971147
0.0107898584
0.010818425
0.01084557
0.0107997467
0.0106889995
0.0106887338
0.011008156
0.0109928751
0.010819089
0.0106852369
0.0107318717
0.0108006165
0.0107386626
0.0106863058
0.010665257
0.0106766604
0.0110117998
0.0109976496
0.0110133295
0.0108073069
0.01064968
0.0106575414
0.0110129361
0.0110064126
0.0110136535
0.0106671186
0.0106531681
0.0106359437
0.0106410294
0.0110155938
0.011013219
0.0110162844
0.0110089412
0.0110157136
0.0106702844
0.0106536408
0.0110037168
0.0110140299
0.0106659054
0.0106581706
0.0106463851
0.0106543183
0.0110150771
0.0110085886
0.011018048
0.0110030594
0.0110210309
0.0106918546
0.0106425414
0.0106626193
0.0106230279
0.0106333106
0.0110241854
0.0110204715
0.0110268703
0.0106334761
0.0106220551
0.0110141522
0.0110248154
0.0110122888
0.0110220473
0.0106562564
0.0106521462
0.0110055052
0.0110170882
0.0106669059
0.0106643886
0.0109962859
0.0110154097
0.0107150936
0.0106602618
0.0106695723
0.0106470549
0.0106497827
0.0110115668
0.0110143621
0.0110075241
0.011015442
0.010672977
0.010658136
0.0109956915
0.0110187035
0.0107183232
0.0106450642
0.0106788228
0.0110208209
0.0106757391
0.0106449553
0.0110060576
0.0110200213
0.010655333
0.0106554929
0.0110141412
0.0110216631
0.0106394011
0.0106493868
0.0110180731
0.0110221221
0.0110194096
0.0110247214
0.0106308869
0.0106367284
0.0110089782
0.0110195472
0.0110012024
0.0110159253
0.0107041237
0.0106732925
0.0106834111
0.0106738774
0.01066333
0.0110064921
0.0110165543
0.0106720798
0.0106239321
0.0106521509
0.0110190704
0.0110115556
0.0110170042
0.0106591681
0.0106638779
0.0110108608
0.0106675216
0.0106550248
0.01101123
0.011004768
0.0110164863
0.0106918235
0.0106444091
0.010667404
0.0110122872
0.0110114337
0.0110077856
0.011014445
0.0106783107
0.0106598114
0.0106533029
0.0106508251
0.0110109576
0.0110192069
0.0106527587
0.0106503406
0.0110062312
0.0110184104
0.0106692621
0.010660833
0.0106556933
0.0106605954
0.0110038489
0.0110163475
0.0110000791
0.0110178524
0.0106876647
0.0106658991
0.0106823085
0.0110109385
0.0110082334
0.0106716163
0.0106620949
0.0110141666
0.0110203533
0.010642668
0.0110158405
0.0110271204
0.0106603367
0.0106193567
0.0106478963
0.0110256828
0.0110175886
0.011027523
0.0106520889
0.0106373237
0.0110120238
0.0110277615
0.0106623037
0.0110195095
0.011021199
0.0106617829
0.0106249554
0.0106537278
0.0110249425
0.011014636
0.0110256846
0.0106633632
0.0106430988
0.0110130659
0.0110249047
0.010647535
0.0106578322
0.0110185539
0.0110114299
0.0110229393
0.0106707228
0.0106463742
0.0110017438
0.0110279752
0.0106794793
0.010643419
0.0106813497
0.0110246965
0.0110048097
0.0110299424
0.0106513972
0.0106301878
0.0110071895
0.0110329786
0.010657411
0.0106192174
0.0106516918
0.011021178
0.0110010029
0.0110218444
0.0106871113
0.0106579456
0.0106833345
0.0106572858
0.0107039559
0.0110088952
0.0109921431
0.0110111263
0.0106825837
0.0106729401
0.0109963855
0.0110110057
0.0106653854
0.0106667203
0.0109995603
0.011014363
0.010666278
0.0106596589
0.0109976189
0.0110188358
0.0106794174
0.0106484439
0.0106610828
0.0110104918
0.0110133531
0.01066983
0.0106591094
0.0109980665
0.0110166517
0.0106951924
0.0106599606
0.0106650951
0.0110041374
0.0110166864
0.010689374
0.0106441034
0.0106697443
0.0110132085
0.011005873
0.0110177311
0.0106715014
0.0106605348
0.0106452112
0.0106568759
0.0110160399
0.0110106232
0.0110198164
0.0106749456
0.0106516004
0.0110051905
0.011018452
0.0106693328
0.0106692261
0.0110095627
0.0110222215
0.0106637977
0.0106694761
0.0110316127
0.0110142849
0.011053205
0.0106502058
0.0106438415
0.0110084568
0.0110261732
0.0106704922
0.0106783574
0.0109994027
0.0110148352
0.0106819547
0.0106774606
0.0106676966
0.0106681387
0.010999067
0.0110208728
0.0106773566
0.010649057
0.0106735971
0.0110079543
0.0110034001
0.0110070582
0.0110070192
0.0108257035
0.0106632733
0.0106498052
0.0106530221
0.0110078503
0.0110174493
0.0106671833
0.0106530536
0.0106539061
0.0106592295
0.0110072346
0.0110102851
0.0110046576
0.0110102898
0.0109993043
0.0110125412
0.0107599933
0.0106636415
0.0106668136
0.010655365
0.0106513655
0.010654028
0.0110064082
0.0110144213
0.010673884
0.01067188
0.0110000701
0.0110145001
0.0106782717
0.0106829716
0.0109970486
0.011011369
0.0106836506
0.0106765669
0.0106632686
0.0106692608
0.0110072434
0.0110235347
0.0106564143
0.0106621386
0.0110071318
0.011018418
0.0106634934
0.0106646965
0.0110054355
0.0110199419
0.0106681063
0.0106543073
0.0106416317
0.0106523954
0.0110191449
0.0110121179
0.0110224202
0.0110090416
0.0110253336
0.0110055123
0.0110310925
0.0106758709
0.0106426417
0.0106645943
0.0110132838
0.0110215903
0.0106687326
0.01067166
0.0110017189
0.0110172914
0.0106808759
0.010672164
0.0106675828
0.0106663458
0.0110040804
0.0110280723
0.0106724111
0.0106338164
0.0106663923
0.0110206014
0.011013175
0.0110360797
0.0106608106
0.0106659263
0.0110209635
0.0110153453
0.0110312375
0.0106529039
0.0106461846
0.0110038868
0.0110292274
0.010692419
0.0106578283
0.0106730081
0.0110046949
0.0110176957
0.0107081162
0.0106562349
0.0106734951
0.0110098255
0.0110168318
0.0106688499
0.010659104
0.0106463954
0.0106599373
0.0110150272
0.0110030995
0.0110287335
0.0106917767
0.0106404857
0.0106830421
0.0110214507
0.0110034497
0.0110388223
0.0110069043
0.011030246
0.0106602636
0.0106227849
0.0106465075
0.0110166128
0.0110342568
0.0106720692
0.011017107
0.0110183709
0.0106642318
0.0106551382
0.0106652488
0.0110040894
0.0110254925
0.0106820354
0.0106460452
0.0106667674
0.0110161533
0.0110297738
0.0106659898
0.0106709273
0.011012794
0.0110342693
0.0106581879
0.0106755358
0.0110219899
0.0110164613
0.0110407759
0.0106480406
0.0106663158
0.0110306121
0.0106727862
0.0106494015
0.0110145429
0.0110464411
0.0106452235
0.0106581161
0.0110226576
0.0110296039
0.0110246083
0.0110506559
0.0106338578
0.0106509066
0.0110189937
0.0110397718
0.0106530848
0.0106842088
0.0110276454
0.0106898341
0.0106601295
)
;

boundaryField
{
    closed
    {
        type            calculated;
        value           uniform 0.0144612161;
    }
    open
    {
        type            calculated;
        value           nonuniform List<scalar> 0();
    }
    sides
    {
        type            empty;
    }
    procBoundary0to1
    {
        type            processor;
        value           uniform 0.0110074913;
    }
}


// ************************************************************************* //
