/*--------------------------------*- C++ -*----------------------------------*\
| =========                 |                                                 |
| \\      /  F ield         | OpenFOAM: The Open Source CFD Toolbox           |
|  \\    /   O peration     | Version:  2306                                  |
|   \\  /    A nd           | Website:  www.openfoam.com                      |
|    \\/     M anipulation  |                                                 |
\*---------------------------------------------------------------------------*/
FoamFile
{
    version     2.0;
    format      ascii;
    arch        "LSB;label=32;scalar=64";
    class       volScalarField;
    location    "0.0019";
    object      p;
}
// * * * * * * * * * * * * * * * * * * * * * * * * * * * * * * * * * * * * * //

dimensions      [1 -1 -2 0 0 0 0];

internalField   nonuniform List<scalar> 
530
(
101368.528
101357.019
101331.365
101299.135
101262.87
101239.624
101244.936
101277.163
101319.487
101349.712
101366.443
101376.306
101387.277
101396.241
101402.313
101405.733
101408.176
101410.731
101412.753
101412.875
101411.148
101408.883
101406.754
101404.537
101401.704
101398.117
101393.898
101389.277
101384.708
101380.57
101376.931
101373.569
101370.17
101366.546
101362.669
101358.557
101354.222
101349.717
101345.171
101340.745
101336.567
101332.712
101329.197
101326.014
101323.136
101320.533
101318.178
101316.049
101314.132
101312.417
101310.893
101309.549
101308.369
101307.335
101306.43
101305.64
101304.958
101304.379
101303.898
101303.512
101303.216
101303.002
101302.86
101302.778
101302.741
101302.734
101302.745
101302.761
101302.772
101302.773
101302.76
101302.732
101302.688
101302.63
101302.562
101302.487
101302.408
101302.329
101302.252
101302.176
101302.1
101302.032
101301.961
101301.895
101301.83
101301.76
101301.692
101301.623
101301.553
101301.484
101301.42
101301.353
101301.29
101301.235
101301.182
101301.127
101301.078
101301.035
101300.987
101300.949
101300.911
101300.865
101300.832
101300.805
101300.772
101300.735
101300.706
101300.68
101300.654
101300.628
101300.596
101300.572
101300.547
101300.526
101300.496
101300.474
101300.456
101300.437
101300.409
101300.392
101300.378
101300.365
101300.351
101300.324
101300.32
101300.314
101300.311
101300.305
101300.291
101300.291
101300.293
101300.294
101300.301
101300.3
101300.309
101300.319
101300.332
101300.343
101300.36
101300.375
101300.398
101300.419
101300.442
101300.465
101300.496
101300.525
101300.554
101300.591
101300.631
101300.671
101300.697
101300.737
101300.779
101300.823
101300.866
101300.915
101300.959
101301.01
101301.061
101301.114
101301.172
101301.217
101301.268
101301.332
101301.382
101301.44
101301.496
101301.556
101301.613
101301.678
101301.741
101301.802
101301.86
101301.922
101301.987
101302.055
101302.127
101302.193
101302.25
101302.317
101302.386
101302.457
101302.527
101302.596
101302.668
101302.746
101302.826
101302.893
101302.967
101303.036
101303.13
101303.215
101303.279
101303.359
101303.442
101303.525
101303.609
101303.687
101303.768
101303.868
101303.94
101304.024
101304.106
101304.18
101304.292
101304.389
101304.465
101304.554
101304.646
101304.737
101304.818
101304.923
101305.031
101305.132
101305.215
101305.313
101305.409
101305.512
101305.6
101305.695
101305.782
101305.885
101305.991
101306.09
101306.168
101306.258
101306.346
101306.432
101306.509
101306.604
101306.695
101306.892
101307.008
101307.113
101307.239
101307.353
101307.48
101307.609
101307.718
101307.848
101307.974
101308.127
101308.273
101308.245
101308.342
101308.448
101308.544
101308.659
101308.757
101308.871
101308.986
101309.085
101309.198
101309.303
101309.436
101309.568
101309.671
101309.793
101309.918
101310.038
101310.181
101310.304
101310.445
101310.586
101310.726
101310.854
101310.999
101311.146
101311.294
101311.464
101311.61
101311.776
101311.938
101312.121
101312.301
101312.48
101312.667
101312.861
101313.055
101313.271
101313.457
101313.666
101313.87
101314.104
101314.335
101314.545
101314.77
101314.998
101315.221
101315.476
101315.728
101315.989
101316.237
101316.497
101316.764
101317.035
101317.304
101317.6
101317.868
101318.158
101318.448
101318.76
101319.043
101319.35
101319.657
101319.992
101320.29
101320.609
101320.924
101321.282
101321.641
101321.953
101322.292
101322.63
101322.999
101323.323
101323.672
101324.023
101324.375
101324.735
101325.048
101325.381
101325.707
101326.084
101326.443
101326.773
101327.118
101327.464
101327.796
101328.162
101328.541
101328.918
101329.233
101329.577
101329.921
101330.261
101330.64
101330.962
101331.31
101331.651
101332.016
101332.346
101332.698
101333.045
101333.384
101333.723
101334.055
101334.405
101334.761
101335.154
101335.492
101335.855
101336.209
101336.553
101336.875
101337.216
101337.544
101337.903
101338.274
101338.643
101338.961
101339.308
101339.643
101340.015
101340.373
101340.71
101341.058
101341.411
101341.758
101342.098
101342.456
101342.846
101343.221
101343.544
101343.897
101344.234
101344.608
101344.989
101345.372
101345.695
101346.047
101346.398
101346.751
101347.109
101347.47
101347.828
101348.193
101348.567
101348.942
101349.326
101349.712
101350.043
101350.409
101350.766
101351.154
101351.504
101351.883
101352.259
101352.626
101352.971
101353.339
101353.691
101354.077
101354.479
101354.877
101355.23
101355.619
101356.004
101356.378
101356.72
101357.095
101357.454
101357.843
101358.185
101358.553
101358.895
101359.273
101359.664
101360.053
101360.369
101360.718
101361.064
101361.409
101361.752
101362.099
101362.446
101362.775
101363.15
101363.529
101363.856
101364.219
101364.575
101364.923
101365.246
101365.599
101365.931
101366.302
101366.687
101367.076
101367.412
101367.787
101368.143
101368.548
101368.941
101369.306
101369.71
101370.122
101370.523
101370.922
101371.283
101371.68
101372.081
101372.466
101372.885
101373.239
101373.63
101373.993
101374.412
101374.827
101375.18
101375.575
101375.969
101376.363
101376.783
101377.166
101377.603
101378.035
101378.539
101379.1
101379.679
101379.716
101380.202
101380.718
101381.202
101381.775
101382.342
101382.888
101383.467
101384.062
101384.681
101385.33
101385.937
101386.636
101387.371
101388.004
101388.687
101389.383
101389.988
101390.643
101391.274
101391.962
101392.654
101393.25
101393.878
101394.478
101395.143
101395.799
101396.37
101396.979
101397.581
101398.163
101398.706
101399.286
101399.851
101400.403
101400.895
101401.43
101401.965
101402.491
101403.01
101403.481
101403.965
101404.493
101404.947
101405.448
101405.932
101406.393
101406.809
101407.259
101407.714
101408.175
101408.622
101409.047
101409.448
101409.897
101410.322
101410.742
101411.128
101411.52
101411.956
)
;

boundaryField
{
    closed
    {
        type            zeroGradient;
    }
    open
    {
        type            waveTransmissive;
        gamma           1.25;
        fieldInf        101325;
        lInf            1;
        value           nonuniform List<scalar> 0();
    }
    sides
    {
        type            empty;
    }
    procBoundary0to1
    {
        type            processor;
        value           uniform 101412.326;
    }
}


// ************************************************************************* //
