/*--------------------------------*- C++ -*----------------------------------*\
| =========                 |                                                 |
| \\      /  F ield         | OpenFOAM: The Open Source CFD Toolbox           |
|  \\    /   O peration     | Version:  2306                                  |
|   \\  /    A nd           | Website:  www.openfoam.com                      |
|    \\/     M anipulation  |                                                 |
\*---------------------------------------------------------------------------*/
FoamFile
{
    version     2.0;
    format      ascii;
    arch        "LSB;label=32;scalar=64";
    class       volVectorField;
    location    "0.0019";
    object      U;
}
// * * * * * * * * * * * * * * * * * * * * * * * * * * * * * * * * * * * * * //

dimensions      [0 1 -1 0 0 0 0];

internalField   nonuniform List<vector> 
530
(
(0.119888773 0 0)
(0.255730101 0 0)
(0.360913304 0 0)
(0.390464161 0 0)
(0.36776668 0 0)
(0.287339457 0 0)
(0.151407078 0 0)
(0.0077374449 0 0)
(-0.109376985 0 0)
(-0.127870457 0 0)
(-0.0780336132 0 0)
(0.0071801807 0 0)
(0.0744682315 0 0)
(0.144416131 0 0)
(0.201288699 0 0)
(0.25902072 0 0)
(0.300964528 0 0)
(0.337753989 0 0)
(0.362444585 0 0)
(0.39100479 0 0)
(0.415599871 0 0)
(0.439092812 0 0)
(0.456557304 0 0)
(0.47008382 0 0)
(0.479509591 0 0)
(0.486694517 0 0)
(0.489995812 0 0)
(0.490063196 0 0)
(0.484354117 0 0)
(0.473665122 0 0)
(0.457945958 0 0)
(0.439094437 0 0)
(0.418072677 0 0)
(0.397039131 0 0)
(0.37588648 0 0)
(0.355606384 0 0)
(0.336039835 0 0)
(0.317521527 0 0)
(0.30005102 0 0)
(0.282975221 0 0)
(0.266612849 0 0)
(0.250410483 0 0)
(0.234942278 0 0)
(0.219892063 0 0)
(0.205627699 0 0)
(0.192055709 0 0)
(0.179216585 0 0)
(0.167155452 0 0)
(0.155870174 0 0)
(0.145222892 0 0)
(0.135148601 0 0)
(0.125618208 0 0)
(0.116604185 0 0)
(0.108071616 0 0)
(0.100036006 0 0)
(0.0924613447 0 0)
(0.0853025593 0 0)
(0.0785200129 0 0)
(0.0720684338 0 0)
(0.0659131912 0 0)
(0.060017305 0 0)
(0.0543665412 0 0)
(0.048949667 0 0)
(0.0437696553 0 0)
(0.0388401186 0 0)
(0.034173834 0 0)
(0.029785857 0 0)
(0.0256894185 0 0)
(0.0218904556 0 0)
(0.0183874607 0 0)
(0.0151719422 0 0)
(0.0122263829 0 0)
(0.00953790834 0 0)
(0.00710568378 0 0)
(0.00492811792 0 0)
(0.00286378529 0 0)
(0.000676273534 0 0)
(-0.0011832362 0 0)
(-0.00222311604 0 0)
(-0.0024073827 0 0)
(-0.0059398212 0 0)
(-0.00967278763 0 0)
(-0.0101205519 0 0)
(-0.0107117741 0 0)
(-0.0121048921 0 0)
(-0.0138076714 0 0)
(-0.0153336959 0 0)
(-0.0160478528 0 0)
(-0.0168162877 0 0)
(-0.0187772936 0 0)
(-0.0191154881 0 0)
(-0.0179509285 0 0)
(-0.0182475183 0 0)
(-0.0185662159 0 0)
(-0.0185447416 0 0)
(-0.0193555655 0 0)
(-0.0208509363 0 0)
(-0.0187338594 0 0)
(-0.0172598752 0 0)
(-0.0177800125 0 0)
(-0.0175421844 0 0)
(-0.020229036 0 0)
(-0.0242233209 0 0)
(-0.0237047653 0 0)
(-0.0201958023 0 0)
(-0.0186964398 0 0)
(-0.0193428252 0 0)
(-0.0197745892 0 0)
(-0.0199617003 0 0)
(-0.0199060704 0 0)
(-0.0209729812 0 0)
(-0.0224722709 0 0)
(-0.0232280139 0 0)
(-0.0235056239 0 0)
(-0.0247428065 0 0)
(-0.0269679112 0 0)
(-0.0267982293 0 0)
(-0.0240687857 0 0)
(-0.0227563057 0 0)
(-0.0235409096 0 0)
(-0.0240627369 0 0)
(-0.0242049218 0 0)
(-0.0240912036 0 0)
(-0.0275134283 0 0)
(-0.0323646155 0 0)
(-0.0337654343 0 0)
(-0.0325232914 0 0)
(-0.0291747776 0 0)
(-0.0277830443 0 0)
(-0.0283851474 0 0)
(-0.0281899386 0 0)
(-0.0281517353 0 0)
(-0.0275883406 0 0)
(-0.027385287 0 0)
(-0.0282605077 0 0)
(-0.0286695672 0 0)
(-0.0286505061 0 0)
(-0.0290137746 0 0)
(-0.029724964 0 0)
(-0.030526827 0 0)
(-0.0308843329 0 0)
(-0.0303474417 0 0)
(-0.0302657632 0 0)
(-0.0311746481 0 0)
(-0.0316949301 0 0)
(-0.0317318618 0 0)
(-0.0326984591 0 0)
(-0.0333583512 0 0)
(-0.0319244795 0 0)
(-0.0285639399 0 0)
(-0.0271946606 0 0)
(-0.0280051888 0 0)
(-0.0285306427 0 0)
(-0.0285990252 0 0)
(-0.0287606571 0 0)
(-0.0294075395 0 0)
(-0.0305172051 0 0)
(-0.0312264688 0 0)
(-0.0312343481 0 0)
(-0.0310150129 0 0)
(-0.0292859199 0 0)
(-0.0283816986 0 0)
(-0.0297971628 0 0)
(-0.030233835 0 0)
(-0.030307627 0 0)
(-0.0307075478 0 0)
(-0.0306239746 0 0)
(-0.0312074157 0 0)
(-0.0324422139 0 0)
(-0.0328573054 0 0)
(-0.0320327277 0 0)
(-0.0317220395 0 0)
(-0.032617026 0 0)
(-0.0335721701 0 0)
(-0.0341059598 0 0)
(-0.0339564956 0 0)
(-0.0320819236 0 0)
(-0.0298650044 0 0)
(-0.0298833674 0 0)
(-0.0308522382 0 0)
(-0.0314912317 0 0)
(-0.0317111403 0 0)
(-0.0316870958 0 0)
(-0.0326711145 0 0)
(-0.0345674171 0 0)
(-0.0356935232 0 0)
(-0.0351993855 0 0)
(-0.0354051144 0 0)
(-0.0362360603 0 0)
(-0.0383379563 0 0)
(-0.038820016 0 0)
(-0.0347206438 0 0)
(-0.0331606571 0 0)
(-0.034101071 0 0)
(-0.0346840544 0 0)
(-0.0350490108 0 0)
(-0.0359623996 0 0)
(-0.0374912857 0 0)
(-0.039612782 0 0)
(-0.0390457774 0 0)
(-0.0377018415 0 0)
(-0.0383046369 0 0)
(-0.0389682873 0 0)
(-0.0432823921 0 0)
(-0.0460174871 0 0)
(-0.0422185738 0 0)
(-0.0406777116 0 0)
(-0.0415428806 0 0)
(-0.0419488966 0 0)
(-0.0421412071 0 0)
(-0.0450778508 0 0)
(-0.0493469934 0 0)
(-0.0489822606 0 0)
(-0.0457402265 0 0)
(-0.0454413342 0 0)
(-0.0462522501 0 0)
(-0.0458130424 0 0)
(-0.0450433512 0 0)
(-0.0454008758 0 0)
(-0.0461683004 0 0)
(-0.0480085986 0 0)
(-0.0509687842 0 0)
(-0.0506433075 0 0)
(-0.0479968032 0 0)
(-0.0480299284 0 0)
(-0.0492457292 0 0)
(-0.0499205975 0 0)
(-0.0504246368 0 0)
(-0.0526034703 0 0)
(-0.0547008145 0 0)
(-0.0550066192 0 0)
(-0.0559663399 0 0)
(-0.0561105709 0 0)
(-0.0573394021 0 0)
(-0.0585755254 0 0)
(-0.0594935358 0 0)
(-0.059861337 0 0)
(-0.0565882376 0 0)
(-0.0563420336 0 0)
(-0.0577480073 0 0)
(-0.0598732054 0 0)
(-0.0615215687 0 0)
(-0.0581660834 0 0)
(-0.0573702781 0 0)
(-0.059141803 0 0)
(-0.0592218474 0 0)
(-0.0591762286 0 0)
(-0.0592385291 0 0)
(-0.0604236314 0 0)
(-0.0614810815 0 0)
(-0.060234368 0 0)
(-0.0614517997 0 0)
(-0.0628813898 0 0)
(-0.0648959717 0 0)
(-0.0664587763 0 0)
(-0.0632050083 0 0)
(-0.0621329872 0 0)
(-0.0633592289 0 0)
(-0.0639049829 0 0)
(-0.0652461935 0 0)
(-0.0664579167 0 0)
(-0.0679302626 0 0)
(-0.0686429875 0 0)
(-0.0665201543 0 0)
(-0.0650030455 0 0)
(-0.0663479691 0 0)
(-0.0680875852 0 0)
(-0.0686256996 0 0)
(-0.0691801361 0 0)
(-0.0691559695 0 0)
(-0.0703811947 0 0)
(-0.0716448507 0 0)
(-0.0722405106 0 0)
(-0.0732636866 0 0)
(-0.0744693762 0 0)
(-0.0768371385 0 0)
(-0.0783058385 0 0)
(-0.0781142956 0 0)
(-0.0767979681 0 0)
(-0.075355363 0 0)
(-0.0766491147 0 0)
(-0.0782151369 0 0)
(-0.0791736853 0 0)
(-0.0797130429 0 0)
(-0.0772245637 0 0)
(-0.0771203251 0 0)
(-0.078586939 0 0)
(-0.0792947308 0 0)
(-0.0819894204 0 0)
(-0.0855581321 0 0)
(-0.0868397493 0 0)
(-0.0860756088 0 0)
(-0.0871369573 0 0)
(-0.0904732511 0 0)
(-0.0922777316 0 0)
(-0.0928695134 0 0)
(-0.093317641 0 0)
(-0.093831858 0 0)
(-0.0959310325 0 0)
(-0.0974107141 0 0)
(-0.0967527133 0 0)
(-0.0961202516 0 0)
(-0.0979531573 0 0)
(-0.0995580475 0 0)
(-0.0991458175 0 0)
(-0.0984167587 0 0)
(-0.100065679 0 0)
(-0.102205992 0 0)
(-0.105219168 0 0)
(-0.107689143 0 0)
(-0.104029401 0 0)
(-0.103600544 0 0)
(-0.105081605 0 0)
(-0.105120052 0 0)
(-0.104535233 0 0)
(-0.10619994 0 0)
(-0.1080685 0 0)
(-0.10665553 0 0)
(-0.104601143 0 0)
(-0.100553049 0 0)
(-0.100295326 0 0)
(-0.102512216 0 0)
(-0.106858678 0 0)
(-0.109705947 0 0)
(-0.106744906 0 0)
(-0.107088923 0 0)
(-0.108599252 0 0)
(-0.109347871 0 0)
(-0.111780744 0 0)
(-0.117606062 0 0)
(-0.118375499 0 0)
(-0.113059593 0 0)
(-0.112660797 0 0)
(-0.115227721 0 0)
(-0.116728351 0 0)
(-0.118433456 0 0)
(-0.118410392 0 0)
(-0.120215778 0 0)
(-0.122412232 0 0)
(-0.122302683 0 0)
(-0.122951833 0 0)
(-0.126409177 0 0)
(-0.129314264 0 0)
(-0.129096156 0 0)
(-0.13167176 0 0)
(-0.135579014 0 0)
(-0.136271574 0 0)
(-0.13050748 0 0)
(-0.123901128 0 0)
(-0.126299184 0 0)
(-0.133236196 0 0)
(-0.137369525 0 0)
(-0.135225074 0 0)
(-0.133224988 0 0)
(-0.136120468 0 0)
(-0.138733182 0 0)
(-0.141767173 0 0)
(-0.147365694 0 0)
(-0.148158767 0 0)
(-0.143488371 0 0)
(-0.144308662 0 0)
(-0.146786994 0 0)
(-0.148886825 0 0)
(-0.150744462 0 0)
(-0.149418484 0 0)
(-0.15120209 0 0)
(-0.152935651 0 0)
(-0.153565075 0 0)
(-0.153683864 0 0)
(-0.155215734 0 0)
(-0.159868315 0 0)
(-0.160176716 0 0)
(-0.153560467 0 0)
(-0.153538183 0 0)
(-0.155854197 0 0)
(-0.158181758 0 0)
(-0.163249354 0 0)
(-0.163856457 0 0)
(-0.159017002 0 0)
(-0.159371755 0 0)
(-0.162070042 0 0)
(-0.163526775 0 0)
(-0.164923893 0 0)
(-0.166248167 0 0)
(-0.166807182 0 0)
(-0.166508919 0 0)
(-0.168121775 0 0)
(-0.169645935 0 0)
(-0.169750156 0 0)
(-0.168052345 0 0)
(-0.162083195 0 0)
(-0.16254661 0 0)
(-0.164923344 0 0)
(-0.165357866 0 0)
(-0.16585419 0 0)
(-0.168871974 0 0)
(-0.172263586 0 0)
(-0.169675831 0 0)
(-0.166476364 0 0)
(-0.168909176 0 0)
(-0.171331098 0 0)
(-0.174187515 0 0)
(-0.180342368 0 0)
(-0.18115437 0 0)
(-0.176678701 0 0)
(-0.178123795 0 0)
(-0.180454314 0 0)
(-0.17611331 0 0)
(-0.172069915 0 0)
(-0.174941361 0 0)
(-0.177238457 0 0)
(-0.176524008 0 0)
(-0.175998248 0 0)
(-0.178470456 0 0)
(-0.180752092 0 0)
(-0.182993712 0 0)
(-0.189219571 0 0)
(-0.189833666 0 0)
(-0.18309591 0 0)
(-0.182371501 0 0)
(-0.185440432 0 0)
(-0.187080546 0 0)
(-0.188529845 0 0)
(-0.190149455 0 0)
(-0.191720003 0 0)
(-0.192467604 0 0)
(-0.195187086 0 0)
(-0.199021301 0 0)
(-0.195463167 0 0)
(-0.196022641 0 0)
(-0.199035416 0 0)
(-0.195791271 0 0)
(-0.19218262 0 0)
(-0.194987782 0 0)
(-0.197668684 0 0)
(-0.200369623 0 0)
(-0.206579147 0 0)
(-0.207797175 0 0)
(-0.202784515 0 0)
(-0.203851061 0 0)
(-0.206731035 0 0)
(-0.209242526 0 0)
(-0.211953516 0 0)
(-0.210564777 0 0)
(-0.213676429 0 0)
(-0.216923752 0 0)
(-0.216927285 0 0)
(-0.212609551 0 0)
(-0.209770485 0 0)
(-0.213646561 0 0)
(-0.21812833 0 0)
(-0.218109111 0 0)
(-0.215378022 0 0)
(-0.212214059 0 0)
(-0.214797364 0 0)
(-0.218456909 0 0)
(-0.223456074 0 0)
(-0.227886752 0 0)
(-0.222294874 0 0)
(-0.222166968 0 0)
(-0.224670281 0 0)
(-0.221597248 0 0)
(-0.218074996 0 0)
(-0.212175817 0 0)
(-0.211808025 0 0)
(-0.214179463 0 0)
(-0.21701497 0 0)
(-0.224586677 0 0)
(-0.225362733 0 0)
(-0.21670934 0 0)
(-0.217430875 0 0)
(-0.224233117 0 0)
(-0.225288304 0 0)
(-0.230007506 0 0)
(-0.234519651 0 0)
(-0.234118218 0 0)
(-0.23742557 0 0)
(-0.240809167 0 0)
(-0.243299762 0 0)
(-0.244317986 0 0)
(-0.237505475 0 0)
(-0.234163019 0 0)
(-0.240902357 0 0)
(-0.23941435 0 0)
(-0.241308583 0 0)
(-0.244431298 0 0)
(-0.236746557 0 0)
(-0.239089605 0 0)
(-0.243445975 0 0)
(-0.245516961 0 0)
(-0.250099264 0 0)
(-0.245481208 0 0)
(-0.246928896 0 0)
(-0.25075069 0 0)
(-0.255455297 0 0)
(-0.25997869 0 0)
(-0.254899492 0 0)
(-0.255973995 0 0)
(-0.259268019 0 0)
(-0.255042079 0 0)
(-0.252725495 0 0)
(-0.258421723 0 0)
(-0.261301605 0 0)
(-0.2557357 0 0)
(-0.252222724 0 0)
(-0.257751466 0 0)
(-0.264207741 0 0)
(-0.2651569 0 0)
(-0.259156402 0 0)
(-0.255010758 0 0)
(-0.258216969 0 0)
(-0.263243331 0 0)
(-0.263942909 0 0)
(-0.268039788 0 0)
(-0.270415081 0 0)
(-0.26268101 0 0)
(-0.257850991 0 0)
(-0.263501812 0 0)
(-0.270477629 0 0)
(-0.274617885 0 0)
(-0.274219577 0 0)
(-0.266059343 0 0)
(-0.262410098 0 0)
(-0.26942942 0 0)
(-0.273232164 0 0)
(-0.26827158 0 0)
(-0.265784429 0 0)
(-0.268920291 0 0)
(-0.274954764 0 0)
(-0.276230696 0 0)
)
;

boundaryField
{
    closed
    {
        type            noSlip;
    }
    open
    {
        type            inletOutlet;
        inletValue      nonuniform List<vector> 0();
        value           nonuniform List<vector> 0();
    }
    sides
    {
        type            empty;
    }
    procBoundary0to1
    {
        type            processor;
        value           uniform (-0.280512873 0 0);
    }
}


// ************************************************************************* //
