/*--------------------------------*- C++ -*----------------------------------*\
| =========                 |                                                 |
| \\      /  F ield         | OpenFOAM: The Open Source CFD Toolbox           |
|  \\    /   O peration     | Version:  2306                                  |
|   \\  /    A nd           | Website:  www.openfoam.com                      |
|    \\/     M anipulation  |                                                 |
\*---------------------------------------------------------------------------*/
FoamFile
{
    version     2.0;
    format      ascii;
    arch        "LSB;label=32;scalar=64";
    class       volScalarField;
    location    "0.00108";
    object      H2O;
}
// * * * * * * * * * * * * * * * * * * * * * * * * * * * * * * * * * * * * * //

dimensions      [0 0 0 0 0 0 0];

internalField   nonuniform List<scalar> 
530
(
0.00375324666
0.00458429762
0.00451378138
0.0045076848
0.0045071478
0.00450713611
0.00450713545
0.00450713543
0.00450713542
0.00450713542
0.00450713542
0.00450713542
0.00450713542
0.00450713542
0.00450713542
0.00450713542
0.00450713542
0.00450713542
0.00450713542
0.00450713542
0.00450713542
0.00450713542
0.00450713542
0.00450713542
0.00450713542
0.00450713542
0.00450713542
0.00450713542
0.00450713542
0.00450713542
0.00450713542
0.00450713542
0.00450713542
0.00450713542
0.00450713542
0.00450713542
0.00450713542
0.00450713542
0.00450713542
0.00450713542
0.00450713542
0.00450713542
0.00450713542
0.00450713542
0.00450713542
0.00450713542
0.00450713542
0.00450713542
0.00450713542
0.00450713542
0.00450713542
0.00450713542
0.00450713542
0.00450713542
0.00450713542
0.00450713542
0.00450713542
0.00450713542
0.00450713542
0.00450713542
0.00450713542
0.00450713543
0.00450713543
0.00450713543
0.00450713544
0.00450713546
0.00450713553
0.00450713574
0.00450713624
0.00450713748
0.00450714029
0.00450714565
0.00450716063
0.00450718396
0.00450721228
0.00450729445
0.00450756363
0.00450778502
0.00450751328
0.00450788682
0.00450988557
0.00451181771
0.00451188993
0.00449995089
0.00446868973
0.00447932961
0.00471239019
0.00495835361
0.00458534054
0.00340359113
0.00371562241
0.00558200779
0.00667496015
0.00679479413
0.00597009013
0.00103920609
0.0011282677
0.000970947722
0.00593946987
0.00719092323
0.00688571515
0.00710857768
0.00614306271
0.00105781911
0.00110224293
0.00102895375
0.00110165762
0.000882295157
0.00689348581
0.00726822813
0.00696325136
0.00694277273
0.00697096672
0.00553195761
0.001054079
0.00113454902
0.000867089969
0.00658096344
0.00708592385
0.00696858423
0.0056117269
0.0010487823
0.0011296733
0.000851739828
0.00663071317
0.00710278014
0.0069067086
0.00590202385
0.00104546122
0.000873731166
0.00648879732
0.00588237687
0.00100958354
0.000874533781
0.00704283503
0.00727135405
0.00588486281
0.00103257287
0.0009586809
0.00661732639
0.00603434509
0.00100506763
0.00112673564
0.00678884882
0.00615250875
0.000988027811
0.00122872817
0.00686659764
0.00622347474
0.000979991171
0.00128070668
0.00690962066
0.00624595945
0.000976705042
0.00129381832
0.00689354838
0.0061874948
0.000974964823
0.00141787757
0.00691572663
0.00562215035
0.000826966665
0.00578886501
0.00728590024
0.00692831373
0.00572556242
0.00103315166
0.00111794675
0.0068094161
0.00612944135
0.00099347145
0.000839665616
0.00733389412
0.00746714647
0.00588720962
0.00101487765
0.00107641568
0.00680655826
0.00619135794
0.00100554136
0.00116559579
0.00687103031
0.00622333668
0.000996362109
0.00128095823
0.00695237371
0.00627320086
0.000990006543
0.00135882826
0.00700426791
0.00631453235
0.000982161374
0.00143148772
0.0070873586
0.00634052307
0.000981700534
0.000847335862
0.00750484838
0.00756143882
0.00601308867
0.00101911264
0.000791070742
0.00685470312
0.00635474868
0.00101048335
0.000898665381
0.00700932295
0.00641150286
0.000999991686
0.000875441384
0.00735471463
0.00752770076
0.00609204265
0.00102174963
0.000763106501
0.00694669984
0.00644865771
0.00101451961
0.000896827985
0.00727013433
0.00747685777
0.00610835603
0.00103719479
0.000820838963
0.0068343498
0.00650577982
0.00103480427
0.000823668603
0.00693965404
0.00659096967
0.00102576384
0.000825931103
0.00703422449
0.00668295579
0.00101426118
0.00082002818
0.00716907642
0.00671702335
0.0010065442
0.000930646588
0.0073034829
0.00761296616
0.00646266981
0.00103678002
0.000905450374
0.00687867371
0.00669131634
0.00104286095
0.000906439952
0.00697235425
0.00675124567
0.00103054248
0.000909302688
0.00706248733
0.00671885829
0.00102003947
0.000972608146
0.00721025191
0.00751965266
0.0064899737
0.00104738993
0.000960346374
0.00674105303
0.00663955458
0.00105811826
0.000971718701
0.00687301522
0.00661420465
0.00103850863
0.00100648354
0.00712707613
0.00746089228
0.00649234113
0.00104662554
0.00099120107
0.00678563862
0.00665126366
0.00103903485
0.00102391979
0.00717097574
0.00726284116
0.00688609187
0.00692608893
0.00519610355
0.00108549819
0.00104668157
0.00660661226
0.00709018141
0.0058659454
0.00107056884
0.00102750002
0.00647993841
0.00658867626
0.00101274724
0.00101154214
0.00675521334
0.00675718478
0.000979872351
0.00101869278
0.00710317823
0.00729491454
0.00722220385
0.00640697459
0.00102941692
0.0010926762
0.00515167293
0.00680376272
0.00581736334
0.0010510184
0.00106329624
0.00624225119
0.0070648513
0.00568825365
0.0010161937
0.00109617074
0.00374601537
0.00689633077
0.00705810479
0.0062590554
0.000991351435
0.00104994482
0.00627489606
0.00719077605
0.0064984737
0.000975116929
0.00104615266
0.0061248506
0.00655388969
0.000851382899
0.00104643841
0.00640892696
0.00731466404
0.00659744228
0.000931059783
0.00104491523
0.00608451732
0.00723249704
0.00652969298
0.000925176217
0.00104521228
0.00601053617
0.00727132976
0.00663820193
0.000906711875
0.00104942306
0.0061245186
0.00700166829
0.00703220699
0.0063780415
0.000937778158
0.00106250281
0.0056770366
0.00709269778
0.00646248914
0.000923321373
0.00105444879
0.00569184648
0.00712727787
0.00668426262
0.000918375035
0.00105237014
0.00579557151
0.00661128603
0.00078238712
0.00103735041
0.00615866975
0.00669261257
0.000738830406
0.00103134453
0.00621099084
0.00743316005
0.00693296347
0.000879790115
0.00103899182
0.00592122067
0.00728792838
0.0068978022
0.000906132119
0.001054081
0.00596176501
0.00662227789
0.000770951629
0.00104553945
0.00616492091
0.00735004941
0.00700261205
0.000905294996
0.00105171726
0.006054025
0.00668710855
0.000777505475
0.00104173754
0.00623115219
0.00743292689
0.00698777274
0.00089918022
0.00104358235
0.0059856864
0.00735644563
0.0068903206
0.000914870537
0.00105424418
0.00596353583
0.00729472274
0.0069665408
0.00093216926
0.00106733859
0.00610979326
0.00675063198
0.000819358036
0.0010610501
0.00641844458
0.006807658
0.000808519183
0.00104776139
0.00642584735
0.00746896242
0.00720478243
0.000923618515
0.00105711114
0.00626069176
0.00683520092
0.000830721342
0.00106220104
0.00649214732
0.00685713151
0.000827559893
0.00105170329
0.00639155676
0.00736965978
0.0068594637
0.000952919502
0.00112373807
0.00478414675
0.00624783564
0.0061739448
0.00612526719
0.00658356369
0.00643857983
0.00101962348
0.0011026708
0.00623198559
0.00679984348
0.000874595555
0.00106130583
0.00634311841
0.00738390775
0.00710510246
0.00096359363
0.00107278253
0.00640285883
0.00688411236
0.000891960738
0.00107055845
0.00660197572
0.00694412477
0.00089032841
0.00106861588
0.00666145163
0.00692871342
0.000905307369
0.00104715688
0.00651186816
0.00753346489
0.00708895851
0.000975294532
0.00106113993
0.00600744414
0.00726913326
0.00674045521
0.00100445562
0.00108263979
0.00581134059
0.00720658065
0.00670940705
0.00101124064
0.00107305046
0.00597338424
0.00736928228
0.00699865328
0.00100003325
0.00107160699
0.00644390145
0.00676300304
0.000968290385
0.0010569631
0.00629210981
0.00742139486
0.00698634364
0.00100410194
0.00105989763
0.00653530202
0.00682886858
0.000970669569
0.00104320375
0.00631839311
0.00749942031
0.00696627016
0.00100274784
0.00105749939
0.00574926434
0.00717541235
0.00557972793
0.00100038316
0.00114240505
0.00104165158
0.00588301399
0.00713570537
0.00694546765
0.00686332864
0.00703708052
0.00618234397
0.00105503951
0.00111817406
0.00497478765
0.00685739601
0.00614604011
0.00107307299
0.00109913298
0.00565545422
0.00688502321
0.00701991847
0.00613861595
0.00105786794
0.00108830429
0.00542891955
0.00723392654
0.00676586534
0.00102885028
0.00106758436
)
;

boundaryField
{
    closed
    {
        type            calculated;
        value           uniform 5.76940899e-07;
    }
    open
    {
        type            calculated;
        value           nonuniform List<scalar> 0();
    }
    sides
    {
        type            empty;
    }
    procBoundary0to1
    {
        type            processor;
        value           uniform 0.00516643029;
    }
}


// ************************************************************************* //
