/*--------------------------------*- C++ -*----------------------------------*\
| =========                 |                                                 |
| \\      /  F ield         | OpenFOAM: The Open Source CFD Toolbox           |
|  \\    /   O peration     | Version:  2306                                  |
|   \\  /    A nd           | Website:  www.openfoam.com                      |
|    \\/     M anipulation  |                                                 |
\*---------------------------------------------------------------------------*/
FoamFile
{
    version     2.0;
    format      ascii;
    arch        "LSB;label=32;scalar=64";
    class       volScalarField;
    location    "0.00164";
    object      prefDh_T;
}
// * * * * * * * * * * * * * * * * * * * * * * * * * * * * * * * * * * * * * //

dimensions      [1 1 -3 -1 0 0 0];

internalField   nonuniform List<scalar> 
531
(
-0.000597553975
-0.000503776963
-0.000522870888
-0.000437039064
-0.000438484642
-0.00072835306
-0.00074107393
-0.000736879016
-0.000741591671
-0.000740810417
-0.000521960562
-0.00047048762
-0.000728696248
-0.000738426608
-0.000560388822
-0.000415807141
-0.000456749786
-0.000729881529
-0.000741465883
-0.00073668042
-0.000742273934
-0.000741826442
-0.000602349553
-0.000517328372
-0.000495726613
-0.000495636565
-0.000733972021
-0.000743294952
-0.000525183104
-0.000502270454
-0.00073548639
-0.000743375623
-0.000521384552
-0.000518622175
-0.000735397278
-0.000740118065
-0.000739387314
-0.000578316859
-0.000530211587
-0.000733846362
-0.000726313605
-0.000735213658
-0.00070171001
-0.000534138137
-0.00049339298
-0.000495437786
-0.000493095094
-0.000433892332
-0.000454090433
-0.000737874825
-0.000744695848
-0.000740974324
-0.000746995343
-0.000744519556
-0.000594121272
-0.000507375477
-0.000524323908
-0.000742020869
-0.000750547451
-0.000588552989
-0.000565278816
-0.000745566178
-0.000747021805
-0.000590805847
-0.000567937898
-0.000545617166
-0.000545626679
-0.000745960166
-0.000746537118
-0.000600525081
-0.000560862307
-0.000536082722
-0.000533556258
-0.000487771934
-0.000501137161
-0.000746115993
-0.000748091237
-0.000745711535
-0.000749661039
-0.000599417518
-0.000588396675
-0.000748769945
-0.000746557919
-0.000591789288
-0.000571912464
-0.00053909958
-0.000539951476
-0.000749581016
-0.000746453031
-0.000590973589
-0.000497506097
-0.000518035846
-0.000745205164
-0.000751302303
-0.000555885417
-0.000557821243
-0.000748345292
-0.000746241147
-0.00074688126
-0.000594481389
-0.000523825487
-0.000518074924
-0.000540541284
-0.000750296173
-0.000597602726
-0.000508424019
-0.000751824291
-0.000743525645
-0.000592518194
-0.00049708105
-0.000543338832
-0.000743569775
-0.000748020195
-0.000742922414
-0.000590439208
-0.000520203016
-0.000540593923
-0.000747488306
-0.000746390919
-0.000587177533
-0.000488170692
-0.000511694269
-0.000744137172
-0.000747906567
-0.000532291304
-0.000525415292
-0.000748546883
-0.000744034326
-0.000747044929
-0.000744590558
-0.000592080253
-0.000528130094
-0.000552830545
-0.000498542021
-0.00050461421
-0.000748237003
-0.000743974461
-0.000588967285
-0.000477620644
-0.000557311211
-0.000743125389
-0.000588981996
-0.000498948136
-0.000751602287
-0.000742729564
-0.000585993678
-0.000466856914
-0.000511671626
-0.000743149256
-0.000748385909
-0.000743386736
-0.000747971654
-0.000744031219
-0.000596922916
-0.000520798249
-0.000537484188
-0.000748056825
-0.000746820533
-0.000589989167
-0.000532674606
-0.000554436745
-0.000501936461
-0.000507098946
-0.000747284989
-0.000745889217
-0.000558557681
-0.000525303748
-0.000749378014
-0.00074403234
-0.000597414822
-0.000482693377
-0.000521257091
-0.000743617505
-0.000746254912
-0.000743508755
-0.000745271544
-0.00074325039
-0.000600523405
-0.000540973764
-0.000518809851
-0.00050649145
-0.000746808206
-0.00074455099
-0.00052860399
-0.000423129247
-0.000442767332
-0.000742956525
-0.00074464113
-0.000743731194
-0.000744777295
-0.000578115278
-0.000522742369
-0.000744013277
-0.000743790488
-0.000583138329
-0.000528864394
-0.000503631291
-0.000506719814
-0.000746043869
-0.000742486547
-0.000746862868
-0.000745660026
-0.000598659309
-0.000539479426
-0.000540267317
-0.000535572043
-0.000741074536
-0.000743928613
-0.000583364189
-0.000533843764
-0.000511070391
-0.000511168969
-0.000740379364
-0.000743685593
-0.000526351968
-0.000516208487
-0.000737658848
-0.000744576358
-0.000520507438
-0.000524432926
-0.000741773949
-0.000744012897
-0.000745730085
-0.000584574415
-0.000511058411
-0.000739064624
-0.000744231778
-0.000582625033
-0.000489873937
-0.000502321751
-0.000738756824
-0.000748194556
-0.000580822677
-0.0005554668
-0.000738680002
-0.000744570394
-0.000593526719
-0.000566747357
-0.000536277779
-0.000554658596
-0.000745591432
-0.00060236112
-0.000509220934
-0.000739087443
-0.000743664931
-0.000540188271
-0.000525462653
-0.00074030451
-0.000740086662
-0.000512190856
-0.000521582857
-0.000742189238
-0.000741164287
-0.000740607583
-0.000554573989
-0.000493515574
-0.000740842894
-0.000736226769
-0.000510189517
-0.000521806718
-0.000741799343
-0.000739551098
-0.000737276689
-0.000590741629
-0.000475060571
-0.000459427422
-0.00047640014
-0.000740863166
-0.000736069782
-0.000737586834
-0.000538356774
-0.000494268211
-0.00074047096
-0.000735178648
-0.00073860926
-0.000734501689
-0.000607145706
-0.000520518976
-0.000516277479
-0.000477926677
-0.000385275854
-0.000405698262
-0.000740261899
-0.000737823008
-0.000738302488
-0.000738163401
-0.000737264209
-0.000738618194
-0.00056731603
-0.000506303554
-0.000745084239
-0.000737141813
-0.000570994239
-0.000463205333
-0.000507180489
-0.000741214217
-0.000741027642
-0.000737431157
-0.00060400161
-0.00053273629
-0.000530537649
-0.000499653775
-0.000425269378
-0.000441603454
-0.000743433853
-0.000740897067
-0.000738719724
-0.000741717989
-0.000735126344
-0.000568066554
-0.000467462826
-0.000485252271
-0.000741795473
-0.00074283865
-0.000531117446
-0.00053448641
-0.000746641828
-0.000742397222
-0.000741642993
-0.000578002825
-0.000526589518
-0.000751541621
-0.000741946657
-0.000599138881
-0.000479508779
-0.000512964588
-0.000747243432
-0.000748338802
-0.000744431491
-0.000581887731
-0.000492250469
-0.000509032147
-0.00075330688
-0.000750378009
-0.000592944731
-0.000486143753
-0.000503696343
-0.00075515047
-0.000757365493
-0.000562048662
-0.000512939428
-0.000764753633
-0.000760487675
-0.000577359374
-0.000461064388
-0.000478468562
-0.000771538824
-0.000776202262
-0.000520498994
-0.000455999717
-0.000788190444
-0.000790829769
-0.000513851061
-0.000372902327
-0.000397361999
-0.000801449829
-0.000807958581
-0.000804133574
-0.000805332853
-0.000806456113
-0.000801778021
-0.000459905727
-0.000416435377
-0.00077367531
-0.000787691194
-0.000774907554
-0.000398078936
-0.000353869708
-0.000743640879
-0.000757074174
-0.000745660987
-0.000752924174
-0.000746652336
-0.000750823953
-0.000746928192
-0.000750675498
-0.000748208757
-0.000753017768
-0.000753110073
-0.000760668562
-0.000765926392
-0.000780935158
-0.000799394484
-0.00084242994
-0.000878017491
-0.000835683572
-0.000800556838
-0.000762868255
-0.000731451389
-0.000701510504
-0.000675328257
-0.000654436563
-0.000635832852
-0.000614217351
-0.000587789084
-0.000577256941
-0.000574454564
-0.000551072605
-0.000532394201
-0.000510672046
-0.000501861844
-0.000480895001
-0.000484981901
-0.000432625575
-0.000428829641
-0.000350921517
-0.000362485895
-0.000287434472
-0.000769394097
-0.000659181686
-0.000659674323
-0.000524274171
-0.000499589422
-0.000384742726
-0.000339567647
-0.000242238419
-0.000181765246
-9.62792088e-05
-2.6786512e-05
-1.96939505e-05
-0.000150784549
-9.32852723e-05
1.52858102e-06
-2.69320639e-05
-0.000392750562
-0.000421560192
-0.000464511204
-0.000401973732
-0.000745928846
-0.000788656748
-0.000791401417
-0.000832705093
-0.000758828977
-0.000762939696
-0.000633111377
-0.00056521429
-0.000359568158
-0.000274779279
-0.000134499804
-7.0671523e-05
-1.45335769e-05
-1.43593814e-06
1.36217925e-05
9.63613547e-06
-2.96771537e-06
-1.3147896e-05
-6.529688e-05
-0.00010004552
-0.000144478655
-0.000144462708
-0.000156929642
-0.000123557641
-0.000118781181
-6.37794276e-05
-4.46482319e-05
2.28607192e-05
4.59797795e-05
0.000105838116
0.000123849687
0.000191774709
0.000244202759
0.000364774237
0.000456185671
0.000617947801
0.000730980151
0.000928248363
0.00106191891
0.00128608735
0.00144389271
0.00171682587
0.00183373495
0.00202244698
0.00213152491
0.00231585414
0.00242238347
0.00260539311
0.00271489175
0.00289297548
0.00299833108
0.00317597054
0.00329991039
0.00349565553
0.00361363386
0.00377793932
0.0038740311
0.00402430395
0.00411419313
0.00424969072
0.00433212794
0.00445978526
0.00453792969
0.00465835688
0.00473378595
0.00484896198
0.00492212019
0.00502593338
0.00509918218
0.00520298132
0.00527248982
0.00536957336
0.00543451295
0.00552336707
0.00558339362
0.00566578113
0.0057220831
0.00579896974
0.00585004218
0.00591694284
0.00596363375
0.00602729736
0.0060724972
0.00613316978
0.00617697386
0.00623414303
0.00627563582
0.00632997522
0.00637053505
0.00642276581
0.00646239727
0.00651263409
0.00655435722
0.00660419919
0.00664366139
0.00668760626
0.00672040804
0.0067596175
0.00679112808
0.00682821857
0.0068583158
0.00689344253
0.00692222473
)
;

boundaryField
{
    closed
    {
        type            calculated;
        value           nonuniform List<scalar> 0();
    }
    open
    {
        type            calculated;
        value           nonuniform List<scalar> 0();
    }
    sides
    {
        type            empty;
    }
    procBoundary4to3
    {
        type            processor;
        value           uniform -0.000746152727;
    }
    procBoundary4to5
    {
        type            processor;
        value           uniform 0.00695553031;
    }
}


// ************************************************************************* //
