/*--------------------------------*- C++ -*----------------------------------*\
| =========                 |                                                 |
| \\      /  F ield         | OpenFOAM: The Open Source CFD Toolbox           |
|  \\    /   O peration     | Version:  2306                                  |
|   \\  /    A nd           | Website:  www.openfoam.com                      |
|    \\/     M anipulation  |                                                 |
\*---------------------------------------------------------------------------*/
FoamFile
{
    version     2.0;
    format      ascii;
    arch        "LSB;label=32;scalar=64";
    class       volScalarField;
    location    "0.00164";
    object      prefDZ_T;
}
// * * * * * * * * * * * * * * * * * * * * * * * * * * * * * * * * * * * * * //

dimensions      [1 -1 -1 -1 0 0 0];

internalField   nonuniform List<scalar> 
531
(
-1.19253611e-09
-1.18742366e-09
-1.18784345e-09
-1.18496874e-09
-1.18472059e-09
-1.23144088e-09
-1.22800765e-09
-1.22905222e-09
-1.22770442e-09
-1.22784851e-09
-1.18784538e-09
-1.18608585e-09
-1.23137148e-09
-1.22853572e-09
-1.1892636e-09
-1.18427163e-09
-1.18538752e-09
-1.23069144e-09
-1.22727818e-09
-1.22853549e-09
-1.22656963e-09
-1.22718869e-09
-1.1909489e-09
-1.18792107e-09
-1.18697016e-09
-1.18696153e-09
-1.23028069e-09
-1.22755614e-09
-1.1880282e-09
-1.18713805e-09
-1.23033488e-09
-1.22738996e-09
-1.18789413e-09
-1.18782355e-09
-1.2303464e-09
-1.22677756e-09
-1.22825344e-09
-1.19014617e-09
-1.18860513e-09
-1.22987639e-09
-1.22914935e-09
-1.22813681e-09
-1.23204938e-09
-1.18840101e-09
-1.18746797e-09
-1.18701236e-09
-1.18698227e-09
-1.18469727e-09
-1.18526477e-09
-1.2298303e-09
-1.22708165e-09
-1.22834813e-09
-1.22614548e-09
-1.22689627e-09
-1.19255113e-09
-1.18744683e-09
-1.18762685e-09
-1.22772065e-09
-1.22636646e-09
-1.19034031e-09
-1.18931914e-09
-1.22753103e-09
-1.22599019e-09
-1.19912571e-09
-1.1894539e-09
-1.18859792e-09
-1.1886012e-09
-1.2274007e-09
-1.22615693e-09
-1.20720281e-09
-1.1890909e-09
-1.18831243e-09
-1.1880503e-09
-1.18646907e-09
-1.18680541e-09
-1.2280838e-09
-1.22670049e-09
-1.22675967e-09
-1.22621116e-09
-1.1915996e-09
-1.19025518e-09
-1.22693336e-09
-1.22573501e-09
-1.20234272e-09
-1.18959584e-09
-1.18827324e-09
-1.18835882e-09
-1.22699742e-09
-1.22689982e-09
-1.19013149e-09
-1.18693752e-09
-1.18727972e-09
-1.22754634e-09
-1.2263987e-09
-1.18907318e-09
-1.18899784e-09
-1.22793693e-09
-1.22561394e-09
-1.22736391e-09
-1.19349374e-09
-1.18783682e-09
-1.18749572e-09
-1.18841478e-09
-1.22760249e-09
-1.19133993e-09
-1.18726967e-09
-1.22631458e-09
-1.22720493e-09
-1.19259292e-09
-1.18704926e-09
-1.18831115e-09
-1.2278162e-09
-1.22562852e-09
-1.22706295e-09
-1.19676394e-09
-1.1877822e-09
-1.18835904e-09
-1.22675667e-09
-1.22690121e-09
-1.19015417e-09
-1.18662143e-09
-1.1871892e-09
-1.22765295e-09
-1.22682295e-09
-1.18817253e-09
-1.18787215e-09
-1.22764931e-09
-1.22687867e-09
-1.22658563e-09
-1.22675628e-09
-1.19711467e-09
-1.18810255e-09
-1.18894005e-09
-1.1868583e-09
-1.18712579e-09
-1.22675778e-09
-1.22728435e-09
-1.19017802e-09
-1.18636065e-09
-1.18891208e-09
-1.22801459e-09
-1.19926776e-09
-1.18703031e-09
-1.22597456e-09
-1.22742372e-09
-1.18994921e-09
-1.18590627e-09
-1.18707068e-09
-1.22815762e-09
-1.22632927e-09
-1.22765611e-09
-1.22579681e-09
-1.22705785e-09
-1.19135142e-09
-1.18779649e-09
-1.18819575e-09
-1.2263195e-09
-1.22642657e-09
-1.19757635e-09
-1.18819653e-09
-1.18888195e-09
-1.18697231e-09
-1.18707621e-09
-1.22696512e-09
-1.22696905e-09
-1.18899201e-09
-1.18797919e-09
-1.22631157e-09
-1.22714831e-09
-1.19046185e-09
-1.18647561e-09
-1.18753864e-09
-1.22783788e-09
-1.22634524e-09
-1.22734845e-09
-1.22589173e-09
-1.22678422e-09
-1.19125612e-09
-1.18872336e-09
-1.18754054e-09
-1.18728827e-09
-1.22744238e-09
-1.22760389e-09
-1.18789995e-09
-1.18409438e-09
-1.18463314e-09
-1.22820526e-09
-1.22783228e-09
-1.22713809e-09
-1.22745949e-09
-1.18993824e-09
-1.18794138e-09
-1.22669128e-09
-1.22677916e-09
-1.19008051e-09
-1.18827688e-09
-1.18699776e-09
-1.18733153e-09
-1.22777012e-09
-1.22716067e-09
-1.22650628e-09
-1.2266008e-09
-1.19299445e-09
-1.18858041e-09
-1.18851298e-09
-1.18834847e-09
-1.2276646e-09
-1.22685408e-09
-1.190153e-09
-1.18840161e-09
-1.18745899e-09
-1.18747565e-09
-1.2282816e-09
-1.22720627e-09
-1.18788896e-09
-1.18762063e-09
-1.22900744e-09
-1.22710245e-09
-1.18760684e-09
-1.18794262e-09
-1.22897419e-09
-1.22637812e-09
-1.22779492e-09
-1.18995554e-09
-1.18749015e-09
-1.22844583e-09
-1.2271978e-09
-1.18977258e-09
-1.1867506e-09
-1.18683399e-09
-1.2281785e-09
-1.22670881e-09
-1.18993396e-09
-1.18904376e-09
-1.22822335e-09
-1.22639162e-09
-1.19450942e-09
-1.18963287e-09
-1.18827726e-09
-1.18916601e-09
-1.22822093e-09
-1.19151564e-09
-1.18728038e-09
-1.2283684e-09
-1.22719964e-09
-1.18855767e-09
-1.18797383e-09
-1.22890427e-09
-1.22791742e-09
-1.18746329e-09
-1.18784818e-09
-1.22939026e-09
-1.22684857e-09
-1.2289279e-09
-1.18915121e-09
-1.18687963e-09
-1.22869843e-09
-1.22864771e-09
-1.18748274e-09
-1.18795435e-09
-1.22910605e-09
-1.22659512e-09
-1.22911886e-09
-1.19065275e-09
-1.18650422e-09
-1.18560839e-09
-1.18639838e-09
-1.22944771e-09
-1.22761875e-09
-1.22925414e-09
-1.18877853e-09
-1.18709478e-09
-1.22883436e-09
-1.22787306e-09
-1.22746898e-09
-1.22801525e-09
-1.19256159e-09
-1.18833772e-09
-1.18791733e-09
-1.18658183e-09
-1.18287588e-09
-1.18363909e-09
-1.23001748e-09
-1.2289059e-09
-1.22926925e-09
-1.22868174e-09
-1.2279218e-09
-1.22853331e-09
-1.189798e-09
-1.18751407e-09
-1.22748235e-09
-1.22828139e-09
-1.18978397e-09
-1.18599736e-09
-1.18725749e-09
-1.22792238e-09
-1.22642547e-09
-1.22774584e-09
-1.19233291e-09
-1.18864542e-09
-1.18833264e-09
-1.18725369e-09
-1.18429675e-09
-1.18485466e-09
-1.22911576e-09
-1.22773521e-09
-1.22890422e-09
-1.22692432e-09
-1.22846469e-09
-1.18963255e-09
-1.18615895e-09
-1.18633178e-09
-1.227882e-09
-1.22779239e-09
-1.1883797e-09
-1.18831334e-09
-1.2282955e-09
-1.22636312e-09
-1.2281217e-09
-1.18998648e-09
-1.18816851e-09
-1.22674884e-09
-1.22768957e-09
-1.1906717e-09
-1.18632831e-09
-1.18717966e-09
-1.22768636e-09
-1.2261577e-09
-1.22744614e-09
-1.18980359e-09
-1.18665346e-09
-1.18688933e-09
-1.22706453e-09
-1.22725771e-09
-1.19061709e-09
-1.186196e-09
-1.18648241e-09
-1.22712411e-09
-1.22662511e-09
-1.18874063e-09
-1.18672032e-09
-1.22646986e-09
-1.22671165e-09
-1.1887919e-09
-1.1844922e-09
-1.18466089e-09
-1.22686242e-09
-1.22603463e-09
-1.18604247e-09
-1.18319941e-09
-1.22598199e-09
-1.22593081e-09
-1.18482698e-09
-1.17893649e-09
-1.1794558e-09
-1.22572547e-09
-1.22359507e-09
-1.22326595e-09
-1.22154619e-09
-1.22067291e-09
-1.21919463e-09
-1.17923472e-09
-1.17646511e-09
-1.2175217e-09
-1.2137938e-09
-1.21407973e-09
-1.17338985e-09
-1.17068904e-09
-1.20995976e-09
-1.20638785e-09
-1.20575366e-09
-1.2022176e-09
-1.20115495e-09
-1.19774357e-09
-1.19618235e-09
-1.19298147e-09
-1.19097868e-09
-1.18800799e-09
-1.18569598e-09
-1.18293185e-09
-1.18047824e-09
-1.17808501e-09
-1.17602084e-09
-1.17487961e-09
-1.17426742e-09
-1.17030645e-09
-1.16657759e-09
-1.16202261e-09
-1.15756437e-09
-1.15259864e-09
-1.14724285e-09
-1.14196566e-09
-1.13558191e-09
-1.13030455e-09
-1.12420302e-09
-1.12104494e-09
-1.11960566e-09
-1.11454992e-09
-1.10878052e-09
-1.10072644e-09
-1.09457174e-09
-1.08316108e-09
-1.07847188e-09
-1.06098471e-09
-1.05821559e-09
-1.03575967e-09
-1.03623755e-09
-1.01112815e-09
-1.05004438e-09
-1.02109593e-09
-1.01930421e-09
-9.88731765e-10
-9.81911186e-10
-9.54473592e-10
-9.42820364e-10
-9.18350432e-10
-9.02691872e-10
-8.80489696e-10
-8.61671453e-10
-8.47218357e-10
-8.39663248e-10
-8.23892658e-10
-8.00025142e-10
-7.89480017e-10
-7.56375297e-10
-7.71040137e-10
-7.29284507e-10
-7.43149779e-10
-6.25446413e-10
-6.3245395e-10
-5.79064764e-10
-5.75161088e-10
-5.34377245e-10
-5.18213223e-10
-4.81508493e-10
-4.55927814e-10
-4.18184021e-10
-3.93060792e-10
-3.69630897e-10
-3.51250608e-10
-3.2739761e-10
-3.11418107e-10
-2.95376755e-10
-2.82873077e-10
-2.69469528e-10
-2.57945657e-10
-2.4513849e-10
-2.33403625e-10
-2.2309088e-10
-2.13746672e-10
-2.06678164e-10
-1.99435646e-10
-1.93523893e-10
-1.87211249e-10
-1.82314796e-10
-1.76884882e-10
-1.72954255e-10
-1.68500796e-10
-1.65466096e-10
-1.6171702e-10
-1.59185274e-10
-1.55728212e-10
-1.53533612e-10
-1.50408371e-10
-1.48453138e-10
-1.45611072e-10
-1.43813449e-10
-1.4120488e-10
-1.39477955e-10
-1.36787181e-10
-1.35784018e-10
-1.34296915e-10
-1.3345014e-10
-1.32125148e-10
-1.31362952e-10
-1.30141205e-10
-1.29406839e-10
-1.28273856e-10
-1.27610608e-10
-1.26512853e-10
-1.25734125e-10
-1.24519501e-10
-1.23757324e-10
-1.22782459e-10
-1.22219442e-10
-1.21358932e-10
-1.20838185e-10
-1.20074993e-10
-1.19603991e-10
-1.1888989e-10
-1.18443689e-10
-1.17767718e-10
-1.1733757e-10
-1.16692468e-10
-1.16276653e-10
-1.15693787e-10
-1.15271545e-10
-1.14685363e-10
-1.142873e-10
-1.13741579e-10
-1.13365114e-10
-1.12854772e-10
-1.12506916e-10
-1.1203742e-10
-1.11715167e-10
-1.11280241e-10
-1.10987376e-10
-1.10600751e-10
-1.10330453e-10
-1.09964086e-10
-1.09704745e-10
-1.09357058e-10
-1.09107933e-10
-1.08772714e-10
-1.08524881e-10
-1.08200216e-10
-1.07958989e-10
-1.07647288e-10
-1.07412533e-10
-1.07113101e-10
-1.06861769e-10
-1.06561571e-10
-1.06324949e-10
-1.06056181e-10
-1.05852548e-10
-1.05606903e-10
-1.05410841e-10
-1.05179335e-10
-1.0499326e-10
-1.04774854e-10
-1.04598011e-10
)
;

boundaryField
{
    closed
    {
        type            calculated;
        value           nonuniform List<scalar> 0();
    }
    open
    {
        type            calculated;
        value           nonuniform List<scalar> 0();
    }
    sides
    {
        type            empty;
    }
    procBoundary4to3
    {
        type            processor;
        value           uniform -1.22619649e-09;
    }
    procBoundary4to5
    {
        type            processor;
        value           uniform -1.04391748e-10;
    }
}


// ************************************************************************* //
