/*--------------------------------*- C++ -*----------------------------------*\
| =========                 |                                                 |
| \\      /  F ield         | OpenFOAM: The Open Source CFD Toolbox           |
|  \\    /   O peration     | Version:  2306                                  |
|   \\  /    A nd           | Website:  www.openfoam.com                      |
|    \\/     M anipulation  |                                                 |
\*---------------------------------------------------------------------------*/
FoamFile
{
    version     2.0;
    format      ascii;
    arch        "LSB;label=32;scalar=64";
    class       volScalarField;
    location    "0.00164";
    object      rho;
}
// * * * * * * * * * * * * * * * * * * * * * * * * * * * * * * * * * * * * * //

dimensions      [1 -3 0 0 0 0 0];

internalField   nonuniform List<scalar> 
531
(
0.939448889
0.957858821
0.954263212
0.970114098
0.969811282
0.906129969
0.904257993
0.904914484
0.904234735
0.904377525
0.954625869
0.964153936
0.906199598
0.904767344
0.947570826
0.974191042
0.966631754
0.90605718
0.904341894
0.905053575
0.904241317
0.904259687
0.939716072
0.955570844
0.959461463
0.959464493
0.905291614
0.903901003
0.953963786
0.958142554
0.904965719
0.903826045
0.954587152
0.955086949
0.904901355
0.904335291
0.904336837
0.944036875
0.952998489
0.905096734
0.906395865
0.904952316
0.910499398
0.952031475
0.959702769
0.959125192
0.959557156
0.970319084
0.966568644
0.904254183
0.903285572
0.903809797
0.902937981
0.903289927
0.939544401
0.956788003
0.953467552
0.903611477
0.902265804
0.941705454
0.945934648
0.903002758
0.902859621
0.93729668
0.945444807
0.949565177
0.949560414
0.902938691
0.902925682
0.932857346
0.94671183
0.951372195
0.951766008
0.960254453
0.95774177
0.90289337
0.902662327
0.903062505
0.902442379
0.939245984
0.941723154
0.90255554
0.903011215
0.935951539
0.944773355
0.950804424
0.950673526
0.90242656
0.902957721
0.941128546
0.958557907
0.954601407
0.903116726
0.902170083
0.947772862
0.947335409
0.902548462
0.903056046
0.902824597
0.939099767
0.953644065
0.954643381
0.950526607
0.902207349
0.939525744
0.956452523
0.902023566
0.903349458
0.93964228
0.958592058
0.949865718
0.90328207
0.902681443
0.903435301
0.938235844
0.954271794
0.950425099
0.902678694
0.902850678
0.941809371
0.960154923
0.955709742
0.903171158
0.902594862
0.952002771
0.953250638
0.902429414
0.903239376
0.902754535
0.903154832
0.937879231
0.952808362
0.948211756
0.958194478
0.957095332
0.902546996
0.903226335
0.941450257
0.962131946
0.947286747
0.903319578
0.937405855
0.958182127
0.902036362
0.903424087
0.941931239
0.964075002
0.955658235
0.903295418
0.902539886
0.90328452
0.90263932
0.903210547
0.93951795
0.954115585
0.950932299
0.902567484
0.902761949
0.937901416
0.951879384
0.947789544
0.957490788
0.956497478
0.902605697
0.902832024
0.946964325
0.953206827
0.902266064
0.903095785
0.939710826
0.961017121
0.953771481
0.903073438
0.902721423
0.903100899
0.90289169
0.903156508
0.938888626
0.950242152
0.954151526
0.95648619
0.902438726
0.902789472
0.952271912
0.971617971
0.967963462
0.902936375
0.902657929
0.902835353
0.902613373
0.943045675
0.95326923
0.902709063
0.902713348
0.941968036
0.952062762
0.956518567
0.955993966
0.902080793
0.902677292
0.901943814
0.902087222
0.937713199
0.949707405
0.949467782
0.950287367
0.902557066
0.902086963
0.941318977
0.950452269
0.954543646
0.954484308
0.902350355
0.901836812
0.951522035
0.953404906
0.902644666
0.901600662
0.952494591
0.951860043
0.901956422
0.901784046
0.901430913
0.940750031
0.954520022
0.902680095
0.901980836
0.941370022
0.958801834
0.956503929
0.903282468
0.901927179
0.942480365
0.947362904
0.90384866
0.903124661
0.93880749
0.945946854
0.951607655
0.94843516
0.903444807
0.939480548
0.957004303
0.904745807
0.904094465
0.951467437
0.954174225
0.904557921
0.904637789
0.956529311
0.954757126
0.90402574
0.904306992
0.904184694
0.948410879
0.959558516
0.90391879
0.904620522
0.956242339
0.954042121
0.90342877
0.903919148
0.904073838
0.941144321
0.962414034
0.965125655
0.962043306
0.903258858
0.904174174
0.903796639
0.95066898
0.95873186
0.903339076
0.904300009
0.903760077
0.904421622
0.937468242
0.954083715
0.95476985
0.961827261
0.978603103
0.974916744
0.90339503
0.903889714
0.903789826
0.903857991
0.904063477
0.903794169
0.945437979
0.956647575
0.902770759
0.904042022
0.944655546
0.964515535
0.956329071
0.903340224
0.903461288
0.903961095
0.937931382
0.951744543
0.95203381
0.957711544
0.971204606
0.968201605
0.902752308
0.903257954
0.903526082
0.903142146
0.904124664
0.944909464
0.963458192
0.960020605
0.902960301
0.902768934
0.951662815
0.950929843
0.902020185
0.9028388
0.902819126
0.942808089
0.952310679
0.901174727
0.902694174
0.938632888
0.960803455
0.954488805
0.901720659
0.901624389
0.902174503
0.941681119
0.958306165
0.955048728
0.90065611
0.901122038
0.939235049
0.959280844
0.955891916
0.900299757
0.899958431
0.945092321
0.954116544
0.898725979
0.899422575
0.941912785
0.963590792
0.960177936
0.897571007
0.896850476
0.952235304
0.964110304
0.894853643
0.894414685
0.952925499
0.979229022
0.974497516
0.892668103
0.891734682
0.892411924
0.892349775
0.892225384
0.893147121
0.960773824
0.968605665
0.898096456
0.895991999
0.8981611
0.969945687
0.978478312
0.9038882
0.901850117
0.903873901
0.902890921
0.90405934
0.903590068
0.904381366
0.903954754
0.904521207
0.903873403
0.90399761
0.902825396
0.902018525
0.899459941
0.896221885
0.888469839
0.881807291
0.889158586
0.895227547
0.901723717
0.907098217
0.912188798
0.916574112
0.920023796
0.922975611
0.927231978
0.932540398
0.93454696
0.935685971
0.941396295
0.945493109
0.949491022
0.950545284
0.952997652
0.951002076
0.960841511
0.962660331
0.978532281
0.978117335
0.994132306
0.900533109
0.917995478
0.919746832
0.946697044
0.952852088
0.976974196
0.987358158
1.00884593
1.0227254
1.0423429
1.05838504
1.06021074
1.03364144
1.04595606
1.06667942
1.0572052
0.917167266
0.925021432
0.895765317
0.928667115
0.718357156
0.714530131
0.672162739
0.653862666
0.624922618
0.591059966
0.55338862
0.505734536
0.45999061
0.42262257
0.399437997
0.378787051
0.355112366
0.340043106
0.326880052
0.3169555
0.30675751
0.298357628
0.289031024
0.280953024
0.273791178
0.267809011
0.26323781
0.258925132
0.255077361
0.251310612
0.24804896
0.244706269
0.241971653
0.239067794
0.236800537
0.234182309
0.232317632
0.229927444
0.2284037
0.226202429
0.224793229
0.222773552
0.221427707
0.219510006
0.218114416
0.216017142
0.215217873
0.214174428
0.213485033
0.212520512
0.211878234
0.210960974
0.210329035
0.209471088
0.208892694
0.208055827
0.207375369
0.206418178
0.205751619
0.204984558
0.204474119
0.203801361
0.20333181
0.202742198
0.202318213
0.201771723
0.201371207
0.200856737
0.200470674
0.199980643
0.199606394
0.199173719
0.198786449
0.198334391
0.197964265
0.197541989
0.197188642
0.196794973
0.196467314
0.196107294
0.195802153
0.195469885
0.195192751
0.194906699
0.194652775
0.194381479
0.194137076
0.193879005
0.19364325
0.19339316
0.193158447
0.192913894
0.19268371
0.192446247
0.19222023
0.191989085
0.191748237
0.191512597
0.191283105
0.191074076
0.190878911
0.19069281
0.1905058
0.190328072
0.190148762
0.18997868
0.189806482
)
;

boundaryField
{
    closed
    {
        type            calculated;
        value           nonuniform List<scalar> 0();
    }
    open
    {
        type            calculated;
        value           nonuniform List<scalar> 0();
    }
    sides
    {
        type            empty;
    }
    procBoundary4to3
    {
        type            processor;
        value           uniform 0.90333337;
    }
    procBoundary4to5
    {
        type            processor;
        value           uniform 0.189643389;
    }
}


// ************************************************************************* //
