/*--------------------------------*- C++ -*----------------------------------*\
| =========                 |                                                 |
| \\      /  F ield         | OpenFOAM: The Open Source CFD Toolbox           |
|  \\    /   O peration     | Version:  2306                                  |
|   \\  /    A nd           | Website:  www.openfoam.com                      |
|    \\/     M anipulation  |                                                 |
\*---------------------------------------------------------------------------*/
FoamFile
{
    version     2.0;
    format      ascii;
    arch        "LSB;label=32;scalar=64";
    class       volScalarField;
    location    "0.0005";
    object      H;
}
// * * * * * * * * * * * * * * * * * * * * * * * * * * * * * * * * * * * * * //

dimensions      [0 0 0 0 0 0 0];

internalField   nonuniform List<scalar> 
531
(
2.42030072e-08
1.1590426e-09
5.65665203e-10
4.07446776e-08
4.63683343e-08
1.12404857e-08
1.11591954e-09
2.49054648e-08
4.66973365e-08
2.66687489e-08
1.0159675e-09
1.39508237e-09
1.25801034e-09
1.96610361e-08
4.07726787e-08
4.46717922e-08
4.77617562e-08
2.09746341e-08
1.07922803e-09
2.7864075e-08
4.26307671e-08
1.11057704e-08
1.20865458e-09
2.35870375e-08
4.03886461e-08
2.40039661e-08
1.22629531e-09
1.33429572e-09
2.52697573e-08
4.20187872e-08
4.69468485e-08
4.17987206e-08
1.04594592e-09
1.29648807e-09
2.81348483e-08
4.31007546e-08
2.6854728e-08
1.16385473e-09
1.20349227e-09
3.64671519e-08
4.86211269e-08
2.0553877e-08
8.10865105e-10
1.35190483e-09
8.13059719e-10
3.16441985e-08
4.10520797e-08
3.76587192e-08
4.29350659e-08
4.31620739e-08
1.57235655e-08
1.08153296e-09
1.20589361e-09
9.02133336e-09
4.12696076e-08
4.63034808e-08
1.77575123e-08
1.17857834e-09
1.45851187e-08
3.76453279e-08
3.57396832e-08
1.43855926e-08
1.10976266e-08
2.5824615e-08
2.9226973e-08
2.28971829e-08
1.91863806e-08
2.114681e-08
2.35055041e-08
2.30474041e-08
2.19472389e-08
2.19279983e-08
2.22681836e-08
2.23425583e-08
2.2273424e-08
2.22304352e-08
2.22370281e-08
2.22509401e-08
2.22518705e-08
2.22489244e-08
2.22475484e-08
2.22480103e-08
2.22485985e-08
2.22485395e-08
2.22481435e-08
2.22482111e-08
2.22483375e-08
2.22483104e-08
2.22482463e-08
2.22482479e-08
2.22482621e-08
2.22482594e-08
2.22482532e-08
2.22482516e-08
2.22482515e-08
2.2248251e-08
2.22482505e-08
2.22482502e-08
2.22482499e-08
2.22482497e-08
2.22482497e-08
2.22482496e-08
2.22482495e-08
2.22482495e-08
2.22482495e-08
2.22482495e-08
2.22482494e-08
2.22482494e-08
2.22482494e-08
2.22482496e-08
2.22482495e-08
2.2248249e-08
2.22482491e-08
2.22482502e-08
2.22482505e-08
2.22482482e-08
2.2248247e-08
2.22482507e-08
2.2248254e-08
2.22482491e-08
2.22482424e-08
2.22482463e-08
2.22482598e-08
2.22482589e-08
2.22482375e-08
2.22482348e-08
2.22482562e-08
2.22482669e-08
2.22482513e-08
2.22482331e-08
2.22482392e-08
2.22482619e-08
2.22482626e-08
2.2248244e-08
2.22482388e-08
2.22482475e-08
2.22482561e-08
2.22482538e-08
2.22482462e-08
2.22482461e-08
2.22482499e-08
2.22482511e-08
2.224825e-08
2.22482487e-08
2.22482488e-08
2.22482496e-08
2.22482497e-08
2.22482494e-08
2.22482494e-08
2.22482494e-08
2.22482494e-08
2.22482494e-08
2.22482495e-08
2.22482495e-08
2.22482492e-08
2.22482492e-08
2.22482496e-08
2.22482498e-08
2.22482493e-08
2.22482488e-08
2.22482492e-08
2.22482503e-08
2.22482501e-08
2.22482487e-08
2.22482486e-08
2.22482497e-08
2.22482502e-08
2.22482497e-08
2.22482488e-08
2.22482489e-08
2.22482497e-08
2.22482498e-08
2.22482494e-08
2.22482492e-08
2.22482493e-08
2.22482495e-08
2.22482495e-08
2.22482494e-08
2.22482494e-08
2.22482494e-08
2.22482494e-08
2.22482494e-08
2.22482494e-08
2.22482494e-08
2.22482494e-08
2.22482494e-08
2.22482494e-08
2.22482494e-08
2.22482494e-08
2.22482494e-08
2.22482494e-08
2.22482494e-08
2.22482494e-08
2.22482494e-08
2.22482494e-08
2.22482494e-08
2.22482494e-08
2.22482494e-08
2.22482494e-08
2.22482494e-08
2.22482494e-08
2.22482494e-08
2.22482494e-08
2.22482494e-08
2.22482494e-08
2.22482494e-08
2.22482494e-08
2.22482494e-08
2.22482494e-08
2.22482494e-08
2.22482494e-08
2.22482494e-08
2.22482494e-08
2.22482494e-08
2.22482494e-08
2.22482494e-08
2.22482494e-08
2.22482494e-08
2.22482494e-08
2.22482494e-08
2.22482494e-08
2.22482494e-08
2.22482494e-08
2.22482494e-08
2.22482494e-08
2.22482494e-08
2.22482494e-08
2.22482494e-08
2.22482494e-08
2.22482494e-08
2.22482494e-08
2.22482494e-08
2.22482494e-08
2.22482494e-08
2.22482494e-08
2.22482494e-08
2.22482494e-08
2.22482494e-08
2.22482494e-08
2.22482494e-08
2.22482494e-08
2.22482494e-08
2.22482494e-08
2.22482494e-08
2.22482494e-08
2.22482494e-08
2.22482494e-08
2.22482494e-08
2.22482494e-08
2.22482494e-08
2.22482494e-08
2.22482494e-08
2.22482494e-08
2.22482494e-08
2.22482494e-08
2.22482494e-08
2.22482494e-08
2.22482494e-08
2.22482494e-08
2.22482494e-08
2.22482495e-08
2.22482495e-08
2.22482493e-08
2.22482493e-08
2.22482496e-08
2.22482496e-08
2.22482494e-08
2.22482492e-08
2.22482493e-08
2.22482496e-08
2.22482496e-08
2.22482493e-08
2.22482493e-08
2.22482494e-08
2.22482495e-08
2.22482495e-08
2.22482494e-08
2.22482494e-08
2.22482494e-08
2.22482494e-08
2.22482494e-08
2.22482494e-08
2.22482494e-08
2.22482494e-08
2.22482494e-08
2.22482494e-08
2.22482494e-08
2.22482494e-08
2.22482494e-08
2.22482494e-08
2.22482494e-08
2.22482494e-08
2.22482495e-08
2.22482495e-08
2.22482493e-08
2.22482493e-08
2.22482495e-08
2.22482495e-08
2.22482494e-08
2.22482493e-08
2.22482493e-08
2.22482495e-08
2.22482495e-08
2.22482494e-08
2.22482494e-08
2.22482494e-08
2.22482494e-08
2.22482494e-08
2.22482494e-08
2.22482494e-08
2.22482494e-08
2.22482494e-08
2.22482494e-08
2.22482494e-08
2.22482494e-08
2.22482494e-08
2.22482494e-08
2.22482494e-08
2.22482494e-08
2.22482494e-08
2.22482494e-08
2.22482494e-08
2.22482494e-08
2.22482494e-08
2.22482494e-08
2.22482494e-08
2.22482494e-08
2.22482494e-08
2.22482494e-08
2.22482494e-08
2.22482494e-08
2.22482494e-08
2.22482494e-08
2.22482494e-08
2.22482494e-08
2.22482494e-08
2.22482494e-08
2.22482494e-08
2.22482494e-08
2.22482494e-08
2.22482494e-08
2.22482494e-08
2.22482494e-08
2.22482494e-08
2.22482494e-08
2.22482494e-08
2.22482494e-08
2.22482494e-08
2.22482494e-08
2.22482494e-08
2.22482494e-08
2.22482494e-08
2.22482494e-08
2.22482494e-08
2.22482495e-08
2.22482495e-08
2.22482494e-08
2.22482493e-08
2.22482493e-08
2.22482496e-08
2.22482496e-08
2.22482493e-08
2.22482492e-08
2.22482494e-08
2.22482496e-08
2.22482495e-08
2.22482493e-08
2.22482493e-08
2.22482494e-08
2.22482495e-08
2.22482494e-08
2.22482494e-08
2.22482494e-08
2.22482494e-08
2.22482494e-08
2.22482494e-08
2.22482494e-08
2.22482494e-08
2.22482495e-08
2.22482494e-08
2.22482492e-08
2.22482495e-08
2.224825e-08
2.22482493e-08
2.22482478e-08
2.22482493e-08
2.22482533e-08
2.2248252e-08
2.22482399e-08
2.224824e-08
2.22482687e-08
2.22482717e-08
2.22482202e-08
2.22482004e-08
2.22482828e-08
2.22483491e-08
2.22482337e-08
2.22480746e-08
2.2248195e-08
2.22485196e-08
2.22484516e-08
2.22478893e-08
2.224786e-08
2.22486002e-08
2.22488018e-08
2.22480791e-08
2.22475612e-08
2.22481211e-08
2.22489955e-08
2.22487329e-08
2.22475726e-08
2.22475317e-08
2.22486669e-08
2.22489497e-08
2.22482209e-08
2.22476795e-08
2.22480212e-08
2.22486301e-08
2.22485762e-08
2.2248056e-08
2.22479871e-08
2.22482462e-08
2.22484184e-08
2.22483797e-08
2.22482146e-08
2.22480626e-08
2.22480268e-08
2.22484504e-08
2.22489483e-08
2.22483347e-08
2.22462062e-08
2.22465601e-08
2.22540078e-08
2.22548218e-08
2.22357602e-08
2.22274676e-08
2.22677696e-08
2.2309091e-08
2.22417683e-08
2.20859523e-08
2.21412539e-08
2.26528145e-08
2.26935205e-08
2.15047483e-08
2.10807166e-08
2.31903499e-08
2.5070358e-08
2.19211153e-08
1.71579256e-08
2.06009755e-08
3.19259568e-08
2.97181462e-08
7.25727221e-09
6.49392493e-09
3.43218243e-08
4.17181051e-08
1.52847271e-08
9.68680507e-10
2.27833672e-08
4.44962124e-08
2.77537026e-08
7.97093106e-10
1.46448596e-08
4.08359956e-08
2.75960338e-08
8.45565113e-10
1.40068813e-09
3.65885982e-08
4.39221522e-08
2.34899205e-08
9.79445875e-10
1.15387493e-09
2.18544288e-08
3.65352501e-08
3.66632499e-08
4.02634524e-08
4.06774197e-08
1.78699933e-08
1.08096961e-09
5.72388209e-10
3.45021844e-08
4.08205874e-08
1.44641778e-08
1.09635946e-09
6.4275232e-09
3.77785713e-08
4.33762858e-08
1.53055384e-08
1.01703027e-09
1.00926714e-08
4.24581253e-08
4.80600819e-08
2.06242001e-08
9.19951772e-10
8.96370849e-09
3.99098926e-08
4.38192904e-08
1.53626605e-08
1.06583969e-09
1.2365484e-08
3.82150121e-08
3.92232172e-08
4.99618573e-09
1.17987588e-09
1.19502766e-08
4.4672116e-08
4.91858122e-08
1.63851741e-08
1.0511461e-09
1.17501828e-09
1.62828201e-08
3.64584428e-08
4.6264877e-08
4.66453352e-08
1.4302065e-08
1.06577654e-09
2.65973834e-08
3.90770341e-08
9.05333508e-09
1.14875257e-09
1.65644705e-08
4.04691939e-08
4.13392543e-08
3.94026571e-09
1.22406216e-09
2.8873753e-08
4.35279388e-08
8.78790245e-09
1.08331774e-09
1.99330948e-08
4.43455397e-08
)
;

boundaryField
{
    closed
    {
        type            calculated;
        value           nonuniform List<scalar> 0();
    }
    open
    {
        type            calculated;
        value           nonuniform List<scalar> 0();
    }
    sides
    {
        type            empty;
    }
    procBoundary3to2
    {
        type            processor;
        value           uniform 4.32017805e-08;
    }
    procBoundary3to4
    {
        type            processor;
        value           uniform 4.50402353e-08;
    }
}


// ************************************************************************* //
