/*--------------------------------*- C++ -*----------------------------------*\
| =========                 |                                                 |
| \\      /  F ield         | OpenFOAM: The Open Source CFD Toolbox           |
|  \\    /   O peration     | Version:  2306                                  |
|   \\  /    A nd           | Website:  www.openfoam.com                      |
|    \\/     M anipulation  |                                                 |
\*---------------------------------------------------------------------------*/
FoamFile
{
    version     2.0;
    format      ascii;
    arch        "LSB;label=32;scalar=64";
    class       volScalarField;
    location    "0.0005";
    object      H2O;
}
// * * * * * * * * * * * * * * * * * * * * * * * * * * * * * * * * * * * * * //

dimensions      [0 0 0 0 0 0 0];

internalField   nonuniform List<scalar> 
531
(
0.00482256869
0.00103047767
0.000773861809
0.00690317541
0.00731734748
0.00264424419
0.00102120237
0.00493408249
0.00736606834
0.00520165074
0.000937794144
0.00108216216
0.00105748533
0.0040946267
0.0068944762
0.00722762954
0.00745215581
0.0043010374
0.000979222538
0.00539440941
0.00704764583
0.00261896845
0.00104155614
0.0047309639
0.00687766922
0.0047872749
0.00105587743
0.00106889204
0.00499886902
0.00701938916
0.00739602313
0.00699103104
0.000933888385
0.00106062531
0.00543449302
0.00709544337
0.0052352235
0.00100969114
0.000993366725
0.00662056311
0.0075068482
0.00421581699
0.000927108147
0.00108739665
0.000888557571
0.00596078394
0.00686953474
0.00665697113
0.00705284048
0.00708385227
0.00342578203
0.00101870444
0.0010517012
0.00231539002
0.00695123655
0.0073335658
0.00376206019
0.00102640017
0.00325333768
0.00666153756
0.00650053529
0.003211493
0.00264813524
0.0050808436
0.00560098179
0.00461766078
0.00401402152
0.00433290351
0.00471226367
0.00463822668
0.00446027618
0.00445672834
0.00451137587
0.00452313972
0.00451178493
0.00450467103
0.00450565099
0.00450780273
0.00450790544
0.0045073789
0.00450712596
0.00450717257
0.00450724931
0.00450722578
0.00450714971
0.00450715246
0.0045071667
0.00450715787
0.0045071439
0.00450714169
0.00450714213
0.00450714037
0.00450713842
0.00450713747
0.00450713696
0.00450713652
0.00450713619
0.00450713597
0.0045071358
0.00450713568
0.0045071356
0.00450713555
0.0045071355
0.00450713548
0.00450713547
0.00450713546
0.00450713544
0.00450713543
0.00450713543
0.00450713546
0.00450713545
0.00450713536
0.00450713537
0.00450713556
0.00450713559
0.00450713522
0.00450713503
0.00450713564
0.00450713616
0.00450713537
0.00450713429
0.00450713493
0.0045071371
0.00450713695
0.00450713349
0.00450713306
0.00450713652
0.00450713825
0.00450713573
0.00450713278
0.00450713377
0.00450713744
0.00450713756
0.00450713455
0.00450713371
0.00450713511
0.00450713651
0.00450713613
0.0045071349
0.00450713488
0.00450713551
0.0045071357
0.00450713553
0.0045071353
0.00450713533
0.00450713546
0.00450713547
0.00450713543
0.00450713541
0.00450713542
0.00450713542
0.00450713542
0.00450713545
0.00450713544
0.00450713539
0.00450713539
0.00450713546
0.00450713549
0.00450713541
0.00450713532
0.00450713538
0.00450713556
0.00450713554
0.0045071353
0.00450713529
0.00450713547
0.00450713556
0.00450713547
0.00450713532
0.00450713534
0.00450713548
0.00450713549
0.00450713542
0.00450713539
0.00450713541
0.00450713544
0.00450713544
0.00450713542
0.00450713542
0.00450713542
0.00450713543
0.00450713543
0.00450713542
0.00450713542
0.00450713542
0.00450713542
0.00450713542
0.00450713542
0.00450713542
0.00450713542
0.00450713542
0.00450713542
0.00450713542
0.00450713542
0.00450713542
0.00450713542
0.00450713542
0.00450713542
0.00450713542
0.00450713542
0.00450713542
0.00450713542
0.00450713542
0.00450713542
0.00450713542
0.00450713542
0.00450713542
0.00450713542
0.00450713542
0.00450713542
0.00450713542
0.00450713542
0.00450713542
0.00450713542
0.00450713542
0.00450713542
0.00450713542
0.00450713542
0.00450713542
0.00450713542
0.00450713542
0.00450713542
0.00450713542
0.00450713542
0.00450713542
0.00450713542
0.00450713542
0.00450713542
0.00450713542
0.00450713542
0.00450713542
0.00450713542
0.00450713542
0.00450713542
0.00450713542
0.00450713542
0.00450713542
0.00450713542
0.00450713542
0.00450713542
0.00450713542
0.00450713542
0.00450713542
0.00450713542
0.00450713542
0.00450713542
0.00450713542
0.00450713542
0.00450713542
0.00450713542
0.00450713542
0.00450713543
0.00450713543
0.00450713542
0.00450713542
0.00450713543
0.00450713543
0.00450713542
0.00450713542
0.00450713543
0.00450713544
0.00450713543
0.0045071354
0.0045071354
0.00450713545
0.00450713546
0.00450713541
0.00450713539
0.00450713541
0.00450713546
0.00450713545
0.00450713541
0.0045071354
0.00450713542
0.00450713544
0.00450713543
0.00450713542
0.00450713542
0.00450713542
0.00450713543
0.00450713543
0.00450713542
0.00450713542
0.00450713543
0.00450713543
0.00450713542
0.00450713542
0.00450713543
0.00450713543
0.00450713542
0.00450713542
0.00450713542
0.00450713544
0.00450713543
0.00450713541
0.00450713541
0.00450713543
0.00450713544
0.00450713543
0.00450713541
0.00450713541
0.00450713543
0.00450713543
0.00450713543
0.00450713542
0.00450713542
0.00450713543
0.00450713543
0.00450713542
0.00450713542
0.00450713542
0.00450713542
0.00450713542
0.00450713542
0.00450713542
0.00450713542
0.00450713542
0.00450713542
0.00450713542
0.00450713542
0.00450713542
0.00450713542
0.00450713542
0.00450713542
0.00450713542
0.00450713542
0.00450713542
0.00450713542
0.00450713542
0.00450713542
0.00450713542
0.00450713542
0.00450713542
0.00450713542
0.00450713542
0.00450713542
0.00450713542
0.00450713542
0.00450713542
0.00450713542
0.00450713542
0.00450713542
0.00450713542
0.00450713542
0.00450713542
0.00450713542
0.00450713543
0.00450713542
0.00450713542
0.00450713542
0.00450713543
0.00450713543
0.00450713542
0.00450713542
0.00450713543
0.00450713544
0.00450713542
0.0045071354
0.00450713541
0.00450713545
0.00450713545
0.0045071354
0.00450713539
0.00450713542
0.00450713545
0.00450713544
0.00450713541
0.00450713541
0.00450713543
0.00450713543
0.00450713543
0.00450713542
0.00450713542
0.00450713543
0.00450713543
0.00450713542
0.00450713542
0.00450713543
0.00450713544
0.00450713542
0.00450713539
0.00450713544
0.00450713552
0.00450713541
0.00450713517
0.0045071354
0.00450713606
0.00450713584
0.00450713388
0.0045071339
0.00450713854
0.00450713903
0.0045071307
0.0045071275
0.00450714083
0.00450715155
0.00450713288
0.00450710714
0.00450712662
0.00450717914
0.00450716813
0.00450707716
0.00450707243
0.00450719218
0.00450722478
0.00450710788
0.00450702409
0.00450711466
0.00450725611
0.00450721363
0.00450702594
0.00450701932
0.00450720296
0.00450724871
0.00450713082
0.00450704323
0.0045070985
0.00450719702
0.00450718829
0.00450710414
0.004507093
0.00450713492
0.00450716278
0.00450715654
0.00450712986
0.0045071053
0.0045070996
0.00450716813
0.00450724897
0.00450714971
0.00450680614
0.00450686362
0.00450806968
0.00450820363
0.00450512017
0.0045037895
0.00451030275
0.00451702366
0.0045061116
0.00448100498
0.00448991372
0.0045728041
0.00457940292
0.00438725045
0.00431885392
0.0046599323
0.00496016608
0.00445609821
0.00367848666
0.00424437722
0.00599910177
0.00567443141
0.00197393184
0.00184822591
0.0063459559
0.00694589294
0.00334685263
0.000939707808
0.00459843753
0.00718244979
0.00537153551
0.000884137849
0.0032561387
0.00689834151
0.00534720608
0.000904445447
0.000945496018
0.00659466828
0.00712942135
0.0047002313
0.000974782496
0.00100894034
0.00445493068
0.00654386956
0.00658020323
0.00684043088
0.00688861409
0.00378172179
0.00101313453
0.000836509132
0.0063747683
0.00687909271
0.00319456517
0.00101410012
0.00188632194
0.00668143716
0.00709127838
0.00333091146
0.000979995778
0.00252572236
0.00704814847
0.00747500458
0.00421161949
0.0009400284
0.00231542727
0.00682874199
0.00713294565
0.00333842001
0.000999839749
0.00290970332
0.00668891787
0.00676079361
0.00156540417
0.00104879124
0.00285181394
0.007219344
0.00757134372
0.00349037862
0.000996692291
0.00104719527
0.00356749303
0.00656775627
0.00732543976
0.00736810277
0.00315203638
0.000983763257
0.00520505442
0.00676940541
0.00223437072
0.00103225869
0.00361481388
0.00685651002
0.00693881937
0.00137748259
0.00103929389
0.00554851444
0.00713079658
0.00215621596
0.00099424229
0.00415961255
0.00715967503
)
;

boundaryField
{
    closed
    {
        type            calculated;
        value           nonuniform List<scalar> 0();
    }
    open
    {
        type            calculated;
        value           nonuniform List<scalar> 0();
    }
    sides
    {
        type            empty;
    }
    procBoundary3to2
    {
        type            processor;
        value           uniform 0.00709395186;
    }
    procBoundary3to4
    {
        type            processor;
        value           uniform 0.00723292716;
    }
}


// ************************************************************************* //
