/*--------------------------------*- C++ -*----------------------------------*\
| =========                 |                                                 |
| \\      /  F ield         | OpenFOAM: The Open Source CFD Toolbox           |
|  \\    /   O peration     | Version:  2306                                  |
|   \\  /    A nd           | Website:  www.openfoam.com                      |
|    \\/     M anipulation  |                                                 |
\*---------------------------------------------------------------------------*/
FoamFile
{
    version     2.0;
    format      ascii;
    arch        "LSB;label=32;scalar=64";
    class       volScalarField;
    location    "0.0005";
    object      prefDZ_H2;
}
// * * * * * * * * * * * * * * * * * * * * * * * * * * * * * * * * * * * * * //

dimensions      [1 -1 -1 0 0 0 0];

internalField   nonuniform List<scalar> 
531
(
6.23029732e-05
6.35373765e-05
6.33655356e-05
6.19441155e-05
6.15503504e-05
6.27048585e-05
6.35098924e-05
6.22957012e-05
6.15104228e-05
6.22335863e-05
6.3544663e-05
6.36849231e-05
6.35911688e-05
6.24009347e-05
6.19518185e-05
6.16446482e-05
6.14291479e-05
6.23592292e-05
6.35406328e-05
6.22856524e-05
6.18098689e-05
6.27116053e-05
6.35682504e-05
6.23288275e-05
6.19677229e-05
6.22954344e-05
6.35628736e-05
6.36470928e-05
6.23247701e-05
6.18374146e-05
6.14848317e-05
6.18630538e-05
6.35800013e-05
6.3623504e-05
6.22690353e-05
6.17664313e-05
6.22582676e-05
6.35748778e-05
6.36388508e-05
6.21994706e-05
6.1371534e-05
6.2350646e-05
6.33595536e-05
6.36352805e-05
6.34243191e-05
6.22808583e-05
6.19719103e-05
6.21710458e-05
6.18029556e-05
6.17754936e-05
6.25164857e-05
6.34801036e-05
6.35495744e-05
6.27938216e-05
6.18999186e-05
6.15408701e-05
6.24436464e-05
6.35628621e-05
6.25621007e-05
6.21665588e-05
6.23150226e-05
6.25686808e-05
6.27056935e-05
6.22995459e-05
6.22951304e-05
6.23308365e-05
6.24109551e-05
6.23605229e-05
6.23149611e-05
6.23205616e-05
6.23397067e-05
6.23393728e-05
6.2331902e-05
6.23299965e-05
6.23310064e-05
6.23315576e-05
6.23312731e-05
6.23308228e-05
6.23307187e-05
6.2330687e-05
6.23306597e-05
6.23306003e-05
6.23305557e-05
6.23305318e-05
6.23305181e-05
6.23305021e-05
6.23304885e-05
6.23304811e-05
6.23304759e-05
6.23304714e-05
6.23304678e-05
6.23304655e-05
6.23304639e-05
6.23304627e-05
6.23304618e-05
6.23304612e-05
6.23304608e-05
6.23304605e-05
6.23304603e-05
6.23304601e-05
6.233046e-05
6.23304599e-05
6.23304599e-05
6.23304598e-05
6.23304598e-05
6.23304598e-05
6.23304598e-05
6.23304598e-05
6.23304598e-05
6.23304598e-05
6.23304598e-05
6.23304598e-05
6.23304598e-05
6.23304597e-05
6.23304597e-05
6.23304598e-05
6.23304598e-05
6.23304597e-05
6.23304597e-05
6.23304598e-05
6.23304599e-05
6.23304598e-05
6.23304595e-05
6.23304596e-05
6.233046e-05
6.233046e-05
6.23304596e-05
6.23304594e-05
6.23304597e-05
6.23304601e-05
6.233046e-05
6.23304595e-05
6.23304595e-05
6.23304599e-05
6.233046e-05
6.23304598e-05
6.23304596e-05
6.23304597e-05
6.23304598e-05
6.23304598e-05
6.23304597e-05
6.23304597e-05
6.23304597e-05
6.23304598e-05
6.23304598e-05
6.23304597e-05
6.23304597e-05
6.23304597e-05
6.23304597e-05
6.23304597e-05
6.23304597e-05
6.23304597e-05
6.23304597e-05
6.23304597e-05
6.23304598e-05
6.23304598e-05
6.23304597e-05
6.23304597e-05
6.23304597e-05
6.23304598e-05
6.23304598e-05
6.23304597e-05
6.23304597e-05
6.23304598e-05
6.23304598e-05
6.23304597e-05
6.23304597e-05
6.23304597e-05
6.23304598e-05
6.23304598e-05
6.23304597e-05
6.23304597e-05
6.23304597e-05
6.23304598e-05
6.23304598e-05
6.23304597e-05
6.23304597e-05
6.23304597e-05
6.23304597e-05
6.23304597e-05
6.23304597e-05
6.23304597e-05
6.23304597e-05
6.23304597e-05
6.23304597e-05
6.23304597e-05
6.23304597e-05
6.23304597e-05
6.23304597e-05
6.23304597e-05
6.23304597e-05
6.23304597e-05
6.23304597e-05
6.23304597e-05
6.23304597e-05
6.23304597e-05
6.23304597e-05
6.23304597e-05
6.23304597e-05
6.23304597e-05
6.23304597e-05
6.23304597e-05
6.23304597e-05
6.23304597e-05
6.23304597e-05
6.23304597e-05
6.23304597e-05
6.23304597e-05
6.23304597e-05
6.23304597e-05
6.23304597e-05
6.23304597e-05
6.23304597e-05
6.23304597e-05
6.23304597e-05
6.23304597e-05
6.23304597e-05
6.23304597e-05
6.23304597e-05
6.23304597e-05
6.23304597e-05
6.23304597e-05
6.23304597e-05
6.23304597e-05
6.23304597e-05
6.23304597e-05
6.23304597e-05
6.23304597e-05
6.23304597e-05
6.23304597e-05
6.23304597e-05
6.23304597e-05
6.23304597e-05
6.23304597e-05
6.23304597e-05
6.23304597e-05
6.23304597e-05
6.23304597e-05
6.23304597e-05
6.23304597e-05
6.23304597e-05
6.23304597e-05
6.23304597e-05
6.23304597e-05
6.23304597e-05
6.23304597e-05
6.23304597e-05
6.23304597e-05
6.23304597e-05
6.23304597e-05
6.23304597e-05
6.23304597e-05
6.23304597e-05
6.23304597e-05
6.23304597e-05
6.23304597e-05
6.23304597e-05
6.23304597e-05
6.23304597e-05
6.23304597e-05
6.23304597e-05
6.23304597e-05
6.23304598e-05
6.23304598e-05
6.23304597e-05
6.23304597e-05
6.23304597e-05
6.23304598e-05
6.23304597e-05
6.23304597e-05
6.23304597e-05
6.23304598e-05
6.23304598e-05
6.23304597e-05
6.23304597e-05
6.23304597e-05
6.23304597e-05
6.23304597e-05
6.23304597e-05
6.23304597e-05
6.23304597e-05
6.23304597e-05
6.23304597e-05
6.23304597e-05
6.23304597e-05
6.23304597e-05
6.23304597e-05
6.23304597e-05
6.23304597e-05
6.23304597e-05
6.23304597e-05
6.23304597e-05
6.23304597e-05
6.23304597e-05
6.23304597e-05
6.23304598e-05
6.23304597e-05
6.23304597e-05
6.23304597e-05
6.23304598e-05
6.23304597e-05
6.23304597e-05
6.23304597e-05
6.23304597e-05
6.23304597e-05
6.23304597e-05
6.23304597e-05
6.23304597e-05
6.23304597e-05
6.23304597e-05
6.23304597e-05
6.23304597e-05
6.23304597e-05
6.23304597e-05
6.23304597e-05
6.23304597e-05
6.23304597e-05
6.23304597e-05
6.23304597e-05
6.23304597e-05
6.23304597e-05
6.23304597e-05
6.23304597e-05
6.23304597e-05
6.23304597e-05
6.23304597e-05
6.23304597e-05
6.23304597e-05
6.23304597e-05
6.23304597e-05
6.23304597e-05
6.23304597e-05
6.23304597e-05
6.23304597e-05
6.23304597e-05
6.23304597e-05
6.23304597e-05
6.23304597e-05
6.23304597e-05
6.23304597e-05
6.23304597e-05
6.23304597e-05
6.23304597e-05
6.23304597e-05
6.23304597e-05
6.23304597e-05
6.23304597e-05
6.23304597e-05
6.23304597e-05
6.23304597e-05
6.23304597e-05
6.23304597e-05
6.23304597e-05
6.23304597e-05
6.23304597e-05
6.23304597e-05
6.23304597e-05
6.23304598e-05
6.23304597e-05
6.23304597e-05
6.23304597e-05
6.23304598e-05
6.23304598e-05
6.23304597e-05
6.23304597e-05
6.23304597e-05
6.23304597e-05
6.23304597e-05
6.23304597e-05
6.23304597e-05
6.23304597e-05
6.23304597e-05
6.23304597e-05
6.23304597e-05
6.23304597e-05
6.23304597e-05
6.23304597e-05
6.23304597e-05
6.23304597e-05
6.23304597e-05
6.23304598e-05
6.23304597e-05
6.23304597e-05
6.23304598e-05
6.23304598e-05
6.23304598e-05
6.23304597e-05
6.23304597e-05
6.23304599e-05
6.23304599e-05
6.23304594e-05
6.23304593e-05
6.23304603e-05
6.23304607e-05
6.23304591e-05
6.23304578e-05
6.23304601e-05
6.23304632e-05
6.23304608e-05
6.23304544e-05
6.23304558e-05
6.23304669e-05
6.23304674e-05
6.23304528e-05
6.23304488e-05
6.23304631e-05
6.23304733e-05
6.23304623e-05
6.2330445e-05
6.23304502e-05
6.23304731e-05
6.23304739e-05
6.23304515e-05
6.23304459e-05
6.23304603e-05
6.2330471e-05
6.23304643e-05
6.23304522e-05
6.23304533e-05
6.23304636e-05
6.23304649e-05
6.23304598e-05
6.23304565e-05
6.23304573e-05
6.23304605e-05
6.23304636e-05
6.23304645e-05
6.23304561e-05
6.23304468e-05
6.23304589e-05
6.23305023e-05
6.23304957e-05
6.2330351e-05
6.2330339e-05
6.23307159e-05
6.23308996e-05
6.23300926e-05
6.23293519e-05
6.23306318e-05
6.23339461e-05
6.23327536e-05
6.23233688e-05
6.23226967e-05
6.23470626e-05
6.23574628e-05
6.23154177e-05
6.2294352e-05
6.23403244e-05
6.24713549e-05
6.23734999e-05
6.23249126e-05
6.23037109e-05
6.28941188e-05
6.29302828e-05
6.23360436e-05
6.19022529e-05
6.25319378e-05
6.34953815e-05
6.23305971e-05
6.16819004e-05
6.22275361e-05
6.34156692e-05
6.25589253e-05
6.19481844e-05
6.22299077e-05
6.34307895e-05
6.32178279e-05
6.22265429e-05
6.17305981e-05
6.22922967e-05
6.34497938e-05
6.35663594e-05
6.23581309e-05
6.22765537e-05
6.22414108e-05
6.20015419e-05
6.19573171e-05
6.24404435e-05
6.34884326e-05
6.32691094e-05
6.2315779e-05
6.19651947e-05
6.25629282e-05
6.35020051e-05
6.29100793e-05
6.2147792e-05
6.17673092e-05
6.25278262e-05
6.34784759e-05
6.27383397e-05
6.18105215e-05
6.14070844e-05
6.23320622e-05
6.34469215e-05
6.27931633e-05
6.20127902e-05
6.17291335e-05
6.2525168e-05
6.3494762e-05
6.26466439e-05
6.21420805e-05
6.20756361e-05
6.30212384e-05
6.3528763e-05
6.26614968e-05
6.16511489e-05
6.13176802e-05
6.2479106e-05
6.34853482e-05
6.35265377e-05
6.2513419e-05
6.2252534e-05
6.15472629e-05
6.15101246e-05
6.25688773e-05
6.35202849e-05
6.23286032e-05
6.20675601e-05
6.28218026e-05
6.3524499e-05
6.25055565e-05
6.19865515e-05
6.1910608e-05
6.30815571e-05
6.35867775e-05
6.23206011e-05
6.17337792e-05
6.28474333e-05
6.35207959e-05
6.24172473e-05
6.17013823e-05
)
;

boundaryField
{
    closed
    {
        type            calculated;
        value           nonuniform List<scalar> 0();
    }
    open
    {
        type            calculated;
        value           nonuniform List<scalar> 0();
    }
    sides
    {
        type            empty;
    }
    procBoundary3to2
    {
        type            processor;
        value           uniform 6.17668578e-05;
    }
    procBoundary3to4
    {
        type            processor;
        value           uniform 6.1635738e-05;
    }
}


// ************************************************************************* //
