/*--------------------------------*- C++ -*----------------------------------*\
| =========                 |                                                 |
| \\      /  F ield         | OpenFOAM: The Open Source CFD Toolbox           |
|  \\    /   O peration     | Version:  2306                                  |
|   \\  /    A nd           | Website:  www.openfoam.com                      |
|    \\/     M anipulation  |                                                 |
\*---------------------------------------------------------------------------*/
FoamFile
{
    version     2.0;
    format      ascii;
    arch        "LSB;label=32;scalar=64";
    class       volScalarField;
    location    "0.0013";
    object      prefDPV_H2O;
}
// * * * * * * * * * * * * * * * * * * * * * * * * * * * * * * * * * * * * * //

dimensions      [1 -1 -1 0 0 0 0];

internalField   nonuniform List<scalar> 
531
(
-3.80899768e-07
-3.84539099e-07
-3.85276143e-07
-3.84156678e-07
-3.8538411e-07
-3.68826729e-07
-3.65402664e-07
-3.6458728e-07
-3.65436361e-07
-3.86031533e-07
-3.85736471e-07
-3.66917984e-07
-3.66962122e-07
-3.86607914e-07
-3.84172684e-07
-3.84600019e-07
-3.79853771e-07
-3.669807e-07
-3.66051731e-07
-3.65526159e-07
-3.64755167e-07
-3.65652352e-07
-3.83920973e-07
-3.83831906e-07
-3.84378482e-07
-3.69840579e-07
-3.65154686e-07
-3.66624975e-07
-3.85916443e-07
-3.8562437e-07
-3.66524272e-07
-3.66169196e-07
-3.86907912e-07
-3.84682146e-07
-3.73772661e-07
-3.65709611e-07
-3.66207035e-07
-3.8679027e-07
-3.84721333e-07
-3.7269037e-07
-3.66676081e-07
-3.6516445e-07
-3.64186449e-07
-3.64804177e-07
-3.80708931e-07
-3.84776569e-07
-3.84864766e-07
-3.84362229e-07
-3.84285072e-07
-3.7582975e-07
-3.67150991e-07
-3.6529099e-07
-3.64343463e-07
-3.65426561e-07
-3.85861708e-07
-3.8582496e-07
-3.67314376e-07
-3.67553259e-07
-3.86455676e-07
-3.85200834e-07
-3.7155648e-07
-3.65608642e-07
-3.66415638e-07
-3.86086503e-07
-3.85228009e-07
-3.72171056e-07
-3.66695349e-07
-3.64863923e-07
-3.63816968e-07
-3.64642796e-07
-3.80645218e-07
-3.84956037e-07
-3.84910512e-07
-3.84316142e-07
-3.84331492e-07
-3.70693878e-07
-3.65230562e-07
-3.6632344e-07
-3.85535121e-07
-3.86487202e-07
-3.69391756e-07
-3.65003148e-07
-3.66397023e-07
-3.85313959e-07
-3.86527169e-07
-3.68333934e-07
-3.64209894e-07
-3.65531163e-07
-3.83221182e-07
-3.84428569e-07
-3.81901357e-07
-3.66545702e-07
-3.68584739e-07
-3.86835352e-07
-3.82804668e-07
-3.68209086e-07
-3.65121396e-07
-3.6430922e-07
-3.6665569e-07
-3.85432291e-07
-3.79139404e-07
-3.66281874e-07
-3.6938621e-07
-3.8675044e-07
-3.774608e-07
-3.66120289e-07
-3.69663414e-07
-3.86621419e-07
-3.8428543e-07
-3.82829139e-07
-3.66327894e-07
-3.64637824e-07
-3.70287916e-07
-3.86308793e-07
-3.85920353e-07
-3.66864187e-07
-3.65098666e-07
-3.72393614e-07
-3.8566471e-07
-3.74775025e-07
-3.66527476e-07
-3.74928229e-07
-3.84875403e-07
-3.85670635e-07
-3.70817297e-07
-3.66600152e-07
-3.66422264e-07
-3.66509198e-07
-3.66814823e-07
-3.66060925e-07
-3.65725246e-07
-3.79040423e-07
-3.84320795e-07
-3.72130682e-07
-3.66124708e-07
-3.81082776e-07
-3.84147132e-07
-3.70224348e-07
-3.65607123e-07
-3.82329728e-07
-3.84115649e-07
-3.68614425e-07
-3.65469213e-07
-3.83467842e-07
-3.84149911e-07
-3.8419216e-07
-3.78840868e-07
-3.66782066e-07
-3.66313321e-07
-3.66308295e-07
-3.65772459e-07
-3.65599795e-07
-3.85374511e-07
-3.83745023e-07
-3.81430564e-07
-3.67431543e-07
-3.63669728e-07
-3.6347926e-07
-3.86207669e-07
-3.84063524e-07
-3.84289718e-07
-3.67156703e-07
-3.64483141e-07
-3.87134787e-07
-3.84271552e-07
-3.6626836e-07
-3.64771228e-07
-3.8658671e-07
-3.84798487e-07
-3.85025739e-07
-3.84749072e-07
-3.67944909e-07
-3.65484399e-07
-3.66130791e-07
-3.65757375e-07
-3.65542838e-07
-3.85803663e-07
-3.83674737e-07
-3.74958236e-07
-3.66260923e-07
-3.64228636e-07
-3.64103298e-07
-3.86261174e-07
-3.83786092e-07
-3.84004782e-07
-3.67953909e-07
-3.6576439e-07
-3.86171979e-07
-3.83680898e-07
-3.7815317e-07
-3.66346309e-07
-3.65847865e-07
-3.65078468e-07
-3.65003878e-07
-3.85761329e-07
-3.8373625e-07
-3.83849596e-07
-3.74204287e-07
-3.65822897e-07
-3.65452747e-07
-3.64138042e-07
-3.63975168e-07
-3.8638404e-07
-3.84126795e-07
-3.66280131e-07
-3.64759459e-07
-3.86464288e-07
-3.84031461e-07
-3.66279963e-07
-3.64945947e-07
-3.8643549e-07
-3.83976924e-07
-3.6651053e-07
-3.65296244e-07
-3.86306303e-07
-3.83905512e-07
-3.66834583e-07
-3.65665618e-07
-3.86096869e-07
-3.83994086e-07
-3.69988366e-07
-3.64786436e-07
-3.64730752e-07
-3.85752523e-07
-3.84148692e-07
-3.69565921e-07
-3.64215431e-07
-3.64133325e-07
-3.85734481e-07
-3.84037588e-07
-3.66584422e-07
-3.65251803e-07
-3.8622533e-07
-3.84194692e-07
-3.68382901e-07
-3.64056459e-07
-3.63930439e-07
-3.85858442e-07
-3.84124768e-07
-3.66422399e-07
-3.64980498e-07
-3.86593471e-07
-3.84064845e-07
-3.66340003e-07
-3.65193844e-07
-3.86545762e-07
-3.84008658e-07
-3.66589685e-07
-3.65619204e-07
-3.86294565e-07
-3.84084569e-07
-3.69628839e-07
-3.64600624e-07
-3.64557024e-07
-3.85447007e-07
-3.84093542e-07
-3.66776934e-07
-3.65612255e-07
-3.8637466e-07
-3.84328777e-07
-3.69720214e-07
-3.63721524e-07
-3.64169102e-07
-3.86507764e-07
-3.84242724e-07
-3.84917809e-07
-3.65221457e-07
-3.64094886e-07
-3.85843458e-07
-3.84031644e-07
-3.84485839e-07
-3.68035057e-07
-3.64199689e-07
-3.64807921e-07
-3.63288013e-07
-3.63451213e-07
-3.86327865e-07
-3.84402506e-07
-3.84806516e-07
-3.84368403e-07
-3.84146802e-07
-3.84187887e-07
-3.74699598e-07
-3.6538157e-07
-3.65239955e-07
-3.64072621e-07
-3.64096135e-07
-3.8537086e-07
-3.8432505e-07
-3.6694801e-07
-3.63849086e-07
-3.64418077e-07
-3.85263863e-07
-3.83999544e-07
-3.73501111e-07
-3.66060402e-07
-3.65999898e-07
-3.65020773e-07
-3.65002494e-07
-3.85734922e-07
-3.83913202e-07
-3.84940973e-07
-3.83894533e-07
-3.84443016e-07
-3.66147709e-07
-3.64218738e-07
-3.63730585e-07
-3.64448752e-07
-3.85866421e-07
-3.83961037e-07
-3.84675766e-07
-3.66362354e-07
-3.65443151e-07
-3.86286241e-07
-3.83594464e-07
-3.8419033e-07
-3.68046054e-07
-3.63998829e-07
-3.64436914e-07
-3.84849223e-07
-3.84119112e-07
-3.68125907e-07
-3.64341331e-07
-3.6475627e-07
-3.84611342e-07
-3.83972921e-07
-3.69971022e-07
-3.64814249e-07
-3.65117292e-07
-3.84409781e-07
-3.83880605e-07
-3.69921343e-07
-3.64831254e-07
-3.65058981e-07
-3.84294872e-07
-3.83858253e-07
-3.69230574e-07
-3.64686934e-07
-3.64914619e-07
-3.8419226e-07
-3.83955308e-07
-3.69208543e-07
-3.64048637e-07
-3.6416222e-07
-3.84574564e-07
-3.83935002e-07
-3.64701906e-07
-3.64381974e-07
-3.84824243e-07
-3.83980988e-07
-3.63614241e-07
-3.6285336e-07
-3.85225946e-07
-3.84058259e-07
-3.84383827e-07
-3.83890458e-07
-3.63113009e-07
-3.63043301e-07
-3.84275946e-07
-3.63573893e-07
-3.61442407e-07
-3.84204237e-07
-3.83236776e-07
-3.83705513e-07
-3.62383698e-07
-3.60353995e-07
-3.82428321e-07
-3.82345066e-07
-3.81249763e-07
-3.81456822e-07
-3.60740961e-07
-3.59427937e-07
-3.79132425e-07
-3.79945957e-07
-3.77691002e-07
-3.79545021e-07
-3.57872157e-07
-3.75004727e-07
-3.74369623e-07
-3.75703555e-07
-3.72473574e-07
-3.72709997e-07
-3.70377867e-07
-3.69909807e-07
-3.68119166e-07
-3.67225869e-07
-3.65788479e-07
-3.64701393e-07
-3.63598409e-07
-3.6272602e-07
-3.62513169e-07
-3.61548662e-07
-3.60078405e-07
-3.58123588e-07
-3.56302172e-07
-3.54110543e-07
-3.51888582e-07
-3.49473444e-07
-3.46788556e-07
-3.44341694e-07
-3.41911223e-07
-3.41237467e-07
-3.39759149e-07
-3.37959627e-07
-3.3433484e-07
-3.32162171e-07
-3.26989557e-07
-3.24971483e-07
-3.17630871e-07
-3.15244185e-07
-3.0685785e-07
-3.04233528e-07
-2.97790785e-07
-3.08640632e-07
-3.00101839e-07
-2.96065368e-07
-2.86443245e-07
-2.81704544e-07
-2.72062734e-07
-2.66343654e-07
-2.56849523e-07
-2.49692818e-07
-2.41070166e-07
-2.35522961e-07
-2.32769698e-07
-2.2487634e-07
-2.17815511e-07
-2.24454624e-07
-1.9334145e-07
-1.59383884e-07
-1.09510567e-07
-1.01811627e-07
-7.02230729e-08
-4.77837117e-08
-1.96115065e-08
9.59694021e-09
4.97353807e-08
9.51544727e-08
1.6087837e-07
2.09388573e-07
2.70991468e-07
3.26853141e-07
3.8639627e-07
4.22454592e-07
4.66328114e-07
4.97523269e-07
5.35723291e-07
5.63609354e-07
6.00779932e-07
6.23179611e-07
6.52097284e-07
6.69366453e-07
6.92623986e-07
7.07928689e-07
7.28216393e-07
7.41844986e-07
7.59062824e-07
7.7090221e-07
7.85517523e-07
7.95770163e-07
8.0774399e-07
8.17016138e-07
8.27986494e-07
8.37378636e-07
8.47693771e-07
8.5703801e-07
8.67196255e-07
8.75976298e-07
8.85051295e-07
8.93257943e-07
9.01413278e-07
9.07399113e-07
9.13742435e-07
9.19567696e-07
9.25838379e-07
9.31292492e-07
9.37325832e-07
9.42747092e-07
9.49460418e-07
9.55268704e-07
9.61115236e-07
9.65413028e-07
9.70450319e-07
9.74502011e-07
9.78902669e-07
9.82555829e-07
9.86811313e-07
9.90378708e-07
9.94495043e-07
9.97765318e-07
1.00138804e-06
1.00438885e-06
1.00782236e-06
1.01069214e-06
1.01457593e-06
1.01798186e-06
1.02172623e-06
1.02482606e-06
1.0281805e-06
1.03085664e-06
1.03381506e-06
1.03635212e-06
1.03914684e-06
1.04155906e-06
1.04413434e-06
1.04639035e-06
1.04886768e-06
1.0510571e-06
1.05344701e-06
1.05557824e-06
1.05778675e-06
1.05975964e-06
1.0618764e-06
1.0637866e-06
1.06604333e-06
1.06806676e-06
1.07020036e-06
1.07213091e-06
1.07418353e-06
1.07603546e-06
1.0779541e-06
1.07969881e-06
1.08149734e-06
1.08314637e-06
1.08483712e-06
1.08640026e-06
1.08799421e-06
1.08947985e-06
1.09094577e-06
1.09227155e-06
1.09361622e-06
)
;

boundaryField
{
    closed
    {
        type            calculated;
        value           nonuniform List<scalar> 0();
    }
    open
    {
        type            calculated;
        value           nonuniform List<scalar> 0();
    }
    sides
    {
        type            empty;
    }
    procBoundary4to3
    {
        type            processor;
        value           uniform -3.64906632e-07;
    }
    procBoundary4to5
    {
        type            processor;
        value           uniform 1.09489153e-06;
    }
}


// ************************************************************************* //
