/*--------------------------------*- C++ -*----------------------------------*\
| =========                 |                                                 |
| \\      /  F ield         | OpenFOAM: The Open Source CFD Toolbox           |
|  \\    /   O peration     | Version:  2306                                  |
|   \\  /    A nd           | Website:  www.openfoam.com                      |
|    \\/     M anipulation  |                                                 |
\*---------------------------------------------------------------------------*/
FoamFile
{
    version     2.0;
    format      ascii;
    arch        "LSB;label=32;scalar=64";
    class       volScalarField;
    location    "0.0017";
    object      sourcePV;
}
// * * * * * * * * * * * * * * * * * * * * * * * * * * * * * * * * * * * * * //

dimensions      [1 -3 -1 0 0 0 0];

internalField   nonuniform List<scalar> 
531
(
0.00493630393
0.00581494138
0.147274197
0.149684779
0.00454302863
0.00634399456
0.00572844224
0.115391332
0.163666091
0.16327132
0.00514919966
0.0055787363
0.112694894
0.172757097
0.159550338
0.00474019985
0.138389859
0.173642915
0.0041799966
0.00572914389
0.00518137949
0.00610979344
0.00602982355
0.126095891
0.161083903
0.155082915
0.17942639
0.178455217
0.0042748934
0.00561639758
0.153649156
0.153615602
0.00412269833
0.00622054124
0.00545530585
0.100493015
0.155707925
0.162692246
0.162064017
0.00421987469
0.0057108429
0.155048183
0.163503257
0.00414524792
0.00570000709
0.156938884
0.165340013
0.00402546044
0.0056738049
0.163712492
0.168872453
0.00370402574
0.00566960535
0.0050836728
0.00578331814
0.137248604
0.155188956
0.00457179562
0.00601672054
0.144959358
0.144874407
0.00441931587
0.126791977
0.163818805
0.00439998829
0.00613356946
0.00555220455
0.108891706
0.158035154
0.16153543
0.167394744
0.00433733437
0.00530430596
0.13668039
0.185552468
0.183948798
0.0041801766
0.00542818087
0.152621565
0.170049775
0.00390995871
0.00563127408
0.162340268
0.1646286
0.00367639604
0.00586241441
0.00526421801
0.143919592
0.169317204
0.00404992929
0.00563825591
0.00549314771
0.00584091153
0.0951883372
0.147545958
0.153753527
0.157088304
0.00459878087
0.00562439711
0.117554687
0.170669819
0.15627509
0.00466179304
0.121648103
0.168250932
0.00449727507
0.00575092813
0.147850096
0.149417811
0.00402310918
0.00628670226
0.00544923565
0.112790186
0.162640024
0.168040147
0.167749649
0.00408157799
0.00575128873
0.153079049
0.15288746
0.00402482078
0.131511017
0.17350331
0.00393819514
0.00584548155
0.00517738009
0.134124251
0.157136484
0.00412012262
0.00621382154
0.00542118972
0.118894179
0.158626637
0.00490990698
0.00588041225
0.117806265
0.148213529
0.158316555
0.157686889
0.00458188491
0.120731528
0.169924756
0.00416599835
0.00553835651
0.0440570685
0.166444364
0.166380033
0.00400982049
0.137307624
0.171777684
0.00372695648
0.00583665985
0.00495989231
0.135234524
0.16576805
0.00385846573
0.00588320409
0.00513036993
0.00624207401
0.00618357306
0.119300493
0.159946308
0.152428865
0.179703446
0.175429396
0.0042925457
0.128958288
0.179692398
0.00443613917
0.00537421664
0.134355588
0.162526767
0.00469157264
0.00546265902
0.111817197
0.167806247
0.165505433
0.00461077683
0.00590788767
0.00561567802
0.0643170343
0.16092624
0.160565511
0.00441392889
0.005477669
0.12587238
0.178243184
0.177404813
0.00415818635
0.00545401229
0.00542724157
0.0055659377
0.11815381
0.162731948
0.173068738
0.172692336
0.00394303822
0.00563710946
0.149085577
0.159600168
0.00407878221
0.0058349211
0.14481974
0.15387046
0.00405810182
0.00590648886
0.15184017
0.153168444
0.00309779931
0.00594333976
0.00369419191
0.00608443528
0.00416636796
0.132704604
0.162956431
0.1570619
0.159561422
0.183670284
0.18355642
0.00383914805
0.0055997065
0.00517075936
0.144653007
0.163714512
0.0038048059
0.00600739645
0.00537944644
0.13108375
0.16833366
0.0046562074
0.00537820998
0.123174108
0.173709301
0.172327227
0.00456274578
0.00567181697
0.132835637
0.159620131
0.00465251397
0.00567308254
0.11888205
0.164492805
0.163678249
0.00481214295
0.00561114649
0.116246563
0.167509395
0.166567937
0.0047106349
0.00598211459
0.13976405
0.139788335
0.00419929141
0.108265621
0.172849728
0.00459550824
0.00565025525
0.135118884
0.155467645
0.00455322781
0.00592345651
0.133434144
0.149622736
0.00475377071
0.0059774409
0.12102769
0.147288984
0.166355557
0.165769384
0.00405202714
0.006077636
0.00507833611
0.116403373
0.163282972
0.00455068163
0.00574576174
0.139738754
0.158266629
0.00424093033
0.00583969922
0.147659366
0.158917076
0.00406006907
0.00590413468
0.153725771
0.154969069
0.00390002504
0.00625759114
0.00559849555
0.124286552
0.16099228
0.175692262
0.175304651
0.0039481916
0.00596456829
0.00539735794
0.123916108
0.181927137
0.17776773
0.00448019918
0.00586657117
0.00569246875
0.130429626
0.141812544
0.00441761447
0.0798141566
0.164637712
0.00454992574
0.0057457343
0.130580582
0.150969327
0.00470177478
0.00586046743
0.121850405
0.149601255
0.173306043
0.173192391
0.00375840656
0.00563246752
0.00495312881
0.146931042
0.166822352
0.00347945049
0.138766487
0.200295684
0.00348276427
0.00490842306
0.00507981004
0.0051568896
0.110840468
0.170947386
0.170071168
0.00473169256
0.00541924414
0.119987557
0.171861713
0.170903179
0.00462418674
0.00534803493
0.120006266
0.17910433
0.174972228
0.00443247018
0.00591535307
0.00549966128
0.127585541
0.162461946
0.00476945244
0.00543423338
0.119350541
0.175876612
0.17467743
0.00455926236
0.00591128321
0.00572982445
0.131313102
0.158253647
0.00479901795
0.00558685651
0.119489113
0.167226585
0.166363828
0.00481472086
0.00559835231
0.116879563
0.166590161
0.165981353
0.00484244942
0.00549970629
0.117797957
0.169666568
0.168336468
0.00466263358
0.00575163227
0.13371985
0.155930935
0.00467391701
0.00582960563
0.125927632
0.155567813
0.177235205
0.176763209
0.00370383668
0.00574587371
0.00491753822
0.00618042905
0.00595040239
0.119088207
0.167886344
0.166491138
0.0044892534
0.0057763706
0.139025971
0.159363193
0.00443227703
0.00579223802
0.136804728
0.158675341
0.00471702215
0.00556908262
0.119622234
0.168604882
0.167178401
0.00462745963
0.00570732658
0.131596798
0.158549113
0.00469291171
0.00558131015
0.119824062
0.17126952
0.170886501
0.00455215402
0.00485964351
0.124256896
0.00424431057
0.00613078508
0.123869793
0.161582865
0.161411412
0.00478599079
0.00556278944
0.118938484
0.170078823
0.169155431
0.00465404204
0.00536666413
0.123334804
0.184585606
0.182416029
0.00428136484
0.00577083569
0.00536411114
0.13769925
0.156369929
0.00407259786
0.00626074551
0.00539298396
0.105043079
0.179095777
0.171244113
0.00446714436
0.00610655873
0.00554536268
0.116019783
0.15359185
0.00495787325
0.00601004637
0.111474927
0.144271295
0.157942501
0.157476881
0.00448348426
0.00590698269
0.135577411
0.150998621
0.00470008462
0.00595279296
0.121974544
0.149564191
0.16788511
0.167379004
0.00407377173
0.00566353025
0.151862852
0.162900209
0.00390259347
0.00575421491
0.15876043
0.159214585
0.00362839918
0.00598297118
0.00532951976
0.136214988
0.167526065
0.00432172689
0.00544739023
0.139415287
0.169192805
0.00443088407
0.00507425594
0.127427935
0.194661781
0.193353234
0.00360183524
0.00524596656
0.00467544096
0.00557045268
0.00557797239
0.147489782
0.156978599
0.00374003801
0.134943243
0.180657804
0.00371048569
0.00588709773
0.00538663476
0.10572778
0.161669586
0.151959596
0.181397367
0.180412705
0.00380810633
0.00549418915
0.155782158
0.160256043
0.0035006775
0.00596958286
0.00522235452
0.131326592
0.160282827
0.00424289067
0.00583596325
0.143939183
0.145802455
0.00402087817
0.00631315914
0.00569335833
0.0999595164
0.152078485
0.163825978
0.166608485
0.00410758393
0.00528095071
0.128874159
0.18817104
0.185232792
0.00420604402
0.00599118847
0.00557684995
0.11176948
)
;

boundaryField
{
    closed
    {
        type            calculated;
        value           nonuniform List<scalar> 0();
    }
    open
    {
        type            calculated;
        value           nonuniform List<scalar> 0();
    }
    sides
    {
        type            empty;
    }
    procBoundary1to0
    {
        type            processor;
        value           uniform 0;
    }
    procBoundary1to2
    {
        type            processor;
        value           uniform 0;
    }
}


// ************************************************************************* //
