/*--------------------------------*- C++ -*----------------------------------*\
| =========                 |                                                 |
| \\      /  F ield         | OpenFOAM: The Open Source CFD Toolbox           |
|  \\    /   O peration     | Version:  2306                                  |
|   \\  /    A nd           | Website:  www.openfoam.com                      |
|    \\/     M anipulation  |                                                 |
\*---------------------------------------------------------------------------*/
FoamFile
{
    version     2.0;
    format      ascii;
    arch        "LSB;label=32;scalar=64";
    class       volScalarField;
    location    "0.00178";
    object      prefDZ_T;
}
// * * * * * * * * * * * * * * * * * * * * * * * * * * * * * * * * * * * * * //

dimensions      [1 -1 -1 -1 0 0 0];

internalField   nonuniform List<scalar> 
531
(
-1.22705972e-09
-1.22885933e-09
-1.2265832e-09
-1.2269455e-09
-1.1905206e-09
-1.18811415e-09
-1.18548689e-09
-1.18552404e-09
-1.23039131e-09
-1.22808135e-09
-1.18791079e-09
-1.18626609e-09
-1.22988854e-09
-1.22795912e-09
-1.18928774e-09
-1.18676105e-09
-1.22900681e-09
-1.22832909e-09
-1.19106572e-09
-1.18576257e-09
-1.18533189e-09
-1.22959906e-09
-1.22770774e-09
-1.18853079e-09
-1.18746297e-09
-1.23062701e-09
-1.22699658e-09
-1.22832174e-09
-1.18936773e-09
-1.18777152e-09
-1.2302532e-09
-1.22653048e-09
-1.22836506e-09
-1.19200942e-09
-1.18389464e-09
-1.18488843e-09
-1.23012322e-09
-1.22732108e-09
-1.22827747e-09
-1.18960781e-09
-1.18784756e-09
-1.229821e-09
-1.2263964e-09
-1.22768132e-09
-1.19337206e-09
-1.18644159e-09
-1.1862575e-09
-1.22866983e-09
-1.22767604e-09
-1.19101454e-09
-1.18754683e-09
-1.18522698e-09
-1.18532112e-09
-1.23079935e-09
-1.22709175e-09
-1.22912338e-09
-1.19100364e-09
-1.18635594e-09
-1.22922981e-09
-1.22761212e-09
-1.18944736e-09
-1.18805251e-09
-1.22955528e-09
-1.22696155e-09
-1.18916002e-09
-1.18917693e-09
-1.22963979e-09
-1.19626925e-09
-1.18581982e-09
-1.22874733e-09
-1.22797789e-09
-1.19038627e-09
-1.18710178e-09
-1.22862963e-09
-1.22804962e-09
-1.19276324e-09
-1.18608958e-09
-1.18606518e-09
-1.22917574e-09
-1.22699112e-09
-1.22706504e-09
-1.19034428e-09
-1.18844507e-09
-1.22846141e-09
-1.22756546e-09
-1.19594854e-09
-1.18724259e-09
-1.18757373e-09
-1.18368488e-09
-1.18331594e-09
-1.23151586e-09
-1.22777574e-09
-1.22937829e-09
-1.22667343e-09
-1.22751261e-09
-1.19123563e-09
-1.18659578e-09
-1.18601215e-09
-1.22952807e-09
-1.22730379e-09
-1.1897209e-09
-1.18767259e-09
-1.22975517e-09
-1.22688502e-09
-1.1889298e-09
-1.18877376e-09
-1.22981146e-09
-1.19332587e-09
-1.18544718e-09
-1.2292854e-09
-1.22786005e-09
-1.18904553e-09
-1.18718927e-09
-1.229913e-09
-1.22722048e-09
-1.18820598e-09
-1.18813715e-09
-1.23022311e-09
-1.22619719e-09
-1.22778955e-09
-1.19548204e-09
-1.18655897e-09
-1.18641936e-09
-1.22866241e-09
-1.22790694e-09
-1.19306356e-09
-1.1863217e-09
-1.18592636e-09
-1.22911913e-09
-1.22731033e-09
-1.19041997e-09
-1.18796795e-09
-1.22915316e-09
-1.22686895e-09
-1.19061296e-09
-1.18887398e-09
-1.22868155e-09
-1.22678882e-09
-1.19293211e-09
-1.1891493e-09
-1.18706499e-09
-1.18693321e-09
-1.23016787e-09
-1.22738152e-09
-1.18779006e-09
-1.18765345e-09
-1.23095517e-09
-1.22652942e-09
-1.22861516e-09
-1.19119584e-09
-1.1869338e-09
-1.22933198e-09
-1.22750793e-09
-1.18940356e-09
-1.18787565e-09
-1.22996036e-09
-1.22713853e-09
-1.18852361e-09
-1.18839966e-09
-1.2304282e-09
-1.22630308e-09
-1.22824859e-09
-1.20153644e-09
-1.18788363e-09
-1.1866324e-09
-1.18640706e-09
-1.23069156e-09
-1.2276347e-09
-1.18796897e-09
-1.18672437e-09
-1.23080155e-09
-1.2274207e-09
-1.18764137e-09
-1.18733359e-09
-1.23102811e-09
-1.22653242e-09
-1.22849056e-09
-1.1910427e-09
-1.18521981e-09
-1.18473468e-09
-1.22998658e-09
-1.22792337e-09
-1.18877292e-09
-1.18686384e-09
-1.23100099e-09
-1.22736843e-09
-1.22829034e-09
-1.22695906e-09
-1.20547384e-09
-1.18969147e-09
-1.1886912e-09
-1.18794195e-09
-1.18425814e-09
-1.18414398e-09
-1.23122315e-09
-1.22840562e-09
-1.22823657e-09
-1.22793004e-09
-1.19424127e-09
-1.18802158e-09
-1.18613251e-09
-1.18615497e-09
-1.23086202e-09
-1.2271222e-09
-1.22865664e-09
-1.19049755e-09
-1.18796016e-09
-1.23012682e-09
-1.22640681e-09
-1.22776655e-09
-1.19598172e-09
-1.18666064e-09
-1.18650723e-09
-1.22896742e-09
-1.22814137e-09
-1.19216922e-09
-1.18581009e-09
-1.18537728e-09
-1.22974802e-09
-1.22741388e-09
-1.18881848e-09
-1.18822929e-09
-1.23089803e-09
-1.22619738e-09
-1.22833014e-09
-1.19339613e-09
-1.18536825e-09
-1.1853498e-09
-1.22981051e-09
-1.22731499e-09
-1.22761915e-09
-1.18917181e-09
-1.18639336e-09
-1.22928821e-09
-1.22933288e-09
-1.19141037e-09
-1.23055074e-09
-1.2260363e-09
-1.19077976e-09
-1.18890343e-09
-1.18647522e-09
-1.1861988e-09
-1.23027156e-09
-1.22670259e-09
-1.22781163e-09
-1.19440184e-09
-1.18710785e-09
-1.18780566e-09
-1.18391436e-09
-1.18370122e-09
-1.23164935e-09
-1.22829299e-09
-1.22872647e-09
-1.18771728e-09
-1.18533358e-09
-1.23160259e-09
-1.22840643e-09
-1.22859506e-09
-1.22817206e-09
-1.19114897e-09
-1.18717651e-09
-1.2290015e-09
-1.22833429e-09
-1.19209467e-09
-1.18601195e-09
-1.18540123e-09
-1.23001e-09
-1.22742961e-09
-1.18925899e-09
-1.18843002e-09
-1.23105311e-09
-1.22630812e-09
-1.22849363e-09
-1.20364576e-09
-1.18702727e-09
-1.18741162e-09
-1.18361919e-09
-1.18322073e-09
-1.23187686e-09
-1.2279327e-09
-1.22959576e-09
-1.22682166e-09
-1.22753897e-09
-1.19110724e-09
-1.18665402e-09
-1.18603418e-09
-1.22998331e-09
-1.22723242e-09
-1.18928994e-09
-1.18870122e-09
-1.23082012e-09
-1.22612079e-09
-1.2282819e-09
-1.19941117e-09
-1.18699324e-09
-1.18775793e-09
-1.18369114e-09
-1.18346502e-09
-1.23166314e-09
-1.22839314e-09
-1.22914452e-09
-1.18753549e-09
-1.18479939e-09
-1.23197696e-09
-1.22853183e-09
-1.22936435e-09
-1.22820873e-09
-1.1894856e-09
-1.18698705e-09
-1.2307629e-09
-1.22785005e-09
-1.22824072e-09
-1.22767712e-09
-1.2057226e-09
-1.18812534e-09
-1.18825803e-09
-1.18499805e-09
-1.18468831e-09
-1.23104804e-09
-1.2283203e-09
-1.18699661e-09
-1.18511648e-09
-1.23161096e-09
-1.22825754e-09
-1.22863658e-09
-1.22808366e-09
-1.19106516e-09
-1.18663209e-09
-1.18415116e-09
-1.18414467e-09
-1.23139114e-09
-1.22742903e-09
-1.22934413e-09
-1.1893091e-09
-1.18620722e-09
-1.23011353e-09
-1.22656106e-09
-1.22784662e-09
-1.19044342e-09
-1.18505754e-09
-1.18466121e-09
-1.22914927e-09
-1.22720705e-09
-1.18785714e-09
-1.18645617e-09
-1.23040988e-09
-1.22752891e-09
-1.2284411e-09
-1.21789582e-09
-1.18388023e-09
-1.18305251e-09
-1.17849133e-09
-1.1781969e-09
-1.23204652e-09
-1.22839097e-09
-1.23050451e-09
-1.22759712e-09
-1.22873354e-09
-1.22648548e-09
-1.22692827e-09
-1.18006226e-09
-1.17763428e-09
-1.22750657e-09
-1.22376938e-09
-1.22420586e-09
-1.17887834e-09
-1.17539995e-09
-1.22304831e-09
-1.21857851e-09
-1.21964779e-09
-1.21553321e-09
-1.21603523e-09
-1.21224736e-09
-1.21231643e-09
-1.17212103e-09
-1.16856853e-09
-1.20822145e-09
-1.20431811e-09
-1.20370686e-09
-1.20016784e-09
-1.19901236e-09
-1.19576235e-09
-1.1942026e-09
-1.19114386e-09
-1.18932886e-09
-1.1863855e-09
-1.18436425e-09
-1.18164825e-09
-1.1796734e-09
-1.17727591e-09
-1.17570573e-09
-1.17461922e-09
-1.17521636e-09
-1.17103888e-09
-1.16846673e-09
-1.16388044e-09
-1.16088508e-09
-1.15584999e-09
-1.15234985e-09
-1.14696592e-09
-1.14291115e-09
-1.13721127e-09
-1.13264655e-09
-1.1274084e-09
-1.12355251e-09
-1.1224678e-09
-1.12090448e-09
-1.11567753e-09
-1.11130241e-09
-1.10394786e-09
-1.09851486e-09
-1.08974428e-09
-1.08320417e-09
-1.07288095e-09
-1.06367101e-09
-1.0524064e-09
-1.04225907e-09
-1.031509e-09
-1.020205e-09
-1.01018561e-09
-9.97460464e-10
-9.9409124e-10
-1.01299831e-09
-1.00137315e-09
-9.85934647e-10
-9.73340438e-10
-9.57915091e-10
-9.44228783e-10
-9.28383035e-10
-9.1373814e-10
-8.96795456e-10
-8.8097581e-10
-8.64585824e-10
-8.53748805e-10
-8.41300616e-10
-8.29093908e-10
-8.16540232e-10
-8.0301535e-10
-7.90751754e-10
-7.75738546e-10
-7.77768787e-10
-7.59868819e-10
-7.4072279e-10
-7.19246176e-10
-6.97391639e-10
-6.8163734e-10
-6.62414018e-10
-6.4414285e-10
-6.18353161e-10
-5.94145525e-10
-5.68500564e-10
-5.50205642e-10
-5.25292251e-10
-5.07840946e-10
-4.84059163e-10
-4.67478671e-10
-4.44911264e-10
-4.29376118e-10
-4.08003243e-10
-3.93765903e-10
-3.73969844e-10
-3.61310094e-10
-3.43144425e-10
-3.31967454e-10
-3.15487647e-10
-3.05775211e-10
-2.91037042e-10
-2.82509156e-10
-2.69191118e-10
-2.61692493e-10
-2.49708256e-10
-2.43080861e-10
-2.32124913e-10
-2.26304637e-10
-2.16420448e-10
-2.11331209e-10
-2.02471688e-10
-1.97962736e-10
-1.90037241e-10
-1.85932402e-10
-1.79006894e-10
-1.74844593e-10
-1.68404114e-10
-1.6491847e-10
-1.59366925e-10
-1.55548526e-10
-1.50314716e-10
-1.48437298e-10
-1.44552018e-10
-1.39216367e-10
-1.34470632e-10
-1.37739439e-10
-1.36270958e-10
-1.23038072e-10
-1.18293539e-10
-1.33344006e-10
-1.34566688e-10
-1.05965431e-10
-9.71867124e-11
-1.29699013e-10
-1.29843958e-10
-9.0316952e-11
-8.64652893e-11
-1.17935141e-10
-1.20002444e-10
-8.61451951e-11
-8.6306697e-11
-1.05631411e-10
-1.13072757e-10
-8.65237473e-11
-8.67066718e-11
-9.96714633e-11
-1.06964108e-10
-8.68684969e-11
-8.69808265e-11
-9.63256052e-11
-1.0300828e-10
-8.71257502e-11
-8.72091996e-11
-9.45086197e-11
-1.00306429e-10
-8.73270598e-11
-8.73719163e-11
-9.35721171e-11
-9.83084336e-11
-8.75323833e-11
-8.74944168e-11
-9.31607382e-11
-9.68244983e-11
-8.76222176e-11
-8.75938543e-11
)
;

boundaryField
{
    closed
    {
        type            calculated;
        value           nonuniform List<scalar> 0();
    }
    open
    {
        type            calculated;
        value           nonuniform List<scalar> 0();
    }
    sides
    {
        type            empty;
    }
    procBoundary4to3
    {
        type            processor;
        value           uniform -1.23094873e-09;
    }
    procBoundary4to5
    {
        type            processor;
        value           uniform -9.28953389e-11;
    }
}


// ************************************************************************* //
