/*--------------------------------*- C++ -*----------------------------------*\
| =========                 |                                                 |
| \\      /  F ield         | OpenFOAM: The Open Source CFD Toolbox           |
|  \\    /   O peration     | Version:  2306                                  |
|   \\  /    A nd           | Website:  www.openfoam.com                      |
|    \\/     M anipulation  |                                                 |
\*---------------------------------------------------------------------------*/
FoamFile
{
    version     2.0;
    format      ascii;
    arch        "LSB;label=32;scalar=64";
    class       volScalarField;
    location    "0.00178";
    object      prefDh_H2;
}
// * * * * * * * * * * * * * * * * * * * * * * * * * * * * * * * * * * * * * //

dimensions      [1 1 -3 0 0 0 0];

internalField   nonuniform List<scalar> 
531
(
38.2101079
37.9220882
38.2482727
38.1085959
28.4816343
24.401948
20.5428982
20.573505
37.8499743
38.0344629
24.2496735
21.6618441
37.879404
37.9886574
26.3983584
22.2345132
37.9708202
37.8622548
29.3198732
20.3020359
20.4895026
37.610404
38.1556335
24.9391031
23.6549466
37.8263718
38.101268
38.0430741
26.6636342
23.9915969
38.0658019
38.1000015
38.1853077
29.4154314
17.8763266
19.8182161
37.9388286
38.1836244
38.1202733
27.1572162
24.191705
38.1425069
38.1592268
38.2367465
29.2539371
21.8901493
21.923544
38.0074778
38.1645681
29.2131692
23.523484
20.1877807
20.2207284
37.9659558
38.0818207
38.0521423
29.1970003
21.7207806
37.9659218
38.0572237
26.6342266
24.4629856
37.9211381
38.1337067
26.1564969
26.2479692
37.9769557
29.0976081
20.9412857
38.0645219
38.0401286
28.3021419
22.8226706
38.1062361
37.9695216
29.21644
21.0944539
21.6423291
37.9056486
38.1526497
38.1032119
28.1341566
24.9179129
38.1126662
37.943257
29.0079151
22.8265822
24.0867305
17.2884198
17.5645425
37.5559369
38.2885548
37.7735074
38.3999509
37.9648873
29.1704433
21.7144323
21.8707796
37.6772611
38.3917817
26.8278534
24.2115766
37.8480866
38.2929861
25.7928
25.7653319
38.0422416
29.1955671
20.4025955
38.0267261
38.1205216
26.1357368
23.2465819
37.9761135
38.1978872
24.8076262
24.7916219
38.0443549
38.2430227
38.1821488
29.0756801
22.1548275
22.1983728
38.0932372
38.1395841
29.0996408
21.5539072
21.683219
37.8424048
38.3873858
28.0597074
24.6301692
37.9454652
38.3013018
28.418718
25.8687224
38.0308775
38.1932176
29.3824905
26.1079418
22.8398239
22.8416504
37.8483694
38.1582926
24.001011
24.0115161
37.8885133
38.1660777
38.0850361
29.4683727
22.6513261
37.9574456
38.0851715
26.5220247
24.2153581
37.8564004
38.1230072
25.0741419
25.0320427
37.8963698
38.0977868
37.9686987
29.2186958
24.1775346
22.0410862
22.0674145
37.685246
38.1677544
24.0443391
22.6258265
37.6605089
38.1935478
23.5593686
23.5675954
37.7408401
38.2121495
37.8730389
29.3789144
19.4418718
19.6244549
37.5675573
38.1718338
25.1791891
22.7266153
37.6143507
38.0638986
37.7885934
38.0846685
29.5393534
26.9902724
25.2325765
24.2466135
18.3140585
18.408351
37.6483003
37.9625157
37.8999635
38.0172528
29.2986998
24.1646399
21.4395131
21.4259779
37.8789748
38.0331173
38.0378934
28.35355
24.2219206
37.9884198
38.0779524
38.1153883
29.1752347
22.1576345
22.1682736
37.9745136
38.0216079
29.2884623
20.5388832
20.6865484
37.6697738
38.2806244
25.3943081
25.0043928
37.7678502
38.2636663
37.9397398
29.171984
19.8947989
20.5535187
37.7488572
38.1792476
37.9271679
26.4792822
21.5053662
38.1183402
37.641301
29.0645469
37.5451213
38.4735378
28.3692956
25.9305655
21.6697888
21.7133709
37.7480412
38.1056651
37.8923504
29.2745322
22.501903
24.0924431
17.5140517
17.6724088
37.4792074
37.8695025
37.8158155
23.7982812
20.0254013
37.6190161
37.870801
37.8454714
37.9605156
29.2934861
22.7294407
37.9857416
37.7642781
29.2791362
20.5043249
20.7065336
37.4348324
38.2333249
25.7461612
25.2086346
37.5079997
38.1671035
37.6343664
29.2680527
22.340448
23.6625522
16.9798334
17.2212208
37.4196238
38.163696
37.6012061
38.2855433
37.8334623
29.305132
21.5683306
21.7373582
37.4951896
38.2660702
25.8640202
25.635284
37.6103617
38.1665613
37.7264682
29.1116328
22.2975495
24.0410347
17.1440868
17.2979901
37.5211721
37.8426165
37.743324
23.460217
19.1788205
37.5303939
37.8489649
37.6350221
37.9506951
26.3803469
22.5598407
37.672841
37.8121604
37.8010186
37.812634
29.5408106
24.1862281
24.761664
19.2024366
19.341192
37.5397887
38.0555823
22.4720807
20.0520035
37.6666072
38.0822534
37.9029667
38.1599584
29.2916835
22.1871486
18.5959016
18.5883038
38.0434867
38.259225
38.1537936
26.9655729
21.9236319
38.3514881
38.4513771
38.4173813
28.924743
20.0820152
20.2157544
38.3089354
38.7989247
24.7293887
23.029838
38.4667529
38.6426882
38.5975598
31.5880351
19.4776057
18.4908691
11.4942659
11.8412944
39.319255
40.2322598
39.8012506
40.8389678
40.5096202
41.4777002
41.3113494
18.0097865
14.6814914
40.2624093
42.0503865
41.1747945
18.8048445
14.7817843
39.4303101
40.7678246
39.7702097
40.5756643
39.8889348
40.521537
39.8736445
16.4356392
13.4142756
37.7364398
38.8712513
38.0943949
38.7770193
38.3750454
38.8255274
38.6247214
38.9988285
38.933107
39.3627777
39.4269106
40.0567327
40.3991308
41.5589175
42.4419668
45.4962917
48.591727
46.0099597
44.5818733
42.3111649
41.0264764
39.1135474
38.0176333
36.5457941
35.7000365
34.7103069
33.5805285
32.2431343
31.3934616
31.7776898
31.4858707
30.247864
29.5209985
28.5335363
28.1278977
27.4398203
27.3143074
26.2504269
24.4885385
22.2932728
20.4024797
18.3771343
16.3239031
14.5153915
12.2626205
15.2409827
40.1935806
37.1339189
33.0945619
29.8104421
25.7932026
22.2277339
18.0769773
14.2015407
9.60405671
5.23150703
1.67156317
1.67333609
1.67534389
1.67733686
1.67935688
1.68159187
1.68359307
1.68610638
1.6868524
1.68988241
1.69265482
1.69585502
15.911562
32.9065812
62.5985029
80.7235726
115.240146
144.582956
188.638107
218.122968
266.619976
295.428025
341.75523
373.063832
429.036883
466.647088
536.018627
579.479811
660.971993
707.887947
798.983682
847.552615
944.566662
991.946686
1089.69193
1135.23155
1232.89871
1275.61413
1370.41523
1409.783
1501.80457
1536.85296
1624.50285
1655.0864
1737.25026
1763.90279
1840.10143
1865.32783
1934.5782
1961.16958
2027.27915
2052.5266
2115.00625
2134.83257
2190.99734
2213.15851
2267.96877
2278.37281
2330.2074
2342.21472
2395.72997
2430.16348
2474.6265
2453.16376
2531.94362
2551.14679
2611.10366
2568.84698
2639.56166
2665.5813
2724.00931
2622.27938
2691.41562
2741.2509
2765.22478
2713.54185
2749.59183
2794.52512
2823.62076
2778.63119
2807.72107
2850.01828
2868.5619
2829.47139
2854.73511
2895.34483
2909.19237
2869.57164
2891.44949
2931.30816
2940.70762
2902.30085
2920.56861
2958.64684
2965.99253
2929.77675
2944.38309
2984.00242
2987.58182
)
;

boundaryField
{
    closed
    {
        type            calculated;
        value           nonuniform List<scalar> 0();
    }
    open
    {
        type            calculated;
        value           nonuniform List<scalar> 0();
    }
    sides
    {
        type            empty;
    }
    procBoundary4to3
    {
        type            processor;
        value           uniform 37.7730225;
    }
    procBoundary4to5
    {
        type            processor;
        value           uniform 2953.88174;
    }
}


// ************************************************************************* //
