/*--------------------------------*- C++ -*----------------------------------*\
| =========                 |                                                 |
| \\      /  F ield         | OpenFOAM: The Open Source CFD Toolbox           |
|  \\    /   O peration     | Version:  2306                                  |
|   \\  /    A nd           | Website:  www.openfoam.com                      |
|    \\/     M anipulation  |                                                 |
\*---------------------------------------------------------------------------*/
FoamFile
{
    version     2.0;
    format      ascii;
    arch        "LSB;label=32;scalar=64";
    class       volScalarField;
    location    "0.00178";
    object      PV;
}
// * * * * * * * * * * * * * * * * * * * * * * * * * * * * * * * * * * * * * //

dimensions      [0 0 0 0 0 0 0];

internalField   nonuniform List<scalar> 
531
(
-0.00689614965
-0.00689848891
-0.00689562846
-0.00689586796
-0.00710249579
-0.00712958522
-0.00715270788
-0.00715113667
-0.00689830587
-0.00689566688
-0.00712971572
-0.00714562534
-0.00689767488
-0.00689680827
-0.00711605094
-0.00714400693
-0.00689649619
-0.00689893364
-0.00709555905
-0.00715877891
-0.0071509765
-0.00690152257
-0.00689582251
-0.00712855775
-0.00713465625
-0.00690001429
-0.00689828529
-0.00689808326
-0.00711655699
-0.00713386056
-0.0068991827
-0.00689792476
-0.00689799409
-0.00709231555
-0.00717199121
-0.00715733792
-0.00689957542
-0.00689773889
-0.0068975702
-0.00711246601
-0.00713178872
-0.00689808519
-0.00689660642
-0.00689677313
-0.00708225152
-0.00714688319
-0.00714281856
-0.00689763767
-0.00689531764
-0.00709757805
-0.00713525849
-0.0071543934
-0.00715437252
-0.00689725425
-0.00689672311
-0.00689649238
-0.00709854173
-0.00714611418
-0.00689788776
-0.0068964855
-0.00711557113
-0.00712923064
-0.00689803195
-0.00689611418
-0.00711833135
-0.00711829624
-0.00689691446
-0.00706590216
-0.00715028651
-0.00689704694
-0.0068966284
-0.00710340737
-0.00714016493
-0.00689583042
-0.00689784235
-0.00708392791
-0.00715216758
-0.00714401996
-0.00689817069
-0.00689555025
-0.00689588443
-0.00710479553
-0.00712694776
-0.00689528172
-0.00689727299
-0.00706402697
-0.00714097874
-0.00712721971
-0.00717399885
-0.00716669105
-0.00690126973
-0.0068940889
-0.00689990774
-0.00689304621
-0.00689811855
-0.00709120649
-0.00714971814
-0.00714044283
-0.00690061051
-0.00689283548
-0.00711580307
-0.00712814659
-0.00689848018
-0.00689426509
-0.00712033287
-0.00712009241
-0.00689595847
-0.00708240972
-0.00715286113
-0.00689739259
-0.00689543438
-0.00711801705
-0.00713554012
-0.00689784151
-0.00689521738
-0.00712644642
-0.0071261483
-0.0068973626
-0.00689518466
-0.0068959026
-0.00706886635
-0.00714365507
-0.00714118575
-0.00689585434
-0.00689624646
-0.00708075232
-0.0071489976
-0.00714178759
-0.00689909362
-0.00689279768
-0.00710724503
-0.00712560474
-0.00689800062
-0.00689395945
-0.00710431298
-0.00711917303
-0.00689689051
-0.00689494962
-0.00708554062
-0.00711869202
-0.00713963559
-0.00713774511
-0.00689880404
-0.00689568254
-0.0071323886
-0.00713182821
-0.00689885542
-0.00689721552
-0.00689705446
-0.0070982611
-0.00714122146
-0.0068992197
-0.0068970831
-0.00711771666
-0.00713138103
-0.00689973457
-0.00689693066
-0.00712674005
-0.00712666111
-0.00689878758
-0.00689742446
-0.00689746551
-0.00703830331
-0.00713028853
-0.00714614919
-0.00714167148
-0.006900719
-0.00689456168
-0.00713355667
-0.00713830395
-0.00690054173
-0.00689463642
-0.00713618017
-0.00713288191
-0.00689995866
-0.00689458226
-0.0068987522
-0.00709447651
-0.00716354741
-0.00715527983
-0.00690131623
-0.00689459586
-0.00712707969
-0.00713862314
-0.00690083822
-0.00689636675
-0.00689904472
-0.00689559302
-0.007017679
-0.00711194599
-0.00712481941
-0.00712853811
-0.00716684446
-0.00716363667
-0.0068996865
-0.00689671292
-0.00689752858
-0.00689625618
-0.00707739454
-0.00713169264
-0.00714754832
-0.00714757152
-0.00689821157
-0.00689717429
-0.00689685339
-0.00710449848
-0.0071313695
-0.00689817872
-0.00689664033
-0.00689672036
-0.00706741713
-0.00714468793
-0.00714242859
-0.00689704083
-0.00689743042
-0.00708753624
-0.00715634493
-0.00714872267
-0.00690076171
-0.00689382135
-0.00712526522
-0.00712384041
-0.00690017651
-0.00689456688
-0.00689853654
-0.00708062088
-0.0071600865
-0.00715098273
-0.006900016
-0.00689585132
-0.00689800535
-0.00711475504
-0.00714982047
-0.0068957718
-0.00690149987
-0.00708911295
-0.0069022796
-0.0068911543
-0.00710613895
-0.00711706857
-0.00714730251
-0.00714286332
-0.00689823018
-0.00689389206
-0.00689637821
-0.00707427983
-0.00714210559
-0.00712840815
-0.0071717271
-0.00716775331
-0.00690015265
-0.0068974289
-0.00689729687
-0.00713360285
-0.00715668089
-0.00690074741
-0.0068987757
-0.00689897114
-0.00689797975
-0.00709841131
-0.00714234406
-0.00689688568
-0.00690000878
-0.00708776573
-0.00715850095
-0.00714860039
-0.00690280278
-0.00689404066
-0.00712492034
-0.00712291432
-0.00690201651
-0.00689496552
-0.00690049174
-0.00702438187
-0.00714507239
-0.0071315716
-0.00717712242
-0.00717020264
-0.00690290052
-0.00689563718
-0.0069018558
-0.00689443911
-0.00689964669
-0.00709363581
-0.00715223164
-0.00714250653
-0.00690261292
-0.00689413886
-0.00712401218
-0.0071205711
-0.00690123533
-0.00689527235
-0.00689966722
-0.0070472854
-0.00714517505
-0.0071305297
-0.00717562355
-0.0071717719
-0.00690130499
-0.00689939424
-0.00689951215
-0.00713766714
-0.00716321219
-0.00690316468
-0.00690038696
-0.00690262977
-0.00689941762
-0.00712098888
-0.00714417061
-0.00690196042
-0.00690093962
-0.00690024113
-0.00690028691
-0.0070168785
-0.00713402694
-0.00712667659
-0.00716414592
-0.00715830077
-0.00690143648
-0.0068956336
-0.00714295173
-0.00715463692
-0.00689996957
-0.00689645664
-0.0068977314
-0.0068953327
-0.00709630248
-0.0071425594
-0.007162745
-0.00716257084
-0.00689571723
-0.00689472931
-0.00689472489
-0.00710964687
-0.00714159922
-0.00689422226
-0.00689186877
-0.00689352387
-0.00709327341
-0.00715462077
-0.00714708831
-0.00689408433
-0.00688813626
-0.00712293549
-0.00713003521
-0.0068921757
-0.00689006243
-0.00689067821
-0.00695836135
-0.00714951799
-0.00715330081
-0.00719632741
-0.00718984616
-0.00688367452
-0.00687690827
-0.0068803744
-0.00687207366
-0.00687416276
-0.00686643337
-0.006866291
-0.00713325645
-0.00715422667
-0.00686319577
-0.00685475322
-0.00685439873
-0.00710827259
-0.0071308449
-0.00685377171
-0.00684262047
-0.00684523298
-0.00683478822
-0.00683539036
-0.00682542913
-0.00682425983
-0.00704315934
-0.00706234095
-0.00681568761
-0.00680245369
-0.00680104191
-0.00678850801
-0.00678446262
-0.00677206219
-0.00676572574
-0.00675275257
-0.00674429235
-0.0067298713
-0.00671863588
-0.00670219187
-0.00668799313
-0.00666664694
-0.00664765664
-0.00661169887
-0.00657658446
-0.00655398823
-0.00653765393
-0.00651354938
-0.00649564918
-0.00646970525
-0.00644919882
-0.0064222531
-0.00639908931
-0.00637088852
-0.00634462502
-0.00631116703
-0.00627316819
-0.00621122849
-0.00615312142
-0.00609642012
-0.00605600171
-0.00599807675
-0.00595605605
-0.0058983023
-0.00585335406
-0.00580068527
-0.00576563039
-0.00572069387
-0.00567896423
-0.00563096651
-0.00558049306
-0.00553035429
-0.00546807233
-0.00538324987
-0.00510715831
-0.00505923382
-0.00499081938
-0.00493187344
-0.00485942547
-0.00479138796
-0.00470713263
-0.00463598848
-0.00453805401
-0.00446676827
-0.00433946015
-0.00422676558
-0.00405229445
-0.00391912735
-0.00373444425
-0.0035767073
-0.00337835731
-0.0031908281
-0.00289281386
-0.00267142643
-0.00247456245
-0.00227539185
-0.00201427491
-0.00181582783
-0.00151862811
-0.00131711317
-0.0010858066
-0.00093536417
-0.00068025562
-0.000503478098
-0.000256340594
-8.7579239e-05
0.000153774164
0.000322282153
0.000570948301
0.000738425885
0.000991284082
0.00115384924
0.00140871917
0.00156499586
0.0018190222
0.00196728959
0.00221912356
0.00235982541
0.00260962797
0.00274274353
0.00298770174
0.00311359411
0.00335304992
0.00347205954
0.00370110849
0.00381433301
0.00403393912
0.00414229344
0.00435162067
0.00445471223
0.00465209333
0.00474628572
0.0049309374
0.00501373428
0.0051790909
0.00525273915
0.00539374994
0.00546948832
0.00560348603
0.00565551746
0.00576925657
0.00584983795
0.00596866004
0.00595091144
0.00602387489
0.00617306463
0.00626151199
0.0061203659
0.00613511044
0.0064344002
0.00655807648
0.00624179721
0.00627029372
0.00667606489
0.00676397473
0.00646394082
0.00647493798
0.00683599922
0.00685827994
0.00663949483
0.00659994994
0.00687998295
0.00689984528
0.00672841852
0.00670033857
0.00690108543
0.00693785786
0.00678657632
0.00676429013
0.00691782552
0.00695971201
0.0068267512
0.00680829213
0.00693469539
0.00697456216
0.00685618767
0.00684085638
0.00695116987
0.00698519187
0.00687833312
0.00686571896
0.00696757189
0.00699360842
)
;

boundaryField
{
    closed
    {
        type            zeroGradient;
    }
    open
    {
        type            zeroGradient;
    }
    sides
    {
        type            empty;
    }
    procBoundary4to3
    {
        type            processor;
        value           uniform -0.00689981041;
    }
    procBoundary4to5
    {
        type            processor;
        value           uniform 0.00689775781;
    }
}


// ************************************************************************* //
