/*--------------------------------*- C++ -*----------------------------------*\
| =========                 |                                                 |
| \\      /  F ield         | OpenFOAM: The Open Source CFD Toolbox           |
|  \\    /   O peration     | Version:  2306                                  |
|   \\  /    A nd           | Website:  www.openfoam.com                      |
|    \\/     M anipulation  |                                                 |
\*---------------------------------------------------------------------------*/
FoamFile
{
    version     2.0;
    format      ascii;
    arch        "LSB;label=32;scalar=64";
    class       volScalarField;
    location    "0.00158";
    object      H;
}
// * * * * * * * * * * * * * * * * * * * * * * * * * * * * * * * * * * * * * //

dimensions      [0 0 0 0 0 0 0];

internalField   nonuniform List<scalar> 
530
(
1.17272861e-05
1.86825497e-05
2.87314026e-10
2.86708636e-10
1.16758278e-05
1.59891085e-05
4.48495874e-09
3.11496389e-10
1.15110929e-05
1.35892533e-05
3.36679515e-10
3.3474226e-10
1.16680927e-05
1.1233231e-05
3.56671248e-10
3.54050416e-10
1.21673859e-05
9.21327755e-06
3.73783805e-10
3.74155964e-10
1.23408814e-05
7.97460231e-06
3.98235085e-10
3.98703359e-10
1.17203283e-05
7.58015334e-06
4.23808925e-10
4.23627995e-10
1.08829965e-05
7.23680991e-06
4.50469533e-10
4.48386583e-10
1.02429275e-05
6.80245199e-06
4.77041848e-10
4.73860571e-10
9.77559401e-06
6.37984517e-06
5.03094617e-10
4.9985606e-10
9.33392964e-06
6.03544501e-06
3.54422462e-08
5.25273245e-10
8.93852734e-06
5.67569261e-06
1.0342875e-07
5.50977473e-10
8.46265161e-06
5.5019065e-06
9.9481315e-08
5.81970408e-10
7.97548584e-06
5.48072957e-06
6.76768105e-08
2.47818531e-08
7.52132866e-06
5.5353573e-06
6.36135743e-10
2.25171733e-09
7.20360437e-06
5.51232597e-06
6.59352356e-10
6.61141575e-10
6.99340797e-06
5.55986033e-06
6.82357405e-10
6.84239922e-10
6.83673689e-06
5.54890723e-06
7.05849582e-10
7.07297402e-10
6.67175056e-06
5.48009751e-06
7.29341719e-10
7.30576927e-10
6.48600882e-06
5.38178853e-06
7.56371073e-10
7.57262233e-10
6.31237787e-06
5.29055362e-06
7.88092579e-10
7.88941662e-10
6.17037335e-06
5.13793592e-06
8.1966294e-10
8.20192138e-10
6.24147727e-06
4.90631595e-06
8.5285479e-10
8.52601556e-10
6.14934675e-06
4.86508261e-06
8.83972918e-10
8.85140121e-10
6.00512657e-06
4.72421761e-06
9.16873349e-10
9.17557801e-10
5.78010413e-06
4.59191051e-06
9.51193312e-10
9.50110927e-10
5.55198125e-06
4.56947368e-06
9.82012906e-10
9.82217368e-10
5.41949661e-06
4.4487688e-06
1.01890537e-09
1.01991321e-09
5.28708025e-06
4.33551932e-06
1.06283897e-09
1.06398861e-09
5.16991801e-06
4.2370492e-06
1.10642385e-09
1.1081348e-09
5.0450718e-06
4.12847214e-06
1.15010424e-09
1.15264281e-09
4.91273054e-06
4.01239597e-06
1.19371276e-09
1.19715176e-09
4.80507853e-06
3.89664209e-06
1.23700762e-09
1.24167408e-09
4.72205143e-06
3.772623e-06
1.28011967e-09
1.28622498e-09
4.66106634e-06
3.65045733e-06
1.32323959e-09
1.33097066e-09
4.60072315e-06
3.53866293e-06
1.37456176e-09
1.38572395e-09
4.52729751e-06
3.43660626e-06
1.43449196e-09
1.44654375e-09
4.43766869e-06
3.34721254e-06
1.49528784e-09
1.50768036e-09
4.32323958e-06
3.26159557e-06
1.55870221e-09
1.56921397e-09
4.25693608e-06
3.1792539e-06
1.62524056e-09
1.6339932e-09
4.10562022e-06
3.0965011e-06
1.69332297e-09
1.70128038e-09
3.9385215e-06
3.01548143e-06
1.76370042e-09
1.77002856e-09
3.74378281e-06
2.94665482e-06
1.83554787e-09
1.84187449e-09
3.54986018e-06
2.85578292e-06
1.92999122e-09
1.93560212e-09
3.39222941e-06
2.74527795e-06
2.02327983e-09
2.03030072e-09
3.30260881e-06
2.6282067e-06
2.11647738e-09
2.12504023e-09
3.23977628e-06
2.55348564e-06
2.20876202e-09
2.21894827e-09
3.09465953e-06
2.51750773e-06
2.29644271e-09
2.30635453e-09
3.01031661e-06
2.49761949e-06
2.38105099e-09
2.38973826e-09
2.97082566e-06
2.5001329e-06
2.46302269e-09
2.47189734e-09
2.94429877e-06
2.48237838e-06
2.55093689e-09
2.56215895e-09
2.91881939e-06
2.45106492e-06
2.65642842e-09
2.66809725e-09
2.88988982e-06
2.40841786e-06
2.76147654e-09
2.77414569e-09
2.8581783e-06
2.35660625e-06
2.8657847e-09
2.88002202e-09
2.82330671e-06
2.29645319e-06
2.96854623e-09
2.98448738e-09
2.78481991e-06
2.23240615e-06
3.07124039e-09
3.08846433e-09
2.75279602e-06
2.17207595e-06
3.1768881e-09
3.19399434e-09
2.68710958e-06
2.10359585e-06
3.28383999e-09
3.30104432e-09
2.61596054e-06
2.02105145e-06
3.39149438e-09
3.40744748e-09
2.53789783e-06
1.9519678e-06
3.49790255e-09
3.51323599e-09
2.46556918e-06
1.8851798e-06
3.62675616e-09
3.64434311e-09
2.3882873e-06
1.8206718e-06
3.76135556e-09
3.78261546e-09
2.30459146e-06
1.75401238e-06
3.9022285e-09
3.9239951e-09
2.21530606e-06
1.68057306e-06
4.04348735e-09
4.06614754e-09
2.11941686e-06
1.59651187e-06
4.1850754e-09
4.20951262e-09
2.01658055e-06
1.49451493e-06
4.32687668e-09
4.35536215e-09
1.90596228e-06
1.36423661e-06
4.46855162e-09
4.50240502e-09
1.79116678e-06
1.23139987e-06
4.60777137e-09
4.64610607e-09
1.68259811e-06
1.13667357e-06
4.74552328e-09
4.78148992e-09
1.58442759e-06
1.13814295e-06
4.88315445e-09
4.9115013e-09
1.49241284e-06
1.12778797e-06
5.01782893e-09
5.039944e-09
1.41002872e-06
1.11581853e-06
5.14986067e-09
5.16935385e-09
1.34096239e-06
1.09417125e-06
5.30285479e-09
5.32193735e-09
1.28032797e-06
1.06391747e-06
5.44869595e-09
5.47405107e-09
1.27157835e-06
1.0303413e-06
5.58891744e-09
5.62344152e-09
1.26129371e-06
1.00077038e-06
5.72797872e-09
5.76867244e-09
1.24301019e-06
9.76801176e-07
5.86668935e-09
5.91017926e-09
1.21910146e-06
9.52548989e-07
6.00360216e-09
6.04351405e-09
1.19225808e-06
9.27738802e-07
6.13796564e-09
6.17458326e-09
1.16208238e-06
9.03471779e-07
6.27007561e-09
6.30268334e-09
1.12816114e-06
8.80538996e-07
6.40098937e-09
6.42754114e-09
1.08921728e-06
8.58713491e-07
6.53038774e-09
6.54936772e-09
1.04809916e-06
8.33288019e-07
6.65708948e-09
6.66843405e-09
1.00605169e-06
8.03656836e-07
6.77295677e-09
6.78420772e-09
9.61958321e-07
7.72521927e-07
6.88582603e-09
6.89648043e-09
9.18717145e-07
7.41918263e-07
6.99564677e-09
7.0052289e-09
8.72709087e-07
7.10874146e-07
7.10249296e-09
7.11066743e-09
8.25221052e-07
6.77747797e-07
7.20618919e-09
7.21345067e-09
7.77113702e-07
6.42212523e-07
7.30659888e-09
7.3130687e-09
7.31476841e-07
6.07146428e-07
7.40287927e-09
7.40884127e-09
6.88373828e-07
5.72146949e-07
7.49533179e-09
7.50093785e-09
6.47493303e-07
5.37997465e-07
7.58394307e-09
7.58940976e-09
6.07728622e-07
5.05142155e-07
7.66879425e-09
7.67408133e-09
5.69810044e-07
4.7363719e-07
7.74991261e-09
7.75495286e-09
5.3360561e-07
4.43909847e-07
7.82732572e-09
7.83204721e-09
4.99031724e-07
4.157719e-07
7.90105375e-09
7.90541062e-09
4.66123498e-07
3.89086125e-07
7.9789039e-09
7.984091e-09
4.34911349e-07
3.63763882e-07
8.05518275e-09
8.05993327e-09
4.05410259e-07
3.3977692e-07
8.12725627e-09
8.13160372e-09
3.7762534e-07
3.17163493e-07
8.19522518e-09
8.19918923e-09
3.51569406e-07
2.95865091e-07
8.25919796e-09
8.26281946e-09
3.27163553e-07
2.75748978e-07
8.31928853e-09
8.32263627e-09
3.04329919e-07
2.56703434e-07
8.37561387e-09
8.37876198e-09
2.83034068e-07
2.38761088e-07
8.42830604e-09
8.4313184e-09
2.63234951e-07
2.21842084e-07
8.47751935e-09
8.4804236e-09
2.44745492e-07
2.06073941e-07
8.52339954e-09
8.52620011e-09
2.27602604e-07
1.91476566e-07
8.56611191e-09
8.5686738e-09
2.11617705e-07
1.78255403e-07
8.60575032e-09
8.60820358e-09
1.96604692e-07
1.65531324e-07
8.6427348e-09
8.64512792e-09
1.82054216e-07
1.53500259e-07
8.67712171e-09
8.67941514e-09
1.68132417e-07
1.42195636e-07
8.70910759e-09
8.71136214e-09
1.54757761e-07
1.31092426e-07
8.73997741e-09
8.74265948e-09
1.3768515e-07
1.1586025e-07
8.77509332e-09
8.77695762e-09
1.16060351e-07
9.40094427e-08
4.242322e-08
3.32762371e-08
6.79218104e-08
5.65366167e-08
5.66960126e-08
4.77663495e-08
5.46564662e-08
4.71996517e-08
5.11507865e-08
4.48736704e-08
4.77226518e-08
4.2347018e-08
4.42501075e-08
3.94901639e-08
4.07929106e-08
3.63164379e-08
3.74725762e-08
3.28421673e-08
3.40430715e-08
2.93857447e-08
3.05729432e-08
2.60195789e-08
2.71207278e-08
2.28443311e-08
2.37485326e-08
1.99499563e-08
2.0545291e-08
1.7387526e-08
1.76163459e-08
1.5175319e-08
1.50591407e-08
1.33102615e-08
1.29432521e-08
1.1774899e-08
1.12900234e-08
1.05431813e-08
1.00549403e-08
9.57617979e-09
9.14558058e-09
9.02838865e-09
9.028056e-09
9.02781492e-09
9.02765812e-09
9.02755499e-09
9.02750086e-09
9.02746529e-09
9.02744951e-09
9.02744229e-09
9.02743939e-09
9.02743829e-09
9.02743791e-09
9.02743779e-09
9.02743776e-09
9.02743775e-09
9.02743775e-09
9.02743774e-09
9.02743774e-09
9.02743774e-09
9.02743774e-09
9.02743774e-09
9.02743774e-09
9.02743774e-09
9.02743774e-09
9.02743774e-09
9.02743774e-09
9.02743774e-09
9.02743774e-09
9.02743774e-09
9.02743774e-09
9.02743774e-09
9.02743774e-09
9.02743774e-09
9.02743774e-09
9.02743774e-09
9.02743774e-09
9.02743774e-09
)
;

boundaryField
{
    closed
    {
        type            calculated;
        value           nonuniform List<scalar> 0();
    }
    open
    {
        type            calculated;
        value           uniform 9.02743774e-09;
    }
    sides
    {
        type            empty;
    }
    procBoundary5to4
    {
        type            processor;
        value           uniform 2.60308924e-10;
    }
}


// ************************************************************************* //
