/*--------------------------------*- C++ -*----------------------------------*\
| =========                 |                                                 |
| \\      /  F ield         | OpenFOAM: The Open Source CFD Toolbox           |
|  \\    /   O peration     | Version:  2306                                  |
|   \\  /    A nd           | Website:  www.openfoam.com                      |
|    \\/     M anipulation  |                                                 |
\*---------------------------------------------------------------------------*/
FoamFile
{
    version     2.0;
    format      ascii;
    arch        "LSB;label=32;scalar=64";
    class       volScalarField;
    location    "0.00158";
    object      prefDh_H;
}
// * * * * * * * * * * * * * * * * * * * * * * * * * * * * * * * * * * * * * //

dimensions      [1 1 -3 0 0 0 0];

internalField   nonuniform List<scalar> 
530
(
82181.0653
82261.6561
82800.9852
82795.6923
82391.9812
82462.8359
82996.9503
82978.3798
82584.1781
82647.0225
83159.7655
83146.4106
82754.7843
82821.6773
83301.6252
83284.0919
82898.9306
82991.8476
83422.2484
83425.8246
83040.0171
83141.6577
83558.6998
83560.1582
83194.5038
83269.235
83690.1005
83688.6764
83345.0506
83397.9987
83824.4413
83815.1572
83484.0198
83532.9233
83953.5576
83941.9195
83615.1734
83665.5143
84080.1419
84068.726
83743.2515
83793.0839
84188.8483
84193.1441
83867.4919
83919.9849
84286.4328
84313.4277
83991.0637
84039.1685
84395.1048
84426.7146
84115.4655
84152.5818
84509.6768
84527.233
84228.0029
84261.9424
84627.9624
84634.2098
84329.5029
84364.2748
84718.4318
84724.8471
84426.3503
84455.1812
84805.2617
84812.2177
84520.3913
84546.7673
84892.8353
84898.2006
84613.3613
84638.9805
84981.0847
84985.6999
84705.8603
84731.4313
85069.9806
85072.2895
84796.8422
84822.9475
85156.1873
85158.4058
84886.0306
84915.951
85242.6655
85244.0332
84967.3101
85012.4
85334.4298
85333.6553
85060.4042
85099.7376
85421.0555
85424.3248
85155.5061
85197.2135
85513.3417
85515.3259
85253.2403
85294.4522
85610.1091
85607.3333
85352.3013
85385.8632
85697.9424
85698.7255
85448.4312
85481.5426
85789.1182
85791.1081
85544.8463
85577.1648
85880.5534
85882.9012
85640.7675
85672.3926
85971.8623
85975.4534
85737.2854
85768.5183
86063.9574
86069.3246
85834.513
85865.3526
86156.4206
86163.6758
85930.4971
85962.4122
86248.6998
86258.4734
86026.3047
86060.0688
86341.0285
86353.6868
86121.8754
86158.6823
86433.745
86449.5869
86218.4584
86257.5819
86527.6323
86545.9009
86316.3693
86356.9957
86623.1146
86642.66
86415.6542
86456.7995
86720.273
86740.1693
86516.8325
86557.2897
86821.7832
86838.4791
86617.262
86658.9248
86928.2552
86942.0058
86728.0314
86765.5988
87036.9883
87049.3823
86840.4132
86876.565
87148.9961
87158.7909
86954.8913
86987.3087
87262.5114
87270.2484
87069.9342
87100.2073
87376.1378
87382.929
87184.4312
87214.651
87487.9402
87496.3773
87297.0291
87330.1941
87599.2076
87609.3933
87410.5168
87443.6091
87708.915
87720.8952
87527.412
87554.055
87812.7278
87824.2547
87631.1894
87657.539
87912.5172
87922.5214
87731.8131
87756.199
88008.8313
88018.9442
87831.3693
87855.5929
88104.5162
88114.8464
87930.0974
87955.1279
88199.3303
88209.9595
88027.971
88054.3726
88293.354
88304.7707
88124.7387
88153.0228
88386.2598
88398.9526
88220.2605
88250.7772
88477.289
88491.3508
88314.6926
88347.593
88567.7202
88582.7487
88407.399
88442.8158
88660.1184
88674.8733
88503.6513
88538.6213
88752.939
88767.6097
88598.577
88634.865
88845.5948
88859.0493
88692.2031
88728.4523
88936.4166
88949.1977
88784.1578
88820.1044
89025.3388
89037.3602
88874.7575
88909.8985
89111.7271
89123.8446
88964.0832
88998.1792
89196.9441
89209.1354
89052.1405
89085.2535
89281.0877
89293.5681
89138.881
89171.2954
89364.1167
89377.3519
89224.2724
89256.6933
89445.9688
89461.1122
89308.3244
89342.0011
89526.4688
89544.1482
89390.7095
89425.7311
89604.4046
89624.2004
89470.6299
89507.9096
89680.3806
89698.7882
89547.3993
89580.8449
89755.2552
89769.5856
89621.8249
89654.4226
89827.4383
89838.61
89693.6023
89726.1523
89897.2525
89905.8239
89762.5588
89797.4575
89963.9217
89972.0559
89829.0492
89868.3195
90026.5963
90037.2569
89893.5367
89937.7769
90086.2078
90100.508
89956.2768
90004.0802
90144.6532
90161.2701
90018.5621
90067.2334
90202.2624
90219.8156
90079.6831
90128.4798
90258.4563
90274.4417
90139.002
90187.8399
90312.9723
90327.569
90196.7566
90244.9702
90365.9719
90378.9386
90253.1268
90299.7658
90417.909
90428.4698
90308.5679
90352.2979
90468.6823
90476.3038
90362.4763
90403.6001
90517.8748
90522.5896
90414.5309
90453.7192
90562.4585
90567.1384
90465.1975
90502.0939
90605.5064
90609.9172
90513.9265
90548.3978
90647.0016
90650.9615
90561.3228
90592.912
90686.9941
90690.3896
90607.2012
90636.0196
90725.4498
90728.4709
90651.4749
90677.8608
90762.3503
90765.058
90693.5441
90717.9048
90797.4276
90799.9317
90733.4615
90756.2685
90830.8283
90833.1841
90771.3399
90792.8509
90862.5834
90864.8646
90807.2472
90827.541
90892.7529
90894.9423
90841.3075
90860.3547
90921.3735
90923.4486
90873.5837
90891.3664
90948.4824
90950.4187
90904.1354
90920.6562
90974.1131
90975.8956
90932.9999
90948.2957
90998.2581
90999.8808
90960.213
90974.3509
91020.9861
91022.4682
90985.8154
90998.8732
91042.3525
91043.7055
91009.8549
91021.8965
91062.405
91063.6356
91032.3804
91043.4825
91081.1913
91082.3126
91053.4539
91063.7051
91098.7594
91099.7927
91073.1356
91082.639
91115.1567
91116.1249
91091.4809
91100.3225
91130.4339
91131.3565
91108.5469
91116.8229
91144.6467
91145.5323
91124.4199
91132.1577
91157.8475
91158.6978
91139.1377
91146.3801
91170.0928
91170.8687
91152.7854
91159.4865
91181.4173
91182.1568
91165.4386
91171.7099
91191.9491
91192.6665
91177.2515
91183.0551
91201.7102
91202.3936
91188.2278
91193.5599
91210.7616
91211.4272
91198.4175
91203.38
91219.4751
91220.2559
91208.6587
91213.4228
91229.3828
91229.9167
91219.0926
91224.1976
91236.4708
91239.3531
91235.0064
91238.6573
91240.9438
91244.3546
91245.3881
91248.7218
91250.3698
91253.6323
91255.5419
91258.7241
91260.8654
91263.9295
91266.2545
91269.1081
91271.6167
91274.4513
91276.8048
91279.5365
91281.6668
91284.2138
91286.0551
91288.3302
91289.8416
91291.762
91292.9314
91294.4399
91295.2818
91296.3632
91296.9168
91297.6046
91297.9291
91298.3014
91298.4657
91298.6268
91298.6996
91298.753
91298.7917
91298.7109
91298.6107
91298.5387
91298.4922
91298.4619
91298.4461
91298.4357
91298.4312
91298.4291
91298.4283
91298.428
91298.4278
91298.4278
91298.4278
91298.4278
91298.4278
91298.4278
91298.4278
91298.4278
91298.4278
91298.4278
91298.4278
91298.4278
91298.4278
91298.4278
91298.4278
91298.4278
91298.4278
91298.4278
91298.4278
91298.4278
91298.4278
91298.4278
91298.4278
91298.4278
91298.4278
91298.4278
)
;

boundaryField
{
    closed
    {
        type            calculated;
        value           nonuniform List<scalar> 0();
    }
    open
    {
        type            calculated;
        value           uniform 91298.4278;
    }
    sides
    {
        type            empty;
    }
    procBoundary5to4
    {
        type            processor;
        value           uniform 82596.5698;
    }
}


// ************************************************************************* //
