/*--------------------------------*- C++ -*----------------------------------*\
| =========                 |                                                 |
| \\      /  F ield         | OpenFOAM: The Open Source CFD Toolbox           |
|  \\    /   O peration     | Version:  2306                                  |
|   \\  /    A nd           | Website:  www.openfoam.com                      |
|    \\/     M anipulation  |                                                 |
\*---------------------------------------------------------------------------*/
FoamFile
{
    version     2.0;
    format      ascii;
    arch        "LSB;label=32;scalar=64";
    class       volScalarField;
    location    "0.00158";
    object      T;
}
// * * * * * * * * * * * * * * * * * * * * * * * * * * * * * * * * * * * * * //

dimensions      [0 0 0 1 0 0 0];

internalField   nonuniform List<scalar> 
530
(
1440.46265
1443.51857
1451.73139
1451.56566
1445.32608
1447.73424
1456.24023
1455.75892
1449.74383
1451.57987
1459.96257
1459.60978
1453.70945
1455.19238
1463.19543
1462.75082
1457.1147
1458.71487
1465.92966
1465.98237
1460.38372
1461.90618
1469.03267
1469.04314
1463.82358
1464.72663
1472.01365
1471.96467
1467.1073
1467.57801
1475.06221
1474.83177
1470.15241
1470.54963
1477.98678
1477.70063
1473.04435
1473.46398
1480.84795
1480.56689
1475.86462
1476.27469
1483.31602
1483.37282
1478.59969
1479.06215
1485.55037
1486.07946
1481.29969
1481.71135
1487.98354
1488.62253
1483.99481
1484.26002
1490.52565
1490.88601
1486.41689
1486.7317
1493.11855
1493.25869
1488.61117
1489.01814
1495.11797
1495.26303
1490.72098
1491.05166
1497.03246
1497.19102
1492.77674
1493.08544
1498.96482
1499.08616
1494.80442
1495.11909
1500.91287
1501.01621
1496.81577
1497.14757
1502.87761
1502.92615
1498.79404
1499.1512
1504.78129
1504.82712
1500.73774
1501.17171
1506.69027
1506.71608
1502.5447
1503.24918
1508.72356
1508.69814
1504.5947
1505.16882
1510.63376
1510.70426
1506.68055
1507.30129
1512.67839
1512.71849
1508.80913
1509.43059
1514.8292
1514.75679
1510.95777
1511.45629
1516.76878
1516.78098
1513.06242
1513.55389
1518.78955
1518.83073
1515.17426
1515.65292
1520.81907
1520.86882
1517.27975
1517.74792
1522.84634
1522.92559
1519.39816
1519.86192
1524.89346
1525.01473
1521.53316
1521.99178
1526.95025
1527.11629
1523.65021
1524.13101
1529.00384
1529.22967
1525.77201
1526.28445
1531.05972
1531.35423
1527.89649
1528.46262
1533.12607
1533.49651
1530.04665
1530.65252
1535.22301
1535.65203
1532.22604
1532.85929
1537.361
1537.82063
1534.43497
1535.08088
1539.54042
1540.00852
1536.68356
1537.32175
1541.82345
1542.21676
1538.92908
1539.59186
1544.22473
1544.54817
1541.40079
1541.98258
1546.68173
1546.97198
1543.90761
1544.47702
1549.21782
1549.44606
1546.45753
1546.97206
1551.7916
1551.97107
1549.02331
1549.51257
1554.37347
1554.53061
1551.58972
1552.08531
1556.9139
1557.11034
1554.13386
1554.6843
1559.44398
1559.68238
1556.70599
1557.25067
1561.94062
1562.22134
1559.33536
1559.76477
1564.30216
1564.57278
1561.68
1562.12529
1566.57226
1566.80703
1563.96963
1564.38329
1568.76358
1569.00114
1566.24231
1566.65583
1570.94403
1571.18725
1568.4995
1568.93101
1573.10968
1573.36007
1570.73904
1571.19911
1575.26044
1575.52946
1572.95528
1573.45362
1577.38853
1577.68771
1575.14488
1575.68785
1579.47589
1579.80764
1577.31164
1577.90213
1581.55245
1581.90755
1579.44236
1580.08324
1583.67861
1584.02772
1581.6515
1582.27993
1585.81839
1586.16561
1583.83068
1584.48695
1587.9578
1588.27616
1585.97998
1586.63875
1590.05688
1590.35962
1588.09456
1588.74873
1592.11591
1592.40148
1590.17844
1590.81846
1594.11948
1594.40823
1592.2329
1592.85438
1596.09953
1596.39031
1594.2582
1594.86199
1598.05732
1598.35519
1596.25278
1596.84405
1599.9918
1600.30794
1598.21568
1598.80722
1601.90143
1602.26365
1600.1468
1600.76102
1603.78195
1604.20532
1602.03975
1602.67927
1605.60446
1606.07813
1603.87982
1604.56046
1607.38306
1607.82298
1605.65483
1606.26258
1609.13724
1609.47973
1607.3787
1607.96962
1610.83034
1611.09647
1609.04575
1609.63426
1612.46929
1612.67275
1610.6526
1611.28145
1614.03677
1614.22951
1612.20608
1612.91167
1615.51089
1615.76392
1613.71006
1614.5076
1616.91381
1617.25406
1615.17342
1616.03556
1618.29079
1618.68701
1616.61956
1617.49706
1619.64989
1620.06878
1618.03416
1618.91533
1620.97735
1621.35847
1619.40497
1620.29035
1622.26675
1622.61401
1620.7371
1621.61472
1623.52179
1623.82933
1622.0341
1622.8868
1624.75312
1625.00261
1623.30531
1624.10784
1625.95828
1626.1369
1624.53946
1625.29725
1627.12714
1627.23563
1625.73047
1626.45564
1628.18707
1628.29442
1626.88808
1627.5724
1629.21122
1629.31234
1628.00163
1628.64165
1630.19946
1630.29009
1629.08174
1629.66892
1631.15303
1631.2304
1630.12528
1630.66155
1632.07105
1632.1397
1631.13098
1631.62239
1632.95302
1633.01427
1632.08771
1632.54175
1633.79237
1633.84883
1632.99674
1633.42205
1634.59253
1634.64553
1633.86028
1634.26158
1635.35412
1635.40549
1634.67976
1635.05842
1636.0785
1636.12787
1635.45758
1635.81309
1636.76652
1636.81333
1636.19507
1636.52708
1637.41898
1637.46266
1636.89351
1637.20206
1638.03661
1638.0768
1637.55378
1637.83954
1638.61949
1638.65608
1638.17673
1638.44095
1639.16897
1639.20234
1638.76331
1639.00744
1639.6862
1639.71662
1639.3146
1639.53982
1640.17227
1640.19991
1639.83175
1640.03946
1640.62827
1640.65343
1640.3161
1640.50794
1641.0553
1641.07849
1640.76898
1640.94689
1641.45445
1641.4762
1641.19166
1641.35722
1641.8269
1641.84767
1641.58541
1641.74043
1642.17394
1642.19393
1641.95205
1642.09703
1642.49679
1642.51602
1642.29251
1642.42828
1642.79675
1642.81431
1642.60858
1642.73429
1643.07465
1643.09145
1642.90185
1643.01966
1643.33354
1643.34991
1643.17542
1643.28472
1643.57391
1643.58959
1643.42952
1643.53036
1643.79722
1643.81266
1643.66513
1643.75962
1644.01246
1644.03089
1643.89741
1643.98916
1644.25675
1644.26962
1644.12718
1644.22708
1644.46765
1644.52774
1644.46304
1644.53977
1644.59739
1644.6713
1644.7061
1644.78009
1644.82667
1644.90054
1644.95243
1645.02564
1645.08233
1645.15359
1645.21437
1645.28098
1645.34645
1645.41268
1645.47464
1645.53857
1645.59523
1645.65497
1645.70458
1645.75813
1645.79943
1645.84491
1645.87736
1645.91341
1645.93715
1645.96334
1645.97923
1645.99621
1646.0057
1646.01516
1646.02006
1646.02433
1646.02648
1646.02796
1646.02893
1646.02724
1646.02508
1646.0235
1646.02247
1646.02179
1646.02143
1646.02119
1646.02108
1646.02104
1646.02102
1646.02101
1646.02101
1646.021
1646.021
1646.021
1646.021
1646.021
1646.021
1646.021
1646.021
1646.021
1646.021
1646.021
1646.021
1646.021
1646.021
1646.021
1646.021
1646.021
1646.021
1646.021
1646.021
1646.021
1646.021
1646.021
1646.021
1646.021
)
;

boundaryField
{
    closed
    {
        type            fixedValue;
        value           nonuniform List<scalar> 0();
    }
    open
    {
        type            zeroGradient;
    }
    sides
    {
        type            empty;
    }
    procBoundary5to4
    {
        type            processor;
        value           uniform 1446.98987;
    }
}


// ************************************************************************* //
