/*--------------------------------*- C++ -*----------------------------------*\
| =========                 |                                                 |
| \\      /  F ield         | OpenFOAM: The Open Source CFD Toolbox           |
|  \\    /   O peration     | Version:  2306                                  |
|   \\  /    A nd           | Website:  www.openfoam.com                      |
|    \\/     M anipulation  |                                                 |
\*---------------------------------------------------------------------------*/
FoamFile
{
    version     2.0;
    format      ascii;
    arch        "LSB;label=32;scalar=64";
    class       volScalarField;
    location    "0.001";
    object      p;
}
// * * * * * * * * * * * * * * * * * * * * * * * * * * * * * * * * * * * * * //

dimensions      [1 -1 -2 0 0 0 0];

internalField   nonuniform List<scalar> 
531
(
101265.245
101266.151
101267.179
101268.278
101269.623
101270.797
101272.312
101274.136
101276.3
101278.386
101280.928
101283.976
101287.426
101290.801
101294.731
101299.031
101303.782
101308.775
101313.896
101319.753
101326.002
101332.672
101339.314
101346.659
101354.44
101362.681
101370.785
101378.918
101387.624
101396.461
101405.389
101413.911
101422.778
101431.712
101440.681
101449.041
101456.977
101464.968
101472.735
101480.348
101487.729
101494.399
101500.519
101506.404
101511.943
101516.915
101521.677
101526.001
101529.989
101532.451
101535.365
101537.154
101538.242
101538.632
101538.296
101537.195
101535.522
101533.425
101530.771
101527.621
101523.897
101519.767
101515.527
101510.893
101506.122
101501.037
101495.648
101490.057
101484.728
101479.34
101473.927
101468.478
101463.036
101457.493
101452.085
101446.782
101441.669
101436.901
101432.543
101428.481
101424.715
101421.239
101418.499
101416.134
101414.281
101412.919
101412.019
101411.772
101411.932
101412.685
101413.999
101415.874
101418.29
101421.17
101424.794
101429.113
101434.191
101439.993
101446.216
101453.005
101460.728
101469.812
101479.633
101489.676
101500.734
101513.376
101526.695
101539.882
101553.91
101568.574
101583.619
101599.06
101614.699
101631.261
101648.078
101664.761
101681.063
101697.523
101714.305
101730.542
101746.064
101761.412
101776.94
101792.773
101807.587
101821.621
101834.941
101846.111
101857.026
101868.061
101878.432
101887.046
101895.341
101903.185
101910.101
101915.357
101920.127
101924.109
101927.351
101929.518
101931.457
101932.826
101933.992
101934.766
101935.732
101936.452
101937.488
101938.581
101939.614
101941.183
101942.663
101943.973
101944.803
101945.786
101946.076
101946.081
101945.482
101943.947
101942.023
101938.595
101933.947
101928.02
101920.545
101911.972
101901.508
101889.722
101876.758
101862.933
101846.991
101829.749
101812.237
101794.383
101776.01
101755.764
101734.361
101712.868
101691.254
101669.131
101645.338
101620.717
101596.451
101573.064
101550.821
101529.437
101508.639
101488.627
101470.237
101453.945
101439.552
101426.175
101414.383
101404.729
101397.298
101392.12
101389.19
101388.413
101389.309
101392.125
101396.423
101401.855
101407.913
101414.37
101420.946
101427.802
101433.979
101439.595
101444.499
101448.921
101452.319
101454.957
101456.769
101457.706
101457.662
101456.748
101454.943
101451.778
101447.663
101442.639
101436.922
101430.51
101422.83
101414.63
101406.42
101398.356
101390.366
101381.86
101373.479
101365.638
101358.212
101351.477
101344.102
101337.229
101331.201
101325.397
101320.311
101315.963
101312.478
101309.562
101307.856
101305.479
101304.339
101304.451
101305.084
101306.545
101308.813
101311.811
101315.155
101319.101
101323.784
101328.821
101333.51
101337.984
101341.511
101343.552
101352.568
101359.86
101366.191
101372.514
101378.665
101384.224
101389.737
101395.121
101400.265
101405.053
101409.286
101413.22
101416.714
101419.633
101421.969
101423.665
101425.005
101425.968
101426.473
101426.695
101426.92
101427.1
101427.695
101428.874
101430.844
101433.771
101437.766
101442.732
101448.49
101454.789
101461.516
101468.553
101475.983
101483.911
101492.14
101501.306
101511.258
101521.705
101532.238
101542.654
101553.943
101566.468
101578.539
101590.872
101603.812
101617.153
101630.644
101643.701
101657.223
101672.47
101688.772
101705.201
101721.045
101735.916
101751.336
101766.001
101779.223
101791.783
101804.675
101817.586
101829.711
101840.49
101850.375
101859.873
101868.804
101876.198
101881.546
101885.071
101885.999
101884.379
101879.482
101871.251
101859.924
101843.879
101825.749
101806.663
101786.847
101764.397
101739.818
101714.345
101687.993
101660.682
101629.563
101596.415
101563.026
101530.86
101500.08
101467.811
101434.756
101402.413
101372.592
101345.025
101317.147
101289.023
101261.761
101236.707
101213.303
101189.786
101167.165
101145.749
101125.46
101104.823
101084.463
101064.955
101046.016
101026.698
101006.401
100985.632
100965.484
100945.401
100924.345
100902.231
100879.42
100857.579
100837.224
100818.922
100802.487
100787.686
100776.08
100769.181
100766.662
100769.451
100779.52
100796.641
100820.424
100848.337
100883.414
100925.039
100973.024
101022.733
101068.633
101114.238
101156.586
101193.39
101222.522
101242.105
101250.612
101246.974
101230.665
101201.778
101161.054
101109.924
101050.412
100985.104
100917.097
100850.022
100788.662
100738.49
100705.393
100692.725
100706.72
100750.489
100824.502
100925.569
101047.28
101179.513
101311.08
101432.489
101530.962
101601.793
101635.582
101627.225
101573.384
101475.73
101344.138
101194.102
101054.233
100953.033
100919.7
100947.703
101031.406
101143.097
101247.446
101315.606
101338.565
101328.431
101310.955
101309.276
101342.258
101389.554
101475.87
101596.616
101686.317
101712.814
101696.37
101646.97
101614.084
101578.043
101554.464
101546.059
101552.655
101569.351
101589.715
101608.995
101622.891
101627.993
101623.559
101609.29
101586.327
101556.878
101523.953
101490.698
101460.449
101436.132
101420.188
101414.265
101419.155
101434.881
101460.623
101495.063
101536.317
101582.367
101630.997
101680.174
101727.918
101772.532
101812.666
101847.447
101876.033
101898.192
101914.03
101923.778
101927.971
101927.211
101922.25
101913.836
101902.793
101889.84
101875.693
101861.003
101846.205
101831.747
101817.969
101805.133
101793.428
101782.986
101773.882
101766.159
101759.828
101754.889
101751.325
101749.123
101748.265
101748.756
101750.582
101753.754
101758.278
101764.163
101771.412
101780.019
101789.964
101801.212
101813.706
101827.371
101842.103
101857.772
101874.224
101891.284
101908.754
101926.421
101944.053
101961.421
101978.288
101994.421
102009.598
102023.605
102036.247
102047.346
102056.75
102064.331
102069.994
102073.669
102075.323
102074.949
102072.571
102068.244
102062.048
)
;

boundaryField
{
    closed
    {
        type            zeroGradient;
    }
    open
    {
        type            waveTransmissive;
        gamma           1.25;
        fieldInf        101325;
        lInf            1;
        value           nonuniform List<scalar> 0();
    }
    sides
    {
        type            empty;
    }
    procBoundary4to3
    {
        type            processor;
        value           uniform 101264.606;
    }
    procBoundary4to5
    {
        type            processor;
        value           uniform 102054.087;
    }
}


// ************************************************************************* //
