/*--------------------------------*- C++ -*----------------------------------*\
| =========                 |                                                 |
| \\      /  F ield         | OpenFOAM: The Open Source CFD Toolbox           |
|  \\    /   O peration     | Version:  2306                                  |
|   \\  /    A nd           | Website:  www.openfoam.com                      |
|    \\/     M anipulation  |                                                 |
\*---------------------------------------------------------------------------*/
FoamFile
{
    version     2.0;
    format      ascii;
    arch        "LSB;label=32;scalar=64";
    class       volScalarField;
    location    "0.0011";
    object      prefDZ_H2O;
}
// * * * * * * * * * * * * * * * * * * * * * * * * * * * * * * * * * * * * * //

dimensions      [1 -1 -1 0 0 0 0];

internalField   nonuniform List<scalar> 
530
(
-7.74494164e-07
-7.41069839e-07
-7.34940197e-07
-7.41356657e-07
-7.7375809e-07
-7.74519936e-07
-7.3983358e-07
-7.34840497e-07
-7.42173813e-07
-7.73669148e-07
-7.7442006e-07
-7.40476139e-07
-7.35350233e-07
-7.42673157e-07
-7.73759836e-07
-7.74293039e-07
-7.3899225e-07
-7.36022506e-07
-7.35646493e-07
-7.41389459e-07
-7.74251879e-07
-7.74084145e-07
-7.73697939e-07
-7.75504547e-07
-7.39989434e-07
-7.34208158e-07
-7.40609095e-07
-7.74080848e-07
-7.74450325e-07
-7.37759508e-07
-7.35736082e-07
-7.35689441e-07
-7.39566743e-07
-7.73535438e-07
-7.74748768e-07
-7.38083068e-07
-7.34886562e-07
-7.40934216e-07
-7.73584849e-07
-7.74885512e-07
-7.38053457e-07
-7.34122153e-07
-7.40814088e-07
-7.74353246e-07
-7.73878163e-07
-7.73809035e-07
-7.75173441e-07
-7.38960379e-07
-7.3518569e-07
-7.35525885e-07
-7.38244519e-07
-7.73961671e-07
-7.74943727e-07
-7.3714014e-07
-7.34713739e-07
-7.33957841e-07
-7.36969194e-07
-7.75964837e-07
-7.73958538e-07
-7.78070828e-07
-7.35507614e-07
-7.36947788e-07
-7.73440796e-07
-7.75684083e-07
-7.38582322e-07
-7.34977385e-07
-7.39326679e-07
-7.74285951e-07
-7.75710232e-07
-7.36079461e-07
-7.38071824e-07
-7.73366138e-07
-7.74596867e-07
-7.46634981e-07
-7.35451475e-07
-7.45850591e-07
-7.7482615e-07
-7.40888856e-07
-7.39145673e-07
-7.72982365e-07
-7.75446969e-07
-7.36827357e-07
-7.33941933e-07
-7.3842649e-07
-7.74126745e-07
-7.76379496e-07
-7.36990182e-07
-7.38827738e-07
-7.73485073e-07
-7.75799278e-07
-7.3681525e-07
-7.33993318e-07
-7.38823612e-07
-7.74251624e-07
-7.76946906e-07
-7.36985753e-07
-7.38540491e-07
-7.73790187e-07
-7.77234813e-07
-7.36968039e-07
-7.39148056e-07
-7.73498857e-07
-7.75945835e-07
-7.37293032e-07
-7.34516143e-07
-7.40863919e-07
-7.73907424e-07
-7.75794314e-07
-7.37514326e-07
-7.34677401e-07
-7.41507114e-07
-7.73807925e-07
-7.75929836e-07
-7.37518894e-07
-7.34878113e-07
-7.40814156e-07
-7.73906644e-07
-7.77735929e-07
-7.3754977e-07
-7.40278525e-07
-7.7330399e-07
-7.76165486e-07
-7.37696372e-07
-7.348603e-07
-7.41705327e-07
-7.73734446e-07
-7.76068654e-07
-7.37910886e-07
-7.34944374e-07
-7.42054716e-07
-7.73676692e-07
-7.76133604e-07
-7.38008786e-07
-7.35027535e-07
-7.42303451e-07
-7.73635037e-07
-7.76281627e-07
-7.3795083e-07
-7.34972529e-07
-7.4142282e-07
-7.73886166e-07
-7.78722687e-07
-7.37666749e-07
-7.41341458e-07
-7.73422729e-07
-7.76946521e-07
-7.36335347e-07
-7.34316712e-07
-7.40562881e-07
-7.74270517e-07
-7.79742518e-07
-7.36500143e-07
-7.40078854e-07
-7.73298644e-07
-7.76463399e-07
-7.39675463e-07
-7.35574136e-07
-7.43291033e-07
-7.73740774e-07
-7.76843137e-07
-7.36981302e-07
-7.34851418e-07
-7.41389861e-07
-7.74227063e-07
-7.79922319e-07
-7.36451985e-07
-7.40087715e-07
-7.73353938e-07
-7.76801099e-07
-7.38083441e-07
-7.35213935e-07
-7.43456858e-07
-7.73537342e-07
-7.76277542e-07
-7.39575948e-07
-7.35300573e-07
-7.43675946e-07
-7.73434084e-07
-7.75970014e-07
-7.40624952e-07
-7.36225735e-07
-7.44559547e-07
-7.73385908e-07
-7.76305861e-07
-7.38263729e-07
-7.36300479e-07
-7.3689784e-07
-7.35341184e-07
-7.4089858e-07
-7.74023642e-07
-7.7921286e-07
-7.37371305e-07
-7.4076505e-07
-7.73504981e-07
-7.79146804e-07
-7.37050519e-07
-7.41245788e-07
-7.73117103e-07
-7.76825005e-07
-7.36999489e-07
-7.34564205e-07
-7.4139395e-07
-7.74492109e-07
-7.7934863e-07
-7.35530913e-07
-7.38473484e-07
-7.74012536e-07
-7.79248762e-07
-7.35680636e-07
-7.39243976e-07
-7.73852614e-07
-7.76872812e-07
-7.34900781e-07
-7.34453945e-07
-7.43162462e-07
-7.74639709e-07
-7.78554697e-07
-7.35259839e-07
-7.3837804e-07
-7.74287664e-07
-7.78643691e-07
-7.35634437e-07
-7.38483122e-07
-7.74637771e-07
-7.79059297e-07
-7.32669294e-07
-7.3639107e-07
-7.74046447e-07
-7.75907732e-07
-7.39171511e-07
-7.35980543e-07
-7.44493161e-07
-7.7422073e-07
-7.76449056e-07
-7.36127878e-07
-7.38690681e-07
-7.74684598e-07
-7.77399919e-07
-7.32763871e-07
-7.35455719e-07
-7.7494965e-07
-7.75158913e-07
-7.45745607e-07
-7.3619166e-07
-7.4196208e-07
-7.7479878e-07
-7.76301097e-07
-7.35356766e-07
-7.34770512e-07
-7.55362083e-07
-7.7548845e-07
-7.79277197e-07
-7.33151849e-07
-7.34267077e-07
-7.76151786e-07
-7.75008491e-07
-7.49137419e-07
-7.36716761e-07
-7.41457254e-07
-7.75503503e-07
-7.74664436e-07
-7.38161816e-07
-7.36085392e-07
-7.47257982e-07
-7.75768711e-07
-7.74772043e-07
-7.40353107e-07
-7.35604322e-07
-7.36328915e-07
-7.53950968e-07
-7.76056382e-07
-7.75739439e-07
-7.40741281e-07
-7.34870919e-07
-7.42824048e-07
-7.79207865e-07
-7.76184714e-07
-7.44668176e-07
-7.34777231e-07
-7.38317534e-07
-7.74506702e-07
-7.76215083e-07
-7.49842649e-07
-7.38115669e-07
-7.56726001e-07
-7.78359999e-07
-7.52692431e-07
-7.36962251e-07
-7.40854143e-07
-7.73942336e-07
-7.76949531e-07
-7.55583232e-07
-7.36358188e-07
-7.37613966e-07
-7.68293442e-07
-7.77506963e-07
-7.58685901e-07
-7.36658092e-07
-7.37078428e-07
-7.66277286e-07
-7.77868627e-07
-7.59664583e-07
-7.36756714e-07
-7.37100662e-07
-7.66140297e-07
-7.77985922e-07
-7.57530288e-07
-7.36792509e-07
-7.42156784e-07
-7.77397926e-07
-7.79168192e-07
-7.42481981e-07
-7.36285065e-07
-7.45744761e-07
-7.79120801e-07
-7.79181544e-07
-7.41421153e-07
-7.35779464e-07
-7.40442973e-07
-7.76459876e-07
-7.75815097e-07
-7.55088268e-07
-7.36860216e-07
-7.36028584e-07
-7.5180014e-07
-7.7739033e-07
-7.75116865e-07
-7.53917015e-07
-7.3693699e-07
-7.36159739e-07
-7.5464254e-07
-7.77526717e-07
-7.67904365e-07
-7.37311742e-07
-7.36055435e-07
-7.52874494e-07
-7.77532008e-07
-7.67905189e-07
-7.37686462e-07
-7.36170674e-07
-7.52326152e-07
-7.76979031e-07
-7.69673499e-07
-7.40610895e-07
-7.46768519e-07
-7.78190212e-07
-7.67142612e-07
-7.37892863e-07
-7.36552342e-07
-7.54225709e-07
-7.76387432e-07
-7.69634348e-07
-7.40584054e-07
-7.47352459e-07
-7.77728993e-07
-7.65437608e-07
-7.37347532e-07
-7.36264641e-07
-7.36546004e-07
-7.36673503e-07
-7.55575265e-07
-7.75920459e-07
-7.69128362e-07
-7.40056761e-07
-7.47156462e-07
-7.77027374e-07
-7.65207322e-07
-7.3666462e-07
-7.35089477e-07
-7.50541808e-07
-7.76491394e-07
-7.66702919e-07
-7.38529479e-07
-7.46030406e-07
-7.76872957e-07
-7.64382822e-07
-7.37894215e-07
-7.46179644e-07
-7.7691721e-07
-7.62632329e-07
-7.37562635e-07
-7.46514779e-07
-7.76861693e-07
-7.6136272e-07
-7.37424066e-07
-7.47192829e-07
-7.76804669e-07
-7.60405859e-07
-7.374429e-07
-7.48169639e-07
-7.7671906e-07
-7.59042393e-07
-7.3755204e-07
-7.49711041e-07
-7.76933385e-07
-7.56094083e-07
-7.343574e-07
-7.34365604e-07
-7.55627101e-07
-7.76565327e-07
-7.56971019e-07
-7.37932425e-07
-7.52795029e-07
-7.76655179e-07
-7.54853001e-07
-7.37781553e-07
-7.54525927e-07
-7.76937387e-07
-7.52421712e-07
-7.37864662e-07
-7.57021248e-07
-7.77677067e-07
-7.4794325e-07
-7.34335411e-07
-7.3543493e-07
-7.64499206e-07
-7.77235558e-07
-7.50046444e-07
-7.38381696e-07
-7.60767414e-07
-7.77297433e-07
-7.48833136e-07
-7.38470257e-07
-7.63023118e-07
-7.77484953e-07
-7.47539304e-07
-7.38752959e-07
-7.65635988e-07
-7.782083e-07
-7.4483966e-07
-7.35956094e-07
-7.4173291e-07
-7.7599533e-07
-7.76664147e-07
-7.49926303e-07
-7.36924417e-07
-7.37032121e-07
-7.36786024e-07
-7.37394115e-07
-7.57188396e-07
-7.74333784e-07
-7.7660911e-07
-7.50464907e-07
-7.38415736e-07
-7.43856094e-07
-7.76960118e-07
-7.7849688e-07
-7.42511894e-07
-7.36121286e-07
-7.40927565e-07
-7.77389946e-07
-7.7808809e-07
-7.43900256e-07
-7.40080499e-07
-7.71410973e-07
-7.79035943e-07
-7.41942329e-07
-7.36023766e-07
-7.43481047e-07
-7.76978771e-07
-7.79554996e-07
-7.39397463e-07
-7.36469463e-07
-7.52304241e-07
-7.76292341e-07
-7.68593344e-07
-7.36628341e-07
-7.3735584e-07
-7.65588488e-07
-7.76860085e-07
-7.5627986e-07
-7.3572494e-07
-7.37792534e-07
-7.71651486e-07
-7.77370052e-07
-7.50866553e-07
-7.35676643e-07
-7.38094216e-07
-7.74453195e-07
-7.77761917e-07
-7.47556686e-07
-7.35637165e-07
-7.38289281e-07
-7.78353706e-07
-7.78695319e-07
-7.41488136e-07
-7.39121151e-07
-7.7341221e-07
-7.77825738e-07
-7.44703868e-07
-7.35193952e-07
-7.38374727e-07
-7.79100233e-07
-7.79305047e-07
-7.40802246e-07
-7.42064532e-07
-7.78706864e-07
-7.70838684e-07
-7.38666772e-07
-7.43040936e-07
-7.76090319e-07
-7.78563714e-07
-7.38577893e-07
-7.35337267e-07
-7.44331202e-07
-7.75797124e-07
-7.78481918e-07
-7.38324408e-07
-7.35386699e-07
-7.45659284e-07
-7.75290218e-07
-7.78277836e-07
-7.38304387e-07
-7.35529733e-07
-7.47786188e-07
-7.74772148e-07
-7.7809579e-07
-7.38301045e-07
-7.35399944e-07
-7.44346231e-07
-7.75029356e-07
-7.77101623e-07
-7.40487855e-07
-7.35511302e-07
-7.41833112e-07
-7.75380199e-07
-7.76563085e-07
-7.41716819e-07
-7.3541278e-07
-7.40104322e-07
)
;

boundaryField
{
    closed
    {
        type            calculated;
        value           nonuniform List<scalar> 0();
    }
    open
    {
        type            calculated;
        value           nonuniform List<scalar> 0();
    }
    sides
    {
        type            empty;
    }
    procBoundary2to1
    {
        type            processor;
        value           uniform -7.73845711e-07;
    }
    procBoundary2to3
    {
        type            processor;
        value           uniform -7.75665585e-07;
    }
}


// ************************************************************************* //
