/*--------------------------------*- C++ -*----------------------------------*\
| =========                 |                                                 |
| \\      /  F ield         | OpenFOAM: The Open Source CFD Toolbox           |
|  \\    /   O peration     | Version:  2306                                  |
|   \\  /    A nd           | Website:  www.openfoam.com                      |
|    \\/     M anipulation  |                                                 |
\*---------------------------------------------------------------------------*/
FoamFile
{
    version     2.0;
    format      ascii;
    arch        "LSB;label=32;scalar=64";
    class       volScalarField;
    location    "0.0011";
    object      prefDh_H;
}
// * * * * * * * * * * * * * * * * * * * * * * * * * * * * * * * * * * * * * //

dimensions      [1 1 -3 0 0 0 0];

internalField   nonuniform List<scalar> 
530
(
23960.3042
23370.4541
23068.3541
23371.512
23985.846
23961.3301
23374.0496
23063.4213
23369.9398
23988.0275
23960.7409
23366.7743
23101.2041
23363.6854
23970.2281
23971.5522
23384.5927
23164.4895
23129.0744
23374.4233
23978.5352
23956.9518
23983.0113
23936.6963
23371.1488
23003.0164
23365.1963
23961.5215
23970.7217
23287.1592
23139.7917
23136.055
23385.678
23984.1902
23954.7334
23326.1296
23065.318
23381.6472
23975.7547
23947.4573
23328.2123
22997.0709
23368.1308
23963.9758
23963.2427
23963.3346
23947.1589
23379.7387
23087.0914
23117.5993
23334.0403
23956.8772
23948.7923
23222.4809
23046.3037
22966.8968
23232.11
23925.0094
23946.9986
23902.6812
23122.1533
23189.5596
23984.8073
23906.2628
23370.5219
23044.7024
23381.1902
23952.1438
23949.8698
23171.2698
23316.0649
24002.9842
23944.5731
23361.3283
23105.5529
23367.2415
23957.8222
23371.3283
23394.3719
24001.5806
23934.0749
23238.4847
22981.4029
23362.1531
23964.7736
23928.25
23242.321
23372.1805
23988.7003
23923.5346
23229.5711
22981.6103
23376.8709
23956.4915
23910.2442
23234.1848
23350.9517
23980.476
23893.8396
23242.4574
23397.3212
23988.3415
23917.2562
23263.1074
23028.8425
23372.017
23967.2385
23925.2683
23273.3405
23047.9706
23374.5179
23972.9674
23915.5972
23277.7318
23059.209
23371.9981
23966.6515
23875.0188
23286.822
23386.9149
23991.6076
23907.5856
23296.3839
23061.0501
23366.8193
23973.4012
23912.7199
23308.0039
23071.8162
23368.1647
23975.8988
23908.8338
23316.6368
23079.4134
23368.6613
23977.9813
23901.7196
23315.5854
23071.0568
23366.5182
23969.562
23841.1284
23297.0121
23386.4527
23980.9542
23879.635
23184.8483
23013.2806
23364.8809
23962.976
23823.3905
23208.7886
23381.6241
23988.9506
23893.095
23372.0162
23118.5832
23367.5344
23967.6413
23885.5309
23230.2227
23056.6906
23369.8116
23961.0954
23814.1008
23204.7933
23384.8178
23984.8089
23887.5585
23328.8816
23090.7897
23365.1259
23976.0185
23902.8043
23374.1276
23104.5851
23365.0751
23981.0958
23908.5948
23370.5381
23175.3089
23372.914
23973.1215
23891.9941
23334.8635
23166.7055
23238.0673
23100.5912
23372.8287
23959.0583
23836.8361
23269.4292
23402.764
23975.2251
23831.8172
23256.6299
23403.3152
23984.9978
23884.9461
23242.8857
23023.3705
23370.9291
23948.266
23849.1021
23123.3838
23339.6155
23966.7314
23847.7437
23143.6716
23394.8883
23966.6699
23891.7422
23068.5039
23008.9859
23386.5557
23938.6566
23872.2129
23090.8646
23317.4909
23946.0926
23866.7642
23119.8611
23310.0162
23943.1119
23866.1177
22901.5608
23164.2209
23984.6629
23912.6869
23387.8817
23126.5403
23386.0936
23938.9233
23932.6589
23154.2851
23332.1542
23935.6816
23920.4787
22895.9622
23089.9401
23973.5502
23923.7741
23377.1792
23145.5547
23397.6259
23924.571
23937.8962
23102.2859
23026.6175
23436.0965
23903.0363
23887.8668
22926.7819
22986.0135
23930.1589
23931.7813
23383.5117
23198.2031
23382.7402
23903.4062
23966.0999
23352.0058
23155.4377
23377.4498
23890.3378
23956.4537
23356.5489
23108.7284
23170.0935
23419.2935
23890.0384
23950.2821
23329.4521
23040.7534
23379.5241
23790.3369
23936.992
23336.0486
23037.2146
23320.651
23704.029
23936.5063
23369.6816
23303.5404
23444.0137
23858.3002
23394.1454
23210.5856
23370.082
23693.6328
23904.2787
23423.529
23167.7884
23261.502
23600.1441
23885.5935
23460.7206
23195.0735
23214.6703
23569.2681
23871.5154
23473.8914
23200.1874
23221.0415
23567.2424
23870.6675
23445.2668
23199.7122
23353.3566
23762.5835
23793.1034
23359.7167
23137.4429
23362.8312
23817.9251
23811.4457
23374.8214
23090.1826
23355.0011
23745.7562
23923.6864
23426.6695
23218.1853
23126.0146
23399.2587
23859.2385
23930.9708
23417.1255
23225.0473
23141.7515
23423.3584
23893.683
23595.6098
23265.4706
23124.6155
23409.0719
23890.7054
23595.5188
23288.237
23131.0584
23408.0606
23896.7236
23625.0632
23424.8237
23392.6765
23881.2773
23583.2082
23288.3494
23164.7545
23424.3195
23912.7651
23624.301
23427.1286
23393.7406
23895.1079
23556.3249
23242.1331
23155.7776
23180.9039
23171.5869
23437.2745
23921.9082
23615.82
23425.6403
23391.2259
23917.033
23552.8517
23197.0138
23047.3772
23394.461
23920.4937
23576.2868
23320.8181
23380.041
23922.9831
23539.6211
23265.5325
23373.7907
23920.7781
23513.1422
23239.7201
23371.0657
23921.1116
23494.7804
23229.973
23371.7265
23920.3104
23481.5871
23233.5231
23374.9249
23919.3051
23463.5234
23244.2214
23381.5631
23914.2073
23431.7872
23009.1394
23011.7925
23433.0357
23912.5403
23439.8659
23285.3998
23404.6483
23915.4804
23415.6533
23274.7635
23418.05
23905.1397
23392.194
23281.0722
23442.7579
23885.4872
23365.0945
23008.1861
23116.4324
23542.6594
23892.9596
23379.1093
23331.6011
23489.4555
23896.1805
23370.3454
23340.2179
23520.3895
23889.0241
23366.1899
23361.107
23559.3731
23867.8488
23354.9467
23116.7998
23348.1897
23928.2226
23891.2365
23389.9939
23211.8161
23226.2247
23217.6463
23261.6362
23448.3992
23962.4498
23883.6995
23388.3862
23313.3296
23373.2297
23913.4119
23848.7254
23374.3482
23127.9051
23360.3594
23898.0426
23869.5773
23387.2379
23413.6941
23654.8811
23846.265
23374.7503
23110.3657
23362.6235
23908.9579
23832.5987
23406.1097
23153.5269
23402.2291
23922.9182
23607.6514
23166.2053
23232.661
23558.9829
23894.8497
23429.7894
23094.4457
23283.7196
23656.5891
23880.5622
23381.7131
23089.0982
23316.7546
23706.8598
23872.4601
23369.3076
23080.2593
23334.5465
23782.244
23863.209
23398.8432
23373.8022
23691.0375
23876.4805
23362.6209
23043.201
23348.8531
23840.319
23845.8664
23430.4447
23399.7617
23874.3475
23646.2911
23316.5844
23397.7343
23939.3327
23855.1389
23351.7378
23057.4371
23366.2366
23941.6165
23870.8531
23323.1062
23064.4239
23373.1269
23949.7373
23875.8738
23323.5743
23081.6114
23381.2
23958.2802
23880.6011
23325.3426
23063.8228
23372.0525
23953.5641
23896.2953
23392.0323
23074.9921
23372.0123
23952.4837
23907.8326
23386.0906
23067.4986
23375.9402
)
;

boundaryField
{
    closed
    {
        type            calculated;
        value           nonuniform List<scalar> 0();
    }
    open
    {
        type            calculated;
        value           nonuniform List<scalar> 0();
    }
    sides
    {
        type            empty;
    }
    procBoundary2to1
    {
        type            processor;
        value           uniform 23986.0454;
    }
    procBoundary2to3
    {
        type            processor;
        value           uniform 23950.7054;
    }
}


// ************************************************************************* //
