/*--------------------------------*- C++ -*----------------------------------*\
| =========                 |                                                 |
| \\      /  F ield         | OpenFOAM: The Open Source CFD Toolbox           |
|  \\    /   O peration     | Version:  2306                                  |
|   \\  /    A nd           | Website:  www.openfoam.com                      |
|    \\/     M anipulation  |                                                 |
\*---------------------------------------------------------------------------*/
FoamFile
{
    version     2.0;
    format      ascii;
    arch        "LSB;label=32;scalar=64";
    class       volScalarField;
    location    "0.00048";
    object      prefDPV_T;
}
// * * * * * * * * * * * * * * * * * * * * * * * * * * * * * * * * * * * * * //

dimensions      [1 -1 -1 -1 0 0 0];

internalField   nonuniform List<scalar> 
531
(
5.9494047e-10
6.05195836e-10
5.91789898e-10
5.90927519e-10
6.11114235e-10
6.10044483e-10
5.90552104e-10
5.90594812e-10
6.10979073e-10
6.10833306e-10
5.90646024e-10
5.90726345e-10
6.1034867e-10
6.08766109e-10
5.97262312e-10
5.90039123e-10
5.9032284e-10
6.11282612e-10
6.08331081e-10
6.03868254e-10
5.90525891e-10
5.89179364e-10
5.89856772e-10
6.11112695e-10
6.08951716e-10
5.9696655e-10
5.89983205e-10
5.90709127e-10
6.10958962e-10
6.08418636e-10
6.01964297e-10
5.90515781e-10
5.89937829e-10
5.95097148e-10
6.0964739e-10
6.08794443e-10
5.97262659e-10
5.90081892e-10
5.89245953e-10
5.9081209e-10
6.10922074e-10
6.07886574e-10
5.90716128e-10
5.9217576e-10
6.10223975e-10
6.09027607e-10
5.94663096e-10
5.89728311e-10
5.91237631e-10
6.10957828e-10
6.08148306e-10
5.90743456e-10
5.92077128e-10
6.1037775e-10
6.09047539e-10
5.94539158e-10
5.89798189e-10
5.90800016e-10
6.11107e-10
6.0924966e-10
5.95558999e-10
5.89953006e-10
5.90553678e-10
6.12044749e-10
6.08518112e-10
6.04971852e-10
5.90673974e-10
5.8932382e-10
5.90471582e-10
6.11576963e-10
6.09340202e-10
5.9589638e-10
5.90043008e-10
5.90809419e-10
6.11409232e-10
6.09259883e-10
5.96591725e-10
5.89965035e-10
5.90895128e-10
6.11466202e-10
6.10455731e-10
5.90821115e-10
5.91304713e-10
6.11165095e-10
6.09965437e-10
5.90681866e-10
5.91123115e-10
6.11400887e-10
6.0991687e-10
5.90625469e-10
5.91024072e-10
6.11588585e-10
6.09872622e-10
5.90627475e-10
5.90994362e-10
6.11691409e-10
6.09824688e-10
5.90680739e-10
5.91030608e-10
6.11712905e-10
6.0964238e-10
5.90770623e-10
5.91125399e-10
6.11666698e-10
6.09504226e-10
5.90985913e-10
5.91365493e-10
6.11487341e-10
6.10136454e-10
5.94277635e-10
5.89705981e-10
5.90540835e-10
6.12107458e-10
6.0977158e-10
5.90892143e-10
5.91505439e-10
6.11540555e-10
6.08931355e-10
5.91078009e-10
5.91938015e-10
6.1129705e-10
6.10361959e-10
5.93707997e-10
5.89845505e-10
5.9056121e-10
6.11983973e-10
6.09606311e-10
5.96865955e-10
5.89878325e-10
5.90723857e-10
6.12085537e-10
6.08581845e-10
5.90805413e-10
5.91888387e-10
6.11370338e-10
6.07714219e-10
5.90976802e-10
5.92348469e-10
6.11074213e-10
6.10140844e-10
5.92837788e-10
5.89723811e-10
5.90881303e-10
6.11855082e-10
6.0748354e-10
5.90988759e-10
5.92815546e-10
6.10879365e-10
6.10089142e-10
5.92490749e-10
5.89719337e-10
5.91425197e-10
6.11585951e-10
6.06160803e-10
5.9090665e-10
5.93403787e-10
6.10645783e-10
6.1032755e-10
5.91722168e-10
5.89698019e-10
5.92103239e-10
6.11300222e-10
6.04676021e-10
5.90794766e-10
5.94109767e-10
6.10417691e-10
6.10910982e-10
5.91148338e-10
5.89669431e-10
5.92969529e-10
6.10970509e-10
6.03174206e-10
5.90725241e-10
5.95115487e-10
6.10138007e-10
6.11746004e-10
5.90991477e-10
5.89854982e-10
5.93590477e-10
6.1056205e-10
6.10796883e-10
5.91005542e-10
5.89617137e-10
5.94676338e-10
6.10489598e-10
6.0062832e-10
5.90585815e-10
5.97675024e-10
6.09777196e-10
6.07801201e-10
5.9042528e-10
5.89576461e-10
5.96167918e-10
6.1008997e-10
5.98617468e-10
5.90483674e-10
6.00294458e-10
6.09497053e-10
6.04505815e-10
5.90185381e-10
5.89528748e-10
5.97969293e-10
6.09730776e-10
5.96576328e-10
5.90386421e-10
6.03800054e-10
6.09269152e-10
6.0133659e-10
5.89918998e-10
5.89360664e-10
5.99996189e-10
6.09478114e-10
5.94865536e-10
5.89939705e-10
6.05008781e-10
6.09033908e-10
5.93563383e-10
5.90306611e-10
6.09406993e-10
6.09021774e-10
5.99072018e-10
5.89745225e-10
5.89478477e-10
6.03928383e-10
6.09135228e-10
5.92842454e-10
5.90169733e-10
6.12584098e-10
6.08992323e-10
5.98088147e-10
5.89668304e-10
5.89474418e-10
6.06363561e-10
6.090546e-10
5.9215499e-10
5.90145391e-10
6.11693039e-10
6.08995667e-10
5.97579865e-10
5.89591574e-10
5.89396449e-10
6.06651894e-10
6.09091747e-10
5.91653918e-10
5.89637769e-10
6.11464241e-10
6.08945438e-10
5.91472351e-10
5.89605055e-10
6.11267798e-10
6.08962372e-10
5.9141224e-10
5.89543078e-10
6.11848964e-10
6.08956785e-10
5.91324499e-10
5.89533579e-10
6.12329488e-10
6.08913942e-10
5.91192061e-10
5.89623469e-10
6.11569443e-10
6.08840598e-10
5.91121069e-10
5.90091124e-10
6.1033991e-10
6.09107955e-10
5.96126484e-10
5.89206317e-10
5.89215662e-10
6.11138989e-10
6.08912306e-10
5.90975153e-10
5.89989931e-10
6.1007989e-10
6.09075584e-10
5.96707033e-10
5.89244745e-10
5.89349675e-10
6.10407084e-10
6.08830325e-10
5.90820328e-10
5.9005005e-10
6.09742536e-10
6.09060566e-10
5.95979487e-10
5.8913409e-10
5.89244267e-10
6.10257635e-10
6.0877626e-10
5.90598116e-10
5.89732233e-10
6.10018249e-10
6.08708349e-10
5.90421869e-10
5.89941454e-10
6.09459869e-10
6.09014756e-10
5.95738622e-10
5.89196244e-10
5.89406925e-10
6.09629911e-10
6.08795352e-10
5.90371602e-10
5.8993124e-10
6.09194506e-10
6.08996768e-10
5.9550035e-10
5.89170836e-10
5.89439184e-10
6.09461345e-10
6.08763441e-10
5.90186533e-10
5.89968727e-10
6.08980565e-10
6.08958958e-10
5.95754177e-10
5.89221989e-10
5.89546259e-10
6.09286774e-10
6.08760399e-10
5.89998658e-10
5.89942205e-10
6.08788036e-10
6.0897142e-10
5.95820402e-10
5.892304e-10
5.89626834e-10
6.0916167e-10
6.08862758e-10
5.89876894e-10
5.89983975e-10
6.08635075e-10
6.09003936e-10
5.95302762e-10
5.89267547e-10
5.89763815e-10
6.09045231e-10
6.09068394e-10
5.89911871e-10
5.90086914e-10
6.08500977e-10
6.09055943e-10
5.94325687e-10
5.8920902e-10
5.90030411e-10
6.08608786e-10
6.09189568e-10
5.9500263e-10
5.89155058e-10
5.89760322e-10
6.09078051e-10
6.09532787e-10
5.89800781e-10
5.89833086e-10
6.09005803e-10
6.09820524e-10
5.89743515e-10
5.89929077e-10
6.09000217e-10
6.10013772e-10
5.89715816e-10
5.90035565e-10
6.08898653e-10
6.10139615e-10
5.8969303e-10
5.9041146e-10
6.08315077e-10
6.09524616e-10
5.92889227e-10
5.89186455e-10
5.90174387e-10
6.09110459e-10
6.10416126e-10
5.89554959e-10
5.90036167e-10
6.08921226e-10
6.10700567e-10
5.89590809e-10
5.90269628e-10
6.0888724e-10
6.10907591e-10
5.89597934e-10
5.90465638e-10
6.08758268e-10
6.10857649e-10
5.89597133e-10
5.90705989e-10
6.08209139e-10
6.09700041e-10
5.93184131e-10
5.89361804e-10
5.9056075e-10
6.09378943e-10
6.08870014e-10
5.96806031e-10
5.89904215e-10
5.89937142e-10
5.957895e-10
6.08464663e-10
6.09405882e-10
5.90275445e-10
5.89965436e-10
5.99037928e-10
6.08539044e-10
6.10208336e-10
5.89724365e-10
5.88538162e-10
5.90932273e-10
6.08624663e-10
6.09554168e-10
5.93277926e-10
5.89629302e-10
5.92724859e-10
6.08291484e-10
6.09569425e-10
5.92483006e-10
5.89457483e-10
5.92453283e-10
6.08364989e-10
6.09874296e-10
5.90909226e-10
5.89315187e-10
5.91529294e-10
6.08927392e-10
6.11429042e-10
5.89714705e-10
5.91319005e-10
6.08225102e-10
6.10034964e-10
5.91143987e-10
5.89462689e-10
5.91698329e-10
6.09009769e-10
6.11476797e-10
5.89642254e-10
5.91237128e-10
6.08310366e-10
6.10038944e-10
5.91348126e-10
5.89464703e-10
5.91581885e-10
6.09073486e-10
6.1141446e-10
5.89636157e-10
5.91198843e-10
6.0835426e-10
6.09888477e-10
5.92157855e-10
5.89403664e-10
5.91977822e-10
6.08678786e-10
6.09699366e-10
5.9159534e-10
5.8939208e-10
5.91418147e-10
6.09147856e-10
6.11121979e-10
5.89640203e-10
5.91030251e-10
6.08722167e-10
6.09392643e-10
5.94780018e-10
5.89848174e-10
5.90476096e-10
6.10370694e-10
6.08973145e-10
6.00888166e-10
5.89947273e-10
5.90271467e-10
6.06552471e-10
6.08892321e-10
6.11125799e-10
5.89350002e-10
5.8866722e-10
5.91253404e-10
6.09514816e-10
6.10831576e-10
5.89886699e-10
5.90949147e-10
6.08981312e-10
6.0945249e-10
5.95011545e-10
5.89414312e-10
5.90854271e-10
6.09344972e-10
6.10801972e-10
5.89581647e-10
5.90729795e-10
6.09116722e-10
6.10890553e-10
5.89833921e-10
5.91031864e-10
6.09073314e-10
6.10748356e-10
5.89822487e-10
5.90590095e-10
6.09303149e-10
6.09176908e-10
5.9727635e-10
5.89917927e-10
5.90045825e-10
5.99115991e-10
6.09197001e-10
6.0992921e-10
5.89280742e-10
5.89647179e-10
6.10256167e-10
6.09589402e-10
5.95695165e-10
5.89472443e-10
5.90579614e-10
6.0942124e-10
6.09285513e-10
5.93660612e-10
5.89357477e-10
5.90815135e-10
6.09451862e-10
6.09920417e-10
5.89917797e-10
5.90725276e-10
6.08829017e-10
6.08862902e-10
5.95046181e-10
5.89710744e-10
5.89618559e-10
6.00837166e-10
6.09302275e-10
5.94865698e-10
5.90320865e-10
5.96976961e-10
)
;

boundaryField
{
    closed
    {
        type            calculated;
        value           nonuniform List<scalar> 0();
    }
    open
    {
        type            calculated;
        value           nonuniform List<scalar> 0();
    }
    sides
    {
        type            empty;
    }
    procBoundary3to2
    {
        type            processor;
        value           uniform 5.89684396e-10;
    }
    procBoundary3to4
    {
        type            processor;
        value           uniform 6.08974777e-10;
    }
}


// ************************************************************************* //
