/*--------------------------------*- C++ -*----------------------------------*\
| =========                 |                                                 |
| \\      /  F ield         | OpenFOAM: The Open Source CFD Toolbox           |
|  \\    /   O peration     | Version:  2306                                  |
|   \\  /    A nd           | Website:  www.openfoam.com                      |
|    \\/     M anipulation  |                                                 |
\*---------------------------------------------------------------------------*/
FoamFile
{
    version     2.0;
    format      ascii;
    arch        "LSB;label=32;scalar=64";
    class       volScalarField;
    location    "0.00048";
    object      prefDh_H;
}
// * * * * * * * * * * * * * * * * * * * * * * * * * * * * * * * * * * * * * //

dimensions      [1 1 -3 0 0 0 0];

internalField   nonuniform List<scalar> 
531
(
23361.7764
23576.7326
23373.9108
23316.2807
23888.783
23947.6013
23261.2889
23222.669
23881.5576
23910.4414
23277.0554
23273.716
23918.4983
23959.8978
23398.8815
23112.1728
23236.742
23864.4855
23978.5921
23540.5621
23319.344
22920.7968
23133.9226
23897.3821
23956.1772
23397.3543
23110.4327
23327.0026
23884.3363
23975.9361
23492.5807
23291.3399
23110.8945
23372.5579
23909.9728
23961.9477
23409.5887
23187.5702
22970.2696
23341.6998
23886.1653
23662.8129
23253.2324
23379.675
23910.9601
23956.7234
23370.3247
23041.9355
23374.7431
23875.3451
23671.3816
23261.2032
23379.8939
23909.0411
23955.5662
23368.9165
23049.5249
23351.3706
23878.103
23948.8059
23382.1546
23057.7901
23295.7229
23823.1727
23976.3151
23569.9258
23340.2614
22933.1791
23248.688
23865.015
23935.5121
23389.3028
23081.2827
23327.1014
23863.9195
23943.265
23395.7994
23076.5145
23338.5301
23856.6168
23750.9554
23258.1504
23408.6563
23870.0322
23733.5082
23240.7812
23372.5768
23863.1072
23732.0494
23225.9777
23349.1027
23854.925
23730.4578
23223.9847
23342.6008
23849.7408
23728.7365
23235.307
23355.6196
23847.0666
23722.3374
23254.7
23386.0615
23844.001
23716.6645
23297.1893
23413.103
23854.9998
23907.1717
23371.7763
23003.7557
23260.8027
23810.6409
23726.6673
23281.0441
23390.8155
23847.4359
23696.6153
23327.9472
23401.5958
23859.5116
23892.8587
23371.6974
23022.207
23255.8824
23806.7336
23932.6004
23393.9264
23065.4749
23325.5468
23828.5076
23685.7434
23271.31
23375.5085
23854.8128
23655.9712
23315.9025
23384.8353
23869.0349
23909.9497
23363.3464
23018.2203
23376.0414
23831.9511
23648.3907
23313.725
23377.5179
23874.5264
23913.7957
23361.8192
23024.6467
23365.7437
23842.031
23606.1476
23304.0408
23370.9576
23882.5501
23903.6966
23363.9492
23022.8088
23355.6788
23852.569
23561.3432
23287.5218
23366.9308
23890.2504
23874.2512
23367.087
23022.548
23350.0083
23864.9386
23519.379
23280.4315
23369.3216
23897.7802
23824.6933
23373.8294
23056.2474
23365.6286
23877.1098
23883.4029
23368.0199
23019.7423
23352.1369
23881.7788
23457.2386
23259.1153
23391.7477
23910.3341
23656.7714
23284.4089
23040.5956
23367.5156
23899.514
23418.9878
23242.2489
23442.298
23919.0001
23556.8593
23220.3864
23048.1874
23395.7209
23914.4814
23393.6455
23224.3038
23534.4341
23925.8517
23477.4451
23149.8633
23031.0173
23436.695
23931.408
23382.324
23154.5682
23570.9663
23943.7078
23398.0759
23212.1996
23718.5842
23931.1262
23436.4721
23089.6311
23056.798
23538.969
23938.3216
23411.7623
23180.0968
23847.9056
23929.434
23424.6233
23056.5723
23051.981
23613.3213
23938.977
23424.5033
23168.8355
23884.6244
23926.7495
23418.0941
23035.6529
23037.199
23622.4136
23942.9206
23433.4294
23088.0994
23791.7823
23948.1278
23371.0395
23082.3164
23783.7304
23947.2149
23353.3201
23070.2664
23805.3592
23947.7547
23326.1795
23069.7154
23840.2216
23948.6906
23302.8326
23085.6239
23876.7727
23944.8906
23325.8979
23152.1286
23925.5444
23917.312
23399.7615
22928.5837
22999.8341
23893.9616
23943.5255
23300.5642
23133.2694
23934.2255
23918.474
23402.0123
22952.2208
23028.9092
23921.4585
23945.4604
23288.8
23146.5096
23943.1602
23919.0484
23393.5646
22932.5933
23020.2851
23922.27
23955.9728
23232.0104
23116.1179
23925.6426
23949.816
23230.0941
23132.2797
23954.7116
23924.5916
23390.4723
22964.0683
23048.87
23941.7035
23947.8951
23227.9505
23130.3792
23964.5378
23926.5936
23385.9246
22964.3626
23061.1576
23945.8442
23949.1943
23195.7007
23138.7456
23972.3928
23927.4795
23386.4884
22978.7755
23084.2333
23950.9152
23949.319
23163.6988
23135.9842
23979.7081
23927.9147
23385.001
22984.9554
23105.3426
23954.1368
23945.9587
23144.9746
23148.5123
23983.4694
23927.6997
23380.1297
22995.5777
23136.733
23956.3257
23937.5307
23154.609
23172.9708
23981.1195
23929.4623
23380.7247
22999.2358
23170.7622
23974.4246
23921.3631
23379.4594
22966.4524
23139.8327
23945.4097
23922.1624
23107.7421
23132.2874
23947.7368
23907.7996
23098.3838
23143.931
23948.0031
23899.2742
23097.1215
23159.6422
23955.2184
23890.2776
23118.0153
23222.6734
23982.4162
23904.4933
23374.8226
22964.5622
23226.8961
23941.7303
23891.9626
23066.5672
23159.4465
23948.8274
23874.9533
23077.7067
23192.5352
23948.775
23874.8368
23081.1844
23227.9328
23952.448
23868.515
23111.8858
23284.0253
23993.7018
23894.398
23360.3809
22981.5886
23346.6234
23968.8582
23946.0532
23394.0096
23162.6044
23164.811
23383.5784
23958.2938
23939.3097
23206.1924
23173.3708
23432.5953
23951.3327
23901.9197
23102.3943
22862.1197
23378.1235
23973.5152
23923.9776
23370.2166
23090.9773
23376.4136
23981.26
23920.4715
23365.5321
23058.2982
23371.4996
23979.5504
23914.6398
23376.1172
23003.6553
23376.1091
23955.5915
23881.0494
23133.3456
23409.9112
23986.062
23896.5609
23377.8803
23015.5847
23378.0507
23950.3299
23883.2851
23111.2922
23388.2441
23984.0815
23895.8317
23378.5653
23009.2045
23381.8661
23946.4717
23888.7304
23103.13
23375.4745
23986.4821
23899.9445
23366.6479
23010.7803
23370.0496
23975.8023
23923.2864
23383.6649
23001.6607
23388.7657
23939.358
23905.2928
23079.997
23349.8671
23981.8327
23913.658
23369.6593
23058.1966
23285.9305
23746.1057
23931.3756
23460.9315
23094.7951
23212.3896
23616.4371
23921.1732
23878.4683
22990.1507
22801.485
23376.4324
23909.2755
23916.0504
23094.4671
23298.5567
23964.7727
23908.1775
23377.8487
22992.6665
23324.026
23934.8049
23922.8317
23060.7489
23217.2231
23941.5412
23905.8071
23119.5578
23269.161
23937.79
23910.7782
23103.4837
23214.264
23958.9281
23919.7961
23397.1918
23111.692
23168.2605
23436.6703
23922.3329
23735.8998
22971.7344
23030.9277
23919.5231
23904.6953
23386.6249
22998.9168
23284.1719
23947.1568
23938.525
23379.6783
22992.0569
23326.3854
23931.2796
23974.5608
23161.9492
23279.5304
23966.505
23950.1185
23377.2593
23098.1007
23096.9481
23461.7263
23949.8367
23379.2507
23211.7366
23399.4469
)
;

boundaryField
{
    closed
    {
        type            calculated;
        value           nonuniform List<scalar> 0();
    }
    open
    {
        type            calculated;
        value           nonuniform List<scalar> 0();
    }
    sides
    {
        type            empty;
    }
    procBoundary3to2
    {
        type            processor;
        value           uniform 23087.2067;
    }
    procBoundary3to4
    {
        type            processor;
        value           uniform 23931.8177;
    }
}


// ************************************************************************* //
