/*--------------------------------*- C++ -*----------------------------------*\
| =========                 |                                                 |
| \\      /  F ield         | OpenFOAM: The Open Source CFD Toolbox           |
|  \\    /   O peration     | Version:  2306                                  |
|   \\  /    A nd           | Website:  www.openfoam.com                      |
|    \\/     M anipulation  |                                                 |
\*---------------------------------------------------------------------------*/
FoamFile
{
    version     2.0;
    format      ascii;
    arch        "LSB;label=32;scalar=64";
    class       volScalarField;
    location    "0.00082";
    object      mu;
}
// * * * * * * * * * * * * * * * * * * * * * * * * * * * * * * * * * * * * * //

dimensions      [1 -1 -1 0 0 0 0];

internalField   nonuniform List<scalar> 
531
(
2.03150272e-05
2.03053289e-05
1.97449593e-05
1.95199955e-05
1.96614601e-05
2.03064116e-05
2.03149731e-05
2.03033382e-05
1.97529138e-05
1.95536624e-05
1.96326965e-05
1.95003934e-05
1.95315135e-05
2.03083073e-05
2.03148545e-05
1.95941399e-05
1.95862963e-05
2.0316926e-05
2.03090525e-05
1.96345584e-05
1.96204121e-05
2.03231726e-05
2.03053678e-05
1.97384827e-05
1.95706177e-05
1.96298472e-05
2.03079025e-05
2.03180854e-05
1.96873629e-05
1.96402673e-05
2.03164912e-05
2.03128669e-05
1.97457933e-05
1.9601747e-05
1.96309663e-05
2.03143686e-05
2.03100917e-05
1.975204e-05
1.95377587e-05
1.96656625e-05
2.03103678e-05
2.03085658e-05
2.03096312e-05
1.97531406e-05
1.95837493e-05
1.96145717e-05
1.95516957e-05
2.03063856e-05
2.02973568e-05
1.96301493e-05
1.94164275e-05
1.9519448e-05
2.0291429e-05
2.03019197e-05
2.02934413e-05
1.96275532e-05
1.94165658e-05
1.94731486e-05
2.02847043e-05
2.03053051e-05
1.95559682e-05
1.94931256e-05
2.02870114e-05
2.03026245e-05
1.95520116e-05
1.95112206e-05
2.02911986e-05
2.03009049e-05
1.95711933e-05
1.95323407e-05
2.02938434e-05
2.02996275e-05
1.96292049e-05
1.95586694e-05
2.02955697e-05
2.02966078e-05
1.97113383e-05
1.95711272e-05
1.95703852e-05
2.02929117e-05
2.03020354e-05
1.97594385e-05
1.95924177e-05
1.95918461e-05
2.02927828e-05
2.03007248e-05
1.97585884e-05
1.95072776e-05
1.95553995e-05
2.02935705e-05
2.0300555e-05
2.02995939e-05
2.03000742e-05
1.9724562e-05
1.95079411e-05
1.95718185e-05
1.9437777e-05
1.94412988e-05
2.02738216e-05
2.0304356e-05
1.96095593e-05
1.95261222e-05
2.02760728e-05
2.03031338e-05
1.96268731e-05
1.95656029e-05
2.0280104e-05
2.03031015e-05
1.96423335e-05
1.95865744e-05
2.02837087e-05
2.03033922e-05
1.96837251e-05
1.96028443e-05
2.02873538e-05
2.03011704e-05
1.97521363e-05
1.95851032e-05
1.9582858e-05
2.02855223e-05
2.03074656e-05
1.97618194e-05
1.95843808e-05
1.95850698e-05
2.02969022e-05
2.03038438e-05
1.97448689e-05
1.95148188e-05
1.95232556e-05
2.02886286e-05
2.03150136e-05
1.96932684e-05
1.95912815e-05
2.02807492e-05
2.03120859e-05
1.9725095e-05
1.96459281e-05
2.02833923e-05
2.03056092e-05
1.97573184e-05
1.96567975e-05
1.96304005e-05
1.96306158e-05
2.02845392e-05
2.03037078e-05
1.97493644e-05
1.95442516e-05
1.95460527e-05
2.02882095e-05
2.03123749e-05
1.97454687e-05
1.96163863e-05
2.02816303e-05
2.03048889e-05
1.97504574e-05
1.95459032e-05
1.95483068e-05
2.02859972e-05
2.03173134e-05
1.97642556e-05
1.96609671e-05
2.02778288e-05
2.03110389e-05
1.97603694e-05
1.96520292e-05
1.96104593e-05
1.96105897e-05
2.02776736e-05
2.03113833e-05
1.97385566e-05
1.9632535e-05
2.02792669e-05
2.0305219e-05
1.9753734e-05
1.95761219e-05
1.95769476e-05
2.02781427e-05
2.03075403e-05
1.97603729e-05
1.95812136e-05
1.95823395e-05
2.02838654e-05
2.03025274e-05
1.97558681e-05
1.95564025e-05
1.9557694e-05
2.02749025e-05
2.03031602e-05
1.97556364e-05
1.94596544e-05
1.94891602e-05
2.02815189e-05
2.02988006e-05
2.02954435e-05
2.02993519e-05
1.97521778e-05
1.94717102e-05
1.95581042e-05
1.93482198e-05
1.93667727e-05
2.02724023e-05
2.03015965e-05
2.02896966e-05
2.03066929e-05
2.03060068e-05
1.9751546e-05
1.95817134e-05
1.95805349e-05
1.95794578e-05
2.02770827e-05
2.0295473e-05
1.97575432e-05
1.95658732e-05
1.95647381e-05
2.02790132e-05
2.03048997e-05
1.97615667e-05
1.95702409e-05
1.95705385e-05
2.02883162e-05
2.03021294e-05
1.97498328e-05
1.95339428e-05
1.95379061e-05
2.02892159e-05
2.03127636e-05
1.9748381e-05
1.96141656e-05
2.028172e-05
2.0307939e-05
1.97554948e-05
1.95684199e-05
1.95666047e-05
2.02926907e-05
2.03053399e-05
1.97575567e-05
1.9592478e-05
1.9591887e-05
2.02894191e-05
2.03090646e-05
1.97629097e-05
1.96439139e-05
1.95863263e-05
1.95837519e-05
2.02812608e-05
2.0308479e-05
1.96483023e-05
1.95844653e-05
2.02796787e-05
2.0303607e-05
2.029548e-05
2.03034121e-05
1.97597124e-05
1.95699532e-05
1.96257437e-05
1.94853494e-05
1.94873138e-05
2.02759519e-05
2.02974318e-05
1.97483202e-05
1.94601919e-05
1.94781661e-05
2.02804447e-05
2.03049162e-05
1.96708045e-05
1.96215031e-05
2.02777376e-05
2.03000963e-05
2.03014913e-05
1.97572948e-05
1.95043117e-05
1.95191165e-05
2.0288918e-05
2.02968298e-05
1.97592346e-05
1.95072958e-05
1.9575113e-05
2.0289244e-05
2.03013297e-05
2.03016668e-05
1.97571272e-05
1.95318092e-05
1.95948497e-05
1.94067782e-05
1.94084461e-05
2.02796513e-05
2.03014949e-05
2.02965614e-05
2.03030225e-05
1.97534325e-05
1.94907909e-05
1.94909086e-05
2.02930533e-05
2.02996192e-05
1.97537464e-05
1.94362416e-05
1.95297056e-05
2.02952345e-05
2.03041112e-05
2.03039541e-05
1.97532626e-05
1.9480414e-05
1.95580596e-05
2.02969458e-05
2.03025568e-05
2.03033789e-05
1.97601323e-05
1.96324951e-05
1.96206642e-05
1.96150808e-05
2.02915463e-05
2.02987369e-05
1.97614661e-05
1.96324089e-05
1.95517883e-05
1.95521371e-05
2.02926978e-05
2.02961113e-05
2.02960658e-05
2.02982478e-05
1.97581995e-05
1.95386826e-05
1.95051957e-05
1.94822812e-05
2.02942051e-05
2.02913547e-05
1.96695138e-05
1.93948346e-05
1.94113399e-05
2.02866107e-05
2.02964823e-05
2.02898913e-05
2.02986885e-05
1.97667641e-05
1.95601351e-05
1.95163164e-05
1.95172587e-05
2.02919321e-05
2.02990219e-05
1.95311838e-05
1.95315813e-05
2.03022846e-05
2.02975557e-05
2.02990851e-05
1.97606528e-05
1.94713046e-05
1.94783737e-05
2.02899173e-05
2.02921186e-05
1.97735929e-05
1.94854337e-05
1.94997528e-05
2.02832312e-05
2.02379048e-05
2.02828052e-05
2.02202175e-05
1.96536815e-05
1.94246024e-05
1.95452335e-05
1.93914973e-05
1.93943831e-05
2.02905615e-05
2.02954178e-05
2.0297347e-05
2.03011045e-05
1.97314363e-05
1.93994418e-05
1.94740012e-05
2.03009013e-05
2.03105486e-05
2.03076348e-05
1.97162106e-05
1.94884214e-05
1.9490232e-05
2.03092302e-05
2.03232337e-05
1.97113119e-05
1.9599377e-05
2.03221368e-05
2.03279809e-05
1.97371487e-05
1.96008176e-05
1.95248342e-05
1.9503531e-05
2.03401456e-05
2.03563446e-05
1.96163516e-05
1.92436202e-05
1.92471441e-05
2.03910095e-05
2.04019671e-05
2.04268926e-05
2.0435922e-05
2.04636525e-05
2.04724408e-05
1.95030329e-05
1.910189e-05
1.91649069e-05
2.04383613e-05
2.0417741e-05
1.94111732e-05
1.90860895e-05
1.91577976e-05
2.03334973e-05
2.0362539e-05
2.03308822e-05
2.03468221e-05
2.03242675e-05
2.03340478e-05
2.03182398e-05
2.03278304e-05
2.03183504e-05
2.03332786e-05
2.0336513e-05
2.03650116e-05
2.03974334e-05
2.04705596e-05
2.05999524e-05
2.06714973e-05
2.05471047e-05
2.04405242e-05
2.03240253e-05
2.02476512e-05
2.0152266e-05
2.01070831e-05
2.00291952e-05
1.99668451e-05
1.99037796e-05
1.99453858e-05
1.9835411e-05
1.98025978e-05
1.97338699e-05
1.97204518e-05
1.9692165e-05
1.95680257e-05
1.94346774e-05
1.92748932e-05
1.9168661e-05
1.8981007e-05
1.94700368e-05
2.02164474e-05
2.00488293e-05
1.97500515e-05
1.9520622e-05
1.92451375e-05
1.89654937e-05
1.86779322e-05
1.83918197e-05
1.83922767e-05
1.8393673e-05
1.83933278e-05
1.91541376e-05
2.13793011e-05
2.09171446e-05
2.24616736e-05
2.38329563e-05
2.49699328e-05
2.60397259e-05
2.9557178e-05
2.98275463e-05
3.03681028e-05
3.07423898e-05
3.14436394e-05
3.19539868e-05
3.28440469e-05
3.3474563e-05
3.45335738e-05
3.54641028e-05
3.66471543e-05
3.75035745e-05
3.85898309e-05
3.93461346e-05
4.02987968e-05
4.09462797e-05
4.17761892e-05
4.24240309e-05
4.32283943e-05
4.36078031e-05
4.43094102e-05
4.4978239e-05
4.55774445e-05
4.57080923e-05
4.62737966e-05
4.69721043e-05
4.72680868e-05
4.75056478e-05
4.78643426e-05
4.82944553e-05
4.85548575e-05
4.89546135e-05
4.92930588e-05
4.93573039e-05
4.95819178e-05
4.97785571e-05
5.01115731e-05
5.00276963e-05
5.02037538e-05
5.03934228e-05
5.09059934e-05
5.05747143e-05
5.09489934e-05
5.09472945e-05
5.14562309e-05
5.12779072e-05
5.17325164e-05
5.14734945e-05
5.20265229e-05
5.19415433e-05
5.2069068e-05
5.18387542e-05
5.23244486e-05
5.23254436e-05
5.24226859e-05
5.22824375e-05
5.25681006e-05
5.26593925e-05
5.27634879e-05
5.26106003e-05
5.28194974e-05
5.29701187e-05
5.30136834e-05
5.29956289e-05
5.30281394e-05
5.30651167e-05
5.32184909e-05
5.32832619e-05
5.31953146e-05
5.3177138e-05
5.33946391e-05
5.33671274e-05
5.33313927e-05
)
;

boundaryField
{
    closed
    {
        type            calculated;
        value           nonuniform List<scalar> 0();
    }
    open
    {
        type            calculated;
        value           nonuniform List<scalar> 0();
    }
    sides
    {
        type            empty;
    }
    procBoundary4to3
    {
        type            processor;
        value           uniform 1.96247331e-05;
    }
    procBoundary4to5
    {
        type            processor;
        value           uniform 5.33337353e-05;
    }
}


// ************************************************************************* //
