/*--------------------------------*- C++ -*----------------------------------*\
| =========                 |                                                 |
| \\      /  F ield         | OpenFOAM: The Open Source CFD Toolbox           |
|  \\    /   O peration     | Version:  2306                                  |
|   \\  /    A nd           | Website:  www.openfoam.com                      |
|    \\/     M anipulation  |                                                 |
\*---------------------------------------------------------------------------*/
FoamFile
{
    version     2.0;
    format      ascii;
    arch        "LSB;label=32;scalar=64";
    class       volScalarField;
    location    "0.00108";
    object      prefDPV_T;
}
// * * * * * * * * * * * * * * * * * * * * * * * * * * * * * * * * * * * * * //

dimensions      [1 -1 -1 -1 0 0 0];

internalField   nonuniform List<scalar> 
531
(
6.10465603e-10
5.91970475e-10
5.89518712e-10
5.89874747e-10
6.11427014e-10
6.10957605e-10
5.93393212e-10
5.91155477e-10
6.05891151e-10
6.11268032e-10
5.94136719e-10
5.91502618e-10
6.06042394e-10
6.1225044e-10
5.93435855e-10
5.89952045e-10
5.90527571e-10
6.11629047e-10
6.11359516e-10
5.93559524e-10
5.92253155e-10
6.06717774e-10
6.09649841e-10
5.931311e-10
5.90437941e-10
5.91983027e-10
6.11177555e-10
6.11821171e-10
5.93075594e-10
5.92958988e-10
6.08634458e-10
6.08755149e-10
5.92465473e-10
5.90784113e-10
5.95444412e-10
6.11877695e-10
6.09134552e-10
5.91017674e-10
5.90112444e-10
5.90323437e-10
5.95567839e-10
6.09707376e-10
6.09223137e-10
6.10080172e-10
6.09696075e-10
6.03239001e-10
5.90770924e-10
5.90449909e-10
5.90205136e-10
5.90211839e-10
5.95243988e-10
6.09432135e-10
6.09294387e-10
6.00795185e-10
5.90594854e-10
5.90725388e-10
5.99647319e-10
6.10740769e-10
6.03464611e-10
5.90532004e-10
5.90574911e-10
6.00846058e-10
6.10483748e-10
6.01781291e-10
5.90551971e-10
5.90035504e-10
5.90299429e-10
5.98066281e-10
6.09425469e-10
6.0917533e-10
6.09423779e-10
6.09403998e-10
6.00185194e-10
5.90716768e-10
5.89949242e-10
5.90145946e-10
6.05183376e-10
6.10002782e-10
5.98753062e-10
5.90324683e-10
5.90306616e-10
6.0611826e-10
6.09673367e-10
5.9891341e-10
5.90410563e-10
5.90346507e-10
6.07981301e-10
6.09540992e-10
5.98846604e-10
5.90414914e-10
5.90280659e-10
6.09011459e-10
6.09352663e-10
5.98292294e-10
5.90356574e-10
5.89607467e-10
5.89947331e-10
6.12256883e-10
6.09743369e-10
5.94136364e-10
5.91131011e-10
6.0621241e-10
6.10036576e-10
5.94083932e-10
5.91466792e-10
6.10053684e-10
6.09646851e-10
5.95812576e-10
5.90160157e-10
5.90525032e-10
6.12109323e-10
6.09461527e-10
5.97189609e-10
5.90690019e-10
5.91016076e-10
6.12066303e-10
6.0946383e-10
5.971976e-10
5.90625466e-10
5.90833637e-10
6.11971646e-10
6.09585547e-10
5.96375865e-10
5.90158708e-10
5.89692902e-10
5.90452622e-10
6.10881974e-10
6.11588946e-10
5.92540642e-10
5.9145035e-10
6.09360022e-10
6.12165915e-10
5.92274326e-10
5.91444945e-10
6.09206333e-10
6.12142651e-10
5.92467787e-10
5.91657164e-10
6.09072057e-10
6.11399265e-10
5.92811746e-10
5.92097794e-10
6.09439704e-10
6.12039156e-10
5.94088562e-10
5.90269016e-10
5.9089064e-10
6.06932741e-10
6.09293459e-10
5.94433279e-10
5.93201736e-10
6.08455047e-10
6.12047719e-10
5.95156805e-10
5.90579894e-10
5.91074987e-10
6.07652367e-10
6.1220623e-10
5.96194073e-10
5.90708401e-10
5.91100963e-10
6.0697526e-10
6.10359223e-10
5.95957634e-10
5.93894396e-10
6.06933469e-10
6.11985456e-10
5.96565818e-10
5.90937473e-10
5.91358948e-10
6.07868978e-10
6.11772544e-10
5.97407524e-10
5.91068572e-10
5.91435615e-10
6.07609549e-10
6.12055234e-10
5.9642015e-10
5.90635768e-10
5.90309414e-10
5.91080126e-10
6.06191924e-10
6.09731479e-10
6.12038367e-10
5.9528072e-10
5.94080024e-10
6.06277397e-10
6.11711509e-10
5.9541281e-10
5.9060444e-10
5.90432702e-10
5.91732621e-10
6.07523085e-10
6.09618511e-10
6.10495803e-10
5.9332916e-10
5.90422822e-10
5.90175321e-10
5.90304597e-10
5.91197728e-10
6.07641352e-10
6.09808596e-10
5.94156236e-10
5.92761843e-10
6.06227192e-10
6.09161949e-10
5.93690196e-10
5.92802056e-10
6.07763092e-10
6.09310294e-10
5.93749721e-10
5.93332012e-10
6.0934571e-10
6.11006304e-10
5.92808269e-10
5.90758836e-10
5.94269713e-10
6.1132719e-10
6.1057014e-10
5.91699992e-10
5.90646855e-10
5.94747994e-10
6.11545646e-10
6.07769076e-10
5.90838542e-10
5.90216187e-10
5.95015426e-10
6.11703995e-10
6.03186786e-10
5.91802992e-10
5.95675451e-10
6.1227997e-10
6.04206267e-10
5.90333234e-10
5.8998069e-10
5.98338431e-10
6.12048922e-10
5.99569408e-10
5.91296822e-10
5.97290543e-10
6.12166551e-10
5.98874946e-10
5.91284906e-10
5.98780108e-10
6.11901273e-10
5.97747773e-10
5.91464099e-10
6.01538917e-10
6.11323143e-10
5.97567048e-10
5.89874102e-10
5.9032539e-10
6.06075819e-10
6.11254335e-10
5.95530402e-10
5.92134347e-10
6.05808094e-10
6.11097517e-10
5.96410385e-10
5.9026099e-10
5.9088479e-10
6.07987738e-10
6.11004276e-10
5.96230236e-10
5.90269827e-10
5.91019286e-10
6.08051322e-10
6.11220675e-10
5.96205769e-10
5.89780994e-10
5.89531265e-10
5.90642543e-10
6.06288481e-10
6.09569654e-10
6.09617826e-10
6.09897272e-10
6.09681587e-10
6.11565614e-10
5.98348729e-10
5.90675973e-10
5.90415794e-10
5.90370593e-10
5.90156472e-10
5.90071387e-10
5.90701367e-10
6.04851422e-10
6.11228196e-10
5.98121146e-10
5.9008577e-10
5.9034581e-10
6.03757475e-10
6.11380823e-10
5.98433105e-10
5.92028992e-10
5.99492037e-10
6.12012752e-10
6.00334566e-10
5.92187533e-10
5.99188332e-10
6.10615467e-10
6.05724897e-10
5.90074014e-10
5.89754714e-10
5.9733817e-10
6.10122791e-10
6.03881547e-10
5.91652649e-10
5.95701265e-10
6.10001392e-10
6.10803036e-10
5.91025248e-10
5.89731432e-10
5.93838788e-10
6.09195962e-10
6.11706016e-10
5.91662693e-10
5.89736057e-10
5.92481773e-10
6.09110713e-10
6.10812221e-10
5.92575566e-10
5.89723637e-10
5.91607395e-10
6.09098428e-10
6.10234413e-10
5.93284908e-10
5.89708342e-10
5.90989079e-10
6.09115824e-10
6.09839692e-10
5.93864742e-10
5.89679376e-10
5.90690323e-10
6.0914572e-10
6.09591571e-10
5.94235903e-10
5.89613254e-10
5.90512505e-10
6.09201092e-10
6.09431406e-10
5.94399037e-10
5.89474504e-10
5.9029073e-10
6.09274111e-10
6.09356037e-10
5.94239916e-10
5.89308371e-10
5.89833241e-10
6.0933854e-10
6.08785915e-10
5.91666461e-10
5.90610311e-10
6.09326484e-10
6.08768686e-10
5.94482418e-10
5.89048909e-10
5.89624468e-10
6.09090039e-10
6.08836577e-10
5.95175124e-10
5.88724783e-10
5.89184117e-10
6.0892281e-10
6.0878336e-10
5.93747044e-10
5.87605764e-10
5.87859582e-10
6.09359375e-10
6.08228307e-10
6.08603679e-10
6.08012773e-10
5.88306041e-10
5.86586437e-10
6.06930177e-10
6.07376738e-10
5.91569909e-10
5.84372079e-10
5.84840795e-10
6.06328597e-10
6.06597669e-10
6.05587908e-10
6.0288164e-10
5.95432639e-10
6.04023382e-10
6.00891784e-10
6.0081244e-10
5.97803146e-10
5.97204409e-10
5.94681116e-10
5.93672572e-10
5.91481351e-10
5.90274509e-10
5.88284758e-10
5.87015741e-10
5.85230688e-10
5.84126257e-10
5.82957211e-10
5.83171215e-10
5.80538135e-10
5.78755832e-10
5.75633444e-10
5.73539715e-10
5.69935995e-10
5.67518773e-10
5.63367406e-10
5.60755452e-10
5.57125605e-10
5.56295116e-10
5.54073901e-10
5.50845108e-10
5.46961841e-10
5.41740317e-10
5.37334019e-10
5.30095699e-10
5.25065526e-10
5.15554892e-10
5.11441521e-10
5.02199297e-10
5.15686377e-10
5.03116999e-10
4.97891158e-10
4.84349674e-10
4.77329289e-10
4.64453027e-10
4.56017991e-10
4.43750144e-10
4.33981055e-10
4.23989539e-10
4.21813332e-10
4.13197821e-10
3.90341468e-10
4.00220593e-10
3.57099046e-10
3.57687186e-10
3.26484717e-10
3.34294793e-10
3.0045734e-10
2.90065213e-10
2.72005362e-10
2.57704176e-10
2.35768012e-10
2.15385739e-10
1.93890444e-10
1.75998131e-10
1.58295559e-10
1.44853592e-10
1.2573865e-10
1.14464743e-10
1.00905888e-10
9.1104162e-11
7.73267445e-11
6.84771927e-11
5.73363292e-11
5.02812179e-11
4.12454166e-11
3.51928427e-11
2.77037109e-11
2.26078278e-11
1.64642145e-11
1.22683539e-11
7.30177909e-12
4.00987495e-12
1.70200675e-13
-2.28423043e-12
-5.45090979e-12
-7.39298534e-12
-1.01091513e-11
-1.17066143e-11
-1.40202038e-11
-1.54143567e-11
-1.73094377e-11
-1.84460684e-11
-1.98937974e-11
-2.07330675e-11
-2.18373214e-11
-2.25614075e-11
-2.3539499e-11
-2.42501265e-11
-2.50970402e-11
-2.57169402e-11
-2.65291823e-11
-2.69732399e-11
-2.75200819e-11
-2.78627014e-11
-2.82796082e-11
-2.85715422e-11
-2.89347974e-11
-2.92052975e-11
-2.9541067e-11
-2.98203328e-11
-3.01560593e-11
-3.04315745e-11
-3.07480578e-11
-3.1015373e-11
-3.13189617e-11
-3.15973931e-11
-3.18880031e-11
-3.21420336e-11
-3.241941e-11
-3.26644263e-11
-3.29200665e-11
-3.31484348e-11
-3.33845617e-11
-3.35958683e-11
-3.38147916e-11
-3.4015166e-11
-3.42208972e-11
-3.44151067e-11
-3.46240825e-11
-3.48205249e-11
-3.50209944e-11
-3.5220487e-11
-3.5427025e-11
-3.5621128e-11
-3.58118264e-11
-3.59898571e-11
-3.61655636e-11
-3.63348665e-11
-3.65004974e-11
-3.66614875e-11
-3.68178774e-11
-3.69709703e-11
-3.71192106e-11
-3.72689335e-11
-3.74129206e-11
-3.7555081e-11
-3.7691373e-11
-3.78265177e-11
-3.79557775e-11
-3.80843973e-11
-3.82072064e-11
)
;

boundaryField
{
    closed
    {
        type            calculated;
        value           nonuniform List<scalar> 0();
    }
    open
    {
        type            calculated;
        value           nonuniform List<scalar> 0();
    }
    sides
    {
        type            empty;
    }
    procBoundary4to3
    {
        type            processor;
        value           uniform 6.09260302e-10;
    }
    procBoundary4to5
    {
        type            processor;
        value           uniform -3.83297452e-11;
    }
}


// ************************************************************************* //
