/*--------------------------------*- C++ -*----------------------------------*\
| =========                 |                                                 |
| \\      /  F ield         | OpenFOAM: The Open Source CFD Toolbox           |
|  \\    /   O peration     | Version:  2306                                  |
|   \\  /    A nd           | Website:  www.openfoam.com                      |
|    \\/     M anipulation  |                                                 |
\*---------------------------------------------------------------------------*/
FoamFile
{
    version     2.0;
    format      ascii;
    arch        "LSB;label=32;scalar=64";
    class       volScalarField;
    location    "0.00108";
    object      PV;
}
// * * * * * * * * * * * * * * * * * * * * * * * * * * * * * * * * * * * * * //

dimensions      [0 0 0 0 0 0 0];

internalField   nonuniform List<scalar> 
531
(
-0.00696700873
-0.00714749801
-0.00721030024
-0.00719045702
-0.00698159309
-0.00696527076
-0.00713121457
-0.00717069228
-0.0070157682
-0.00696714171
-0.00712059446
-0.00716647745
-0.00701452128
-0.00697726314
-0.00712795765
-0.0072066797
-0.00717205773
-0.00696884851
-0.00696762341
-0.00713178343
-0.00715145246
-0.00701059324
-0.00699271144
-0.00713271727
-0.0071953621
-0.00714546399
-0.00696542304
-0.00697058559
-0.00714124988
-0.0071422218
-0.00699850779
-0.00699811542
-0.00714136281
-0.00718649058
-0.00710343606
-0.00697051808
-0.00699449888
-0.00718074486
-0.00718938326
-0.00718712314
-0.00710359845
-0.00695802879
-0.00695812884
-0.0069655723
-0.00696207861
-0.00703595545
-0.00717264735
-0.00718190243
-0.00717816885
-0.007187449
-0.0071051662
-0.00695507461
-0.00695685999
-0.00705526818
-0.00717235657
-0.00717918055
-0.00706212726
-0.00696172184
-0.00703193429
-0.0071823264
-0.00718123886
-0.00705259345
-0.00696034401
-0.00704487076
-0.00718402427
-0.00718390932
-0.0071853899
-0.0070780243
-0.00695777449
-0.00695722003
-0.00696057402
-0.00695979351
-0.00706118209
-0.00717516201
-0.00719108755
-0.00718950853
-0.00701944264
-0.00695930145
-0.00707158525
-0.00718818146
-0.00718321368
-0.00701334251
-0.00695819401
-0.00707082311
-0.00718733508
-0.00718323526
-0.00700103789
-0.00695823446
-0.00707187995
-0.00718850747
-0.00718349542
-0.00699457129
-0.00695602285
-0.007078282
-0.00718030276
-0.00720482512
-0.00719689399
-0.00697526716
-0.00695755835
-0.00712403643
-0.00717114784
-0.00701267288
-0.00695851301
-0.00712406484
-0.00716205831
-0.00698820503
-0.00695884407
-0.00710244619
-0.00719882691
-0.00718435777
-0.00697218415
-0.00695845271
-0.00708948655
-0.00718642742
-0.00717439005
-0.00697324999
-0.00695848118
-0.00708861861
-0.00718810208
-0.00717801354
-0.00697770704
-0.0069567957
-0.00709748506
-0.00718262584
-0.00720271582
-0.0071907173
-0.00698345976
-0.00696758636
-0.0071429942
-0.00716689273
-0.00699282904
-0.0069721994
-0.0071465118
-0.00716582251
-0.0069940461
-0.00697719994
-0.00714454074
-0.00715991105
-0.00699512742
-0.00698166
-0.00714085723
-0.00715498298
-0.00699276624
-0.0069735444
-0.00711738713
-0.00719335349
-0.00717344685
-0.00700879114
-0.00699417293
-0.00711986093
-0.00713907198
-0.00699899419
-0.00697391868
-0.00710620102
-0.00718727302
-0.00717515167
-0.00700365771
-0.00697720181
-0.00709475633
-0.00718274498
-0.00717074649
-0.00700861021
-0.00698792028
-0.00710217516
-0.0071305813
-0.00700918913
-0.00697392347
-0.00709187254
-0.00717931684
-0.00716751279
-0.00700282898
-0.0069722407
-0.00708351099
-0.00717597791
-0.00716537709
-0.00700423807
-0.00697367239
-0.00709302249
-0.00717461644
-0.00718592664
-0.00716622874
-0.00701478424
-0.00696068418
-0.0069776857
-0.00710976251
-0.00712723587
-0.00701278937
-0.0069794026
-0.00710280449
-0.00717509411
-0.00718419513
-0.0071520917
-0.00700572282
-0.00695949238
-0.00696617025
-0.00712520597
-0.00718063162
-0.00717939216
-0.00718524266
-0.0071612088
-0.00700240381
-0.00698923558
-0.00711931119
-0.00713981965
-0.0070121784
-0.00699377834
-0.00712584283
-0.00713978001
-0.00700288242
-0.00699354457
-0.00712780857
-0.00713491714
-0.00699376718
-0.00698423356
-0.00713378113
-0.00718239614
-0.00711826144
-0.00698235405
-0.00698699481
-0.00715017611
-0.00718422891
-0.00711144809
-0.00698064559
-0.00700377526
-0.00716525679
-0.0071912936
-0.00710672444
-0.0069794477
-0.0070341783
-0.00715729748
-0.00710056963
-0.00697637041
-0.00702754639
-0.00718225016
-0.00719357344
-0.00707304832
-0.00697337638
-0.00706292221
-0.0071694146
-0.00708259371
-0.00697394615
-0.00706931894
-0.00716927376
-0.00706928248
-0.00697212037
-0.00708096336
-0.00716304872
-0.00704686334
-0.00696881611
-0.00708234415
-0.00720024526
-0.00717698848
-0.00701561311
-0.00696965661
-0.00710511063
-0.00715083958
-0.00701683844
-0.00696869677
-0.00709475387
-0.00719202962
-0.00715721435
-0.00700362124
-0.00696978613
-0.00709519584
-0.00718864727
-0.00715469048
-0.00700307232
-0.00697266645
-0.00709637086
-0.00720357694
-0.00719782911
-0.00716049755
-0.00701366433
-0.00695905984
-0.00696200991
-0.00696481528
-0.00696407937
-0.00697814469
-0.00707502869
-0.00718369886
-0.00718092196
-0.00718065526
-0.00718425357
-0.00718269774
-0.00715810638
-0.00702244883
-0.00697021799
-0.00707604856
-0.00718924615
-0.00716915425
-0.00703021757
-0.00697198427
-0.00707490792
-0.00714963214
-0.00706323083
-0.00697545108
-0.00705973674
-0.00714866199
-0.00706551781
-0.0069632621
-0.00701921314
-0.00719633565
-0.00719284298
-0.0070818268
-0.00696283652
-0.00703175939
-0.00715594076
-0.00709890234
-0.00695827643
-0.00698740377
-0.00716963944
-0.00719551253
-0.00711808955
-0.00695505452
-0.00697885337
-0.00715196224
-0.00719662472
-0.00713368025
-0.00695403986
-0.00697194513
-0.00713952627
-0.007196974
-0.00714511692
-0.00695355647
-0.00696756075
-0.00713072133
-0.00719738193
-0.00715379801
-0.00695323576
-0.00696453006
-0.00712385278
-0.00719793039
-0.0071603358
-0.00695287525
-0.0069625775
-0.007119524
-0.00719908441
-0.00716601503
-0.00695247888
-0.00696107863
-0.00711752989
-0.00720110967
-0.00717172001
-0.00695176839
-0.00696008351
-0.00711805879
-0.00720491221
-0.00717744168
-0.00695308751
-0.00695408222
-0.0071547972
-0.00716160503
-0.00694826653
-0.00695391507
-0.00711352003
-0.00719964382
-0.00717995493
-0.0069469536
-0.00695262164
-0.00710186607
-0.00719863526
-0.00718072405
-0.00694116952
-0.00694730535
-0.00710940232
-0.007210377
-0.00718981768
-0.00693397858
-0.00693175667
-0.00693276471
-0.00692497993
-0.00715174801
-0.00717585113
-0.00691320059
-0.0069140195
-0.00708863299
-0.0071949272
-0.00717432767
-0.00690866588
-0.00690918545
-0.00690427406
-0.00696692702
-0.00700979833
-0.00689936596
-0.00687748896
-0.00687680895
-0.00685633141
-0.00685110269
-0.00683219184
-0.00682277453
-0.0068036776
-0.00679074492
-0.00676934622
-0.00675264792
-0.00672569391
-0.00670354679
-0.00666160079
-0.00661679129
-0.00658187555
-0.00655915152
-0.00652131614
-0.00649370221
-0.00645258867
-0.00642013705
-0.00637377553
-0.00633631681
-0.00627277347
-0.00620707454
-0.00611264642
-0.00603573018
-0.00596826116
-0.0058795798
-0.00580484718
-0.00571211983
-0.00564652564
-0.00555819045
-0.0054842261
-0.00535705349
-0.00506540923
-0.00492332613
-0.00483665096
-0.00469390287
-0.00456322194
-0.00438881694
-0.00422537624
-0.00400909845
-0.00382043777
-0.00358655058
-0.00319569399
-0.00299284613
-0.00258673201
-0.00219669665
-0.00193607561
-0.00175030661
-0.00140362011
-0.00105087088
-0.000786971082
-0.000467935479
-6.48929564e-05
0.000290115229
0.000687210752
0.0010284864
0.00132049758
0.00163497551
0.00193530068
0.00223044474
0.00251110965
0.00275680514
0.00309688332
0.00333065696
0.00361285139
0.00382293685
0.00409686312
0.0043061651
0.00456336654
0.00475560389
0.00498563343
0.00515782043
0.00535988414
0.00551070406
0.00568754399
0.00581863389
0.00597709326
0.00608987657
0.00622601756
0.00631511346
0.00642895703
0.00649506882
0.00658530648
0.00663897875
0.00671045861
0.00675596871
0.00681584611
0.00685784321
0.00690864724
0.00694444365
0.0069841771
0.00701228469
0.00704441451
0.00706854316
0.00709313749
0.00711746889
0.00714401215
0.00716786684
0.00719373241
0.00721643233
0.00724035246
0.00726159546
0.00728332886
0.00730250858
0.00732167774
0.00733927251
0.00735671501
0.00737304125
0.00738888376
0.00740344338
0.0074179834
0.0074319424
0.00744545667
0.0074585382
0.00747140326
0.00748393657
0.00749624912
0.00750836878
0.00752019427
0.00753178524
0.00754309212
0.00755406847
0.00756445893
0.00757461021
0.00758444362
0.00759376756
0.00760263944
0.00761141672
0.00762001999
0.00762863658
0.00763703003
0.00764530917
0.00765338843
0.00766134793
0.00766913385
0.0076767918
0.00768429353
0.00769155596
0.00769870179
0.00770569665
0.00771260668
0.00771934418
0.00772602503
0.00773251565
0.00773897423
)
;

boundaryField
{
    closed
    {
        type            zeroGradient;
    }
    open
    {
        type            zeroGradient;
    }
    sides
    {
        type            empty;
    }
    procBoundary4to3
    {
        type            processor;
        value           uniform -0.00695985671;
    }
    procBoundary4to5
    {
        type            processor;
        value           uniform 0.00774522855;
    }
}


// ************************************************************************* //
