/*--------------------------------*- C++ -*----------------------------------*\
| =========                 |                                                 |
| \\      /  F ield         | OpenFOAM: The Open Source CFD Toolbox           |
|  \\    /   O peration     | Version:  2306                                  |
|   \\  /    A nd           | Website:  www.openfoam.com                      |
|    \\/     M anipulation  |                                                 |
\*---------------------------------------------------------------------------*/
FoamFile
{
    version     2.0;
    format      ascii;
    arch        "LSB;label=32;scalar=64";
    class       volScalarField;
    location    "0.00096";
    object      alpha;
}
// * * * * * * * * * * * * * * * * * * * * * * * * * * * * * * * * * * * * * //

dimensions      [1 -1 -1 0 0 0 0];

internalField   nonuniform List<scalar> 
531
(
3.54689411e-05
3.68372126e-05
3.68446772e-05
3.54777657e-05
3.53452132e-05
3.55057132e-05
3.68409355e-05
3.68466864e-05
3.55145904e-05
3.55211109e-05
3.68500873e-05
3.68396002e-05
3.56175517e-05
3.54867007e-05
3.56047674e-05
3.68412599e-05
3.68533093e-05
3.56934438e-05
3.55211301e-05
3.55835289e-05
3.55445739e-05
3.68538744e-05
3.68459147e-05
3.55482415e-05
3.54468295e-05
3.55077346e-05
3.68423876e-05
3.68519431e-05
3.56227403e-05
3.53229162e-05
3.55755772e-05
3.68513329e-05
3.68385218e-05
3.68495201e-05
3.5522237e-05
3.53351543e-05
3.5433241e-05
3.68405128e-05
3.68410808e-05
3.5447479e-05
3.51898041e-05
3.54240912e-05
3.68410024e-05
3.68399979e-05
3.68381591e-05
3.53973224e-05
3.51757762e-05
3.53316355e-05
3.68327867e-05
3.68435667e-05
3.53158193e-05
3.53024291e-05
3.68415212e-05
3.68358484e-05
3.53391385e-05
3.52699446e-05
3.68444074e-05
3.68286465e-05
3.54073504e-05
3.51400373e-05
3.53893269e-05
3.68335774e-05
3.68321656e-05
3.68311375e-05
3.54491633e-05
3.52894888e-05
3.53849681e-05
3.6824334e-05
3.68335811e-05
3.5451653e-05
3.53098693e-05
3.53660972e-05
3.68272466e-05
3.68339599e-05
3.54648055e-05
3.51694441e-05
3.54302563e-05
3.68399792e-05
3.68286628e-05
3.68380011e-05
3.54839096e-05
3.52738913e-05
3.68352699e-05
3.68251446e-05
3.54860154e-05
3.52009859e-05
3.5431978e-05
3.68286264e-05
3.68308534e-05
3.68253792e-05
3.54758908e-05
3.53438056e-05
3.53753345e-05
3.53287729e-05
3.68426518e-05
3.68173443e-05
3.53672243e-05
3.51861661e-05
3.52956239e-05
3.68193255e-05
3.68402128e-05
3.53275274e-05
3.53309749e-05
3.68315741e-05
3.68258227e-05
3.52692012e-05
3.54034178e-05
3.68468063e-05
3.68157759e-05
3.68445929e-05
3.54211747e-05
3.51771434e-05
3.51945487e-05
3.52192318e-05
3.68447463e-05
3.68278664e-05
3.6842741e-05
3.53599724e-05
3.51614951e-05
3.6841549e-05
3.68220769e-05
3.68363981e-05
3.68198579e-05
3.56231375e-05
3.52457415e-05
3.5448342e-05
3.52144346e-05
3.52361531e-05
3.68148947e-05
3.68341737e-05
3.53807543e-05
3.50093029e-05
3.53030521e-05
3.68346187e-05
3.68163284e-05
3.68296729e-05
3.53303297e-05
3.53329309e-05
3.68364253e-05
3.68079054e-05
3.68354568e-05
3.54533573e-05
3.51610827e-05
3.51921238e-05
3.52050688e-05
3.68366434e-05
3.68095336e-05
3.68381099e-05
3.5304655e-05
3.49349052e-05
3.51289637e-05
3.68269587e-05
3.6822184e-05
3.68212557e-05
3.68234089e-05
3.54227661e-05
3.51860962e-05
3.52695728e-05
3.52139425e-05
3.68395763e-05
3.68139801e-05
3.6830676e-05
3.68174135e-05
3.55843899e-05
3.52232393e-05
3.5435237e-05
3.51825017e-05
3.52562507e-05
3.68231902e-05
3.68255559e-05
3.68188079e-05
3.68257235e-05
3.56733302e-05
3.52509776e-05
3.54723617e-05
3.51987734e-05
3.52590974e-05
3.68236314e-05
3.68244539e-05
3.6818664e-05
3.68254574e-05
3.56142559e-05
3.51646517e-05
3.54091987e-05
3.50477997e-05
3.51904062e-05
3.68297882e-05
3.68259578e-05
3.6831222e-05
3.52089789e-05
3.52296218e-05
3.68464844e-05
3.68220766e-05
3.68467775e-05
3.54413097e-05
3.51025867e-05
3.68342655e-05
3.68303258e-05
3.53508163e-05
3.51978928e-05
3.68427527e-05
3.68219099e-05
3.5383753e-05
3.51857024e-05
3.52586916e-05
3.68197213e-05
3.68425103e-05
3.54576259e-05
3.53236931e-05
3.68272438e-05
3.68292331e-05
3.55069605e-05
3.53443641e-05
3.53433395e-05
3.6823319e-05
3.68313886e-05
3.55878128e-05
3.51862375e-05
3.5481874e-05
3.68325584e-05
3.68208795e-05
3.68314989e-05
3.56114726e-05
3.52968186e-05
3.53355307e-05
3.53426932e-05
3.68354258e-05
3.68151851e-05
3.68341372e-05
3.54869698e-05
3.51668198e-05
3.52684116e-05
3.68221693e-05
3.68271307e-05
3.539057e-05
3.52211487e-05
3.68253895e-05
3.68220355e-05
3.53535744e-05
3.5079635e-05
3.514876e-05
3.68187355e-05
3.68308914e-05
3.68172571e-05
3.6832256e-05
3.54462401e-05
3.51475072e-05
3.51789291e-05
3.51334189e-05
3.6830889e-05
3.6827592e-05
3.68273428e-05
3.68303312e-05
3.53833666e-05
3.51405339e-05
3.51923501e-05
3.68270911e-05
3.68279788e-05
3.53919673e-05
3.51277809e-05
3.5211047e-05
3.68193414e-05
3.68401297e-05
3.53685647e-05
3.5282054e-05
3.68255674e-05
3.68349745e-05
3.53975785e-05
3.53449305e-05
3.68332297e-05
3.6831335e-05
3.54583691e-05
3.53710821e-05
3.68372189e-05
3.68267902e-05
3.55287118e-05
3.53595416e-05
3.53579391e-05
3.68265501e-05
3.68354353e-05
3.55799498e-05
3.53505506e-05
3.53904676e-05
3.68257223e-05
3.68356027e-05
3.55662593e-05
3.54097379e-05
3.68294739e-05
3.68230382e-05
3.55676075e-05
3.53625993e-05
3.5361273e-05
3.68177606e-05
3.68331172e-05
3.55139132e-05
3.52161155e-05
3.52623319e-05
3.68235768e-05
3.68302741e-05
3.68219031e-05
3.6833814e-05
3.55117138e-05
3.52152249e-05
3.52135978e-05
3.51947524e-05
3.68308785e-05
3.68247328e-05
3.51586737e-05
3.5185539e-05
3.6841691e-05
3.68219253e-05
3.68434567e-05
3.55000978e-05
3.5125613e-05
3.68260831e-05
3.68262613e-05
3.54420233e-05
3.51725895e-05
3.52143592e-05
3.68184257e-05
3.68386453e-05
3.54707909e-05
3.52705616e-05
3.68250493e-05
3.68264314e-05
3.55084674e-05
3.52737768e-05
3.52871223e-05
3.68219061e-05
3.68382617e-05
3.55274708e-05
3.53328893e-05
3.68293649e-05
3.68275527e-05
3.55438848e-05
3.5318651e-05
3.53185572e-05
3.68243106e-05
3.68416017e-05
3.55532624e-05
3.53577845e-05
3.68319537e-05
3.68299633e-05
3.55671244e-05
3.53497465e-05
3.53474664e-05
3.68227161e-05
3.68435877e-05
3.5592535e-05
3.54017234e-05
3.68317714e-05
3.68286838e-05
3.56138358e-05
3.54070866e-05
3.54047302e-05
3.68210333e-05
3.68415705e-05
3.56258773e-05
3.53769884e-05
3.53760512e-05
3.68304799e-05
3.68300338e-05
3.55618851e-05
3.53043281e-05
3.53069073e-05
3.68238003e-05
3.68418925e-05
3.54733729e-05
3.53706619e-05
3.68297823e-05
3.68331803e-05
3.53974659e-05
3.54065873e-05
3.68406627e-05
3.54884312e-05
3.52548464e-05
3.68305926e-05
3.68329853e-05
3.68390028e-05
3.55647004e-05
3.51979647e-05
3.68295429e-05
3.68261327e-05
3.55096614e-05
3.51879827e-05
3.52512725e-05
3.68222016e-05
3.68347436e-05
3.541976e-05
3.54205372e-05
3.68299429e-05
3.56360661e-05
3.52001738e-05
3.6815758e-05
3.68296353e-05
3.55001406e-05
3.52213153e-05
3.68226709e-05
3.68229267e-05
3.54684337e-05
3.50758231e-05
3.5179904e-05
3.68256717e-05
3.68295112e-05
3.68320215e-05
3.53877414e-05
3.53358112e-05
3.68312639e-05
3.68265595e-05
3.68366576e-05
3.56349783e-05
3.51903333e-05
3.52558351e-05
3.68282538e-05
3.68330506e-05
3.55811305e-05
3.53166101e-05
3.53163671e-05
3.68233441e-05
3.68352544e-05
3.56579617e-05
3.53989019e-05
3.5397599e-05
3.68253521e-05
3.6835009e-05
3.56964645e-05
3.54400126e-05
3.5438041e-05
3.68281268e-05
3.68397305e-05
3.56957433e-05
3.5421456e-05
3.54207463e-05
3.68331355e-05
3.68390581e-05
3.56509065e-05
3.53725674e-05
3.53720445e-05
3.68300443e-05
3.68485021e-05
3.56081154e-05
3.53821197e-05
3.68412807e-05
3.68357176e-05
3.56127427e-05
3.53345812e-05
3.53331704e-05
3.68298931e-05
3.68514073e-05
3.5594305e-05
3.53671895e-05
3.68419138e-05
3.68361186e-05
3.56145936e-05
3.53359868e-05
3.53355609e-05
3.68274112e-05
3.68526994e-05
3.56167811e-05
3.5391331e-05
3.68375702e-05
3.68385029e-05
3.5655731e-05
3.53800989e-05
3.53798929e-05
3.68351907e-05
3.68382778e-05
3.56545199e-05
3.53673908e-05
3.53657411e-05
3.68278515e-05
3.68456909e-05
3.56240145e-05
3.54210223e-05
3.68363632e-05
3.68351725e-05
3.56224502e-05
3.54001511e-05
3.52987922e-05
3.53086018e-05
3.68448131e-05
3.68294374e-05
3.68436379e-05
3.56980584e-05
3.52467655e-05
3.68403732e-05
3.68274787e-05
3.55549551e-05
3.52272115e-05
3.52289369e-05
3.68262557e-05
3.68436367e-05
3.55097583e-05
3.52677788e-05
3.68391129e-05
3.68296097e-05
3.55429573e-05
3.52157579e-05
3.52174935e-05
3.68226562e-05
3.68467731e-05
3.55289505e-05
3.53312649e-05
3.68323267e-05
3.68368941e-05
3.55607612e-05
3.53829597e-05
3.68421941e-05
3.68279833e-05
3.56478776e-05
3.53680042e-05
3.5365473e-05
3.68284927e-05
3.68427548e-05
3.56910564e-05
3.53732602e-05
3.53723278e-05
3.68395459e-05
3.68316968e-05
3.56649553e-05
3.53511259e-05
3.53499218e-05
3.68266179e-05
3.68413703e-05
3.56244806e-05
3.54034782e-05
3.68364875e-05
3.68253585e-05
3.56625309e-05
3.53491614e-05
3.53495314e-05
)
;

boundaryField
{
    closed
    {
        type            calculated;
        value           nonuniform List<scalar> 0();
    }
    open
    {
        type            calculated;
        value           nonuniform List<scalar> 0();
    }
    sides
    {
        type            empty;
    }
    procBoundary3to2
    {
        type            processor;
        value           uniform 3.53349221e-05;
    }
    procBoundary3to4
    {
        type            processor;
        value           uniform 3.68210599e-05;
    }
}


// ************************************************************************* //
