/*--------------------------------*- C++ -*----------------------------------*\
| =========                 |                                                 |
| \\      /  F ield         | OpenFOAM: The Open Source CFD Toolbox           |
|  \\    /   O peration     | Version:  2306                                  |
|   \\  /    A nd           | Website:  www.openfoam.com                      |
|    \\/     M anipulation  |                                                 |
\*---------------------------------------------------------------------------*/
FoamFile
{
    version     2.0;
    format      ascii;
    arch        "LSB;label=32;scalar=64";
    class       volScalarField;
    location    "0.00096";
    object      prefDZ_H2O;
}
// * * * * * * * * * * * * * * * * * * * * * * * * * * * * * * * * * * * * * //

dimensions      [1 -1 -1 0 0 0 0];

internalField   nonuniform List<scalar> 
531
(
-7.36858537e-07
-7.73505332e-07
-7.73836225e-07
-7.36961356e-07
-7.35911466e-07
-7.37141104e-07
-7.7344275e-07
-7.73619311e-07
-7.3727127e-07
-7.37352893e-07
-7.72877601e-07
-7.7362488e-07
-7.3807109e-07
-7.37141823e-07
-7.37930615e-07
-7.72960233e-07
-7.73205887e-07
-7.40286442e-07
-7.37330167e-07
-7.37827982e-07
-7.37502824e-07
-7.72898719e-07
-7.73516577e-07
-7.37479515e-07
-7.36752375e-07
-7.37120641e-07
-7.73093594e-07
-7.73666164e-07
-7.38189368e-07
-7.35684424e-07
-7.37759968e-07
-7.73578295e-07
-7.73100074e-07
-7.73889612e-07
-7.37356815e-07
-7.3580605e-07
-7.36566772e-07
-7.73501225e-07
-7.74027437e-07
-7.36694673e-07
-7.34613786e-07
-7.36465578e-07
-7.74010324e-07
-7.73463904e-07
-7.74346864e-07
-7.36258131e-07
-7.34526921e-07
-7.35653213e-07
-7.73997749e-07
-7.74021614e-07
-7.3563433e-07
-7.35489526e-07
-7.73650438e-07
-7.74091944e-07
-7.35767267e-07
-7.35290652e-07
-7.73451199e-07
-7.7439892e-07
-7.3633687e-07
-7.34267567e-07
-7.36192842e-07
-7.74101875e-07
-7.73529119e-07
-7.74239828e-07
-7.36779864e-07
-7.3554346e-07
-7.36201498e-07
-7.73736896e-07
-7.73943576e-07
-7.36842387e-07
-7.3568339e-07
-7.36063589e-07
-7.73663853e-07
-7.7414065e-07
-7.36937297e-07
-7.34474675e-07
-7.36608956e-07
-7.74054006e-07
-7.73483771e-07
-7.74173672e-07
-7.37089619e-07
-7.35347554e-07
-7.73264218e-07
-7.74304721e-07
-7.37047878e-07
-7.34820337e-07
-7.36578526e-07
-7.74039155e-07
-7.73443945e-07
-7.74095989e-07
-7.37009955e-07
-7.36029987e-07
-7.36134947e-07
-7.35873409e-07
-7.73560498e-07
-7.74282135e-07
-7.35990456e-07
-7.34728716e-07
-7.35362525e-07
-7.7411627e-07
-7.73928338e-07
-7.35838674e-07
-7.35777221e-07
-7.73904013e-07
-7.7391834e-07
-7.35239327e-07
-7.36482485e-07
-7.74013984e-07
-7.73730044e-07
-7.74174926e-07
-7.36622801e-07
-7.34498423e-07
-7.3462897e-07
-7.34848382e-07
-7.74187128e-07
-7.73963353e-07
-7.74293008e-07
-7.36012212e-07
-7.34390793e-07
-7.73363902e-07
-7.74356696e-07
-7.73151159e-07
-7.7436547e-07
-7.38245886e-07
-7.35280039e-07
-7.36751798e-07
-7.34989514e-07
-7.34938603e-07
-7.74056805e-07
-7.74399829e-07
-7.36312949e-07
-7.33140097e-07
-7.35627667e-07
-7.74460628e-07
-7.74002595e-07
-7.74246723e-07
-7.35860744e-07
-7.35922267e-07
-7.74109044e-07
-7.73850095e-07
-7.74280817e-07
-7.36963843e-07
-7.34454079e-07
-7.3468717e-07
-7.34845475e-07
-7.74471408e-07
-7.74222959e-07
-7.74683375e-07
-7.35691642e-07
-7.32504758e-07
-7.34154806e-07
-7.74435633e-07
-7.74481567e-07
-7.74057464e-07
-7.74434747e-07
-7.36617564e-07
-7.34731698e-07
-7.35269551e-07
-7.34949786e-07
-7.73779659e-07
-7.74334513e-07
-7.73494073e-07
-7.74293528e-07
-7.37966752e-07
-7.35075822e-07
-7.3669982e-07
-7.34682178e-07
-7.35175103e-07
-7.73938618e-07
-7.74123144e-07
-7.73470951e-07
-7.74134704e-07
-7.38788773e-07
-7.35278792e-07
-7.37051512e-07
-7.3480423e-07
-7.35220245e-07
-7.73975563e-07
-7.74181794e-07
-7.73572537e-07
-7.74237251e-07
-7.38279515e-07
-7.34547571e-07
-7.36504176e-07
-7.33524781e-07
-7.34619414e-07
-7.74565912e-07
-7.74220775e-07
-7.7431822e-07
-7.34754344e-07
-7.34976771e-07
-7.74458918e-07
-7.73877884e-07
-7.74428238e-07
-7.36753925e-07
-7.33847201e-07
-7.73806525e-07
-7.74182535e-07
-7.35913744e-07
-7.34732687e-07
-7.73804373e-07
-7.7418083e-07
-7.36139049e-07
-7.34706827e-07
-7.3506043e-07
-7.74104822e-07
-7.73813747e-07
-7.36954737e-07
-7.3572739e-07
-7.7373279e-07
-7.73802575e-07
-7.373012e-07
-7.36013138e-07
-7.35887204e-07
-7.73730472e-07
-7.74051858e-07
-7.38005561e-07
-7.34682093e-07
-7.3709238e-07
-7.74441299e-07
-7.73293357e-07
-7.74246835e-07
-7.38220014e-07
-7.35621834e-07
-7.35873046e-07
-7.35988835e-07
-7.74425212e-07
-7.7375128e-07
-7.7429771e-07
-7.37181752e-07
-7.34512246e-07
-7.35291855e-07
-7.74230275e-07
-7.7409567e-07
-7.36369702e-07
-7.34937915e-07
-7.74148423e-07
-7.74199827e-07
-7.36000592e-07
-7.3380671e-07
-7.3423761e-07
-7.7451884e-07
-7.74331134e-07
-7.74071185e-07
-7.74338876e-07
-7.36828715e-07
-7.34326013e-07
-7.34543276e-07
-7.34169811e-07
-7.74627425e-07
-7.74332186e-07
-7.74150056e-07
-7.74200579e-07
-7.36242245e-07
-7.34261858e-07
-7.3462162e-07
-7.74230684e-07
-7.74236028e-07
-7.36290028e-07
-7.34202396e-07
-7.34707848e-07
-7.74409385e-07
-7.73927632e-07
-7.36199254e-07
-7.35344462e-07
-7.74281151e-07
-7.73813573e-07
-7.36387398e-07
-7.35917553e-07
-7.74086691e-07
-7.73755708e-07
-7.36860737e-07
-7.36171845e-07
-7.73854209e-07
-7.73800992e-07
-7.37411116e-07
-7.36137191e-07
-7.35959191e-07
-7.73800943e-07
-7.73754344e-07
-7.3789311e-07
-7.36043907e-07
-7.36256634e-07
-7.73837108e-07
-7.73610215e-07
-7.37836672e-07
-7.36501783e-07
-7.73785741e-07
-7.73764026e-07
-7.37780161e-07
-7.3621367e-07
-7.36011047e-07
-7.74122353e-07
-7.73938074e-07
-7.37381406e-07
-7.3491308e-07
-7.35216003e-07
-7.74322157e-07
-7.74075659e-07
-7.73846169e-07
-7.74110809e-07
-7.37357508e-07
-7.34876286e-07
-7.34841835e-07
-7.34672847e-07
-7.74918674e-07
-7.74182746e-07
-7.3429203e-07
-7.34621654e-07
-7.7472361e-07
-7.73880386e-07
-7.74455229e-07
-7.37260632e-07
-7.34063033e-07
-7.74218779e-07
-7.74214871e-07
-7.36698929e-07
-7.34582597e-07
-7.34736491e-07
-7.7434618e-07
-7.73975667e-07
-7.37053028e-07
-7.35296126e-07
-7.74227963e-07
-7.7403367e-07
-7.37270468e-07
-7.35429369e-07
-7.35362952e-07
-7.74125765e-07
-7.73810259e-07
-7.37505141e-07
-7.35823551e-07
-7.74091962e-07
-7.7388379e-07
-7.37543074e-07
-7.35796328e-07
-7.35603492e-07
-7.74032619e-07
-7.73700283e-07
-7.37706323e-07
-7.36013477e-07
-7.74039836e-07
-7.73790343e-07
-7.37721456e-07
-7.36052604e-07
-7.3582671e-07
-7.74058289e-07
-7.73591237e-07
-7.38043627e-07
-7.3638315e-07
-7.73967055e-07
-7.73673109e-07
-7.38120812e-07
-7.36569753e-07
-7.36316891e-07
-7.74126351e-07
-7.73583026e-07
-7.38310711e-07
-7.36226466e-07
-7.36163203e-07
-7.74056983e-07
-7.73811821e-07
-7.37678507e-07
-7.35669686e-07
-7.35494858e-07
-7.74255512e-07
-7.73665984e-07
-7.37035005e-07
-7.36101025e-07
-7.74595255e-07
-7.73637563e-07
-7.36331286e-07
-7.36457619e-07
-7.74778908e-07
-7.37145042e-07
-7.35118534e-07
-7.7497124e-07
-7.73578776e-07
-7.74233479e-07
-7.37758782e-07
-7.34684581e-07
-7.74388971e-07
-7.74199219e-07
-7.37241877e-07
-7.347089e-07
-7.35049326e-07
-7.74569945e-07
-7.7374175e-07
-7.36580758e-07
-7.36592547e-07
-7.74944248e-07
-7.38454387e-07
-7.34730494e-07
-7.74546738e-07
-7.74160454e-07
-7.3729152e-07
-7.34927733e-07
-7.74734455e-07
-7.74347592e-07
-7.36933271e-07
-7.33761428e-07
-7.34490314e-07
-7.74979978e-07
-7.73950589e-07
-7.74092678e-07
-7.36279471e-07
-7.35860598e-07
-7.75337848e-07
-7.73462406e-07
-7.74425841e-07
-7.38344406e-07
-7.3468642e-07
-7.35119856e-07
-7.74313002e-07
-7.73941157e-07
-7.37869672e-07
-7.35776905e-07
-7.35609174e-07
-7.7434335e-07
-7.73754435e-07
-7.38550325e-07
-7.36469347e-07
-7.36306889e-07
-7.74125896e-07
-7.73587411e-07
-7.3902421e-07
-7.36814492e-07
-7.36625048e-07
-7.74074988e-07
-7.73510959e-07
-7.39092689e-07
-7.36620275e-07
-7.36474632e-07
-7.74099391e-07
-7.73588722e-07
-7.38419099e-07
-7.36210647e-07
-7.3600485e-07
-7.74295632e-07
-7.73542302e-07
-7.38134872e-07
-7.36179042e-07
-7.74191618e-07
-7.73739539e-07
-7.38047851e-07
-7.35904454e-07
-7.35639867e-07
-7.74346702e-07
-7.73575907e-07
-7.38022228e-07
-7.36040593e-07
-7.74213468e-07
-7.73758952e-07
-7.38061834e-07
-7.35924978e-07
-7.35652227e-07
-7.74343085e-07
-7.73527457e-07
-7.38242482e-07
-7.36232376e-07
-7.74181551e-07
-7.73637655e-07
-7.38470921e-07
-7.36270999e-07
-7.36110782e-07
-7.74141836e-07
-7.73660375e-07
-7.38462544e-07
-7.36189305e-07
-7.35967891e-07
-7.74233981e-07
-7.73523233e-07
-7.38317425e-07
-7.3652711e-07
-7.7421485e-07
-7.73613534e-07
-7.38215375e-07
-7.36428111e-07
-7.35475413e-07
-7.35611308e-07
-7.74858677e-07
-7.73371515e-07
-7.74378489e-07
-7.38894981e-07
-7.35095152e-07
-7.74169771e-07
-7.74093692e-07
-7.37591174e-07
-7.35037496e-07
-7.34804266e-07
-7.74568852e-07
-7.73922357e-07
-7.3733409e-07
-7.35252558e-07
-7.74446991e-07
-7.74119851e-07
-7.37493658e-07
-7.34948297e-07
-7.34695145e-07
-7.74525191e-07
-7.73816091e-07
-7.37536624e-07
-7.35746918e-07
-7.74466553e-07
-7.73723327e-07
-7.37742223e-07
-7.3626098e-07
-7.74132617e-07
-7.73810812e-07
-7.38392305e-07
-7.36236691e-07
-7.35973118e-07
-7.7409402e-07
-7.73644279e-07
-7.38856109e-07
-7.36185272e-07
-7.36121521e-07
-7.73929766e-07
-7.73791422e-07
-7.38548142e-07
-7.36080617e-07
-7.35846027e-07
-7.74156444e-07
-7.73623629e-07
-7.38316835e-07
-7.36435711e-07
-7.74046057e-07
-7.73834333e-07
-7.38570467e-07
-7.36109758e-07
-7.35912413e-07
)
;

boundaryField
{
    closed
    {
        type            calculated;
        value           nonuniform List<scalar> 0();
    }
    open
    {
        type            calculated;
        value           nonuniform List<scalar> 0();
    }
    sides
    {
        type            empty;
    }
    procBoundary3to2
    {
        type            processor;
        value           uniform -7.35843615e-07;
    }
    procBoundary3to4
    {
        type            processor;
        value           uniform -7.74342484e-07;
    }
}


// ************************************************************************* //
