/*--------------------------------*- C++ -*----------------------------------*\
| =========                 |                                                 |
| \\      /  F ield         | OpenFOAM: The Open Source CFD Toolbox           |
|  \\    /   O peration     | Version:  2306                                  |
|   \\  /    A nd           | Website:  www.openfoam.com                      |
|    \\/     M anipulation  |                                                 |
\*---------------------------------------------------------------------------*/
FoamFile
{
    version     2.0;
    format      ascii;
    arch        "LSB;label=32;scalar=64";
    class       volScalarField;
    location    "0.00096";
    object      prefDh_H2O;
}
// * * * * * * * * * * * * * * * * * * * * * * * * * * * * * * * * * * * * * //

dimensions      [1 1 -3 0 0 0 0];

internalField   nonuniform List<scalar> 
531
(
88.0344835
92.2521672
92.2908526
88.0454804
87.9395439
88.0628399
92.2440411
92.2644046
88.0771021
88.0859035
92.174516
92.2661925
88.1575499
88.0657609
88.1426368
92.1858621
92.213556
88.4136946
88.08318
88.1334973
88.100363
92.1764631
92.25215
88.09703
88.0250716
88.06009
92.20175
92.2692201
88.1709283
87.9156782
88.1265371
92.258731
92.20314
92.2965206
88.0862055
87.9284188
88.0048688
92.2511522
92.3144546
88.0180617
87.8073708
87.994114
92.3124054
92.2467373
92.3533961
87.9732665
87.7990767
87.9106214
92.3121856
92.3133612
87.9107411
87.8953939
92.2689686
92.3230505
87.9231676
87.8764481
92.2445116
92.3611667
87.981199
87.7733799
87.9666412
92.3246049
92.2558283
92.3416084
88.0280157
87.9038233
87.9683332
92.2820933
92.3055342
88.035134
87.917526
87.9546384
92.2728349
92.3292157
88.0445356
87.7937676
88.0103701
92.317829
92.2509175
92.3325567
88.0599251
87.8826784
92.2234268
92.3503707
88.0546114
87.830471
88.006466
92.3178295
92.2457744
92.325188
88.0515814
87.9539721
87.9618036
87.9374624
92.2579554
92.3488793
87.9457014
87.8217282
87.8811877
92.3285854
92.302653
87.9334838
87.9255918
92.3010844
92.303717
87.8704019
87.9992429
92.3119313
92.282617
92.3316687
88.0133925
87.7954459
87.8084717
87.8310607
92.3331145
92.3088175
92.3461858
87.9494005
87.7849052
92.2344458
92.3571155
92.209629
92.3585224
88.177629
87.8788519
88.0247761
87.848737
87.8393213
92.3221202
92.360405
87.9823299
87.6579163
87.9118723
92.3676591
92.3153636
92.34267
87.9357077
87.9426947
92.3250195
92.2983198
92.3458655
88.0494331
87.7925699
87.8158296
87.8328674
92.3686387
92.3429816
92.3939429
87.9193059
87.5929665
87.7615257
92.3658555
92.3721417
92.3211969
92.3663083
88.0125258
87.8220971
87.8739723
87.8440411
92.2848423
92.3557196
92.2518411
92.350241
88.1499733
87.8577591
88.0205118
87.8166979
87.8646574
92.3065749
92.3284315
92.2509265
92.3297977
88.2351403
87.877905
88.0570877
87.8288739
87.8696434
92.310956
92.3356707
92.263187
92.3421934
88.1829674
87.8032555
88.0009735
87.6982492
87.8079549
92.381104
92.3401297
92.3510389
87.8213297
87.8448945
92.3655827
92.2994338
92.3618405
88.0260845
87.7286008
92.2889159
92.3348343
87.9389726
87.8204166
92.2873188
92.3359555
87.9610304
87.8191699
87.8505269
92.327144
92.2884863
88.047701
87.9207143
92.2811401
92.2892334
88.081823
87.9518666
87.9369168
92.2814795
92.3189244
88.1541095
87.8161175
88.06056
92.3656554
92.2292055
92.3423955
88.1762607
87.9121169
87.9363974
87.9492039
92.3632654
92.2852683
92.3481086
88.0705037
87.7986808
87.8768249
92.3418713
92.3248736
87.9876556
87.8415183
92.3315031
92.3382243
87.9489713
87.7272513
87.7684491
92.3771756
92.3526468
92.3234802
92.3533643
88.0343074
87.7792596
87.8005603
87.7626473
92.3883409
92.3532935
92.3313919
92.3370073
87.9734588
87.772618
87.8079238
92.3411447
92.3416486
87.9778936
87.7674247
87.8154337
92.3638941
92.3025811
87.9705342
87.8810712
92.3474646
92.2896533
87.9887223
87.9403166
92.3228304
92.2832561
88.0363268
87.9668679
92.2941948
92.2894278
88.0917428
87.964453
87.9433494
92.2894597
92.2824453
88.1418197
87.9546224
87.9741161
92.2939469
92.265056
88.1370988
88.0006056
92.2871675
92.2855659
88.1301348
87.9731642
87.949065
92.329565
92.3049445
88.0903904
87.8393025
87.8686437
92.3527183
92.3219673
92.2956406
92.3256438
88.0878568
87.8350202
87.8311314
87.8137093
92.423429
92.3357415
87.7734737
87.8089654
92.3982254
92.2997591
92.3656155
88.0779892
87.7510121
92.3398694
92.3393706
88.0193879
87.8062502
87.8183691
92.3564243
92.3086019
88.0575047
87.8770115
92.3411387
92.3175147
88.0779181
87.8925148
87.882523
92.3293225
92.2887359
88.1031848
87.9308596
92.3240747
92.2992821
88.1052825
87.9297466
87.9066292
92.3177224
92.2749607
88.1234291
87.9498818
92.3173871
92.2876447
88.1231814
87.9557871
87.9290414
92.3210662
92.261511
88.1579639
87.98759
92.3086479
92.2737233
88.164044
88.0091531
87.9791975
92.3295308
92.2608398
88.1849778
87.9725274
87.9650833
92.319685
92.290221
88.1188189
87.9167209
87.8953575
92.3446545
92.2707829
88.0549587
87.9584397
92.3846399
92.2687325
87.9820129
87.9957853
92.4050492
88.0658878
87.8580814
92.4298067
92.2616812
92.3396037
88.1280079
87.8146292
92.3598268
92.3375053
88.0743168
87.8190709
87.8503176
92.3827858
92.2810373
88.0085659
88.009862
92.4266574
88.2006566
87.8198059
92.3810058
92.3322832
88.0816825
87.8402704
92.4025301
92.3558849
88.0435105
87.7223933
87.7940516
92.4316351
92.3070205
92.3237422
87.9772635
87.934862
92.4738657
92.2486752
92.363147
88.1876627
87.8160126
87.8580902
92.3508782
92.3053264
88.13884
87.9277254
87.907641
92.3553081
92.2824849
88.2088953
87.9983477
87.9790686
92.3287952
92.2624024
88.2601419
88.0335378
88.0111323
92.3222249
92.2524481
88.2685681
88.0130475
87.9956996
92.3243752
92.2619221
88.1942455
87.9712968
87.9467028
92.3485034
92.2548412
88.1665718
87.9660695
92.3342017
92.2806173
88.1554798
87.9403082
87.9087904
92.3546795
92.2584316
88.1551408
87.951717
92.3367341
92.2828928
88.1568791
87.9425578
87.9099128
92.3546351
92.2523911
88.1781622
87.9710787
92.3335738
92.2679045
88.1997306
87.9773984
87.9582218
92.3291645
92.270677
88.1989074
87.9695183
87.9432193
92.341422
92.2529871
88.1860567
88.0019467
92.3377757
92.2655237
88.1740813
87.993216
87.8942505
87.90907
92.4140046
92.2372721
92.3563422
88.2441941
87.8565007
92.3317129
92.3245803
88.1093959
87.8525517
87.8242928
92.3820151
92.3013929
88.0853442
87.872205
92.3653078
92.3273958
88.0995059
87.8435857
87.812931
92.3773226
92.2880967
88.1067341
87.9219138
92.3687343
92.2784788
88.1266111
87.9757663
92.32695
92.2904227
88.1914882
87.9751087
87.9438861
92.32446
92.2680322
88.2405775
87.9681497
87.9606463
92.3029302
92.2875015
88.2076044
87.9589387
87.930988
92.3322758
92.2657627
88.185917
87.9936265
92.3174217
92.29367
88.2106302
87.9627314
87.9390065
)
;

boundaryField
{
    closed
    {
        type            calculated;
        value           nonuniform List<scalar> 0();
    }
    open
    {
        type            calculated;
        value           nonuniform List<scalar> 0();
    }
    sides
    {
        type            empty;
    }
    procBoundary3to2
    {
        type            processor;
        value           uniform 87.9329592;
    }
    procBoundary3to4
    {
        type            processor;
        value           uniform 92.3555638;
    }
}


// ************************************************************************* //
