/*--------------------------------*- C++ -*----------------------------------*\
| =========                 |                                                 |
| \\      /  F ield         | OpenFOAM: The Open Source CFD Toolbox           |
|  \\    /   O peration     | Version:  2306                                  |
|   \\  /    A nd           | Website:  www.openfoam.com                      |
|    \\/     M anipulation  |                                                 |
\*---------------------------------------------------------------------------*/
FoamFile
{
    version     2.0;
    format      ascii;
    arch        "LSB;label=32;scalar=64";
    class       volScalarField;
    location    "0.00018";
    object      prefDh_H2;
}
// * * * * * * * * * * * * * * * * * * * * * * * * * * * * * * * * * * * * * //

dimensions      [1 1 -3 0 0 0 0];

internalField   nonuniform List<scalar> 
3810
(
27.5063139
38.3710741
38.3801437
25.0664362
26.8122626
38.3689272
38.2833716
24.8161327
26.9626173
38.2346478
38.3134202
23.0547336
28.9387631
38.1692374
38.1589534
38.222962
20.7812645
20.6288099
22.252988
27.6157825
38.2091875
38.2971678
38.1203115
38.1659299
38.1468044
20.4935881
20.4826873
23.8099063
27.1710561
38.087753
38.2658154
25.304026
27.1685164
38.1501583
38.3129979
25.0229681
29.3194719
38.1628957
38.2588451
37.9990621
38.2273146
37.9064944
38.1506603
37.9147719
18.8102441
18.551496
22.9688928
21.3890699
27.3714352
38.1751992
38.3204741
23.8594637
23.8712741
25.4390803
28.4632735
38.3310613
38.2831723
25.6881935
25.7080386
26.7721744
29.3635885
38.4443533
38.2659874
25.5923669
25.6034219
29.1549969
38.3298772
38.4538196
26.0632352
28.1067148
38.4798858
38.1941643
24.5949392
24.5840747
28.5403256
38.2771163
38.4283052
25.5183286
27.2647629
38.4388273
38.2988985
24.9842571
27.5516282
38.571464
38.2467655
38.5004741
38.1533654
38.4145892
38.0720808
21.0418831
20.247481
23.5470621
21.6488227
26.4925986
38.2501775
38.2565834
24.1887396
25.9687054
38.3230432
38.1330877
23.9323823
23.5821
26.5271159
38.2261094
38.2520889
24.8324165
22.7735669
28.178304
38.2515196
38.2989102
38.049543
24.7561874
25.7431431
38.2947015
38.2007818
38.1803659
23.9620949
19.7509161
25.661623
38.3162347
38.2055069
38.2615499
38.0304573
21.1274229
19.4664663
23.3922153
38.2378577
37.7888839
22.5161697
23.0908803
22.231142
25.8937392
38.3856937
38.112524
38.2820739
24.7591111
23.6831972
38.1399669
37.8963556
24.0290573
24.3757168
38.2270866
37.7437882
24.0082949
24.0205054
22.8341439
26.2727661
38.3175948
38.2486898
38.2410731
38.1961983
38.0711143
38.1416975
37.8445004
22.4112981
20.0570888
21.0856126
23.1587855
38.3245175
37.9937918
38.1899335
37.7359952
21.6235914
19.7923779
24.0965751
38.1894123
37.7848758
23.9455732
22.5024856
25.8550014
23.0643245
28.5342655
38.1142981
37.9796779
38.1099401
37.5899899
24.3731702
27.6136357
38.1250339
38.1684036
37.9547354
24.607703
22.9985853
23.5862685
26.3628006
38.461093
38.159013
38.4052234
37.8902244
38.2653262
37.7055924
21.4459182
19.885467
23.0076401
21.3888219
24.4196762
22.3851823
28.2104376
38.2350071
38.1144469
38.1569707
37.8882126
23.2382361
21.4014502
26.2522267
38.0736552
37.9360391
23.8235671
23.8311809
23.5691983
27.6408286
38.3701417
38.2143953
38.3005105
38.0157053
38.1697569
37.944574
22.3525036
21.3861009
22.2752189
25.2904872
38.3478191
37.943465
38.2354128
37.8112896
22.7670562
20.5743112
24.3792325
21.3326132
26.820911
38.0817808
38.2672559
38.0235017
38.1697853
38.0442203
23.8155989
25.8308964
38.2679973
38.0227942
38.2464742
23.4805245
21.9790773
24.1748599
25.7591982
38.2762173
38.0977313
25.3425183
23.5554607
27.9170999
38.1156697
38.3665842
25.8680908
27.0871763
38.3477846
38.1831064
25.2520877
23.555069
27.3547099
38.261708
38.4447
25.2573461
26.3661275
38.4726487
38.2338304
24.7979768
22.7642988
26.6232478
38.2982218
38.6039167
23.678138
26.7511835
38.5152742
38.4050553
38.5671625
23.960503
24.5959584
38.6523998
38.3214975
38.668302
23.0598501
22.1944093
22.4624675
25.7052159
38.6250124
38.2791542
38.6808842
24.7641211
23.3403658
38.3214318
38.5883997
24.1120281
23.8275095
38.3592369
38.5176146
24.5956052
24.8502513
24.6574369
27.1897903
38.3861363
38.3837578
24.3306675
28.851161
38.6439212
38.2172992
38.5944322
25.3386382
24.606749
38.5147374
38.297746
38.5213797
38.2605386
38.4238949
22.3303956
19.5448636
22.6889226
23.5855569
23.8356274
25.9639462
38.3638996
38.2239775
26.2206131
25.1756812
26.0548766
25.7505785
38.6527126
38.265368
28.1351663
38.5364076
38.4144164
24.4514283
23.4932111
26.4410896
24.1297175
29.0107066
38.3723072
38.6175919
38.1736558
38.5019586
24.7851048
25.2349956
38.4201697
38.493915
38.0450037
25.1242596
19.4116408
25.1003048
38.2695448
38.232591
24.1274032
25.1617132
38.3509272
38.1330562
23.5234431
25.0895324
38.4488025
38.3108967
38.3140386
24.6443501
20.2438421
24.1088923
25.177398
25.1672564
28.5217814
38.5876979
38.0776708
27.9242519
23.2486336
28.8639001
38.2886035
38.4895986
38.2823097
38.3934436
38.277611
23.9449203
23.1607434
38.4428925
38.2073743
38.1602994
23.5739956
18.9294955
25.0466884
22.3208731
29.0035614
37.9721383
38.7271102
38.0377705
38.7792892
23.8081492
22.0200817
23.94036
26.7479579
38.2792736
38.0947782
26.1726785
22.6944952
28.9562886
37.706452
38.437709
37.9360695
38.4851262
38.1674591
22.1644506
17.689871
26.885216
37.6718873
38.6041019
23.3156155
25.7520254
37.8449987
38.1855323
38.0751595
23.4964068
19.6873222
29.0844285
37.6132788
38.3891112
37.7479823
38.5082812
37.8656738
31.5248157
15.5603181
15.4652246
21.2210424
21.5240332
24.5263278
26.1571481
25.9210329
29.038118
37.5729114
38.2923851
37.9805388
38.1660533
38.440479
17.6722384
17.1150205
24.8260473
29.3439544
37.6852871
38.1722245
37.8756027
38.0921558
38.1245414
20.8543697
19.5502337
29.0985111
37.7097758
38.5048445
25.1582551
29.5375299
37.9097539
37.7949177
37.8502223
38.0069111
17.5171102
17.229115
24.3230911
24.7236842
27.562942
27.6477548
29.2923941
37.9049794
38.2222958
23.2419998
23.048366
31.5900168
37.7767381
37.3056393
37.7622808
37.6318182
22.939409
28.092018
37.6767067
37.755679
37.8757097
19.1951806
19.1546235
26.3233446
29.3803302
38.1970547
38.0647898
24.8747189
28.1762982
38.2459335
37.8501717
21.2385309
21.0580462
28.3723792
31.4944074
38.1554429
38.1777061
38.0442641
38.953937
37.8472491
28.2284026
18.0190584
20.7579587
24.0804415
24.0750431
28.3263445
33.4028798
38.1020041
37.5786699
37.9937969
38.4269897
37.7757785
29.0001564
20.2114108
22.0146401
25.6097334
29.3084693
37.9521875
37.6805604
20.7819362
20.6511112
29.294792
37.5935352
37.5995999
19.6816581
19.653093
25.7437265
26.4120135
27.8269
29.9163134
38.0888761
37.1917241
38.0609134
36.8858685
23.56527
26.2082552
38.0622242
37.0402858
21.6696977
21.5564539
27.3951014
29.291862
37.8485105
38.1068985
37.3427963
38.0275637
36.9955544
22.4874493
27.8208077
37.7943999
37.8752818
37.1805597
22.5390016
25.4012416
37.7302016
37.8798018
36.964124
17.008464
16.8076529
23.7268485
22.9515638
29.1225777
37.9482971
37.4609769
23.6213965
29.5786921
38.0759499
38.2062345
37.2952505
24.8166453
26.1489965
38.2220092
37.2138969
22.5263328
22.4974719
26.4142574
29.1292399
38.1478288
38.2017522
37.5995786
38.0804504
37.1095717
23.0731898
28.7796076
37.9173124
38.0343843
37.2648397
20.51629
20.4671723
24.3214365
29.5250997
38.2473994
37.3286159
22.3260061
22.2554143
29.0883843
38.0065693
37.6535729
24.3463659
29.3893253
38.1716704
37.6422929
24.0022756
29.3813058
38.16782
38.2874255
37.5683592
25.3997172
26.5989758
38.337494
37.38353
21.1648395
20.9854811
29.2911348
38.0509751
37.8446071
23.2295005
23.2237924
25.2917255
29.3183566
38.2627986
38.0161438
24.4197892
24.4124599
26.1755393
29.0503065
38.2915564
38.2000901
24.9904677
29.2233853
38.3209618
38.4198419
38.142884
21.8469601
20.3048817
29.1461894
38.3036903
38.3171934
22.7241014
26.4086829
38.4221258
38.2866965
23.8035042
23.8116186
25.9490338
28.8894141
38.3719081
38.4224708
38.2861105
38.397412
24.781438
28.5389929
38.2839265
38.380596
38.2094182
38.3232132
38.1658303
20.4435656
20.3176495
25.4742189
23.945543
28.8953241
38.2975026
38.4301794
24.5485185
24.5511156
28.987652
38.3295551
38.6054406
25.3801387
27.3903762
38.42457
38.5449
24.9927304
25.9371856
38.4647805
38.485627
24.3998461
24.5036746
25.3893189
29.0026825
38.4127392
38.515037
38.3307275
24.384976
21.4072992
28.8122715
38.2149092
38.7469312
20.8220853
28.4656473
38.3734154
24.0109367
20.8259182
26.0110682
23.5773338
28.6781258
38.3532118
38.8605082
38.3042389
38.8265902
25.5089219
28.5871819
38.4280711
38.4652258
38.3320002
38.4633893
38.2838177
38.4007091
21.2303009
20.8459614
24.1585881
23.6225412
26.8684871
24.7752703
28.8144113
38.2508487
38.5811123
38.2931851
38.5044083
21.2076902
19.8040584
25.1925744
38.3312817
38.4565587
22.9106913
24.089617
24.5612015
27.7614351
38.3890051
38.3168828
25.2066037
24.0552445
28.8149019
38.2019985
38.7168598
38.135351
38.7563616
22.7059386
22.4737743
38.1190482
38.4982558
23.3055254
23.9763366
24.1189772
28.8664721
38.2463384
38.2726152
38.2619543
38.2989107
21.7336944
20.4128336
25.4332053
38.191606
38.5189728
22.4330559
24.4910007
38.2522801
38.614755
23.850383
24.6794475
24.6139897
28.865606
38.4553855
38.5143966
38.5106338
38.5921374
23.8118502
20.6126752
28.8421192
38.760448
38.4679023
38.8409223
26.4578142
25.735855
38.5492733
38.5961019
38.5653816
26.7745267
23.4569964
27.1637844
23.9512858
27.7448337
38.386067
38.9928033
24.0390609
26.0150026
38.4607712
38.8413875
22.5576417
26.8576742
38.7063301
38.529568
38.723721
23.624153
23.4515228
23.6408166
28.6144067
38.753245
38.5516907
38.7482724
27.2159542
28.1109853
38.6704104
38.6129673
38.5984324
27.3220524
24.2954935
27.7190726
24.7297765
28.7784667
38.5631655
38.5614361
24.2663767
24.0883795
27.5702192
38.5438985
38.2576373
24.6777368
24.9281438
25.0191758
27.6039822
38.6132232
38.2042514
24.7557394
26.7224909
38.7054016
38.3005972
38.61435
38.1430944
26.0067062
24.3391904
28.1312119
25.4326819
28.6905374
38.3466622
38.6346772
37.9443112
26.8311992
27.5054025
38.6215528
38.0779003
25.7668161
24.2674303
28.9595508
38.3241784
38.0736221
25.5404705
28.2262386
38.4612341
38.10141
24.0329279
23.3843614
29.2157136
38.319119
37.8965851
24.5399903
27.722516
38.4006724
37.8133437
23.304766
28.1184072
38.212139
38.3175301
37.9210449
21.7297798
20.6737705
24.1531087
23.2933594
25.7148924
25.8000157
29.577703
38.0952195
37.8445482
26.4198662
29.1735572
38.1281627
38.2045673
37.9087472
22.2657108
18.9990853
27.8477712
38.3294223
38.4101594
37.9398115
38.1519237
37.6012138
23.2805368
20.5545828
24.227609
21.1102407
27.9601229
37.9630674
37.9206899
37.9679626
37.4833115
24.0912987
25.3770627
38.1952264
37.5043312
24.2129447
26.0159048
38.3905861
37.6098784
23.7874101
26.0337468
38.3609741
37.8456447
21.8806569
20.5371958
28.2248252
38.2067694
38.0727951
24.0650569
26.544679
38.3550801
37.9804026
23.5767335
21.2396653
29.1373794
38.1505436
38.4568175
37.9156216
38.2837688
37.7909366
22.1908992
25.8224927
37.9188301
37.9157556
37.7185237
22.2318362
22.7114388
37.698093
37.561122
18.6295068
18.4741312
18.267933
24.5020371
37.8740036
37.9992762
37.5902789
37.8823026
37.3886477
22.9446245
23.2119715
37.9174909
37.4799077
22.8330694
22.8062385
24.7578247
27.5967241
38.1414902
37.9604041
25.890613
26.8512212
38.3169567
37.998263
24.5792516
25.8884969
38.369105
38.0265781
23.458111
23.4543444
24.2187612
27.8243882
38.3127302
38.278135
24.3644458
28.5107912
38.3290213
38.2018221
38.2904331
23.9261669
25.0871686
38.116575
38.1862206
37.9857837
20.936487
18.4335727
23.2277683
20.1341665
25.9773108
38.0679684
38.1935361
38.0757724
38.161233
38.0327763
38.0937701
38.0336413
21.4090402
19.5206798
22.7726273
24.3991538
38.2270036
38.1904856
25.0634138
25.4498486
25.3249388
29.0438196
38.4314271
38.5642537
38.3833927
38.7038474
23.7579588
23.1367028
38.3568147
38.6099808
23.8977035
24.0334669
23.6974034
28.1056803
38.2738219
38.6492968
38.206211
38.7598898
22.503923
24.9633614
38.3202101
27.1225924
19.4916896
26.4546456
38.2083843
38.6433369
25.3487837
25.353818
23.9102509
28.8219239
38.4662484
38.4930571
38.5504253
28.6555132
24.7847293
38.7923639
38.6220486
26.2079469
25.9328301
38.7912357
38.6814952
26.29584
27.8515285
38.7259122
38.75942
38.3407662
28.7515844
22.4507741
24.8245949
22.9161471
24.3479593
21.8029376
23.8291087
37.8569871
38.0163178
37.0240346
37.9145992
36.1398945
22.6224589
22.7712777
38.4427841
37.8891381
38.0651822
25.7657065
18.7162896
20.7338361
21.2499085
38.4046077
37.8972637
38.2392244
37.9447441
29.3897102
24.451462
25.6319506
38.3446314
38.6189079
26.280436
24.4187395
38.5924342
38.6784548
26.4695358
23.5737906
25.4569191
27.4699179
38.185031
38.5814824
29.2214711
27.0280277
38.1097071
38.6432232
28.0083972
26.204343
37.8997257
38.5637439
27.5232777
25.6925756
37.7239514
38.4997619
26.9581499
25.0713755
37.5405581
38.4444997
25.6548116
23.8064448
37.5036997
38.317189
23.696676
20.1217248
24.9918174
24.5787582
28.7334963
37.6409848
38.8524863
26.9144346
25.6964158
37.4160569
38.2111535
23.2170734
18.6727373
26.5620651
37.7208952
38.0725596
38.2219029
38.273297
38.5069112
38.5178531
29.0311533
21.2843768
22.4832911
29.3586115
38.0542645
38.6869514
19.7373777
18.9222691
22.3795129
25.1120711
37.5063504
37.860099
37.2728936
38.5071758
25.6746208
29.3845909
38.0900589
38.6610885
38.2711704
29.6161098
21.1396113
21.0586581
28.9763925
38.1355952
38.5917627
23.5251211
27.0235418
38.134982
38.2709126
21.6242755
21.5664917
28.6647127
29.1191948
38.4626647
38.6239483
27.4342693
28.7729481
38.6082225
39.0653011
38.4331653
28.3521894
20.0876089
23.0455705
25.8571504
26.5061456
28.7187012
29.4018106
38.1367356
38.1946204
21.7456813
21.6711692
29.4169163
37.8109845
37.9814428
22.0517273
22.0582712
29.5962236
29.3073242
38.1767995
38.0200857
26.9313187
29.6164094
37.7642837
37.8878953
37.5037602
20.8855495
22.0912367
37.7703257
37.7860693
37.2650481
38.0754516
37.2842975
38.3300719
37.238952
38.3086022
37.2011501
19.2117315
15.2051744
21.1760477
21.7919984
23.3978224
25.5080823
24.8217437
29.1823834
36.9337851
38.1208144
37.3725739
37.8579695
30.2371304
21.1764046
21.5414897
29.1774272
30.4782405
37.9676897
38.0641785
37.7240593
30.2819904
19.8561755
21.2777288
30.9871446
37.8810191
38.6572573
37.3316869
28.2685248
18.6475653
20.7590141
25.160229
26.7919674
32.7502074
37.7863678
38.0281664
37.4899073
29.2977858
18.6662657
19.355595
29.3372715
37.7434852
35.2564011
19.0716463
19.0058146
26.0202776
26.3941954
29.5631288
37.7764997
37.0549844
22.1452585
22.0192903
29.6773495
32.4884136
37.8389905
37.4110315
38.3059596
37.3848138
29.1827666
21.0202182
22.9432759
31.2545254
37.9519447
38.4116055
37.5100666
28.7782615
19.9909742
21.1967061
29.3318896
37.9513597
37.3638168
23.951118
29.5525092
37.7320854
38.0233553
37.2305171
24.9178315
27.4654475
38.1082083
37.1760016
23.5555875
30.0005135
37.6645436
37.7869718
37.3090917
18.4953699
18.4021373
25.948814
29.4631645
38.015269
37.54162
20.8441039
20.7644516
29.2333745
37.7860585
37.5761696
21.8446845
21.7304254
29.1171735
37.4599079
38.1379595
37.4717999
20.8136108
20.6732443
29.1502642
37.8857157
37.8639349
24.8450437
28.7706953
38.3157756
37.685432
25.1221447
27.9905669
38.4640626
37.690347
24.9280843
27.5043406
38.5226633
37.8133073
24.6450142
27.362599
38.5055731
37.9864676
24.2176452
29.3409735
38.4474345
37.8453175
38.306574
37.9836053
18.152378
17.8270273
24.3198516
23.123943
28.7629727
38.088078
39.0387121
24.2026107
29.0848798
38.3201427
38.3905
38.6751751
23.361222
22.6395399
25.6820654
28.7052927
38.2693621
38.8870173
27.1450207
27.0825972
38.2672069
38.5400986
26.4423822
23.802376
28.2443478
37.6815849
39.0777828
29.0324298
27.0350581
36.6672878
38.831733
29.3264176
27.9547151
36.5925084
38.7819391
38.6616002
28.2879585
23.8988787
25.8790255
24.5331816
25.0767828
36.5939681
38.5358345
29.2178251
28.5289076
33.4207385
38.5646893
38.341821
28.8950733
26.425988
23.3071556
23.2018614
32.0831932
38.1191858
38.0475128
29.5014173
26.8344971
24.3286304
23.7854849
29.5114625
37.8242775
30.0668409
25.887701
24.0609102
28.9817618
37.926459
38.6138132
38.1602533
38.4546729
30.6718653
26.2127499
24.6859568
24.4474509
25.0879994
24.4055154
24.4298596
30.5054938
38.2608973
29.9090269
28.557549
29.6782423
38.5312847
31.2720451
26.9611024
24.8086335
29.0691613
38.2960566
29.9247533
27.5774679
29.7117683
38.3553844
29.1564643
27.5737757
29.4887969
38.4473693
38.5086896
30.6494837
25.7206341
24.5748789
23.7079615
28.7210864
38.2861994
28.815441
27.8550098
29.4453591
29.3206236
24.3629431
22.2717192
28.5107307
38.8623082
39.0206015
38.4523566
38.7795889
38.0461285
38.7166489
37.6787348
28.7248892
22.1512875
22.5930328
22.2132066
22.8650542
23.2332586
24.2167131
24.7264198
25.0021422
29.3726814
38.3514539
38.2419158
38.5984124
37.7477799
28.7882942
23.353113
23.4152477
21.7578601
28.5300238
38.7310165
38.8604306
38.4882349
38.7139769
38.0238884
38.8787953
37.6913736
28.6809311
23.0134524
28.5015764
38.7745347
38.3495761
28.5806348
23.1496881
23.7330046
24.4146734
23.0805588
29.0642288
38.3458181
38.0902718
25.8033106
29.5796857
38.2499009
37.503319
22.6777178
22.6047093
29.1919387
38.0271009
37.9869046
38.0005478
37.6391833
23.3793886
23.3568422
26.050115
26.3043336
26.7099989
29.3256517
38.3384363
38.0632164
24.5829849
24.2165982
29.0147157
38.0714641
37.7283331
25.1043534
25.0921681
26.7475794
29.2998392
38.5061368
37.6156723
27.1235543
28.9431853
38.8819207
37.4659122
28.6593037
37.6715772
37.9671917
22.78821
28.8977013
38.0487753
37.7229839
20.7671993
20.6944158
29.1897592
38.0585518
37.6195053
23.6409848
23.6734605
25.6902397
29.106024
38.2165173
37.6490443
23.3398705
23.2951304
29.0891033
38.0390596
37.6014894
24.6294023
24.6228282
26.3639523
29.0680777
38.2539911
37.8976142
25.6592735
29.2699142
38.5001175
38.5595493
38.2238498
26.2595012
28.7423647
38.8593448
38.9114805
38.535817
28.5076386
23.3854474
25.9470035
23.8810635
28.476867
38.8275057
39.1818884
38.6047532
39.0439836
38.1919921
38.7605699
38.0250927
24.4048443
21.1172695
23.6166077
21.9052117
23.1453036
22.5312798
24.1701737
22.4330915
28.1812421
38.4214711
38.3464985
38.2893886
38.2136833
27.7546793
23.9033384
23.4914445
27.1452784
38.2994348
38.0722765
38.1175917
25.635532
25.8696075
38.5394153
38.0161166
38.5350219
37.964399
38.2849829
37.9680157
26.2789724
17.6340859
22.3498733
38.3909652
38.218479
25.363195
22.0966353
24.6705558
23.2858818
25.5023961
23.2554845
27.7425583
38.2973134
37.958428
38.0703686
27.861791
25.31961
38.4992009
38.0240094
38.2174274
38.1509456
38.2354074
38.1322656
28.9294266
20.3792137
23.6182579
20.3671602
21.6377173
32.4319786
38.1729466
37.9707704
29.4719155
24.0759368
22.6601955
22.8539997
38.0301816
37.7287492
37.9742028
37.7890479
29.0941758
21.0545759
23.1242351
37.6739591
38.2174101
28.1065715
24.9209256
37.0875649
38.1125124
37.3861861
38.1743184
29.5871656
22.8333522
22.0263348
22.1142018
37.1795531
38.1536588
28.7657749
24.5960224
37.1236636
38.4034218
27.9158439
24.296129
37.0662375
38.4158904
29.5533411
24.4500685
23.2877181
26.1215387
37.1173228
37.9261748
37.5279341
38.1240937
38.2381131
38.2778054
27.300628
16.4278786
19.62472
37.152317
38.1186641
27.1699349
21.0543053
24.5621087
23.2108372
26.2667229
37.3630558
38.6368083
28.7694632
25.0368778
25.6525101
29.259198
37.5079661
38.3967321
38.352972
27.3002689
21.4681028
29.1678532
37.8063068
38.6602828
25.7885644
22.8373479
29.048676
37.3452755
38.4324358
37.5900604
38.3497194
37.7719139
38.2190658
38.2251425
20.5532186
19.5035033
23.4459285
29.0326099
38.3796181
38.3480175
22.1471124
21.6727536
28.8520377
37.7783358
38.5181825
37.713256
38.3490364
37.8523307
21.6068614
21.4939598
25.6640742
29.2370391
38.2697404
37.6580058
38.1772187
37.3405613
20.1885298
19.964887
29.2638317
37.9164214
37.5607948
21.308898
21.2732058
23.9412743
29.4226478
38.2126653
37.6124618
21.0027584
21.0185518
23.6920502
28.9356923
38.3014847
38.1171449
38.2326975
37.524346
38.1322979
36.9374061
20.5291373
20.3869001
29.0698805
37.8168189
38.1657151
37.3483025
24.0586494
24.0233714
27.7536694
29.2843443
38.2437352
37.4620001
26.6008408
29.5159025
38.2397954
37.4583066
38.1443895
37.031665
19.7265417
19.6266698
23.825397
24.21516
25.8095026
26.7557534
27.821358
29.9333237
38.1461283
38.3202651
37.728743
26.063821
26.0743176
28.9784756
26.6884905
28.9732427
38.3849311
37.8135094
38.3551856
37.2403555
22.3804163
25.2095842
38.2774193
37.3642718
21.3705617
21.3098991
23.8776596
29.0736935
38.1461752
38.2599173
37.603819
23.0123099
22.9680254
26.631922
29.1856439
38.2399375
37.6684745
38.1679656
37.151914
22.643174
22.5348846
29.1164474
37.929877
37.5535694
23.8662897
28.1842376
38.1769644
37.5637663
21.1573484
21.1716284
23.9307684
29.0126033
38.3878926
38.5701077
37.9657158
38.4504953
37.5348708
22.8164672
22.750455
27.049745
26.5885015
28.9441298
38.1353507
38.5033702
37.9779206
38.3802611
37.7010303
38.1692237
37.4771563
19.2752909
19.1906567
24.0383087
24.9484336
24.6849593
29.4693469
37.9187819
37.8991025
20.5961117
23.8610002
37.8726837
38.0220902
37.4910787
37.9447755
37.2385481
19.7609922
20.8537946
37.9337267
37.3511684
19.2351505
19.0570399
24.4678097
25.2351386
26.5908924
30.0366186
37.9406241
37.7211214
37.7574252
37.7608061
18.1952802
18.0432512
21.4209449
26.0048971
37.7406688
37.9684923
37.4534076
37.9289403
37.2512697
37.8620992
37.343705
17.6809526
17.4777256
24.7545552
23.3261357
29.0255524
38.0199556
38.2300374
22.8821071
22.845641
29.1270117
38.1082266
38.327318
38.0542549
38.1796687
37.9931888
18.8912852
18.8087713
22.9191854
26.0299169
35.6118394
38.0323906
37.3805999
38.1964983
29.4077645
28.961092
38.3183277
38.4892103
23.6793401
28.9437989
38.321021
22.4449041
21.6505576
24.7087951
24.7243121
26.7036412
26.3321152
29.5892235
38.3392199
38.2702879
38.3365305
38.1829049
22.9900347
23.387991
38.3010922
38.1395658
24.0574477
26.2651616
38.2213662
38.1720826
23.5420033
29.2208861
38.1961997
38.275678
38.0408229
20.3760395
20.3026682
25.4470955
24.0863644
28.8888385
38.1979153
38.2659773
24.0982244
24.0169592
27.1166724
28.9306782
38.2097801
38.3614874
38.0478701
38.2411274
37.8527801
20.8168329
20.7162972
25.8517168
25.3811694
29.0616459
37.9249853
38.2497809
25.0291963
29.2259131
38.1121184
38.2047047
38.0776003
22.3286261
22.3076682
25.0243728
29.078563
38.1232533
38.1520732
38.0947109
38.0325745
18.5668083
18.4899135
24.6896757
22.8963607
29.0148822
38.1183884
38.2591685
38.2445394
22.0572614
22.0409699
25.1640686
28.9158881
38.2233434
38.4656503
38.1450511
38.5050173
21.8789562
27.5514998
38.1411386
38.2240548
38.1323941
20.9680529
19.3414325
29.121559
38.0305117
38.0816907
37.9807685
38.0667732
37.8933326
38.0956493
16.8299431
16.7554214
23.9134219
25.0542012
26.1780249
29.102191
38.1665812
38.4688564
24.1829202
24.2001679
26.541132
29.0218676
38.2567076
38.4624931
38.2249085
38.5573078
21.4015687
21.2855764
25.6311152
29.1434135
38.1521751
38.341405
38.3256498
38.2727349
38.5125477
20.4125115
20.2248322
24.9375944
28.7607843
38.2614351
38.5968307
25.3703903
27.0024261
38.4038958
38.4606301
24.4763902
24.4859615
27.4811855
28.9792327
38.3933296
38.5670228
27.1356687
29.2752352
38.5101621
38.3589928
38.4200471
38.4129473
23.5255235
23.6840568
38.3893297
38.1507508
21.1043246
21.0194999
25.7978573
25.0032573
28.7749714
38.08267
38.6906762
25.9184714
27.3806609
38.3056067
38.5830578
24.8275038
25.852292
38.4042553
38.51612
23.1312326
23.1374299
25.2706923
29.0090668
38.4393647
38.7022156
23.4254735
29.0194643
38.6279196
24.40122
23.5788041
23.8270194
27.6820553
38.2057862
38.3708831
38.3728086
38.2929209
38.5039281
22.7169288
22.5153599
25.3305085
29.0926133
38.4111872
38.76518
24.0762381
24.2054219
25.3413657
29.0330008
38.5773313
38.6908565
25.0772234
24.3664421
28.5574263
38.2566991
39.0644719
25.1811156
27.8578901
38.3056477
38.8719179
38.3021191
38.973171
21.8292641
25.914014
38.6060696
38.3488955
38.7441663
23.0435108
24.9314663
38.5647049
38.2668149
38.7186543
23.4108416
22.8225352
24.5041443
28.7394027
38.2194368
38.7376517
38.2651199
38.859491
23.4489351
22.9103471
24.3312805
26.1374349
38.2584234
38.7355367
25.6889124
25.5563127
26.0870963
27.8813111
38.2957398
38.7612864
27.0612739
26.866267
26.8408741
29.0321327
38.2346102
38.7241376
26.7580499
26.7922595
24.7448249
29.2645693
38.3476982
38.4111747
38.4570416
26.3509856
23.5843034
38.2232474
38.4038536
24.8518738
24.1133094
38.1769144
38.3887173
38.3895538
38.4374574
28.9753064
22.9129801
25.9032432
38.1766442
38.5261576
24.4114884
21.0046393
22.3742712
38.1722765
38.3440333
38.2529575
38.3448175
27.1416346
25.5236587
24.3585722
24.3960604
37.815441
38.2461011
24.1707139
20.1729196
20.3395865
20.3571915
37.6117876
37.9775081
37.9192484
38.0987539
25.4293842
21.0782194
21.5046595
21.8540855
37.9087504
37.9896442
38.1544492
28.336413
25.083336
37.9755058
38.285172
38.1978158
38.4043291
38.4326784
38.4433504
28.8946463
22.8346264
24.174665
23.6248082
22.0541331
22.1415979
37.7937936
37.9934952
37.8690624
38.1566578
23.177198
21.320848
37.9799484
38.1318574
38.0096837
28.4400493
23.5432514
38.4708846
38.0042545
28.8735381
24.4244043
25.4793689
21.6202174
21.6433142
38.3026101
38.0864591
29.7032273
21.5195789
21.9337559
38.3588433
38.2704581
38.2673899
38.3323108
38.2089862
29.237768
25.4945383
22.962737
22.9073719
38.4914704
38.1819378
26.8474418
21.7269788
18.0097139
18.3828959
38.3113743
38.1071321
37.999153
38.2376099
37.7723007
29.0717095
26.714215
24.3629558
24.6694976
38.7628418
38.0511847
28.9508891
23.2134538
24.334517
38.6781664
37.9846054
28.8535296
21.4660522
23.2916011
38.3531087
38.0569474
24.4925571
24.960078
38.7994538
38.3125745
38.6162649
38.1400146
28.9234654
25.1786568
23.1649768
24.1846898
38.6084812
37.8770037
27.2104928
23.3561791
20.5719363
23.4315974
38.4436463
38.0585194
38.218223
27.8937539
26.9913357
38.6711644
38.392272
38.417357
38.4870387
37.9347987
28.8069959
24.1177514
24.8575433
23.2050227
22.4551045
22.9234603
20.1078315
24.9729531
38.3226986
38.3686361
37.9272488
38.1620068
37.5992441
25.2062034
21.642703
23.5178101
22.6213138
22.1853133
29.0356272
38.5276767
38.5019856
38.4146483
38.0503836
38.0953326
37.5230281
24.6283317
21.5154767
23.4085917
18.5408882
25.1588827
38.0575769
38.055423
37.9512049
37.6981199
37.8184696
37.3980156
37.773355
37.3753113
25.7780937
16.632389
25.3140233
38.1377189
37.9635878
23.1816567
20.5890519
23.0285507
19.8376127
23.0975937
33.4930085
38.1874324
37.3873891
38.0575873
37.5317239
27.6250043
23.3822424
24.633511
23.2158726
21.027611
26.0825352
38.2221642
37.8773995
38.1337473
37.7069641
25.5307008
27.9496476
38.3854221
38.4285822
38.2351819
38.403234
38.0349355
25.10909
21.7097766
24.0643861
23.120985
23.6910365
24.7448876
23.4947
27.427818
38.7281331
38.7572565
38.4415556
38.7066498
38.2279824
27.5228306
24.5896804
27.5603746
24.4386159
28.7251753
38.8015978
38.7778337
38.7925572
38.587828
26.4926728
25.0302393
27.4325705
25.4615466
28.6711645
38.631928
38.5877873
26.9025249
28.9805957
38.7599804
38.6411294
38.6193144
27.3406335
24.6696478
26.0064197
26.9252176
25.5602375
28.7655692
38.5924451
38.7777305
38.423516
38.8600263
24.9977754
22.9357753
38.7715255
38.6093298
24.5600817
23.3119725
22.718491
26.9838174
38.2583696
38.2065189
38.1915777
38.3820481
38.3939914
38.3892107
26.3634377
20.3095009
25.4810426
22.9968843
29.334257
37.9100503
38.4541179
38.2126304
38.4317876
27.206872
20.2171516
25.3074483
22.6651989
29.2840135
38.0234352
38.4307818
38.3615748
28.4929639
24.5838548
38.1199824
38.1856242
27.2116624
19.7787346
25.7005188
37.9196227
38.7581988
26.6005226
22.2760429
23.8216901
28.7102351
38.1711653
38.7721742
38.5671602
38.6404337
29.0691747
25.0903771
26.3393294
26.1577989
28.6695551
37.9644443
38.9262805
27.8322387
23.3218461
28.8691012
37.8469843
38.7983602
28.2944111
24.5758253
29.6520405
37.8023428
38.6250109
29.6799857
28.3807659
37.4416704
38.5422403
25.2001199
22.7048823
26.5852265
26.3144382
28.5952453
37.9765785
39.3605795
25.8340412
26.6475519
38.2543173
34.9012864
22.9013848
28.5684412
38.3589292
28.5511678
21.5427969
28.5510787
38.2193136
28.2789689
18.2323894
23.7777358
34.2590759
38.3400179
37.8371116
38.3564699
26.9498169
21.0129342
24.5188266
27.2857578
32.8607101
38.1921507
37.6821902
38.6064228
37.8158048
29.7118748
24.1565022
28.8068648
38.5018964
38.1543391
29.6957597
20.1390998
20.5467628
26.1934301
26.1425919
29.4552901
37.9406455
37.8612077
21.9017378
21.8132344
29.4404053
29.4872204
38.0188989
37.7425855
22.588361
22.5209677
29.8929582
37.7213374
37.4848239
26.2364774
30.2952929
38.1620393
37.325717
25.3540863
29.3783399
38.0870558
36.6063707
21.2027458
29.4480237
37.4063778
29.452907
29.3457361
38.3729381
38.0829507
38.6596825
37.8793703
39.1172408
37.4625432
28.4107123
19.2423639
22.648567
25.1466566
25.448321
29.2549898
38.171017
37.4326188
20.8567052
20.674454
29.4438159
30.9495042
38.0926402
38.3892343
37.805304
29.1509321
20.55007
21.2132508
25.2357315
25.4014233
27.5012826
27.7860059
29.4555954
38.1038483
37.3989804
20.8289861
20.8353215
25.6094382
29.3880763
37.2664934
38.0735695
37.1104004
38.0839629
37.645373
38.2274316
37.8444013
38.5637641
37.6826771
38.995437
37.344535
28.5803789
16.4089447
19.9752492
21.6095095
22.0774408
24.1396844
25.748558
26.1490274
29.6043339
38.1768132
37.4233974
38.1471957
37.0968162
23.2530191
25.6720634
38.1691189
37.3337243
20.7520565
20.6770133
26.2536596
29.1946752
38.0518337
38.1958934
37.6987405
38.1086555
37.6026561
21.0972675
21.032138
27.2029004
29.162125
38.3680376
38.7312381
38.1519944
28.5465427
23.0456342
25.7376947
25.3060968
29.0492807
38.1072087
37.9678704
22.2093325
22.0952909
29.1009348
37.686893
38.2034777
37.8245607
23.3231584
23.2765864
38.2091775
37.8509257
21.4087639
21.3787363
24.6577828
29.1414314
38.2363383
38.1438337
38.1920852
38.1656863
23.5994102
23.5793473
24.6629071
28.1424448
38.4371431
38.4882248
23.4585979
24.1977475
24.925142
28.8057387
38.5019811
38.5888521
38.5316971
38.4970903
38.4946168
23.7232389
23.6810444
24.0287252
26.8592671
38.4619754
38.3933724
23.3348223
22.5394284
25.2518218
38.7298411
38.408923
38.7373869
38.4456602
28.6971703
23.5075217
24.7492068
25.1547392
23.1369307
26.8433693