/*--------------------------------*- C++ -*----------------------------------*\
| =========                 |                                                 |
| \\      /  F ield         | OpenFOAM: The Open Source CFD Toolbox           |
|  \\    /   O peration     | Version:  2306                                  |
|   \\  /    A nd           | Website:  www.openfoam.com                      |
|    \\/     M anipulation  |                                                 |
\*---------------------------------------------------------------------------*/
FoamFile
{
    version     2.0;
    format      ascii;
    arch        "LSB;label=32;scalar=64";
    class       volScalarField;
    location    "0.00018";
    object      prefDh_H2O;
}
// * * * * * * * * * * * * * * * * * * * * * * * * * * * * * * * * * * * * * //

dimensions      [1 1 -3 0 0 0 0];

internalField   nonuniform List<scalar> 
3810
(
88.1301562
92.3148865
92.4357377
87.9406588
88.0840144
92.3140148
92.4564403
87.9247045
88.0985162
92.3523978
92.4319102
87.7991172
88.252305
92.504526
92.3313688
92.5961671
87.6160196
87.597626
87.7351204
88.1434335
92.3770115
92.315346
92.5065316
92.3883917
92.5997177
87.5984869
87.5996606
87.865813
88.1174902
92.3558259
92.4419129
87.977325
88.1171973
92.3333212
92.4103167
87.9537055
88.2838026
92.3796163
92.279265
92.4528435
92.3520536
92.5347844
92.4181348
92.6105145
87.4561593
87.4583357
87.7752541
87.6769403
88.118968
92.3959897
92.4655295
87.8530219
87.8537723
87.9813233
88.2132142
92.3046537
92.4199082
87.9900107
88.001323
88.0800262
88.374201
92.2750166
92.3547875
87.973511
87.9990004
88.3034363
92.3008818
92.3666633
88.0191612
88.1829102
92.2895843
92.384117
87.8911845
87.9204224
88.2037399
92.3261108
92.3840253
87.978784
88.1134546
92.2971938
92.4154116
87.9255346
88.1390706
92.3119917
92.3314343
92.3389897
92.4170361
92.3699227
92.5118853
87.6151338
87.5774817
87.8105324
87.68606
88.0430429
92.3759373
92.4320154
87.8759522
88.0154444
92.3310619
92.4077128
87.8483457
87.8408363
88.0483726
92.341116
92.3956166
87.9249789
87.7745396
88.1837006
92.3958424
92.2778856
92.4986174
87.9190235
87.9986328
92.3828627
92.3294582
92.4836605
87.8584649
87.5327516
87.9824374
92.4252929
92.3874756
92.4168277
92.5001379
87.6331184
87.5123368
87.8087375
92.4115413
92.5483912
87.7389871
87.8022529
87.7168918
88.0089923
92.3920041
92.3316074
92.4521966
87.9353838
87.8270763
92.3358478
92.5233279
87.8677183
87.8942951
92.3419886
92.5329008
87.86351
87.8750014
87.7728121
88.0325289
92.3978412
92.327903
92.4270402
92.3464016
92.4717661
92.3613612
92.5796019
87.7419287
87.5638571
87.6291231
87.7891863
92.4041241
92.4645876
92.4100323
92.5948952
87.6830064
87.5462886
87.8671265
92.3862945
92.5370687
87.8599003
87.7737299
88.0018385
87.8124255
88.2074702
92.3775362
92.365524
92.3657426
92.5938751
87.8996637
88.1502693
92.4080717
92.3000316
92.5284463
87.9174699
87.7923393
87.8267038
88.0388303
92.3597916
92.3779211
92.3762654
92.4720438
92.3905614
92.6067547
87.6621238
87.5626469
87.7791991
87.6700992
87.8860725
87.7465569
88.1827042
92.3790773
92.3737224
92.3706325
92.5327771
87.8053914
87.6825975
88.035609
92.394243
92.5436315
87.85348
87.8582964
87.8316069
88.1425934
92.360087
92.3445736
92.3680624
92.4411333
92.3790427
92.5373726
87.7370987
87.6731067
87.7252854
87.9697652
92.3710359
92.4476471
92.3729839
92.5532978
87.7654638
87.6295597
87.8884846
87.6809488
88.0778094
92.3863427
92.307344
92.4769333
92.3389785
92.548728
87.8513603
88.0186645
92.4120047
92.350818
92.4725516
87.8318353
87.7104949
87.8823265
88.0059156
92.3199606
92.4096382
87.9627069
87.8510406
88.1638316
92.3479697
92.3445209
88.0143912
88.1092509
92.2948271
92.3694566
87.9500684
87.8408329
88.1145053
92.3400107
92.3321848
87.9562525
88.0478045
92.294234
92.3719768
87.9054722
87.7753496
88.0487513
92.3471898
92.2967896
87.8325241
88.0649365
92.3719327
92.2916297
92.3858232
87.8424859
87.8973366
92.3480398
92.3408204
92.3731909
87.7791869
87.7014269
87.7291742
87.9867351
92.3601477
92.3083065
92.3524929
87.920103
87.786604
92.3218476
92.3350061
87.8646457
87.8300646
92.3220323
92.3277077
87.9035068
87.9170591
87.9136663
88.1032987
92.324471
92.23287
87.877111
88.2468371
92.3213316
92.26209
92.3243739
87.9646243
87.8989478
92.3608967
92.3470699
92.414516
92.3700723
92.4494376
87.728101
87.5069325
87.7595493
87.8273968
87.8516359
88.0144184
92.3114575
92.3272937
88.0314043
87.9596425
88.0147116
87.9991512
92.234829
92.3971339
88.1670232
92.3497213
92.3036647
87.8801171
87.8205397
88.0367141
87.8794302
88.3564774
92.3316662
92.2269474
92.3560893
92.3348486
87.9308656
87.9354298
92.4041084
92.2872366
92.5070994
87.9334135
87.5267678
87.9294674
92.3891908
92.3830865
87.8824014
87.9416168
92.3804593
92.3937515
87.8262239
87.9406779
92.4309876
92.3207561
92.4886555
87.9071425
87.5690501
87.8683071
87.9575801
87.9556689
88.2240399
92.279044
92.3312818
88.1547812
87.8241165
88.7532898
92.4357654
92.2188137
92.4441682
92.2857908
92.4084295
87.8540431
87.797141
92.494442
92.3727756
92.5217142
87.8184153
87.4868919
87.9325426
87.7597575
88.4998293
92.469476
92.2507578
92.4266244
92.3200061
87.8505076
87.689609
87.86899
88.0829305
92.3884558
92.3356733
88.0159811
87.7936439
88.6823093
92.5419905
92.2530767
92.50563
92.3321542
92.4321662
87.6890288
87.4077798
88.075308
92.5649119
92.2481695
87.8386195
87.9971132
92.5278137
92.3423386
92.4824398
87.8121776
87.5572206
88.8386639
92.5548756
92.3160198
92.5392625
92.4230895
92.5447529
91.2980843
87.2278941
87.1916611
87.6743423
87.6746541
87.9364969
88.0385642
88.0524973
89.3875743
92.4991005
92.3110758
92.6218042
92.4336898
92.651348
87.3787713
87.3314345
87.9588745
88.5839369
92.4313296
92.2899906
92.5585522
92.3834033
92.6320167
87.6236767
87.5564308
89.2139539
92.4401015
92.3801921
87.988323
88.6629056
92.4342494
92.543039
92.4949287
92.7507454
87.384801
87.3824377
87.9093953
87.9557651
88.1597286
88.1758127
89.7621871
92.356516
92.6044217
87.8395123
87.8104446
91.2964286
92.4371845
92.6921744
92.4438209
92.8803173
87.8174071
88.2189751
92.591941
92.4197746
92.8484301
87.5183504
87.5158287
88.0677757
88.7440273
92.3351174
92.6643128
87.9362598
88.2148459
92.3876749
92.7122479
87.6519546
87.688465
88.2069017
91.2537981
92.3483711
92.3969701
92.4749615
92.2981173
92.6289093
89.0488861
87.4113103
87.586463
87.875545
87.9066733
88.2007456
92.0666273
92.3505051
92.5267809
92.4547595
92.4254724
92.5609267
89.9432665
87.5905584
87.6975822
88.017352
88.8713242
92.4151799
92.7302462
87.6351068
87.6622691
88.9778682
92.5202386
92.8319912
87.5638848
87.5735438
88.0235008
88.093543
88.1767062
90.2152289
92.352988
92.6413577
92.3944321
93.0961381
87.8402591
88.0990103
92.4184944
92.9661974
87.6951233
87.7243947
88.1478161
89.438306
92.3417238
92.3113685
92.6716942
92.3908292
93.1182321
87.7649417
88.1944185
92.5281604
92.3842717
93.0945111
87.7719217
88.0000636
92.4876512
92.4666683
93.1106381
87.335247
87.3629897
87.8479583
87.8162485
89.0313974
92.4213301
92.8102267
87.8502372
88.3809476
92.3876491
92.2893337
92.9676823
87.9267586
88.0632315
92.3713049
92.9028655
87.750947
87.7773101
88.0588897
89.2997591
92.3127342
92.278709
92.5793956
92.3559114
92.9797431
87.8049859
88.2544423
92.507847
92.3655354
92.9597028
87.6044439
87.6178337
87.9022578
88.5065611
92.3821096
92.7469548
87.7247613
87.7661979
88.6503682
92.404933
92.6950316
87.9025317
88.2972824
92.3700529
92.6859358
87.8705125
88.4478802
92.3937033
92.258488
92.8071078
87.9681021
88.0930231
92.3595151
92.7180769
87.630275
87.6670253
88.2722148
92.4267558
92.6800051
87.8083138
87.8108003
87.9751038
88.3616714
92.3389953
92.5911217
87.8946048
87.8975241
88.0385113
88.667643
92.3130016
92.4886759
87.9400101
88.375963
92.3685402
92.2815437
92.5651628
87.6764055
87.5854603
88.2667303
92.4169816
92.4952273
87.755787
88.0422855
92.3522228
92.5380863
87.8344465
87.8412899
88.0105679
88.9317558
92.2997873
92.3065586
92.3211004
92.4562524
87.9258696
88.2119336
92.3766084
92.2875144
92.4722121
92.3619326
92.5594074
87.5741359
87.5833262
87.9681155
87.8662038
88.9059186
92.3371601
92.3238248
87.8935393
87.90796
88.47607
92.321871
92.3119205
87.9677153
88.1122536
92.3033875
92.3635059
87.930212
87.9995706
92.3085322
92.4056264
87.8808654
87.8899301
87.9673304
88.6074347
92.3223945
92.2311596
92.4184238
87.8653542
87.670486
88.2165418
92.4011499
92.237159
87.6190162
88.1866605
92.4648421
87.8294196
87.6136921
87.9894088
87.8310654
88.6427458
92.3057046
92.1907155
92.3080311
92.2414858
87.9812448
88.2080052
92.3162445
92.2802435
92.3592709
92.3591618
92.3903967
92.4160016
87.636686
87.6130582
87.8657153
87.8377436
88.0766178
87.9300804
89.1593942
92.3459038
92.2635404
92.3834221
92.36792
87.6318542
87.5265146
87.944727
92.3960198
92.3313004
87.7751875
87.8575596
87.9109181
88.15381
92.3170927
92.2965277
87.9401657
87.8729254
88.7795553
92.3616576
92.2367974
92.3821783
92.3082506
87.7685411
87.7177839
92.3786655
92.3556499
87.8160756
87.8543703
87.8855206
88.2491913
92.3802198
92.2926821
92.3943625
92.3644258
87.6738487
87.5867101
87.9635067
92.418261
92.2895827
87.7422307
87.8801534
92.3696011
92.3073074
87.8478846
87.8994416
87.9112697
88.2374182
92.3356463
92.2696937
92.3326094
92.3391855
87.8224363
87.5788991
88.231272
92.3799855
92.2186069
92.3180721
88.0420641
87.9739083
92.3054291
92.2436702
92.325763
88.0527303
87.8139617
88.0795975
87.8578351
88.1204603
92.3393585
92.1960888
87.8574286
87.9800081
92.3396702
92.2376343
87.7322484
88.0613329
92.3769066
92.2820482
92.3913763
87.812706
87.7905553
87.8164892
88.2060204
92.3228378
92.2040349
92.3244122
88.0994444
88.1629211
92.2750981
92.201751
92.3406946
88.1013019
87.873392
88.1286189
87.9095736
88.2108002
92.3029555
92.3093338
87.8615811
87.855887
88.1242804
92.3116012
92.4345505
87.8965524
87.9265122
87.9277152
88.1320646
92.290355
92.4601619
87.8951664
88.06594
92.2583165
92.3482616
92.249891
92.4610069
87.9987091
87.8944817
88.1645905
87.9735529
89.017442
92.2697265
92.1849485
92.5273893
88.0638502
88.1387387
92.2364825
92.4638109
87.9814056
87.8955495
88.5082455
92.3245305
92.5309822
87.9750152
88.1905754
92.2993775
92.4801008
87.8528751
87.823834
88.2807444
92.350899
92.6000928
87.8981594
88.1645119
92.3405814
92.6457783
87.8017756
88.1797964
92.4452141
92.3158433
92.6403981
87.682587
87.6125493
87.8653323
87.810223
87.9893724
88.0061701
90.135136
92.3120391
92.6002516
88.0665389
88.276451
92.3441818
92.3013953
92.6265634
87.7227241
87.487495
88.147925
92.2999322
92.2810522
92.4832989
92.3298181
92.6863222
87.8161291
87.638613
87.8738383
87.6731527
88.1585789
92.4373214
92.4930577
92.4083484
92.7929366
87.8801434
88.0073228
92.3503635
92.7155673
87.8751362
88.055291
92.3364765
92.6931341
87.8338672
88.0449679
92.3563952
92.5711196
87.6894304
87.6148336
88.1874883
92.4007984
92.5798376
87.8640936
88.0716165
92.3321467
92.5282054
87.8183232
87.6692151
88.3246084
92.3579549
92.2621259
92.5355753
92.3381671
92.7293248
87.7262635
88.0187674
92.5542057
92.385923
92.7526016
87.7490402
87.7853926
92.4734566
92.6708208
87.4855364
87.4539762
87.4575125
87.909407
92.4902369
92.397139
92.6392907
92.4131564
92.7746395
87.8006831
87.8478509
92.3975597
92.6121007
87.7880111
87.8031885
87.9400258
88.1614305
92.3278366
92.486102
88.0155271
88.1011491
92.3102798
92.5022251
87.9015425
88.0203532
92.3339355
92.5121169
87.8127425
87.8253313
87.8802439
88.1598795
92.3366825
92.3985406
87.8905974
88.2167643
92.4181472
92.2972607
92.5117898
87.8628213
87.9417938
92.4479488
92.3722868
92.5481197
87.623829
87.4556579
87.802572
87.5878395
88.0172626
92.4234488
92.339189
92.4803453
92.3732178
92.5272631
92.4005425
92.5486512
87.6648478
87.527576
87.7719032
87.9021623
92.3462055
92.3920669
87.9456528
87.9791944
87.9682246
88.2547769
92.2949749
92.2505219
92.3209606
92.3023197
87.8355804
87.7662873
92.3386457
92.3450934
87.8539431
87.8453064
87.8478214
88.1692804
92.374206
92.2308777
92.3906554
92.2577265
87.7491814
87.9079664
92.4329795
88.0858784
87.5239938
88.0293802
92.3983369
92.2629471
87.9766559
87.9464692
87.8594807
88.9097294
92.3570196
92.166199
92.3454167
88.2161448
87.9068956
92.2383933
92.2871575
88.0172789
87.9858687
92.277338
92.2561648
88.0273922
88.1366364
92.3342775
92.1596025
92.3976639
88.5077224
87.7490371
87.8984679
87.7941086
87.8760707
87.718692
87.8459967
92.5363857
92.3702787
92.7191121
92.3805607
92.997141
87.763199
87.8241991
92.5342778
92.3665376
92.5657767
88.0078604
87.473813
87.6087888
87.6671655
92.4677669
92.4111838
92.3861826
92.3780411
90.0116803
87.9135247
87.9756708
92.3896732
92.2811347
88.0515189
87.8679696
92.458377
92.3173327
88.0576163
87.8122331
87.9905089
88.1265561
92.3789501
92.225886
88.2918991
88.0832798
92.4992453
92.2511194
88.2000805
88.0193701
92.5681633
92.2787018
88.1629288
87.983214
92.6191697
92.3030447
88.1189602
87.9374473
92.6752199
92.3352701
88.0146466
87.8421992
92.7392662
92.4126414
87.8267645
87.5707079
87.9268818
87.9354639
88.8119749
92.4761119
92.2265638
88.1063105
87.9889985
92.6585571
92.4131117
87.792423
87.4779463
88.080136
92.6248958
92.3568235
92.4457571
92.4224589
92.3117462
92.4268376
88.3319719
87.6515707
87.7336798
88.3479102
92.5056244
92.3824285
87.5524245
87.4757932
87.8015679
87.9812328
92.6691541
92.4759709
92.5631703
92.4543858
88.035565
88.3505792
92.3752013
92.2579016
92.4271607
90.338434
87.6323788
87.6226858
89.2165364
92.4169189
92.4598475
87.8426196
88.1083127
92.410648
92.6065174
87.6809018
87.6953524
88.234688
89.2734266
92.2311439
92.4828958
88.1167667
88.9751425
92.2384684
92.1358906
92.4866345
88.6773253
87.5591234
87.7525112
88.0164299
88.0587383
88.2424869
89.9106821
92.3363728
92.6398115
87.7020802
87.7112556
89.8731295
92.4621971
92.7352649
87.7345369
87.7445669
88.3203477
89.5876797
92.2671232
92.6942552
88.1127614
88.4973597
92.4737886
92.3654823
93.0745799
87.6565494
87.7378851
92.5616952
92.4490491
92.6053726
92.4364807
92.6115373
92.4308716
92.7320076
92.4320509
93.0013452
87.4921711
87.2297379
87.6341527
87.7149477
87.8288717
87.9921342
87.9915337
88.4186609
92.7972506
92.3640706
92.6721114
92.5034318
90.7029841
87.656985
87.7050411
88.2843614
90.6720932
92.387337
92.4582173
92.5431273
90.7475994
87.5642915
87.6604362
91.0013263
92.4260032
92.3159556
92.7087483
89.26767
87.4935221
87.5887378
88.0101496
88.0859644
91.8123762
92.4577354
92.4897419
92.6257029
90.1993148
87.4766966
87.5198731
89.238561
92.5663825
92.6439129
87.5125054
87.5364075
88.0480011
88.0896596
89.8842688
92.423301
93.0199527
87.7573133
87.7890308
88.5153231
91.7038174
92.376207
92.4946279
92.4256355
92.592362
90.1002814
87.6662288
87.77732
91.1337474
92.429763
92.3732653
92.6443823
89.7960584
87.577486
87.6434018
89.3693498
92.4653528
92.9839193
87.8909444
88.3315659
92.4186196
92.3336573
93.0932559
87.9471879
88.1859658
92.3987605
93.019418
87.8531591
88.4084671
92.5541449
92.4128998
93.1288876
87.4708595
87.482372
88.0442788
88.9190379
92.4158192
92.8505798
87.6365627
87.6627238
89.2673598
92.4727839
92.8272432
87.7143978
87.7450927
89.2796342
92.4748695
92.3240728
92.8602265
87.6275761
87.65303
89.1426908
92.4284915
92.7318331
87.9419303
88.2655183
92.3397293
92.75819
87.9449291
88.2117966
92.3176032
92.7413438
87.922448
88.1720278
92.3138118
92.6996721
87.8977743
88.1538828
92.3215179
92.6165404
87.869212
88.3086207
92.3916297
92.5155176
92.4458082
92.7095165
87.396589
87.4168718
87.8727965
87.8219315
88.7125143
92.3806464
92.2745732
87.8874152
88.3708219
92.4230339
92.2717352
92.4325947
87.7993431
87.7399952
87.9949381
88.219671
92.3399677
92.2259179
88.0906084
88.0931019
92.4121193
92.2878368
88.0044447
87.8537547
88.1626083
92.5277442
92.1754267
88.2583122
88.0635731
92.8626464
92.2113056
88.2910275
88.1549367
92.9903897
92.2136817
92.2575575
88.6413232
87.8446391
87.9801172
87.9278842
87.9537502
92.9548865
92.2513933
89.0175001
88.1986768
92.0306991
92.2889956
92.3041866
89.5708549
88.0357276
87.8101081
87.8042085
91.5305411
92.3947591
92.3916203
90.1096165
88.0728989
87.8722697
87.8479222
90.346096
92.5235434
90.5073807
88.0050128
87.8727883
89.967481
92.520257
92.3560726
92.3857156
92.3129629
90.8769176
88.0079486
87.8966858
87.8821859
87.9340403
87.8911741
87.8921752
90.8169896
92.3397719
90.3979646
88.2197008
90.3046964
92.2996227
91.1663096
88.0758122
87.9369812
89.8597121
92.3690584
90.4786152
88.136852
90.3526384
92.3309473
89.9664217
88.1361273
90.2295334
92.3022863
92.3094583
90.8761845
87.9864724
87.8898432
87.8271849
89.4783537
92.4467099
89.7258856
88.1481749
90.2236118
89.9846862
87.8463696
87.7129552
89.3600459
92.2760225
92.2545772
92.4178369
92.3278582
92.4678157
92.3101027
92.5803036
89.5988724
87.7216786
87.7363265
87.7148396
87.7730398
87.7913849
87.8838859
87.9058409
87.9375104
89.9990939
92.3003623
92.3129525
92.295878
92.5031902
89.6601952
87.8275905
87.7809281
87.6834231
88.7135646
92.2950258
92.2772503
92.4270637
92.3678948
92.5162725
92.3425913
92.6054672
89.7523034
87.789995
88.8172181
92.2872142
92.4053539
89.3257961
87.7909069
87.8312472
87.8887709
87.7962411
88.7197806
92.3687033
92.7303738
88.0058487
88.6412673
92.3502855
92.7039121
87.7580807
87.78187
89.6973694
92.3934614
92.4231023
92.392116
92.7319808
87.8323023
87.8374805
88.0291714
88.0542764
88.0690274
89.8201856
92.2927191
92.5257372
87.9101897
87.8970636
89.2021197
92.3554838
92.669895
87.9582185
87.9702844
88.0814512
88.8591408
92.2652371
92.7039434
88.0870521
88.2883821
92.1943346
92.7907195
89.292526
92.6177408
92.7073524
87.7992413
88.2480668
92.4236037
92.6584253
87.6167109
87.63099
88.6282948
92.4276067
92.7568124
87.8435724
87.8538428
88.0039027
88.8399406
92.3438869
92.624929
87.8140721
87.8306032
88.931438
92.3829384
92.724972
87.9251201
87.9275524
88.0607445
88.8361539
92.3170605
92.6693593
87.9907661
88.3307262
92.3173178
92.230945
92.7113031
88.0152215
88.2144012
92.1942162
92.1502065
92.4472481
88.4183393
87.7969413
87.9570283
87.8211996
89.4198143
92.2048908
92.1626393
92.3228007
92.203351
92.4551995
92.2450663
92.5861376
87.8712109
87.6586111
87.8102502
87.7103172
87.7742553
87.7548954
87.8536312
87.7437867
88.171901
92.3462143
92.3308499
92.3005178
92.4432087
88.1671554
87.8678609
87.8257624
88.1123474
92.4279148
92.3092631
92.50745
87.9995022
88.0202898
92.3713737
92.4022764
92.3904335
92.4749226
92.35418
92.5539847
88.0454211
87.3795204
87.719566
92.3969094
92.4433643
87.9641127
87.7248726
87.9097562
87.8224283
87.980363
87.8217206
88.1629702
92.4116514
92.2656824
92.4106863
88.1879189
87.9832629
92.4963415
92.4144129
92.5217397
92.4558803
92.3813244
92.4746511
88.2467827
87.6096369
87.8257232
87.6098936
87.6786257
91.6675949
92.3243973
92.4322472
88.4335944
87.9036042
87.7827809
87.8109799
92.6396069
92.4551158
92.4448218
92.4658193
88.8652305
87.684555
87.7958902
92.5968544
92.3568467
88.2485758
87.9441308
92.9695107
92.4189022
92.5935748
92.4359243
88.499131
87.791696
87.7536425
87.7319764
92.8542071
92.3922264
88.2954923
87.9100178
92.9401358
92.3606905
88.2296973
87.8797148
92.9821558
92.3754124
88.3184335
87.9058259
87.8469923
88.0617313
92.8108948
92.4049557
92.5652443
92.474815
92.4170229
92.4770472
88.0863302
87.3187598
87.5400102
92.8711973
92.4681987
88.0955498
87.6527493
87.9039861
87.8369749
88.0497201
92.6529091
92.3032571
88.2283815
87.9330639
88.0108418
88.5220138
92.5960549
92.2397961
92.3907452
88.0891674
87.6782062
88.3803
92.5482486
92.3221718
87.9751317
87.7884746
88.4709805
92.5414327
92.2523948
92.5237376
92.3421287
92.6332773
92.4098447
92.6392871
87.5844162
87.5411416
87.8232638
88.2844294
92.3880086
92.4772867
87.6926722
87.7066
88.6761965
92.3949168
92.2520032
92.5805735
92.3410953
92.7844146
87.67168
87.6968925
87.9935252
89.1556138
92.3555747
92.4795836
92.4103255
92.830006
87.5671256
87.5983127
88.5891555
92.4762763
92.8452109
87.666115
87.6708255
87.8741284
88.4130503
92.4148368
92.8663501
87.6271914
87.6410293
87.8371714
89.138742
92.3861534
92.3560007
92.4289944
92.6101702
92.4516472
93.0135542
87.594909
87.6332911
88.983225
92.4011938
92.2799016
92.8519789
87.8775615
87.8984883
88.1677967
89.0328386
92.2874113
92.7343192
88.069619
88.7946616
92.3579776
92.5413827
92.421045
92.9900776
87.5317336
87.5625445
87.8457496
87.8925593
87.9959013
88.0850417
88.1532668
90.4103664
92.2993433
92.269157
92.7064917
88.0129361
88.0434972
88.4802524
88.0746045
89.4702147
92.3338087
92.5283899
92.3769735
93.0074518
87.7263955
87.9872741
92.4063794
92.9135561
87.6575211
87.6760474
87.8593022
88.9029212
92.3899926
92.2845009
92.8382827
87.7872856
87.8058995
88.0714581
89.3615985
92.3234373
92.4455117
92.3657796
92.8311718
87.7591567
87.7938842
88.9812853
92.4118802
92.7552693
87.8660101
88.2095663
92.4076683
92.8301032
87.6396512
87.647834
87.8554691
88.4502473
92.2773087
92.252804
92.4978048
92.3185259
92.8090828
87.7561357
87.7914643
88.0891831
88.0766297
89.5325715
92.28845
92.2456135
92.4179319
92.3331894
92.5966147
92.4103948
92.8435683
87.5062648
87.5210822
87.8856798
87.9537086
87.9458146
88.4108811
92.4324903
92.6769398
87.6212887
87.8602177
92.4565303
92.4371594
92.7348911
92.4689244
92.9779813
87.5444434
87.6784302
92.4718717
92.7502358
87.5067774
87.532641
87.9124908
88.0013546
88.0779374
90.387652
92.3812465
92.5220101
92.4681761
92.7333207
87.4551222
87.4249606
87.7122047
88.0338087
92.4538301
92.3979893
92.627996
92.4592672
92.7475027
92.4971776
92.8065222
87.3874602
87.4105743
87.9294704
87.8455895
89.078797
92.3972663
92.4266636
87.7764375
87.7870141
88.6206812
92.3701232
92.2823006
92.5158992
92.3921559
92.6718929
87.4803351
87.4651372
87.8336461
88.0234955
92.8301674
92.3393857
92.4572634
92.3920659
88.6886605
88.7830461
92.2638329
92.3605071
87.8336815
88.649461
92.484144
87.7320173
87.6770105
87.9170474
87.9188142
88.0778781
88.0415665
90.1598113
92.3107619
92.4228397
92.3440923
92.6244165
87.7744196
87.8085514
92.349512
92.5531862
87.8669811
88.0371407
92.3565975
92.4682318
87.8338462
88.4361907
92.4688334
92.311848
92.5980856
87.5738562
87.5828301
87.9676237
87.880019
88.9141
92.3602248
92.4855686
87.8720692
87.8573607
88.1158525
89.2904583
92.2823964
92.2628569
92.4550125
92.3551216
92.6389149
87.6116796
87.6300893
88.0070337
87.9939185
89.5433069
92.3495524
92.4070553
87.9641688
88.5236467
92.4287137
92.2937828
92.6021977
87.7369811
87.7351109
87.9569085
88.882697
92.3927383
92.4005463
92.4472343
92.6188924
87.4418582
87.4528284
87.9168668
87.7966561
89.0382058
92.4179942
92.2840336
92.5583404
87.709023
87.7055111
87.9595935
88.9697599
92.3546857
92.339152
92.3926848
92.4839228
87.7087179
88.1332702
92.5065105
92.3404433
92.5879475
87.624225
87.5165858
89.1035605
92.4317467
92.3730298
92.4822514
92.5473276
92.5256274
92.6526716
87.328012
87.3127768
87.8794575
87.9543981
88.0543533
88.741121
92.3341
92.3770124
87.8762561
87.8749713
88.0649467
89.4933548
92.3287485
92.3716222
92.3823105
92.5058733
87.6606117
87.6396234
88.0041629
88.5621637
92.357031
92.2701893
92.4646197
92.3663998
92.5291838
87.5817586
87.5564541
87.9473658
88.2310107
92.3235679
92.3158053
87.9695417
88.0906275
92.3143487
92.3928152
87.8885041
87.8975315
88.1339048
88.8644791
92.2432781
92.2652626
88.1031533
88.4459213
92.2821186
92.3585768
92.3177038
92.4867359
87.8139097
87.8398801
92.370789
92.4801666
87.6208048
87.6449233
87.9900955
87.9597033
89.0928247
92.3273163
92.296722
88.0222637
88.1108197
92.3128568
92.3682184
87.9231537
87.9941422
92.3365921
92.4348805
87.7830802
87.7789368
87.960692
88.4430045
92.3113808
92.252089
87.8050151
88.8352226
92.3811358
87.8994585
87.81457
87.8637679
88.1430775
92.4024603
92.281693
92.4688027
92.3365947
92.4754941
87.7573716
87.7432083
87.969955
88.2587173
92.324519
92.2885789
87.8524473
87.85724
87.9574012
88.3907038
92.2985464
92.2508538
87.9140347
87.8840971
88.8931988
92.3411544
92.1646577
87.9560865
88.1367163
92.3680267
92.2580403
92.3827031
92.2785651
87.6819458
87.9935209
92.4252887
92.3174576
92.3714251
87.775038
87.9246594
92.4169585
92.3381624
92.39148
87.8112899
87.7469757
87.9092139
88.2207338
92.3764587
92.2499263
92.36538
92.2969298
87.8127983
87.7456156
87.8911581
88.0066103
92.3531301
92.2485059
87.9890402
87.9590077
88.0292813
88.1460743
92.3166537
92.2049814
88.0992179
88.0644218
88.0921895
88.2747004
92.3261187
92.1956174
88.0763943
88.0657272
87.9236233
88.3150175
92.4055728
92.2289307
92.3607767
88.035327
87.8180473
92.4624044
92.3347801
87.9197308
87.8642432
92.4743938
92.3286529
92.2965896
92.2982587
88.2328385
87.788129
87.9909002
92.4648504
92.3137329
87.8793578
87.6170504
87.7252965
92.4962489
92.3430432
92.367777
92.3227694
88.1009933
87.9934936
87.9003975
87.9070326
92.523931
92.425774
87.8727256
87.5828487
87.5927668
87.5984037
92.6524989
92.453322
92.4610468
92.4382633
87.9689395
87.6493163
87.6701504
87.712174
92.5474157
92.344338
92.4028024
88.2141338
87.9510927
92.5289452
92.333601
92.3892253
92.3440163
92.2810826
92.3571284
88.2304581
87.7753392
87.8680049
87.8466388
87.7222394
87.7372979
92.5690337
92.4430013
92.4722182
92.4351677
87.8098404
87.65774
92.6457719
92.3320102
92.4849387
88.209089
87.849073
92.3673615
92.3725875
89.2895831
87.9109191
87.9707731
87.6863278
87.6773812
92.4629486
92.4138167
90.2734732
87.6724214
87.6970266
92.5032765
92.3345614
92.4263581
92.2555475
92.324956
88.49646
87.9874524
87.7790495
87.7768789
92.4331194
92.4049968
88.0944812
87.7009037
87.404179
87.4323587
92.5890694
92.4153542
92.5343266
92.3033364
92.4162586
89.5345496
88.0972188
87.8844839
87.9221781
92.3006012
92.3976777
88.8096501
87.8039951
87.8838134
92.2874156
92.4396346
88.7851384
87.6791356
87.7846521
92.3916197
92.4637351
87.8973668
87.9253053
92.3771725
92.3332507
92.3214759
92.3749964
89.1203229
87.956675
87.7852433
87.8688077
92.3144134
92.4823056
88.1178371
87.836282
87.5893342
87.8175779
92.4738925
92.3343428
92.5247543
88.1801716
88.0905214
92.3265797
92.2663999
92.4038366
92.2172829
92.4950512
88.9908298
87.8842486
87.9196396
87.8030891
87.7412545
87.7716602
87.5621379
87.9134015
92.4438907
92.3314265
92.5332744
92.3251555
92.6518685
87.96592
87.7002368
87.8179814
87.7447795
87.7006546
89.7069159
92.3187094
92.282597
92.3373927
92.4220674
92.3481647
92.6235374
87.9343642
87.7224368
87.8246191
87.4834184
87.9404308
92.5182035
92.4308104
92.5417666
92.5031587
92.4880161
92.581935
92.3995899
92.728959
88.0218017
87.3296189
87.9530601
92.45817
92.5744075
87.8162563
87.6278461
87.7940471
87.5785771
87.780215
92.0881571
92.344613
92.5609703
92.3088525
92.59879
88.1707063
87.8518023
87.9279732
87.8176589
87.6425066
88.0263338
92.4215763
92.4513384
92.387731
92.6144717
87.9908946
88.1755096
92.3653825
92.2618314
92.4608726
92.2742965
92.5690259
87.9403656
87.6955209
87.8511815
87.7900637
87.8209545
87.9030871
87.8052069
88.1010939
92.2892267
92.2113233
92.3580761
92.2022564
92.4325762
88.1120251
87.9100947
88.1062352
87.8850315
88.2231844
92.2698728
92.2202527
92.250591
92.3203797
88.028714
87.9278906
88.1003474
87.9614181
88.6738259
92.2416146
92.2348913
88.0726369
88.3741458
92.282379
92.1840801
92.3355758
88.1071656
87.9010609
88.006839
88.0783733
87.9803575
88.2190995
92.3096416
92.235407
92.3277113
92.2903484
87.9297309
87.7434177
92.3559825
92.3438823
87.898051
87.7998675
87.7710686
88.1028069
92.4611435
92.3505041
92.4358781
92.4079361
92.3541035
92.4341114
88.0277223
87.5933569
87.9651498
87.8204546
88.3377619
92.509556
92.3303919
92.3853776
92.4247981
88.0903184
87.592555
87.9460066
87.7972518
88.3048945
92.5552767
92.2027762
92.3380713
88.2139921
87.908985
92.6468981
92.4149924
88.0918822
87.5633899
87.9789087
92.6111833
92.3001197
88.0562535
87.6938345
87.8476104
89.4214887
92.4208791
92.2290468
92.2666461
92.2521916
89.8632276
87.9320395
88.0070359
88.0405061
88.3961896
92.4643659
92.2428738
88.1392753
87.8034325
89.7164267
92.4415839
92.2958006
88.197886
87.9106652
90.2806976
92.3678132
92.2852154
88.4103257
88.2055979
92.5726783
92.3209399
87.9507663
87.7644462
88.0572392
88.059614
89.2017571
92.3826598
92.2031608
88.0021698
88.0568383
92.4052634
92.5400918
87.7609922
88.8078429
92.4375037
89.5162042
87.6675449
89.6065047
92.4886489
89.2624097
87.4427361
87.7917044
92.3459871
92.4115316
92.4454103
92.5212129
88.0933127
87.6485812
87.9078066
88.1338885
91.8392562
92.3472413
92.4983843
92.3601798
92.4745902
90.4178479
87.8909212
88.9445532
92.3926256
92.3876676
90.4435226
87.5751145
87.5885024
88.0598205
88.0494381
89.7976654
92.4009867
92.8149235
87.7246315
87.7462592
88.314447
89.552371
92.350024
92.8448667
87.7827223
87.7994808
90.2302265
92.4157486
92.9024102
88.0637154
88.4109808
92.359971
92.9621434
87.981917
88.3351356
92.4372336
93.0609447
87.6742562
89.9854142
92.9381492
88.2950815
89.4260775
92.292063
92.3329983
92.340735
92.4992443
92.2744331
92.7717884
88.3055426
87.5212664
87.7187237
87.9681458
87.9712499
89.5572151
92.415368
93.0140363
87.632591
87.6638332
88.2964708
90.9722307
92.3676149
92.3877198
92.5484315
90.1141569
87.6059905
87.641461
87.9714902
87.9872925
88.1490582
88.170353
89.9133276
92.3835583
92.9965375
87.64339
87.6488291
88.0511987
88.2991804
92.7374585
92.3094886
92.5779638
92.3746506
92.4761864
92.4156551
92.4919271
92.4067948
92.5863865
92.2994933
92.8111804
88.2157583
87.3153026
87.5052193
87.6998515
87.7038173
87.887599
88.0108876
88.0378349
89.9866971
92.3699145
92.6111655
92.3987328
93.0500054
87.8089993
88.0461404
92.4183908
92.9092411
87.6148429
87.6432009
88.0493707
89.2365107
92.3141368
92.2942152
92.5956425
92.3805526
92.8887011
87.6456686
87.6630736
88.1163301
89.619348
92.2253093
92.1709574
92.4454275
89.1574124
87.7992182
87.9767656
87.9806248
88.9581765
92.3747054
92.5457368
87.7284788
87.756791
88.8765744
92.4815996
92.2763358
92.7309774
87.8113397
87.8331419
92.3904412
92.6830831
87.6592497
87.6759715
87.9192853
88.9578434
92.3436419
92.3479669
92.3553757
92.522684
87.8315963
87.8279402
87.916348
88.1764911
92.3373968
92.4114172
87.8037773
87.8561951
87.9248413
88.6854804
92.3161089
92.2081723
92.3433078
92.2767015
92.3854848
87.8270392
87.8226919
87.8581
88.0763207
92.3394113
92.3125916
87.7946946
87.7301444
87.9491019
92.2966979
92.3002865
92.2198982
92.3073021
88.9840894
87.8106682
87.9051785
87.945465
87.8039677
88.0860211
92.5264226
92.2937108