/*--------------------------------*- C++ -*----------------------------------*\
| =========                 |                                                 |
| \\      /  F ield         | OpenFOAM: The Open Source CFD Toolbox           |
|  \\    /   O peration     | Version:  2306                                  |
|   \\  /    A nd           | Website:  www.openfoam.com                      |
|    \\/     M anipulation  |                                                 |
\*---------------------------------------------------------------------------*/
FoamFile
{
    version     2.0;
    format      ascii;
    arch        "LSB;label=32;scalar=64";
    class       volScalarField;
    location    "0.00034";
    object      alpha;
}
// * * * * * * * * * * * * * * * * * * * * * * * * * * * * * * * * * * * * * //

dimensions      [1 -1 -1 0 0 0 0];

internalField   nonuniform List<scalar> 
530
(
3.5479257e-05
3.68321507e-05
3.6805909e-05
3.51080623e-05
3.50995167e-05
3.60185161e-05
3.67646717e-05
3.68200184e-05
3.5049596e-05
3.58798174e-05
3.6779324e-05
3.53808446e-05
3.55140591e-05
3.6830995e-05
3.67931645e-05
3.5468537e-05
3.57114488e-05
3.62025307e-05
3.5926936e-05
3.57405123e-05
3.58204713e-05
3.60298231e-05
3.57872934e-05
3.57272712e-05
3.59323777e-05
3.63163842e-05
3.58161526e-05
3.57221103e-05
3.577372e-05
3.61587282e-05
3.60184449e-05
3.57329328e-05
3.57382367e-05
3.59458848e-05
3.5960498e-05
3.57838928e-05
3.57665108e-05
3.58862829e-05
3.59290803e-05
3.57929026e-05
3.57564996e-05
3.58697688e-05
3.59915003e-05
3.58298495e-05
3.57395325e-05
3.57985301e-05
3.60111804e-05
3.59272014e-05
3.57472453e-05
3.57554169e-05
3.59463862e-05
3.59537076e-05
3.57816692e-05
3.57631846e-05
3.58706089e-05
3.59285799e-05
3.58190028e-05
3.5769224e-05
3.5830111e-05
3.59280674e-05
3.58624087e-05
3.57687028e-05
3.57860244e-05
3.59219608e-05
3.59170674e-05
3.57853345e-05
3.57727091e-05
3.58620752e-05
3.59123051e-05
3.58312538e-05
3.57845013e-05
3.58205181e-05
3.58811916e-05
3.58570265e-05
3.58047285e-05
3.58112327e-05
3.58569921e-05
3.5855946e-05
3.58203102e-05
3.58173307e-05
3.58416496e-05
3.58490196e-05
3.58312105e-05
3.5820908e-05
3.58310786e-05
3.58465763e-05
3.58438708e-05
3.5824475e-05
3.58199863e-05
3.58335091e-05
3.58523338e-05
3.58488088e-05
3.581747e-05
3.58093749e-05
3.58385257e-05
3.58724278e-05
3.58528305e-05
3.57967914e-05
3.57981766e-05
3.58663795e-05
3.58925722e-05
3.58294102e-05
3.57847939e-05
3.58045498e-05
3.58928131e-05
3.58910383e-05
3.58087503e-05
3.5786597e-05
3.58251678e-05
3.58860324e-05
3.58731091e-05
3.58036708e-05
3.57971548e-05
3.58404231e-05
3.58727479e-05
3.58476487e-05
3.58082645e-05
3.58125081e-05
3.58515684e-05
3.5855389e-05
3.5828272e-05
3.58187098e-05
3.58326275e-05
3.5844839e-05
3.58380608e-05
3.58273618e-05
3.58294819e-05
3.58376487e-05
3.58373307e-05
3.58321231e-05
3.5831814e-05
3.58344489e-05
3.5835038e-05
3.58338176e-05
3.58333029e-05
3.5833815e-05
3.58341638e-05
3.58339677e-05
3.58337649e-05
3.58338319e-05
3.58339375e-05
3.58339176e-05
3.58338674e-05
3.58338721e-05
3.58338941e-05
3.58338935e-05
3.58338846e-05
3.58338845e-05
3.58338876e-05
3.58338878e-05
3.58338869e-05
3.58338867e-05
3.5833887e-05
3.58338871e-05
3.5833887e-05
3.5833887e-05
3.5833887e-05
3.5833887e-05
3.5833887e-05
3.5833887e-05
3.5833887e-05
3.5833887e-05
3.5833887e-05
3.5833887e-05
3.5833887e-05
3.5833887e-05
3.5833887e-05
3.5833887e-05
3.5833887e-05
3.5833887e-05
3.5833887e-05
3.5833887e-05
3.5833887e-05
3.5833887e-05
3.5833887e-05
3.5833887e-05
3.58338871e-05
3.58338869e-05
3.58338867e-05
3.58338871e-05
3.5833888e-05
3.58338877e-05
3.5833884e-05
3.58338838e-05
3.58338932e-05
3.58338982e-05
3.58338791e-05
3.58338545e-05
3.58338826e-05
3.5833966e-05
3.58339522e-05
3.58337254e-05
3.583368e-05
3.58341072e-05
3.5834411e-05
3.58337858e-05
3.5832769e-05
3.58332902e-05
3.58359741e-05
3.58359013e-05
3.58311051e-05
3.58295546e-05
3.58361359e-05
3.58419477e-05
3.58348933e-05
3.58219499e-05
3.58251406e-05
3.585126e-05
3.58517593e-05
3.58195625e-05
3.58089231e-05
3.58398549e-05
3.58715744e-05
3.58437356e-05
3.57980782e-05
3.58056999e-05
3.58766722e-05
3.58788257e-05
3.58106304e-05
3.57933865e-05
3.58387472e-05
3.58816655e-05
3.58474678e-05
3.58005678e-05
3.58093877e-05
3.58624905e-05
3.58620555e-05
3.58213237e-05
3.58133403e-05
3.58354811e-05
3.58497317e-05
3.58384783e-05
3.58244598e-05
3.58274523e-05
3.5839284e-05
3.58390953e-05
3.58321079e-05
3.58307179e-05
3.58337735e-05
3.58356254e-05
3.58345888e-05
3.58330563e-05
3.5833233e-05
3.58342236e-05
3.58342682e-05
3.58338358e-05
3.5833699e-05
3.58338507e-05
3.5833971e-05
3.58339293e-05
3.58338526e-05
3.58338591e-05
3.58338999e-05
3.58339002e-05
3.58338841e-05
3.58338816e-05
3.58338871e-05
3.5833889e-05
3.58338873e-05
3.58338863e-05
3.58338868e-05
3.58338872e-05
3.58338871e-05
3.58338869e-05
3.5833887e-05
3.5833887e-05
3.5833887e-05
3.5833887e-05
3.5833887e-05
3.5833887e-05
3.5833887e-05
3.5833887e-05
3.5833887e-05
3.5833887e-05
3.5833887e-05
3.5833887e-05
3.5833887e-05
3.5833887e-05
3.5833887e-05
3.5833887e-05
3.5833887e-05
3.5833887e-05
3.5833887e-05
3.5833887e-05
3.5833887e-05
3.5833887e-05
3.5833887e-05
3.5833887e-05
3.5833887e-05
3.5833887e-05
3.5833887e-05
3.5833887e-05
3.5833887e-05
3.5833887e-05
3.5833887e-05
3.5833887e-05
3.5833887e-05
3.5833887e-05
3.5833887e-05
3.5833887e-05
3.5833887e-05
3.5833887e-05
3.5833887e-05
3.5833887e-05
3.5833887e-05
3.5833887e-05
3.5833887e-05
3.5833887e-05
3.5833887e-05
3.5833887e-05
3.5833887e-05
3.5833887e-05
3.5833887e-05
3.5833887e-05
3.5833887e-05
3.5833887e-05
3.5833887e-05
3.5833887e-05
3.5833887e-05
3.5833887e-05
3.5833887e-05
3.5833887e-05
3.5833887e-05
3.5833887e-05
3.5833887e-05
3.5833887e-05
3.5833887e-05
3.5833887e-05
3.5833887e-05
3.5833887e-05
3.5833887e-05
3.5833887e-05
3.5833887e-05
3.5833887e-05
3.5833887e-05
3.5833887e-05
3.5833887e-05
3.5833887e-05
3.5833887e-05
3.5833887e-05
3.5833887e-05
3.5833887e-05
3.5833887e-05
3.5833887e-05
3.5833887e-05
3.5833887e-05
3.5833887e-05
3.5833887e-05
3.5833887e-05
3.5833887e-05
3.5833887e-05
3.5833887e-05
3.5833887e-05
3.5833887e-05
3.5833887e-05
3.5833887e-05
3.5833887e-05
3.5833887e-05
3.5833887e-05
3.5833887e-05
3.5833887e-05
3.5833887e-05
3.5833887e-05
3.5833887e-05
3.5833887e-05
3.5833887e-05
3.5833887e-05
3.5833887e-05
3.5833887e-05
3.5833887e-05
3.5833887e-05
3.5833887e-05
3.5833887e-05
3.5833887e-05
3.5833887e-05
3.5833887e-05
3.5833887e-05
3.5833887e-05
3.5833887e-05
3.5833887e-05
3.5833887e-05
3.5833887e-05
3.58338871e-05
3.58338871e-05
3.58338867e-05
3.58338865e-05
3.58338876e-05
3.58338887e-05
3.58338866e-05
3.58338819e-05
3.58338839e-05
3.58339002e-05
3.58339002e-05
3.58338622e-05
3.58338466e-05
3.58339185e-05
3.58339905e-05
3.58338861e-05
3.58336612e-05
3.58337289e-05
3.58343248e-05
3.58343398e-05
3.58333032e-05
3.58328889e-05
3.58343634e-05
3.58357565e-05
3.5834132e-05
3.58309354e-05
3.58318088e-05
3.58381283e-05
3.58380817e-05
3.58298194e-05
3.58275144e-05
3.5836345e-05
3.58426581e-05
3.58346436e-05
3.58241634e-05
3.58289255e-05
3.58442714e-05
3.58428503e-05
3.58253338e-05
3.58242114e-05
3.58389348e-05
3.58437674e-05
3.5832568e-05
3.58256609e-05
3.58324409e-05
3.58405059e-05
3.58368941e-05
3.58293387e-05
3.58305223e-05
3.58368552e-05
3.58366928e-05
3.58323819e-05
3.58320087e-05
3.58344213e-05
3.5835047e-05
3.58338118e-05
3.58332356e-05
3.58338032e-05
3.58342268e-05
3.58339915e-05
3.58337231e-05
3.58338083e-05
3.58339607e-05
3.5833935e-05
3.58338561e-05
3.58338614e-05
3.58338992e-05
3.58338988e-05
3.58338834e-05
3.58338822e-05
3.58338873e-05
3.58338889e-05
3.58338887e-05
3.58338881e-05
3.58338858e-05
3.5833885e-05
3.58338911e-05
3.58339e-05
3.58338993e-05
3.5833874e-05
3.58338698e-05
3.58339369e-05
3.58340313e-05
3.58340016e-05
3.58336121e-05
3.58335886e-05
3.58348765e-05
3.58358898e-05
3.58333208e-05
3.58287723e-05
3.58333511e-05
3.58521023e-05
3.58502687e-05
3.5801388e-05
3.57961401e-05
3.59094365e-05
3.59582794e-05
3.57713178e-05
3.57527642e-05
3.58511044e-05
3.68049869e-05
3.59800172e-05
3.54602407e-05
3.55874377e-05
3.58722252e-05
3.68088009e-05
3.68129337e-05
3.51893273e-05
3.51892933e-05
3.62830056e-05
3.67842225e-05
3.6779039e-05
3.50481579e-05
3.50375966e-05
3.57723474e-05
3.60297461e-05
3.68148466e-05
3.67924995e-05
3.53558796e-05
3.5572643e-05
3.68056793e-05
3.6612685e-05
3.49274244e-05
3.52669455e-05
3.68423962e-05
3.67645041e-05
3.59226855e-05
3.50594762e-05
3.57071865e-05
3.68408042e-05
3.67944487e-05
3.57212747e-05
3.51955248e-05
3.54297336e-05
3.60028342e-05
3.68089289e-05
3.6803797e-05
3.4936024e-05
3.56621098e-05
3.68286355e-05
3.67748673e-05
3.60199672e-05
3.49330825e-05
3.58719812e-05
3.65786152e-05
3.51198452e-05
3.52931117e-05
3.67862503e-05
)
;

boundaryField
{
    closed
    {
        type            calculated;
        value           nonuniform List<scalar> 0();
    }
    open
    {
        type            calculated;
        value           nonuniform List<scalar> 0();
    }
    sides
    {
        type            empty;
    }
    procBoundary2to1
    {
        type            processor;
        value           uniform 3.55231551e-05;
    }
    procBoundary2to3
    {
        type            processor;
        value           uniform 3.67738767e-05;
    }
}


// ************************************************************************* //
