/*--------------------------------*- C++ -*----------------------------------*\
| =========                 |                                                 |
| \\      /  F ield         | OpenFOAM: The Open Source CFD Toolbox           |
|  \\    /   O peration     | Version:  2306                                  |
|   \\  /    A nd           | Website:  www.openfoam.com                      |
|    \\/     M anipulation  |                                                 |
\*---------------------------------------------------------------------------*/
FoamFile
{
    version     2.0;
    format      ascii;
    arch        "LSB;label=32;scalar=64";
    class       volScalarField;
    location    "0.00034";
    object      prefDh_H;
}
// * * * * * * * * * * * * * * * * * * * * * * * * * * * * * * * * * * * * * //

dimensions      [1 1 -3 0 0 0 0];

internalField   nonuniform List<scalar> 
530
(
23238.8071
23956.8849
23900.4302
22995.27
22985.5181
23474.0088
23897.5331
23911.6027
22952.5066
23416.6908
23875.8364
23176.6402
23260.203
23959.4818
23894.1196
23233.9073
23393.7701
23558.5031
23434.1381
23382.0129
23392.5749
23477.1308
23380.1723
23378.8968
23433.2831
23614.7095
23387.2679
23384.8232
23373.611
23537.2704
23471.1515
23368.4645
23367.058
23439.0119
23445.3534
23376.5716
23372.0479
23413.6518
23431.6665
23379.0129
23369.6267
23406.9422
23459.0449
23391.6746
23367.0235
23380.8016
23467.9271
23430.7035
23367.8067
23369.001
23439.0765
23442.2612
23375.7508
23370.9514
23407.308
23431.3915
23387.7603
23372.3535
23391.7491
23431.1422
23404.0323
23372.1221
23376.8572
23428.5024
23426.4204
23376.7247
23373.1374
23403.9175
23424.4262
23392.1624
23376.4765
23388.2673
23411.5492
23401.9062
23382.8505
23385.0267
23401.908
23401.4967
23388.204
23387.1519
23396.0177
23398.8206
23392.1325
23388.4108
23392.0842
23397.8834
23396.8552
23389.6863
23388.0827
23392.9852
23400.0911
23398.7437
23387.1955
23384.4011
23394.8579
23407.997
23400.2966
23380.2047
23380.6816
23405.594
23416.1796
23391.509
23376.5107
23382.7646
23416.2725
23415.5398
23384.2272
23377.0502
23389.9641
23413.5011
23408.2563
23382.4968
23380.3365
23395.5773
23408.1282
23398.2929
23384.0237
23385.4577
23399.8048
23401.2753
23391.0642
23387.634
23392.6533
23397.2245
23394.6674
23390.7286
23391.498
23394.5146
23394.3953
23392.4664
23392.3526
23393.3243
23393.5425
23393.0907
23392.9006
23393.0897
23393.2187
23393.1461
23393.0712
23393.0959
23393.135
23393.1276
23393.109
23393.1108
23393.1189
23393.1187
23393.1154
23393.1154
23393.1165
23393.1166
23393.1162
23393.1162
23393.1163
23393.1163
23393.1163
23393.1163
23393.1163
23393.1163
23393.1163
23393.1163
23393.1163
23393.1163
23393.1163
23393.1163
23393.1163
23393.1163
23393.1163
23393.1163
23393.1163
23393.1163
23393.1163
23393.1163
23393.1163
23393.1163
23393.1163
23393.1163
23393.1163
23393.1162
23393.1162
23393.1163
23393.1167
23393.1165
23393.1152
23393.1151
23393.1186
23393.1204
23393.1134
23393.1043
23393.1147
23393.1455
23393.1404
23393.0566
23393.0398
23393.1977
23393.3102
23393.079
23392.7038
23392.8961
23393.89
23393.8635
23392.0924
23391.5259
23393.9512
23396.1287
23393.4921
23388.7809
23389.9288
23399.6762
23399.8762
23387.9321
23384.2465
23395.3472
23407.6561
23396.8136
23380.6351
23383.1475
23409.6942
23410.5675
23384.8324
23379.144
23394.9365
23411.7215
23398.2232
23381.4582
23384.3822
23404.0573
23403.879
23388.5688
23385.7592
23393.7119
23399.0948
23394.824
23389.6824
23390.7587
23395.1274
23395.055
23392.4613
23391.9506
23393.0746
23393.7606
23393.376
23392.8097
23392.8748
23393.2408
23393.2572
23393.0974
23393.0468
23393.1029
23393.1473
23393.1319
23393.1036
23393.106
23393.1211
23393.1211
23393.1152
23393.1143
23393.1163
23393.117
23393.1164
23393.116
23393.1162
23393.1164
23393.1163
23393.1162
23393.1163
23393.1163
23393.1163
23393.1163
23393.1163
23393.1163
23393.1163
23393.1163
23393.1163
23393.1163
23393.1163
23393.1163
23393.1163
23393.1163
23393.1163
23393.1163
23393.1163
23393.1163
23393.1163
23393.1163
23393.1163
23393.1163
23393.1163
23393.1163
23393.1163
23393.1163
23393.1163
23393.1163
23393.1163
23393.1163
23393.1163
23393.1163
23393.1163
23393.1163
23393.1163
23393.1163
23393.1163
23393.1163
23393.1163
23393.1163
23393.1163
23393.1163
23393.1163
23393.1163
23393.1163
23393.1163
23393.1163
23393.1163
23393.1163
23393.1163
23393.1163
23393.1163
23393.1163
23393.1163
23393.1163
23393.1163
23393.1163
23393.1163
23393.1163
23393.1163
23393.1163
23393.1163
23393.1163
23393.1163
23393.1163
23393.1163
23393.1163
23393.1163
23393.1163
23393.1163
23393.1163
23393.1163
23393.1163
23393.1163
23393.1163
23393.1163
23393.1163
23393.1163
23393.1163
23393.1163
23393.1163
23393.1163
23393.1163
23393.1163
23393.1163
23393.1163
23393.1163
23393.1163
23393.1163
23393.1163
23393.1163
23393.1163
23393.1163
23393.1163
23393.1163
23393.1163
23393.1163
23393.1163
23393.1163
23393.1163
23393.1163
23393.1163
23393.1163
23393.1163
23393.1163
23393.1163
23393.1163
23393.1163
23393.1163
23393.1163
23393.1163
23393.1163
23393.1163
23393.1163
23393.1163
23393.1163
23393.1163
23393.1163
23393.1163
23393.1163
23393.1162
23393.1161
23393.1165
23393.1169
23393.1161
23393.1144
23393.1151
23393.1212
23393.1212
23393.1071
23393.1014
23393.1279
23393.1545
23393.1159
23393.0329
23393.0579
23393.2782
23393.2838
23392.9007
23392.748
23393.2926
23393.8091
23393.2071
23392.0299
23392.3506
23394.6927
23394.6757
23391.6213
23390.7821
23394.0281
23396.3952
23393.3967
23389.5712
23391.2948
23397.0052
23396.4671
23389.9928
23389.5884
23394.995
23396.8148
23392.63
23390.1111
23392.5828
23395.5843
23394.232
23391.4461
23391.8783
23394.218
23394.1574
23392.5613
23392.424
23393.314
23393.5458
23393.0885
23392.8758
23393.0853
23393.242
23393.1549
23393.0557
23393.0872
23393.1435
23393.134
23393.1049
23393.1068
23393.1208
23393.1207
23393.115
23393.1145
23393.1164
23393.1171
23393.117
23393.1169
23393.1161
23393.116
23393.1186
23393.1223
23393.1227
23393.1145
23393.1143
23393.1419
23393.1805
23393.175
23393.0419
23393.0444
23393.5456
23393.9481
23393.0542
23391.4617
23393.2551
23400.4221
23399.9716
23383.0128
23382.4337
23424.191
23445.9265
23376.604
23414.9345
23401.6618
23905.1115
23454.6296
23224.4557
23312.8888
23419.6539
23940.3641
23899.3138
23047.0225
23046.3914
23597.2256
23915.3208
23870.2327
22954.3565
22943.2885
23392.424
23480.3952
23950.2586
23882.0428
23159.1803
23298.2858
23931.0756
23766.9774
22874.5147
23098.0221
23952.1778
23892.183
23427.2733
22961.3039
23379.6981
23965.5271
23917.3224
23366.6649
23050.6261
23210.0166
23468.251
23934.3311
23884.6702
22880.1915
23361.4248
23942.85
23904.8504
23470.6482
22875.3877
23413.9707
23748.9495
23000.7124
23115.3006
23903.1916
)
;

boundaryField
{
    closed
    {
        type            calculated;
        value           nonuniform List<scalar> 0();
    }
    open
    {
        type            calculated;
        value           nonuniform List<scalar> 0();
    }
    sides
    {
        type            empty;
    }
    procBoundary2to1
    {
        type            processor;
        value           uniform 23268.6085;
    }
    procBoundary2to3
    {
        type            processor;
        value           uniform 23907.415;
    }
}


// ************************************************************************* //
