/*--------------------------------*- C++ -*----------------------------------*\
| =========                 |                                                 |
| \\      /  F ield         | OpenFOAM: The Open Source CFD Toolbox           |
|  \\    /   O peration     | Version:  2306                                  |
|   \\  /    A nd           | Website:  www.openfoam.com                      |
|    \\/     M anipulation  |                                                 |
\*---------------------------------------------------------------------------*/
FoamFile
{
    version     2.0;
    format      ascii;
    arch        "LSB;label=32;scalar=64";
    class       volScalarField;
    location    "0.00034";
    object      prefDPV_H2;
}
// * * * * * * * * * * * * * * * * * * * * * * * * * * * * * * * * * * * * * //

dimensions      [1 -1 -1 0 0 0 0];

internalField   nonuniform List<scalar> 
530
(
-3.07475516e-05
-3.15397584e-05
-3.14817664e-05
-3.04802164e-05
-3.04699563e-05
-3.10095051e-05
-3.14760829e-05
-3.14938482e-05
-3.04337443e-05
-3.09450848e-05
-3.14554746e-05
-3.06790365e-05
-3.07712039e-05
-3.15422634e-05
-3.147462e-05
-3.07419282e-05
-3.0917354e-05
-3.11040836e-05
-3.09647891e-05
-3.09050461e-05
-3.09179634e-05
-3.10130905e-05
-3.0903964e-05
-3.0901435e-05
-3.09639761e-05
-3.1166834e-05
-3.09121647e-05
-3.09077209e-05
-3.08966349e-05
-3.10803664e-05
-3.10064315e-05
-3.08903052e-05
-3.08888922e-05
-3.09704083e-05
-3.09775217e-05
-3.09000202e-05
-3.08948121e-05
-3.09419394e-05
-3.09621713e-05
-3.09028239e-05
-3.08920111e-05
-3.0934393e-05
-3.09928694e-05
-3.09171761e-05
-3.088888e-05
-3.09048593e-05
-3.10028176e-05
-3.09610978e-05
-3.08898723e-05
-3.08913162e-05
-3.09704877e-05
-3.09740597e-05
-3.08990932e-05
-3.08935669e-05
-3.09348032e-05
-3.09618654e-05
-3.09127503e-05
-3.08951936e-05
-3.09172613e-05
-3.09615871e-05
-3.09311163e-05
-3.08949343e-05
-3.09003691e-05
-3.09586256e-05
-3.09562883e-05
-3.0900213e-05
-3.08961053e-05
-3.09309862e-05
-3.09540482e-05
-3.09177286e-05
-3.08999297e-05
-3.09133256e-05
-3.09395762e-05
-3.09287221e-05
-3.0907186e-05
-3.09096557e-05
-3.09287234e-05
-3.09282602e-05
-3.09132535e-05
-3.09120626e-05
-3.09220823e-05
-3.09252438e-05
-3.09176956e-05
-3.09134878e-05
-3.0917641e-05
-3.09241871e-05
-3.09230273e-05
-3.09149306e-05
-3.09131166e-05
-3.09186585e-05
-3.09266763e-05
-3.09251569e-05
-3.09121123e-05
-3.09089459e-05
-3.09207726e-05
-3.09355806e-05
-3.09269073e-05
-3.09041827e-05
-3.09047232e-05
-3.09328753e-05
-3.09447838e-05
-3.09169892e-05
-3.08999721e-05
-3.09070899e-05
-3.09448886e-05
-3.0944065e-05
-3.09087466e-05
-3.0900588e-05
-3.09152431e-05
-3.09417722e-05
-3.0935873e-05
-3.09067845e-05
-3.09043318e-05
-3.09215841e-05
-3.09357281e-05
-3.09246489e-05
-3.0908518e-05
-3.09101445e-05
-3.09263531e-05
-3.0928011e-05
-3.09164881e-05
-3.09126085e-05
-3.0918284e-05
-3.09234438e-05
-3.09205584e-05
-3.0916109e-05
-3.09169787e-05
-3.09203859e-05
-3.09202512e-05
-3.09180728e-05
-3.09179443e-05
-3.09190419e-05
-3.09192883e-05
-3.09187781e-05
-3.09185634e-05
-3.09187769e-05
-3.09189226e-05
-3.09188407e-05
-3.0918756e-05
-3.0918784e-05
-3.09188281e-05
-3.09188197e-05
-3.09187988e-05
-3.09188008e-05
-3.091881e-05
-3.09188097e-05
-3.0918806e-05
-3.0918806e-05
-3.09188072e-05
-3.09188073e-05
-3.09188069e-05
-3.09188069e-05
-3.0918807e-05
-3.0918807e-05
-3.0918807e-05
-3.0918807e-05
-3.0918807e-05
-3.0918807e-05
-3.0918807e-05
-3.0918807e-05
-3.0918807e-05
-3.0918807e-05
-3.0918807e-05
-3.0918807e-05
-3.0918807e-05
-3.0918807e-05
-3.0918807e-05
-3.0918807e-05
-3.0918807e-05
-3.0918807e-05
-3.0918807e-05
-3.0918807e-05
-3.0918807e-05
-3.0918807e-05
-3.0918807e-05
-3.0918807e-05
-3.0918807e-05
-3.09188069e-05
-3.09188068e-05
-3.0918807e-05
-3.09188074e-05
-3.09188073e-05
-3.09188057e-05
-3.09188056e-05
-3.09188096e-05
-3.09188117e-05
-3.09188037e-05
-3.09187934e-05
-3.09188052e-05
-3.091884e-05
-3.09188342e-05
-3.09187396e-05
-3.09187206e-05
-3.0918899e-05
-3.09190259e-05
-3.09187648e-05
-3.09183411e-05
-3.09185583e-05
-3.09196808e-05
-3.09196507e-05
-3.09176503e-05
-3.09170102e-05
-3.09197497e-05
-3.09222076e-05
-3.09192312e-05
-3.09139066e-05
-3.09152046e-05
-3.09262087e-05
-3.09264338e-05
-3.09129461e-05
-3.09087707e-05
-3.09213253e-05
-3.09351969e-05
-3.09229799e-05
-3.09046712e-05
-3.09075247e-05
-3.09374908e-05
-3.0938473e-05
-3.09094348e-05
-3.09029745e-05
-3.09208616e-05
-3.09397709e-05
-3.09245703e-05
-3.09056059e-05
-3.09089258e-05
-3.09311448e-05
-3.09309444e-05
-3.09136659e-05
-3.09104854e-05
-3.09194794e-05
-3.09255529e-05
-3.09207351e-05
-3.0914926e-05
-3.09161432e-05
-3.09210775e-05
-3.09209959e-05
-3.09180672e-05
-3.09174902e-05
-3.09187599e-05
-3.09195346e-05
-3.09191003e-05
-3.09184607e-05
-3.09185342e-05
-3.09189476e-05
-3.09189662e-05
-3.09187856e-05
-3.09187285e-05
-3.09187918e-05
-3.09188421e-05
-3.09188246e-05
-3.09187926e-05
-3.09187953e-05
-3.09188124e-05
-3.09188125e-05
-3.09188058e-05
-3.09188047e-05
-3.0918807e-05
-3.09188078e-05
-3.09188071e-05
-3.09188067e-05
-3.09188069e-05
-3.09188071e-05
-3.0918807e-05
-3.0918807e-05
-3.0918807e-05
-3.0918807e-05
-3.0918807e-05
-3.0918807e-05
-3.0918807e-05
-3.0918807e-05
-3.0918807e-05
-3.0918807e-05
-3.0918807e-05
-3.0918807e-05
-3.0918807e-05
-3.0918807e-05
-3.0918807e-05
-3.0918807e-05
-3.0918807e-05
-3.0918807e-05
-3.0918807e-05
-3.0918807e-05
-3.0918807e-05
-3.0918807e-05
-3.0918807e-05
-3.0918807e-05
-3.0918807e-05
-3.0918807e-05
-3.0918807e-05
-3.0918807e-05
-3.0918807e-05
-3.0918807e-05
-3.0918807e-05
-3.0918807e-05
-3.0918807e-05
-3.0918807e-05
-3.0918807e-05
-3.0918807e-05
-3.0918807e-05
-3.0918807e-05
-3.0918807e-05
-3.0918807e-05
-3.0918807e-05
-3.0918807e-05
-3.0918807e-05
-3.0918807e-05
-3.0918807e-05
-3.0918807e-05
-3.0918807e-05
-3.0918807e-05
-3.0918807e-05
-3.0918807e-05
-3.0918807e-05
-3.0918807e-05
-3.0918807e-05
-3.0918807e-05
-3.0918807e-05
-3.0918807e-05
-3.0918807e-05
-3.0918807e-05
-3.0918807e-05
-3.0918807e-05
-3.0918807e-05
-3.0918807e-05
-3.0918807e-05
-3.0918807e-05
-3.0918807e-05
-3.0918807e-05
-3.0918807e-05
-3.0918807e-05
-3.0918807e-05
-3.0918807e-05
-3.0918807e-05
-3.0918807e-05
-3.0918807e-05
-3.0918807e-05
-3.0918807e-05
-3.0918807e-05
-3.0918807e-05
-3.0918807e-05
-3.0918807e-05
-3.0918807e-05
-3.0918807e-05
-3.0918807e-05
-3.0918807e-05
-3.0918807e-05
-3.0918807e-05
-3.0918807e-05
-3.0918807e-05
-3.0918807e-05
-3.0918807e-05
-3.0918807e-05
-3.0918807e-05
-3.0918807e-05
-3.0918807e-05
-3.0918807e-05
-3.0918807e-05
-3.0918807e-05
-3.0918807e-05
-3.0918807e-05
-3.0918807e-05
-3.0918807e-05
-3.0918807e-05
-3.0918807e-05
-3.0918807e-05
-3.0918807e-05
-3.0918807e-05
-3.0918807e-05
-3.0918807e-05
-3.0918807e-05
-3.0918807e-05
-3.0918807e-05
-3.0918807e-05
-3.0918807e-05
-3.0918807e-05
-3.0918807e-05
-3.0918807e-05
-3.0918807e-05
-3.0918807e-05
-3.0918807e-05
-3.0918807e-05
-3.0918807e-05
-3.0918807e-05
-3.0918807e-05
-3.09188069e-05
-3.09188068e-05
-3.09188072e-05
-3.09188077e-05
-3.09188068e-05
-3.09188049e-05
-3.09188057e-05
-3.09188125e-05
-3.09188125e-05
-3.09187966e-05
-3.09187901e-05
-3.09188201e-05
-3.09188502e-05
-3.09188066e-05
-3.09187128e-05
-3.0918741e-05
-3.09189899e-05
-3.09189962e-05
-3.09185635e-05
-3.0918391e-05
-3.09190061e-05
-3.09195894e-05
-3.09189095e-05
-3.09175797e-05
-3.09179421e-05
-3.09205869e-05
-3.09205678e-05
-3.0917118e-05
-3.09161696e-05
-3.09198366e-05
-3.09225083e-05
-3.09191237e-05
-3.09148005e-05
-3.09167492e-05
-3.09231966e-05
-3.09225895e-05
-3.09152773e-05
-3.091482e-05
-3.09209282e-05
-3.09229817e-05
-3.09182577e-05
-3.0915411e-05
-3.09182044e-05
-3.09215933e-05
-3.09200669e-05
-3.09169201e-05
-3.09174085e-05
-3.0920051e-05
-3.09199826e-05
-3.09181801e-05
-3.0918025e-05
-3.09190303e-05
-3.0919292e-05
-3.09187756e-05
-3.09185354e-05
-3.0918772e-05
-3.09189489e-05
-3.09188506e-05
-3.09187386e-05
-3.09187741e-05
-3.09188378e-05
-3.0918827e-05
-3.09187941e-05
-3.09187963e-05
-3.09188121e-05
-3.09188119e-05
-3.09188055e-05
-3.0918805e-05
-3.09188072e-05
-3.09188079e-05
-3.09188078e-05
-3.09188077e-05
-3.09188068e-05
-3.09188067e-05
-3.09188095e-05
-3.09188137e-05
-3.09188141e-05
-3.09188048e-05
-3.09188046e-05
-3.09188355e-05
-3.0918879e-05
-3.09188724e-05
-3.09187216e-05
-3.09187237e-05
-3.09192885e-05
-3.09197416e-05
-3.09187291e-05
-3.09169259e-05
-3.0918946e-05
-3.09270282e-05
-3.09265074e-05
-3.0907296e-05
-3.09065706e-05
-3.09537385e-05
-3.09780942e-05
-3.08998122e-05
-3.09407499e-05
-3.09283435e-05
-3.14863669e-05
-3.09878901e-05
-3.07320105e-05
-3.08285124e-05
-3.09481281e-05
-3.15217204e-05
-3.14811278e-05
-3.05371955e-05
-3.0536569e-05
-3.1147347e-05
-3.14951192e-05
-3.1449873e-05
-3.04354785e-05
-3.04237665e-05
-3.0916873e-05
-3.1016599e-05
-3.15319793e-05
-3.1462545e-05
-3.06599934e-05
-3.08130522e-05
-3.15122636e-05
-3.13365985e-05
-3.03479014e-05
-3.05931718e-05
-3.15357724e-05
-3.1470747e-05
-3.09573172e-05
-3.04431558e-05
-3.09019133e-05
-3.15489509e-05
-3.14978092e-05
-3.08881425e-05
-3.05412016e-05
-3.07155235e-05
-3.10029985e-05
-3.15157256e-05
-3.14659226e-05
-3.03541293e-05
-3.08818447e-05
-3.15255492e-05
-3.14840607e-05
-3.10059216e-05
-3.03491554e-05
-3.09420034e-05
-3.13165176e-05
-3.04864372e-05
-3.0612127e-05
-3.14831849e-05
)
;

boundaryField
{
    closed
    {
        type            calculated;
        value           nonuniform List<scalar> 0();
    }
    open
    {
        type            calculated;
        value           nonuniform List<scalar> 0();
    }
    sides
    {
        type            empty;
    }
    procBoundary2to1
    {
        type            processor;
        value           uniform -3.07801509e-05;
    }
    procBoundary2to3
    {
        type            processor;
        value           uniform -3.14865452e-05;
    }
}


// ************************************************************************* //
