/*--------------------------------*- C++ -*----------------------------------*\
| =========                 |                                                 |
| \\      /  F ield         | OpenFOAM: The Open Source CFD Toolbox           |
|  \\    /   O peration     | Version:  2306                                  |
|   \\  /    A nd           | Website:  www.openfoam.com                      |
|    \\/     M anipulation  |                                                 |
\*---------------------------------------------------------------------------*/
FoamFile
{
    version     2.0;
    format      ascii;
    arch        "LSB;label=32;scalar=64";
    class       volScalarField;
    location    "0.00034";
    object      T;
}
// * * * * * * * * * * * * * * * * * * * * * * * * * * * * * * * * * * * * * //

dimensions      [0 0 0 1 0 0 0];

internalField   nonuniform List<scalar> 
530
(
326.494566
340.066581
339.325614
322.159022
322.019733
331.23166
339.109408
339.512083
321.433993
330.034738
338.935124
325.366711
326.888275
340.090043
339.199013
326.388396
329.229762
332.93258
330.413069
329.145875
329.527414
331.305704
329.258689
329.063523
330.415554
334.039235
329.440882
329.129272
329.128065
332.510919
331.189022
328.936994
328.933296
330.533983
330.664119
329.198757
329.085361
330.009878
330.383498
329.258808
329.02253
329.869026
330.943456
329.541661
328.936645
329.29997
331.123434
330.364631
328.970185
329.010694
330.536235
330.601546
329.180894
329.060443
329.876539
330.378207
329.455916
329.097514
329.543448
330.373253
329.807365
329.092784
329.208905
330.318978
330.275959
329.205064
329.118546
329.804812
330.234544
329.552493
329.199198
329.467339
329.965978
329.762291
329.346392
329.395454
329.76222
329.753486
329.46586
329.442624
329.636089
329.696312
329.551951
329.470461
329.550898
329.676236
329.654139
329.498496
329.463237
329.570441
329.723529
329.694635
329.443633
329.381385
329.610954
329.891348
329.727822
329.286636
329.297279
329.840518
330.063109
329.53809
329.200521
329.344678
330.065092
330.049796
329.377165
329.213248
329.504362
330.007046
329.896911
329.338414
329.289522
329.626431
329.894095
329.685022
329.372928
329.405131
329.717344
329.748802
329.528616
329.453311
329.563282
329.662066
329.606962
329.521322
329.538139
329.603648
329.601072
329.559226
329.556752
329.577866
329.5826
329.572796
329.568669
329.572775
329.575575
329.574
329.572373
329.572911
329.573758
329.573598
329.573196
329.573233
329.57341
329.573405
329.573333
329.573333
329.573358
329.573359
329.573352
329.57335
329.573353
329.573353
329.573353
329.573352
329.573353
329.573353
329.573353
329.573353
329.573353
329.573353
329.573353
329.573353
329.573353
329.573353
329.573353
329.573353
329.573353
329.573353
329.573353
329.573353
329.573353
329.573353
329.573353
329.573353
329.573353
329.573352
329.57335
329.573353
329.573361
329.573358
329.573328
329.573327
329.573402
329.573443
329.573289
329.573092
329.573317
329.573987
329.573876
329.572056
329.571692
329.575121
329.57756
329.572542
329.564391
329.56857
329.590133
329.589554
329.551088
329.538737
329.59145
329.638492
329.581482
329.478616
329.50379
329.714666
329.718888
329.459918
329.37793
329.62159
329.884151
329.653172
329.296347
329.353329
329.927166
329.94551
329.391012
329.262032
329.612686
329.969732
329.68353
329.314995
329.381158
329.807947
329.804213
329.473859
329.41173
329.586235
329.702177
329.610343
329.498398
329.522001
329.616886
329.615335
329.559113
329.548
329.572446
329.587328
329.578989
329.566693
329.568108
329.576055
329.576413
329.572942
329.571844
329.573061
329.574027
329.573692
329.573077
329.573129
329.573456
329.573458
329.573329
329.573309
329.573354
329.573369
329.573355
329.573347
329.573351
329.573355
329.573354
329.573352
329.573352
329.573353
329.573353
329.573353
329.573353
329.573353
329.573353
329.573353
329.573353
329.573353
329.573353
329.573353
329.573353
329.573353
329.573353
329.573353
329.573353
329.573353
329.573353
329.573353
329.573353
329.573353
329.573353
329.573353
329.573353
329.573353
329.573353
329.573353
329.573353
329.573353
329.573353
329.573353
329.573353
329.573353
329.573353
329.573353
329.573353
329.573353
329.573353
329.573353
329.573353
329.573353
329.573353
329.573353
329.573353
329.573353
329.573353
329.573353
329.573353
329.573353
329.573353
329.573353
329.573353
329.573353
329.573353
329.573353
329.573353
329.573353
329.573353
329.573353
329.573353
329.573353
329.573353
329.573353
329.573353
329.573353
329.573353
329.573353
329.573353
329.573353
329.573353
329.573353
329.573353
329.573353
329.573353
329.573353
329.573353
329.573353
329.573353
329.573353
329.573353
329.573353
329.573353
329.573353
329.573353
329.573353
329.573353
329.573353
329.573353
329.573353
329.573353
329.573353
329.573353
329.573353
329.573353
329.573353
329.573353
329.573353
329.573353
329.573353
329.573353
329.573353
329.573353
329.573353
329.573353
329.573353
329.573353
329.573353
329.573353
329.573353
329.573353
329.573353
329.573353
329.573353
329.573353
329.573353
329.573352
329.573353
329.573354
329.573354
329.57335
329.573349
329.573357
329.573367
329.573349
329.573312
329.573328
329.573459
329.573458
329.573154
329.573029
329.573605
329.574183
329.573346
329.571541
329.572085
329.576868
329.576989
329.568671
329.565352
329.577178
329.58838
329.575322
329.54973
329.55671
329.607508
329.607138
329.540827
329.522506
329.593123
329.644245
329.579435
329.495995
329.533709
329.657379
329.645799
329.505237
329.496374
329.614038
329.653278
329.562786
329.507825
329.561762
329.626763
329.597542
329.537004
329.54643
329.597235
329.595923
329.561293
329.558307
329.577643
329.582671
329.572749
329.568129
329.57268
329.576081
329.574192
329.572038
329.572721
329.573944
329.573738
329.573105
329.573147
329.573451
329.573448
329.573324
329.573314
329.573356
329.573369
329.573368
329.573364
329.573347
329.573343
329.573397
329.573474
329.573477
329.573291
329.573277
329.573853
329.574664
329.574502
329.57153
329.571497
329.582186
329.59071
329.570877
329.535615
329.573783
329.727546
329.71604
329.339045
329.31581
330.223395
330.666623
329.162561
329.633422
329.742177
339.373276
330.849637
326.255518
327.785521
330.054457
339.779637
339.344549
323.093425
323.087302
333.704606
339.393221
338.87185
321.444057
321.280768
329.383888
331.35401
339.915868
339.062451
325.065396
327.569647
339.663174
337.003169
320.027817
324.000814
340.060507
339.049618
330.303219
321.571675
329.014255
340.200728
339.4611
328.87761
323.161472
325.949211
331.107187
339.713656
339.141793
320.128597
328.653693
339.895926
339.235798
331.184965
320.066146
329.974284
336.655495
322.274948
324.307511
339.268406
)
;

boundaryField
{
    closed
    {
        type            fixedValue;
        value           nonuniform List<scalar> 0();
    }
    open
    {
        type            zeroGradient;
    }
    sides
    {
        type            empty;
    }
    procBoundary2to1
    {
        type            processor;
        value           uniform 327.016262;
    }
    procBoundary2to3
    {
        type            processor;
        value           uniform 339.259656;
    }
}


// ************************************************************************* //
