/*--------------------------------*- C++ -*----------------------------------*\
| =========                 |                                                 |
| \\      /  F ield         | OpenFOAM: The Open Source CFD Toolbox           |
|  \\    /   O peration     | Version:  2306                                  |
|   \\  /    A nd           | Website:  www.openfoam.com                      |
|    \\/     M anipulation  |                                                 |
\*---------------------------------------------------------------------------*/
FoamFile
{
    version     2.0;
    format      ascii;
    arch        "LSB;label=32;scalar=64";
    class       volScalarField;
    location    "0.00184";
    object      prefDh_H2;
}
// * * * * * * * * * * * * * * * * * * * * * * * * * * * * * * * * * * * * * //

dimensions      [1 1 -3 0 0 0 0];

internalField   nonuniform List<scalar> 
530
(
3981.18698
3987.44418
3993.3616
3999.42153
4005.12652
4010.99845
4016.50542
4022.1987
4027.52098
4033.045
4038.19493
4043.55908
4048.55658
4053.78564
4058.64003
4063.72541
4068.43752
4073.36225
4077.72451
4082.32579
4086.56374
4091.04498
4095.16496
4099.53158
4103.53965
4107.79688
4111.69886
4115.85171
4119.65321
4123.7065
4127.413
4131.3714
4134.98819
4138.85628
4142.38848
4146.17078
4149.62335
4153.32441
4156.70211
4160.32653
4163.63393
4167.18641
4170.32918
4173.68328
4176.72785
4180.01219
4182.9893
4186.20584
4189.11748
4192.26805
4195.1162
4198.20258
4200.98917
4204.01308
4206.73994
4209.70312
4212.37199
4215.27614
4217.88869
4220.73553
4223.29336
4226.08457
4228.62175
4231.45789
4233.97766
4236.75647
4239.22303
4241.94649
4244.36154
4247.03158
4249.39678
4252.01529
4254.33233
4256.90116
4259.1717
4261.6927
4263.91839
4266.39344
4268.57589
4271.00698
4273.14772
4275.53691
4277.63743
4279.9826
4281.98518
4284.22986
4286.1894
4288.39113
4290.30774
4292.46716
4294.34104
4296.45864
4298.29009
4300.36621
4302.15561
4304.19053
4305.93825
4307.93222
4309.63865
4311.5919
4313.25737
4315.17015
4316.79496
4318.66749
4320.25192
4322.08443
4323.62871
4325.42142
4326.92576
4328.67889
4330.14349
4331.85723
4333.28227
4334.95681
4336.34243
4337.97796
4339.32432
4340.921
4342.22822
4343.78621
4345.05441
4346.57388
4347.80317
4349.28424
4350.47473
4351.91753
4353.06931
4354.47399
4355.58714
4356.9538
4358.02843
4359.35718
4360.39335
4361.6843
4362.6821
4363.93535
4364.89487
4366.11049
4367.03181
4368.20992
4369.0931
4370.23378
4371.07891
4372.18226
4372.9894
4374.05555
4374.82474
4375.85383
4376.58511
4377.5773
4378.2707
4379.2262
4379.88179
4380.80074
4381.41885
4382.30113
4382.88274
4383.72759
4384.27494
4385.08038
4385.59734
4386.33274
4386.83638
4387.52292
4388.02679
4388.6398
4389.1417
4389.68432
4390.18199
4390.65717
4391.14877
4391.55874
4392.04318
4392.38929
4392.86645
4393.14913
4393.60735
4393.85054
4394.27944
4394.4822
4394.88309
4395.04519
4395.41874
4395.54048
4395.88739
4395.97137
4396.29066
4396.33412
4396.62326
4396.62671
4396.88503
4396.84903
4397.07585
4397.00098
4397.19564
4397.08246
4397.24435
4397.09339
4397.22198
4397.03372
4397.12853
4396.90343
4396.96405
4396.7025
4396.72859
4396.43095
4396.42222
4396.08883
4396.04505
4395.6762
4395.59716
4395.19314
4395.0787
4394.63977
4394.48981
4394.01622
4393.83065
4393.32264
4393.10141
4392.55923
4392.30229
4391.72618
4391.43352
4390.82374
4390.49532
4389.85218
4389.48797
4388.81179
4388.41173
4387.7029
4387.26692
4386.52585
4386.0539
4385.28099
4384.77307
4383.96866
4383.4249
4382.58916
4382.00994
4381.14273
4380.52884
4379.6295
4378.98233
4378.04956
4377.3712
4376.40292
4375.71254
4374.70469
4373.9611
4372.93999
4372.14726
4371.1098
4370.27111
4369.215
4368.33289
4367.25647
4366.33297
4365.23503
4364.27183
4363.15148
4362.15
4361.0066
4359.9681
4358.80118
4357.72676
4356.53598
4355.42668
4354.21179
4353.06854
4351.82939
4350.65307
4349.38958
4348.18103
4346.89315
4345.65317
4344.34093
4343.07029
4341.73375
4340.43318
4339.07247
4337.74269
4336.35795
4334.99966
4333.59108
4332.20496
4330.77276
4329.35947
4327.90392
4326.4641
4324.98548
4323.51978
4322.0184
4320.52744
4319.00364
4317.48805
4315.94219
4314.40365
4312.83957
4311.28001
4309.69469
4308.11245
4306.50632
4304.90201
4303.27551
4301.64974
4300.00334
4298.35671
4296.69088
4295.024
4293.33923
4291.6527
4289.94949
4288.24392
4286.52277
4284.79876
4283.0602
4281.31836
4279.56291
4277.80385
4276.03205
4274.25636
4272.46876
4270.67706
4268.87421
4267.0671
4265.24956
4263.42765
4261.59598
4259.75988
4257.91465
4256.06497
4254.20676
4252.34411
4250.4735
4248.59849
4246.71605
4244.82931
4242.93561
4241.03775
4239.13339
4237.22504
4235.3177
4233.40833
4231.49297
4229.57354
4227.64857
4225.71972
4223.78577
4221.84814
4219.90582
4217.96006
4216.00999
4214.05672
4212.09952
4210.13938
4208.17566
4206.20928
4204.23968
4202.26767
4200.2928
4198.3158
4196.33627
4194.35489
4192.37132
4190.38617
4188.39918
4186.41087
4184.42105
4182.4302
4180.43816
4178.44537
4176.4517
4174.45757
4172.46287
4170.46798
4168.47285
4166.47779
4164.4828
4162.48816
4160.49389
4158.50024
4156.50727
4154.51517
4152.52407
4150.53409
4148.54541
4146.5581
4144.57239
4142.58832
4140.60612
4138.62582
4136.64766
4134.67169
4132.69809
4130.72697
4128.76
4126.79642
4124.83593
4122.87861
4120.92466
4118.9741
4117.02716
4115.08384
4113.14438
4111.20878
4109.27726
4107.34984
4105.42671
4103.50792
4101.59363
4099.68392
4097.77891
4095.8787
4093.98341
4092.09312
4090.20796
4088.32802
4086.4534
4084.58421
4082.72053
4080.86248
4079.01014
4077.16362
4075.323
4073.48837
4071.65984
4069.83749
4068.02141
4066.21168
4064.4084
4062.61164
4060.8215
4059.03805
4057.26137
4055.49155
4053.72867
4051.9728
4050.22401
4048.48239
4046.74799
4045.02092
4043.3012
4041.58896
4039.8842
4038.18706
4036.49751
4034.81574
4033.14167
4031.47551
4029.81716
4028.16686
4026.52447
4024.88852
4023.20087
4021.40286
4019.48797
4017.45967
4015.30302
4013.0099
4010.57303
4007.98557
4005.24015
4002.32992
3999.24785
3995.98741
3992.54235
3988.90705
3985.07664
3981.04718
3976.81603
3972.38196
3967.7457
3962.90998
3957.88035
3952.66504
3947.27609
3941.72898
3936.04387
3930.23817
3924.34334
3918.40055
3912.45004
3906.53705
3900.71144
3895.02693
3889.53968
3884.30699
3879.3847
3874.82526
3870.67422
3866.96784
3863.72974
3860.96887
3858.67833
3856.83472
3855.40076
3854.3262
3853.55445
3853.02429
3852.6786
3852.46559
3852.34195
3852.2795
3852.23414
3852.20675
3852.19368
3852.18901
3852.18692
3852.18607
3852.18582
3852.18574
3852.18572
3852.18571
3852.18571
3852.18571
3852.18571
3852.18571
3852.18571
3852.18571
3852.18571
3852.18571
3852.18571
3852.18571
3852.18571
3852.18571
3852.18571
3852.18571
3852.18571
3852.18571
3852.18571
)
;

boundaryField
{
    closed
    {
        type            calculated;
        value           nonuniform List<scalar> 0();
    }
    open
    {
        type            calculated;
        value           uniform 3852.18571;
    }
    sides
    {
        type            empty;
    }
    procBoundary5to4
    {
        type            processor;
        value           uniform 3974.72829;
    }
}


// ************************************************************************* //
