/*--------------------------------*- C++ -*----------------------------------*\
| =========                 |                                                 |
| \\      /  F ield         | OpenFOAM: The Open Source CFD Toolbox           |
|  \\    /   O peration     | Version:  2306                                  |
|   \\  /    A nd           | Website:  www.openfoam.com                      |
|    \\/     M anipulation  |                                                 |
\*---------------------------------------------------------------------------*/
FoamFile
{
    version     2.0;
    format      ascii;
    arch        "LSB;label=32;scalar=64";
    class       volScalarField;
    location    "0.0016";
    object      h;
}
// * * * * * * * * * * * * * * * * * * * * * * * * * * * * * * * * * * * * * //

dimensions      [0 2 -2 0 0 0 0];

internalField   nonuniform List<scalar> 
530
(
11935.4655
4823.6278
2369.34983
2282.0535
2274.30789
2273.92553
2273.89612
2273.89471
2273.89462
2273.89461
2273.89461
2273.89461
2273.89461
2273.89461
2273.89461
2273.89461
2273.89461
2273.89461
2273.89461
2273.89461
2273.89461
2273.89461
2273.89461
2273.89461
2273.89461
2273.89461
2273.89461
2273.89461
2273.89461
2273.89461
2273.89461
2273.89461
2273.89461
2273.89461
2273.89461
2273.89461
2273.89461
2273.89461
2273.89461
2273.89461
2273.89461
2273.89461
2273.89461
2273.89461
2273.89461
2273.89461
2273.89461
2273.89461
2273.89461
2273.89461
2273.89461
2273.89461
2273.89461
2273.89461
2273.89461
2273.89461
2273.89461
2273.89461
2273.89462
2273.89466
2273.89474
2273.89503
2273.89586
2273.8977
2273.90345
2273.91536
2273.93538
2273.98435
2274.06535
2274.32059
2274.48918
2275.2891
2276.50152
2277.71958
2278.95593
2283.78519
2288.93829
2292.33264
2297.15916
2308.27635
2319.14245
2335.35235
2362.07567
2356.63031
2118.4372
2026.27101
2295.30422
3531.26686
3507.9678
1622.22676
-2065.94855
-3602.18611
-3712.47082
2265.22335
9566.0988
9554.67446
9741.2476
9418.53847
2619.99414
-4541.57744
-4444.91507
-4286.61856
-4032.57557
-4051.47905
-3671.63516
3947.51685
10280.4631
10295.9345
9874.79773
10459.5495
9405.68126
-2392.19248
-4137.96581
-3736.81289
-3891.93657
-3939.98833
-3966.66298
3048.41612
9944.00566
10061.229
9785.70504
9702.43696
9861.21543
6058.97898
-4869.30306
-5462.19976
-4661.48605
-4528.85907
-4870.64281
100.787024
9533.215
10516.4352
8518.01478
-3204.52935
-5139.04911
-3981.76435
2865.14003
9832.87202
10502.9201
9456.09371
-2471.84134
-4367.79923
-3792.1611
855.549232
10045.3222
9581.73472
-2944.79499
-4563.71735
1487.03526
10068.9134
8652.4648
-2461.69292
-1302.83643
9981.74229
9679.68191
-2919.41508
-4849.15397
861.825768
9897.57096
9548.96177
-2989.44844
-5526.52335
660.727499
9364.63829
10579.7678
9688.87731
-2341.64206
-4789.40101
1232.83283
9963.33621
9690.83891
-2139.79034
-4609.48745
771.202229
9909.22217
9588.55398
-2364.56673
-4699.30995
-3701.47811
-3691.42834
-3867.03291
815.958065
9943.31849
9599.57491
-2642.64272
-4036.03678
4565.90909
10181.8302
9136.42925
-3125.45407
-4516.06443
3737.90724
10145.3537
9237.62592
-2775.67022
-4949.22743
-4467.42631
660.488203
10006.8314
9700.58222
-2168.0107
-2466.28089
9555.12901
9368.93172
-3235.76103
-3044.76329
9487.01609
8719.03305
-4505.70971
-4160.36569
9492.92902
9807.08908
-3198.16207
-4877.7427
4823.41832
9758.36561
2935.33492
-4822.91326
-2375.59709
9435.74127
8780.80885
-4781.93124
-4373.60012
9422.37909
9590.75303
-2609.6679
-5712.15831
-1446.84133
9418.63886
8669.98312
-4977.51584
-4504.60655
9214.79721
8660.36135
-4081.70986
-3462.09874
9463.89358
8845.51777
-3692.69055
-3139.94877
9454.39209
8741.27069
-3703.98635
-3027.33628
9421.60536
8587.39528
-3651.01638
-2698.70103
9448.19807
9198.49764
-3605.7747
-6232.59521
-2445.54856
9685.10281
8575.62645
-3176.90461
-2365.64802
9620.23247
8507.11962
-3214.98144
-1972.96559
9662.63635
9146.11302
-3828.64994
-5983.67775
-1871.5042
9815.19673
8371.50213
-3124.84432
-1736.18652
9798.57931
9054.68822
-4078.99332
-5935.15412
-1612.43886
9848.59719
8199.43341
-3211.18741
-1774.33822
9885.17694
8171.39297
-3193.44048
-1372.31984
9908.00663
8954.57354
-4227.43629
-5751.85165
-1153.94597
9945.43255
8116.99761
-2797.38323
-895.599058
10030.9731
9006.78433
-4056.87966
-4584.78813
-3897.58774
-4766.84892
-977.844597
10038.209
8025.32401
-2398.54597
-258.372366
10089.256
8958.87901
-3614.15452
-4701.26504
742.624983
10073.3735
8912.37114
-3357.51626
-4607.43978
931.601106
10060.1402
8825.05856
-3521.37595
-4644.75695
1124.55112
10061.6336
8826.74352
-3358.91556
-4304.31415
1685.02879
10140.3931
8884.90227
-2992.47936
-3931.35739
2014.8731
10212.7192
8869.6727
-2940.75169
-4266.68485
-3768.92308
337.761123
10043.7197
7482.92171
-1741.67933
863.809287
10059.4439
8625.18296
-4180.26105
-4653.20707
1546.20923
10013.9871
8578.35027
-4010.20151
-4654.34487
1637.30075
10002.6071
8521.55991
-4188.10845
-4725.93603
1633.28513
9994.26873
8473.6406
-4295.68643
-4741.54321
1604.88725
10017.9168
8433.90737
-4432.16389
-4835.08814
-4079.31691
559.43285
9954.20236
6705.84554
-2368.5191
849.573065
10020.7925
8211.97536
-5125.32207
-5118.6794
1288.60705
9952.30586
6718.61204
-2262.59138
1014.88897
10062.0585
7953.10277
-5168.67716
-5159.79189
1356.66164
9920.44327
6524.77645
-2536.70281
910.195824
10025.4072
7590.74477
-5435.21497
-5390.15225
1298.82787
9877.24685
6390.83404
-2722.11827
858.529824
10009.7722
7314.70746
-5496.76097
-5417.78145
1399.91056
9882.98167
6424.57899
-2722.54897
925.037805
10039.8256
7180.9992
-5344.0598
-5227.5935
1976.89919
9890.55718
7326.17342
-5327.74496
-5220.64932
2048.33273
9895.18239
7389.54383
-5486.63174
-5406.74044
1556.38673
9916.87361
6562.64567
-2916.99595
378.877974
10097.4925
6555.71521
-2922.57369
688.545231
10045.7968
7259.01323
-5557.1849
-5527.08249
1437.78986
9955.58264
6897.44847
-2881.52294
199.656159
10184.2483
6974.41604
-2682.21866
754.441989
10159.7907
7545.89529
-4881.66735
-4876.70473
2613.63351
10062.9609
7867.87613
-4738.72587
-4739.45463
-3564.82098
-3620.20264
2489.94553
10157.5292
8041.88391
-4677.46538
-4674.67836
2828.56243
10087.5239
8138.01891
-4997.77358
-4997.28449
2121.28411
10101.9708
7034.40368
-2646.81427
591.547168
10195.4171
6332.0416
-2966.33271
774.43485
10137.9164
6066.70543
-3032.66298
599.192089
10081.2249
7982.87573
-5689.9649
-5724.00822
2022.51261
9929.84015
8250.87045
-5553.97693
-5593.52942
2177.72428
9967.93578
8260.07004
-5360.33676
-5525.67349
2215.51345
9990.24773
8198.75435
-5282.75336
-5593.14832
2531.68421
10100.7709
6170.36613
-2826.67137
914.812663
10136.3618
7023.26065
-4924.23886
-5307.11438
2675.79448
9992.11504
5790.05924
-2805.14912
1147.26126
10007.8452
6689.21209
-4686.63074
-5059.43293
2773.04676
9798.18331
6303.49196
-4842.49785
-4830.13725
4517.96554
9829.20035
10052.8146
5937.24288
-4891.55792
-5363.35586
-4341.48334
-4123.28671
3992.2889
9741.76704
10171.2933
6854.06022
-4138.06125
-4747.1621
)
;

boundaryField
{
    closed
    {
        type            lookUpEnthalpy;
        h0              uniform 257451.45;
        value           uniform 257451.45;
    }
    open
    {
        type            zeroGradient;
    }
    sides
    {
        type            empty;
    }
    procBoundary0to1
    {
        type            processor;
        value           uniform 3025.53092;
    }
}


// ************************************************************************* //
