/*--------------------------------*- C++ -*----------------------------------*\
| =========                 |                                                 |
| \\      /  F ield         | OpenFOAM: The Open Source CFD Toolbox           |
|  \\    /   O peration     | Version:  2306                                  |
|   \\  /    A nd           | Website:  www.openfoam.com                      |
|    \\/     M anipulation  |                                                 |
\*---------------------------------------------------------------------------*/
FoamFile
{
    version     2.0;
    format      ascii;
    arch        "LSB;label=32;scalar=64";
    class       volScalarField;
    location    "0.00166";
    object      alpha;
}
// * * * * * * * * * * * * * * * * * * * * * * * * * * * * * * * * * * * * * //

dimensions      [1 -1 -1 0 0 0 0];

internalField   nonuniform List<scalar> 
531
(
3.57451195e-05
3.52617926e-05
3.52889357e-05
3.47194458e-05
3.4738975e-05
3.67475073e-05
3.68125564e-05
3.67711801e-05
3.68158972e-05
3.67967059e-05
3.55195859e-05
3.50291508e-05
3.6785926e-05
3.67997442e-05
3.57218186e-05
3.46522942e-05
3.4670289e-05
3.67597382e-05
3.68068501e-05
3.67849953e-05
3.68081361e-05
3.68039199e-05
3.57488008e-05
3.53808289e-05
3.50653549e-05
3.5069725e-05
3.6767539e-05
3.68143629e-05
3.54189023e-05
3.51662989e-05
3.67631466e-05
3.68107972e-05
3.53788103e-05
3.52473712e-05
3.6764243e-05
3.67966452e-05
3.67951011e-05
3.5600709e-05
3.51559511e-05
3.6763541e-05
3.67965169e-05
3.67847627e-05
3.68044767e-05
3.57374272e-05
3.5139686e-05
3.51689067e-05
3.50764179e-05
3.46203455e-05
3.46291677e-05
3.67577125e-05
3.68077981e-05
3.67796949e-05
3.6819663e-05
3.67991709e-05
3.57469599e-05
3.52138013e-05
3.52170293e-05
3.6774443e-05
3.68379993e-05
3.57517221e-05
3.55007785e-05
3.67896529e-05
3.68267836e-05
3.58354573e-05
3.56233144e-05
3.52866395e-05
3.52882073e-05
3.67586321e-05
3.68248281e-05
3.63695166e-05
3.56778041e-05
3.52183685e-05
3.53203576e-05
3.49599835e-05
3.49720777e-05
3.67742048e-05
3.6830443e-05
3.67912105e-05
3.68334712e-05
3.5750751e-05
3.55905805e-05
3.67923243e-05
3.68237703e-05
3.59540525e-05
3.5679083e-05
3.52763933e-05
3.52767994e-05
3.68031687e-05
3.68231775e-05
3.57230385e-05
3.5117004e-05
3.5122294e-05
3.67847693e-05
3.6840499e-05
3.56018379e-05
3.54619025e-05
3.68064053e-05
3.68279371e-05
3.68269347e-05
3.57688696e-05
3.53953188e-05
3.52182375e-05
3.52187226e-05
3.67977298e-05
3.57317825e-05
3.50914971e-05
3.67992397e-05
3.68080428e-05
3.57455257e-05
3.51337215e-05
3.51367868e-05
3.67995069e-05
3.68200973e-05
3.68143101e-05
3.58086429e-05
3.52802607e-05
3.52807869e-05
3.67882859e-05
3.6817024e-05
3.57288833e-05
3.50747838e-05
3.50804067e-05
3.67764523e-05
3.68291922e-05
3.55078516e-05
3.52749675e-05
3.67903547e-05
3.68185107e-05
3.68017702e-05
3.68175364e-05
3.58930306e-05
3.54155194e-05
3.54323115e-05
3.51106797e-05
3.51114632e-05
3.67914432e-05
3.68103762e-05
3.57318423e-05
3.50414452e-05
3.52214815e-05
3.67932063e-05
3.58248343e-05
3.51197613e-05
3.68069938e-05
3.68049004e-05
3.57147146e-05
3.49404764e-05
3.49788694e-05
3.67977488e-05
3.68292644e-05
3.68091582e-05
3.68302598e-05
3.68155466e-05
3.57399319e-05
3.5287248e-05
3.5286821e-05
3.68023769e-05
3.68201035e-05
3.58410609e-05
3.54167065e-05
3.54398414e-05
3.51096557e-05
3.51116053e-05
3.68015325e-05
3.68240107e-05
3.56084431e-05
3.52694542e-05
3.6811382e-05
3.68098284e-05
3.5724693e-05
3.50174726e-05
3.50556762e-05
3.68078669e-05
3.68189558e-05
3.68128805e-05
3.68183619e-05
3.68118437e-05
3.57450086e-05
3.54844988e-05
3.51798264e-05
3.51733757e-05
3.68165242e-05
3.68147617e-05
3.56088703e-05
3.46874418e-05
3.47003809e-05
3.68070323e-05
3.68240122e-05
3.68092325e-05
3.68262643e-05
3.57327074e-05
3.5297948e-05
3.68123416e-05
3.68130047e-05
3.5735009e-05
3.53655969e-05
3.50796143e-05
3.50800275e-05
3.68097593e-05
3.68106854e-05
3.68060581e-05
3.68149578e-05
3.57875428e-05
3.54530395e-05
3.52860844e-05
3.52864955e-05
3.68083106e-05
3.68184933e-05
3.57419939e-05
3.53794569e-05
3.51264214e-05
3.51288222e-05
3.68020734e-05
3.68213317e-05
3.53890108e-05
3.52335065e-05
3.68109183e-05
3.68243336e-05
3.53170534e-05
3.53114933e-05
3.68305934e-05
3.68173418e-05
3.6821384e-05
3.56235479e-05
3.52235238e-05
3.68415181e-05
3.68087293e-05
3.57034207e-05
3.50582051e-05
3.50644698e-05
3.6814787e-05
3.68317111e-05
3.56622438e-05
3.54348087e-05
3.68307096e-05
3.68138099e-05
3.57521074e-05
3.55604338e-05
3.52975794e-05
3.53164227e-05
3.68319613e-05
3.57419732e-05
3.51045696e-05
3.6820145e-05
3.68162587e-05
3.54457226e-05
3.52592833e-05
3.68171804e-05
3.68176169e-05
3.5265886e-05
3.5266097e-05
3.68269262e-05
3.68057566e-05
3.68111888e-05
3.55447041e-05
3.51084533e-05
3.68220434e-05
3.68117655e-05
3.5265307e-05
3.52656203e-05
3.68289919e-05
3.68023957e-05
3.6802142e-05
3.57438979e-05
3.51378431e-05
3.48431711e-05
3.48565458e-05
3.68093043e-05
3.67802828e-05
3.67897731e-05
3.54877923e-05
3.50452226e-05
3.68129324e-05
3.6783137e-05
3.67935228e-05
3.67873288e-05
3.57936599e-05
3.53335989e-05
3.52783282e-05
3.51107854e-05
3.43929143e-05
3.44018551e-05
3.68016596e-05
3.67919956e-05
3.67814268e-05
3.67997216e-05
3.67801753e-05
3.6802268e-05
3.57447748e-05
3.51589424e-05
3.68309723e-05
3.67948912e-05
3.57292072e-05
3.49349246e-05
3.49992323e-05
3.68074426e-05
3.68002464e-05
3.67937545e-05
3.57663202e-05
3.54174741e-05
3.53437151e-05
3.52115665e-05
3.46109477e-05
3.46184655e-05
3.68064901e-05
3.68101332e-05
3.67868371e-05
3.68182697e-05
3.67748351e-05
3.57198518e-05
3.49500653e-05
3.49647716e-05
3.68047339e-05
3.68257853e-05
3.54235991e-05
3.5323918e-05
3.68283424e-05
3.68100344e-05
3.68117064e-05
3.56572233e-05
3.52701338e-05
3.68438207e-05
3.68071657e-05
3.57242718e-05
3.5006276e-05
3.50563434e-05
3.68282986e-05
3.68345178e-05
3.68150268e-05
3.57065607e-05
3.50813064e-05
3.50851916e-05
3.68585509e-05
3.68455117e-05
3.57002262e-05
3.50236528e-05
3.50275347e-05
3.68756103e-05
3.68791408e-05
3.55907673e-05
3.52015622e-05
3.6916251e-05
3.6898672e-05
3.56308783e-05
3.48986111e-05
3.49023921e-05
3.69640028e-05
3.69740967e-05
3.53736355e-05
3.4912124e-05
3.7045425e-05
3.70425322e-05
3.54237123e-05
3.4426518e-05
3.45004627e-05
3.70389757e-05
3.71000672e-05
3.70659964e-05
3.70803556e-05
3.70812334e-05
3.70618524e-05
3.51243188e-05
3.47328344e-05
3.68524245e-05
3.6928544e-05
3.686847e-05
3.52075095e-05
3.44003098e-05
3.66058232e-05
3.67543043e-05
3.66547579e-05
3.67080959e-05
3.66622143e-05
3.66785034e-05
3.66493075e-05
3.66578447e-05
3.66362476e-05
3.66506945e-05
3.66443546e-05
3.66745011e-05
3.67102825e-05
3.6779712e-05
3.69373204e-05
3.71921872e-05
3.71211115e-05
3.69466397e-05
3.67272311e-05
3.65619846e-05
3.63743901e-05
3.62312237e-05
3.60781116e-05
3.59668571e-05
3.58412658e-05
3.5692352e-05
3.55523251e-05
3.55582375e-05
3.54805073e-05
3.5312237e-05
3.52134581e-05
3.50511056e-05
3.49981171e-05
3.4854425e-05
3.48151889e-05
3.44428661e-05
3.42547892e-05
3.38729434e-05
3.36784981e-05
3.35042556e-05
3.6024433e-05
3.5585275e-05
3.52598489e-05
3.46682447e-05
3.4303973e-05
3.37190906e-05
3.33100453e-05
3.27341865e-05
3.22740785e-05
3.17002879e-05
3.1347062e-05
3.12571308e-05
3.18710166e-05
3.1415494e-05
3.11042166e-05
3.15907803e-05
3.43532686e-05
3.44227283e-05
3.57393352e-05
3.49569124e-05
4.07112426e-05
4.13871816e-05
4.2459572e-05
4.31503265e-05
4.46553455e-05
4.62428075e-05
4.84457255e-05
5.08226825e-05
5.42688759e-05
5.63088031e-05
5.80060785e-05
5.99844509e-05
6.15631896e-05
6.31072633e-05
6.4297017e-05
6.54221969e-05
6.65026207e-05
6.75228626e-05
6.85922892e-05
6.96683262e-05
7.05292072e-05
7.13126031e-05
7.19388624e-05
7.25380778e-05
7.30898514e-05
7.36400164e-05
7.41308285e-05
7.46454863e-05
7.50844297e-05
7.55566556e-05
7.59499302e-05
7.63911949e-05
7.67222882e-05
7.71294385e-05
7.74050102e-05
7.77888635e-05
7.80469478e-05
7.84101535e-05
7.86573102e-05
7.90204385e-05
7.92813879e-05
7.96765334e-05
7.98353708e-05
8.00276055e-05
8.0165512e-05
8.0347427e-05
8.04775951e-05
8.06553914e-05
8.07848702e-05
8.09491163e-05
8.10671132e-05
8.124028e-05
8.13869749e-05
8.15803915e-05
8.17245504e-05
8.18765966e-05
8.19900721e-05
8.21276631e-05
8.22307025e-05
8.23511442e-05
8.24462547e-05
8.2557784e-05
8.2648915e-05
8.27551232e-05
8.28432806e-05
8.29447844e-05
8.30285718e-05
8.31165504e-05
8.32048312e-05
8.33004576e-05
8.33856708e-05
8.34755607e-05
8.35590398e-05
8.36444231e-05
8.3721399e-05
8.37995994e-05
8.38713156e-05
8.39436791e-05
8.40072293e-05
8.40695688e-05
8.41294883e-05
8.41889768e-05
8.42467692e-05
8.43037103e-05
8.43595756e-05
8.44159724e-05
8.44721518e-05
8.45273567e-05
8.45825649e-05
8.46364694e-05
8.46907921e-05
8.47435612e-05
8.48013971e-05
8.48561349e-05
8.49123305e-05
8.49590663e-05
8.50075372e-05
8.5051495e-05
8.50983622e-05
8.5141077e-05
8.51864148e-05
8.52274342e-05
8.52710622e-05
)
;

boundaryField
{
    closed
    {
        type            calculated;
        value           nonuniform List<scalar> 0();
    }
    open
    {
        type            calculated;
        value           nonuniform List<scalar> 0();
    }
    sides
    {
        type            empty;
    }
    procBoundary4to3
    {
        type            processor;
        value           uniform 3.67999429e-05;
    }
    procBoundary4to5
    {
        type            processor;
        value           uniform 8.53105424e-05;
    }
}


// ************************************************************************* //
