/*--------------------------------*- C++ -*----------------------------------*\
| =========                 |                                                 |
| \\      /  F ield         | OpenFOAM: The Open Source CFD Toolbox           |
|  \\    /   O peration     | Version:  2306                                  |
|   \\  /    A nd           | Website:  www.openfoam.com                      |
|    \\/     M anipulation  |                                                 |
\*---------------------------------------------------------------------------*/
FoamFile
{
    version     2.0;
    format      ascii;
    arch        "LSB;label=32;scalar=64";
    class       surfaceScalarField;
    location    "0.00166";
    object      phi;
}
// * * * * * * * * * * * * * * * * * * * * * * * * * * * * * * * * * * * * * //

dimensions      [1 0 -1 0 0 0 0];

oriented        oriented;

internalField   nonuniform List<scalar> 
530
(
2.54865782e-06
2.56819661e-06
2.5678231e-06
2.53609651e-06
2.55133466e-06
2.52116858e-06
2.52368656e-06
2.50689248e-06
2.51366582e-06
2.50784104e-06
2.58343075e-06
2.59378267e-06
2.60070267e-06
2.60443668e-06
2.62782272e-06
2.63398221e-06
2.58453021e-06
2.59663476e-06
2.59165804e-06
2.57477404e-06
2.57782147e-06
2.57078154e-06
2.58584681e-06
2.61779422e-06
2.59135976e-06
2.58601268e-06
2.57496341e-06
2.58006694e-06
2.62513755e-06
2.62595594e-06
2.61408852e-06
2.60929479e-06
2.64529353e-06
2.64138442e-06
2.63284958e-06
2.62127289e-06
2.61299719e-06
2.60072484e-06
2.59679729e-06
2.57893056e-06
2.56688369e-06
2.5392682e-06
2.52593454e-06
2.52839066e-06
2.54625213e-06
2.54186179e-06
2.53886999e-06
2.48506842e-06
2.42617206e-06
2.42299276e-06
2.40546275e-06
2.37292991e-06
2.36237592e-06
2.32317162e-06
2.33236617e-06
2.3166268e-06
2.29648071e-06
2.30080062e-06
2.28908194e-06
2.30192568e-06
2.29833085e-06
2.29383936e-06
2.29148457e-06
2.30612015e-06
2.32615774e-06
2.28744433e-06
2.28234263e-06
2.25911325e-06
2.26840387e-06
2.40033041e-06
2.4544141e-06
2.42630914e-06
2.43501807e-06
2.42317771e-06
2.38565084e-06
2.41230556e-06
2.41911769e-06
2.41442809e-06
2.42695837e-06
2.46021471e-06
2.47995694e-06
2.48218786e-06
2.49889862e-06
2.55054163e-06
2.59971552e-06
2.58425089e-06
2.5956174e-06
2.57239981e-06
2.58321732e-06
2.6072478e-06
2.59554076e-06
2.630585e-06
2.58141002e-06
2.58956968e-06
2.65022962e-06
2.65021948e-06
2.62881407e-06
2.62484917e-06
2.61324022e-06
2.62323547e-06
2.65083639e-06
2.62719952e-06
2.5922955e-06
2.571229e-06
2.57087124e-06
2.54560736e-06
2.51331155e-06
2.49484546e-06
2.49680964e-06
2.48369323e-06
2.4631655e-06
2.40639867e-06
2.38945101e-06
2.37035032e-06
2.3785975e-06
2.37285337e-06
2.38242353e-06
2.35207026e-06
2.33801723e-06
2.34287896e-06
2.33371699e-06
2.32135446e-06
2.30575349e-06
2.2953113e-06
2.33947138e-06
2.33544795e-06
2.31120367e-06
2.30615052e-06
2.28165251e-06
2.27659989e-06
2.311953e-06
2.33492721e-06
2.32975569e-06
2.31128349e-06
2.29571133e-06
2.27895521e-06
2.27988579e-06
2.28819399e-06
2.28809989e-06
2.23228271e-06
2.2179163e-06
2.23330714e-06
2.23592435e-06
2.208996e-06
2.20465104e-06
2.21523753e-06
2.21328018e-06
2.15731918e-06
2.1415676e-06
2.13680056e-06
2.13102993e-06
2.13283261e-06
2.11568742e-06
2.13304199e-06
2.14165545e-06
2.12304282e-06
2.1128036e-06
2.10718273e-06
2.12743736e-06
2.14172595e-06
2.13670716e-06
2.13571273e-06
2.10821646e-06
2.09501864e-06
2.08819657e-06
2.13685913e-06
2.13088308e-06
2.0937753e-06
2.08789371e-06
2.09121705e-06
2.08882429e-06
2.03250097e-06
2.00808361e-06
1.9993986e-06
1.98756368e-06
1.98428691e-06
1.95951929e-06
1.96359458e-06
1.97215426e-06
1.96305555e-06
1.95301037e-06
1.91047952e-06
1.90160504e-06
1.95050437e-06
1.95046908e-06
1.89049491e-06
1.86323558e-06
1.8526211e-06
1.84185617e-06
1.83184253e-06
1.82083557e-06
1.81520237e-06
1.77732735e-06
1.76787792e-06
1.76096976e-06
1.76030092e-06
1.75760806e-06
1.73076067e-06
1.70947898e-06
1.69632758e-06
1.68405451e-06
1.67709729e-06
1.67605327e-06
1.68008707e-06
1.67526658e-06
1.67706135e-06
1.63936885e-06
1.63282912e-06
1.62545668e-06
1.62271471e-06
1.61272948e-06
1.60414691e-06
1.57139859e-06
1.56678272e-06
1.58828437e-06
1.57855103e-06
1.54536793e-06
1.53361971e-06
1.55286409e-06
1.54390327e-06
1.50448386e-06
1.49270728e-06
1.49757337e-06
1.4918004e-06
1.48157092e-06
1.44587619e-06
1.43586697e-06
1.42281854e-06
1.41873152e-06
1.41462415e-06
1.37871171e-06
1.36601452e-06
1.37490647e-06
1.36194476e-06
1.3349147e-06
1.32503878e-06
1.31457938e-06
1.30494475e-06
1.29496365e-06
1.30185044e-06
1.26919139e-06
1.25952123e-06
1.24896053e-06
1.22834916e-06
1.22187351e-06
1.22210453e-06
1.21213775e-06
1.19475715e-06
1.18518175e-06
1.18051857e-06
1.17607052e-06
1.15361789e-06
1.14874436e-06
1.14098614e-06
1.15025368e-06
1.13501879e-06
1.12104058e-06
1.11202003e-06
1.09963262e-06
1.09013792e-06
1.07719496e-06
1.06986886e-06
1.07172628e-06
1.06275832e-06
1.05450804e-06
1.05031373e-06
1.04911563e-06
1.04051182e-06
1.03822189e-06
1.03030462e-06
1.02225209e-06
1.00014435e-06
9.98729072e-07
9.9383349e-07
9.97822863e-07
9.94709774e-07
9.88807121e-07
9.83264189e-07
9.78102866e-07
9.65888514e-07
9.55101156e-07
9.60162831e-07
9.51942553e-07
9.49992799e-07
9.65957748e-07
9.66862458e-07
9.73490679e-07
9.7295598e-07
9.70805749e-07
9.63736029e-07
9.69937026e-07
9.7178437e-07
9.69491019e-07
9.6578086e-07
9.85197889e-07
9.91159266e-07
9.93176895e-07
9.9600498e-07
9.98066598e-07
9.98067968e-07
1.00073423e-06
9.99395915e-07
9.95422247e-07
9.89774083e-07
1.00613076e-06
1.01237167e-06
1.02354903e-06
1.02693227e-06
1.0330007e-06
1.03756772e-06
1.04176491e-06
1.04826546e-06
1.06083945e-06
1.06624882e-06
1.04539608e-06
1.04951616e-06
1.06567704e-06
1.07206398e-06
1.07904529e-06
1.06347349e-06
1.06017785e-06
1.07186655e-06
1.07597086e-06
1.07405383e-06
1.06736039e-06
1.07750526e-06
1.08160415e-06
1.08043518e-06
1.08410253e-06
1.08281026e-06
1.07197024e-06
1.07494141e-06
1.06652128e-06
1.06705347e-06
1.05686137e-06
1.04700256e-06
1.0640488e-06
1.05722116e-06
1.05986085e-06
1.04027775e-06
1.0430158e-06
1.06549718e-06
1.08287955e-06
1.09151355e-06
1.10645354e-06
1.11184162e-06
1.13262032e-06
1.14111628e-06
1.12815013e-06
1.11828467e-06
1.11172568e-06
1.09780968e-06
1.06378711e-06
1.02581327e-06
1.01274463e-06
9.96818725e-07
9.70851251e-07
9.48332149e-07
9.30717067e-07
9.17709553e-07
9.11767896e-07
8.89425683e-07
8.8022299e-07
9.08942235e-07
9.0658746e-07
9.10610644e-07
9.91597839e-07
9.79557825e-07
9.81281949e-07
9.71260656e-07
9.5237499e-07
9.38804289e-07
9.21800822e-07
9.13061614e-07
9.07021673e-07
9.09942189e-07
9.19469659e-07
9.37401408e-07
9.62319237e-07
9.95797413e-07
1.0379118e-06
1.09009723e-06
1.15967052e-06
1.24357426e-06
1.30453811e-06
1.3849333e-06
1.47379176e-06
1.57502195e-06
1.67600147e-06
1.76885734e-06
1.83659374e-06
1.8637362e-06
1.83158099e-06
1.73009533e-06
1.55423275e-06
1.32279512e-06
1.02293002e-06
7.04693808e-07
3.92428691e-07
1.3267451e-07
-5.26450382e-08
-1.5853097e-07
-2.09997526e-07
-1.63740739e-07
-7.72944047e-08
4.1607632e-08
1.52438475e-07
3.18794878e-07
3.62687436e-07
4.05878684e-07
3.98017254e-07
4.03214207e-07
3.851097e-07
3.71570466e-07
3.49663968e-07
3.2798099e-07
3.01744253e-07
2.74201688e-07
2.78927398e-07
2.81943565e-07
2.65896033e-07
1.98554346e-07
1.95475541e-07
2.38886432e-07
2.27354597e-07
2.15981346e-07
1.78613802e-08
3.70852216e-07
2.96154127e-07
3.61949701e-07
3.95434167e-07
4.53711071e-07
5.31731224e-07
6.46347362e-07
7.32933898e-07
8.66254466e-07
9.76964524e-07
1.01922931e-06
1.07377942e-06
1.12211643e-06
1.17042328e-06
1.19648496e-06
1.22205767e-06
1.24543694e-06
1.26537298e-06
1.28975004e-06
1.3074123e-06
1.3266753e-06
1.34122631e-06
1.35439795e-06
1.36644684e-06
1.37968385e-06
1.39275022e-06
1.40765876e-06
1.42368874e-06
1.44234903e-06
1.46320133e-06
1.48725469e-06
1.5144425e-06
1.54521579e-06
1.57872178e-06
1.61550084e-06
1.65402212e-06
1.69434816e-06
1.73429407e-06
1.77343706e-06
1.80989657e-06
1.84248926e-06
1.86974902e-06
1.89033484e-06
1.90312178e-06
1.90759448e-06
1.90305498e-06
1.88912084e-06
1.86618084e-06
1.83442508e-06
1.79489338e-06
1.74848047e-06
1.6966774e-06
1.64101163e-06
1.5831696e-06
1.52462226e-06
1.46688477e-06
1.41119521e-06
1.35908494e-06
1.31162789e-06
1.26964522e-06
1.233838e-06
1.20467682e-06
1.18229986e-06
1.16674484e-06
1.15774033e-06
1.15496408e-06
1.15783323e-06
1.16564297e-06
1.17780311e-06
1.19384167e-06
1.21279998e-06
1.23401517e-06
1.25686196e-06
1.28064881e-06
1.30484492e-06
1.3290307e-06
1.3527942e-06
1.37587361e-06
1.39800439e-06
1.41899945e-06
1.43881085e-06
1.45742019e-06
1.47480747e-06
1.49102605e-06
1.50612462e-06
1.52019076e-06
1.53332417e-06
1.54560726e-06
1.55711852e-06
1.56794678e-06
1.57814795e-06
1.58778679e-06
1.59689005e-06
1.60549913e-06
1.61360456e-06
1.62121043e-06
1.62824877e-06
1.63476452e-06
1.64073655e-06
1.6461469e-06
1.6509742e-06
1.65520863e-06
1.65884229e-06
)
;

boundaryField
{
    closed
    {
        type            calculated;
        value           nonuniform List<scalar> 0();
    }
    open
    {
        type            calculated;
        value           nonuniform List<scalar> 0();
    }
    sides
    {
        type            empty;
        value           nonuniform List<scalar> 0();
    }
    procBoundary4to3
    {
        type            processor;
        value           uniform -2.54259457e-06;
    }
    procBoundary4to5
    {
        type            processor;
        value           uniform 1.66188292e-06;
    }
}


// ************************************************************************* //
