/*--------------------------------*- C++ -*----------------------------------*\
| =========                 |                                                 |
| \\      /  F ield         | OpenFOAM: The Open Source CFD Toolbox           |
|  \\    /   O peration     | Version:  2306                                  |
|   \\  /    A nd           | Website:  www.openfoam.com                      |
|    \\/     M anipulation  |                                                 |
\*---------------------------------------------------------------------------*/
FoamFile
{
    version     2.0;
    format      ascii;
    arch        "LSB;label=32;scalar=64";
    class       volScalarField;
    location    "0.00166";
    object      prefDZ_H2O;
}
// * * * * * * * * * * * * * * * * * * * * * * * * * * * * * * * * * * * * * //

dimensions      [1 -1 -1 0 0 0 0];

internalField   nonuniform List<scalar> 
531
(
-7.43944211e-07
-7.35535782e-07
-7.35548824e-07
-7.31171899e-07
-7.30931936e-07
-7.80290467e-07
-7.75140075e-07
-7.76779003e-07
-7.74545163e-07
-7.74761359e-07
-7.37511795e-07
-7.33524759e-07
-7.78201523e-07
-7.75531548e-07
-7.39391803e-07
-7.30605051e-07
-7.30401223e-07
-7.78765432e-07
-7.74812876e-07
-7.75809101e-07
-7.73906909e-07
-7.73959559e-07
-7.42953193e-07
-7.36450656e-07
-7.33914798e-07
-7.33753451e-07
-7.78730428e-07
-7.74642552e-07
-7.36927232e-07
-7.34540131e-07
-7.78891037e-07
-7.74473357e-07
-7.36619282e-07
-7.35280883e-07
-7.79256701e-07
-7.7413967e-07
-7.74867983e-07
-7.38388416e-07
-7.34637178e-07
-7.79042516e-07
-7.74973059e-07
-7.75372645e-07
-7.74909001e-07
-7.420685e-07
-7.34514307e-07
-7.34633165e-07
-7.33957244e-07
-7.30235728e-07
-7.3015048e-07
-7.79681961e-07
-7.74894104e-07
-7.76182741e-07
-7.73829539e-07
-7.74068296e-07
-7.45251618e-07
-7.35166648e-07
-7.34771917e-07
-7.77298875e-07
-7.73813472e-07
-7.40129593e-07
-7.37256715e-07
-7.76852137e-07
-7.73313652e-07
-7.50353904e-07
-7.38296143e-07
-7.35794854e-07
-7.35456873e-07
-7.78302533e-07
-7.73470182e-07
-7.70677838e-07
-7.38643911e-07
-7.35312781e-07
-7.35684869e-07
-7.3308594e-07
-7.32753526e-07
-7.78483846e-07
-7.74321109e-07
-7.75063875e-07
-7.73763899e-07
-7.42775736e-07
-7.38032281e-07
-7.76780989e-07
-7.73103955e-07
-7.56571329e-07
-7.38751857e-07
-7.35547351e-07
-7.35360254e-07
-7.76824729e-07
-7.74357108e-07
-7.42764547e-07
-7.3423662e-07
-7.33944335e-07
-7.77112048e-07
-7.73901351e-07
-7.38260604e-07
-7.36890237e-07
-7.77533701e-07
-7.73140569e-07
-7.7385264e-07
-7.46887239e-07
-7.36399579e-07
-7.349646e-07
-7.34899138e-07
-7.77235328e-07
-7.43345345e-07
-7.34003216e-07
-7.76721888e-07
-7.7471097e-07
-7.44819734e-07
-7.34408727e-07
-7.34197642e-07
-7.76331249e-07
-7.73558702e-07
-7.73784102e-07
-7.49378321e-07
-7.35576752e-07
-7.3542936e-07
-7.76841829e-07
-7.7448268e-07
-7.42452279e-07
-7.33927376e-07
-7.33668672e-07
-7.77128009e-07
-7.74292258e-07
-7.37511897e-07
-7.35387039e-07
-7.77947099e-07
-7.74118547e-07
-7.74987949e-07
-7.73969164e-07
-7.5371649e-07
-7.36625184e-07
-7.36808257e-07
-7.34136863e-07
-7.34071152e-07
-7.77075722e-07
-7.74818949e-07
-7.42289042e-07
-7.33688682e-07
-7.34937742e-07
-7.76454635e-07
-7.50470922e-07
-7.34255324e-07
-7.76232397e-07
-7.74977516e-07
-7.41571503e-07
-7.32848642e-07
-7.32821079e-07
-7.76847873e-07
-7.74071306e-07
-7.75025026e-07
-7.73377787e-07
-7.73551746e-07
-7.44599948e-07
-7.35620148e-07
-7.3542857e-07
-7.76006825e-07
-7.73898802e-07
-7.51310564e-07
-7.36643258e-07
-7.36778473e-07
-7.34111318e-07
-7.33972135e-07
-7.76654766e-07
-7.74354484e-07
-7.38252522e-07
-7.3543909e-07
-7.75909382e-07
-7.74632928e-07
-7.41912756e-07
-7.3344368e-07
-7.33537971e-07
-7.76408271e-07
-7.74046329e-07
-7.74808498e-07
-7.73408331e-07
-7.73487034e-07
-7.43881089e-07
-7.37277233e-07
-7.34636909e-07
-7.34602851e-07
-7.76532624e-07
-7.75120425e-07
-7.38187414e-07
-7.30685949e-07
-7.30541625e-07
-7.76845453e-07
-7.75043215e-07
-7.74891222e-07
-7.74598231e-07
-7.39975439e-07
-7.35666731e-07
-7.75496239e-07
-7.74125392e-07
-7.40945727e-07
-7.36318881e-07
-7.33895638e-07
-7.33848957e-07
-7.76963314e-07
-7.74456222e-07
-7.74751733e-07
-7.74095427e-07
-7.46677427e-07
-7.36977063e-07
-7.35660776e-07
-7.3551418e-07
-7.75931274e-07
-7.74070237e-07
-7.40395215e-07
-7.36393752e-07
-7.34347948e-07
-7.34196664e-07
-7.76591873e-07
-7.74349316e-07
-7.36543484e-07
-7.35043147e-07
-7.76541414e-07
-7.74078353e-07
-7.35860618e-07
-7.35702047e-07
-7.76620006e-07
-7.73623414e-07
-7.74553852e-07
-7.38320163e-07
-7.35104118e-07
-7.75164571e-07
-7.74682135e-07
-7.40617907e-07
-7.33767329e-07
-7.33506435e-07
-7.75354964e-07
-7.74111662e-07
-7.38741615e-07
-7.36781885e-07
-7.75032805e-07
-7.73637503e-07
-7.44532122e-07
-7.37954838e-07
-7.35656279e-07
-7.35882305e-07
-7.75619901e-07
-7.41561956e-07
-7.34032849e-07
-7.75707415e-07
-7.74401785e-07
-7.369846e-07
-7.35314135e-07
-7.76337702e-07
-7.74165371e-07
-7.35475101e-07
-7.35377964e-07
-7.76964025e-07
-7.7399501e-07
-7.75468941e-07
-7.37781989e-07
-7.3413118e-07
-7.76272563e-07
-7.74426651e-07
-7.35468364e-07
-7.35404017e-07
-7.76804143e-07
-7.73644128e-07
-7.75134319e-07
-7.40545046e-07
-7.3460547e-07
-7.31961366e-07
-7.32197596e-07
-7.77565224e-07
-7.74819342e-07
-7.76158223e-07
-7.37450264e-07
-7.33815217e-07
-7.77017302e-07
-7.7494077e-07
-7.75156907e-07
-7.74677303e-07
-7.45691348e-07
-7.36231454e-07
-7.35773291e-07
-7.34347489e-07
-7.28456572e-07
-7.28409884e-07
-7.78609621e-07
-7.76044354e-07
-7.77171468e-07
-7.75659772e-07
-7.75174031e-07
-7.75170938e-07
-7.40089275e-07
-7.34681798e-07
-7.75357894e-07
-7.75044885e-07
-7.40847396e-07
-7.32876778e-07
-7.33155651e-07
-7.76159e-07
-7.73893536e-07
-7.74343432e-07
-7.44145977e-07
-7.36882878e-07
-7.36208958e-07
-7.3510478e-07
-7.30129192e-07
-7.30062891e-07
-7.77934407e-07
-7.74961017e-07
-7.76522168e-07
-7.73955067e-07
-7.74957679e-07
-7.4079755e-07
-7.3308383e-07
-7.32737078e-07
-7.76237575e-07
-7.74411977e-07
-7.36855323e-07
-7.35843901e-07
-7.76871515e-07
-7.73648472e-07
-7.74586998e-07
-7.38682868e-07
-7.35532505e-07
-7.75419335e-07
-7.74680651e-07
-7.42735272e-07
-7.33318327e-07
-7.33451252e-07
-7.76128716e-07
-7.73579064e-07
-7.74458825e-07
-7.41720808e-07
-7.33812316e-07
-7.33623849e-07
-7.75272583e-07
-7.74471898e-07
-7.42694589e-07
-7.33129317e-07
-7.32965928e-07
-7.75149784e-07
-7.73963424e-07
-7.37709682e-07
-7.34339105e-07
-7.74886877e-07
-7.73934071e-07
-7.41282301e-07
-7.31512992e-07
-7.31315901e-07
-7.74665925e-07
-7.73465685e-07
-7.35102682e-07
-7.30952956e-07
-7.74041045e-07
-7.73459109e-07
-7.3574499e-07
-7.26135082e-07
-7.26344979e-07
-7.74208852e-07
-7.71341396e-07
-7.719515e-07
-7.69525988e-07
-7.69390555e-07
-7.67636935e-07
-7.33395829e-07
-7.26307492e-07
-7.66877145e-07
-7.65040707e-07
-7.63625984e-07
-7.41510802e-07
-7.21143246e-07
-7.62333262e-07
-7.56202534e-07
-7.57433222e-07
-7.52566801e-07
-7.52508564e-07
-7.48665052e-07
-7.47664989e-07
-7.44560932e-07
-7.42941995e-07
-7.40341701e-07
-7.38296175e-07
-7.36156366e-07
-7.33974322e-07
-7.32370571e-07
-7.30889287e-07
-7.30910584e-07
-7.28838033e-07
-7.26302394e-07
-7.22703084e-07
-7.19597104e-07
-7.15544191e-07
-7.11909067e-07
-7.07307631e-07
-7.03163386e-07
-6.97981331e-07
-6.93700949e-07
-6.89385377e-07
-6.88273538e-07
-6.86495466e-07
-6.81597612e-07
-6.77540439e-07
-6.69926015e-07
-6.65100503e-07
-6.55401956e-07
-6.49636765e-07
-6.36960052e-07
-6.30067705e-07
-6.16926372e-07
-6.09574754e-07
-5.98889009e-07
-6.21266712e-07
-6.06880733e-07
-5.97543617e-07
-5.8132218e-07
-5.70964987e-07
-5.54694175e-07
-5.43077965e-07
-5.26850151e-07
-5.13806862e-07
-4.97504253e-07
-4.84503245e-07
-4.73150717e-07
-4.66749157e-07
-4.52877437e-07
-4.5376383e-07
-4.15338914e-07
-3.79529491e-07
-3.80186356e-07
-3.09400633e-07
-3.34039275e-07
-1.44306528e-07
-1.30475618e-07
-6.66072146e-08
-5.07827682e-08
2.61253778e-08
7.17875779e-08
1.7321779e-07
2.55022775e-07
4.22913815e-07
5.12869183e-07
6.23652126e-07
7.25412494e-07
8.31523213e-07
9.10815016e-07
9.88218783e-07
1.04134202e-06
1.10927959e-06
1.15914685e-06
1.22535197e-06
1.27895048e-06
1.33368242e-06
1.37357144e-06
1.41520205e-06
1.44601878e-06
1.48245866e-06
1.51052851e-06
1.54225992e-06
1.56775268e-06
1.59472445e-06
1.61637382e-06
1.63883282e-06
1.65862248e-06
1.67873607e-06
1.6981707e-06
1.71619968e-06
1.73518221e-06
1.75235564e-06
1.77112633e-06
1.78743523e-06
1.80664076e-06
1.82337654e-06
1.84387063e-06
1.85528032e-06
1.86649091e-06
1.87647441e-06
1.88708446e-06
1.89623983e-06
1.90685568e-06
1.91582435e-06
1.9259693e-06
1.93424246e-06
1.94504143e-06
1.9546673e-06
1.96649166e-06
1.97558919e-06
1.98498411e-06
1.99224217e-06
2.00093998e-06
2.00761916e-06
2.01555253e-06
2.02169167e-06
2.02910443e-06
2.03500467e-06
2.04222035e-06
2.04785757e-06
2.05478578e-06
2.06012514e-06
2.06645022e-06
2.07201801e-06
2.07862201e-06
2.08389147e-06
2.0900853e-06
2.09510312e-06
2.10093543e-06
2.10555759e-06
2.11096216e-06
2.11525648e-06
2.12030048e-06
2.12418038e-06
2.12873307e-06
2.1323879e-06
2.13671919e-06
2.14021231e-06
2.14434068e-06
2.14768728e-06
2.151789e-06
2.15518835e-06
2.15918197e-06
2.16250022e-06
2.16636686e-06
2.16960913e-06
2.17335673e-06
2.1767345e-06
2.18049568e-06
2.18373806e-06
2.18695028e-06
2.18970903e-06
2.19271698e-06
2.1953669e-06
2.19824897e-06
2.2007969e-06
2.20354639e-06
2.20599167e-06
)
;

boundaryField
{
    closed
    {
        type            calculated;
        value           nonuniform List<scalar> 0();
    }
    open
    {
        type            calculated;
        value           nonuniform List<scalar> 0();
    }
    sides
    {
        type            empty;
    }
    procBoundary4to3
    {
        type            processor;
        value           uniform -7.73799203e-07;
    }
    procBoundary4to5
    {
        type            processor;
        value           uniform 2.20861787e-06;
    }
}


// ************************************************************************* //
