/*--------------------------------*- C++ -*----------------------------------*\
| =========                 |                                                 |
| \\      /  F ield         | OpenFOAM: The Open Source CFD Toolbox           |
|  \\    /   O peration     | Version:  2306                                  |
|   \\  /    A nd           | Website:  www.openfoam.com                      |
|    \\/     M anipulation  |                                                 |
\*---------------------------------------------------------------------------*/
FoamFile
{
    version     2.0;
    format      ascii;
    arch        "LSB;label=32;scalar=64";
    class       volScalarField;
    location    "0.0009";
    object      prefDZ_T;
}
// * * * * * * * * * * * * * * * * * * * * * * * * * * * * * * * * * * * * * //

dimensions      [1 -1 -1 -1 0 0 0];

internalField   nonuniform List<scalar> 
530
(
-1.23193239e-09
-1.1883178e-09
-1.18783452e-09
-1.21925128e-09
-1.22841885e-09
-1.21453167e-09
-1.18803537e-09
-1.18775019e-09
-1.21797588e-09
-1.22838811e-09
-1.21766061e-09
-1.1882862e-09
-1.1881404e-09
-1.23313217e-09
-1.22764964e-09
-1.20850033e-09
-1.18780636e-09
-1.18732246e-09
-1.19104702e-09
-1.22995344e-09
-1.22703189e-09
-1.22685043e-09
-1.2272061e-09
-1.19720563e-09
-1.18680162e-09
-1.18783399e-09
-1.2298028e-09
-1.22775143e-09
-1.20562961e-09
-1.18792827e-09
-1.18745322e-09
-1.18961178e-09
-1.23017079e-09
-1.22764188e-09
-1.20108263e-09
-1.18722026e-09
-1.18852003e-09
-1.23036695e-09
-1.22782112e-09
-1.20016871e-09
-1.18716255e-09
-1.18900955e-09
-1.23075496e-09
-1.22741026e-09
-1.22760893e-09
-1.22792967e-09
-1.19599933e-09
-1.18754101e-09
-1.1872342e-09
-1.18908983e-09
-1.22889441e-09
-1.22710875e-09
-1.19624093e-09
-1.18804423e-09
-1.18750179e-09
-1.18921228e-09
-1.2288331e-09
-1.2270408e-09
-1.20089426e-09
-1.18781995e-09
-1.18929465e-09
-1.22835941e-09
-1.22605332e-09
-1.19413829e-09
-1.18928888e-09
-1.23347261e-09
-1.22730447e-09
-1.19692793e-09
-1.18665714e-09
-1.18820401e-09
-1.22908723e-09
-1.22653968e-09
-1.1915127e-09
-1.18841047e-09
-1.23173827e-09
-1.226949e-09
-1.19039708e-09
-1.18835861e-09
-1.23031894e-09
-1.22777732e-09
-1.19375421e-09
-1.18655282e-09
-1.18821051e-09
-1.22903072e-09
-1.22672281e-09
-1.19121438e-09
-1.18884857e-09
-1.22966434e-09
-1.22762697e-09
-1.19416435e-09
-1.18667314e-09
-1.18832934e-09
-1.22914986e-09
-1.22674487e-09
-1.19106912e-09
-1.18848265e-09
-1.2304737e-09
-1.22703688e-09
-1.19044238e-09
-1.18872419e-09
-1.23014583e-09
-1.22759442e-09
-1.19548295e-09
-1.18721144e-09
-1.18905392e-09
-1.22879021e-09
-1.22709152e-09
-1.19735951e-09
-1.18736473e-09
-1.18902479e-09
-1.22883028e-09
-1.22710318e-09
-1.19717108e-09
-1.18732029e-09
-1.18858441e-09
-1.22940884e-09
-1.22648231e-09
-1.19264147e-09
-1.18938242e-09
-1.23136934e-09
-1.22735643e-09
-1.19583588e-09
-1.18703297e-09
-1.18861478e-09
-1.22979432e-09
-1.22705922e-09
-1.19885769e-09
-1.18769656e-09
-1.18903661e-09
-1.22967165e-09
-1.22689184e-09
-1.19932232e-09
-1.18771285e-09
-1.18890056e-09
-1.22981641e-09
-1.22704985e-09
-1.19816645e-09
-1.18734711e-09
-1.18820996e-09
-1.23043836e-09
-1.22655249e-09
-1.1936533e-09
-1.18947319e-09
-1.23290685e-09
-1.22720229e-09
-1.19733431e-09
-1.1876041e-09
-1.18894364e-09
-1.23012926e-09
-1.22702045e-09
-1.19772463e-09
-1.18744716e-09
-1.18843363e-09
-1.23044218e-09
-1.22654661e-09
-1.19312691e-09
-1.18931481e-09
-1.23288275e-09
-1.22710683e-09
-1.19619783e-09
-1.18773856e-09
-1.18920634e-09
-1.22991983e-09
-1.22693737e-09
-1.19620164e-09
-1.18739104e-09
-1.18852579e-09
-1.23015984e-09
-1.22640587e-09
-1.19263074e-09
-1.1893141e-09
-1.23226416e-09
-1.22683579e-09
-1.19454359e-09
-1.18773882e-09
-1.18945822e-09
-1.22948427e-09
-1.22650804e-09
-1.19556653e-09
-1.18777667e-09
-1.1897713e-09
-1.2292753e-09
-1.22547874e-09
-1.20090766e-09
-1.19060334e-09
-1.19196388e-09
-1.19235983e-09
-1.19065899e-09
-1.192604e-09
-1.22826568e-09
-1.22593857e-09
-1.19271554e-09
-1.18896558e-09
-1.23247636e-09
-1.22675208e-09
-1.1910498e-09
-1.18905732e-09
-1.23277573e-09
-1.22747847e-09
-1.19137355e-09
-1.18665973e-09
-1.1879813e-09
-1.23088047e-09
-1.22722024e-09
-1.19129678e-09
-1.18855266e-09
-1.23358478e-09
-1.2273041e-09
-1.19106923e-09
-1.18908137e-09
-1.23344763e-09
-1.22764093e-09
-1.19127588e-09
-1.18678558e-09
-1.18813174e-09
-1.23102422e-09
-1.22697189e-09
-1.19139477e-09
-1.1886459e-09
-1.23378001e-09
-1.22700806e-09
-1.19095206e-09
-1.18909348e-09
-1.23365633e-09
-1.22744417e-09
-1.19119129e-09
-1.18675043e-09
-1.18810537e-09
-1.2310819e-09
-1.22671681e-09
-1.19154695e-09
-1.18879046e-09
-1.2340577e-09
-1.22707743e-09
-1.19108171e-09
-1.18918897e-09
-1.23408839e-09
-1.22749666e-09
-1.19172174e-09
-1.18692764e-09
-1.18843623e-09
-1.23102425e-09
-1.22681561e-09
-1.19326513e-09
-1.18999594e-09
-1.23342836e-09
-1.22703762e-09
-1.19325798e-09
-1.1874779e-09
-1.18952301e-09
-1.23051499e-09
-1.22703759e-09
-1.19363221e-09
-1.18728931e-09
-1.18892481e-09
-1.23054196e-09
-1.22648822e-09
-1.19378653e-09
-1.19024933e-09
-1.23284538e-09
-1.22678272e-09
-1.19375238e-09
-1.18768579e-09
-1.18999132e-09
-1.22997475e-09
-1.22648487e-09
-1.19471092e-09
-1.18769565e-09
-1.19005422e-09
-1.22994911e-09
-1.22634608e-09
-1.19520121e-09
-1.1876997e-09
-1.18987357e-09
-1.2300958e-09
-1.22631714e-09
-1.19555671e-09
-1.18752641e-09
-1.18942957e-09
-1.23028247e-09
-1.22643647e-09
-1.19542649e-09
-1.18733265e-09
-1.18822366e-09
-1.23067716e-09
-1.2259097e-09
-1.19410927e-09
-1.18982844e-09
-1.23318449e-09
-1.22653769e-09
-1.1958972e-09
-1.18757126e-09
-1.1888674e-09
-1.23015675e-09
-1.22649708e-09
-1.19753901e-09
-1.18775866e-09
-1.18920495e-09
-1.22976641e-09
-1.22652867e-09
-1.19783981e-09
-1.18782122e-09
-1.18922954e-09
-1.22934074e-09
-1.22681592e-09
-1.19781633e-09
-1.18787862e-09
-1.18934112e-09
-1.22873338e-09
-1.22727242e-09
-1.19774551e-09
-1.18798482e-09
-1.18951008e-09
-1.22851623e-09
-1.22788111e-09
-1.19707148e-09
-1.18780841e-09
-1.18959928e-09
-1.22878736e-09
-1.22890933e-09
-1.19544003e-09
-1.18718374e-09
-1.18850581e-09
-1.22820882e-09
-1.22613529e-09
-1.23018372e-09
-1.190983e-09
-1.18670325e-09
-1.18846214e-09
-1.22881054e-09
-1.23009055e-09
-1.19391026e-09
-1.18724142e-09
-1.18954611e-09
-1.22854674e-09
-1.23011485e-09
-1.19375003e-09
-1.18737175e-09
-1.18923165e-09
-1.22802449e-09
-1.23099455e-09
-1.19197632e-09
-1.19202219e-09
-1.22904467e-09
-1.23008732e-09
-1.19199949e-09
-1.18743427e-09
-1.18959187e-09
-1.22758629e-09
-1.23111663e-09
-1.19281454e-09
-1.19354689e-09
-1.2280635e-09
-1.22949974e-09
-1.19254183e-09
-1.18903126e-09
-1.18927157e-09
-1.18826338e-09
-1.19027807e-09
-1.22766671e-09
-1.23160825e-09
-1.19244285e-09
-1.19347632e-09
-1.22820412e-09
-1.23045271e-09
-1.19073787e-09
-1.18674973e-09
-1.18968303e-09
-1.2279809e-09
-1.23118994e-09
-1.19054236e-09
-1.18971479e-09
-1.23113248e-09
-1.23156093e-09
-1.19014984e-09
-1.18927205e-09
-1.23124424e-09
-1.23178441e-09
-1.18978299e-09
-1.18913949e-09
-1.23127135e-09
-1.23171341e-09
-1.18982165e-09
-1.18928022e-09
-1.23114963e-09
-1.2314091e-09
-1.19013103e-09
-1.18960209e-09
-1.23091421e-09
-1.23087982e-09
-1.19050834e-09
-1.19006187e-09
-1.2311079e-09
-1.23082554e-09
-1.19077589e-09
-1.18595997e-09
-1.18941264e-09
-1.2282295e-09
-1.22993651e-09
-1.19042108e-09
-1.18946529e-09
-1.23229612e-09
-1.2297954e-09
-1.19085285e-09
-1.18941068e-09
-1.23157649e-09
-1.22960846e-09
-1.19106458e-09
-1.1898351e-09
-1.23176062e-09
-1.23039016e-09
-1.19086811e-09
-1.18564147e-09
-1.18897605e-09
-1.22808057e-09
-1.22935653e-09
-1.19065828e-09
-1.18908833e-09
-1.23228053e-09
-1.22911491e-09
-1.19141219e-09
-1.18922477e-09
-1.23288687e-09
-1.22875131e-09
-1.19136296e-09
-1.19024977e-09
-1.22990221e-09
-1.22946002e-09
-1.19151935e-09
-1.18685452e-09
-1.1892254e-09
-1.22821039e-09
-1.22585761e-09
-1.23054283e-09
-1.19238975e-09
-1.18823586e-09
-1.18829695e-09
-1.18751515e-09
-1.18919914e-09
-1.22806969e-09
-1.22604294e-09
-1.22978004e-09
-1.19207501e-09
-1.19051644e-09
-1.22963029e-09
-1.22889972e-09
-1.1914778e-09
-1.18650983e-09
-1.18930559e-09
-1.22735545e-09
-1.22747223e-09
-1.19179384e-09
-1.19029354e-09
-1.22944171e-09
-1.22808584e-09
-1.19340389e-09
-1.18718458e-09
-1.1907374e-09
-1.22704802e-09
-1.22762416e-09
-1.19440669e-09
-1.18733882e-09
-1.19087454e-09
-1.22708498e-09
-1.22751659e-09
-1.19476109e-09
-1.18745731e-09
-1.19066181e-09
-1.22719494e-09
-1.22745751e-09
-1.19476547e-09
-1.18733047e-09
-1.1904094e-09
-1.22728704e-09
-1.22749898e-09
-1.1942859e-09
-1.18688889e-09
-1.18997138e-09
-1.22733573e-09
-1.22766825e-09
-1.19365552e-09
-1.18673761e-09
-1.19091353e-09
-1.22820027e-09
-1.22813982e-09
-1.18922717e-09
-1.18913347e-09
-1.22837742e-09
-1.22819004e-09
-1.19328185e-09
-1.18634317e-09
-1.18975221e-09
-1.22796251e-09
-1.22789014e-09
-1.18948061e-09
-1.18886324e-09
-1.22857498e-09
-1.22747957e-09
-1.19128851e-09
-1.18942954e-09
-1.23091745e-09
-1.22788623e-09
-1.19415669e-09
-1.18684171e-09
-1.18967111e-09
-1.22731072e-09
-1.22764114e-09
-1.19477888e-09
-1.18699823e-09
-1.19015985e-09
-1.22729656e-09
-1.22759427e-09
-1.19477204e-09
-1.18709324e-09
-1.19020593e-09
-1.22742968e-09
-1.22757955e-09
-1.19471961e-09
-1.18726824e-09
-1.1904249e-09
-1.22744695e-09
-1.22743818e-09
-1.19492965e-09
-1.18756538e-09
-1.19088801e-09
-1.22744093e-09
-1.22744447e-09
-1.19482488e-09
-1.18749394e-09
-1.19039416e-09
)
;

boundaryField
{
    closed
    {
        type            calculated;
        value           nonuniform List<scalar> 0();
    }
    open
    {
        type            calculated;
        value           nonuniform List<scalar> 0();
    }
    sides
    {
        type            empty;
    }
    procBoundary2to1
    {
        type            processor;
        value           uniform -1.22880422e-09;
    }
    procBoundary2to3
    {
        type            processor;
        value           uniform -1.22758672e-09;
    }
}


// ************************************************************************* //
