/*--------------------------------*- C++ -*----------------------------------*\
| =========                 |                                                 |
| \\      /  F ield         | OpenFOAM: The Open Source CFD Toolbox           |
|  \\    /   O peration     | Version:  2306                                  |
|   \\  /    A nd           | Website:  www.openfoam.com                      |
|    \\/     M anipulation  |                                                 |
\*---------------------------------------------------------------------------*/
FoamFile
{
    version     2.0;
    format      ascii;
    arch        "LSB;label=32;scalar=64";
    class       volVectorField;
    location    "0.0009";
    object      U;
}
// * * * * * * * * * * * * * * * * * * * * * * * * * * * * * * * * * * * * * //

dimensions      [0 1 -1 0 0 0 0];

internalField   nonuniform List<vector> 
530
(
(1.02727165 0 0)
(1.08292295 0 0)
(1.08293247 0 0)
(1.08112601 0 0)
(1.07501081 0 0)
(1.07962902 0 0)
(1.09199393 0 0)
(1.10352668 0 0)
(1.09984118 0 0)
(1.08544138 0 0)
(1.09077015 0 0)
(1.09779445 0 0)
(1.06521104 0 0)
(1.07140331 0 0)
(1.08182531 0 0)
(1.05735756 0 0)
(1.0580232 0 0)
(1.06687057 0 0)
(1.0782408 0 0)
(1.10615951 0 0)
(1.1108558 0 0)
(1.10876246 0 0)
(1.09342995 0 0)
(1.06312498 0 0)
(1.05700064 0 0)
(1.045105 0 0)
(1.05135554 0 0)
(1.06126367 0 0)
(1.04162657 0 0)
(1.04422284 0 0)
(1.05755189 0 0)
(1.04071465 0 0)
(1.03477824 0 0)
(1.02524648 0 0)
(1.00035906 0 0)
(0.997422444 0 0)
(0.986663838 0 0)
(0.98737923 0 0)
(0.977446548 0 0)
(0.94972693 0 0)
(0.944234909 0 0)
(0.934941145 0 0)
(0.929832022 0 0)
(0.92508106 0 0)
(0.918090918 0 0)
(0.901359239 0 0)
(0.869665597 0 0)
(0.860911856 0 0)
(0.866043206 0 0)
(0.849798176 0 0)
(0.841595766 0 0)
(0.82297726 0 0)
(0.792117945 0 0)
(0.786534331 0 0)
(0.790349525 0 0)
(0.773993677 0 0)
(0.765443266 0 0)
(0.746999924 0 0)
(0.721263088 0 0)
(0.718075426 0 0)
(0.709075802 0 0)
(0.701271216 0 0)
(0.679522048 0 0)
(0.64975907 0 0)
(0.628648554 0 0)
(0.648461811 0 0)
(0.646806381 0 0)
(0.609046379 0 0)
(0.599559035 0 0)
(0.589203781 0 0)
(0.582506171 0 0)
(0.563261394 0 0)
(0.540989674 0 0)
(0.532911505 0 0)
(0.542387691 0 0)
(0.527471703 0 0)
(0.502413075 0 0)
(0.499060762 0 0)
(0.504864389 0 0)
(0.489502021 0 0)
(0.462926605 0 0)
(0.452414109 0 0)
(0.445314408 0 0)
(0.445572216 0 0)
(0.436903638 0 0)
(0.421932966 0 0)
(0.418569145 0 0)
(0.431831143 0 0)
(0.42882996 0 0)
(0.411179883 0 0)
(0.406617994 0 0)
(0.404650616 0 0)
(0.412745906 0 0)
(0.415738915 0 0)
(0.405009827 0 0)
(0.401423455 0 0)
(0.421496289 0 0)
(0.428064752 0 0)
(0.412770775 0 0)
(0.40574048 0 0)
(0.428103536 0 0)
(0.434745179 0 0)
(0.419366137 0 0)
(0.416131308 0 0)
(0.409495011 0 0)
(0.418751883 0 0)
(0.427138192 0 0)
(0.417805918 0 0)
(0.415285027 0 0)
(0.408462263 0 0)
(0.418405753 0 0)
(0.429845883 0 0)
(0.422474136 0 0)
(0.420281688 0 0)
(0.414502676 0 0)
(0.42530604 0 0)
(0.440169893 0 0)
(0.432114149 0 0)
(0.421426814 0 0)
(0.438693117 0 0)
(0.455710841 0 0)
(0.447520828 0 0)
(0.441494579 0 0)
(0.431444361 0 0)
(0.437697612 0 0)
(0.447784804 0 0)
(0.437452521 0 0)
(0.428636237 0 0)
(0.413970389 0 0)
(0.412956329 0 0)
(0.416286322 0 0)
(0.401644931 0 0)
(0.387812506 0 0)
(0.368948385 0 0)
(0.362124177 0 0)
(0.359700997 0 0)
(0.340902168 0 0)
(0.323141949 0 0)
(0.302801715 0 0)
(0.292246513 0 0)
(0.287321769 0 0)
(0.269472082 0 0)
(0.246500278 0 0)
(0.241091343 0 0)
(0.242027029 0 0)
(0.221477486 0 0)
(0.20131128 0 0)
(0.180029382 0 0)
(0.166216682 0 0)
(0.1570549 0 0)
(0.139640432 0 0)
(0.124115762 0 0)
(0.108844801 0 0)
(0.0994792858 0 0)
(0.0966527411 0 0)
(0.0912167906 0 0)
(0.0807273647 0 0)
(0.0859526491 0 0)
(0.100030161 0 0)
(0.0934805674 0 0)
(0.0909618427 0 0)
(0.0863998134 0 0)
(0.090752858 0 0)
(0.0984647416 0 0)
(0.0993910106 0 0)
(0.103895899 0 0)
(0.106914907 0 0)
(0.117344274 0 0)
(0.131420919 0 0)
(0.140918824 0 0)
(0.148094026 0 0)
(0.171102321 0 0)
(0.196985595 0 0)
(0.202914262 0 0)
(0.215537427 0 0)
(0.221181621 0 0)
(0.238973658 0 0)
(0.257042945 0 0)
(0.26462162 0 0)
(0.279212808 0 0)
(0.286709924 0 0)
(0.307004119 0 0)
(0.326927075 0 0)
(0.335688795 0 0)
(0.34974981 0 0)
(0.366112113 0 0)
(0.380908597 0 0)
(0.39196792 0 0)
(0.404386624 0 0)
(0.428631968 0 0)
(0.446009769 0 0)
(0.449934887 0 0)
(0.458848732 0 0)
(0.486869899 0 0)
(0.50935863 0 0)
(0.50964249 0 0)
(0.516688712 0 0)
(0.543188437 0 0)
(0.564677395 0 0)
(0.564486326 0 0)
(0.572669625 0 0)
(0.569697415 0 0)
(0.581712089 0 0)
(0.599228939 0 0)
(0.602136732 0 0)
(0.611317032 0 0)
(0.635840475 0 0)
(0.655950773 0 0)
(0.658808551 0 0)
(0.670916888 0 0)
(0.698207024 0 0)
(0.719914411 0 0)
(0.722094209 0 0)
(0.733927242 0 0)
(0.736013412 0 0)
(0.756367943 0 0)
(0.784090285 0 0)
(0.79225277 0 0)
(0.812510099 0 0)
(0.855357735 0 0)
(0.888474631 0 0)
(0.91028002 0 0)
(0.951023318 0 0)
(1.00575589 0 0)
(1.04738115 0 0)
(1.06842403 0 0)
(1.10990734 0 0)
(1.13770563 0 0)
(1.19028063 0 0)
(1.2416637 0 0)
(1.25642443 0 0)
(1.2935673 0 0)
(1.36080817 0 0)
(1.40096868 0 0)
(1.40952654 0 0)
(1.45060552 0 0)
(1.52279781 0 0)
(1.55991291 0 0)
(1.56488993 0 0)
(1.6045864 0 0)
(1.63006072 0 0)
(1.67853629 0 0)
(1.7157127 0 0)
(1.71156865 0 0)
(1.75192733 0 0)
(1.82022211 0 0)
(1.83514809 0 0)
(1.81834018 0 0)
(1.84858403 0 0)
(1.86692082 0 0)
(1.90442788 0 0)
(1.92953681 0 0)
(1.91301764 0 0)
(1.94613769 0 0)
(1.97138159 0 0)
(2.0194691 0 0)
(2.05108075 0 0)
(2.03857013 0 0)
(2.09019966 0 0)
(2.17236639 0 0)
(2.18752454 0 0)
(2.16848783 0 0)
(2.21012336 0 0)
(2.23646283 0 0)
(2.28057051 0 0)
(2.30316358 0 0)
(2.26490126 0 0)
(2.2851759 0 0)
(2.2923233 0 0)
(2.31864593 0 0)
(2.32560079 0 0)
(2.27508513 0 0)
(2.28547738 0 0)
(2.28038603 0 0)
(2.28770656 0 0)
(2.26802379 0 0)
(2.19055424 0 0)
(2.16725931 0 0)
(2.12437476 0 0)
(2.08529113 0 0)
(2.01885501 0 0)
(1.90844707 0 0)
(1.8457908 0 0)
(1.77025356 0 0)
(1.70555274 0 0)
(1.61035548 0 0)
(1.48186479 0 0)
(1.39780231 0 0)
(1.32797415 0 0)
(1.20520247 0 0)
(1.06602528 0 0)
(0.956187763 0 0)
(0.840856797 0 0)
(0.717952568 0 0)
(0.58293286 0 0)
(0.446736463 0 0)
(0.326912154 0 0)
(0.207201332 0 0)
(0.0739732201 0 0)
(-0.0573796981 0 0)
(-0.182984702 0 0)
(-0.312612085 0 0)
(-0.433547118 0 0)
(-0.566267416 0 0)
(-0.703184269 0 0)
(-0.827166157 0 0)
(-0.944706712 0 0)
(-1.04928941 0 0)
(-1.18449543 0 0)
(-1.32349922 0 0)
(-1.43074138 0 0)
(-1.52664228 0 0)
(-1.57060369 0 0)
(-1.68081084 0 0)
(-1.82518219 0 0)
(-1.902006 0 0)
(-1.96837864 0 0)
(-1.96780317 0 0)
(-2.04291995 0 0)
(-2.15008803 0 0)
(-2.18070262 0 0)
(-2.19915475 0 0)
(-2.15256128 0 0)
(-2.20384771 0 0)
(-2.25953438 0 0)
(-2.30720022 0 0)
(-2.26942424 0 0)
(-2.2273172 0 0)
(-2.13122377 0 0)
(-2.12154454 0 0)
(-2.13992301 0 0)
(-2.0852031 0 0)
(-2.03661284 0 0)
(-1.94381952 0 0)
(-1.92093288 0 0)
(-1.92071066 0 0)
(-1.8647897 0 0)
(-1.82271617 0 0)
(-1.73497884 0 0)
(-1.70793581 0 0)
(-1.7203228 0 0)
(-1.67653338 0 0)
(-1.64150167 0 0)
(-1.65484446 0 0)
(-1.63093917 0 0)
(-1.56422671 0 0)
(-1.51144204 0 0)
(-1.42532417 0 0)
(-1.37577665 0 0)
(-1.35039947 0 0)
(-1.28954216 0 0)
(-1.24222623 0 0)
(-1.22557831 0 0)
(-1.18622729 0 0)
(-1.1192054 0 0)
(-1.06872332 0 0)
(-1.03367237 0 0)
(-0.996560846 0 0)
(-0.929407448 0 0)
(-0.879323312 0 0)
(-0.840612072 0 0)
(-0.789502781 0 0)
(-0.747944241 0 0)
(-0.713564424 0 0)
(-0.669835729 0 0)
(-0.638991554 0 0)
(-0.624146695 0 0)
(-0.567829887 0 0)
(-0.516035328 0 0)
(-0.47189345 0 0)
(-0.44111415 0 0)
(-0.429510083 0 0)
(-0.372730954 0 0)
(-0.313829492 0 0)
(-0.300961591 0 0)
(-0.302502338 0 0)
(-0.254672697 0 0)
(-0.196193829 0 0)
(-0.184124207 0 0)
(-0.192349463 0 0)
(-0.150053442 0 0)
(-0.0899966948 0 0)
(-0.0795300826 0 0)
(-0.100283128 0 0)
(-0.0732314404 0 0)
(-0.0220269379 0 0)
(-0.0223272174 0 0)
(-0.0610502161 0 0)
(-0.0507528149 0 0)
(-0.0158510741 0 0)
(-0.0300775372 0 0)
(-0.0810297941 0 0)
(-0.074591132 0 0)
(-0.0535123836 0 0)
(-0.0744723799 0 0)
(-0.109932661 0 0)
(-0.116253169 0 0)
(-0.132214931 0 0)
(-0.13253384 0 0)
(-0.153152133 0 0)
(-0.209369058 0 0)
(-0.205829423 0 0)
(-0.185472004 0 0)
(-0.223826508 0 0)
(-0.28155122 0 0)
(-0.276402476 0 0)
(-0.258080126 0 0)
(-0.292589574 0 0)
(-0.340454802 0 0)
(-0.331814247 0 0)
(-0.317203129 0 0)
(-0.347858145 0 0)
(-0.383191492 0 0)
(-0.387482083 0 0)
(-0.402225753 0 0)
(-0.416996986 0 0)
(-0.446537565 0 0)
(-0.497926167 0 0)
(-0.47282111 0 0)
(-0.433274451 0 0)
(-0.468782319 0 0)
(-0.52015203 0 0)
(-0.504452426 0 0)
(-0.472282831 0 0)
(-0.49885131 0 0)
(-0.523383863 0 0)
(-0.512476866 0 0)
(-0.491219297 0 0)
(-0.473356977 0 0)
(-0.455851456 0 0)
(-0.435476437 0 0)
(-0.41432574 0 0)
(-0.392858857 0 0)
(-0.356819117 0 0)
(-0.318337869 0 0)
(-0.293492588 0 0)
(-0.26681006 0 0)
(-0.238387395 0 0)
(-0.212267843 0 0)
(-0.183824573 0 0)
(-0.160593337 0 0)
(-0.119431912 0 0)
(-0.0855238894 0 0)
(-0.0863523802 0 0)
(-0.0545868001 0 0)
(-0.00844672995 0 0)
(0.00848360785 0 0)
(0.0237841356 0 0)
(0.0407892113 0 0)
(0.0559080212 0 0)
(0.0795906203 0 0)
(0.101576781 0 0)
(0.0916457148 0 0)
(0.112344881 0 0)
(0.143695466 0 0)
(0.144627414 0 0)
(0.147333626 0 0)
(0.159125629 0 0)
(0.172722787 0 0)
(0.185133823 0 0)
(0.18863137 0 0)
(0.184239732 0 0)
(0.189584805 0 0)
(0.197143865 0 0)
(0.203701971 0 0)
(0.202136433 0 0)
(0.1949962 0 0)
(0.18732535 0 0)
(0.18089243 0 0)
(0.182323255 0 0)
(0.174409275 0 0)
(0.162342167 0 0)
(0.147936932 0 0)
(0.131797803 0 0)
(0.1231069 0 0)
(0.108770824 0 0)
(0.0932254112 0 0)
(0.076477798 0 0)
(0.0580767728 0 0)
(0.0441360595 0 0)
(0.0281147703 0 0)
(0.0113240197 0 0)
(-0.00283857249 0 0)
(-0.0235215228 0 0)
(-0.0329406953 0 0)
(-0.0442538567 0 0)
(-0.081898174 0 0)
(-0.0969272473 0 0)
(-0.107212007 0 0)
(-0.125461442 0 0)
(-0.13586514 0 0)
(-0.148163994 0 0)
(-0.170413411 0 0)
(-0.19087022 0 0)
(-0.20429406 0 0)
(-0.229187593 0 0)
(-0.24338204 0 0)
(-0.261203294 0 0)
(-0.290484081 0 0)
(-0.344035036 0 0)
(-0.34055867 0 0)
(-0.33814184 0 0)
(-0.364259052 0 0)
(-0.360506061 0 0)
(-0.367775778 0 0)
(-0.380982055 0 0)
(-0.40349702 0 0)
(-0.412198027 0 0)
(-0.416002993 0 0)
(-0.416224503 0 0)
(-0.426994656 0 0)
(-0.444527717 0 0)
(-0.448012535 0 0)
(-0.447405162 0 0)
(-0.443439512 0 0)
(-0.447762882 0 0)
(-0.45928215 0 0)
(-0.45943262 0 0)
(-0.457981724 0 0)
(-0.455954058 0 0)
(-0.460507009 0 0)
(-0.471193408 0 0)
(-0.471299885 0 0)
(-0.470105212 0 0)
(-0.483138024 0 0)
(-0.503093079 0 0)
(-0.510292901 0 0)
(-0.505432174 0 0)
(-0.501136482 0 0)
(-0.492455629 0 0)
)
;

boundaryField
{
    closed
    {
        type            noSlip;
    }
    open
    {
        type            inletOutlet;
        inletValue      nonuniform List<vector> 0();
        value           nonuniform List<vector> 0();
    }
    sides
    {
        type            empty;
    }
    procBoundary2to1
    {
        type            processor;
        value           uniform (0.957965484 0 0);
    }
    procBoundary2to3
    {
        type            processor;
        value           uniform (-0.486148299 0 0);
    }
}


// ************************************************************************* //
