/*--------------------------------*- C++ -*----------------------------------*\
| =========                 |                                                 |
| \\      /  F ield         | OpenFOAM: The Open Source CFD Toolbox           |
|  \\    /   O peration     | Version:  2306                                  |
|   \\  /    A nd           | Website:  www.openfoam.com                      |
|    \\/     M anipulation  |                                                 |
\*---------------------------------------------------------------------------*/
FoamFile
{
    version     2.0;
    format      ascii;
    arch        "LSB;label=32;scalar=64";
    class       volScalarField;
    location    "0.00168";
    object      H2;
}
// * * * * * * * * * * * * * * * * * * * * * * * * * * * * * * * * * * * * * //

dimensions      [0 0 0 0 0 0 0];

internalField   nonuniform List<scalar> 
530
(
0.000135298365
0.000133596216
0.000131616802
0.000129996259
0.000128103192
0.000126533997
0.000124708712
0.000123203447
0.000121456312
0.000120011211
0.000118338613
0.0001169502
0.000115348643
0.000114013709
0.000112479805
0.000111195381
0.000109725847
0.000108489177
0.000107080831
0.000105889356
0.000104539112
0.000103374053
0.00010204126
0.000100897236
9.96171976e-05
9.85111103e-05
9.72814682e-05
9.62117338e-05
9.50302183e-05
9.39953372e-05
9.28597639e-05
9.18583124e-05
9.07665779e-05
8.97972027e-05
8.87472798e-05
8.7808692e-05
8.67986258e-05
8.58895951e-05
8.49174993e-05
8.40368493e-05
8.31009022e-05
8.22475048e-05
8.13459474e-05
8.05187174e-05
7.96498503e-05
7.88438126e-05
7.79816315e-05
7.71782414e-05
7.6345318e-05
7.55470232e-05
7.47165267e-05
7.39217486e-05
7.31205808e-05
7.23481263e-05
7.15750872e-05
7.08242353e-05
7.00781631e-05
6.93482196e-05
6.86279951e-05
6.79182863e-05
6.72228353e-05
6.65327035e-05
6.58609977e-05
6.51897979e-05
6.45408545e-05
6.38879524e-05
6.32608328e-05
6.26256036e-05
6.20194114e-05
6.14012394e-05
6.08151176e-05
6.0213396e-05
5.96465245e-05
5.90606558e-05
5.85122481e-05
5.79416448e-05
5.74109454e-05
5.68550297e-05
5.63413111e-05
5.57995164e-05
5.53020761e-05
5.47738472e-05
5.42920045e-05
5.37767987e-05
5.33098919e-05
5.280718e-05
5.23545625e-05
5.18638303e-05
5.14248667e-05
5.09448235e-05
5.05171462e-05
5.00462852e-05
4.96305851e-05
4.91694593e-05
4.87653526e-05
4.83137298e-05
4.79208561e-05
4.74785002e-05
4.70965189e-05
4.66631927e-05
4.62917807e-05
4.58672478e-05
4.55060966e-05
4.50901228e-05
4.47389376e-05
4.43312918e-05
4.39897896e-05
4.35902444e-05
4.32581531e-05
4.28664859e-05
4.2543543e-05
4.21595363e-05
4.18454876e-05
4.14689305e-05
4.11635288e-05
4.07942175e-05
4.04972219e-05
4.01349606e-05
3.98461355e-05
3.94907364e-05
3.92098519e-05
3.8861135e-05
3.8587968e-05
3.82457583e-05
3.79800951e-05
3.7644219e-05
3.73858597e-05
3.70561384e-05
3.68049026e-05
3.64811458e-05
3.6236877e-05
3.59188773e-05
3.56814451e-05
3.53689777e-05
3.51382723e-05
3.48311046e-05
3.46070209e-05
3.43049335e-05
3.40873449e-05
3.37901613e-05
3.3578888e-05
3.32915049e-05
3.30764068e-05
3.28034514e-05
3.25846614e-05
3.23256439e-05
3.21033991e-05
3.18577639e-05
3.16323587e-05
3.13995267e-05
3.11712789e-05
3.09506721e-05
3.07199075e-05
3.05109542e-05
3.0278008e-05
3.00801313e-05
2.9850112e-05
2.96588498e-05
2.94302114e-05
2.92414109e-05
2.90188279e-05
2.88322516e-05
2.86156907e-05
2.84311923e-05
2.82205488e-05
2.80380408e-05
2.78331649e-05
2.76525942e-05
2.74533113e-05
2.72746438e-05
2.70807675e-05
2.69039789e-05
2.67153192e-05
2.65403892e-05
2.63567573e-05
2.6183666e-05
2.60048777e-05
2.5833603e-05
2.56594806e-05
2.54899963e-05
2.53203698e-05
2.51526448e-05
2.49873527e-05
2.48213503e-05
2.46602393e-05
2.44959173e-05
2.43388427e-05
2.41761527e-05
2.4022978e-05
2.38618653e-05
2.3712463e-05
2.35528644e-05
2.34132176e-05
2.32677706e-05
2.31365681e-05
2.2991713e-05
2.28625692e-05
2.27183074e-05
2.25911868e-05
2.24475252e-05
2.23223893e-05
2.21793383e-05
2.20561466e-05
2.19137192e-05
2.17924294e-05
2.16506415e-05
2.1531209e-05
2.13900798e-05
2.1272458e-05
2.11320094e-05
2.10161503e-05
2.08764063e-05
2.07622614e-05
2.06232463e-05
2.05107695e-05
2.03725038e-05
2.02616558e-05
2.01241514e-05
2.00149058e-05
1.98781578e-05
1.97705095e-05
1.96344868e-05
1.95284628e-05
1.93930964e-05
1.92888176e-05
1.9153852e-05
1.90527491e-05
1.89180981e-05
1.88166495e-05
1.86844104e-05
1.85829103e-05
1.84528767e-05
1.83514588e-05
1.82234946e-05
1.81222644e-05
1.79962593e-05
1.78953018e-05
1.77711642e-05
1.76705494e-05
1.75482015e-05
1.74479874e-05
1.73273633e-05
1.72275979e-05
1.71086407e-05
1.70093639e-05
1.68920246e-05
1.67932694e-05
1.66775051e-05
1.65792994e-05
1.6465072e-05
1.63674395e-05
1.62547149e-05
1.61576761e-05
1.60464232e-05
1.59499962e-05
1.58401864e-05
1.57443876e-05
1.56359943e-05
1.55408385e-05
1.5433837e-05
1.53393378e-05
1.52337048e-05
1.51398751e-05
1.50355887e-05
1.49424402e-05
1.483948e-05
1.47470239e-05
1.46453703e-05
1.45536174e-05
1.44532505e-05
1.43622127e-05
1.42631102e-05
1.41728021e-05
1.40749364e-05
1.39853783e-05
1.38887151e-05
1.37984457e-05
1.3701277e-05
1.36115512e-05
1.35155258e-05
1.34265294e-05
1.33316202e-05
1.32433662e-05
1.3149554e-05
1.30620489e-05
1.29693184e-05
1.28825652e-05
1.27909029e-05
1.27049035e-05
1.26142965e-05
1.25290524e-05
1.24394881e-05
1.23550008e-05
1.22664674e-05
1.21827383e-05
1.20952238e-05
1.20122541e-05
1.19257477e-05
1.18435383e-05
1.17580294e-05
1.16765807e-05
1.15920595e-05
1.15113718e-05
1.14278289e-05
1.13479021e-05
1.12653282e-05
1.11861627e-05
1.11045477e-05
1.10261449e-05
1.09454772e-05
1.08678405e-05
1.07881061e-05
1.07112415e-05
1.06324232e-05
1.05563402e-05
1.04784183e-05
1.04031293e-05
1.03260825e-05
1.02500951e-05
1.01718131e-05
1.009608e-05
1.00190349e-05
9.94436673e-06
9.86852485e-06
9.79492179e-06
9.72025506e-06
9.64771331e-06
9.57419862e-06
9.50271073e-06
9.43032876e-06
9.3598847e-06
9.2886186e-06
9.2192068e-06
9.14904113e-06
9.08064947e-06
9.01156944e-06
8.94418578e-06
8.87617694e-06
8.80978946e-06
8.74283754e-06
8.67743477e-06
8.61152573e-06
8.54709652e-06
8.48221664e-06
8.41875005e-06
8.35488602e-06
8.29237122e-06
8.22951027e-06
8.16793645e-06
8.10606635e-06
8.04542275e-06
7.98453171e-06
7.92480776e-06
7.86488421e-06
7.8060698e-06
7.74710193e-06
7.68918795e-06
7.63116311e-06
7.57414207e-06
7.51704607e-06
7.46091283e-06
7.40472937e-06
7.34948171e-06
7.2941923e-06
7.23983105e-06
7.18541554e-06
7.13194412e-06
7.078382e-06
7.02474595e-06
6.96987652e-06
6.91583551e-06
6.86170239e-06
6.808313e-06
6.75489831e-06
6.70217038e-06
6.64946026e-06
6.59740019e-06
6.54538467e-06
6.49399555e-06
6.44266779e-06
6.39195001e-06
6.34130535e-06
6.29125737e-06
6.24129235e-06
6.19191151e-06
6.14262322e-06
6.0939063e-06
6.04529186e-06
5.99723544e-06
5.94929183e-06
5.90189248e-06
5.8546164e-06
5.80787073e-06
5.76125869e-06
5.7151633e-06
5.66921158e-06
5.62376304e-06
5.57846783e-06
5.53366262e-06
5.48902e-06
5.44485446e-06
5.40086046e-06
5.35733081e-06
5.3139814e-06
5.27108371e-06
5.22837476e-06
5.18610507e-06
5.14403228e-06
5.10238663e-06
5.06094542e-06
5.01992004e-06
4.97910538e-06
4.93869689e-06
4.89850312e-06
4.85870869e-06
4.81912937e-06
4.779947e-06
4.74097475e-06
4.70240341e-06
4.66402986e-06
4.62606962e-06
4.58828556e-06
4.55093749e-06
4.51373312e-06
4.47699888e-06
4.44036451e-06
4.40424324e-06
4.36817256e-06
4.3326414e-06
4.29540303e-06
4.25870668e-06
4.22213567e-06
4.18609393e-06
4.15022872e-06
4.11483228e-06
4.07965215e-06
4.04489378e-06
4.01037738e-06
3.97624904e-06
3.94237705e-06
3.90886959e-06
3.87562478e-06
3.8427281e-06
3.81009503e-06
3.77779834e-06
3.74576299e-06
3.71405504e-06
3.68260449e-06
3.65147383e-06
3.62059596e-06
3.59003112e-06
3.55971443e-06
3.52967246e-06
3.498782e-06
3.4660463e-06
3.43131186e-06
3.39455351e-06
3.35561247e-06
3.3144669e-06
3.27095796e-06
3.22506716e-06
3.1766436e-06
3.12567113e-06
3.07201821e-06
3.01566873e-06
2.95652606e-06
2.89457153e-06
2.82975939e-06
2.76207566e-06
2.69152237e-06
2.61814257e-06
2.5424276e-06
2.46421371e-06
2.38328585e-06
2.29979042e-06
2.2138906e-06
2.12582324e-06
2.03581517e-06
1.94422325e-06
1.85136253e-06
1.75769877e-06
1.6636575e-06
1.56980527e-06
1.47667713e-06
1.38492688e-06
1.29517779e-06
1.20813778e-06
1.12447692e-06
1.04489613e-06
9.70048911e-07
9.00534568e-07
8.36908828e-07
7.79543261e-07
7.28815369e-07
6.84717843e-07
6.47417146e-07
6.16343088e-07
5.91566187e-07
5.71759879e-07
5.56973474e-07
5.45910183e-07
5.3592678e-07
5.35568951e-07
5.35539281e-07
5.3552567e-07
5.35519583e-07
5.3551767e-07
5.35516798e-07
5.35516486e-07
5.35516395e-07
5.35516371e-07
5.35516365e-07
5.35516363e-07
5.35516363e-07
5.35516363e-07
5.35516363e-07
5.35516363e-07
5.35516363e-07
5.35516363e-07
5.35516363e-07
5.35516363e-07
5.35516363e-07
5.35516363e-07
5.35516363e-07
5.35516363e-07
5.35516363e-07
5.35516363e-07
5.35516363e-07
5.35516363e-07
5.35516363e-07
)
;

boundaryField
{
    closed
    {
        type            calculated;
        value           nonuniform List<scalar> 0();
    }
    open
    {
        type            calculated;
        value           uniform 5.35516363e-07;
    }
    sides
    {
        type            empty;
    }
    procBoundary5to4
    {
        type            processor;
        value           uniform 0.000137379167;
    }
}


// ************************************************************************* //
