/*--------------------------------*- C++ -*----------------------------------*\
| =========                 |                                                 |
| \\      /  F ield         | OpenFOAM: The Open Source CFD Toolbox           |
|  \\    /   O peration     | Version:  2306                                  |
|   \\  /    A nd           | Website:  www.openfoam.com                      |
|    \\/     M anipulation  |                                                 |
\*---------------------------------------------------------------------------*/
FoamFile
{
    version     2.0;
    format      ascii;
    arch        "LSB;label=32;scalar=64";
    class       volScalarField;
    location    "0.00168";
    object      prefDZ_H;
}
// * * * * * * * * * * * * * * * * * * * * * * * * * * * * * * * * * * * * * //

dimensions      [1 -1 -1 0 0 0 0];

internalField   nonuniform List<scalar> 
530
(
0.000376903427
0.000377123274
0.00037733431
0.000377546159
0.000377745384
0.000377939986
0.000378125183
0.000378313066
0.000378491687
0.000378673211
0.000378845672
0.000379021198
0.000379187879
0.000379357763
0.000379519018
0.000379683609
0.000379839769
0.000379999409
0.000380150789
0.000380305815
0.000380452708
0.000380600479
0.000380736353
0.000380876547
0.00038100854
0.000381144805
0.000381273061
0.000381405599
0.000381530266
0.000381659263
0.000381780489
0.00038190612
0.000382024053
0.000382146483
0.000382261267
0.000382380657
0.000382492436
0.000382608942
0.000382717853
0.000382831629
0.000382937809
0.000383049005
0.000383152586
0.000383261357
0.000383362466
0.000383468311
0.000383563001
0.00038366307
0.000383755394
0.000383855023
0.000383947869
0.000384047223
0.000384137615
0.000384234636
0.000384322635
0.000384417398
0.000384503068
0.000384595641
0.000384679046
0.000384769496
0.000384850699
0.000384939087
0.00038501815
0.000385104536
0.000385181521
0.000385265962
0.000385340928
0.00038542348
0.000385496485
0.000385577203
0.000385648304
0.000385727241
0.000385796494
0.000385873703
0.000385941162
0.000386016695
0.000386082414
0.000386156324
0.000386220354
0.000386292692
0.000386355088
0.000386425906
0.000386486719
0.000386556069
0.000386615349
0.000386683285
0.000386741083
0.000386807663
0.000386864026
0.000386928463
0.000386981881
0.00038704404
0.000387095975
0.000387156709
0.000387207164
0.000387266491
0.000387315477
0.000387373411
0.000387420937
0.000387477491
0.000387523567
0.000387578751
0.000387623389
0.000387677213
0.000387720423
0.000387772896
0.000387814689
0.000387865819
0.000387906204
0.000387955999
0.000387994987
0.000388043454
0.000388081053
0.000388128199
0.000388164418
0.000388210252
0.000388245098
0.000388289625
0.000388323106
0.000388366333
0.000388398457
0.000388440391
0.000388471166
0.000388511809
0.000388541246
0.0003885806
0.00038860871
0.000388646773
0.000388673571
0.000388710337
0.000388735836
0.000388771303
0.00038879551
0.000388829681
0.000388852593
0.000388885488
0.000388907084
0.000388938741
0.000388958988
0.000388989455
0.000389008324
0.000389036762
0.000389055956
0.000389081632
0.000389101004
0.000389124089
0.000389143478
0.000389164136
0.000389183394
0.00038920177
0.000389220769
0.000389236987
0.00038925562
0.000389269782
0.000389287957
0.000389300155
0.000389317294
0.000389327818
0.000389344506
0.000389353488
0.00038936927
0.000389376765
0.000389391598
0.000389397656
0.000389411507
0.000389416171
0.000389429012
0.000389432322
0.00038944413
0.000389446122
0.000389456881
0.000389457586
0.000389467282
0.00038946673
0.000389475355
0.000389473573
0.000389481119
0.000389478132
0.000389484596
0.000389480429
0.000389485809
0.000389480486
0.000389484783
0.000389478326
0.000389481542
0.000389473975
0.000389476113
0.00038946746
0.000389468527
0.000389458809
0.000389458813
0.000389448054
0.000389447147
0.00038943566
0.000389433795
0.000389421263
0.000389418294
0.000389404724
0.000389400649
0.000389386048
0.000389380869
0.000389365243
0.000389358962
0.000389342316
0.000389334935
0.000389317278
0.000389308798
0.000389290137
0.000389280561
0.000389260904
0.000389250232
0.00038922959
0.000389217822
0.00038919621
0.00038918334
0.000389160777
0.000389146799
0.000389123305
0.000389108215
0.000389083807
0.000389067608
0.00038904229
0.000389025005
0.000388998753
0.00038898045
0.00038895317
0.000388934578
0.000388906058
0.000388885765
0.000388856894
0.000388835068
0.00038880573
0.000388782483
0.0003887526
0.000388728018
0.000388697533
0.000388671689
0.000388640561
0.000388613509
0.000388581709
0.000388553497
0.000388521006
0.000388491671
0.000388458474
0.000388428052
0.00038839414
0.000388362659
0.000388328026
0.000388295515
0.000388260156
0.000388226643
0.000388190556
0.000388156067
0.00038811925
0.00038808381
0.000388046264
0.000388009898
0.000387971625
0.000387934357
0.00038789536
0.000387857213
0.000387817496
0.000387778492
0.000387738062
0.000387698223
0.000387657086
0.000387616433
0.000387574597
0.000387533151
0.000387490625
0.000387448406
0.000387405199
0.000387362228
0.000387318351
0.000387274647
0.000387230112
0.000387185122
0.000387139287
0.000387093536
0.000387047065
0.000387000635
0.000386953542
0.000386906453
0.000386858752
0.000386811022
0.00038676273
0.000386714379
0.000386665508
0.000386616555
0.000386567122
0.000386517587
0.000386467608
0.00038641751
0.000386367
0.000386316359
0.000386265334
0.000386214169
0.000386162647
0.000386110977
0.000386058975
0.00038600682
0.000385954355
0.000385901733
0.000385848823
0.000385795754
0.000385742416
0.00038568892
0.000385635172
0.000385581267
0.000385527128
0.000385472835
0.000385418323
0.000385363659
0.000385308793
0.000385253778
0.000385198577
0.000385143229
0.000385087712
0.000385032068
0.000384976261
0.000384920301
0.000384864177
0.000384807909
0.000384751489
0.000384694935
0.000384638239
0.000384581417
0.000384524467
0.000384467398
0.000384410213
0.000384352918
0.000384295517
0.000384238016
0.000384180421
0.000384122734
0.000384064963
0.00038400711
0.000383949185
0.000383891186
0.000383833126
0.000383775001
0.000383716825
0.000383658594
0.000383600322
0.000383542005
0.000383483655
0.000383425271
0.000383366864
0.000383308432
0.000383249987
0.000383191526
0.000383133062
0.000383074591
0.000383016125
0.000382957664
0.000382899216
0.000382840782
0.00038278237
0.000382723982
0.000382665625
0.0003826073
0.000382549015
0.000382490772
0.000382432578
0.000382374432
0.000382316346
0.000382258316
0.000382200356
0.000382142052
0.000382083432
0.000382024895
0.000381966454
0.000381908108
0.000381849864
0.000381791724
0.000381733692
0.000381675773
0.00038161797
0.000381560287
0.000381502727
0.000381445295
0.000381387993
0.000381330826
0.000381273797
0.00038121691
0.000381160167
0.000381103574
0.000381047132
0.000380990845
0.000380934717
0.000380878752
0.000380822951
0.000380767319
0.000380711859
0.000380656574
0.000380601466
0.00038054654
0.000380491798
0.000380437243
0.000380382877
0.000380328705
0.000380274728
0.000380220951
0.000380167374
0.000380114001
0.000380060835
0.000380007879
0.000379955134
0.000379902605
0.000379850292
0.000379798199
0.000379746327
0.000379694681
0.00037964326
0.00037959207
0.000379541109
0.000379490383
0.000379439892
0.000379389638
0.000379339625
0.000379289852
0.000379240325
0.000379191041
0.000379142008
0.00037909322
0.000379044689
0.000378996403
0.000378948381
0.000378900606
0.000378853156
0.000378805951
0.000378759009
0.000378712316
0.000378665886
0.000378619712
0.000378573801
0.000378528152
0.000378482768
0.000378437649
0.000378392798
0.000378348216
0.000378303903
0.000378259862
0.000378216093
0.000378172598
0.000378129377
0.000378086433
0.000378043766
0.000378001376
0.000377959266
0.000377917435
0.000377875885
0.000377834573
0.000377792038
0.00037774681
0.00037769875
0.000377647713
0.000377593554
0.000377536129
0.000377475294
0.000377410907
0.000377342832
0.000377270942
0.000377195117
0.000377115253
0.000377031262
0.00037694308
0.000376850668
0.000376754022
0.000376653174
0.000376548203
0.000376437862
0.000376323022
0.0003762046
0.000376082941
0.000375958479
0.000375831735
0.000375703335
0.000375574001
0.000375444561
0.000375315936
0.00037518914
0.000375065257
0.000374945423
0.000374830795
0.000374722508
0.000374621637
0.000374529134
0.000374445791
0.000374372156
0.000374308528
0.000374254878
0.000374210877
0.000374175877
0.000374148974
0.000374129067
0.000374114942
0.000374105382
0.000374099252
0.00037409556
0.000374093495
0.000374092623
0.000374091508
0.000374090911
0.000374090639
0.000374090518
0.00037409048
0.000374090463
0.000374090457
0.000374090456
0.000374090455
0.000374090455
0.000374090455
0.000374090455
0.000374090455
0.000374090455
0.000374090455
0.000374090455
0.000374090455
0.000374090455
0.000374090455
0.000374090455
0.000374090455
0.000374090455
0.000374090455
0.000374090455
0.000374090455
0.000374090455
0.000374090455
0.000374090455
)
;

boundaryField
{
    closed
    {
        type            calculated;
        value           nonuniform List<scalar> 0();
    }
    open
    {
        type            calculated;
        value           uniform 0.000374090455;
    }
    sides
    {
        type            empty;
    }
    procBoundary5to4
    {
        type            processor;
        value           uniform 0.000376684036;
    }
}


// ************************************************************************* //
