/*--------------------------------*- C++ -*----------------------------------*\
| =========                 |                                                 |
| \\      /  F ield         | OpenFOAM: The Open Source CFD Toolbox           |
|  \\    /   O peration     | Version:  2306                                  |
|   \\  /    A nd           | Website:  www.openfoam.com                      |
|    \\/     M anipulation  |                                                 |
\*---------------------------------------------------------------------------*/
FoamFile
{
    version     2.0;
    format      ascii;
    arch        "LSB;label=32;scalar=64";
    class       volScalarField;
    location    "0.00168";
    object      prefDPV_H2O;
}
// * * * * * * * * * * * * * * * * * * * * * * * * * * * * * * * * * * * * * //

dimensions      [1 -1 -1 0 0 0 0];

internalField   nonuniform List<scalar> 
530
(
1.09593138e-06
1.09709779e-06
1.09832314e-06
1.09944354e-06
1.10060627e-06
1.10165293e-06
1.10274712e-06
1.10375299e-06
1.10480265e-06
1.10577007e-06
1.10677767e-06
1.10770887e-06
1.1086767e-06
1.10957382e-06
1.11050407e-06
1.11136913e-06
1.11226387e-06
1.11309881e-06
1.11396001e-06
1.11476667e-06
1.11559622e-06
1.116364e-06
1.11713612e-06
1.11786659e-06
1.11861278e-06
1.11932149e-06
1.12004281e-06
1.12073076e-06
1.12142827e-06
1.1220964e-06
1.12277114e-06
1.12342033e-06
1.12407332e-06
1.12470441e-06
1.12533662e-06
1.12595044e-06
1.12656282e-06
1.12716014e-06
1.12775362e-06
1.1283352e-06
1.1289107e-06
1.12947729e-06
1.13003566e-06
1.130588e-06
1.1311301e-06
1.13166618e-06
1.13217585e-06
1.13268469e-06
1.13317949e-06
1.13368565e-06
1.13418126e-06
1.13468557e-06
1.13516595e-06
1.13565728e-06
1.13612294e-06
1.13660171e-06
1.13705314e-06
1.13751975e-06
1.13795746e-06
1.13841227e-06
1.13883674e-06
1.13928012e-06
1.13969181e-06
1.14012412e-06
1.14052347e-06
1.14094505e-06
1.1413325e-06
1.14174368e-06
1.14211966e-06
1.14252076e-06
1.14288566e-06
1.14327701e-06
1.14363122e-06
1.14401314e-06
1.14435704e-06
1.14472985e-06
1.1450638e-06
1.14542781e-06
1.14575216e-06
1.14610767e-06
1.14642277e-06
1.1467701e-06
1.14707629e-06
1.14741572e-06
1.14771333e-06
1.14804518e-06
1.14833453e-06
1.14865911e-06
1.14894051e-06
1.14925493e-06
1.14952301e-06
1.14982741e-06
1.15008796e-06
1.1503856e-06
1.15063875e-06
1.15092975e-06
1.15117561e-06
1.15146008e-06
1.15169878e-06
1.15197682e-06
1.15220848e-06
1.15248018e-06
1.15270493e-06
1.15297039e-06
1.15318833e-06
1.15344764e-06
1.15365888e-06
1.15391213e-06
1.15411678e-06
1.15436405e-06
1.1545622e-06
1.15480358e-06
1.15499534e-06
1.15523091e-06
1.15541636e-06
1.1556462e-06
1.15582543e-06
1.15604961e-06
1.15622272e-06
1.15644131e-06
1.15660838e-06
1.15682145e-06
1.15698257e-06
1.15719018e-06
1.15734543e-06
1.15754763e-06
1.15769711e-06
1.15789395e-06
1.15803775e-06
1.15822926e-06
1.15836746e-06
1.1585537e-06
1.15868635e-06
1.15886739e-06
1.15899452e-06
1.15917047e-06
1.15929205e-06
1.1594631e-06
1.15957907e-06
1.15974539e-06
1.15985572e-06
1.16001363e-06
1.16012587e-06
1.16027204e-06
1.16038573e-06
1.16052079e-06
1.16063543e-06
1.16075998e-06
1.16087506e-06
1.16098968e-06
1.16110477e-06
1.16120995e-06
1.16132465e-06
1.16142085e-06
1.16153482e-06
1.16162245e-06
1.16173268e-06
1.16181376e-06
1.16192233e-06
1.16199833e-06
1.1621027e-06
1.16217384e-06
1.16227391e-06
1.16234038e-06
1.16243607e-06
1.16249802e-06
1.1625893e-06
1.16264686e-06
1.1627337e-06
1.16278698e-06
1.16286939e-06
1.16291849e-06
1.16299648e-06
1.16304149e-06
1.16311509e-06
1.1631561e-06
1.16322533e-06
1.16326241e-06
1.16332731e-06
1.16336055e-06
1.16342116e-06
1.16345063e-06
1.163507e-06
1.16353277e-06
1.16358494e-06
1.16360711e-06
1.16365513e-06
1.16367376e-06
1.16371768e-06
1.16373286e-06
1.16377274e-06
1.16378455e-06
1.16382199e-06
1.16383386e-06
1.1638691e-06
1.16387781e-06
1.16390925e-06
1.16391481e-06
1.16394247e-06
1.16394491e-06
1.1639688e-06
1.16396813e-06
1.16398826e-06
1.1639845e-06
1.1640009e-06
1.16399406e-06
1.16400675e-06
1.16399684e-06
1.16400584e-06
1.16399288e-06
1.16399821e-06
1.16398223e-06
1.16398389e-06
1.16396493e-06
1.16396293e-06
1.16394103e-06
1.16393535e-06
1.16391058e-06
1.16390123e-06
1.16387362e-06
1.1638606e-06
1.16383018e-06
1.16381356e-06
1.16378028e-06
1.16376021e-06
1.16372388e-06
1.163702e-06
1.16366205e-06
1.16363541e-06
1.16359372e-06
1.16356271e-06
1.16351902e-06
1.16348392e-06
1.16343804e-06
1.16339908e-06
1.16335088e-06
1.16330822e-06
1.16325762e-06
1.1632114e-06
1.16315833e-06
1.16310867e-06
1.1630531e-06
1.16300009e-06
1.16294199e-06
1.16288572e-06
1.16282509e-06
1.16276563e-06
1.16270245e-06
1.16263988e-06
1.16257416e-06
1.16250854e-06
1.16244027e-06
1.16237167e-06
1.16230087e-06
1.16222936e-06
1.16215602e-06
1.16208167e-06
1.16200582e-06
1.16192869e-06
1.16185033e-06
1.16177048e-06
1.16168964e-06
1.16160713e-06
1.16152382e-06
1.16143871e-06
1.16135297e-06
1.16126531e-06
1.16117716e-06
1.16108701e-06
1.16099648e-06
1.16090389e-06
1.16081102e-06
1.16071604e-06
1.16062086e-06
1.16052354e-06
1.1604261e-06
1.16032326e-06
1.16021988e-06
1.16011444e-06
1.16000885e-06
1.1599012e-06
1.15979346e-06
1.15968365e-06
1.15957379e-06
1.15946188e-06
1.15934996e-06
1.15923601e-06
1.15912207e-06
1.15900612e-06
1.15889021e-06
1.15877232e-06
1.15865449e-06
1.15853472e-06
1.15841501e-06
1.15829341e-06
1.15817188e-06
1.15804851e-06
1.15792521e-06
1.15780012e-06
1.1576751e-06
1.15754835e-06
1.15742166e-06
1.1572933e-06
1.15716499e-06
1.15703508e-06
1.15690521e-06
1.1567738e-06
1.15664243e-06
1.15650958e-06
1.15637675e-06
1.15624251e-06
1.1561083e-06
1.15597272e-06
1.15583717e-06
1.1557003e-06
1.15556348e-06
1.15542538e-06
1.15528734e-06
1.15514815e-06
1.15500899e-06
1.15486857e-06
1.15472809e-06
1.15458643e-06
1.1544447e-06
1.15430187e-06
1.15415896e-06
1.154015e-06
1.15387098e-06
1.15372596e-06
1.15358089e-06
1.15343488e-06
1.15328882e-06
1.15314187e-06
1.15299488e-06
1.15284706e-06
1.15269922e-06
1.15255058e-06
1.15240194e-06
1.15225256e-06
1.15210317e-06
1.1519531e-06
1.15180304e-06
1.15165234e-06
1.15150167e-06
1.1513504e-06
1.15119917e-06
1.15104739e-06
1.15089566e-06
1.15074344e-06
1.15059127e-06
1.15043866e-06
1.15028611e-06
1.15013316e-06
1.14998029e-06
1.14982707e-06
1.14967394e-06
1.1495205e-06
1.14936716e-06
1.14921356e-06
1.14906007e-06
1.14890636e-06
1.14875278e-06
1.14859901e-06
1.1484454e-06
1.14829162e-06
1.14813804e-06
1.1479843e-06
1.14783079e-06
1.14767459e-06
1.14751615e-06
1.14735768e-06
1.14719953e-06
1.14704141e-06
1.1468836e-06
1.14672587e-06
1.14656845e-06
1.14641115e-06
1.14625417e-06
1.14609735e-06
1.14594087e-06
1.14578456e-06
1.14562862e-06
1.14547288e-06
1.14531751e-06
1.14516238e-06
1.14500764e-06
1.14485315e-06
1.14469908e-06
1.14454528e-06
1.14439192e-06
1.14423885e-06
1.14408624e-06
1.14393395e-06
1.14378212e-06
1.14363065e-06
1.14347965e-06
1.14332902e-06
1.14317889e-06
1.14302915e-06
1.14287992e-06
1.14273111e-06
1.14258282e-06
1.14243497e-06
1.14228766e-06
1.1421408e-06
1.14199449e-06
1.14184867e-06
1.14170341e-06
1.14155864e-06
1.14141445e-06
1.14127078e-06
1.1411277e-06
1.14098516e-06
1.14084321e-06
1.14070182e-06
1.14056104e-06
1.14042083e-06
1.14028125e-06
1.14014225e-06
1.14000389e-06
1.13986612e-06
1.13972902e-06
1.1395925e-06
1.13945669e-06
1.13932144e-06
1.13918693e-06
1.13905299e-06
1.13891981e-06
1.1387872e-06
1.13865566e-06
1.13852467e-06
1.13839442e-06
1.13826475e-06
1.13813581e-06
1.13800749e-06
1.13787989e-06
1.13775293e-06
1.13762669e-06
1.13750112e-06
1.13737627e-06
1.1372521e-06
1.13712866e-06
1.13700593e-06
1.13688392e-06
1.13676263e-06
1.13664208e-06
1.13652225e-06
1.13640317e-06
1.13628483e-06
1.13616724e-06
1.13605038e-06
1.13593429e-06
1.13581883e-06
1.13569993e-06
1.13557346e-06
1.13543904e-06
1.13529624e-06
1.13514468e-06
1.13498392e-06
1.13481357e-06
1.1346332e-06
1.13444246e-06
1.13424095e-06
1.13402836e-06
1.13380436e-06
1.13356872e-06
1.13332125e-06
1.13306183e-06
1.13279046e-06
1.13250722e-06
1.13221234e-06
1.13189853e-06
1.13157008e-06
1.13123142e-06
1.13088355e-06
1.13052776e-06
1.13016556e-06
1.12979881e-06
1.12942961e-06
1.12906041e-06
1.1286939e-06
1.12833306e-06
1.12798106e-06
1.12764124e-06
1.12731696e-06
1.12701153e-06
1.12672806e-06
1.12646927e-06
1.12623741e-06
1.12603398e-06
1.12585971e-06
1.12571436e-06
1.1255968e-06
1.12550492e-06
1.12543593e-06
1.1253864e-06
1.12535275e-06
1.12533119e-06
1.12531865e-06
1.12531203e-06
1.12530924e-06
1.1253098e-06
1.12530647e-06
1.12530463e-06
1.12530379e-06
1.12530342e-06
1.1253033e-06
1.12530325e-06
1.12530323e-06
1.12530322e-06
1.12530322e-06
1.12530322e-06
1.12530322e-06
1.12530322e-06
1.12530322e-06
1.12530322e-06
1.12530322e-06
1.12530322e-06
1.12530322e-06
1.12530322e-06
1.12530322e-06
1.12530322e-06
1.12530322e-06
1.12530322e-06
1.12530322e-06
1.12530322e-06
1.12530322e-06
1.12530322e-06
1.12530322e-06
1.12530322e-06
)
;

boundaryField
{
    closed
    {
        type            calculated;
        value           nonuniform List<scalar> 0();
    }
    open
    {
        type            calculated;
        value           uniform 1.12530322e-06;
    }
    sides
    {
        type            empty;
    }
    procBoundary5to4
    {
        type            processor;
        value           uniform 1.09465264e-06;
    }
}


// ************************************************************************* //
