/*--------------------------------*- C++ -*----------------------------------*\
| =========                 |                                                 |
| \\      /  F ield         | OpenFOAM: The Open Source CFD Toolbox           |
|  \\    /   O peration     | Version:  2306                                  |
|   \\  /    A nd           | Website:  www.openfoam.com                      |
|    \\/     M anipulation  |                                                 |
\*---------------------------------------------------------------------------*/
FoamFile
{
    version     2.0;
    format      ascii;
    arch        "LSB;label=32;scalar=64";
    class       volVectorField;
    location    "0.00168";
    object      U;
}
// * * * * * * * * * * * * * * * * * * * * * * * * * * * * * * * * * * * * * //

dimensions      [0 1 -1 0 0 0 0];

internalField   nonuniform List<vector> 
530
(
(1.16646801 0 0)
(1.16543456 0 0)
(1.16455198 0 0)
(1.16380131 0 0)
(1.16314562 0 0)
(1.16257225 0 0)
(1.16209865 0 0)
(1.16173051 0 0)
(1.16145935 0 0)
(1.16127662 0 0)
(1.16117436 0 0)
(1.16114659 0 0)
(1.16118731 0 0)
(1.16129173 0 0)
(1.1614552 0 0)
(1.16167405 0 0)
(1.16194486 0 0)
(1.16226524 0 0)
(1.16263361 0 0)
(1.1630485 0 0)
(1.16350181 0 0)
(1.16397519 0 0)
(1.16446697 0 0)
(1.16499364 0 0)
(1.16556268 0 0)
(1.16617368 0 0)
(1.1668263 0 0)
(1.16752033 0 0)
(1.1682566 0 0)
(1.16903549 0 0)
(1.16985812 0 0)
(1.17072509 0 0)
(1.17163776 0 0)
(1.17259694 0 0)
(1.17360423 0 0)
(1.17466059 0 0)
(1.17576779 0 0)
(1.1769269 0 0)
(1.17813986 0 0)
(1.17940774 0 0)
(1.18073254 0 0)
(1.18211541 0 0)
(1.18355877 0 0)
(1.18506415 0 0)
(1.18663068 0 0)
(1.18824747 0 0)
(1.18991191 0 0)
(1.19163486 0 0)
(1.19342622 0 0)
(1.19528675 0 0)
(1.19721706 0 0)
(1.1992155 0 0)
(1.20128111 0 0)
(1.2034124 0 0)
(1.20560979 0 0)
(1.20787154 0 0)
(1.21019742 0 0)
(1.21258503 0 0)
(1.21503359 0 0)
(1.21754009 0 0)
(1.22010326 0 0)
(1.22271953 0 0)
(1.22538715 0 0)
(1.22810207 0 0)
(1.23086213 0 0)
(1.23366291 0 0)
(1.23650195 0 0)
(1.23937454 0 0)
(1.24227805 0 0)
(1.2452076 0 0)
(1.24816052 0 0)
(1.2511319 0 0)
(1.25411914 0 0)
(1.25711744 0 0)
(1.26012439 0 0)
(1.26313545 0 0)
(1.26614849 0 0)
(1.26915932 0 0)
(1.27216624 0 0)
(1.2751655 0 0)
(1.27815588 0 0)
(1.28113417 0 0)
(1.28409969 0 0)
(1.2870498 0 0)
(1.28998439 0 0)
(1.29290154 0 0)
(1.29580202 0 0)
(1.29868446 0 0)
(1.30154712 0 0)
(1.30438291 0 0)
(1.30719308 0 0)
(1.3099833 0 0)
(1.31275862 0 0)
(1.31551916 0 0)
(1.31826718 0 0)
(1.32100308 0 0)
(1.32372972 0 0)
(1.32644788 0 0)
(1.32916062 0 0)
(1.33186883 0 0)
(1.33457564 0 0)
(1.33728193 0 0)
(1.33999078 0 0)
(1.34270289 0 0)
(1.34542113 0 0)
(1.34814592 0 0)
(1.35087975 0 0)
(1.35362261 0 0)
(1.35637652 0 0)
(1.35914092 0 0)
(1.36191723 0 0)
(1.36470426 0 0)
(1.36750277 0 0)
(1.37031085 0 0)
(1.37312859 0 0)
(1.37595336 0 0)
(1.37878454 0 0)
(1.38161881 0 0)
(1.38445491 0 0)
(1.3872889 0 0)
(1.39011895 0 0)
(1.39294061 0 0)
(1.39575161 0 0)
(1.39854715 0 0)
(1.40132466 0 0)
(1.40407919 0 0)
(1.40680804 0 0)
(1.40950631 0 0)
(1.41217134 0 0)
(1.41479853 0 0)
(1.41738546 0 0)
(1.41992805 0 0)
(1.42242427 0 0)
(1.42487081 0 0)
(1.42726621 0 0)
(1.42960799 0 0)
(1.43189553 0 0)
(1.43412715 0 0)
(1.43630322 0 0)
(1.43842244 0 0)
(1.44048613 0 0)
(1.44249622 0 0)
(1.44445322 0 0)
(1.44635839 0 0)
(1.4482142 0 0)
(1.45002287 0 0)
(1.45178779 0 0)
(1.45351186 0 0)
(1.45519907 0 0)
(1.45685306 0 0)
(1.45847815 0 0)
(1.46007856 0 0)
(1.46165879 0 0)
(1.46322341 0 0)
(1.46477679 0 0)
(1.46632331 0 0)
(1.46786807 0 0)
(1.4694166 0 0)
(1.47097239 0 0)
(1.4725397 0 0)
(1.47412197 0 0)
(1.47572364 0 0)
(1.47734772 0 0)
(1.47899818 0 0)
(1.48067741 0 0)
(1.48238889 0 0)
(1.48413433 0 0)
(1.48591671 0 0)
(1.48773704 0 0)
(1.48959779 0 0)
(1.49149929 0 0)
(1.49344353 0 0)
(1.49543018 0 0)
(1.49746081 0 0)
(1.4995345 0 0)
(1.50165246 0 0)
(1.50381325 0 0)
(1.50601779 0 0)
(1.50826425 0 0)
(1.51055332 0 0)
(1.51288287 0 0)
(1.51525347 0 0)
(1.51766277 0 0)
(1.5201113 0 0)
(1.52259659 0 0)
(1.52511921 0 0)
(1.52767662 0 0)
(1.53026951 0 0)
(1.53289536 0 0)
(1.53555508 0 0)
(1.5382462 0 0)
(1.54096902 0 0)
(1.54371958 0 0)
(1.54649885 0 0)
(1.54930589 0 0)
(1.5521427 0 0)
(1.55500696 0 0)
(1.55789992 0 0)
(1.56081919 0 0)
(1.5637661 0 0)
(1.56673817 0 0)
(1.56973662 0 0)
(1.57275878 0 0)
(1.57580563 0 0)
(1.57887419 0 0)
(1.58196509 0 0)
(1.58507491 0 0)
(1.58820379 0 0)
(1.59134774 0 0)
(1.59450631 0 0)
(1.59767483 0 0)
(1.60085208 0 0)
(1.60403267 0 0)
(1.60721452 0 0)
(1.61039145 0 0)
(1.6135604 0 0)
(1.61671439 0 0)
(1.6198493 0 0)
(1.62295747 0 0)
(1.6260337 0 0)
(1.6290699 0 0)
(1.63206005 0 0)
(1.63499673 0 0)
(1.63787562 0 0)
(1.64070152 0 0)
(1.64341562 0 0)
(1.64603574 0 0)
(1.6485948 0 0)
(1.65104064 0 0)
(1.65337369 0 0)
(1.65558602 0 0)
(1.65767176 0 0)
(1.65962278 0 0)
(1.66143308 0 0)
(1.66309562 0 0)
(1.66460522 0 0)
(1.66595626 0 0)
(1.66714473 0 0)
(1.66816676 0 0)
(1.66901988 0 0)
(1.66970217 0 0)
(1.67021293 0 0)
(1.67055236 0 0)
(1.67072168 0 0)
(1.67072328 0 0)
(1.67056043 0 0)
(1.67023769 0 0)
(1.6697604 0 0)
(1.6691352 0 0)
(1.66836939 0 0)
(1.66747157 0 0)
(1.66645082 0 0)
(1.66531744 0 0)
(1.66408206 0 0)
(1.66275635 0 0)
(1.66135222 0 0)
(1.65988236 0 0)
(1.65835954 0 0)
(1.65679712 0 0)
(1.65520834 0 0)
(1.65360678 0 0)
(1.65200576 0 0)
(1.65041866 0 0)
(1.64885846 0 0)
(1.64733795 0 0)
(1.64586935 0 0)
(1.6444645 0 0)
(1.64313454 0 0)
(1.64188998 0 0)
(1.64074056 0 0)
(1.63969522 0 0)
(1.63876207 0 0)
(1.63794836 0 0)
(1.63726038 0 0)
(1.63670277 0 0)
(1.6362777 0 0)
(1.63599039 0 0)
(1.63584544 0 0)
(1.63584264 0 0)
(1.6359821 0 0)
(1.63626321 0 0)
(1.63668451 0 0)
(1.63724353 0 0)
(1.63793704 0 0)
(1.63876094 0 0)
(1.63971046 0 0)
(1.64078007 0 0)
(1.64196372 0 0)
(1.6432547 0 0)
(1.64464588 0 0)
(1.64612966 0 0)
(1.64769813 0 0)
(1.64934302 0 0)
(1.65105594 0 0)
(1.65282824 0 0)
(1.65465127 0 0)
(1.65651629 0 0)
(1.65841467 0 0)
(1.66033779 0 0)
(1.66227727 0 0)
(1.66422487 0 0)
(1.66617266 0 0)
(1.66811295 0 0)
(1.67003844 0 0)
(1.67194218 0 0)
(1.67381766 0 0)
(1.67565877 0 0)
(1.67745989 0 0)
(1.67921586 0 0)
(1.68092205 0 0)
(1.68257429 0 0)
(1.68416896 0 0)
(1.68570295 0 0)
(1.68717365 0 0)
(1.68857898 0 0)
(1.68991736 0 0)
(1.69118759 0 0)
(1.69238881 0 0)
(1.69352128 0 0)
(1.69458543 0 0)
(1.69558158 0 0)
(1.69651087 0 0)
(1.69737479 0 0)
(1.69817516 0 0)
(1.69891408 0 0)
(1.69959395 0 0)
(1.70021742 0 0)
(1.7007874 0 0)
(1.70130695 0 0)
(1.70177933 0 0)
(1.70220796 0 0)
(1.70259633 0 0)
(1.70294804 0 0)
(1.70326676 0 0)
(1.70355616 0 0)
(1.70381994 0 0)
(1.70406177 0 0)
(1.70428529 0 0)
(1.70449407 0 0)
(1.70469161 0 0)
(1.70488129 0 0)
(1.70506639 0 0)
(1.70525004 0 0)
(1.70543522 0 0)
(1.70562476 0 0)
(1.70582132 0 0)
(1.70602735 0 0)
(1.70624512 0 0)
(1.7064767 0 0)
(1.70672395 0 0)
(1.70698851 0 0)
(1.70727183 0 0)
(1.70757509 0 0)
(1.7078993 0 0)
(1.70824521 0 0)
(1.70861338 0 0)
(1.70900413 0 0)
(1.70941759 0 0)
(1.70985365 0 0)
(1.71031202 0 0)
(1.7107922 0 0)
(1.71129352 0 0)
(1.7118151 0 0)
(1.71235593 0 0)
(1.71291485 0 0)
(1.71349048 0 0)
(1.71408084 0 0)
(1.71468347 0 0)
(1.71530043 0 0)
(1.71592994 0 0)
(1.71656638 0 0)
(1.71720862 0 0)
(1.71785517 0 0)
(1.71850406 0 0)
(1.71915321 0 0)
(1.71980057 0 0)
(1.72044413 0 0)
(1.72108191 0 0)
(1.72171197 0 0)
(1.72233245 0 0)
(1.72294158 0 0)
(1.72353766 0 0)
(1.72411913 0 0)
(1.72468454 0 0)
(1.72523257 0 0)
(1.72576205 0 0)
(1.72627198 0 0)
(1.72676152 0 0)
(1.72723001 0 0)
(1.72767694 0 0)
(1.72810203 0 0)
(1.72850515 0 0)
(1.7288864 0 0)
(1.72924604 0 0)
(1.72958452 0 0)
(1.72990251 0 0)
(1.73020084 0 0)
(1.73048051 0 0)
(1.73074273 0 0)
(1.73098884 0 0)
(1.73122036 0 0)
(1.73143895 0 0)
(1.73164638 0 0)
(1.73184459 0 0)
(1.73203558 0 0)
(1.7322215 0 0)
(1.73240452 0 0)
(1.73258693 0 0)
(1.73277103 0 0)
(1.73295918 0 0)
(1.73315374 0 0)
(1.73335709 0 0)
(1.73357157 0 0)
(1.73379953 0 0)
(1.73404322 0 0)
(1.73430488 0 0)
(1.73458664 0 0)
(1.73489054 0 0)
(1.73521855 0 0)
(1.73557247 0 0)
(1.73595402 0 0)
(1.73636473 0 0)
(1.73680601 0 0)
(1.7372791 0 0)
(1.73778507 0 0)
(1.73832481 0 0)
(1.73889908 0 0)
(1.73950841 0 0)
(1.74015276 0 0)
(1.74083287 0 0)
(1.74154916 0 0)
(1.74230092 0 0)
(1.74308774 0 0)
(1.74390912 0 0)
(1.74476433 0 0)
(1.74565247 0 0)
(1.74657249 0 0)
(1.74752318 0 0)
(1.74850322 0 0)
(1.74951112 0 0)
(1.75054531 0 0)
(1.75160409 0 0)
(1.75268566 0 0)
(1.75378816 0 0)
(1.75490964 0 0)
(1.7560481 0 0)
(1.75720149 0 0)
(1.75836774 0 0)
(1.75954476 0 0)
(1.76073044 0 0)
(1.76192273 0 0)
(1.76311961 0 0)
(1.7643205 0 0)
(1.7655665 0 0)
(1.76689945 0 0)
(1.76832249 0 0)
(1.76983817 0 0)
(1.77144811 0 0)
(1.77315291 0 0)
(1.77495192 0 0)
(1.77684317 0 0)
(1.77882335 0 0)
(1.78088789 0 0)
(1.78303133 0 0)
(1.78524794 0 0)
(1.78753277 0 0)
(1.78988307 0 0)
(1.79230018 0 0)
(1.79479123 0 0)
(1.79736996 0 0)
(1.80005696 0 0)
(1.80289374 0 0)
(1.80591971 0 0)
(1.80915157 0 0)
(1.81259562 0 0)
(1.81621797 0 0)
(1.81991984 0 0)
(1.82352248 0 0)
(1.82677372 0 0)
(1.82939438 0 0)
(1.83117965 0 0)
(1.83215017 0 0)
(1.8327042 0 0)
(1.83366405 0 0)
(1.83607381 0 0)
(1.84067286 0 0)
(1.84720264 0 0)
(1.85404312 0 0)
(1.85875486 0 0)
(1.85934432 0 0)
(1.85476703 0 0)
(1.84367738 0 0)
(1.82369603 0 0)
(1.79389629 0 0)
(1.75764189 0 0)
(1.72138183 0 0)
(1.68960787 0 0)
(1.66482924 0 0)
(1.64625334 0 0)
(1.65000306 0 0)
(1.70179047 0 0)
(1.7539466 0 0)
(1.7051831 0 0)
(1.53953797 0 0)
(1.37474097 0 0)
(1.33204078 0 0)
(1.37320444 0 0)
(1.41646935 0 0)
(1.42504733 0 0)
(1.4009342 0 0)
(1.3625755 0 0)
(1.35361086 0 0)
(1.37081317 0 0)
(1.44677108 0 0)
(1.55814318 0 0)
(1.70893822 0 0)
(1.8561304 0 0)
(1.96858687 0 0)
(1.93722685 0 0)
(1.82179663 0 0)
(1.67928066 0 0)
(1.58768665 0 0)
(1.45574473 0 0)
(1.32282397 0 0)
(1.30216514 0 0)
(1.52412892 0 0)
(1.76116521 0 0)
(1.84135674 0 0)
(1.72416195 0 0)
(1.61161794 0 0)
)
;

boundaryField
{
    closed
    {
        type            noSlip;
    }
    open
    {
        type            inletOutlet;
        inletValue      uniform (0 0 0);
        value           uniform (1.61161794 0 0);
    }
    sides
    {
        type            empty;
    }
    procBoundary5to4
    {
        type            processor;
        value           uniform (1.16766076 0 0);
    }
}


// ************************************************************************* //
