/*--------------------------------*- C++ -*----------------------------------*\
| =========                 |                                                 |
| \\      /  F ield         | OpenFOAM: The Open Source CFD Toolbox           |
|  \\    /   O peration     | Version:  2306                                  |
|   \\  /    A nd           | Website:  www.openfoam.com                      |
|    \\/     M anipulation  |                                                 |
\*---------------------------------------------------------------------------*/
FoamFile
{
    version     2.0;
    format      ascii;
    arch        "LSB;label=32;scalar=64";
    class       surfaceScalarField;
    location    "0.00144";
    object      phi;
}
// * * * * * * * * * * * * * * * * * * * * * * * * * * * * * * * * * * * * * //

dimensions      [1 0 -1 0 0 0 0];

oriented        oriented;

internalField   nonuniform List<scalar> 
530
(
2.32771502e-06
2.32836528e-06
2.32563289e-06
2.32542726e-06
2.32898853e-06
2.32716536e-06
2.33360937e-06
2.31738144e-06
2.34827761e-06
2.31392156e-06
2.30979546e-06
2.31637962e-06
2.30120918e-06
2.34771006e-06
2.30487063e-06
2.30480202e-06
2.30177498e-06
2.3052764e-06
2.3098137e-06
2.31005653e-06
2.30804893e-06
2.32202477e-06
2.34092372e-06
2.34447752e-06
2.34572931e-06
2.3123141e-06
2.36084778e-06
2.31045921e-06
2.31105214e-06
2.28602446e-06
2.29499201e-06
2.29212404e-06
2.298235e-06
2.29898861e-06
2.30649954e-06
2.32838519e-06
2.31564309e-06
2.34426738e-06
2.31765661e-06
2.31674304e-06
2.32162526e-06
2.32123902e-06
2.32731264e-06
2.32824703e-06
2.32490008e-06
2.32346806e-06
2.33010272e-06
2.33126317e-06
2.33805532e-06
2.32410503e-06
2.26168454e-06
2.27089816e-06
2.28580673e-06
2.29015604e-06
2.34690348e-06
2.35591038e-06
2.36461901e-06
2.3658852e-06
2.34722646e-06
2.35170308e-06
2.34350169e-06
2.34692987e-06
2.32041344e-06
2.32514377e-06
2.32196038e-06
2.32709705e-06
2.33375162e-06
2.34700009e-06
2.32749405e-06
2.33165572e-06
2.31303918e-06
2.30650603e-06
2.30395816e-06
2.2841749e-06
2.34231391e-06
2.29166656e-06
2.28870335e-06
2.28125174e-06
2.27886767e-06
2.28682226e-06
2.2860783e-06
2.27080261e-06
2.27007365e-06
2.27795699e-06
2.27801274e-06
2.28967902e-06
2.25852067e-06
2.25683791e-06
2.26765737e-06
2.26941071e-06
2.27445928e-06
2.2764775e-06
2.28665362e-06
2.31209981e-06
2.30148071e-06
2.31890234e-06
2.30541045e-06
2.30685271e-06
2.31074086e-06
2.28386363e-06
2.21916647e-06
2.25575562e-06
2.25654545e-06
2.25642267e-06
2.25133064e-06
2.25819977e-06
2.25704744e-06
2.25553824e-06
2.25945882e-06
2.26450963e-06
2.26125489e-06
2.2660999e-06
2.27395997e-06
2.24146045e-06
2.18603398e-06
2.18427419e-06
2.49057648e-06
2.47112554e-06
2.28589937e-06
2.28482462e-06
2.27092352e-06
2.27212558e-06
2.27468525e-06
2.27746413e-06
2.27385985e-06
2.2735555e-06
2.2725777e-06
2.27990764e-06
2.28214743e-06
2.27758322e-06
2.28065922e-06
2.25647313e-06
2.27440941e-06
2.24400605e-06
2.23884855e-06
2.24215971e-06
2.23089609e-06
2.2835523e-06
2.23837919e-06
2.23616047e-06
2.22861029e-06
2.22493399e-06
2.23211866e-06
2.2317109e-06
2.22156205e-06
2.22713389e-06
2.23496564e-06
2.23540675e-06
2.21371058e-06
2.20852083e-06
2.21423991e-06
2.21776165e-06
2.24138076e-06
2.19811103e-06
2.19462456e-06
2.20567337e-06
2.20533664e-06
2.20567027e-06
2.21911515e-06
2.24012959e-06
2.24355723e-06
2.23566377e-06
2.23693717e-06
2.20067562e-06
2.14498037e-06
2.16794805e-06
2.17357676e-06
2.15604033e-06
2.16228828e-06
2.16085111e-06
2.14650382e-06
2.14743021e-06
2.15427454e-06
2.15473034e-06
2.13507618e-06
2.13817251e-06
2.14359726e-06
2.14405626e-06
2.14440664e-06
2.15471672e-06
2.1447687e-06
2.08584779e-06
2.12768191e-06
2.12766054e-06
2.12780716e-06
2.11097321e-06
2.07643724e-06
2.09290446e-06
2.08999572e-06
2.0857764e-06
2.09918491e-06
2.11016646e-06
2.08637467e-06
2.0545142e-06
2.0852197e-06
2.03466143e-06
2.02699638e-06
2.05169211e-06
2.05000575e-06
2.04795366e-06
2.05328061e-06
2.05016683e-06
2.0317183e-06
2.03076164e-06
2.03698491e-06
2.03651483e-06
2.00616598e-06
2.00578501e-06
2.00634424e-06
2.00504708e-06
2.05876761e-06
2.07281296e-06
2.04689081e-06
2.02722913e-06
1.99172498e-06
2.00728102e-06
2.00636284e-06
1.98685871e-06
1.99128351e-06
1.99027464e-06
2.03365517e-06
1.98259381e-06
1.97581916e-06
1.98319018e-06
1.97880459e-06
1.97763645e-06
1.98088656e-06
1.9669759e-06
2.01811513e-06
1.98183044e-06
1.98090189e-06
1.98069605e-06
1.96417943e-06
1.92251788e-06
1.95064829e-06
1.94836643e-06
1.93107578e-06
1.92646814e-06
1.93437053e-06
1.93288498e-06
1.93397384e-06
1.91372058e-06
1.84677259e-06
1.8919768e-06
1.88919638e-06
1.88885978e-06
1.87682971e-06
1.83755929e-06
1.86428567e-06
1.8635786e-06
1.84140537e-06
1.84390142e-06
1.85079452e-06
1.85004183e-06
1.82046366e-06
1.82862904e-06
1.82605798e-06
1.80178381e-06
1.79428011e-06
1.80125298e-06
1.79699017e-06
1.77643888e-06
1.76920861e-06
1.77117886e-06
1.76607419e-06
1.76332554e-06
1.72647237e-06
1.74625869e-06
1.71452354e-06
1.7301648e-06
1.74007941e-06
1.74876369e-06
1.77387573e-06
1.79151965e-06
1.80046058e-06
1.79770933e-06
1.76023708e-06
1.76201079e-06
1.74777771e-06
1.72202648e-06
1.61626498e-06
1.61661158e-06
1.80826507e-06
1.76100378e-06
1.71315348e-06
1.71435191e-06
1.70453891e-06
1.69430914e-06
1.69624777e-06
1.69869724e-06
1.68748329e-06
1.72951436e-06
1.69823954e-06
1.69424502e-06
1.6984992e-06
1.70122147e-06
1.68352487e-06
1.63812174e-06
1.64062638e-06
1.63771548e-06
1.63819033e-06
1.63453206e-06
1.62616188e-06
1.64727579e-06
1.65321198e-06
1.64972303e-06
1.63089309e-06
1.63848772e-06
1.63870538e-06
1.60534852e-06
1.60040448e-06
1.60837695e-06
1.60409111e-06
1.59800262e-06
1.59983891e-06
1.58649273e-06
1.53899017e-06
1.56671788e-06
1.56348875e-06
1.55890355e-06
1.54318197e-06
1.53306405e-06
1.53434132e-06
1.52614419e-06
1.50957913e-06
1.50869112e-06
1.5035199e-06
1.50698965e-06
1.50439944e-06
1.50458824e-06
1.49056934e-06
1.49337157e-06
1.47891179e-06
1.47664334e-06
1.47000213e-06
1.45336412e-06
1.48471328e-06
1.44792946e-06
1.44567509e-06
1.44309542e-06
1.42619803e-06
1.39791869e-06
1.40771457e-06
1.40280331e-06
1.41440193e-06
1.39828695e-06
1.3956573e-06
1.38290985e-06
1.38111109e-06
1.38253332e-06
1.37645618e-06
1.35084088e-06
1.36644587e-06
1.36439566e-06
1.36716979e-06
1.35005162e-06
1.3002897e-06
1.32837982e-06
1.32913997e-06
1.32952847e-06
1.32471531e-06
1.35665174e-06
1.32726707e-06
1.3284077e-06
1.32556439e-06
1.31817965e-06
1.28967374e-06
1.30446701e-06
1.3072791e-06
1.30535572e-06
1.29959798e-06
1.28242356e-06
1.2918567e-06
1.29252635e-06
1.2839309e-06
1.27483465e-06
1.27840695e-06
1.28003874e-06
1.27672119e-06
1.26816353e-06
1.26917903e-06
1.2732301e-06
1.2747871e-06
1.28017413e-06
1.28010239e-06
1.28636385e-06
1.28714936e-06
1.2974907e-06
1.29638811e-06
1.31357291e-06
1.30024775e-06
1.30254416e-06
1.29346622e-06
1.29282271e-06
1.29968211e-06
1.30271325e-06
1.2910344e-06
1.292295e-06
1.29568654e-06
1.3015206e-06
1.30187759e-06
1.30057438e-06
1.28317277e-06
1.29490894e-06
1.29841687e-06
1.29858455e-06
1.29944385e-06
1.30168796e-06
1.30633764e-06
1.3093333e-06
1.31134187e-06
1.31152636e-06
1.31503419e-06
1.31961028e-06
1.32213602e-06
1.32369345e-06
1.33146911e-06
1.33846999e-06
1.33489925e-06
1.30666949e-06
1.32537641e-06
1.3335125e-06
1.34317246e-06
1.34630115e-06
1.31348158e-06
1.33571885e-06
1.33880704e-06
1.34618863e-06
1.31926132e-06
1.31127943e-06
1.30231048e-06
1.30729943e-06
1.4703048e-06
1.46624501e-06
1.40025626e-06
1.40370301e-06
1.402651e-06
1.41195109e-06
1.4260864e-06
1.43501194e-06
1.43592818e-06
1.43956391e-06
1.44852357e-06
1.4430372e-06
1.44900018e-06
1.46112856e-06
1.46646386e-06
1.47413079e-06
1.48114843e-06
1.49917993e-06
1.50247796e-06
1.45354612e-06
1.49276648e-06
1.49943566e-06
1.50280276e-06
1.51180303e-06
1.51272152e-06
1.51796793e-06
1.52211833e-06
1.53491782e-06
1.53663882e-06
1.55733234e-06
1.54078018e-06
1.5444925e-06
1.55629277e-06
1.56221065e-06
1.56580681e-06
1.5705001e-06
1.57607361e-06
1.58323492e-06
1.58255225e-06
1.58810792e-06
1.61048288e-06
1.60201441e-06
1.60755454e-06
1.60857087e-06
1.61582905e-06
1.62447466e-06
1.63107883e-06
1.63070825e-06
1.63634331e-06
1.64372876e-06
1.65376349e-06
1.65538406e-06
1.66027237e-06
1.66738629e-06
1.67194495e-06
1.68404163e-06
1.69891525e-06
1.69265219e-06
1.65984752e-06
1.68132554e-06
1.68908286e-06
1.68169282e-06
1.68266892e-06
1.6870845e-06
1.70414899e-06
1.71542286e-06
1.71249989e-06
1.70325669e-06
1.73647378e-06
1.70653094e-06
1.70666457e-06
1.67276665e-06
1.73363736e-06
1.74844262e-06
1.75453108e-06
1.75634219e-06
1.72784641e-06
1.78168888e-06
1.78593797e-06
1.79070711e-06
1.79411436e-06
1.80175467e-06
1.81441112e-06
1.8220173e-06
1.82583493e-06
1.82896652e-06
1.83957389e-06
1.86073586e-06
1.83850918e-06
1.83954211e-06
1.84977695e-06
1.85065566e-06
1.88950141e-06
1.86457752e-06
1.82391699e-06
1.83825626e-06
1.83750093e-06
1.95293471e-06
)
;

boundaryField
{
    closed
    {
        type            calculated;
        value           nonuniform List<scalar> 0();
    }
    open
    {
        type            calculated;
        value           nonuniform List<scalar> 0();
    }
    sides
    {
        type            empty;
        value           nonuniform List<scalar> 0();
    }
    procBoundary1to0
    {
        type            processor;
        value           uniform -2.3223576e-06;
    }
    procBoundary1to2
    {
        type            processor;
        value           uniform 1.94048715e-06;
    }
}


// ************************************************************************* //
