/*--------------------------------*- C++ -*----------------------------------*\
| =========                 |                                                 |
| \\      /  F ield         | OpenFOAM: The Open Source CFD Toolbox           |
|  \\    /   O peration     | Version:  2306                                  |
|   \\  /    A nd           | Website:  www.openfoam.com                      |
|    \\/     M anipulation  |                                                 |
\*---------------------------------------------------------------------------*/
FoamFile
{
    version     2.0;
    format      ascii;
    arch        "LSB;label=32;scalar=64";
    class       volScalarField;
    location    "0.00144";
    object      prefDh_H2;
}
// * * * * * * * * * * * * * * * * * * * * * * * * * * * * * * * * * * * * * //

dimensions      [1 1 -3 0 0 0 0];

internalField   nonuniform List<scalar> 
531
(
37.4486579
38.4413882
29.2546017
25.6576768
37.6630373
38.0860161
29.1851473
23.7631649
23.7974453
37.7298542
37.8908302
29.0835635
22.4712583
22.5763464
37.4793286
38.3948649
28.0742939
25.801664
37.6625966
38.5185868
38.0369437
28.8660112
26.426192
25.9772256
25.4814952
21.0224733
21.0820837
37.6701073
38.0147867
37.9904622
29.271363
28.2004482
37.6531215
38.4423134
29.4555383
28.7287388
23.2627262
23.3830577
37.2795602
38.4625621
27.3056915
24.111753
37.1484849
38.3600096
27.0670694
23.947197
36.9818824
38.0587095
26.0830772
22.5612093
35.4495514
37.772102
37.0670316
37.9602273
24.3570022
19.8848917
36.9521851
37.9902053
26.4466711
26.4406762
37.1747702
29.1347054
22.5988883
37.6034471
37.8313407
37.7973467
29.2848857
26.2785824
22.5763282
22.6169337
37.6391442
37.7502817
29.2461386
19.2618459
19.5626476
37.0390264
38.1315344
26.9809542
22.88134
37.0224309
38.1242761
26.0386375
23.8185302
37.1919207
37.795552
37.6397482
26.1289309
22.7364361
37.0994561
37.9772465
37.4571503
38.0666684
29.2779061
24.5774205
20.8522109
20.8261397
37.7662518
37.8057568
29.0383722
21.9558163
22.0874546
37.3804379
38.4574176
29.9930237
26.8356722
37.4657053
38.6705627
29.9457118
26.8282569
37.7045914
38.6324726
29.378777
27.7255528
23.0015825
22.9281063
36.9425365
34.7360822
21.361079
21.6139731
37.6834131
38.2899634
29.6341648
26.6041608
37.9925289
38.5276404
38.3773355
28.2116125
25.3178957
38.0852665
38.227781
29.0044468
24.2564852
24.277732
37.77441
37.90606
29.0303819
20.1901223
20.3936185
37.3651621
38.3642653
26.8473669
22.7761244
37.2205032
38.4042973
26.0612875
22.5602859
37.1847225
38.2723324
26.0687216
24.8696869
37.3571354
37.9283918
37.8712703
28.3224917
25.302947
37.7030884
38.431338
38.0535917
28.7543529
25.3838715
27.9675804
27.3780074
29.3364988
26.9339655
26.9119955
37.9348638
29.2137032
25.0257903
37.719655
38.5367239
28.9786004
25.6254549
37.5623862
38.630149
27.679525
26.1595038
37.4940242
38.5348808
37.647167
28.9018939
20.8480271
20.9847327
37.7132368
37.9758849
29.1478375
20.8385711
20.9444362
37.744895
38.2730477
37.9692999
29.0026839
26.2712903
27.849195
23.6979663
23.7879309
37.8146862
38.2437532
38.1882617
29.4708031
24.7440351
37.9171249
38.5466708
28.310885
25.0954556
37.7083613
38.505626
28.2420365
26.0865293
37.4821738
38.2758337
31.7707714
28.5264207
26.2757084
22.4462254
22.4696693
37.6575606
29.3952381
22.2538904
37.6407466
37.8033237
37.8163565
28.5034944
24.1701933
37.5719686
38.2765827
37.6459996
29.0550823
19.973757
20.2023821
37.6511711
37.8934453
29.2149932
21.362656
21.4814094
37.6054399
38.1070209
29.1387868
25.1984342
37.8342228
37.9195462
29.2313219
24.4298774
24.4192058
37.8823724
37.9124019
29.1021169
20.549156
20.6546398
37.7263684
38.2928469
27.0952369
26.8747937
37.6171091
28.9476059
21.6833922
37.9505201
38.0813308
28.1601959
24.9403007
37.8584946
38.2532987
28.7230717
25.2845029
37.9618978
37.8852638
29.2110696
22.4265836
22.5076948
37.1682055
37.6325417
37.2332529
37.9570751
24.4811933
23.1663605
37.5050176
29.2299933
20.8811492
37.9377931
37.8212455
28.3266396
26.4380268
37.2968114
36.7414925
20.093025
19.9399543
37.3537922
37.924613
37.8106112
29.3542874
24.3471931
20.1410218
20.2660566
37.5443693
38.2636275
37.5168349
28.9728736
20.0721516
22.298367
37.5303063
38.2634115
37.6773034
38.4963283
28.1916407
25.6863711
37.8144907
28.8775153
18.8243018
38.1092884
37.9675914
26.5581831
24.2503764
37.8966795
38.2434342
30.2149229
28.3343886
22.6774216
22.7112697
37.9924293
38.037906
29.4245918
24.2570239
24.3292735
38.0897298
29.1844497
24.7117472
38.1832327
38.1402902
38.1074944
29.1738739
25.6235441
23.9722588
23.9639194
38.1071584
38.0366489
29.0545443
24.2156407
24.2578758
38.232786
38.097325
28.97223
24.1075114
24.1479876
38.2924115
38.3411392
29.6370906
26.2580188
26.3463566
38.34987
38.2848901
28.776953
23.1626318
23.166659
38.5271263
38.4536749
29.1893901
25.7324247
25.7860656
38.3572248
38.2021614
28.8844618
23.6125801
23.6534483
38.3696832
38.2401847
29.0006554
23.0603284
23.0801076
38.2759368
38.0545583
29.0717789
22.0537647
22.1262363
38.0457449
38.1991499
27.777445
23.7400305
38.2163771
38.0387615
29.285907
19.169458
19.6730757
37.8803078
38.1855652
37.9927522
38.2832673
38.2328654
29.1717073
25.5588335
22.3686715
22.3977869
37.9795527
38.3407999
25.7522446
23.8170861
37.9451693
38.3063764
27.5067164
24.5452597
38.2272759
38.0962783
28.9807191
23.3453881
23.3849933
38.2082541
38.3890856
28.5125938
25.129178
38.4323909
38.2592265
28.8682168
23.2165241
24.5165377
38.2144765
28.9896041
23.7934924
38.5471373
38.2068219
28.8662605
25.3962185
25.398134
38.3190566
38.2607966
28.9420195
24.2009725
24.1684045
38.4117311
38.1246552
29.1531224
20.4436673
21.0997646
37.0933687
37.9975971
36.6252456
23.5455521
22.9160341
37.7819959
38.0286381
37.9492177
29.1100666
19.593101
20.7839086
38.1675046
38.3689859
38.3049323
29.2937447
24.8284013
38.3253761
38.4038524
29.0515998
26.4357612
23.5785665
23.5657866
38.0920867
38.510509
28.3547439
25.2897483
38.0828897
38.4131961
29.1493676
26.5265301
23.1413003
23.206564
37.6262394
38.3252563
25.2882247
23.1471324
37.4026902
38.174394
24.0043582
23.3668341
37.54485
37.93804
37.8309753
26.3980472
21.7246103
37.5422589
37.932377
25.3058946
22.2259884
37.4812531
38.1358441
24.1387549
21.818405
37.4653292
38.2594971
37.7464168
38.333291
29.2126489
25.9198103
24.5927281
24.594594
37.8994264
29.04343
23.6549465
37.9808612
37.9174259
29.5136841
26.0010942
25.9492388
21.5527365
21.6229749
37.6270478
37.9782687
37.9216382
25.6773428
22.8716206
37.6074032
37.9748237
37.8793815
27.9944378
22.4550959
37.4894234
38.1377446
25.6320549
24.4175903
37.5499393
38.2486655
37.9713896
29.1198461
24.6670924
23.7373815
23.4117263
37.7184819
38.0395237
28.7452062
20.2277979
20.3700105
37.1657037
38.0022038
33.0041763
25.0090957
)
;

boundaryField
{
    closed
    {
        type            calculated;
        value           nonuniform List<scalar> 0();
    }
    open
    {
        type            calculated;
        value           nonuniform List<scalar> 0();
    }
    sides
    {
        type            empty;
    }
    procBoundary1to0
    {
        type            processor;
        value           uniform 24.9898155;
    }
    procBoundary1to2
    {
        type            processor;
        value           uniform 25.173066;
    }
}


// ************************************************************************* //
