/*--------------------------------*- C++ -*----------------------------------*\
| =========                 |                                                 |
| \\      /  F ield         | OpenFOAM: The Open Source CFD Toolbox           |
|  \\    /   O peration     | Version:  2306                                  |
|   \\  /    A nd           | Website:  www.openfoam.com                      |
|    \\/     M anipulation  |                                                 |
\*---------------------------------------------------------------------------*/
FoamFile
{
    version     2.0;
    format      ascii;
    arch        "LSB;label=32;scalar=64";
    class       volScalarField;
    location    "0.00108";
    object      prefDZ_H2O;
}
// * * * * * * * * * * * * * * * * * * * * * * * * * * * * * * * * * * * * * //

dimensions      [1 -1 -1 0 0 0 0];

internalField   nonuniform List<scalar> 
531
(
-7.37923494e-07
-7.73644791e-07
-7.74345935e-07
-7.37706673e-07
-7.35555002e-07
-7.38248387e-07
-7.73571228e-07
-7.74104036e-07
-7.37718857e-07
-7.38275525e-07
-7.73073184e-07
-7.74089169e-07
-7.37776861e-07
-7.35978859e-07
-7.39393284e-07
-7.73601789e-07
-7.73574164e-07
-7.37917096e-07
-7.37111605e-07
-7.37090504e-07
-7.37957246e-07
-7.73433324e-07
-7.74438073e-07
-7.37591624e-07
-7.34665326e-07
-7.36938945e-07
-7.74442799e-07
-7.74575311e-07
-7.348212e-07
-7.35482508e-07
-7.74531546e-07
-7.74860183e-07
-7.74530858e-07
-7.7548637e-07
-7.34756276e-07
-7.30990805e-07
-7.34802842e-07
-7.74863328e-07
-7.74338031e-07
-7.34786758e-07
-7.36381328e-07
-7.74657138e-07
-7.73485954e-07
-7.7471333e-07
-7.3790323e-07
-7.35237526e-07
-7.36612209e-07
-7.36823292e-07
-7.73595108e-07
-7.73801845e-07
-7.37267204e-07
-7.37322566e-07
-7.7392539e-07
-7.7403195e-07
-7.35307544e-07
-7.3499307e-07
-7.74740087e-07
-7.75118555e-07
-7.32308265e-07
-7.3397063e-07
-7.75047871e-07
-7.74015672e-07
-7.74742265e-07
-7.38235495e-07
-7.36126966e-07
-7.36805765e-07
-7.37538735e-07
-7.73653964e-07
-7.74056018e-07
-7.36872394e-07
-7.34034822e-07
-7.35916276e-07
-7.74736653e-07
-7.73829619e-07
-7.35455439e-07
-7.36126292e-07
-7.74850627e-07
-7.73613759e-07
-7.74603144e-07
-7.36804364e-07
-7.3581806e-07
-7.74394753e-07
-7.7442234e-07
-7.36436663e-07
-7.33575023e-07
-7.36866404e-07
-7.75088619e-07
-7.73435451e-07
-7.74382815e-07
-7.37350592e-07
-7.35409556e-07
-7.35734937e-07
-7.36861407e-07
-7.74021835e-07
-7.73598794e-07
-7.37759866e-07
-7.36819962e-07
-7.36933405e-07
-7.3743915e-07
-7.73704938e-07
-7.7324774e-07
-7.38439284e-07
-7.37764569e-07
-7.74223129e-07
-7.73220469e-07
-7.37895695e-07
-7.37634841e-07
-7.74575343e-07
-7.7357005e-07
-7.36174637e-07
-7.35210777e-07
-7.34041722e-07
-7.35568037e-07
-7.74936143e-07
-7.73990281e-07
-7.74073429e-07
-7.7387252e-07
-7.37285714e-07
-7.37270228e-07
-7.75219395e-07
-7.7322865e-07
-7.74742043e-07
-7.38409986e-07
-7.33950567e-07
-7.36403569e-07
-7.34457145e-07
-7.36026889e-07
-7.7463919e-07
-7.74055366e-07
-7.37589855e-07
-7.34174876e-07
-7.37130949e-07
-7.74897555e-07
-7.72807814e-07
-7.7333194e-07
-7.40413852e-07
-7.36667431e-07
-7.45202936e-07
-7.74196939e-07
-7.73103981e-07
-7.38353455e-07
-7.35564719e-07
-7.35111721e-07
-7.35963914e-07
-7.75396768e-07
-7.7347528e-07
-7.74178808e-07
-7.37339494e-07
-7.32418056e-07
-7.35671997e-07
-7.75740362e-07
-7.74009364e-07
-7.74446785e-07
-7.74167473e-07
-7.37154696e-07
-7.34741533e-07
-7.34700173e-07
-7.35837351e-07
-7.75334272e-07
-7.74146687e-07
-7.74112195e-07
-7.74168082e-07
-7.37805901e-07
-7.34365787e-07
-7.36617357e-07
-7.34597454e-07
-7.3661284e-07
-7.7546086e-07
-7.74006816e-07
-7.74060949e-07
-7.74281646e-07
-7.38516386e-07
-7.34535976e-07
-7.36838492e-07
-7.34606022e-07
-7.36600476e-07
-7.75629936e-07
-7.74090058e-07
-7.74231798e-07
-7.74438594e-07
-7.3788793e-07
-7.33604244e-07
-7.35956766e-07
-7.33211823e-07
-7.36056518e-07
-7.76249313e-07
-7.73641757e-07
-7.74710758e-07
-7.37792433e-07
-7.36466351e-07
-7.76989009e-07
-7.73688219e-07
-7.7486396e-07
-7.37931689e-07
-7.34538392e-07
-7.76866214e-07
-7.73962013e-07
-7.37420273e-07
-7.35948405e-07
-7.76810853e-07
-7.73728289e-07
-7.38111021e-07
-7.36386802e-07
-7.36460215e-07
-7.36746715e-07
-7.75099148e-07
-7.72993725e-07
-7.39564905e-07
-7.40117034e-07
-7.75190882e-07
-7.48089274e-07
-7.34754383e-07
-7.36706273e-07
-7.75477618e-07
-7.73928349e-07
-7.40082176e-07
-7.34340977e-07
-7.36965525e-07
-7.7649002e-07
-7.73272875e-07
-7.74188838e-07
-7.39640969e-07
-7.3544387e-07
-7.35053576e-07
-7.35858801e-07
-7.7663336e-07
-7.73475442e-07
-7.74324452e-07
-7.40091984e-07
-7.3348229e-07
-7.34800731e-07
-7.76629728e-07
-7.73928344e-07
-7.38576137e-07
-7.36131313e-07
-7.78336951e-07
-7.74465812e-07
-7.38880338e-07
-7.33486178e-07
-7.34470919e-07
-7.77624595e-07
-7.74316302e-07
-7.74817698e-07
-7.74302887e-07
-7.38566441e-07
-7.34699462e-07
-7.34191359e-07
-7.34321091e-07
-7.78181996e-07
-7.74656886e-07
-7.74667274e-07
-7.7477605e-07
-7.4040272e-07
-7.32676973e-07
-7.33451932e-07
-7.77639913e-07
-7.74661504e-07
-7.39988744e-07
-7.34021346e-07
-7.33679059e-07
-7.77669027e-07
-7.74132754e-07
-7.40103641e-07
-7.36262683e-07
-7.79555468e-07
-7.74009998e-07
-7.40011076e-07
-7.36384139e-07
-7.78927448e-07
-7.74050058e-07
-7.40336576e-07
-7.36703898e-07
-7.7914213e-07
-7.74439265e-07
-7.4234696e-07
-7.35130878e-07
-7.3493746e-07
-7.79302831e-07
-7.74386966e-07
-7.44130275e-07
-7.35692515e-07
-7.35417396e-07
-7.79672775e-07
-7.73931941e-07
-7.42348795e-07
-7.3727034e-07
-7.7898746e-07
-7.74334729e-07
-7.43481764e-07
-7.35145105e-07
-7.34865397e-07
-7.79712715e-07
-7.74573872e-07
-7.44838433e-07
-7.35093199e-07
-7.34882231e-07
-7.79064822e-07
-7.74360757e-07
-7.75056095e-07
-7.74310316e-07
-7.42721368e-07
-7.34296975e-07
-7.34217743e-07
-7.33971307e-07
-7.75657425e-07
-7.7448688e-07
-7.40925975e-07
-7.36939182e-07
-7.74967218e-07
-7.73972159e-07
-7.74333936e-07
-7.41004884e-07
-7.34943928e-07
-7.75374813e-07
-7.75195293e-07
-7.4275765e-07
-7.34033274e-07
-7.33541399e-07
-7.78089858e-07
-7.74437797e-07
-7.42357355e-07
-7.36640638e-07
-7.7658013e-07
-7.74710501e-07
-7.44409922e-07
-7.34711294e-07
-7.34356544e-07
-7.78102658e-07
-7.74296886e-07
-7.42843745e-07
-7.37024497e-07
-7.77164968e-07
-7.74604051e-07
-7.45165579e-07
-7.35106987e-07
-7.34647972e-07
-7.78562622e-07
-7.74217337e-07
-7.43219607e-07
-7.37304074e-07
-7.77715774e-07
-7.74528333e-07
-7.45625583e-07
-7.35352885e-07
-7.34947219e-07
-7.7885603e-07
-7.74150052e-07
-7.43488945e-07
-7.37454257e-07
-7.78323601e-07
-7.74462667e-07
-7.45984677e-07
-7.35331202e-07
-7.35050349e-07
-7.80232392e-07
-7.74619638e-07
-7.46869242e-07
-7.35376239e-07
-7.35109139e-07
-7.79901112e-07
-7.74719056e-07
-7.46262514e-07
-7.3502772e-07
-7.34580551e-07
-7.78914842e-07
-7.742217e-07
-7.4228138e-07
-7.36730779e-07
-7.77246704e-07
-7.73983247e-07
-7.40676707e-07
-7.37843459e-07
-7.79359829e-07
-7.44479447e-07
-7.35904818e-07
-7.7524404e-07
-7.74141196e-07
-7.74693127e-07
-7.4175119e-07
-7.35831176e-07
-7.8068988e-07
-7.74774587e-07
-7.44489995e-07
-7.34410132e-07
-7.34201733e-07
-7.79281958e-07
-7.73925118e-07
-7.50232931e-07
-7.38795674e-07
-7.39585358e-07
-7.37758268e-07
-7.37306988e-07
-7.78882283e-07
-7.73547184e-07
-7.43231427e-07
-7.37197364e-07
-7.79854744e-07
-7.74572537e-07
-7.44962798e-07
-7.32914552e-07
-7.33128219e-07
-7.7902264e-07
-7.74080262e-07
-7.74675573e-07
-7.42225801e-07
-7.36970156e-07
-7.80041414e-07
-7.73583272e-07
-7.74785055e-07
-7.45639911e-07
-7.33444446e-07
-7.33243302e-07
-7.79533338e-07
-7.74918963e-07
-7.46492698e-07
-7.34776202e-07
-7.34592309e-07
-7.79135484e-07
-7.74699932e-07
-7.4747112e-07
-7.35312466e-07
-7.35113287e-07
-7.78905159e-07
-7.74527386e-07
-7.48029783e-07
-7.3552197e-07
-7.35320125e-07
-7.7867682e-07
-7.74472573e-07
-7.48098182e-07
-7.35450177e-07
-7.35282308e-07
-7.78589813e-07
-7.74529908e-07
-7.47662503e-07
-7.35334228e-07
-7.34958611e-07
-7.78815546e-07
-7.73925949e-07
-7.42600725e-07
-7.37625583e-07
-7.78769095e-07
-7.74238743e-07
-7.4490226e-07
-7.34676962e-07
-7.34353787e-07
-7.78848428e-07
-7.74040442e-07
-7.42241439e-07
-7.37486834e-07
-7.78694785e-07
-7.74255983e-07
-7.44839159e-07
-7.34696416e-07
-7.34372473e-07
-7.78687765e-07
-7.74033998e-07
-7.42346797e-07
-7.37484173e-07
-7.78585867e-07
-7.74190786e-07
-7.45222175e-07
-7.34708858e-07
-7.34589118e-07
-7.78258745e-07
-7.74687618e-07
-7.47036069e-07
-7.35067577e-07
-7.34672382e-07
-7.78517041e-07
-7.7394111e-07
-7.41858289e-07
-7.37190957e-07
-7.78526026e-07
-7.73745978e-07
-7.43041702e-07
-7.36831598e-07
-7.34559e-07
-7.34465735e-07
-7.78210274e-07
-7.73781959e-07
-7.74458107e-07
-7.43510597e-07
-7.36855638e-07
-7.78145009e-07
-7.74572287e-07
-7.43401801e-07
-7.33628388e-07
-7.33329214e-07
-7.78554714e-07
-7.74323198e-07
-7.40678449e-07
-7.36674162e-07
-7.78241844e-07
-7.7451241e-07
-7.43541022e-07
-7.33907471e-07
-7.33594072e-07
-7.78286925e-07
-7.7418251e-07
-7.41113437e-07
-7.36937259e-07
-7.78413928e-07
-7.73749972e-07
-7.4004404e-07
-7.36925731e-07
-7.78141413e-07
-7.7436268e-07
-7.44411363e-07
-7.34471763e-07
-7.34332695e-07
-7.77732987e-07
-7.74692906e-07
-7.4673946e-07
-7.3500459e-07
-7.34867352e-07
-7.77464123e-07
-7.74653989e-07
-7.46889469e-07
-7.35234324e-07
-7.3487033e-07
-7.77554408e-07
-7.74014913e-07
-7.41453632e-07
-7.37277916e-07
-7.77676172e-07
-7.74294949e-07
-7.44205943e-07
-7.34199524e-07
-7.34070888e-07
-7.77507315e-07
)
;

boundaryField
{
    closed
    {
        type            calculated;
        value           nonuniform List<scalar> 0();
    }
    open
    {
        type            calculated;
        value           nonuniform List<scalar> 0();
    }
    sides
    {
        type            empty;
    }
    procBoundary3to2
    {
        type            processor;
        value           uniform -7.34809374e-07;
    }
    procBoundary3to4
    {
        type            processor;
        value           uniform -7.74870265e-07;
    }
}


// ************************************************************************* //
