/*--------------------------------*- C++ -*----------------------------------*\
| =========                 |                                                 |
| \\      /  F ield         | OpenFOAM: The Open Source CFD Toolbox           |
|  \\    /   O peration     | Version:  2306                                  |
|   \\  /    A nd           | Website:  www.openfoam.com                      |
|    \\/     M anipulation  |                                                 |
\*---------------------------------------------------------------------------*/
FoamFile
{
    version     2.0;
    format      ascii;
    arch        "LSB;label=32;scalar=64";
    class       volScalarField;
    location    "0.0014";
    object      Z;
}
// * * * * * * * * * * * * * * * * * * * * * * * * * * * * * * * * * * * * * //

dimensions      [0 0 0 0 0 0 0];

internalField   nonuniform List<scalar> 
531
(
0.0140699108
0.0140741763
0.0147670322
0.0147785563
0.0140613905
0.0140750836
0.0146104707
0.0148074247
0.014773529
0.0140638081
0.0140778794
0.0146384568
0.0148474946
0.0147741843
0.0140820672
0.014069451
0.0148332871
0.0147634068
0.0140792909
0.0140718022
0.014079261
0.014726432
0.0148275179
0.0147795107
0.0147756875
0.0148608723
0.0147105138
0.0140815754
0.0140614714
0.0140740744
0.0146731398
0.0146009397
0.0140567862
0.0140639165
0.014545962
0.0147505665
0.0147919631
0.0147623646
0.0140755972
0.0143713123
0.0148350457
0.0145957785
0.0140796603
0.014066699
0.0148295779
0.0148204601
0.0140803382
0.0140791504
0.0148501946
0.014803913
0.0140843122
0.0140776654
0.0140900611
0.0143877868
0.0149082035
0.0148404861
0.0140836039
0.0140730122
0.0148659563
0.0146804041
0.0140773655
0.0147364858
0.0147652539
0.0140684128
0.0140663142
0.014075671
0.0146303829
0.0148238535
0.0147799855
0.0148378104
0.014066684
0.0140922904
0.0147404212
0.0149208509
0.0148279783
0.0140889024
0.0140818184
0.014852204
0.0148439575
0.0140849047
0.0140808799
0.0148556274
0.0147619272
0.0140876329
0.0140776177
0.0140905456
0.0148203118
0.0148655102
0.0140735512
0.0140918997
0.0140723459
0.0140931342
0.0147662061
0.0148692765
0.0148326225
0.0148753604
0.0140661265
0.0140911028
0.0147378193
0.0148594835
0.0147101967
0.0140710988
0.0140598568
0.0146578321
0.0147407687
0.0140625274
0.0140652013
0.0147724359
0.0147509386
0.0140687944
0.0140649345
0.0147273812
0.0147572427
0.0148206279
0.0147164203
0.0140810203
0.0146081632
0.0148665429
0.0144573296
0.0140832893
0.0140646733
0.0148142618
0.0147246356
0.0140781742
0.0140752221
0.0140794647
0.0148124948
0.0148270378
0.0140817149
0.0140788591
0.0146615387
0.0147893591
0.0144995234
0.0140753466
0.0140745757
0.0147651451
0.0149401015
0.014888785
0.0140895181
0.0140836235
0.0148814748
0.0145608151
0.014084528
0.0144329044
0.0148297533
0.0147245468
0.0140802755
0.0140846147
0.0148159864
0.0147040799
0.0140900352
0.0140633411
0.0142442102
0.0147426062
0.014739329
0.0140639198
0.0140691734
0.0144182742
0.0147251412
0.0147405652
0.0147481575
0.0146493488
0.014501615
0.014729182
0.0145409758
0.0140659296
0.0146453333
0.0147976206
0.0140620503
0.0140708392
0.0147841683
0.0147891332
0.0140707289
0.0140708354
0.0147311478
0.0147667755
0.0141020064
0.0140693725
0.0141245307
0.0147339019
0.0149089409
0.0147954148
0.0140782357
0.0140789652
0.0146554674
0.0148548595
0.0147931383
0.0140791663
0.0140667146
0.0143678328
0.0147101019
0.0146802967
0.0145440538
0.0147756075
0.0146764312
0.0140760459
0.0140645822
0.0140780885
0.0147989779
0.0148617491
0.0140676309
0.014078203
0.0147338551
0.0147905812
0.0140645767
0.0140735449
0.0147656704
0.0147822911
0.0140643279
0.0140736631
0.0144570713
0.0147474535
0.0147332985
0.0148282581
0.0147770115
0.0140823607
0.0146753688
0.0148323666
0.01406931
0.0140848238
0.0140727442
0.0147761073
0.0148158136
0.0140924405
0.0140763556
0.0142575833
0.0147469755
0.014877425
0.0147993445
0.0140764785
0.0140802756
0.0146678755
0.014870677
0.0147906196
0.0140833426
0.0140724025
0.0148072232
0.0148129227
0.014071233
0.0140762975
0.0145541238
0.014790729
0.0146511123
0.0140734252
0.0140715773
0.0146832238
0.014897314
0.0148466132
0.0142342093
0.0142096818
0.0148616925
0.0144729824
0.0140821547
0.014711523
0.014815489
0.0140709461
0.0140765615
0.0147679836
0.0147965733
0.0140724393
0.014076071
0.0147598136
0.0147938166
0.0140660524
0.0140780065
0.0145378592
0.0148265485
0.0147707365
0.0140849039
0.0140678594
0.0140827237
0.0144564348
0.014850808
0.0147429574
0.0140869148
0.0146470843
0.014870189
0.0140770316
0.0140746852
0.014880398
0.0143884925
0.0140926147
0.0145168381
0.0148877761
0.0147887785
0.0141125949
0.0140760927
0.0141053593
0.0147188538
0.0148703503
0.0148752404
0.0148197174
0.014115308
0.0140834027
0.0141167694
0.0148022728
0.0149249746
0.0143770323
0.0141009407
0.0141065192
0.0140947193
0.0141182114
0.0148898301
0.0148880629
0.0140932966
0.0146576724
0.0148838508
0.0140757068
0.0140774378
0.0148037908
0.0148221911
0.0140797467
0.0140754981
0.0144040183
0.0147493443
0.0148315874
0.0147994088
0.0140720045
0.0140774016
0.0145260907
0.0148376239
0.0146887859
0.0140800588
0.0145917095
0.0147831652
0.0140714699
0.0140712502
0.0143477426
0.014626193
0.014745642
0.0147756787
0.0147275594
0.0140686024
0.0140718205
0.0146050368
0.0148256709
0.0147579469
0.0140681444
0.0140755658
0.0145911707
0.0148391668
0.0147587338
0.014073399
0.0140658114
0.0145652594
0.0147768038
0.0144328307
0.0140665231
0.0140767827
0.0147471172
0.0149191376
0.0147880746
0.0140818579
0.0140691685
0.0145718796
0.0147814831
0.014459344
0.0140691121
0.0140751941
0.0147318006
0.0148971167
0.0147284146
0.014082128
0.0140727595
0.014714067
0.0148609867
0.0147208969
0.0140744208
0.0140752593
0.0146934974
0.0148777625
0.0147120095
0.0140879581
0.0143142019
0.0148261386
0.0146069312
0.0140762892
0.0140772787
0.0147206174
0.0149585986
0.0148435992
0.0141104855
0.0140749726
0.0141035775
0.0140692731
0.0140894291
0.0146320689
0.0148170757
0.0148463402
0.0147441922
0.0140852161
0.0144042806
0.0148363022
0.0144140831
0.0140809953
0.0144286201
0.0147897242
0.0146074027
0.0140684
0.0140682556
0.0145943773
0.0148540378
0.014669791
0.0140865042
0.0143351055
0.0148149161
0.0145766862
0.014072039
0.0140694367
0.0146551797
0.0148780365
0.0146817637
0.0140914631
0.0145487364
0.0148295248
0.0140936847
0.0140819798
0.014593554
0.0147895423
0.0145612575
0.0140742866
0.0140696791
0.0146189518
0.0148564411
0.0147385361
0.0140832724
0.014078916
0.0147364324
0.0149205386
0.0148495294
0.0140857322
0.0140823684
0.0144677699
0.0148056181
0.0145455254
0.0140909505
0.0140561027
0.0140879326
0.0146725724
0.0149508637
0.0149103466
0.0141896406
0.0140822455
0.0140959616
0.0146323536
0.014795912
0.0140848657
0.0140734104
0.0144468827
0.0147584484
0.0148716494
0.0148653109
0.0140941973
0.0140782999
0.0146499055
0.0147945126
0.0141408465
0.014072702
0.0144260459
0.0147432874
0.0148693482
0.014861299
0.0141025549
0.0141062875
0.0148328399
0.0147552117
0.0140972368
0.0141925904
0.0148079624
0.0147793015
0.0140902111
0.0140706634
0.0143983012
0.0147790865
0.0144825622
0.0140851749
0.0143365726
0.0148349311
0.0147623116
0.0141004887
0.0141042704
0.0148626615
0.0148798281
0.0141179805
0.0140881319
0.014093317
0.0140808806
0.0145486623
0.0147923872
0.0148543435
0.0147747715
0.0140981427
0.0145543412
0.0148215664
0.0140879585
0.0140801492
0.0144765973
0.0147230145
0.0147444989
0.0148563693
0.0148300301
0.014100668
0.0140782711
0.0143298669
0.0147637251
0.0147139057
0.0140843118
0.0140658454
0.0143881038
0.0147854588
0.0144573223
0.014088706
0.0143995265
0.0148433183
0.0146729946
0.0141126479
0.0140570877
0.014094502
0.0145925557
0.0148457121
0.0148587438
0.0146659038
0.0140901561
0.014200604
0.0147730515
0.0149132673
0.0148558217
0.014099332
0.0140817314
0.0144553567
0.0147829093
)
;

boundaryField
{
    closed
    {
        type            zeroGradient;
    }
    open
    {
        type            zeroGradient;
    }
    sides
    {
        type            empty;
    }
    procBoundary1to0
    {
        type            processor;
        value           uniform 0.0147880738;
    }
    procBoundary1to2
    {
        type            processor;
        value           uniform 0.0145364676;
    }
}


// ************************************************************************* //
