/*--------------------------------*- C++ -*----------------------------------*\
| =========                 |                                                 |
| \\      /  F ield         | OpenFOAM: The Open Source CFD Toolbox           |
|  \\    /   O peration     | Version:  2306                                  |
|   \\  /    A nd           | Website:  www.openfoam.com                      |
|    \\/     M anipulation  |                                                 |
\*---------------------------------------------------------------------------*/
FoamFile
{
    version     2.0;
    format      ascii;
    arch        "LSB;label=32;scalar=64";
    class       surfaceScalarField;
    location    "0.00142";
    object      phi;
}
// * * * * * * * * * * * * * * * * * * * * * * * * * * * * * * * * * * * * * //

dimensions      [1 0 -1 0 0 0 0];

oriented        oriented;

internalField   nonuniform List<scalar> 
529
(
1.19426407e-06
1.05833679e-06
1.35505679e-06
1.49480184e-06
1.19034412e-06
1.03276233e-06
1.31729459e-06
1.48107212e-06
1.20907395e-06
1.03900455e-06
1.29296018e-06
1.44590996e-06
1.21805401e-06
1.06011622e-06
1.27664071e-06
1.43361672e-06
1.21822634e-06
1.05465032e-06
1.26099889e-06
1.42351115e-06
1.22022284e-06
1.04832612e-06
1.2415245e-06
1.41356782e-06
1.2270789e-06
1.05169057e-06
1.24286029e-06
1.41300057e-06
1.22528782e-06
1.05077163e-06
1.23865932e-06
1.40716115e-06
1.22106165e-06
1.04703237e-06
1.23592861e-06
1.40490086e-06
1.21792253e-06
1.03734772e-06
1.21629523e-06
1.39132336e-06
1.2164564e-06
1.03583023e-06
1.19578246e-06
1.37060894e-06
1.2146948e-06
1.03771363e-06
1.18461059e-06
1.35682618e-06
1.21262111e-06
1.03920795e-06
1.17852733e-06
1.34722804e-06
1.19532143e-06
1.03181637e-06
1.18677591e-06
1.3381659e-06
1.18381644e-06
1.03355868e-06
1.18484406e-06
1.33273754e-06
1.18277426e-06
1.03515131e-06
1.1804702e-06
1.32339852e-06
1.17896397e-06
1.03762976e-06
1.17853752e-06
1.31452592e-06
1.17427979e-06
1.03903168e-06
1.17580669e-06
1.30689292e-06
1.1720951e-06
1.04226071e-06
1.17294565e-06
1.29623822e-06
1.17023901e-06
1.04867528e-06
1.17012386e-06
1.2848747e-06
1.16441185e-06
1.05167928e-06
1.17422307e-06
1.28295015e-06
1.16258779e-06
1.05204859e-06
1.17255324e-06
1.28120803e-06
1.16304404e-06
1.0550818e-06
1.17625731e-06
1.28173781e-06
1.16217134e-06
1.05779691e-06
1.18374365e-06
1.28763576e-06
1.16855161e-06
1.06439664e-06
1.18899203e-06
1.29236647e-06
1.17486075e-06
1.07140475e-06
1.19396882e-06
1.29762759e-06
1.18339371e-06
1.08370208e-06
1.20243587e-06
1.30319828e-06
1.1858898e-06
1.08940444e-06
1.2028219e-06
1.30122626e-06
1.18662706e-06
1.09048538e-06
1.19875527e-06
1.29473379e-06
1.18986671e-06
1.09127151e-06
1.18879476e-06
1.28184294e-06
1.18133803e-06
1.08375997e-06
1.17874388e-06
1.27208482e-06
1.17506583e-06
1.07756507e-06
1.17003269e-06
1.26284039e-06
1.16758046e-06
1.07120404e-06
1.16289667e-06
1.25554719e-06
1.16273452e-06
1.06806038e-06
1.15716711e-06
1.24722171e-06
1.1579311e-06
1.06667172e-06
1.15377367e-06
1.2409248e-06
1.15475557e-06
1.06704695e-06
1.15317968e-06
1.23753098e-06
1.15010521e-06
1.06609902e-06
1.15653309e-06
1.24045714e-06
1.15116631e-06
1.06657406e-06
1.15908817e-06
1.24451538e-06
1.15451947e-06
1.06978679e-06
1.16541652e-06
1.25251152e-06
1.16019914e-06
1.07562544e-06
1.17730208e-06
1.26789891e-06
1.17453994e-06
1.089516e-06
1.19010481e-06
1.28030188e-06
1.18288833e-06
1.0990795e-06
1.19867874e-06
1.2895863e-06
1.19287205e-06
1.10668681e-06
1.20103202e-06
1.29173621e-06
1.19597889e-06
1.10820568e-06
1.19613524e-06
1.28650382e-06
1.20164152e-06
1.1152487e-06
1.19876723e-06
1.28276656e-06
1.19808074e-06
1.11390213e-06
1.19502997e-06
1.27905415e-06
1.1984665e-06
1.11661056e-06
1.19456908e-06
1.27552071e-06
1.19846364e-06
1.11965449e-06
1.19268078e-06
1.26890405e-06
1.1974183e-06
1.12362879e-06
1.19117372e-06
1.26195714e-06
1.19531054e-06
1.12670606e-06
1.18917738e-06
1.25431005e-06
1.1905364e-06
1.12700448e-06
1.18626788e-06
1.24648182e-06
1.18408578e-06
1.12491246e-06
1.18170623e-06
1.23693614e-06
1.17481851e-06
1.11927956e-06
1.17532059e-06
1.22737575e-06
1.16598454e-06
1.11120363e-06
1.16574578e-06
1.21699511e-06
1.15614455e-06
1.10268266e-06
1.1561495e-06
1.20734831e-06
1.14771985e-06
1.0944328e-06
1.14841745e-06
1.19987373e-06
1.1415092e-06
1.08889731e-06
1.14274296e-06
1.19357261e-06
1.13727372e-06
1.08605689e-06
1.13995923e-06
1.18991211e-06
1.13551891e-06
1.0851396e-06
1.13774693e-06
1.18742959e-06
1.13471227e-06
1.08432849e-06
1.13562314e-06
1.18512912e-06
1.13336761e-06
1.08252693e-06
1.13212519e-06
1.18039343e-06
1.13040352e-06
1.0800911e-06
1.12693001e-06
1.17493436e-06
1.12822463e-06
1.08021372e-06
1.12348522e-06
1.16938023e-06
1.12809294e-06
1.08130039e-06
1.11856198e-06
1.15822036e-06
1.12081844e-06
1.07904251e-06
1.1118251e-06
1.14977531e-06
1.11619563e-06
1.07473323e-06
1.10470887e-06
1.14053238e-06
1.10855765e-06
1.06946102e-06
1.09962219e-06
1.1339691e-06
1.10104155e-06
1.06410629e-06
1.09775061e-06
1.13037972e-06
1.09365819e-06
1.05331601e-06
1.09149308e-06
1.12730766e-06
1.0862558e-06
1.04821272e-06
1.09109674e-06
1.1257489e-06
1.0811619e-06
1.04367649e-06
1.08907563e-06
1.12247335e-06
1.07738658e-06
1.04190474e-06
1.08638896e-06
1.11844379e-06
1.07472864e-06
1.04091232e-06
1.08396256e-06
1.1149126e-06
1.0726789e-06
1.03987248e-06
1.08166449e-06
1.11221171e-06
1.07116624e-06
1.03898317e-06
1.07978608e-06
1.10927291e-06
1.06903909e-06
1.04136656e-06
1.08314557e-06
1.11066449e-06
1.07106643e-06
1.04704886e-06
1.08829036e-06
1.11152171e-06
1.06843691e-06
1.04803313e-06
1.08944457e-06
1.1100525e-06
1.06738457e-06
1.0480982e-06
1.08764073e-06
1.1071252e-06
1.06973494e-06
1.05080986e-06
1.08633424e-06
1.10306984e-06
1.06892448e-06
1.05178775e-06
1.08412606e-06
1.09882115e-06
1.06742765e-06
1.05210578e-06
1.08167023e-06
1.09469315e-06
1.06597334e-06
1.05235635e-06
1.07942652e-06
1.09088696e-06
1.06458926e-06
1.05242114e-06
1.07714008e-06
1.08733562e-06
1.06327011e-06
1.05236344e-06
1.07490128e-06
1.08394196e-06
1.0618568e-06
1.05211399e-06
1.07298686e-06
1.0810022e-06
1.06042414e-06
1.05161823e-06
1.07112498e-06
1.07851698e-06
1.05932291e-06
1.05111578e-06
1.06934927e-06
1.07629272e-06
1.05836669e-06
1.05067474e-06
1.06774124e-06
1.07430953e-06
1.05754916e-06
1.05031222e-06
1.06631779e-06
1.07257093e-06
1.05691091e-06
1.05017235e-06
1.06503635e-06
1.07077813e-06
1.05641854e-06
1.05034666e-06
1.06402125e-06
1.0692281e-06
1.05606496e-06
1.0506e-06
1.0631793e-06
1.06790891e-06
1.05584937e-06
1.05093958e-06
1.06251658e-06
1.06682739e-06
1.05578864e-06
1.05139602e-06
1.06207762e-06
1.06599374e-06
1.05587333e-06
1.05196748e-06
1.06185673e-06
1.06542532e-06
1.05614644e-06
1.0526698e-06
1.06179151e-06
1.06506425e-06
1.05656547e-06
1.05348754e-06
1.06192241e-06
1.06491803e-06
1.05710462e-06
1.05438963e-06
1.06219197e-06
1.06493735e-06
1.05771387e-06
1.05531396e-06
1.06252231e-06
1.06504427e-06
1.05836429e-06
1.05625922e-06
1.06293202e-06
1.06524467e-06
1.05903738e-06
1.05719199e-06
1.06338366e-06
1.0655442e-06
1.05983182e-06
1.05818519e-06
1.06387915e-06
1.06590054e-06
1.06068528e-06
1.05926036e-06
1.06455845e-06
1.06646912e-06
1.06174892e-06
1.06053493e-06
1.06548758e-06
1.06730839e-06
1.06305311e-06
1.06204357e-06
1.06668555e-06
1.06843677e-06
1.06462068e-06
1.06380574e-06
1.06817539e-06
1.06986972e-06
1.06648159e-06
1.06585514e-06
1.06999579e-06
1.07164818e-06
1.06866296e-06
1.06818651e-06
1.07207806e-06
1.07370473e-06
1.07111071e-06
1.07073663e-06
1.07435899e-06
1.07590466e-06
1.0736011e-06
1.07329909e-06
1.07670478e-06
1.07821586e-06
1.07609645e-06
1.07578816e-06
1.0792583e-06
1.08115427e-06
1.07927512e-06
1.07891164e-06
1.08325593e-06
1.08599802e-06
1.08006798e-06
1.07600745e-06
1.08093835e-06
1.08553494e-06
1.08526939e-06
1.08509064e-06
1.08636371e-06
1.08765133e-06
1.08871744e-06
1.08983237e-06
1.09103431e-06
1.092286e-06
1.09358498e-06
1.09493728e-06
1.09633645e-06
1.09778119e-06
1.09926934e-06
1.10079537e-06
1.10235498e-06
1.10394087e-06
1.10554738e-06
1.1071659e-06
1.10878987e-06
1.11041088e-06
1.11202202e-06
1.11361705e-06
1.11518997e-06
1.11673933e-06
1.1182632e-06
1.11976929e-06
1.12126697e-06
1.1227818e-06
1.12434825e-06
1.12602549e-06
1.12789342e-06
1.13006458e-06
1.13268003e-06
1.13590772e-06
1.13992227e-06
1.14487782e-06
1.15083935e-06
1.15772998e-06
1.16526598e-06
1.17294404e-06
1.1801167e-06
1.18619974e-06
1.19097537e-06
1.19487963e-06
1.19906874e-06
1.20505501e-06
1.21385724e-06
1.22493202e-06
1.23555455e-06
1.24147981e-06
1.23914525e-06
1.22836608e-06
1.21342016e-06
1.2011688e-06
1.19746615e-06
1.20466865e-06
1.22136762e-06
1.24367431e-06
1.26729999e-06
1.28744227e-06
1.2954033e-06
1.28163014e-06
1.24819024e-06
1.2110327e-06
1.18415651e-06
1.17141108e-06
1.17278817e-06
1.18726474e-06
1.2041675e-06
1.18579994e-06
1.11947909e-06
1.04947245e-06
1.02685943e-06
)
;

boundaryField
{
    closed
    {
        type            calculated;
        value           nonuniform List<scalar> 0();
    }
    open
    {
        type            calculated;
        value           uniform 1.0748384e-06;
    }
    sides
    {
        type            empty;
        value           nonuniform List<scalar> 0();
    }
    procBoundary5to4
    {
        type            processor;
        value           uniform -1.47699063e-06;
    }
}


// ************************************************************************* //
