/*--------------------------------*- C++ -*----------------------------------*\
| =========                 |                                                 |
| \\      /  F ield         | OpenFOAM: The Open Source CFD Toolbox           |
|  \\    /   O peration     | Version:  2306                                  |
|   \\  /    A nd           | Website:  www.openfoam.com                      |
|    \\/     M anipulation  |                                                 |
\*---------------------------------------------------------------------------*/
FoamFile
{
    version     2.0;
    format      ascii;
    arch        "LSB;label=32;scalar=64";
    class       volScalarField;
    location    "0.00142";
    object      prefDh_H;
}
// * * * * * * * * * * * * * * * * * * * * * * * * * * * * * * * * * * * * * //

dimensions      [1 1 -3 0 0 0 0];

internalField   nonuniform List<scalar> 
530
(
82213.6481
82286.2402
82831.7299
82818.7646
82414.2461
82482.0296
83016.8738
82997.329
82596.8032
82668.1576
83165.2193
83139.9387
82748.567
82847.0472
83286.533
83286.931
82891.4419
83002.4311
83426.0622
83422.8511
83049.4781
83134.4726
83567.498
83555.9285
83207.5578
83265.815
83704.8546
83684.1572
83347.6938
83403.7176
83833.6438
83814.2547
83482.1697
83540.897
83961.4728
83941.9353
83613.038
83668.4942
84077.3244
84070.6992
83741.962
83800.522
84175.8056
84194.7104
83865.1299
83925.2125
84283.618
84311.7641
83993.4039
84039.5038
84400.8312
84423.4596
84114.1319
84150.0508
84521.6208
84526.9968
84219.631
84256.7381
84617.3363
84620.7149
84321.2697
84349.6684
84709.234
84711.2728
84420.4196
84443.8354
84800.5492
84800.1996
84516.7265
84539.311
84890.5276
84890.8039
84610.7509
84636.4129
84977.8735
84980.6914
84701.9254
84733.6224
85061.9458
85069.4835
84792.2082
84830.3659
85154.834
85159.3567
84886.2316
84923.9078
85252.3123
85254.3881
84991.337
85024.5293
85354.2598
85352.779
85095.0569
85132.0383
85458.6407
85452.1995
85197.7121
85235.7668
85557.4662
85551.8312
85300.7494
85338.9831
85656.3534
85651.915
85405.0024
85443.5735
85755.573
85752.98
85506.1681
85548.953
85854.2445
85854.4149
85609.0295
85653.3909
85952.4551
85955.0969
85714.2529
85752.9023
86045.3407
86057.0598
85817.2012
85859.3473
86145.128
86160.6599
85922.5289
85965.717
86246.9349
86264.6224
86028.8901
86073.0762
86350.8831
86369.3443
86136.9158
86180.8725
86456.1752
86474.6863
86246.4366
86289.9343
86563.1481
86580.9923
86357.1926
86399.4222
86672.3325
86687.8362
86469.0135
86509.5135
86788.9575
86797.913
86587.5584
86622.4814
86907.8478
86914.7403
86708.7085
86743.3734
87028.1114
87033.5981
86830.6628
86867.5186
87152.447
87154.5754
86953.1192
86990.7333
87272.2179
87276.67
87072.2749
87116.4905
87391.774
87399.6291
87193.8671
87237.1204
87509.5254
87521.246
87317.9097
87358.7437
87627.2301
87641.5632
87442.8561
87479.334
87737.377
87754.0248
87553.4053
87591.348
87844.6443
87861.712
87664.1144
87699.881
87949.454
87966.8761
87772.7614
87809.1376
88052.6349
88072.0272
87879.2685
87919.3484
88154.1855
88176.4586
87984.2733
88028.5828
88255.2466
88279.4151
88088.6648
88136.7338
88356.5568
88381.4954
88192.6632
88243.5545
88457.3713
88482.1417
88294.5817
88349.809
88557.6611
88583.2818
88396.2142
88454.4178
88657.0083
88684.925
88498.6501
88559.5022
88756.6441
88785.0558
88601.5228
88661.4773
88855.5609
88883.3907
88702.7563
88760.933
88953.2715
88979.7165
88802.7882
88858.8948
89049.6532
89074.5931
88901.0752
88954.9479
89143.3555
89167.7948
88997.8514
89048.9921
89235.1834
89259.3907
89091.9165
89140.6778
89324.4141
89348.1075
89182.7681
89229.3072
89410.0375
89434.703
89269.7528
89317.0307
89491.3319
89519.1368
89352.7911
89401.286
89566.8212
89596.2947
89429.74
89484.1376
89639.8316
89674.6992
89507.3804
89564.064
89714.0755
89751.1296
89585.7522
89643.9408
89790.3191
89825.6183
89665.2545
89722.6408
89869.1786
89898.9762
89745.6965
89798.116
89950.2759
89975.4393
89827.1566
89875.5509
90028.4302
90045.2733
89903.1024
89946.8369
90100.9901
90111.55
89976.2505
90015.1385
90167.4194
90175.014
90046.0788
90080.8395
90230.491
90236.5763
90112.885
90144.518
90291.1324
90296.7186
90177.0061
90206.5027
90349.5604
90354.3272
90238.5816
90270.6347
90407.5414
90409.4504
90297.7804
90332.513
90461.5561
90462.7519
90350.1877
90392.5918
90512.3051
90513.5766
90402.3686
90446.336
90560.337
90561.9475
90455.5795
90495.7693
90603.4537
90607.7309
90505.7844
90545.9843
90646.6999
90651.8433
90555.1376
90594.3768
90688.7905
90694.2061
90603.2266
90640.8435
90729.2391
90734.647
90649.4276
90685.0233
90767.9761
90773.1546
90693.7477
90726.9798
90804.9365
90809.7911
90735.8389
90766.9865
90840.0089
90844.6517
90775.53
90804.9617
90873.2106
90877.6853
90813.0677
90840.8036
90904.6111
90908.9058
90848.5688
90874.5972
90934.2641
90938.3521
90882.0651
90906.4269
90962.2037
90966.0797
90913.6038
90936.3763
90988.4446
90992.1011
90943.2518
90964.521
91013.0565
91016.5123
90971.0817
90990.9344
91036.1232
91039.3898
90997.149
91015.6846
91057.6928
91060.7979
91021.4932
91038.8609
91077.8168
91080.7963
91044.1505
91060.5298
91096.5686
91099.4373
91065.2784
91080.6973
91114.0245
91116.7783
91084.98
91099.4629
91130.2522
91132.8836
91103.2643
91116.8966
91145.3067
91147.812
91120.2298
91133.0544
91159.2531
91161.6301
91135.9646
91148.0064
91172.1536
91174.381
91150.5064
91161.7833
91184.0684
91186.1202
91164.0333
91174.4099
91195.0408
91196.9078
91176.5177
91186.0441
91205.1186
91206.8158
91187.9658
91196.7423
91214.3435
91215.9057
91198.4601
91206.5765
91222.7835
91224.2336
91208.0824
91215.598
91230.4957
91231.8429
91216.9014
91223.8427
91237.5412
91238.7713
91225.0053
91231.3198
91243.9758
91245.0704
91232.5023
91238.1183
91249.8493
91250.7928
91239.3528
91244.3271
91255.2321
91256.011
91245.6883
91249.9679
91260.4075
91261.0437
91252.1734
91255.6351
91266.4044
91266.7101
91258.8348
91262.1412
91270.4843
91272.3317
91268.7933
91271.1204
91272.2271
91274.4517
91274.5574
91276.6763
91277.1755
91279.2028
91279.8262
91281.8611
91282.5087
91284.5416
91285.1727
91287.1533
91287.7532
91289.6259
91290.1796
91291.8834
91292.3816
91293.8542
91294.2939
91295.4826
91295.8644
91296.7407
91297.0633
91297.6359
91297.893
91298.2108
91298.3952
91298.5349
91298.6486
91298.6907
91298.7515
91298.7605
91298.7942
91298.7294
91298.6286
91298.5495
91298.5056
91298.4685
91298.4489
91298.4377
91298.4322
91298.4296
91298.4285
91298.428
91298.4279
91298.4278
91298.4278
91298.4278
91298.4278
91298.4278
91298.4278
91298.4278
91298.4278
91298.4278
91298.4278
91298.4278
91298.4278
91298.4278
91298.4278
91298.4278
91298.4278
91298.4278
91298.4278
91298.4278
91298.4278
91298.4278
91298.4278
91298.4278
91298.4278
91298.4278
91298.4278
91298.4278
)
;

boundaryField
{
    closed
    {
        type            calculated;
        value           nonuniform List<scalar> 0();
    }
    open
    {
        type            calculated;
        value           uniform 91298.4278;
    }
    sides
    {
        type            empty;
    }
    procBoundary5to4
    {
        type            processor;
        value           uniform 82625.0806;
    }
}


// ************************************************************************* //
