/*--------------------------------*- C++ -*----------------------------------*\
| =========                 |                                                 |
| \\      /  F ield         | OpenFOAM: The Open Source CFD Toolbox           |
|  \\    /   O peration     | Version:  2306                                  |
|   \\  /    A nd           | Website:  www.openfoam.com                      |
|    \\/     M anipulation  |                                                 |
\*---------------------------------------------------------------------------*/
FoamFile
{
    version     2.0;
    format      ascii;
    arch        "LSB;label=32;scalar=64";
    class       volScalarField;
    location    "0.00142";
    object      sourcePV;
}
// * * * * * * * * * * * * * * * * * * * * * * * * * * * * * * * * * * * * * //

dimensions      [1 -3 -1 0 0 0 0];

internalField   nonuniform List<scalar> 
530
(
0.238713899
0.353405929
2.06957135e-08
2.07805253e-08
0.235034022
0.280184758
2.11495802e-08
2.12232575e-08
0.23074961
0.220543459
2.15592821e-08
2.16116463e-08
0.235931531
0.172886871
2.19343614e-08
2.20134631e-08
0.235641097
0.146200375
2.23476913e-08
2.24066455e-08
0.216567134
0.134367974
2.28533281e-08
2.28780552e-08
0.193064842
0.126501577
2.33544481e-08
2.33603327e-08
0.180580082
0.116599729
2.38459232e-08
2.385697e-08
0.169914316
0.107521598
2.43469524e-08
2.43598628e-08
0.160386362
0.101881388
0.000151550354
2.48740818e-08
0.150927012
0.0938914296
0.00144624616
2.53939277e-08
0.143146218
0.0888495076
0.00160461201
2.5988856e-08
0.131714527
0.088659172
0.00113399126
0.000147099954
0.121559329
0.0900167455
2.71528298e-08
2.7191023e-08
0.114788274
0.0889130623
2.77516538e-08
2.77772889e-08
0.109757866
0.0892699314
2.834626e-08
2.83644915e-08
0.105686303
0.0886381587
2.89414654e-08
2.8953892e-08
0.102624159
0.0869268098
2.95365674e-08
2.95505471e-08
0.100335269
0.0842825401
3.019014e-08
3.02166504e-08
0.0987425966
0.0817047446
3.08871257e-08
3.09305974e-08
0.0974093425
0.07933766
3.16143511e-08
3.1647801e-08
0.095329145
0.0778638528
3.2352949e-08
3.23794154e-08
0.0909599806
0.0755184398
3.31006105e-08
3.31202158e-08
0.0870013518
0.0718029179
3.38466402e-08
3.38617492e-08
0.0836186007
0.0691483343
3.45815995e-08
3.46004432e-08
0.0809747002
0.0666871051
3.53419277e-08
3.53614446e-08
0.0782920307
0.0638753814
3.62292687e-08
3.62570643e-08
0.0766897085
0.0609784636
3.71118946e-08
3.71481687e-08
0.0749632387
0.0589089001
3.79918978e-08
3.80318554e-08
0.0728292469
0.0583446915
3.88563756e-08
3.89179626e-08
0.0714272644
0.0561726664
3.97298963e-08
3.97996532e-08
0.0698191543
0.0542467379
4.06029668e-08
4.06747791e-08
0.0680794605
0.0524039674
4.14724029e-08
4.15435494e-08
0.0661696268
0.0507406668
4.24980782e-08
4.25935843e-08
0.0641260521
0.0491106958
4.35617309e-08
4.36545785e-08
0.0620037831
0.0477044966
4.46220493e-08
4.47055756e-08
0.060031338
0.0464015583
4.57091025e-08
4.57602481e-08
0.0575149151
0.0450355001
4.67870095e-08
4.6832584e-08
0.0547697858
0.0429371317
4.78505562e-08
4.78949201e-08
0.0522283032
0.04069568
4.89077604e-08
4.89460042e-08
0.0498042296
0.0386807876
5.01845935e-08
5.02474986e-08
0.0486280915
0.0363448884
5.14793131e-08
5.15605801e-08
0.0470236336
0.0351158557
5.27511053e-08
5.28396512e-08
0.0449449372
0.0339449581
5.39876031e-08
5.40828594e-08
0.0425960376
0.0329431149
5.51517504e-08
5.52478489e-08
0.0416376258
0.0323085208
5.62698583e-08
5.63591182e-08
0.0405981072
0.03193656
5.73446299e-08
5.74313267e-08
0.0398769332
0.0312877265
5.85377951e-08
5.86776701e-08
0.0393659994
0.0303289357
5.98499407e-08
6.00068835e-08
0.0389159843
0.0292852746
6.11193173e-08
6.12856409e-08
0.0382700044
0.0282283976
6.23479563e-08
6.25177323e-08
0.0373528297
0.0271194604
6.35319639e-08
6.36990363e-08
0.0365901004
0.0258105468
6.46835014e-08
6.48477027e-08
0.036005178
0.0246119918
6.57938082e-08
6.5965399e-08
0.0352052129
0.0233975292
6.68699263e-08
6.70343578e-08
0.0340252242
0.0224554138
6.79040418e-08
6.80559582e-08
0.0327421153
0.0216044758
6.91392547e-08
6.93589752e-08
0.0313483571
0.0207167117
7.04585178e-08
7.06556537e-08
0.0299242699
0.0197943892
7.17067086e-08
7.18901742e-08
0.0285136468
0.0188891009
7.28955895e-08
7.30670804e-08
0.0272354236
0.0180558211
7.4035893e-08
7.42154042e-08
0.0262062038
0.0174332653
7.51420249e-08
7.53215737e-08
0.0255191847
0.0166091227
7.61807031e-08
7.63745392e-08
0.0251305147
0.0160534606
7.71426567e-08
7.73396767e-08
0.025286195
0.0153246274
7.80505582e-08
7.82799534e-08
0.024936921
0.0145658155
7.89282753e-08
7.91684742e-08
0.0240091878
0.014051075
7.97775737e-08
8.00085399e-08
0.0224559705
0.013717585
8.07093982e-08
8.11799978e-08
0.0203013398
0.0134267579
8.23655457e-08
8.27668389e-08
0.0176080255
0.0128631452
8.39027193e-08
8.4189854e-08
0.0154632548
0.0125278992
8.53078984e-08
8.5505562e-08
0.0146810998
0.0122354544
8.65721854e-08
8.67303556e-08
0.0141412921
0.0119614984
8.77411979e-08
8.7878571e-08
0.0136419848
0.0116687934
8.88286149e-08
8.89601491e-08
0.0131624583
0.0113431313
8.98392083e-08
8.99613552e-08
0.0126940567
0.0107519795
9.07961689e-08
9.08867223e-08
0.0122320848
0.0101734038
9.16579399e-08
9.17529533e-08
0.0120398279
0.00957449501
9.2440512e-08
9.25446866e-08
0.0117543185
0.00920578481
9.31636332e-08
9.32672935e-08
0.0112666842
0.00895156139
9.37947447e-08
9.39248642e-08
0.0108293734
0.00852654075
9.43960042e-08
9.45291104e-08
0.0103211659
0.00808506871
9.49530783e-08
9.50835716e-08
0.00977370892
0.00763900382
9.54618209e-08
9.55884922e-08
0.00922408605
0.00721019852
9.59253787e-08
9.60446438e-08
0.00867717021
0.00679887046
9.63455062e-08
9.64565503e-08
0.00814905665
0.00639405139
9.67224065e-08
9.68275085e-08
0.00764133265
0.00599747956
9.70592974e-08
9.71585903e-08
0.00716024298
0.00561423014
9.7359551e-08
9.74525551e-08
0.00670135317
0.00525303527
9.76255332e-08
9.77121864e-08
0.00626549633
0.00491214851
9.78595274e-08
9.79401281e-08
0.00585276067
0.00458973936
9.81274289e-08
9.82249773e-08
0.00546235236
0.00428448323
9.84156208e-08
9.85070674e-08
0.00509327351
0.00399537214
9.86744877e-08
9.87601778e-08
0.00474551763
0.00372174738
9.8905689e-08
9.89861476e-08
0.00442007578
0.00346180904
9.91108122e-08
9.9186892e-08
0.00411788947
0.00321523592
9.92916613e-08
9.93637758e-08
0.00383357923
0.00298454773
9.94503111e-08
9.95183924e-08
0.00356462122
0.00276771239
9.95883418e-08
9.96526569e-08
0.00331341373
0.00256395116
9.97072194e-08
9.97678817e-08
0.00307798823
0.0023733211
9.98087164e-08
9.98657075e-08
0.00285630522
0.00219482757
9.98942411e-08
9.99475349e-08
0.00264936864
0.00203034163
9.99653302e-08
1.00014551e-07
0.00245047977
0.00188103758
1.00023213e-07
1.00068272e-07
0.00226376046
0.00174128843
1.0006897e-07
1.00110219e-07
0.00209187306
0.00161077075
1.00103655e-07
1.00141565e-07
0.00193295974
0.00148823276
1.00128522e-07
1.00163462e-07
0.00178509459
0.00137351913
1.00144713e-07
1.00176877e-07
0.00164697566
0.00126724141
1.00153369e-07
1.00182617e-07
0.00151610774
0.00117135715
1.00155624e-07
1.00181459e-07
0.00138890265
0.00108322608
1.00152313e-07
1.00174369e-07
0.00126942401
0.00100041614
1.00144204e-07
1.00161812e-07
0.00115241385
0.000923778289
1.00135146e-07
1.00147626e-07
0.00100204894
0.000822434425
1.00137097e-07
1.00139941e-07
0.0008168373
0.000653505907
0.000255353482
0.000181063769
0.000452969028
0.000359462063
0.000368829427
0.000288912714
0.000353156333
0.000283137597
0.000327064015
0.000262326762
0.000303682717
0.000238970196
0.000278959236
0.000214397677
0.000252224475
0.000189636256
0.000223727633
0.000165077802
0.000193851327
0.000141232681
0.000163171422
0.000118590866
0.000132575928
9.74858935e-05
0.000103264915
7.80353832e-05
7.65965378e-05
6.01967545e-05
5.37565751e-05
4.39390174e-05
3.53463963e-05
2.94120458e-05
2.11401172e-05
1.69205549e-05
1.02570309e-05
6.6180458e-06
1.80195649e-06
9.94632899e-08
9.9458841e-08
9.94555305e-08
9.94538798e-08
9.94525851e-08
9.94519774e-08
9.94516607e-08
9.94515275e-08
9.9451474e-08
9.94514561e-08
9.9451451e-08
9.94514501e-08
9.94514501e-08
9.94514502e-08
9.94514503e-08
9.94514503e-08
9.94514503e-08
9.94514503e-08
9.94514503e-08
9.94514503e-08
9.94514503e-08
9.94514503e-08
9.94514503e-08
9.94514503e-08
9.94514503e-08
9.94514503e-08
9.94514503e-08
9.94514503e-08
9.94514503e-08
9.94514503e-08
9.94514503e-08
9.94514503e-08
9.94514503e-08
9.94514503e-08
9.94514503e-08
9.94514503e-08
9.94514503e-08
9.94514503e-08
9.94514503e-08
)
;

boundaryField
{
    closed
    {
        type            calculated;
        value           nonuniform List<scalar> 0();
    }
    open
    {
        type            calculated;
        value           uniform 0;
    }
    sides
    {
        type            empty;
    }
    procBoundary5to4
    {
        type            processor;
        value           uniform 0;
    }
}


// ************************************************************************* //
