/*--------------------------------*- C++ -*----------------------------------*\
| =========                 |                                                 |
| \\      /  F ield         | OpenFOAM: The Open Source CFD Toolbox           |
|  \\    /   O peration     | Version:  2306                                  |
|   \\  /    A nd           | Website:  www.openfoam.com                      |
|    \\/     M anipulation  |                                                 |
\*---------------------------------------------------------------------------*/
FoamFile
{
    version     2.0;
    format      ascii;
    arch        "LSB;label=32;scalar=64";
    class       volScalarField;
    location    "0.00094";
    object      prefDh_H;
}
// * * * * * * * * * * * * * * * * * * * * * * * * * * * * * * * * * * * * * //

dimensions      [1 1 -3 0 0 0 0];

internalField   nonuniform List<scalar> 
530
(
23980.3586
23366.0756
23213.6727
23301.8918
23188.0964
23256.0083
23980.1638
23989.8959
23254.5391
23252.5438
23988.4221
23982.1128
23260.317
23262.75
23995.8394
23971.9368
23279.174
23151.5621
23317.2762
23972.2988
23992.0374
23970.3399
23363.4079
23161.3459
23301.8463
23137.7344
23274.752
23977.8428
23982.865
23978.2655
23287.0047
23150.6623
23243.4665
23978.7755
23981.1927
23303.4957
23116.5632
23302.2922
23980.6093
23979.4195
23981.755
23334.4067
23188.2153
23283.6237
23982.4886
23980.1845
23372.4594
23178.8975
23301.0883
23142.8807
23271.6622
23977.3936
23983.0278
23980.8329
23352.6029
23198.2681
23283.4739
23978.6642
23984.7258
23375.8499
23233.0751
23293.6628
23981.0997
23982.7414
23372.143
23240.0841
23286.5667
23977.2728
23984.5125
23376.006
23222.5821
23312.4273
23983.828
23972.163
23369.1045
23215.1843
23266.3875
23159.2363
23183.4889
23966.133
23978.2277
23206.8615
23238.8834
23973.6786
23966.9303
23972.4292
23348.3517
23070.4697
23175.4729
23962.8351
23965.7057
23231.6222
23027.1398
23122.5606
23955.9484
23967.8323
23958.3948
23970.5552
23264.1009
23094.0931
23116.6151
23108.5876
23951.6747
23964.6535
23142.7274
23117.9553
23955.6719
23959.4394
23180.2713
23132.8736
23959.1462
23950.3957
23256.3446
23051.5407
23188.1438
23949.291
23959.5387
23956.7981
23295.2864
23132.2006
23169.9515
23951.5092
23956.1613
23293.3131
23098.17
23164.6268
23949.3914
23959.1737
23213.2572
23149.5573
23955.7028
23949.4159
23216.9241
23021.4974
23078.0669
23940.7906
23970.3871
23156.3256
23091.7117
23941.8489
23968.5429
23140.9435
23091.6195
23946.6918
23966.6152
23139.0788
23105.1043
23951.1296
23964.2068
23163.4901
23138.6532
23955.8048
23959.4501
23214.4211
23161.5015
23963.4553
23950.1401
23306.6544
23092.2357
23221.9088
23947.6858
23970.8004
23955.6062
23369.6011
23145.6483
23243.7486
23107.8154
23117.5121
23943.2027
23973.5891
23232.9654
23162.8492
23945.7743
23970.173
23231.1327
23187.2622
23950.6051
23964.6231
23240.818
23174.5223
23957.107
23958.1585
23289.7698
23079.5916
23138.6229
23954.0877
23960.6735
23961.2691
23961.9451
23380.9315
23134.554
23257.4016
23099.8753
23101.5326
23950.5018
23953.579
23260.5948
23022.8357
23074.4431
23945.6551
23965.4668
23172.1994
23123.9928
23949.378
23963.3403
23124.9944
23130.8899
23955.2377
23963.6178
23965.0454
23277.4645
23104.6196
23961.7549
23970.0164
23226.7515
23241.8428
23967.1081
23387.2851
23157.7179
23962.5191
23969.4628
23382.4951
23242.7179
23260.8417
23242.7226
23967.485
23961.4102
23376.0515
23191.8381
23209.054
23954.6172
23979.174
23332.0743
23235.047
23961.1872
23970.7594
23358.0406
23165.7492
23166.1699
23960.7576
23962.1995
23372.6944
23068.0346
23208.0393
23956.6125
23969.8237
23962.4049
23380.7548
23031.172
23242.4253
23951.5219
23339.4553
23046.356
23955.495
23947.5785
23962.8158
23952.6191
23306.7193
23068.764
23178.9245
23025.6872
23108.4987
23950.431
23959.1421
23960.395
23370.111
23149.08
23148.8812
23958.4329
23957.7651
23375.7043
23066.6485
23157.0973
23957.4563
23967.7593
23966.2711
23305.6002
23050.588
23081.5163
23955.3014
23967.4051
23252.7154
23143.1924
23959.0249
23958.8897
23326.6652
23098.9305
23115.7346
23949.3265
23960.0692
23325.0145
23190.7918
23954.2487
23950.1023
23390.53
23037.1972
23167.0627
23947.69
23959.6187
23957.9336
23339.2861
23044.0836
23071.0135
23070.3464
23942.3932
23960.2442
23233.1386
23177.4576
23949.5339
23961.6933
23275.0624
23178.3908
23963.2317
23960.4771
23368.6454
23064.2176
23164.9763
23961.5523
23970.9407
23971.4813
23383.015
23225.9635
23971.1382
23970.6919
23378.8123
23248.047
23213.3965
23213.6199
23964.8974
23964.9019
23376.2058
23106.6277
23279.6415
23964.5305
23379.125
23162.2515
23965.3708
23965.8562
23296.0128
23313.8644
23966.5203
23379.6377
23099.3606
23964.5553
23961.8139
23382.4982
23102.1842
23104.0577
23957.435
23961.1895
23385.1431
22996.3062
23135.4868
23955.107
23964.0597
23962.438
23346.2629
23106.64
23962.6712
23960.1163
23242.9506
23131.2838
23966.7542
23955.5451
23314.1614
23052.4001
23060.1593
23951.5747
23969.0923
23307.3615
23178.7101
23962.971
23963.1224
23385.9039
23156.8721
23157.783
23960.5635
23960.3536
23379.7191
23180.735
23182.7779
23959.1736
23964.9937
23381.0138
23199.4733
23200.7604
23964.6578
23960.5894
23373.0005
23134.1693
23309.3221
23964.6207
23370.878
23129.0257
23977.5184
23965.39
23369.286
23173.2927
23184.0335
23971.0164
23970.8657
23371.7497
23220.5636
23221.3625
23977.136
23971.4207
23367.4094
23201.1355
23202.5317
23972.6002
23973.8319
23371.2196
23194.0051
23194.3782
23973.4492
23971.5008
23373.2183
23174.5618
23175.8048
23972.2948
23968.8046
23374.0021
23136.3621
23138.135
23964.7236
23973.4123
23320.6959
23184.2581
23976.5586
23963.896
23368.0396
23110.2407
23113.1666
23958.9813
23970.5105
23310.7258
23170.5574
23972.5869
23961.0918
23364.625
23103.0552
23105.2497
23958.0296
23966.4345
23310.6239
23169.641
23971.3588
23957.2821
23365.4278
23099.8662
23103.3622
23954.9568
23964.3952
23307.6439
23164.2546
23968.8331
23955.4387
23360.2237
23085.3121
23090.0357
23954.5632
23960.2243
23286.3831
23140.6778
23970.3967
23951.0722
23330.744
23038.9943
23046.7319
23946.0786
23967.2346
23245.5091
23136.9202
23954.3229
23966.2067
23216.4231
23155.7684
23959.6709
23961.0418
23231.9011
23141.8306
23971.4253
23951.1157
23327.4516
23051.3265
23062.2542
23948.0078
23969.3719
23287.303
23183.4978
23960.7126
23965.8933
23296.9133
23238.0585
23971.2342
23956.6599
23382.3151
23263.8224
23153.7838
23192.2772
23974.9908
23382.0444
23071.1661
23957.0866
23963.4078
23214.7382
23150.5159
23960.0528
23962.5366
23148.9698
23159.6742
23969.4875
23962.6126
23959.4639
23378.634
22948.4277
23182.4459
23963.0029
23325.5605
23093.9278
23974.6213
23958.1243
23962.0913
23386.6502
23077.7936
23088.0295
23969.6364
23959.3841
23383.916
23108.4514
)
;

boundaryField
{
    closed
    {
        type            calculated;
        value           nonuniform List<scalar> 0();
    }
    open
    {
        type            calculated;
        value           nonuniform List<scalar> 0();
    }
    sides
    {
        type            empty;
    }
    procBoundary2to1
    {
        type            processor;
        value           uniform 23986.7348;
    }
    procBoundary2to3
    {
        type            processor;
        value           uniform 23114.5179;
    }
}


// ************************************************************************* //
