/*--------------------------------*- C++ -*----------------------------------*\
| =========                 |                                                 |
| \\      /  F ield         | OpenFOAM: The Open Source CFD Toolbox           |
|  \\    /   O peration     | Version:  2306                                  |
|   \\  /    A nd           | Website:  www.openfoam.com                      |
|    \\/     M anipulation  |                                                 |
\*---------------------------------------------------------------------------*/
FoamFile
{
    version     2.0;
    format      ascii;
    arch        "LSB;label=32;scalar=64";
    class       volScalarField;
    location    "0.0019";
    object      prefDPV_H2;
}
// * * * * * * * * * * * * * * * * * * * * * * * * * * * * * * * * * * * * * //

dimensions      [1 -1 -1 0 0 0 0];

internalField   nonuniform List<scalar> 
530
(
-3.32325302e-05
-3.13105224e-05
-3.09309781e-05
-3.09198438e-05
-3.09188647e-05
-3.09188114e-05
-3.09188072e-05
-3.0918807e-05
-3.0918807e-05
-3.0918807e-05
-3.0918807e-05
-3.0918807e-05
-3.0918807e-05
-3.0918807e-05
-3.0918807e-05
-3.0918807e-05
-3.0918807e-05
-3.0918807e-05
-3.0918807e-05
-3.0918807e-05
-3.0918807e-05
-3.0918807e-05
-3.0918807e-05
-3.0918807e-05
-3.0918807e-05
-3.0918807e-05
-3.0918807e-05
-3.0918807e-05
-3.0918807e-05
-3.0918807e-05
-3.0918807e-05
-3.0918807e-05
-3.0918807e-05
-3.0918807e-05
-3.0918807e-05
-3.0918807e-05
-3.0918807e-05
-3.0918807e-05
-3.0918807e-05
-3.0918807e-05
-3.0918807e-05
-3.0918807e-05
-3.0918807e-05
-3.0918807e-05
-3.0918807e-05
-3.0918807e-05
-3.0918807e-05
-3.0918807e-05
-3.0918807e-05
-3.0918807e-05
-3.0918807e-05
-3.0918807e-05
-3.0918807e-05
-3.0918807e-05
-3.0918807e-05
-3.0918807e-05
-3.0918807e-05
-3.0918807e-05
-3.0918807e-05
-3.0918807e-05
-3.09188071e-05
-3.09188072e-05
-3.09188075e-05
-3.09188082e-05
-3.09188093e-05
-3.09188134e-05
-3.09188167e-05
-3.09188318e-05
-3.09188465e-05
-3.09188972e-05
-3.09189321e-05
-3.09190368e-05
-3.09191732e-05
-3.09193514e-05
-3.09194964e-05
-3.09198938e-05
-3.09203378e-05
-3.09209818e-05
-3.09215524e-05
-3.09222812e-05
-3.09227683e-05
-3.09211292e-05
-3.09241388e-05
-3.0940696e-05
-3.09464669e-05
-3.09230984e-05
-3.09286434e-05
-3.0905571e-05
-3.10680103e-05
-3.15647904e-05
-3.15572882e-05
-3.08875583e-05
-3.06784144e-05
-3.07002409e-05
-3.06687508e-05
-3.05511736e-05
-3.08958136e-05
-3.15062674e-05
-3.15461e-05
-3.15337553e-05
-3.15419667e-05
-3.1548808e-05
-3.15456148e-05
-3.08954725e-05
-3.05584033e-05
-3.06615239e-05
-3.0615302e-05
-3.06000151e-05
-3.06526965e-05
-3.04705156e-05
-3.05641725e-05
-3.14685133e-05
-3.15241698e-05
-3.15222619e-05
-3.1538191e-05
-3.15411929e-05
-3.15422513e-05
-3.08982276e-05
-3.0520493e-05
-3.05783546e-05
-3.05668342e-05
-3.03467418e-05
-3.03889504e-05
-3.14483848e-05
-3.15281415e-05
-3.1499158e-05
-3.15505658e-05
-3.15276571e-05
-3.15637671e-05
-3.15512753e-05
-3.08863258e-05
-3.05716489e-05
-3.06162387e-05
-3.06030107e-05
-3.0505012e-05
-3.05265932e-05
-3.14989638e-05
-3.15256646e-05
-3.09129184e-05
-3.07644575e-05
-3.0619612e-05
-3.07100724e-05
-3.15372987e-05
-3.15375378e-05
-3.15388894e-05
-3.15185002e-05
-3.08971001e-05
-3.04083839e-05
-3.05382849e-05
-3.15246908e-05
-3.14895392e-05
-3.09005921e-05
-3.05229759e-05
-3.06957882e-05
-3.1531883e-05
-3.14693631e-05
-3.09268498e-05
-3.08909223e-05
-3.15412828e-05
-3.14779272e-05
-3.09069576e-05
-3.06025224e-05
-3.08679037e-05
-3.15379701e-05
-3.14586041e-05
-3.08889065e-05
-3.05787914e-05
-3.08694445e-05
-3.15549928e-05
-3.15540477e-05
-3.14420236e-05
-3.08854862e-05
-3.06661063e-05
-3.08687277e-05
-3.15385434e-05
-3.1453308e-05
-3.08958847e-05
-3.06373678e-05
-3.08718974e-05
-3.15418599e-05
-3.14498687e-05
-3.09108455e-05
-3.07008633e-05
-3.07084954e-05
-3.06247228e-05
-3.04607403e-05
-3.08690012e-05
-3.15061922e-05
-3.12682876e-05
-3.07754904e-05
-3.08814025e-05
-3.15219074e-05
-3.15196802e-05
-3.1201969e-05
-3.07899102e-05
-3.08840457e-05
-3.15314397e-05
-3.15321654e-05
-3.13851424e-05
-3.09425794e-05
-3.04901433e-05
-3.04773445e-05
-3.08852928e-05
-3.15201127e-05
-3.12656482e-05
-3.0795452e-05
-3.09057385e-05
-3.15293599e-05
-3.12710639e-05
-3.07854175e-05
-3.09042019e-05
-3.15311194e-05
-3.12754127e-05
-3.07855742e-05
-3.09078774e-05
-3.15353666e-05
-3.12781292e-05
-3.07803772e-05
-3.09162801e-05
-3.1547183e-05
-3.14367554e-05
-3.07578888e-05
-3.03473697e-05
-3.08871282e-05
-3.15165593e-05
-3.13443568e-05
-3.07824139e-05
-3.09329381e-05
-3.15443707e-05
-3.1471444e-05
-3.07755905e-05
-3.03101463e-05
-3.07877162e-05
-3.14997294e-05
-3.14253778e-05
-3.07725949e-05
-3.08528486e-05
-3.15116565e-05
-3.1440414e-05
-3.07430577e-05
-3.08209037e-05
-3.14983065e-05
-3.14663387e-05
-3.07625032e-05
-3.08054275e-05
-3.14854839e-05
-3.14876467e-05
-3.07864886e-05
-3.08095552e-05
-3.14664719e-05
-3.1492856e-05
-3.08119104e-05
-3.08199805e-05
-3.14660087e-05
-3.15197332e-05
-3.08954767e-05
-3.04194985e-05
-3.07149419e-05
-3.14343519e-05
-3.14996374e-05
-3.0885269e-05
-3.07780244e-05
-3.13858081e-05
-3.14998809e-05
-3.09100856e-05
-3.08300921e-05
-3.1403189e-05
-3.15196254e-05
-3.08913969e-05
-3.04789965e-05
-3.09342761e-05
-3.14310659e-05
-3.14551729e-05
-3.08198209e-05
-3.08415107e-05
-3.14410563e-05
-3.15343879e-05
-3.08696581e-05
-3.04492502e-05
-3.08908816e-05
-3.14407449e-05
-3.12090555e-05
-3.08106049e-05
-3.08994533e-05
-3.14687115e-05
-3.10988272e-05
-3.08553886e-05
-3.0907956e-05
-3.14879656e-05
-3.15389761e-05
-3.08590404e-05
-3.04874372e-05
-3.09118679e-05
-3.14803653e-05
-3.09449268e-05
-3.08507416e-05
-3.09242377e-05
-3.15046168e-05
-3.1524343e-05
-3.08529506e-05
-3.05836489e-05
-3.06186329e-05
-3.05650883e-05
-3.09059502e-05
-3.15001423e-05
-3.0914981e-05
-3.08013966e-05
-3.10302004e-05
-3.15190147e-05
-3.11961762e-05
-3.07374015e-05
-3.05846213e-05
-3.09040937e-05
-3.15143936e-05
-3.1536746e-05
-3.08718017e-05
-3.05288134e-05
-3.08955525e-05
-3.15139277e-05
-3.15383924e-05
-3.09063795e-05
-3.05417675e-05
-3.08969357e-05
-3.15313768e-05
-3.15275387e-05
-3.09042566e-05
-3.05074037e-05
-3.07567294e-05
-3.15342403e-05
-3.15210836e-05
-3.09209213e-05
-3.07114407e-05
-3.09119171e-05
-3.15466734e-05
-3.15266231e-05
-3.09110549e-05
-3.05215263e-05
-3.05308311e-05
-3.10369721e-05
-3.15095623e-05
-3.09063587e-05
-3.08215133e-05
-3.10095557e-05
-3.15350597e-05
-3.14633349e-05
-3.08068674e-05
-3.04827464e-05
-3.09062195e-05
-3.15360544e-05
-3.15171735e-05
-3.09056029e-05
-3.05934986e-05
-3.08920731e-05
-3.15586664e-05
-3.15195899e-05
-3.08979797e-05
-3.05434141e-05
-3.0866974e-05
-3.15565674e-05
-3.15215474e-05
-3.09006565e-05
-3.05742815e-05
-3.09047924e-05
-3.15539238e-05
-3.15351742e-05
-3.09144164e-05
-3.05197857e-05
-3.05056322e-05
-3.09380614e-05
-3.15172502e-05
-3.09153447e-05
-3.08233185e-05
-3.15171056e-05
-3.15003575e-05
-3.09305201e-05
-3.05068065e-05
-3.06002549e-05
-3.14533325e-05
-3.15299497e-05
-3.09290555e-05
-3.0835363e-05
-3.15404745e-05
-3.15067239e-05
-3.09243625e-05
-3.05168043e-05
-3.06187495e-05
-3.15457653e-05
-3.15448575e-05
-3.08254324e-05
-3.07755381e-05
-3.15625094e-05
-3.15124402e-05
-3.09122873e-05
-3.05158793e-05
-3.07458047e-05
-3.15408884e-05
-3.15516136e-05
-3.07407663e-05
-3.07194968e-05
-3.1559211e-05
-3.15123148e-05
-3.0913676e-05
-3.05324886e-05
-3.07384055e-05
-3.15648044e-05
-3.15322337e-05
-3.09085765e-05
-3.05477657e-05
-3.07653177e-05
-3.15712837e-05
-3.15355132e-05
-3.09005284e-05
-3.04679599e-05
-3.07172507e-05
-3.15709098e-05
-3.1531812e-05
-3.08995558e-05
-3.0381907e-05
-3.06662383e-05
-3.15261902e-05
-3.15482317e-05
-3.06580536e-05
-3.05525869e-05
-3.15292823e-05
-3.15368223e-05
-3.07118428e-05
-3.08291861e-05
-3.15405762e-05
-3.14876634e-05
-3.07409909e-05
-3.08769346e-05
-3.15741255e-05
-3.15393055e-05
-3.08923448e-05
-3.04738174e-05
-3.07622922e-05
-3.15362735e-05
-3.14838851e-05
-3.07376553e-05
-3.09310082e-05
-3.15366768e-05
-3.12289876e-05
-3.0865156e-05
-3.09025565e-05
-3.15423007e-05
-3.15713051e-05
-3.0919045e-05
-3.07092946e-05
-3.05724244e-05
-3.07660569e-05
-3.15404549e-05
-3.15409784e-05
-3.09365168e-05
-3.07866314e-05
-3.06674084e-05
-3.04175887e-05
-3.07543728e-05
-3.15111091e-05
-3.13016907e-05
-3.06953027e-05
-3.09117493e-05
-3.15433519e-05
-3.15562503e-05
-3.0887099e-05
-3.04594301e-05
-3.08303451e-05
-3.15129286e-05
-3.12565982e-05
-3.07380243e-05
-3.08996471e-05
-3.15282643e-05
-3.10272679e-05
-3.08044319e-05
-3.09333784e-05
-3.15377175e-05
-3.10247004e-05
-3.08187939e-05
-3.08969673e-05
-3.15503433e-05
-3.15571899e-05
-3.08811814e-05
-3.04752383e-05
-3.0883465e-05
-3.15214076e-05
-3.15592033e-05
-3.0893823e-05
-3.04446159e-05
-3.0837929e-05
-3.1523735e-05
-3.15533759e-05
-3.08917174e-05
-3.04299481e-05
-3.08467899e-05
-3.1524281e-05
-3.15591419e-05
-3.08857362e-05
-3.04218492e-05
-3.09017315e-05
-3.14965942e-05
-3.12181217e-05
-3.07755055e-05
-3.09027633e-05
-3.15331093e-05
-3.15583406e-05
-3.08746959e-05
-3.04329811e-05
-3.08843514e-05
-3.14881328e-05
-3.11698179e-05
-3.07996616e-05
-3.09024307e-05
-3.15248178e-05
-3.15518778e-05
-3.08818118e-05
-3.04476151e-05
-3.09037648e-05
-3.14998525e-05
-3.15460463e-05
-3.08880471e-05
-3.03933075e-05
-3.07401016e-05
-3.14687976e-05
-3.15640999e-05
-3.14993305e-05
-3.09337425e-05
-3.0756932e-05
-3.067072e-05
-3.03446413e-05
-3.05323963e-05
-3.14674822e-05
)
;

boundaryField
{
    closed
    {
        type            calculated;
        value           uniform -4.05122794e-05;
    }
    open
    {
        type            calculated;
        value           nonuniform List<scalar> 0();
    }
    sides
    {
        type            empty;
    }
    procBoundary0to1
    {
        type            processor;
        value           uniform -3.15537961e-05;
    }
}


// ************************************************************************* //
