/*--------------------------------*- C++ -*----------------------------------*\
| =========                 |                                                 |
| \\      /  F ield         | OpenFOAM: The Open Source CFD Toolbox           |
|  \\    /   O peration     | Version:  2306                                  |
|   \\  /    A nd           | Website:  www.openfoam.com                      |
|    \\/     M anipulation  |                                                 |
\*---------------------------------------------------------------------------*/
FoamFile
{
    version     2.0;
    format      ascii;
    arch        "LSB;label=32;scalar=64";
    class       volScalarField;
    location    "0.0019";
    object      prefDZ_H2O;
}
// * * * * * * * * * * * * * * * * * * * * * * * * * * * * * * * * * * * * * //

dimensions      [1 -1 -1 0 0 0 0];

internalField   nonuniform List<scalar> 
530
(
-7.88711074e-07
-7.55631506e-07
-7.51998997e-07
-7.52069216e-07
-7.52079762e-07
-7.52080017e-07
-7.52080021e-07
-7.52080022e-07
-7.52080022e-07
-7.52080022e-07
-7.52080022e-07
-7.52080022e-07
-7.52080022e-07
-7.52080022e-07
-7.52080022e-07
-7.52080022e-07
-7.52080022e-07
-7.52080022e-07
-7.52080022e-07
-7.52080022e-07
-7.52080022e-07
-7.52080022e-07
-7.52080022e-07
-7.52080022e-07
-7.52080022e-07
-7.52080022e-07
-7.52080022e-07
-7.52080022e-07
-7.52080022e-07
-7.52080022e-07
-7.52080022e-07
-7.52080022e-07
-7.52080022e-07
-7.52080022e-07
-7.52080022e-07
-7.52080022e-07
-7.52080022e-07
-7.52080022e-07
-7.52080022e-07
-7.52080022e-07
-7.52080022e-07
-7.52080022e-07
-7.52080022e-07
-7.52080022e-07
-7.52080022e-07
-7.52080022e-07
-7.52080022e-07
-7.52080022e-07
-7.52080022e-07
-7.52080022e-07
-7.52080022e-07
-7.52080022e-07
-7.52080022e-07
-7.52080022e-07
-7.52080022e-07
-7.52080022e-07
-7.52080022e-07
-7.52080022e-07
-7.52080022e-07
-7.52080021e-07
-7.52080021e-07
-7.52080021e-07
-7.52080021e-07
-7.5208002e-07
-7.52080019e-07
-7.52080023e-07
-7.52080026e-07
-7.52079895e-07
-7.52080007e-07
-7.52080614e-07
-7.52078987e-07
-7.5207909e-07
-7.52081785e-07
-7.52083836e-07
-7.5207263e-07
-7.52075463e-07
-7.52084059e-07
-7.5209743e-07
-7.52105647e-07
-7.52072065e-07
-7.52019804e-07
-7.51671306e-07
-7.51777639e-07
-7.53714762e-07
-7.53897882e-07
-7.51429452e-07
-7.394362e-07
-7.38993201e-07
-7.63476048e-07
-7.73690291e-07
-7.74026458e-07
-7.42583437e-07
-7.36306644e-07
-7.36542328e-07
-7.36088822e-07
-7.34973162e-07
-7.43764453e-07
-7.75931279e-07
-7.74203224e-07
-7.74654982e-07
-7.74782259e-07
-7.73729624e-07
-7.74396242e-07
-7.42120419e-07
-7.34974292e-07
-7.36081829e-07
-7.3567732e-07
-7.35519138e-07
-7.3614418e-07
-7.34125157e-07
-7.35223502e-07
-7.77583048e-07
-7.74512764e-07
-7.75148083e-07
-7.7469235e-07
-7.73926091e-07
-7.74632814e-07
-7.44834032e-07
-7.34464831e-07
-7.35166453e-07
-7.35070919e-07
-7.32722853e-07
-7.33133189e-07
-7.78577758e-07
-7.74505023e-07
-7.76145269e-07
-7.74101452e-07
-7.74976888e-07
-7.73424297e-07
-7.7363813e-07
-7.42518573e-07
-7.35019761e-07
-7.35422315e-07
-7.35445922e-07
-7.34317276e-07
-7.34585671e-07
-7.7621469e-07
-7.74241462e-07
-7.46585207e-07
-7.37303457e-07
-7.35673482e-07
-7.36677164e-07
-7.75528839e-07
-7.74007651e-07
-7.74184628e-07
-7.74940226e-07
-7.45588975e-07
-7.3313247e-07
-7.34404085e-07
-7.75947426e-07
-7.75829323e-07
-7.43693972e-07
-7.34605263e-07
-7.36193562e-07
-7.75020592e-07
-7.76060169e-07
-7.40516365e-07
-7.40081599e-07
-7.75302285e-07
-7.75790174e-07
-7.43006042e-07
-7.35437179e-07
-7.38156713e-07
-7.75215025e-07
-7.76387438e-07
-7.4483357e-07
-7.35218101e-07
-7.40265033e-07
-7.74319632e-07
-7.73127392e-07
-7.76603365e-07
-7.45422358e-07
-7.36281139e-07
-7.40270457e-07
-7.74973745e-07
-7.76655391e-07
-7.44355254e-07
-7.35902678e-07
-7.40645923e-07
-7.74831076e-07
-7.76796622e-07
-7.43253567e-07
-7.36643823e-07
-7.36784079e-07
-7.35617682e-07
-7.34016424e-07
-7.38036493e-07
-7.76251196e-07
-7.74342531e-07
-7.37735261e-07
-7.41979647e-07
-7.76321498e-07
-7.74177027e-07
-7.70900991e-07
-7.37718483e-07
-7.41908778e-07
-7.75645686e-07
-7.7359222e-07
-7.79590707e-07
-7.39946079e-07
-7.34468691e-07
-7.34145474e-07
-7.38993485e-07
-7.76112422e-07
-7.74164685e-07
-7.3795063e-07
-7.41432465e-07
-7.7552729e-07
-7.74417482e-07
-7.37784914e-07
-7.41577517e-07
-7.75507482e-07
-7.74609722e-07
-7.37783472e-07
-7.41657265e-07
-7.75405769e-07
-7.74755331e-07
-7.37661827e-07
-7.41617225e-07
-7.7506085e-07
-7.78039552e-07
-7.37342603e-07
-7.33009056e-07
-7.38489427e-07
-7.75911778e-07
-7.77813208e-07
-7.37691869e-07
-7.40109601e-07
-7.75198098e-07
-7.77096725e-07
-7.37442378e-07
-7.32579571e-07
-7.37462588e-07
-7.76315114e-07
-7.79438905e-07
-7.3762773e-07
-7.38660752e-07
-7.76127427e-07
-7.78831384e-07
-7.37230582e-07
-7.38334895e-07
-7.76557371e-07
-7.78081055e-07
-7.37463654e-07
-7.38214571e-07
-7.76855016e-07
-7.77385456e-07
-7.37713766e-07
-7.38264745e-07
-7.77546091e-07
-7.77216213e-07
-7.37856111e-07
-7.3828548e-07
-7.77764663e-07
-7.75681123e-07
-7.39950527e-07
-7.33783664e-07
-7.36962851e-07
-7.77960531e-07
-7.77134662e-07
-7.38705521e-07
-7.37852009e-07
-7.7977415e-07
-7.76903913e-07
-7.38968545e-07
-7.38401817e-07
-7.79723485e-07
-7.75570784e-07
-7.40957752e-07
-7.34493641e-07
-7.39439654e-07
-7.78305235e-07
-7.78895156e-07
-7.3795189e-07
-7.38602026e-07
-7.78159779e-07
-7.75489555e-07
-7.40169086e-07
-7.34080802e-07
-7.41972671e-07
-7.78139131e-07
-7.7120226e-07
-7.38066557e-07
-7.44087812e-07
-7.77220917e-07
-7.65265988e-07
-7.38535207e-07
-7.44163808e-07
-7.76506806e-07
-7.76044361e-07
-7.37934602e-07
-7.34486037e-07
-7.5151635e-07
-7.7684918e-07
-7.54059673e-07
-7.38574104e-07
-7.5170667e-07
-7.75381302e-07
-7.76223451e-07
-7.38194647e-07
-7.35619419e-07
-7.35516556e-07
-7.35308849e-07
-7.49939758e-07
-7.76443611e-07
-7.5031517e-07
-7.37991141e-07
-7.61055219e-07
-7.74934386e-07
-7.7066589e-07
-7.36933972e-07
-7.35607182e-07
-7.47553388e-07
-7.75462095e-07
-7.75640974e-07
-7.38388791e-07
-7.34980089e-07
-7.4587675e-07
-7.754402e-07
-7.75366726e-07
-7.39215618e-07
-7.35029609e-07
-7.42920017e-07
-7.74943609e-07
-7.74952269e-07
-7.44092158e-07
-7.34632213e-07
-7.37131944e-07
-7.75600934e-07
-7.74811009e-07
-7.49796351e-07
-7.36870653e-07
-7.40067272e-07
-7.74842009e-07
-7.74803672e-07
-7.47038062e-07
-7.34496695e-07
-7.34604766e-07
-7.61462977e-07
-7.7602677e-07
-7.46424789e-07
-7.3813625e-07
-7.59333568e-07
-7.74223769e-07
-7.77650618e-07
-7.37830624e-07
-7.34701343e-07
-7.38829661e-07
-7.75142119e-07
-7.74990725e-07
-7.46251972e-07
-7.35496286e-07
-7.38626066e-07
-7.74961634e-07
-7.7516825e-07
-7.44150885e-07
-7.34935164e-07
-7.38306053e-07
-7.74983209e-07
-7.75133328e-07
-7.44164494e-07
-7.35316618e-07
-7.38915924e-07
-7.74767849e-07
-7.75114265e-07
-7.42740571e-07
-7.34428007e-07
-7.34382534e-07
-7.53114731e-07
-7.75999152e-07
-7.43827673e-07
-7.381604e-07
-7.77571378e-07
-7.75062947e-07
-7.50275691e-07
-7.34868628e-07
-7.35395834e-07
-7.78766297e-07
-7.7510965e-07
-7.39747018e-07
-7.38267498e-07
-7.76212411e-07
-7.74764923e-07
-7.48435736e-07
-7.34792162e-07
-7.35624891e-07
-7.75311723e-07
-7.74855439e-07
-7.38311649e-07
-7.37520392e-07
-7.75391003e-07
-7.74683678e-07
-7.46378934e-07
-7.34727266e-07
-7.37091264e-07
-7.74978863e-07
-7.74842762e-07
-7.37315868e-07
-7.36921071e-07
-7.75271279e-07
-7.74629828e-07
-7.47249857e-07
-7.34807973e-07
-7.37003059e-07
-7.74596355e-07
-7.74334232e-07
-7.47823494e-07
-7.34867408e-07
-7.37298947e-07
-7.74373206e-07
-7.74404454e-07
-7.44627195e-07
-7.33955293e-07
-7.36732823e-07
-7.74511472e-07
-7.74671342e-07
-7.42837639e-07
-7.33140837e-07
-7.36121831e-07
-7.7555613e-07
-7.7495946e-07
-7.36373601e-07
-7.35101457e-07
-7.75868483e-07
-7.75438244e-07
-7.36928056e-07
-7.38548856e-07
-7.7459176e-07
-7.77835202e-07
-7.37005127e-07
-7.38914069e-07
-7.73910687e-07
-7.74046801e-07
-7.45083686e-07
-7.34062874e-07
-7.37471976e-07
-7.75307509e-07
-7.78360637e-07
-7.37046906e-07
-7.4266671e-07
-7.74289149e-07
-7.72244061e-07
-7.38459793e-07
-7.44214629e-07
-7.73918566e-07
-7.73379702e-07
-7.48831125e-07
-7.36553172e-07
-7.35171123e-07
-7.37352345e-07
-7.75297814e-07
-7.73553029e-07
-7.52857345e-07
-7.3770551e-07
-7.3601749e-07
-7.33542358e-07
-7.37326738e-07
-7.7597838e-07
-7.75679576e-07
-7.36542378e-07
-7.41222169e-07
-7.74565377e-07
-7.73906647e-07
-7.42868662e-07
-7.33923468e-07
-7.38107126e-07
-7.75933104e-07
-7.73536739e-07
-7.37011446e-07
-7.47805101e-07
-7.74587619e-07
-7.60781995e-07
-7.37693761e-07
-7.53460298e-07
-7.74203248e-07
-7.60563175e-07
-7.37828324e-07
-7.47281225e-07
-7.74139687e-07
-7.73950892e-07
-7.41619025e-07
-7.34130641e-07
-7.38498254e-07
-7.75719302e-07
-7.74072744e-07
-7.41697873e-07
-7.33755014e-07
-7.38083086e-07
-7.7587258e-07
-7.74233266e-07
-7.4142571e-07
-7.33614516e-07
-7.38139422e-07
-7.75911221e-07
-7.74250757e-07
-7.41355299e-07
-7.33545736e-07
-7.39828855e-07
-7.76213042e-07
-7.71671461e-07
-7.37541117e-07
-7.43086951e-07
-7.74906892e-07
-7.74400485e-07
-7.41562803e-07
-7.33746818e-07
-7.41538854e-07
-7.76256673e-07
-7.69202522e-07
-7.3785638e-07
-7.43913109e-07
-7.75057516e-07
-7.7458548e-07
-7.41842479e-07
-7.33970302e-07
-7.39317981e-07
-7.76333972e-07
-7.74624978e-07
-7.43675201e-07
-7.33520865e-07
-7.36901725e-07
-7.78063316e-07
-7.73219449e-07
-7.74121665e-07
-7.53000756e-07
-7.37555929e-07
-7.36062604e-07
-7.32979572e-07
-7.34666251e-07
-7.78725943e-07
)
;

boundaryField
{
    closed
    {
        type            calculated;
        value           uniform -1.0356256e-06;
    }
    open
    {
        type            calculated;
        value           nonuniform List<scalar> 0();
    }
    sides
    {
        type            empty;
    }
    procBoundary0to1
    {
        type            processor;
        value           uniform -7.7355886e-07;
    }
}


// ************************************************************************* //
