/*--------------------------------*- C++ -*----------------------------------*\
| =========                 |                                                 |
| \\      /  F ield         | OpenFOAM: The Open Source CFD Toolbox           |
|  \\    /   O peration     | Version:  2306                                  |
|   \\  /    A nd           | Website:  www.openfoam.com                      |
|    \\/     M anipulation  |                                                 |
\*---------------------------------------------------------------------------*/
FoamFile
{
    version     2.0;
    format      ascii;
    arch        "LSB;label=32;scalar=64";
    class       volScalarField;
    location    "0.00022";
    object      H2;
}
// * * * * * * * * * * * * * * * * * * * * * * * * * * * * * * * * * * * * * //

dimensions      [0 0 0 0 0 0 0];

internalField   nonuniform List<scalar> 
531
(
0.0106669992
0.0107922341
0.0110321476
0.0108341938
0.0106894076
0.0107624667
0.0109064955
0.0108451165
0.0107510611
0.0107747468
0.0108329529
0.0108224247
0.0107900971
0.0107932242
0.0108091233
0.0108085349
0.0108012688
0.0108013178
0.0108041609
0.0108042713
0.010803276
0.0108031863
0.0108035061
0.0108035432
0.0108034415
0.0108034407
0.0108034739
0.0108034647
0.010803445
0.0108034594
0.0108034743
0.0108034606
0.010803449
0.0108034602
0.0108034691
0.01080346
0.0108034535
0.0108034611
0.0108034655
0.0108034582
0.0108034558
0.0108034649
0.0108034657
0.0108034522
0.010803452
0.0108034713
0.0108034729
0.010803449
0.010803443
0.0108034681
0.0108034809
0.0108034596
0.0108034384
0.0108034522
0.0108034807
0.0108034766
0.0108034433
0.0108034415
0.0108034692
0.0108034798
0.0108034596
0.010803441
0.0108034535
0.0108034781
0.010803473
0.0108034459
0.0108034468
0.0108034683
0.01080347
0.0108034584
0.0108034576
0.0108034604
0.0108034555
0.0108034549
0.0108034724
0.010803474
0.0108034453
0.0108034384
0.0108034729
0.0108034876
0.0108034539
0.0108034315
0.0108034598
0.010803487
0.0108034661
0.0108034378
0.0108034518
0.0108034778
0.010803469
0.0108034477
0.0108034532
0.0108034687
0.0108034648
0.0108034542
0.0108034582
0.0108034663
0.0108034609
0.0108034525
0.0108034593
0.0108034704
0.0108034642
0.010803449
0.0108034515
0.0108034707
0.0108034711
0.0108034566
0.0108034509
0.0108034545
0.0108034643
0.0108034705
0.0108034691
0.0108034504
0.0108034394
0.0108034605
0.0108034925
0.0108034784
0.0108034199
0.0108034225
0.0108034989
0.0108035122
0.0108034368
0.0108033998
0.0108034614
0.0108035227
0.0108034835
0.0108034028
0.0108034157
0.0108035076
0.0108035098
0.0108034371
0.0108034126
0.0108034572
0.0108035018
0.0108034886
0.0108034293
0.0108034227
0.0108034652
0.0108034996
0.0108034859
0.0108034248
0.0108034186
0.010803474
0.0108035099
0.0108034758
0.0108034102
0.0108034182
0.010803501
0.010803514
0.0108034455
0.010803402
0.0108034445
0.0108035163
0.0108035049
0.0108034149
0.0108034041
0.0108034762
0.0108035202
0.0108034798
0.0108034053
0.0108034123
0.0108034967
0.0108035171
0.0108034605
0.0108034056
0.0108034225
0.0108035039
0.0108035125
0.0108034496
0.0108034056
0.0108034334
0.0108035107
0.0108035086
0.01080343
0.0108034045
0.010803462
0.0108035177
0.0108034872
0.0108034056
0.0108034113
0.0108035049
0.0108035194
0.0108034383
0.0108033944
0.0108034549
0.0108035283
0.0108034979
0.0108033958
0.0108034005
0.0108035051
0.0108035267
0.0108034505
0.0108033967
0.0108034336
0.0108035126
0.0108035073
0.0108034331
0.010803413
0.0108034548
0.0108034994
0.0108034899
0.0108034351
0.010803427
0.0108034607
0.0108034886
0.010803481
0.0108034427
0.0108034341
0.0108034558
0.0108034851
0.0108034822
0.0108034445
0.0108034322
0.0108034596
0.0108034887
0.0108034762
0.0108034359
0.0108034378
0.0108034758
0.010803481
0.0108034549
0.0108034446
0.0108034595
0.0108034701
0.0108034631
0.0108034555
0.010803458
0.0108034616
0.0108034612
0.0108034611
0.0108034616
0.0108034579
0.010803456
0.0108034631
0.0108034688
0.01080346
0.010803447
0.0108034531
0.0108034779
0.0108034768
0.0108034441
0.0108034362
0.0108034673
0.0108034898
0.0108034675
0.0108034292
0.0108034368
0.0108034896
0.0108034906
0.0108034435
0.0108034273
0.0108034615
0.0108034931
0.0108034753
0.0108034305
0.0108034341
0.0108034812
0.0108034896
0.0108034547
0.0108034316
0.0108034507
0.0108034849
0.0108034801
0.0108034428
0.0108034401
0.010803467
0.010803477
0.0108034603
0.0108034483
0.0108034587
0.0108034693
0.0108034605
0.0108034504
0.0108034612
0.0108034743
0.0108034613
0.0108034414
0.0108034542
0.0108034825
0.0108034729
0.0108034365
0.0108034415
0.0108034852
0.0108034843
0.0108034354
0.0108034302
0.0108034826
0.0108034994
0.0108034461
0.0108034113
0.0108034586
0.0108035158
0.0108034843
0.0108034053
0.0108034151
0.0108035063
0.0108035103
0.0108034365
0.010803415
0.0108034637
0.010803495
0.0108034684
0.0108034379
0.0108034503
0.0108034736
0.0108034673
0.01080345
0.0108034549
0.0108034731
0.0108034696
0.0108034429
0.0108034435
0.0108034781
0.0108034847
0.010803449
0.0108034303
0.0108034596
0.0108034918
0.0108034753
0.010803432
0.0108034356
0.0108034785
0.0108034861
0.0108034582
0.0108034382
0.0108034471
0.0108034758
0.0108034779
0.0108034585
0.0108034439
0.0108034496
0.0108034731
0.0108034748
0.0108034556
0.0108034461
0.010803458
0.0108034724
0.0108034669
0.0108034508
0.0108034522
0.0108034672
0.0108034676
0.0108034563
0.0108034542
0.0108034624
0.0108034651
0.0108034592
0.0108034566
0.010803461
0.0108034633
0.0108034596
0.0108034576
0.0108034609
0.0108034627
0.01080346
0.0108034584
0.0108034602
0.0108034616
0.0108034604
0.0108034596
0.0108034603
0.0108034607
0.0108034599
0.0108034598
0.0108034607
0.0108034607
0.0108034589
0.0108034588
0.0108034621
0.0108034628
0.0108034562
0.0108034532
0.0108034615
0.0108034693
0.010803461
0.0108034442
0.0108034481
0.0108034709
0.0108034647
0.0108034402
0.0108034979
0.0108035469
0.0108032063
0.0108029556
0.0108043307
0.0108057132
0.0108013993
0.0107945917
0.0108071584
0.0108284196
0.0108023737
0.0107453205
0.0107830764
0.010931094
0.0108461207
0.0106765409
0.0106835133
0.0110104678
0.0110130681
0.0106798825
0.0106401098
0.0106681273
0.0110200809
0.0110037985
0.0108494826
0.0105878867
0.0105872941
0.0110023602
0.0110032526
0.0109678693
0.010998633
0.0105552673
0.0106946532
0.0108677472
0.0108516646
0.0108058363
0.0107774657
0.0107371784
0.0107015846
0.0106650335
0.010621786
0.0105876466
0.0105435473
0.0105243124
0.0104441371
0.0104044734
0.0102892174
0.0102578814
0.0100920346
0.0101339678
0.00958575891
0.00935348158
0.00923931253
0.00937636495
0.00904181628
0.00934677034
0.00865164199
0.0086747769
0.00842517849
0.00813524487
0.00877150203
0.00787322739
0.00806633289
0.00784675888
0.00739220566
0.00701803417
0.00684144948
0.00660497419
0.00645500087
0.006258088
0.00599364317
0.00578960332
0.00551547803
0.00536372787
0.0050699251
0.00497415292
0.00462538857
0.00448988182
0.00414695232
0.00449154043
0.00370325408
0.00342645464
0.00320456175
0.00450467695
0.00288267937
0.0021506688
0.00266406369
0.00438301474
0.00251990415
0.00113705343
0.00172699864
0.00439508862
0.00231934021
0.000540137135
0.000851654862
0.00353178075
0.00165432079
0.000173483963
0.00042881585
0.00218349729
0.000799445546
5.60761648e-05
0.00019420484
0.00159101288
0.000351961625
4.21422943e-09
5.73189923e-05
0.00126103144
0.000127548922
5.24722316e-09
3.648402e-09
0.000951963257
8.30642337e-06
7.38233067e-09
4.4361929e-09
0.00060818578
5.55244884e-09
8.94109278e-09
5.28877879e-09
0.000383692966
6.58551046e-09
1.09958351e-08
6.77458962e-09
0.000254219536
8.60787064e-09
1.29984533e-08
9.0495119e-09
0.0001873906
1.15007077e-08
1.49808935e-08
1.20613161e-08
0.000148904926
2.60600796e-06
1.70360285e-08
1.55303811e-08
0.000122593259
1.13811749e-05
1.92802498e-08
9.35743422e-07
0.000102996692
1.54588633e-05
2.21800783e-08
5.79953085e-06
8.83965055e-05
1.64265804e-05
2.54150108e-08
9.90251214e-06
7.76752624e-05
1.60291573e-05
2.95185151e-08
1.24681116e-05
6.93401118e-05
)
;

boundaryField
{
    closed
    {
        type            calculated;
        value           nonuniform List<scalar> 0();
    }
    open
    {
        type            calculated;
        value           nonuniform List<scalar> 0();
    }
    sides
    {
        type            empty;
    }
    procBoundary4to3
    {
        type            processor;
        value           uniform 0.010778596;
    }
    procBoundary4to5
    {
        type            processor;
        value           uniform 1.57648795e-05;
    }
}


// ************************************************************************* //
