/*--------------------------------*- C++ -*----------------------------------*\
| =========                 |                                                 |
| \\      /  F ield         | OpenFOAM: The Open Source CFD Toolbox           |
|  \\    /   O peration     | Version:  2306                                  |
|   \\  /    A nd           | Website:  www.openfoam.com                      |
|    \\/     M anipulation  |                                                 |
\*---------------------------------------------------------------------------*/
FoamFile
{
    version     2.0;
    format      ascii;
    arch        "LSB;label=32;scalar=64";
    class       volScalarField;
    location    "0.00022";
    object      prefDh_H2O;
}
// * * * * * * * * * * * * * * * * * * * * * * * * * * * * * * * * * * * * * //

dimensions      [1 1 -3 0 0 0 0];

internalField   nonuniform List<scalar> 
531
(
87.9052879
89.6734201
92.5652793
90.2079674
88.1950438
89.2722918
91.0854823
90.3421446
89.1122024
89.4407612
90.1912573
90.0598172
89.6454774
89.6864996
89.8919059
89.8843681
89.7913147
89.7919078
89.8285674
89.8299666
89.8172053
89.8160434
89.8201632
89.8206375
89.8193338
89.8193229
89.8197491
89.8196318
89.8193781
89.8195629
89.8197544
89.8195788
89.8194295
89.8195742
89.8196883
89.8195711
89.8194872
89.819585
89.8196418
89.8195484
89.8195173
89.8196337
89.8196439
89.819471
89.8194684
89.8197156
89.8197373
89.8194301
89.819353
89.8196748
89.8198401
89.8195654
89.8192939
89.8194707
89.8198372
89.8197845
89.8193565
89.8193332
89.8196897
89.8198254
89.8195662
89.8193261
89.8194868
89.8198036
89.8197375
89.8193902
89.8194007
89.8196776
89.819699
89.8195501
89.8195397
89.8195762
89.8195125
89.819506
89.8197304
89.8197504
89.8193816
89.8192939
89.8197362
89.8199258
89.8194922
89.819205
89.8195683
89.8199183
89.8196496
89.8192851
89.8194651
89.8198002
89.819687
89.8194127
89.8194841
89.8196833
89.8196332
89.8194969
89.8195474
89.8196519
89.8195831
89.819475
89.8195614
89.8197041
89.819625
89.8194291
89.8194614
89.8197085
89.8197139
89.8195271
89.8194535
89.8195
89.8196265
89.8197054
89.8196876
89.8194471
89.819306
89.819578
89.8199892
89.8198073
89.8190555
89.8190888
89.8200704
89.8202425
89.8192726
89.8187967
89.8195894
89.8203774
89.8198726
89.8188362
89.8190011
89.8201828
89.8202107
89.8192762
89.8189611
89.8195348
89.8201079
89.8199385
89.8191764
89.8190909
89.8196372
89.8200796
89.8199038
89.819119
89.8190384
89.8197513
89.8202123
89.8197743
89.8189309
89.8190335
89.8200975
89.8202653
89.8193844
89.8188253
89.8193713
89.8202943
89.8201475
89.8189912
89.8188518
89.8197793
89.8203448
89.8198261
89.8188674
89.8189582
89.8200431
89.8203043
89.8195769
89.818872
89.8190892
89.8201353
89.8202452
89.8194378
89.8188721
89.8192295
89.8202225
89.8201958
89.8191852
89.8188573
89.8195965
89.8203125
89.8199209
89.8188723
89.8189451
89.8201487
89.8203345
89.8192918
89.8187278
89.8195052
89.8204484
89.8200581
89.8187456
89.8188063
89.8201503
89.8204277
89.8194483
89.818757
89.8192319
89.820247
89.8201789
89.8192248
89.8189667
89.8195038
89.8200768
89.8199554
89.819251
89.8191468
89.8195804
89.8199381
89.8198406
89.8193491
89.8192384
89.8195171
89.8198931
89.8198569
89.8193715
89.8192141
89.8195655
89.8199394
89.8197788
89.8192608
89.819286
89.8197742
89.8198409
89.8195058
89.8193726
89.8195648
89.8197011
89.819611
89.8195131
89.8195456
89.819592
89.8195858
89.8195848
89.819591
89.8195437
89.8195202
89.8196111
89.8196835
89.8195708
89.8194033
89.8194818
89.8198008
89.8197865
89.8193663
89.819265
89.8196651
89.8199542
89.8196668
89.8191748
89.8192729
89.8199515
89.8199647
89.8193594
89.81915
89.8195906
89.8199969
89.8197671
89.8191914
89.8192379
89.8198438
89.819952
89.8195029
89.8192065
89.8194521
89.819891
89.8198294
89.8193501
89.8193152
89.819661
89.8197891
89.8195751
89.8194209
89.8195546
89.8196902
89.8195771
89.8194478
89.8195859
89.8197549
89.8195878
89.8193323
89.8194963
89.8198606
89.8197367
89.8192685
89.8193326
89.8198946
89.8198834
89.8192543
89.8191886
89.819861
89.8200769
89.8193919
89.8189449
89.819553
89.8202883
89.8198838
89.8188673
89.8189942
89.8201666
89.8202173
89.8192695
89.818992
89.8196189
89.8200209
89.8196784
89.819287
89.8194457
89.8197459
89.8196648
89.8194419
89.819506
89.8197399
89.8196942
89.8193518
89.8193591
89.8198035
89.8198882
89.8194299
89.8191896
89.8195663
89.8199797
89.8197675
89.8192116
89.8192572
89.8198085
89.8199067
89.819548
89.8192912
89.8194051
89.819774
89.819801
89.8195518
89.8193639
89.8194379
89.8197392
89.8197613
89.8195144
89.8193922
89.8195457
89.8197298
89.8196591
89.8194527
89.8194704
89.8196632
89.8196693
89.8195233
89.8194963
89.8196014
89.8196364
89.8195612
89.8195274
89.8195843
89.8196133
89.8195657
89.8195403
89.8195823
89.8196058
89.8195715
89.8195502
89.8195736
89.8195912
89.819577
89.819566
89.8195756
89.8195808
89.8195709
89.8195697
89.8195829
89.8195837
89.819561
89.8195605
89.8196053
89.8196166
89.8195344
89.8194994
89.8196112
89.819716
89.8196145
89.8194057
89.8194623
89.8197632
89.8196872
89.8193764
89.8201112
89.8207273
89.8163124
89.8130232
89.830604
89.8481216
89.7925312
89.7036226
89.8659576
90.1338014
89.8037781
89.0315194
89.5518607
91.3779608
90.3553117
88.0626934
88.1564057
92.3273386
92.360735
88.1737534
87.6150445
88.0216515
92.4200598
92.2476735
90.4314714
87.0604957
87.0684467
92.2087043
92.2167084
91.8448938
92.1870581
86.9853772
88.7374896
90.7963879
90.6297983
90.1501589
89.8534234
89.432684
89.0595439
88.67806
88.2252817
87.8703713
87.4111337
87.2150426
86.598546
86.2758653
85.2939104
84.995893
83.4622729
83.7764836
76.3997398
72.5011246
70.5674407
71.8460065
68.3063316
72.7066281
62.5395835
62.9321783
59.1042788
56.0639223
70.3813305
52.2988942
54.5838718
51.0938623
42.320366
31.9194617
27.333399
21.6745968
18.4351719
12.766649
5.06574309
-3.18712895
-11.1025546
-18.3991189
-26.8321898
-34.002211
-43.1752322
-51.1855439
-60.5184043
-56.6960235
-76.6214539
-85.9048652
-91.8904354
-62.4734476
-101.325642
-121.099485
-106.528834
-66.2809501
-112.423522
-150.835162
-133.353283
-65.3940188
-118.697893
-170.608614
-159.592696
-86.0999623
-137.325969
-184.68024
-174.481181
-121.794602
-162.866676
-190.825008
-183.875628
-139.196457
-178.834162
-194.876038
-190.368608
-149.297617
-188.277778
-195.723589
-194.306597
-159.486106
-194.726817
-196.944182
-195.052867
-171.58768
-195.967934
-197.650596
-195.767968
-180.350245
-196.617554
-198.386099
-196.725434
-186.02895
-197.627579
-199.020855
-197.804412
-189.351652
-198.627789
-199.531162
-198.821788
-191.52732
-199.306986
-200.005376
-199.689042
-193.213996
-199.269044
-200.476022
-200.338276
-194.636657
-199.587858
-200.964258
-200.517193
-195.864038
-200.095254
-201.477109
-200.778743
-196.930401
-200.683826
-202.008339
-201.190246
-197.908589
)
;

boundaryField
{
    closed
    {
        type            calculated;
        value           nonuniform List<scalar> 0();
    }
    open
    {
        type            calculated;
        value           nonuniform List<scalar> 0();
    }
    sides
    {
        type            empty;
    }
    procBoundary4to3
    {
        type            processor;
        value           uniform 89.4978449;
    }
    procBoundary4to5
    {
        type            processor;
        value           uniform -201.268674;
    }
}


// ************************************************************************* //
