/*--------------------------------*- C++ -*----------------------------------*\
| =========                 |                                                 |
| \\      /  F ield         | OpenFOAM: The Open Source CFD Toolbox           |
|  \\    /   O peration     | Version:  2306                                  |
|   \\  /    A nd           | Website:  www.openfoam.com                      |
|    \\/     M anipulation  |                                                 |
\*---------------------------------------------------------------------------*/
FoamFile
{
    version     2.0;
    format      ascii;
    arch        "LSB;label=32;scalar=64";
    class       volScalarField;
    location    "0.00022";
    object      prefDh_T;
}
// * * * * * * * * * * * * * * * * * * * * * * * * * * * * * * * * * * * * * //

dimensions      [1 1 -3 -1 0 0 0];

internalField   nonuniform List<scalar> 
531
(
-0.000517233143
-0.000589371313
-0.00074407357
-0.000598986566
-0.000582465673
-0.000587788151
-0.00062596209
-0.000602673047
-0.000588713026
-0.000587725813
-0.000598913061
-0.000595860905
-0.000589053477
-0.000589486871
-0.000592446541
-0.000592321843
-0.000590773819
-0.000590792634
-0.000591338839
-0.000591366058
-0.000591157597
-0.000591141306
-0.000591203741
-0.000591211787
-0.000591190715
-0.000591190701
-0.000591197247
-0.000591195438
-0.00059119142
-0.000591194325
-0.000591197325
-0.000591194567
-0.000591192221
-0.000591194492
-0.000591196283
-0.000591194444
-0.000591193126
-0.000591194662
-0.000591195554
-0.000591194087
-0.000591193598
-0.000591195426
-0.000591195587
-0.000591192872
-0.000591192831
-0.000591196712
-0.000591197054
-0.00059119223
-0.000591191019
-0.000591196072
-0.000591198668
-0.000591194354
-0.000591190092
-0.000591192867
-0.000591198623
-0.000591197795
-0.000591191075
-0.000591190708
-0.000591196306
-0.000591198436
-0.000591194366
-0.000591190598
-0.00059119312
-0.000591198094
-0.000591197056
-0.000591191604
-0.000591191769
-0.000591196116
-0.000591196452
-0.000591194113
-0.00059119395
-0.000591194524
-0.000591193524
-0.000591193422
-0.000591196944
-0.000591197259
-0.000591191469
-0.000591190091
-0.000591197036
-0.000591200014
-0.000591193204
-0.000591188696
-0.000591194399
-0.000591199896
-0.000591195676
-0.000591189954
-0.000591192779
-0.000591198042
-0.000591196263
-0.000591191957
-0.000591193078
-0.000591196206
-0.000591195418
-0.000591193278
-0.000591194071
-0.000591195711
-0.000591194632
-0.000591192935
-0.00059119429
-0.000591196532
-0.00059119529
-0.000591192214
-0.000591192721
-0.000591196601
-0.000591196686
-0.000591193752
-0.000591192598
-0.000591193327
-0.000591195312
-0.000591196553
-0.000591196273
-0.000591192497
-0.000591190282
-0.000591194552
-0.000591201009
-0.000591198152
-0.00059118635
-0.000591186873
-0.000591202285
-0.000591204989
-0.000591189758
-0.000591182292
-0.00059119473
-0.00059120711
-0.000591199178
-0.00059118291
-0.000591185497
-0.000591204052
-0.00059120449
-0.000591189813
-0.000591184869
-0.000591193873
-0.000591202874
-0.000591200214
-0.000591188248
-0.000591186906
-0.000591195481
-0.00059120243
-0.000591199668
-0.000591187348
-0.000591186082
-0.000591197272
-0.000591204515
-0.000591197634
-0.000591184396
-0.000591186006
-0.000591202712
-0.000591205348
-0.000591191513
-0.000591182739
-0.000591191306
-0.000591205804
-0.000591203497
-0.000591185342
-0.000591183156
-0.000591197712
-0.000591206598
-0.000591198448
-0.0005911834
-0.000591184824
-0.000591201856
-0.000591205961
-0.000591194535
-0.000591183472
-0.000591186879
-0.000591203305
-0.000591205033
-0.000591192351
-0.000591183474
-0.000591189081
-0.000591204675
-0.000591204255
-0.000591188386
-0.000591183242
-0.000591194842
-0.000591206091
-0.000591199937
-0.000591183477
-0.00059118462
-0.000591203516
-0.000591206436
-0.000591190059
-0.00059118121
-0.000591193408
-0.000591208227
-0.000591202092
-0.00059118149
-0.000591182442
-0.00059120354
-0.000591207901
-0.000591192515
-0.000591181669
-0.000591189118
-0.000591205061
-0.00059120399
-0.000591189008
-0.000591184957
-0.000591193386
-0.000591202386
-0.000591200479
-0.000591189418
-0.000591187784
-0.00059119459
-0.000591200206
-0.000591198676
-0.000591190958
-0.000591189221
-0.000591193596
-0.000591199501
-0.000591198932
-0.00059119131
-0.000591188839
-0.000591194356
-0.000591200227
-0.000591197704
-0.000591189572
-0.000591189969
-0.000591197633
-0.00059119868
-0.000591193418
-0.000591191327
-0.000591194344
-0.000591196485
-0.00059119507
-0.000591193532
-0.000591194042
-0.000591194772
-0.000591194674
-0.000591194658
-0.000591194755
-0.000591194013
-0.000591193644
-0.000591195071
-0.000591196209
-0.000591194438
-0.000591191809
-0.000591193041
-0.000591198051
-0.000591197826
-0.000591191228
-0.000591189638
-0.00059119592
-0.000591200459
-0.000591195946
-0.000591188222
-0.000591189762
-0.000591200417
-0.000591200625
-0.000591191121
-0.000591187834
-0.000591194749
-0.000591201131
-0.000591197521
-0.000591188483
-0.000591189213
-0.000591198726
-0.000591200425
-0.000591193372
-0.00059118872
-0.000591192575
-0.000591199467
-0.0005911985
-0.000591190974
-0.000591190426
-0.000591195854
-0.000591197867
-0.000591194506
-0.000591192086
-0.000591194184
-0.000591196313
-0.000591194538
-0.000591192508
-0.000591194676
-0.000591197329
-0.000591194705
-0.000591190694
-0.000591193269
-0.00059119899
-0.000591197044
-0.000591189693
-0.000591190699
-0.000591199523
-0.000591199348
-0.00059118947
-0.000591188439
-0.000591198995
-0.000591202388
-0.00059119163
-0.000591184616
-0.00059119416
-0.00059120571
-0.000591199354
-0.000591183398
-0.000591185389
-0.000591203797
-0.000591204593
-0.000591189709
-0.000591185355
-0.000591195194
-0.000591201507
-0.000591196128
-0.000591189984
-0.000591192475
-0.000591197189
-0.000591195914
-0.000591192415
-0.000591193421
-0.000591197093
-0.000591196376
-0.000591191
-0.000591191115
-0.000591198092
-0.000591199422
-0.000591192226
-0.000591188454
-0.000591194368
-0.000591200861
-0.000591197528
-0.0005911888
-0.000591189515
-0.000591198171
-0.000591199714
-0.00059119408
-0.00059119005
-0.000591191838
-0.000591197629
-0.000591198054
-0.00059119414
-0.00059119119
-0.000591192352
-0.000591197083
-0.00059119743
-0.000591193553
-0.000591191634
-0.000591194045
-0.000591196935
-0.000591195824
-0.000591192585
-0.000591192862
-0.000591195889
-0.000591195985
-0.000591193692
-0.000591193268
-0.000591194918
-0.000591195467
-0.000591194286
-0.000591193755
-0.000591194647
-0.000591195101
-0.000591194351
-0.000591193951
-0.000591194604
-0.000591194971
-0.000591194422
-0.000591194081
-0.00059119443
-0.000591194693
-0.000591194433
-0.000591194237
-0.000591194323
-0.000591194358
-0.000591194089
-0.00059119398
-0.000591193997
-0.000591193852
-0.000591193168
-0.000591192892
-0.00059119306
-0.000591192791
-0.00059119065
-0.000591189372
-0.000591189921
-0.000591190396
-0.000591187288
-0.000591182299
-0.000591181619
-0.000591184403
-0.00059118223
-0.000591176412
-0.000591189645
-0.000591202552
-0.00059114263
-0.000591107728
-0.000591407852
-0.000591746706
-0.000590909293
-0.000589869852
-0.00059221341
-0.000597800673
-0.000591408116
-0.000589206559
-0.000588441626
-0.000636624211
-0.000602817011
-0.000561356307
-0.000582221869
-0.000759761628
-0.000752244077
-0.000580106748
-0.000468357465
-0.000566626249
-0.000767743967
-0.00077161757
-0.000595811755
-0.000385816249
-0.000392567732
-0.000792411798
-0.000794652421
-0.000792806136
-0.00076317369
-0.000436100298
-0.00049417961
-0.000785599925
-0.000782008633
-0.000781172873
-0.000781375256
-0.000782249245
-0.000787671572
-0.000792996847
-0.000807319801
-0.000820639457
-0.000860467847
-0.000899631008
-0.00081771478
-0.000778404207
-0.000682458265
-0.000668600266
-0.000579601997
-0.000630664203
-0.000483962963
-0.000741743127
-0.000834511377
-0.0010596037
-0.000983572248
-0.00103141124
-0.00120398542
-0.00122962777
-0.00135088937
-0.00134488779
-0.000758531122
-0.00136393469
-0.00135301973
-0.00139885996
-0.00161042411
-0.00194962105
-0.00205472147
-0.00208078396
-0.00203852502
-0.00209456001
-0.00209201576
-0.0022231777
-0.00214276514
-0.00229176971
-0.0021190503
-0.00241508334
-0.00205941239
-0.0023881764
-0.00194915208
-0.00321969826
-0.00188658642
-0.00189094228
-0.00144627163
-0.00541206017
-0.00109494933
0.000677512584
-0.00029753653
-0.00752581514
-0.000854343463
0.00360779936
0.00192935748
-0.00923055032
-0.000882876433
0.00559373578
0.00461697115
-0.0075598586
0.00144627985
0.00695837218
0.00601918107
-0.00357380733
0.00456798403
0.00761983348
0.00688036059
-0.00124211888
0.00612505928
0.00801621194
0.00760419601
-2.67190785e-05
0.00716731716
0.00804195654
0.00797235063
0.00154101866
0.0079475038
0.00806037558
0.00797329388
0.00337355614
0.00799773898
0.00806336536
0.00798223842
0.00471042226
0.00800598197
0.00806813621
0.00799720332
0.00563874122
0.00801810972
0.00806636087
0.00801248257
0.00617510588
0.008029204
0.00806276228
0.00802596744
0.00650749429
0.00802108521
0.00806020365
0.00803881608
0.00675252609
0.00796150936
0.00805931147
0.00804302716
0.00694795734
0.00793286398
0.00806066796
0.0080150274
0.00710328058
0.00793011672
0.00806409956
0.00798979981
0.00722449474
0.00793931465
0.00806883001
0.00797364766
0.00732462669
)
;

boundaryField
{
    closed
    {
        type            calculated;
        value           nonuniform List<scalar> 0();
    }
    open
    {
        type            calculated;
        value           nonuniform List<scalar> 0();
    }
    sides
    {
        type            empty;
    }
    procBoundary4to3
    {
        type            processor;
        value           uniform -0.000586693297;
    }
    procBoundary4to5
    {
        type            processor;
        value           uniform 0.00794724352;
    }
}


// ************************************************************************* //
