/*--------------------------------*- C++ -*----------------------------------*\
| =========                 |                                                 |
| \\      /  F ield         | OpenFOAM: The Open Source CFD Toolbox           |
|  \\    /   O peration     | Version:  2306                                  |
|   \\  /    A nd           | Website:  www.openfoam.com                      |
|    \\/     M anipulation  |                                                 |
\*---------------------------------------------------------------------------*/
FoamFile
{
    version     2.0;
    format      ascii;
    arch        "LSB;label=32;scalar=64";
    class       volScalarField;
    location    "0.00022";
    object      prefDPV_T;
}
// * * * * * * * * * * * * * * * * * * * * * * * * * * * * * * * * * * * * * //

dimensions      [1 -1 -1 -1 0 0 0];

internalField   nonuniform List<scalar> 
531
(
5.89843546e-10
5.96918773e-10
6.09882868e-10
5.99252974e-10
5.90931148e-10
5.95218567e-10
6.03185287e-10
5.99849767e-10
5.94554538e-10
5.9592596e-10
5.99181477e-10
5.98601537e-10
5.96798462e-10
5.96974831e-10
5.97865073e-10
5.97832253e-10
5.97427168e-10
5.97429819e-10
5.97588877e-10
5.97594999e-10
5.97539481e-10
5.97534447e-10
5.97552331e-10
5.97554397e-10
5.97548727e-10
5.97548681e-10
5.97550532e-10
5.97550023e-10
5.9754892e-10
5.97549723e-10
5.97550555e-10
5.97549792e-10
5.97549143e-10
5.97549772e-10
5.97550268e-10
5.97549759e-10
5.97549394e-10
5.97549819e-10
5.97550066e-10
5.9754966e-10
5.97549525e-10
5.97550031e-10
5.97550075e-10
5.97549324e-10
5.97549312e-10
5.97550386e-10
5.97550481e-10
5.97549146e-10
5.97548811e-10
5.97550209e-10
5.97550928e-10
5.97549734e-10
5.97548554e-10
5.97549322e-10
5.97550915e-10
5.97550686e-10
5.97548826e-10
5.97548725e-10
5.97550274e-10
5.97550863e-10
5.97549737e-10
5.97548694e-10
5.97549392e-10
5.97550769e-10
5.97550482e-10
5.97548973e-10
5.97549018e-10
5.97550221e-10
5.97550315e-10
5.97549667e-10
5.97549622e-10
5.97549781e-10
5.97549504e-10
5.97549476e-10
5.97550451e-10
5.97550538e-10
5.97548935e-10
5.97548554e-10
5.97550476e-10
5.975513e-10
5.97549416e-10
5.97548168e-10
5.97549746e-10
5.97551267e-10
5.975501e-10
5.97548516e-10
5.97549298e-10
5.97550754e-10
5.97550262e-10
5.9754907e-10
5.97549381e-10
5.97550246e-10
5.97550028e-10
5.97549436e-10
5.97549656e-10
5.9755011e-10
5.97549811e-10
5.97549341e-10
5.97549716e-10
5.97550336e-10
5.97549993e-10
5.97549142e-10
5.97549282e-10
5.97550356e-10
5.97550379e-10
5.97549567e-10
5.97549248e-10
5.9754945e-10
5.97549999e-10
5.97550342e-10
5.97550265e-10
5.9754922e-10
5.97548607e-10
5.97549789e-10
5.97551575e-10
5.97550785e-10
5.97547518e-10
5.97547663e-10
5.97551928e-10
5.97552676e-10
5.97548461e-10
5.97546394e-10
5.97549838e-10
5.97553262e-10
5.97551069e-10
5.97546565e-10
5.97547282e-10
5.97552417e-10
5.97552538e-10
5.97548477e-10
5.97547108e-10
5.97549601e-10
5.97552091e-10
5.97551355e-10
5.97548044e-10
5.97547672e-10
5.97550046e-10
5.97551968e-10
5.97551204e-10
5.97547794e-10
5.97547444e-10
5.97550541e-10
5.97552545e-10
5.97550642e-10
5.97546977e-10
5.97547423e-10
5.97552046e-10
5.97552775e-10
5.97548947e-10
5.97546518e-10
5.9754889e-10
5.97552901e-10
5.97552263e-10
5.97547239e-10
5.97546633e-10
5.97550663e-10
5.97553121e-10
5.97550867e-10
5.97546701e-10
5.97547095e-10
5.97551809e-10
5.97552945e-10
5.97549784e-10
5.97546721e-10
5.97547664e-10
5.9755221e-10
5.97552688e-10
5.9754918e-10
5.97546721e-10
5.97548274e-10
5.97552589e-10
5.97552473e-10
5.97548082e-10
5.97546657e-10
5.97549869e-10
5.9755298e-10
5.97551279e-10
5.97546722e-10
5.97547039e-10
5.97552268e-10
5.97553076e-10
5.97548545e-10
5.97546094e-10
5.97549472e-10
5.97553571e-10
5.97551875e-10
5.97546172e-10
5.97546435e-10
5.97552275e-10
5.97553481e-10
5.97549225e-10
5.97546221e-10
5.97548285e-10
5.97552696e-10
5.975524e-10
5.97548254e-10
5.97547132e-10
5.97549466e-10
5.97551956e-10
5.97551429e-10
5.97548368e-10
5.97547915e-10
5.97549799e-10
5.97551353e-10
5.9755093e-10
5.97548794e-10
5.97548313e-10
5.97549524e-10
5.97551158e-10
5.97551001e-10
5.97548891e-10
5.97548207e-10
5.97549734e-10
5.97551359e-10
5.97550661e-10
5.9754841e-10
5.9754852e-10
5.97550641e-10
5.97550931e-10
5.97549475e-10
5.97548896e-10
5.97549731e-10
5.97550324e-10
5.97549932e-10
5.97549506e-10
5.97549648e-10
5.9754985e-10
5.97549822e-10
5.97549818e-10
5.97549845e-10
5.97549639e-10
5.97549537e-10
5.97549932e-10
5.97550247e-10
5.97549757e-10
5.97549029e-10
5.9754937e-10
5.97550757e-10
5.97550695e-10
5.97548869e-10
5.97548428e-10
5.97550167e-10
5.97551423e-10
5.97550174e-10
5.97548036e-10
5.97548463e-10
5.97551411e-10
5.97551469e-10
5.97548839e-10
5.97547929e-10
5.97549843e-10
5.97551609e-10
5.9755061e-10
5.97548109e-10
5.97548311e-10
5.97550944e-10
5.97551414e-10
5.97549462e-10
5.97548174e-10
5.97549241e-10
5.97551149e-10
5.97550881e-10
5.97548798e-10
5.97548646e-10
5.97550149e-10
5.97550706e-10
5.97549776e-10
5.97549106e-10
5.97549687e-10
5.97550276e-10
5.97549785e-10
5.97549223e-10
5.97549823e-10
5.97550557e-10
5.97549831e-10
5.97548721e-10
5.97549434e-10
5.97551017e-10
5.97550478e-10
5.97548443e-10
5.97548722e-10
5.97551164e-10
5.97551116e-10
5.97548382e-10
5.97548096e-10
5.97551018e-10
5.97551957e-10
5.9754898e-10
5.97547038e-10
5.9754968e-10
5.97552875e-10
5.97551117e-10
5.975467e-10
5.97547252e-10
5.97552346e-10
5.97552566e-10
5.97548448e-10
5.97547242e-10
5.97549966e-10
5.97551713e-10
5.97550225e-10
5.97548524e-10
5.97549214e-10
5.97550518e-10
5.97550166e-10
5.97549197e-10
5.97549476e-10
5.97550492e-10
5.97550294e-10
5.97548805e-10
5.97548837e-10
5.97550768e-10
5.97551136e-10
5.97549145e-10
5.97548101e-10
5.97549738e-10
5.97551534e-10
5.97550612e-10
5.97548196e-10
5.97548394e-10
5.9755079e-10
5.97551217e-10
5.97549658e-10
5.97548542e-10
5.97549037e-10
5.9755064e-10
5.97550758e-10
5.97549675e-10
5.97548858e-10
5.9754918e-10
5.97550489e-10
5.97550585e-10
5.97549512e-10
5.97548981e-10
5.97549648e-10
5.97550448e-10
5.97550141e-10
5.97549244e-10
5.97549321e-10
5.97550159e-10
5.97550185e-10
5.97549551e-10
5.97549433e-10
5.9754989e-10
5.97550042e-10
5.97549715e-10
5.97549569e-10
5.97549816e-10
5.97549942e-10
5.97549735e-10
5.97549625e-10
5.97549807e-10
5.97549909e-10
5.9754976e-10
5.97549667e-10
5.97549769e-10
5.97549845e-10
5.97549783e-10
5.97549735e-10
5.97549777e-10
5.97549799e-10
5.97549755e-10
5.97549749e-10
5.97549805e-10
5.97549807e-10
5.97549706e-10
5.97549701e-10
5.97549892e-10
5.97549938e-10
5.97549574e-10
5.97549416e-10
5.97549892e-10
5.97550339e-10
5.97549886e-10
5.97548965e-10
5.97549199e-10
5.97550491e-10
5.97550153e-10
5.97548795e-10
5.97552001e-10
5.97554704e-10
5.97535593e-10
5.97521433e-10
5.97598018e-10
5.97674648e-10
5.97433371e-10
5.97050082e-10
5.97753628e-10
5.98929542e-10
5.97484772e-10
5.94220411e-10
5.96399248e-10
6.04515273e-10
5.99906859e-10
5.90312852e-10
5.90654651e-10
6.08727746e-10
6.08874465e-10
5.90548515e-10
5.88544587e-10
5.89923546e-10
6.09218406e-10
6.08361665e-10
6.00187089e-10
5.86004238e-10
5.85975969e-10
6.08264082e-10
6.08305374e-10
6.06471393e-10
6.08133268e-10
5.84535504e-10
5.92195209e-10
6.01298212e-10
6.004743e-10
5.98110035e-10
5.96648006e-10
5.94575587e-10
5.927416e-10
5.90866579e-10
5.88648085e-10
5.86911224e-10
5.84683733e-10
5.83752657e-10
5.80040323e-10
5.78167151e-10
5.72588243e-10
5.7102752e-10
5.62693977e-10
5.64733456e-10
5.35736559e-10
5.23035473e-10
5.16362844e-10
5.23311435e-10
5.05977988e-10
5.23080359e-10
4.82933482e-10
4.84103797e-10
4.68957976e-10
4.54091175e-10
4.97956949e-10
4.38395982e-10
4.48691723e-10
4.35913461e-10
4.06753685e-10
3.77828741e-10
3.6462765e-10
3.4886009e-10
3.39500474e-10
3.25073566e-10
3.06933405e-10
2.90263136e-10
2.72619382e-10
2.59703521e-10
2.42051627e-10
2.31694942e-10
2.12532431e-10
2.00653485e-10
1.82236568e-10
1.945512e-10
1.54573935e-10
1.37944993e-10
1.26408771e-10
1.84751798e-10
1.08703477e-10
7.23551778e-11
9.8695627e-11
1.71779995e-10
8.81040685e-11
2.11173651e-11
5.06052799e-11
1.68467442e-10
7.62862671e-11
-1.02971267e-11
6.35149748e-12
1.27428465e-10
4.43048906e-11
-2.9520986e-11
-1.62055007e-11
6.39486664e-11
2.22573565e-12
-3.61934793e-11
-2.85467294e-11
3.60995782e-11
-2.10505849e-11
-3.96253149e-11
-3.59837778e-11
2.02525173e-11
-3.26738812e-11
-3.98643203e-11
-3.93356631e-11
5.77189951e-12
-3.91032352e-11
-4.01280101e-11
-3.94358687e-11
-1.05019881e-11
-3.96773222e-11
-4.02462435e-11
-3.95737207e-11
-2.12603398e-11
-3.98069378e-11
-4.03816805e-11
-3.97781823e-11
-2.75760382e-11
-4.00117243e-11
-4.04708808e-11
-4.00094598e-11
-3.09158796e-11
-4.02197668e-11
-4.05341069e-11
-4.02328951e-11
-3.28980374e-11
-4.02558646e-11
-4.05983309e-11
-4.04370814e-11
-3.42983001e-11
-3.98840168e-11
-4.06717642e-11
-4.05562356e-11
-3.53768884e-11
-3.97995026e-11
-4.07625846e-11
-4.04007391e-11
-3.62200131e-11
-3.98833355e-11
-4.08695068e-11
-4.02995828e-11
-3.68823407e-11
-4.00432072e-11
-4.09896149e-11
-4.03028425e-11
-3.74374061e-11
)
;

boundaryField
{
    closed
    {
        type            calculated;
        value           nonuniform List<scalar> 0();
    }
    open
    {
        type            calculated;
        value           nonuniform List<scalar> 0();
    }
    sides
    {
        type            empty;
    }
    procBoundary4to3
    {
        type            processor;
        value           uniform 5.96157605e-10;
    }
    procBoundary4to5
    {
        type            processor;
        value           uniform -4.01988935e-11;
    }
}


// ************************************************************************* //
