/*--------------------------------*- C++ -*----------------------------------*\
| =========                 |                                                 |
| \\      /  F ield         | OpenFOAM: The Open Source CFD Toolbox           |
|  \\    /   O peration     | Version:  2306                                  |
|   \\  /    A nd           | Website:  www.openfoam.com                      |
|    \\/     M anipulation  |                                                 |
\*---------------------------------------------------------------------------*/
FoamFile
{
    version     2.0;
    format      ascii;
    arch        "LSB;label=32;scalar=64";
    class       volScalarField;
    location    "0.001";
    object      alpha;
}
// * * * * * * * * * * * * * * * * * * * * * * * * * * * * * * * * * * * * * //

dimensions      [1 -1 -1 0 0 0 0];

internalField   nonuniform List<scalar> 
531
(
3.57654717e-05
3.68102062e-05
3.67666439e-05
3.5271496e-05
3.5265991e-05
3.5766648e-05
3.68165977e-05
3.67738187e-05
3.55228932e-05
3.57779799e-05
3.68332811e-05
3.67552167e-05
3.53854189e-05
3.53902441e-05
3.57921328e-05
3.68028268e-05
3.67831122e-05
3.54015777e-05
3.54122908e-05
3.56406252e-05
3.57934848e-05
3.68327613e-05
3.67645111e-05
3.53423273e-05
3.53381813e-05
3.57758837e-05
3.68135015e-05
3.67743957e-05
3.53161995e-05
3.53191485e-05
3.57574234e-05
3.6788564e-05
3.68295145e-05
3.67614269e-05
3.52241196e-05
3.52214409e-05
3.57615345e-05
3.68177764e-05
3.67650051e-05
3.5192774e-05
3.51852538e-05
3.57252386e-05
3.6777452e-05
3.68351003e-05
3.67584005e-05
3.50907e-05
3.50898788e-05
3.57409876e-05
3.6814441e-05
3.6770522e-05
3.53199228e-05
3.57228302e-05
3.68332342e-05
3.67533812e-05
3.53302368e-05
3.57407183e-05
3.6836586e-05
3.67447292e-05
3.51469832e-05
3.51400663e-05
3.57120718e-05
3.67757774e-05
3.68324604e-05
3.67476799e-05
3.51822594e-05
3.5173735e-05
3.57544975e-05
3.68044507e-05
3.67652074e-05
3.51942057e-05
3.51951788e-05
3.57565014e-05
3.6806769e-05
3.67545432e-05
3.51922622e-05
3.51827652e-05
3.57203856e-05
3.6785909e-05
3.68304368e-05
3.67625119e-05
3.54400523e-05
3.57461006e-05
3.68288336e-05
3.67418368e-05
3.52107352e-05
3.52023498e-05
3.57182938e-05
3.67722433e-05
3.68251207e-05
3.67524495e-05
3.52165355e-05
3.52117463e-05
3.54054394e-05
3.57654078e-05
3.6826134e-05
3.67506343e-05
3.51302014e-05
3.51167762e-05
3.57310537e-05
3.68042461e-05
3.67718225e-05
3.5317629e-05
3.56973016e-05
3.68195113e-05
3.67630343e-05
3.52804223e-05
3.57497188e-05
3.6805206e-05
3.68070964e-05
3.67703843e-05
3.5077721e-05
3.50762911e-05
3.52895959e-05
3.57054735e-05
3.68132621e-05
3.68356825e-05
3.6786748e-05
3.53619869e-05
3.57364937e-05
3.68261738e-05
3.67720225e-05
3.68133519e-05
3.67397257e-05
3.51317729e-05
3.51252745e-05
3.53906178e-05
3.52814497e-05
3.57290138e-05
3.68102415e-05
3.67751041e-05
3.50659776e-05
3.50687236e-05
3.57077787e-05
3.68075658e-05
3.68206746e-05
3.67850615e-05
3.53090678e-05
3.57234838e-05
3.68021071e-05
3.68055623e-05
3.67654102e-05
3.50820057e-05
3.50778433e-05
3.52634272e-05
3.57047341e-05
3.68129085e-05
3.68244212e-05
3.67783528e-05
3.4976086e-05
3.49661004e-05
3.57107879e-05
3.68103708e-05
3.67910527e-05
3.68066003e-05
3.67588779e-05
3.51310966e-05
3.51259783e-05
3.53147831e-05
3.57274014e-05
3.68194595e-05
3.67908719e-05
3.68119906e-05
3.67590615e-05
3.51515726e-05
3.51539495e-05
3.53988191e-05
3.52979619e-05
3.57180505e-05
3.68100902e-05
3.6804607e-05
3.68029317e-05
3.67693391e-05
3.51910292e-05
3.51908181e-05
3.54288364e-05
3.53025421e-05
3.57186624e-05
3.68124e-05
3.6808241e-05
3.6804297e-05
3.67826323e-05
3.50934736e-05
3.51003883e-05
3.53298503e-05
3.51909965e-05
3.56422399e-05
3.68153067e-05
3.68321731e-05
3.67921286e-05
3.52076526e-05
3.55878576e-05
3.68146532e-05
3.68196937e-05
3.67828694e-05
3.52977022e-05
3.54301706e-05
3.68274718e-05
3.67781811e-05
3.5297685e-05
3.55312789e-05
3.68318305e-05
3.6774197e-05
3.51528169e-05
3.51539706e-05
3.56719335e-05
3.68109375e-05
3.68050451e-05
3.53717676e-05
3.56178409e-05
3.68233474e-05
3.67837974e-05
3.52788588e-05
3.5278872e-05
3.57026331e-05
3.68117158e-05
3.68155048e-05
3.52392338e-05
3.52237293e-05
3.57171137e-05
3.68192131e-05
3.68156842e-05
3.68011714e-05
3.52728991e-05
3.52678411e-05
3.53741561e-05
3.57025261e-05
3.68281321e-05
3.68208108e-05
3.68120477e-05
3.51744261e-05
3.51426168e-05
3.56434952e-05
3.6816262e-05
3.67980138e-05
3.52771368e-05
3.5512966e-05
3.68254359e-05
3.67863866e-05
3.50882603e-05
3.50861081e-05
3.56239048e-05
3.68115336e-05
3.68175142e-05
3.68081553e-05
3.67962432e-05
3.51318874e-05
3.51261881e-05
3.52149639e-05
3.56045167e-05
3.68279917e-05
3.6819742e-05
3.68232828e-05
3.68018514e-05
3.50988278e-05
3.5096185e-05
3.55804044e-05
3.68172285e-05
3.67991407e-05
3.51361133e-05
3.51315878e-05
3.55363108e-05
3.68204694e-05
3.68100409e-05
3.531193e-05
3.54608788e-05
3.68287943e-05
3.67997465e-05
3.53628435e-05
3.55086904e-05
3.68355052e-05
3.67981713e-05
3.53972717e-05
3.55806506e-05
3.68379587e-05
3.67950818e-05
3.53162326e-05
3.53197333e-05
3.56872734e-05
3.68178603e-05
3.68148203e-05
3.53392068e-05
3.53420055e-05
3.56685875e-05
3.68229852e-05
3.68145572e-05
3.54544278e-05
3.56174393e-05
3.68295763e-05
3.6807476e-05
3.53204102e-05
3.53140008e-05
3.56621799e-05
3.68184543e-05
3.6824644e-05
3.52404301e-05
3.52240688e-05
3.56190575e-05
3.68241277e-05
3.68250347e-05
3.6816523e-05
3.68111991e-05
3.52088806e-05
3.51963494e-05
3.52308091e-05
3.5471879e-05
3.68301234e-05
3.68195245e-05
3.51246947e-05
3.54899002e-05
3.68287499e-05
3.68226222e-05
3.68129492e-05
3.53046713e-05
3.53644052e-05
3.68271145e-05
3.68128736e-05
3.52059117e-05
3.51497984e-05
3.55074755e-05
3.68195593e-05
3.68214326e-05
3.53428425e-05
3.54853102e-05
3.68292955e-05
3.68135975e-05
3.52680212e-05
3.52461922e-05
3.55596209e-05
3.68219116e-05
3.68225186e-05
3.54007692e-05
3.55366133e-05
3.68329207e-05
3.68148854e-05
3.53143052e-05
3.5290823e-05
3.55865366e-05
3.68240554e-05
3.68259379e-05
3.54289168e-05
3.55615189e-05
3.6835526e-05
3.68174149e-05
3.53454797e-05
3.53243383e-05
3.56074313e-05
3.68253249e-05
3.68278136e-05
3.54675049e-05
3.55933314e-05
3.6836188e-05
3.68183403e-05
3.5394677e-05
3.53627667e-05
3.56591183e-05
3.68234694e-05
3.68330287e-05
3.53853733e-05
3.53385483e-05
3.56456142e-05
3.68319697e-05
3.68239003e-05
3.53272175e-05
3.52800919e-05
3.55634205e-05
3.68257474e-05
3.68265903e-05
3.53813313e-05
3.54983816e-05
3.68327115e-05
3.68183983e-05
3.52566513e-05
3.56054551e-05
3.68354379e-05
3.53893629e-05
3.5482447e-05
3.68341237e-05
3.68294333e-05
3.68204093e-05
3.53645927e-05
3.54184387e-05
3.68338357e-05
3.68163547e-05
3.52726818e-05
3.51683721e-05
3.55065322e-05
3.68211507e-05
3.68244247e-05
3.52858507e-05
3.56206548e-05
3.68268177e-05
3.54002621e-05
3.53898924e-05
3.6826379e-05
3.68151511e-05
3.53402961e-05
3.54146974e-05
3.68355822e-05
3.68134646e-05
3.52168299e-05
3.50727996e-05
3.54315377e-05
3.68319436e-05
3.68297675e-05
3.68250089e-05
3.52989314e-05
3.55463456e-05
3.68371725e-05
3.6822509e-05
3.68313279e-05
3.53801193e-05
3.51562022e-05
3.55761057e-05
3.68276582e-05
3.6828857e-05
3.53451621e-05
3.52833962e-05
3.56136993e-05
3.68299896e-05
3.68297181e-05
3.54078168e-05
3.53547425e-05
3.56712738e-05
3.68319344e-05
3.6828767e-05
3.54526861e-05
3.53986593e-05
3.56887915e-05
3.68318411e-05
3.68319694e-05
3.54556753e-05
3.53892474e-05
3.56883235e-05
3.68372239e-05
3.68300753e-05
3.5409782e-05
3.53522768e-05
3.56331495e-05
3.68370236e-05
3.68257207e-05
3.54597968e-05
3.55901417e-05
3.68481545e-05
3.68229176e-05
3.53724703e-05
3.53133544e-05
3.56028889e-05
3.6836579e-05
3.68269056e-05
3.54462593e-05
3.55793062e-05
3.68484598e-05
3.68220091e-05
3.53693329e-05
3.53161798e-05
3.56085794e-05
3.68341788e-05
3.68264803e-05
3.54723522e-05
3.55994512e-05
3.68430829e-05
3.68242076e-05
3.54068143e-05
3.53494692e-05
3.5668468e-05
3.68364398e-05
3.68272233e-05
3.53955803e-05
3.53455329e-05
3.5640494e-05
3.68318877e-05
3.68187965e-05
3.54837564e-05
3.56230854e-05
3.68375867e-05
3.68018434e-05
3.53737624e-05
3.53737126e-05
3.53016871e-05
3.56657734e-05
3.68455955e-05
3.68356598e-05
3.68149518e-05
3.54439754e-05
3.54902049e-05
3.68391036e-05
3.68136705e-05
3.53123189e-05
3.52007701e-05
3.55617847e-05
3.68293549e-05
3.6810797e-05
3.53615926e-05
3.55228101e-05
3.68422826e-05
3.68108682e-05
3.52662951e-05
3.52034364e-05
3.55544467e-05
3.68275275e-05
3.680991e-05
3.5405855e-05
3.55497781e-05
3.68414526e-05
3.67964452e-05
3.54387791e-05
3.56209024e-05
3.68461003e-05
3.68062595e-05
3.53732068e-05
3.53379653e-05
3.56798727e-05
3.68257447e-05
3.6825929e-05
3.53986909e-05
3.53454983e-05
3.56970456e-05
3.68344977e-05
3.68131903e-05
3.53766451e-05
3.53355602e-05
3.56872222e-05
3.68261981e-05
3.68020733e-05
3.54846132e-05
3.56590701e-05
3.68366684e-05
3.68035565e-05
3.53641997e-05
3.52984508e-05
3.56876817e-05
)
;

boundaryField
{
    closed
    {
        type            calculated;
        value           nonuniform List<scalar> 0();
    }
    open
    {
        type            calculated;
        value           nonuniform List<scalar> 0();
    }
    sides
    {
        type            empty;
    }
    procBoundary3to2
    {
        type            processor;
        value           uniform 3.52225522e-05;
    }
    procBoundary3to4
    {
        type            processor;
        value           uniform 3.68256252e-05;
    }
}


// ************************************************************************* //
