/*--------------------------------*- C++ -*----------------------------------*\
| =========                 |                                                 |
| \\      /  F ield         | OpenFOAM: The Open Source CFD Toolbox           |
|  \\    /   O peration     | Version:  2306                                  |
|   \\  /    A nd           | Website:  www.openfoam.com                      |
|    \\/     M anipulation  |                                                 |
\*---------------------------------------------------------------------------*/
FoamFile
{
    version     2.0;
    format      ascii;
    arch        "LSB;label=32;scalar=64";
    class       surfaceScalarField;
    location    "0.001";
    object      phi;
}
// * * * * * * * * * * * * * * * * * * * * * * * * * * * * * * * * * * * * * //

dimensions      [1 0 -1 0 0 0 0];

oriented        oriented;

internalField   nonuniform List<scalar> 
530
(
-3.93554363e-06
-3.93889351e-06
-3.98654736e-06
-3.95279166e-06
-3.97164169e-06
-3.93375601e-06
-3.93456086e-06
-3.94522601e-06
-3.93252546e-06
-3.90594645e-06
-3.90482951e-06
-3.95356487e-06
-3.93185919e-06
-3.95999034e-06
-3.91787198e-06
-3.92027776e-06
-3.84327451e-06
-3.98791767e-06
-4.02863424e-06
-3.98491738e-06
-3.94544004e-06
-3.94276955e-06
-3.9922492e-06
-3.95042847e-06
-3.96886021e-06
-3.92468315e-06
-3.92347102e-06
-3.96369169e-06
-3.93842686e-06
-3.96616463e-06
-3.93090976e-06
-3.92573874e-06
-3.92276432e-06
-3.99360486e-06
-3.94393723e-06
-3.97649925e-06
-3.94235609e-06
-3.94435204e-06
-3.98897996e-06
-3.9444908e-06
-3.95399286e-06
-3.89595228e-06
-3.98848258e-06
-3.97572615e-06
-3.89591969e-06
-4.01060743e-06
-4.0358399e-06
-3.99506078e-06
-3.98776762e-06
-3.97910554e-06
-3.95901655e-06
-3.88575322e-06
-3.87450955e-06
-3.87129756e-06
-3.85227471e-06
-3.78525888e-06
-3.77526421e-06
-3.81588741e-06
-3.77773024e-06
-3.80352158e-06
-3.77598267e-06
-3.76915343e-06
-3.76484618e-06
-3.82740227e-06
-3.77310237e-06
-3.8028535e-06
-3.76762172e-06
-3.76727544e-06
-3.67553955e-06
-3.80513689e-06
-3.83076978e-06
-3.79210716e-06
-3.78550088e-06
-3.80922369e-06
-3.76427939e-06
-3.77678694e-06
-3.74504624e-06
-3.74922097e-06
-3.73526091e-06
-3.73180511e-06
-3.70989677e-06
-3.64494864e-06
-3.63418093e-06
-3.67314714e-06
-3.6272368e-06
-3.64869377e-06
-3.62224387e-06
-3.61518649e-06
-3.6108019e-06
-3.66155669e-06
-3.63644723e-06
-3.68015741e-06
-3.64242769e-06
-3.6139032e-06
-3.60851932e-06
-3.65087023e-06
-3.59737091e-06
-3.61774192e-06
-3.58337236e-06
-3.57823901e-06
-3.56978975e-06
-3.55315807e-06
-3.4847022e-06
-3.47501504e-06
-3.47066996e-06
-3.44496341e-06
-3.41961054e-06
-3.39580837e-06
-3.3937665e-06
-3.43689824e-06
-3.4062141e-06
-3.448824e-06
-3.39683657e-06
-3.37138627e-06
-3.36517373e-06
-3.35343986e-06
-3.34323376e-06
-3.31180042e-06
-3.19737519e-06
-3.18957865e-06
-3.20002955e-06
-3.19232941e-06
-3.24052221e-06
-3.21891936e-06
-3.26424287e-06
-3.25784546e-06
-3.22535364e-06
-3.19058512e-06
-3.17886366e-06
-3.09851691e-06
-3.20200425e-06
-3.20539471e-06
-3.18244693e-06
-3.18307508e-06
-3.16691348e-06
-3.16058416e-06
-3.13075096e-06
-3.11435372e-06
-3.06911209e-06
-3.06349465e-06
-3.11098917e-06
-3.0770598e-06
-3.10489582e-06
-3.06870329e-06
-3.04998509e-06
-3.02770774e-06
-3.02404608e-06
-3.11019121e-06
-3.04232787e-06
-3.04754388e-06
-3.02310692e-06
-3.02289565e-06
-3.02577321e-06
-3.02183508e-06
-3.06674606e-06
-3.04926474e-06
-3.07391022e-06
-3.03081723e-06
-2.99630747e-06
-2.98783255e-06
-3.0008882e-06
-2.98906241e-06
-2.93871945e-06
-3.05424747e-06
-3.07853545e-06
-3.06240913e-06
-3.01781848e-06
-2.97943511e-06
-2.97038367e-06
-2.98059966e-06
-2.97102916e-06
-3.03827603e-06
-3.01522135e-06
-3.03888289e-06
-3.03452932e-06
-2.99537788e-06
-2.96230418e-06
-2.95498951e-06
-2.96668594e-06
-2.95638358e-06
-2.93355995e-06
-3.05221146e-06
-3.06613598e-06
-3.05678808e-06
-3.01366997e-06
-2.90541513e-06
-2.88259199e-06
-2.86844614e-06
-2.88810949e-06
-2.85975685e-06
-2.714446e-06
-2.76866452e-06
-2.76066415e-06
-2.77084812e-06
-2.7550595e-06
-2.67142952e-06
-2.66199603e-06
-2.68142981e-06
-2.66796716e-06
-2.57974526e-06
-2.5703777e-06
-2.5349529e-06
-2.61431657e-06
-2.62242664e-06
-2.49868172e-06
-2.49041442e-06
-2.50115061e-06
-2.48961373e-06
-2.40367929e-06
-2.39373618e-06
-2.44178862e-06
-2.40552814e-06
-2.41672742e-06
-2.39701623e-06
-2.39218412e-06
-2.39435301e-06
-2.46480427e-06
-2.43761928e-06
-2.4128501e-06
-2.45079048e-06
-2.43684764e-06
-2.48587492e-06
-2.4548334e-06
-2.4580308e-06
-2.4290327e-06
-2.40484265e-06
-2.36175778e-06
-2.35001302e-06
-2.35954086e-06
-2.42403591e-06
-2.4176246e-06
-2.30106182e-06
-2.2915841e-06
-2.30571099e-06
-2.29525154e-06
-2.20520863e-06
-2.19380414e-06
-2.17076495e-06
-2.23382005e-06
-2.23126331e-06
-2.09548763e-06
-2.08596415e-06
-2.08552907e-06
-2.07697437e-06
-2.11503737e-06
-2.10560245e-06
-2.11828058e-06
-2.0971161e-06
-1.97277395e-06
-1.96809975e-06
-1.96728446e-06
-1.96367402e-06
-2.03288478e-06
-1.99605149e-06
-2.00569565e-06
-1.91005176e-06
-1.90809656e-06
-1.95147654e-06
-1.92130973e-06
-1.92644463e-06
-1.83471063e-06
-1.83124512e-06
-1.84542757e-06
-1.84166609e-06
-1.78053676e-06
-1.77617058e-06
-1.79066569e-06
-1.78372973e-06
-1.72807762e-06
-1.72411121e-06
-1.73787949e-06
-1.73133287e-06
-1.67416999e-06
-1.66915614e-06
-1.65328584e-06
-1.70068205e-06
-1.70625477e-06
-1.62951689e-06
-1.62465895e-06
-1.60005573e-06
-1.65096442e-06
-1.65403359e-06
-1.58268741e-06
-1.57824301e-06
-1.58546765e-06
-1.58250599e-06
-1.52587939e-06
-1.52297387e-06
-1.52659702e-06
-1.56813491e-06
-1.56859969e-06
-1.49614189e-06
-1.49399553e-06
-1.49681428e-06
-1.54101943e-06
-1.5344498e-06
-1.44922703e-06
-1.44997972e-06
-1.45476624e-06
-1.45328275e-06
-1.49293245e-06
-1.49076678e-06
-1.50217466e-06
-1.49797995e-06
-1.43213563e-06
-1.43389771e-06
-1.44530804e-06
-1.44425308e-06
-1.37889015e-06
-1.392773e-06
-1.38963072e-06
-1.40362475e-06
-1.39994104e-06
-1.35294293e-06
-1.35264632e-06
-1.35964303e-06
-1.40494914e-06
-1.40668344e-06
-1.34389294e-06
-1.34364814e-06
-1.3548134e-06
-1.35835083e-06
-1.30999117e-06
-1.31184188e-06
-1.31833068e-06
-1.36144599e-06
-1.36355909e-06
-1.3064353e-06
-1.30742009e-06
-1.31889007e-06
-1.32296475e-06
-1.2780659e-06
-1.28086032e-06
-1.28797493e-06
-1.33038454e-06
-1.33276799e-06
-1.27850897e-06
-1.28030136e-06
-1.29249624e-06
-1.29707956e-06
-1.25396569e-06
-1.25758014e-06
-1.2653947e-06
-1.30742276e-06
-1.3100791e-06
-1.25754557e-06
-1.2600032e-06
-1.27309832e-06
-1.27863286e-06
-1.23725667e-06
-1.24139204e-06
-1.25036563e-06
-1.29199396e-06
-1.29613754e-06
-1.23998248e-06
-1.24419213e-06
-1.25308831e-06
-1.30046011e-06
-1.30292766e-06
-1.24633176e-06
-1.25132872e-06
-1.26064944e-06
-1.31064639e-06
-1.31314984e-06
-1.2600791e-06
-1.26390057e-06
-1.28137614e-06
-1.29042039e-06
-1.25480259e-06
-1.26136669e-06
-1.27895146e-06
-1.30071311e-06
-1.25471139e-06
-1.27397514e-06
-1.27397466e-06
-1.27214757e-06
-1.25288988e-06
-1.25626156e-06
-1.27821592e-06
-1.28279801e-06
-1.24438021e-06
-1.25147822e-06
-1.2660204e-06
-1.31943435e-06
-1.32661142e-06
-1.26770651e-06
-1.27567677e-06
-1.29688053e-06
-1.32247917e-06
-1.27799627e-06
-1.31916598e-06
-1.31388837e-06
-1.2727825e-06
-1.28082485e-06
-1.30321952e-06
-1.31147589e-06
-1.27169764e-06
-1.28230691e-06
-1.29880385e-06
-1.36061936e-06
-1.36196429e-06
-1.32198517e-06
-1.32898951e-06
-1.33686521e-06
-1.36205228e-06
-1.37540072e-06
-1.32490979e-06
-1.34030692e-06
-1.34958397e-06
-1.37188041e-06
-1.43866728e-06
-1.45150543e-06
-1.38004234e-06
-1.39261878e-06
-1.41264289e-06
-1.48096153e-06
-1.4890252e-06
-1.42152366e-06
-1.43442713e-06
-1.45487248e-06
-1.52185556e-06
-1.53034808e-06
-1.46286825e-06
-1.47552176e-06
-1.49505825e-06
-1.56247511e-06
-1.57024652e-06
-1.57200664e-06
-1.58403659e-06
-1.60600755e-06
-1.67918661e-06
-1.68819072e-06
-1.63092841e-06
-1.64605646e-06
-1.67062396e-06
-1.74984447e-06
-1.7616232e-06
-1.68949945e-06
-1.70482259e-06
-1.74501782e-06
-1.7629574e-06
-1.7034469e-06
-1.72301606e-06
-1.75327376e-06
-1.83617477e-06
-1.85254766e-06
-1.77542217e-06
-1.79339514e-06
-1.83668371e-06
-1.85649427e-06
-1.79303757e-06
-1.81428866e-06
-1.84647139e-06
-1.9341061e-06
-1.95155766e-06
-1.86898451e-06
-1.88751206e-06
-1.93221973e-06
-1.9528337e-06
-1.88538716e-06
-1.90640059e-06
-1.93939691e-06
-2.02925418e-06
-2.04646938e-06
-1.95098714e-06
-1.9726198e-06
-2.00255135e-06
-2.09978095e-06
-2.11580132e-06
-2.02476121e-06
-2.04241706e-06
-2.08789923e-06
-2.10809651e-06
-2.04181639e-06
-2.06102683e-06
-2.12643953e-06
-2.14367608e-06
-2.17377097e-06
-2.17624849e-06
-2.12407976e-06
-2.10491837e-06
-2.11460616e-06
-2.17884147e-06
-2.1901729e-06
-2.10493054e-06
-2.12389745e-06
-2.15101678e-06
-2.25161668e-06
-2.26600786e-06
-2.15912988e-06
-2.17267868e-06
-2.20803544e-06
-2.22160179e-06
-2.13718278e-06
-2.15307035e-06
-2.17675464e-06
-2.27308815e-06
-2.28368762e-06
-2.17391378e-06
-2.18320938e-06
-2.2120918e-06
-2.22234234e-06
-2.15345119e-06
-2.16125655e-06
-2.18659052e-06
-2.18972959e-06
-2.11070563e-06
-2.11969403e-06
-2.13473195e-06
-2.21668914e-06
-2.22403108e-06
-2.21483296e-06
-2.22501325e-06
-2.23704191e-06
-2.32780321e-06
-2.33157205e-06
-2.32080465e-06
-2.32978702e-06
-2.34053053e-06
-2.43191924e-06
-2.43224325e-06
-2.31759722e-06
-2.317743e-06
-2.32884206e-06
-2.32819328e-06
-2.24044176e-06
-2.24167704e-06
-2.24483015e-06
-2.3223091e-06
-2.31966132e-06
)
;

boundaryField
{
    closed
    {
        type            calculated;
        value           nonuniform List<scalar> 0();
    }
    open
    {
        type            calculated;
        value           nonuniform List<scalar> 0();
    }
    sides
    {
        type            empty;
        value           nonuniform List<scalar> 0();
    }
    procBoundary3to2
    {
        type            processor;
        value           uniform 3.97065431e-06;
    }
    procBoundary3to4
    {
        type            processor;
        value           uniform -2.22487801e-06;
    }
}


// ************************************************************************* //
