/*--------------------------------*- C++ -*----------------------------------*\
| =========                 |                                                 |
| \\      /  F ield         | OpenFOAM: The Open Source CFD Toolbox           |
|  \\    /   O peration     | Version:  2306                                  |
|   \\  /    A nd           | Website:  www.openfoam.com                      |
|    \\/     M anipulation  |                                                 |
\*---------------------------------------------------------------------------*/
FoamFile
{
    version     2.0;
    format      ascii;
    arch        "LSB;label=32;scalar=64";
    class       volScalarField;
    location    "0.001";
    object      prefDZ_H2;
}
// * * * * * * * * * * * * * * * * * * * * * * * * * * * * * * * * * * * * * //

dimensions      [1 -1 -1 0 0 0 0];

internalField   nonuniform List<scalar> 
531
(
6.23216665e-05
6.35430487e-05
6.33870617e-05
6.16867842e-05
6.16729465e-05
6.23219239e-05
6.3560606e-05
6.34034468e-05
6.20555627e-05
6.23881223e-05
6.35939145e-05
6.3373822e-05
6.18546994e-05
6.18528584e-05
6.23261974e-05
6.35378399e-05
6.34271598e-05
6.1876024e-05
6.18873008e-05
6.22279684e-05
6.23402605e-05
6.35946672e-05
6.33885846e-05
6.17922324e-05
6.1778298e-05
6.23181237e-05
6.35530079e-05
6.34030684e-05
6.17533071e-05
6.17502206e-05
6.22953746e-05
6.35154118e-05
6.35902368e-05
6.33746109e-05
6.16185015e-05
6.16072921e-05
6.23183451e-05
6.3554535e-05
6.3377612e-05
6.15738381e-05
6.15532187e-05
6.22789753e-05
6.34885501e-05
6.35962276e-05
6.33617675e-05
6.14237738e-05
6.14135625e-05
6.23163355e-05
6.35467672e-05
6.33816811e-05
6.1758123e-05
6.23404338e-05
6.35853415e-05
6.33504288e-05
6.17745266e-05
6.23650362e-05
6.35891401e-05
6.33413438e-05
6.15077634e-05
6.14848503e-05
6.22764514e-05
6.34892976e-05
6.35934685e-05
6.33487685e-05
6.15571518e-05
6.15352448e-05
6.23242505e-05
6.35301888e-05
6.33869117e-05
6.15726269e-05
6.15672461e-05
6.23286192e-05
6.35341889e-05
6.3361343e-05
6.15716879e-05
6.15493736e-05
6.22923568e-05
6.35106205e-05
6.3593908e-05
6.33683397e-05
6.1934546e-05
6.2373461e-05
6.35795615e-05
6.33422506e-05
6.15998114e-05
6.15759471e-05
6.22882485e-05
6.3482807e-05
6.35812302e-05
6.33559898e-05
6.1606378e-05
6.15919083e-05
6.18824282e-05
6.23564436e-05
6.35715143e-05
6.33592143e-05
6.14813371e-05
6.14518346e-05
6.23220903e-05
6.35297138e-05
6.3393352e-05
6.17529475e-05
6.23036519e-05
6.3560354e-05
6.33791147e-05
6.16989545e-05
6.23673843e-05
6.35296204e-05
6.35455526e-05
6.3385333e-05
6.14019654e-05
6.13976612e-05
6.17121639e-05
6.23044494e-05
6.35583624e-05
6.36005992e-05
6.34182308e-05
6.18211055e-05
6.23642896e-05
6.35758629e-05
6.34643375e-05
6.3549938e-05
6.33432567e-05
6.14818793e-05
6.1464754e-05
6.18616801e-05
6.16967668e-05
6.23172614e-05
6.35399321e-05
6.3417331e-05
6.13862644e-05
6.13851037e-05
6.23173166e-05
6.35473247e-05
6.35726323e-05
6.34230993e-05
6.17402841e-05
6.23459692e-05
6.35223601e-05
6.35423065e-05
6.33891011e-05
6.1407854e-05
6.13998956e-05
6.16731217e-05
6.23169236e-05
6.35523292e-05
6.35738318e-05
6.34262793e-05
6.12559694e-05
6.12357571e-05
6.23084071e-05
6.35371424e-05
6.34973452e-05
6.35323912e-05
6.33765285e-05
6.14802482e-05
6.14693408e-05
6.17486929e-05
6.23219106e-05
6.35626483e-05
6.35050695e-05
6.35476687e-05
6.3394377e-05
6.15109073e-05
6.15085561e-05
6.18742149e-05
6.17219113e-05
6.22936853e-05
6.35467543e-05
6.35335224e-05
6.35332438e-05
6.34203942e-05
6.15672462e-05
6.15639165e-05
6.19173576e-05
6.17292149e-05
6.22961307e-05
6.35501515e-05
6.3539572e-05
6.35338549e-05
6.34483034e-05
6.14242474e-05
6.1432797e-05
6.17729808e-05
6.15668608e-05
6.22330744e-05
6.35595419e-05
6.3590073e-05
6.34472327e-05
6.1594135e-05
6.21493514e-05
6.35438204e-05
6.3569246e-05
6.34260249e-05
6.17261588e-05
6.1914294e-05
6.35786301e-05
6.34298849e-05
6.17267602e-05
6.20622666e-05
6.35843572e-05
6.34377517e-05
6.15157749e-05
6.15092777e-05
6.22755047e-05
6.35467046e-05
6.34929781e-05
6.18328104e-05
6.21914193e-05
6.35733486e-05
6.34641641e-05
6.16992435e-05
6.16927461e-05
6.23065966e-05
6.35499212e-05
6.35365345e-05
6.16390679e-05
6.16151249e-05
6.23104331e-05
6.3562578e-05
6.35693444e-05
6.34921674e-05
6.16880168e-05
6.16808981e-05
6.18361588e-05
6.23181221e-05
6.35853401e-05
6.35741106e-05
6.35196576e-05
6.15445097e-05
6.14955406e-05
6.22317606e-05
6.35543248e-05
6.34818134e-05
6.16950133e-05
6.20379128e-05
6.35714994e-05
6.34710055e-05
6.14212088e-05
6.14116628e-05
6.22065676e-05
6.3542797e-05
6.35521342e-05
6.35378263e-05
6.34757286e-05
6.14815757e-05
6.14737788e-05
6.16034259e-05
6.2176916e-05
6.35749821e-05
6.35582692e-05
6.35658484e-05
6.34984474e-05
6.1435305e-05
6.14275159e-05
6.21407748e-05
6.35531913e-05
6.34959672e-05
6.14898749e-05
6.14800614e-05
6.20760622e-05
6.35628575e-05
6.35103968e-05
6.17465912e-05
6.19624772e-05
6.35838884e-05
6.34929205e-05
6.182244e-05
6.20313339e-05
6.35979986e-05
6.3494373e-05
6.18733887e-05
6.21367498e-05
6.36021423e-05
6.35009521e-05
6.17555994e-05
6.17539554e-05
6.229861e-05
6.35635303e-05
6.35397965e-05
6.17866613e-05
6.17884731e-05
6.22694076e-05
6.35756314e-05
6.3533031e-05
6.19551134e-05
6.21921568e-05
6.35887158e-05
6.35314188e-05
6.17604439e-05
6.17461083e-05
6.22616281e-05
6.35625679e-05
6.35619135e-05
6.16423159e-05
6.16166783e-05
6.21983448e-05
6.35718036e-05
6.35729075e-05
6.35578056e-05
6.3523582e-05
6.15947167e-05
6.15768921e-05
6.16272315e-05
6.1981589e-05
6.35784233e-05
6.35334196e-05
6.14737619e-05
6.20080088e-05
6.35652526e-05
6.35745214e-05
6.3513344e-05
6.17363383e-05
6.18225293e-05
6.35788776e-05
6.35329359e-05
6.15928582e-05
6.15067357e-05
6.20349346e-05
6.35625668e-05
6.35432067e-05
6.17917148e-05
6.19998553e-05
6.35846419e-05
6.35402079e-05
6.16838776e-05
6.16479306e-05
6.21112551e-05
6.35702955e-05
6.35492117e-05
6.18768838e-05
6.20749862e-05
6.35935268e-05
6.3545402e-05
6.17521397e-05
6.17134294e-05
6.21511551e-05
6.35757554e-05
6.35578839e-05
6.19184049e-05
6.2111868e-05
6.35995835e-05
6.3551863e-05
6.17980898e-05
6.17627317e-05
6.21820213e-05
6.35796639e-05
6.35637371e-05
6.1974936e-05
6.21585901e-05
6.36028145e-05
6.35556969e-05
6.18701781e-05
6.18188092e-05
6.22580863e-05
6.35761286e-05
6.35838553e-05
6.18544123e-05
6.17852693e-05
6.22365528e-05
6.35900013e-05
6.35649311e-05
6.17706775e-05
6.16986144e-05
6.21172912e-05
6.35773709e-05
6.35579481e-05
6.18486744e-05
6.20197966e-05
6.35905692e-05
6.35429355e-05
6.16668167e-05
6.21767418e-05
6.35665225e-05
6.18602677e-05
6.19982821e-05
6.35860816e-05
6.35887815e-05
6.35369296e-05
6.18249039e-05
6.19022053e-05
6.35936336e-05
6.35434051e-05
6.16912478e-05
6.15343606e-05
6.20342151e-05
6.35648653e-05
6.35551058e-05
6.17082396e-05
6.219863e-05
6.35581401e-05
6.18752483e-05
6.18615088e-05
6.35818233e-05
6.35305802e-05
6.17895451e-05
6.18958191e-05
6.35948174e-05
6.35355917e-05
6.16096283e-05
6.13953142e-05
6.1924404e-05
6.35857542e-05
6.35865771e-05
6.35463228e-05
6.17285239e-05
6.20906932e-05
6.35868581e-05
6.35791313e-05
6.3562207e-05
6.18469785e-05
6.15178627e-05
6.21357832e-05
6.357879e-05
6.35717329e-05
6.17962589e-05
6.17042923e-05
6.21909703e-05
6.35870643e-05
6.35759249e-05
6.18880523e-05
6.18087421e-05
6.22751429e-05
6.35932936e-05
6.35765571e-05
6.19540688e-05
6.18728279e-05
6.22994854e-05
6.35941489e-05
6.35824988e-05
6.19584025e-05
6.18598084e-05
6.23001235e-05
6.36027092e-05
6.35773474e-05
6.18921589e-05
6.18055452e-05
6.22203023e-05
6.36014894e-05
6.35564934e-05
6.19656331e-05
6.21549844e-05
6.36240491e-05
6.35602339e-05
6.18390846e-05
6.17482333e-05
6.21769924e-05
6.35994535e-05
6.35561499e-05
6.19458722e-05
6.21393306e-05
6.36242559e-05
6.35575684e-05
6.18345072e-05
6.17521387e-05
6.21854629e-05
6.3595628e-05
6.35546999e-05
6.19833828e-05
6.21690984e-05
6.3615869e-05
6.35621878e-05
6.18882e-05
6.18013312e-05
6.22723547e-05
6.36002924e-05
6.35682793e-05
6.18710813e-05
6.17951144e-05
6.22310546e-05
6.35923796e-05
6.35388017e-05
6.19994148e-05
6.22027761e-05
6.36044504e-05
6.35104426e-05
6.18390352e-05
6.18379482e-05
6.17331064e-05
6.22686777e-05
6.36060833e-05
6.36056496e-05
6.35234158e-05
6.19413556e-05
6.20084866e-05
6.36069686e-05
6.35326325e-05
6.1749974e-05
6.15822383e-05
6.21161763e-05
6.35816455e-05
6.35135356e-05
6.18211544e-05
6.20555541e-05
6.36085927e-05
6.35276045e-05
6.16825431e-05
6.15860837e-05
6.21052954e-05
6.35792624e-05
6.3510723e-05
6.1885319e-05
6.20940197e-05
6.36099884e-05
6.34879871e-05
6.19352584e-05
6.21976117e-05
6.36195227e-05
6.35240751e-05
6.18390718e-05
6.17823151e-05
6.22854209e-05
6.35803232e-05
6.35611124e-05
6.18736155e-05
6.17952597e-05
6.23064718e-05
6.35960936e-05
6.35368193e-05
6.18425212e-05
6.17788426e-05
6.2298457e-05
6.35812286e-05
6.34979635e-05
6.20001998e-05
6.22535612e-05
6.36030167e-05
6.35165701e-05
6.18244168e-05
6.17240267e-05
6.22990938e-05
)
;

boundaryField
{
    closed
    {
        type            calculated;
        value           nonuniform List<scalar> 0();
    }
    open
    {
        type            calculated;
        value           nonuniform List<scalar> 0();
    }
    sides
    {
        type            empty;
    }
    procBoundary3to2
    {
        type            processor;
        value           uniform 6.16086346e-05;
    }
    procBoundary3to4
    {
        type            processor;
        value           uniform 6.35760578e-05;
    }
}


// ************************************************************************* //
