/*--------------------------------*- C++ -*----------------------------------*\
| =========                 |                                                 |
| \\      /  F ield         | OpenFOAM: The Open Source CFD Toolbox           |
|  \\    /   O peration     | Version:  2306                                  |
|   \\  /    A nd           | Website:  www.openfoam.com                      |
|    \\/     M anipulation  |                                                 |
\*---------------------------------------------------------------------------*/
FoamFile
{
    version     2.0;
    format      ascii;
    arch        "LSB;label=32;scalar=64";
    class       volScalarField;
    location    "0.00144";
    object      prefDZ_T;
}
// * * * * * * * * * * * * * * * * * * * * * * * * * * * * * * * * * * * * * //

dimensions      [1 -1 -1 -1 0 0 0];

internalField   nonuniform List<scalar> 
531
(
-1.18958603e-09
-1.22667057e-09
-1.22722401e-09
-1.19452161e-09
-1.18714135e-09
-1.18943032e-09
-1.22671793e-09
-1.22737754e-09
-1.19416168e-09
-1.18687118e-09
-1.1890479e-09
-1.22687553e-09
-1.22765906e-09
-1.19312216e-09
-1.18635453e-09
-1.18780839e-09
-1.22736132e-09
-1.22717745e-09
-1.19003542e-09
-1.18917005e-09
-1.22726049e-09
-1.22742878e-09
-1.19005224e-09
-1.19018645e-09
-1.22687632e-09
-1.2274585e-09
-1.19396095e-09
-1.18649766e-09
-1.18801498e-09
-1.22745592e-09
-1.22732986e-09
-1.19472821e-09
-1.18800598e-09
-1.18705597e-09
-1.18838509e-09
-1.22951201e-09
-1.22758555e-09
-1.2289015e-09
-1.22800632e-09
-1.22721815e-09
-1.2281865e-09
-1.1981005e-09
-1.18714313e-09
-1.18552008e-09
-1.18653599e-09
-1.2286882e-09
-1.22907388e-09
-1.19283483e-09
-1.18480817e-09
-1.18682555e-09
-1.23018196e-09
-1.22627423e-09
-1.2286764e-09
-1.19655811e-09
-1.18701214e-09
-1.18689156e-09
-1.22872744e-09
-1.22683991e-09
-1.19258074e-09
-1.19023635e-09
-1.22930116e-09
-1.22659775e-09
-1.19817678e-09
-1.1888934e-09
-1.18855283e-09
-1.1861212e-09
-1.18578522e-09
-1.22786786e-09
-1.22755303e-09
-1.22949924e-09
-1.22669998e-09
-1.22722073e-09
-1.20503208e-09
-1.18797691e-09
-1.18769871e-09
-1.23028551e-09
-1.22739085e-09
-1.20004898e-09
-1.18703708e-09
-1.18704204e-09
-1.22985305e-09
-1.22752928e-09
-1.20097471e-09
-1.18742675e-09
-1.18736611e-09
-1.23040641e-09
-1.22734139e-09
-1.20242367e-09
-1.18786787e-09
-1.1877523e-09
-1.23091284e-09
-1.22714969e-09
-1.20448649e-09
-1.18853534e-09
-1.18825486e-09
-1.23144345e-09
-1.22644932e-09
-1.20481905e-09
-1.18979791e-09
-1.187934e-09
-1.18719677e-09
-1.23292924e-09
-1.22672791e-09
-1.19458354e-09
-1.19005039e-09
-1.2326061e-09
-1.22694317e-09
-1.20140637e-09
-1.18816795e-09
-1.18804694e-09
-1.23259333e-09
-1.22750092e-09
-1.20280713e-09
-1.1879614e-09
-1.18799755e-09
-1.23302246e-09
-1.22782686e-09
-1.20298076e-09
-1.18734382e-09
-1.1875138e-09
-1.23123484e-09
-1.22656918e-09
-1.22780967e-09
-1.20483603e-09
-1.18936475e-09
-1.18727861e-09
-1.1871156e-09
-1.22762301e-09
-1.22765538e-09
-1.19448187e-09
-1.18938354e-09
-1.23255799e-09
-1.22758208e-09
-1.20055008e-09
-1.18782616e-09
-1.18783706e-09
-1.23459741e-09
-1.22762059e-09
-1.20242021e-09
-1.18823857e-09
-1.18825447e-09
-1.2337604e-09
-1.22742093e-09
-1.20264752e-09
-1.18835131e-09
-1.18833613e-09
-1.2334943e-09
-1.22711212e-09
-1.20432355e-09
-1.18916619e-09
-1.18928791e-09
-1.23065305e-09
-1.22673123e-09
-1.20930963e-09
-1.18919103e-09
-1.18896313e-09
-1.23335312e-09
-1.22735046e-09
-1.20067604e-09
-1.18781268e-09
-1.18789704e-09
-1.23238064e-09
-1.22757233e-09
-1.19979377e-09
-1.18776003e-09
-1.1876196e-09
-1.23301184e-09
-1.22680213e-09
-1.19451342e-09
-1.18980837e-09
-1.23239683e-09
-1.22641149e-09
-1.20017967e-09
-1.18947475e-09
-1.18824984e-09
-1.18803015e-09
-1.23093836e-09
-1.22757679e-09
-1.19970454e-09
-1.18820625e-09
-1.18840991e-09
-1.22967973e-09
-1.22756016e-09
-1.1997881e-09
-1.1879247e-09
-1.18787838e-09
-1.22944791e-09
-1.22724248e-09
-1.19229966e-09
-1.18972868e-09
-1.2296797e-09
-1.22759773e-09
-1.19547383e-09
-1.18720733e-09
-1.18737716e-09
-1.22876715e-09
-1.22756077e-09
-1.1916603e-09
-1.18981076e-09
-1.22897596e-09
-1.22746715e-09
-1.19605833e-09
-1.18783384e-09
-1.18859401e-09
-1.22792234e-09
-1.2279538e-09
-1.19603964e-09
-1.18752154e-09
-1.18853026e-09
-1.22767182e-09
-1.22821347e-09
-1.19429205e-09
-1.18721394e-09
-1.18803376e-09
-1.22738125e-09
-1.22855633e-09
-1.19077121e-09
-1.1902647e-09
-1.22739351e-09
-1.22781985e-09
-1.19398638e-09
-1.18790467e-09
-1.18948166e-09
-1.22699448e-09
-1.22830965e-09
-1.19331791e-09
-1.18742597e-09
-1.18949882e-09
-1.22689552e-09
-1.2293581e-09
-1.19060225e-09
-1.18548846e-09
-1.18853028e-09
-1.22771697e-09
-1.22633824e-09
-1.22852404e-09
-1.22606447e-09
-1.22978728e-09
-1.19029002e-09
-1.1878065e-09
-1.18802e-09
-1.18732301e-09
-1.18470588e-09
-1.18843027e-09
-1.22885528e-09
-1.22687272e-09
-1.23233332e-09
-1.18891266e-09
-1.19003656e-09
-1.2263467e-09
-1.22983879e-09
-1.18902044e-09
-1.18674036e-09
-1.18951538e-09
-1.22709871e-09
-1.231009e-09
-1.18898449e-09
-1.19046047e-09
-1.22622031e-09
-1.23065205e-09
-1.18939929e-09
-1.1926598e-09
-1.22558464e-09
-1.22802415e-09
-1.19315868e-09
-1.1891425e-09
-1.19727547e-09
-1.22584352e-09
-1.22808973e-09
-1.19351547e-09
-1.18893451e-09
-1.18820948e-09
-1.18620888e-09
-1.1893889e-09
-1.22762789e-09
-1.22647694e-09
-1.22955759e-09
-1.22701139e-09
-1.23149867e-09
-1.18764998e-09
-1.18721601e-09
-1.18748861e-09
-1.19192034e-09
-1.22672603e-09
-1.22880744e-09
-1.19035666e-09
-1.18825822e-09
-1.19444901e-09
-1.22689185e-09
-1.22862464e-09
-1.18968357e-09
-1.18748682e-09
-1.19231875e-09
-1.22725387e-09
-1.23038231e-09
-1.18972062e-09
-1.19309499e-09
-1.22661626e-09
-1.22848535e-09
-1.18911584e-09
-1.18749296e-09
-1.19363077e-09
-1.22746151e-09
-1.22870306e-09
-1.18910327e-09
-1.187118e-09
-1.1922852e-09
-1.22771521e-09
-1.23079473e-09
-1.1897859e-09
-1.19320371e-09
-1.22700126e-09
-1.22809077e-09
-1.18920501e-09
-1.18766677e-09
-1.19411693e-09
-1.22764375e-09
-1.22844268e-09
-1.18962911e-09
-1.18757904e-09
-1.19429386e-09
-1.22762103e-09
-1.2282597e-09
-1.18992605e-09
-1.1878914e-09
-1.19325235e-09
-1.22767416e-09
-1.2299096e-09
-1.19101212e-09
-1.19439695e-09
-1.22686665e-09
-1.22749852e-09
-1.1905917e-09
-1.18837221e-09
-1.18820238e-09
-1.19183609e-09
-1.22820109e-09
-1.23128664e-09
-1.18900969e-09
-1.19106728e-09
-1.22792727e-09
-1.2307877e-09
-1.18945127e-09
-1.19276972e-09
-1.22843897e-09
-1.22556279e-09
-1.22799321e-09
-1.19049656e-09
-1.18842478e-09
-1.18864884e-09
-1.18757541e-09
-1.19083368e-09
-1.22837587e-09
-1.22841087e-09
-1.18868631e-09
-1.18627024e-09
-1.19061017e-09
-1.22855173e-09
-1.22986471e-09
-1.18956737e-09
-1.19097625e-09
-1.22785561e-09
-1.22908677e-09
-1.18960995e-09
-1.19153128e-09
-1.22726192e-09
-1.22737358e-09
-1.18961945e-09
-1.18721505e-09
-1.19069804e-09
-1.2280357e-09
-1.22836329e-09
-1.18976637e-09
-1.19090051e-09
-1.22711039e-09
-1.22726601e-09
-1.18946351e-09
-1.18683598e-09
-1.1901892e-09
-1.22793125e-09
-1.22790711e-09
-1.18945658e-09
-1.19032573e-09
-1.22694044e-09
-1.22724254e-09
-1.18920922e-09
-1.18649343e-09
-1.1897111e-09
-1.22777588e-09
-1.22762856e-09
-1.1891151e-09
-1.18982672e-09
-1.22694714e-09
-1.22738951e-09
-1.18879961e-09
-1.1860376e-09
-1.18920249e-09
-1.2278539e-09
-1.22769045e-09
-1.18860789e-09
-1.18891622e-09
-1.22715267e-09
-1.22773636e-09
-1.18862862e-09
-1.18929659e-09
-1.22676064e-09
-1.22748835e-09
-1.18867129e-09
-1.18987005e-09
-1.22638039e-09
-1.22748458e-09
-1.18924102e-09
-1.18626948e-09
-1.18914059e-09
-1.22768235e-09
-1.22711591e-09
-1.18851621e-09
-1.19570107e-09
-1.2270794e-09
-1.20870564e-09
-1.18888791e-09
-1.19791324e-09
-1.22617567e-09
-1.2271495e-09
-1.18996984e-09
-1.18671294e-09
-1.19255311e-09
-1.22776314e-09
-1.23153417e-09
-1.18910745e-09
-1.19512386e-09
-1.22617565e-09
-1.22686601e-09
-1.19276568e-09
-1.18777059e-09
-1.19187631e-09
-1.22668976e-09
-1.2267839e-09
-1.19173522e-09
-1.18805019e-09
-1.18799982e-09
-1.18998841e-09
-1.22720784e-09
-1.22794267e-09
-1.18930502e-09
-1.18587358e-09
-1.18858561e-09
-1.2280439e-09
-1.22815554e-09
-1.18882333e-09
-1.18841569e-09
-1.22782931e-09
-1.22836464e-09
-1.18912975e-09
-1.18882166e-09
-1.2275924e-09
-1.22813854e-09
-1.1896345e-09
-1.18980696e-09
-1.22772131e-09
-1.22545505e-09
-1.227859e-09
-1.1947828e-09
-1.18845927e-09
-1.18889213e-09
-1.18760613e-09
-1.18906309e-09
-1.22698171e-09
-1.22700808e-09
-1.19549093e-09
-1.1880007e-09
-1.1896799e-09
-1.22681935e-09
-1.22652021e-09
-1.19019604e-09
-1.18923094e-09
-1.22715673e-09
-1.22656791e-09
-1.19020999e-09
-1.18998755e-09
-1.22704448e-09
-1.22683175e-09
-1.19510528e-09
-1.18757326e-09
-1.18937874e-09
-1.2270634e-09
-1.2268159e-09
-1.19575447e-09
-1.18727313e-09
-1.1886044e-09
-1.22724227e-09
-1.22678837e-09
-1.19301921e-09
-1.18779717e-09
-1.18669666e-09
-1.18733332e-09
-1.22873609e-09
-1.22750668e-09
-1.22725841e-09
-1.22745428e-09
-1.19514875e-09
-1.18647215e-09
-1.18747933e-09
-1.2282643e-09
-1.2267159e-09
-1.19026793e-09
-1.18877817e-09
-1.22824449e-09
-1.22709154e-09
-1.19277415e-09
-1.18670827e-09
-1.18791985e-09
-1.22785846e-09
-1.2270692e-09
-1.19515565e-09
-1.18714205e-09
-1.18827713e-09
-1.22774649e-09
-1.2268473e-09
-1.1960877e-09
-1.18737701e-09
-1.18840062e-09
-1.22770416e-09
-1.22668279e-09
-1.19689131e-09
-1.18772392e-09
-1.18893079e-09
-1.2276408e-09
-1.22647873e-09
-1.19892778e-09
-1.18878022e-09
)
;

boundaryField
{
    closed
    {
        type            calculated;
        value           nonuniform List<scalar> 0();
    }
    open
    {
        type            calculated;
        value           nonuniform List<scalar> 0();
    }
    sides
    {
        type            empty;
    }
    procBoundary3to2
    {
        type            processor;
        value           uniform -1.18722161e-09;
    }
    procBoundary3to4
    {
        type            processor;
        value           uniform -1.18895126e-09;
    }
}


// ************************************************************************* //
