/*--------------------------------*- C++ -*----------------------------------*\
| =========                 |                                                 |
| \\      /  F ield         | OpenFOAM: The Open Source CFD Toolbox           |
|  \\    /   O peration     | Version:  2306                                  |
|   \\  /    A nd           | Website:  www.openfoam.com                      |
|    \\/     M anipulation  |                                                 |
\*---------------------------------------------------------------------------*/
FoamFile
{
    version     2.0;
    format      ascii;
    arch        "LSB;label=32;scalar=64";
    class       volScalarField;
    location    "0.00144";
    object      PV;
}
// * * * * * * * * * * * * * * * * * * * * * * * * * * * * * * * * * * * * * //

dimensions      [0 0 0 0 0 0 0];

internalField   nonuniform List<scalar> 
531
(
-0.00713639785
-0.00692039248
-0.00692563399
-0.00710207435
-0.0071657074
-0.00713851712
-0.00692037344
-0.00692619758
-0.00710445207
-0.00716912544
-0.00714294548
-0.0069208658
-0.00692703891
-0.00711114267
-0.00717639172
-0.00715300188
-0.00692406107
-0.00692362995
-0.00714001965
-0.00714202365
-0.00692211406
-0.00692515858
-0.00713823561
-0.00713518883
-0.00692026113
-0.00692835779
-0.00710669693
-0.00717604925
-0.00715174161
-0.0069238784
-0.00692573007
-0.00710701541
-0.00715813012
-0.00717381566
-0.00715479022
-0.0069293468
-0.00692944562
-0.00693156859
-0.00692943139
-0.00692940584
-0.00692928184
-0.00708600123
-0.00717145733
-0.00718084427
-0.00717755873
-0.00692200019
-0.00693213582
-0.00711262494
-0.00719944179
-0.00716536965
-0.00692978479
-0.00692484307
-0.00693336349
-0.00709175338
-0.00717974167
-0.00716447481
-0.0069286733
-0.00692295669
-0.00712157063
-0.00713394103
-0.00692629626
-0.00692577656
-0.00708525386
-0.00715477505
-0.00715292552
-0.00718591823
-0.00717963751
-0.00696279466
-0.0069274349
-0.00693389118
-0.00692583876
-0.00693028028
-0.00704928237
-0.00716490969
-0.0071615661
-0.0069311737
-0.0069273932
-0.00707501169
-0.00717097201
-0.00717013513
-0.00692753645
-0.00692740584
-0.00706950042
-0.00716772153
-0.00716625705
-0.00692897772
-0.00692699806
-0.00706201866
-0.00716390654
-0.00716166524
-0.00693056805
-0.00692673502
-0.0070521154
-0.00715918263
-0.00715443749
-0.0069329798
-0.0069234148
-0.00705310943
-0.00713396324
-0.00717147593
-0.00716047104
-0.00693418741
-0.00692216614
-0.00711508932
-0.007132863
-0.00693170515
-0.00692538686
-0.00706962998
-0.00716578531
-0.00715817329
-0.00693410187
-0.00692741371
-0.00706222756
-0.0071667494
-0.00715916506
-0.00693415892
-0.00692872063
-0.00706041212
-0.00717168934
-0.00716415044
-0.00692806861
-0.00692558859
-0.00693094289
-0.00704956396
-0.00714233815
-0.0071690421
-0.00716135309
-0.00696160783
-0.00692476368
-0.00710993455
-0.00714059715
-0.00694754715
-0.00692684415
-0.00707224977
-0.00716881742
-0.00715731191
-0.00694216422
-0.00692778618
-0.00706334579
-0.00716445653
-0.007153042
-0.00693857363
-0.00692745742
-0.0070620339
-0.00716324254
-0.00715145362
-0.00693814558
-0.00692707593
-0.00705439137
-0.0071544308
-0.00714443996
-0.00693007242
-0.00692692149
-0.00703163621
-0.00715359551
-0.00714726288
-0.00693704898
-0.00692715807
-0.00707197692
-0.00716770744
-0.00715523361
-0.00693308413
-0.00692743578
-0.00707601813
-0.00716935581
-0.00715402502
-0.00693684396
-0.00692299784
-0.00711513583
-0.00713151218
-0.00693385929
-0.00692284692
-0.00707669658
-0.00713881576
-0.00716417871
-0.00715350412
-0.00692772371
-0.00692762477
-0.007076945
-0.0071623719
-0.00715089385
-0.0069264137
-0.00692825778
-0.00707531535
-0.0071653902
-0.00715195939
-0.00692555997
-0.00692493288
-0.0071263086
-0.00713296304
-0.00692444297
-0.00692761437
-0.00709983967
-0.00717051663
-0.00715586744
-0.00692472297
-0.00692571177
-0.00712869885
-0.00713115213
-0.00692349704
-0.00692740874
-0.0070966966
-0.00716053482
-0.00714619655
-0.00692348915
-0.00692880036
-0.00709463185
-0.00716262428
-0.0071450602
-0.00692255854
-0.00692923773
-0.00710324346
-0.00716616319
-0.00714602189
-0.00692289453
-0.00692930768
-0.00713047951
-0.00712623636
-0.00692116855
-0.00692862927
-0.0071066905
-0.00715887022
-0.00713451761
-0.00692273857
-0.00692943669
-0.00711136079
-0.00716265595
-0.00713783103
-0.00692162651
-0.00693315104
-0.00712486236
-0.00718789775
-0.00713911509
-0.00692297757
-0.00692292538
-0.00692816677
-0.00692377818
-0.00693390445
-0.00713564239
-0.00716438767
-0.00715764819
-0.00716429523
-0.00719025595
-0.0071454728
-0.00692557979
-0.00692542818
-0.00693708054
-0.00714647315
-0.00714197929
-0.00692049471
-0.00693407146
-0.00714189348
-0.00717561051
-0.00713254199
-0.00692490792
-0.00693281456
-0.00714381547
-0.00713311684
-0.006921149
-0.00693323834
-0.00713575605
-0.00711811212
-0.00691957842
-0.00692902761
-0.00710914748
-0.00714702433
-0.00708863824
-0.00692234639
-0.00693010117
-0.00710724069
-0.00715477786
-0.00714657889
-0.00717618478
-0.00712893759
-0.00692526009
-0.00692230809
-0.0069317494
-0.00692666817
-0.00693428739
-0.00716262295
-0.00717421608
-0.00715952927
-0.00712248342
-0.00692172688
-0.00692818236
-0.0071271932
-0.00716072132
-0.00710290345
-0.00692455615
-0.00692576102
-0.00713509237
-0.00716654596
-0.00711667968
-0.00692486562
-0.00692636114
-0.00713243689
-0.00711871864
-0.00692182591
-0.00692568632
-0.0071385446
-0.00716606988
-0.00710718777
-0.00692548732
-0.00692439519
-0.00714039385
-0.00717066661
-0.00711747828
-0.00692621835
-0.00692727861
-0.00713232139
-0.00711857922
-0.00692324751
-0.0069241356
-0.00713800298
-0.00716509825
-0.00710472589
-0.00692642183
-0.00692379118
-0.00713395521
-0.00716521863
-0.00710367172
-0.00692629409
-0.00692376049
-0.00713068249
-0.00716364316
-0.00711217771
-0.00692730691
-0.00692557064
-0.00712288514
-0.00711132621
-0.00692471481
-0.00692368143
-0.00712757059
-0.00715613554
-0.00715483186
-0.00712269527
-0.00692657095
-0.00692871939
-0.00714232728
-0.00713972307
-0.00692550564
-0.00692747231
-0.0071384484
-0.00711766497
-0.00693050934
-0.00692300024
-0.00692309707
-0.00712499814
-0.00716105703
-0.00714411089
-0.00716379915
-0.00712362419
-0.00692646818
-0.00692212385
-0.00714476329
-0.00718062161
-0.00713368846
-0.00692906256
-0.00692489669
-0.00713857159
-0.00714083749
-0.00692646342
-0.00692486912
-0.00713629369
-0.00713194838
-0.00692467624
-0.00692425248
-0.00713609174
-0.00717248561
-0.0071301526
-0.00692835423
-0.00692174964
-0.0071364347
-0.00713538638
-0.00692408134
-0.00692405426
-0.00713785916
-0.00717493442
-0.00713427621
-0.00692743803
-0.00692072697
-0.00713975974
-0.00713947049
-0.00692323342
-0.00692412781
-0.00714066237
-0.0071771607
-0.00713786172
-0.00692665131
-0.00692047806
-0.00714342263
-0.00714251452
-0.00692331076
-0.0069247642
-0.00714526004
-0.0071811219
-0.00714285422
-0.00692711249
-0.00692181294
-0.00715046769
-0.00715120362
-0.00692467163
-0.00692390694
-0.00714835441
-0.00714848621
-0.00692354103
-0.00692327879
-0.00714669401
-0.00714289025
-0.00692276214
-0.00692721369
-0.00714084943
-0.00717944036
-0.007139127
-0.00692609099
-0.00691792082
-0.00715193358
-0.0070959371
-0.00692437449
-0.00703165254
-0.00714651698
-0.0070839312
-0.00692305
-0.00692400184
-0.00713311247
-0.00717325686
-0.00711813707
-0.00692613269
-0.00695217818
-0.00714574027
-0.00710406245
-0.00692268181
-0.00692456627
-0.00711174204
-0.00716060742
-0.00711593294
-0.00692291417
-0.00692170853
-0.00712111701
-0.00715385023
-0.00715553718
-0.007134717
-0.00692162786
-0.00692560683
-0.00714054288
-0.0071821834
-0.00714595538
-0.00692539942
-0.00692364899
-0.00715274573
-0.00715138287
-0.00692394158
-0.00692620735
-0.00715003656
-0.00714760208
-0.00692407694
-0.00692620773
-0.00714378726
-0.00713528031
-0.00692339839
-0.00692359724
-0.00692847015
-0.00710023732
-0.00715567692
-0.00714225288
-0.00716259757
-0.00714082833
-0.00692249954
-0.00692552671
-0.00709722418
-0.00715927215
-0.00713425033
-0.00692362188
-0.00692169339
-0.00713748966
-0.00714008748
-0.00692293029
-0.00692342447
-0.00713640555
-0.00713623989
-0.00692195499
-0.00692661363
-0.0070999525
-0.00716303376
-0.00714008044
-0.00692292531
-0.0069251325
-0.00709539856
-0.00716539842
-0.00714640135
-0.00692367359
-0.00692359072
-0.00711444544
-0.00715950935
-0.00717048609
-0.00716555124
-0.00692486188
-0.00692713288
-0.00692524677
-0.00692674038
-0.00709998905
-0.00717684067
-0.00715785132
-0.00692701437
-0.00692212891
-0.00713474141
-0.00714734223
-0.00692364664
-0.0069244717
-0.00711301117
-0.00717076688
-0.00715560509
-0.00692428337
-0.00692418842
-0.00709857079
-0.00716516271
-0.00715149495
-0.00692385204
-0.006923575
-0.00709264235
-0.00716171016
-0.00714971466
-0.00692384469
-0.00692333517
-0.00708822975
-0.00715803459
-0.00714567825
-0.00692416156
-0.00692429743
-0.00707703244
-0.00715100918
)
;

boundaryField
{
    closed
    {
        type            zeroGradient;
    }
    open
    {
        type            zeroGradient;
    }
    sides
    {
        type            empty;
    }
    procBoundary3to2
    {
        type            processor;
        value           uniform -0.00716471817;
    }
    procBoundary3to4
    {
        type            processor;
        value           uniform -0.00714283809;
    }
}


// ************************************************************************* //
