/*--------------------------------*- C++ -*----------------------------------*\
| =========                 |                                                 |
| \\      /  F ield         | OpenFOAM: The Open Source CFD Toolbox           |
|  \\    /   O peration     | Version:  2306                                  |
|   \\  /    A nd           | Website:  www.openfoam.com                      |
|    \\/     M anipulation  |                                                 |
\*---------------------------------------------------------------------------*/
FoamFile
{
    version     2.0;
    format      ascii;
    arch        "LSB;label=32;scalar=64";
    class       volVectorField;
    location    "0.00144";
    object      U;
}
// * * * * * * * * * * * * * * * * * * * * * * * * * * * * * * * * * * * * * //

dimensions      [0 1 -1 0 0 0 0];

internalField   nonuniform List<vector> 
531
(
(-0.0581033104 0 0)
(-0.0504730505 0 0)
(-0.0425020247 0 0)
(-0.0345030523 0 0)
(-0.0271592073 0 0)
(-0.0173629707 0 0)
(-0.00602383901 0 0)
(0.00637441332 0 0)
(0.0161531523 0 0)
(0.0261749106 0 0)
(0.036728089 0 0)
(0.0488999318 0 0)
(0.0652819409 0 0)
(0.077474504 0 0)
(0.0868492143 0 0)
(0.101083265 0 0)
(0.116901068 0 0)
(0.135022763 0 0)
(0.146863536 0 0)
(0.151102985 0 0)
(0.167227667 0 0)
(0.189355033 0 0)
(0.204818972 0 0)
(0.207318452 0 0)
(0.224934007 0 0)
(0.247884462 0 0)
(0.257770588 0 0)
(0.271151571 0 0)
(0.285733082 0 0)
(0.310634796 0 0)
(0.332231272 0 0)
(0.341250837 0 0)
(0.356204892 0 0)
(0.378276822 0 0)
(0.387152014 0 0)
(0.410252661 0 0)
(0.429190346 0 0)
(0.450540237 0 0)
(0.472240841 0 0)
(0.490476096 0 0)
(0.511687026 0 0)
(0.515012128 0 0)
(0.524184035 0 0)
(0.547267589 0 0)
(0.545897325 0 0)
(0.569567612 0 0)
(0.58746748 0 0)
(0.581832547 0 0)
(0.576311086 0 0)
(0.582831657 0 0)
(0.605570291 0 0)
(0.613639628 0 0)
(0.630949409 0 0)
(0.630662903 0 0)
(0.625691823 0 0)
(0.62050179 0 0)
(0.639466663 0 0)
(0.645468831 0 0)
(0.626861685 0 0)
(0.615909472 0 0)
(0.631863138 0 0)
(0.630259107 0 0)
(0.611147713 0 0)
(0.606737403 0 0)
(0.609831219 0 0)
(0.602913054 0 0)
(0.579486057 0 0)
(0.585057162 0 0)
(0.593242817 0 0)
(0.583442004 0 0)
(0.574867956 0 0)
(0.563659208 0 0)
(0.543360176 0 0)
(0.522681065 0 0)
(0.506790713 0 0)
(0.504635412 0 0)
(0.486783999 0 0)
(0.454457824 0 0)
(0.424935442 0 0)
(0.3959351 0 0)
(0.381213843 0 0)
(0.363601138 0 0)
(0.328746014 0 0)
(0.293341209 0 0)
(0.260316674 0 0)
(0.238658563 0 0)
(0.219068814 0 0)
(0.182317877 0 0)
(0.14279514 0 0)
(0.107202632 0 0)
(0.0827416438 0 0)
(0.0646522496 0 0)
(0.0275065822 0 0)
(-0.0163383187 0 0)
(-0.0540237551 0 0)
(-0.0699020086 0 0)
(-0.082376998 0 0)
(-0.119828573 0 0)
(-0.161528093 0 0)
(-0.197655234 0 0)
(-0.227252146 0 0)
(-0.238340932 0 0)
(-0.245812257 0 0)
(-0.271945027 0 0)
(-0.301345562 0 0)
(-0.311400135 0 0)
(-0.311627406 0 0)
(-0.344753184 0 0)
(-0.3757017 0 0)
(-0.400332444 0 0)
(-0.403406514 0 0)
(-0.401658845 0 0)
(-0.430520817 0 0)
(-0.455874566 0 0)
(-0.481926593 0 0)
(-0.477580031 0 0)
(-0.464530079 0 0)
(-0.492420511 0 0)
(-0.511716286 0 0)
(-0.515953181 0 0)
(-0.524934652 0 0)
(-0.514986095 0 0)
(-0.543991025 0 0)
(-0.548055338 0 0)
(-0.569688832 0 0)
(-0.58902166 0 0)
(-0.596069783 0 0)
(-0.574349862 0 0)
(-0.5535537 0 0)
(-0.548854561 0 0)
(-0.561639882 0 0)
(-0.519207684 0 0)
(-0.469960511 0 0)
(-0.484715991 0 0)
(-0.494769271 0 0)
(-0.508252133 0 0)
(-0.459354113 0 0)
(-0.409603587 0 0)
(-0.422456714 0 0)
(-0.433929937 0 0)
(-0.454575785 0 0)
(-0.423496996 0 0)
(-0.393152544 0 0)
(-0.412230006 0 0)
(-0.425103743 0 0)
(-0.446890503 0 0)
(-0.414908679 0 0)
(-0.383781818 0 0)
(-0.403095638 0 0)
(-0.414451316 0 0)
(-0.426825998 0 0)
(-0.419799279 0 0)
(-0.409418889 0 0)
(-0.427700603 0 0)
(-0.446622508 0 0)
(-0.477639725 0 0)
(-0.451132365 0 0)
(-0.428935672 0 0)
(-0.456559612 0 0)
(-0.47144086 0 0)
(-0.506152531 0 0)
(-0.492846477 0 0)
(-0.483926439 0 0)
(-0.514041824 0 0)
(-0.529575561 0 0)
(-0.564510193 0 0)
(-0.550780526 0 0)
(-0.54847979 0 0)
(-0.564641167 0 0)
(-0.587919312 0 0)
(-0.588589281 0 0)
(-0.581589262 0 0)
(-0.616718604 0 0)
(-0.64144038 0 0)
(-0.671957794 0 0)
(-0.692150945 0 0)
(-0.704672777 0 0)
(-0.710138191 0 0)
(-0.733493463 0 0)
(-0.75446576 0 0)
(-0.752512776 0 0)
(-0.765698931 0 0)
(-0.79254407 0 0)
(-0.81419809 0 0)
(-0.834505638 0 0)
(-0.845997077 0 0)
(-0.867679626 0 0)
(-0.887495516 0 0)
(-0.898060544 0 0)
(-0.891924409 0 0)
(-0.912007188 0 0)
(-0.938334372 0 0)
(-0.952044854 0 0)
(-0.959488361 0 0)
(-0.93661749 0 0)
(-0.950022193 0 0)
(-0.98361947 0 0)
(-0.983916226 0 0)
(-0.963757842 0 0)
(-0.972395767 0 0)
(-0.985385555 0 0)
(-0.982295074 0 0)
(-0.980981586 0 0)
(-0.947413991 0 0)
(-0.94665754 0 0)
(-0.961434045 0 0)
(-0.951379209 0 0)
(-0.945292601 0 0)
(-0.9089542 0 0)
(-0.902825749 0 0)
(-0.91109097 0 0)
(-0.89260151 0 0)
(-0.8776659 0 0)
(-0.835800241 0 0)
(-0.82383143 0 0)
(-0.839432063 0 0)
(-0.831290557 0 0)
(-0.801926309 0 0)
(-0.791108698 0 0)
(-0.785547132 0 0)
(-0.764205938 0 0)
(-0.746697894 0 0)
(-0.709317732 0 0)
(-0.691236789 0 0)
(-0.685562162 0 0)
(-0.661239614 0 0)
(-0.642522108 0 0)
(-0.608067989 0 0)
(-0.588996297 0 0)
(-0.578497558 0 0)
(-0.548939779 0 0)
(-0.524050364 0 0)
(-0.492576129 0 0)
(-0.47122555 0 0)
(-0.46039929 0 0)
(-0.440665237 0 0)
(-0.422762382 0 0)
(-0.400479996 0 0)
(-0.386174774 0 0)
(-0.374446796 0 0)
(-0.3571475 0 0)
(-0.340987889 0 0)
(-0.324094003 0 0)
(-0.295883623 0 0)
(-0.274534589 0 0)
(-0.26318896 0 0)
(-0.229644501 0 0)
(-0.206763174 0 0)
(-0.192895848 0 0)
(-0.180335756 0 0)
(-0.158385777 0 0)
(-0.143394134 0 0)
(-0.135522381 0 0)
(-0.120341082 0 0)
(-0.105930903 0 0)
(-0.0739473751 0 0)
(-0.050534673 0 0)
(-0.0492496098 0 0)
(-0.0461381278 0 0)
(-0.0126011279 0 0)
(0.0104711613 0 0)
(0.0234227834 0 0)
(0.0421318458 0 0)
(0.0643885335 0 0)
(0.0846216711 0 0)
(0.0953471209 0 0)
(0.10835329 0 0)
(0.123791878 0 0)
(0.147592838 0 0)
(0.168726048 0 0)
(0.174418133 0 0)
(0.191797666 0 0)
(0.213122048 0 0)
(0.229484376 0 0)
(0.238784525 0 0)
(0.246404408 0 0)
(0.26661415 0 0)
(0.278620587 0 0)
(0.314979021 0 0)
(0.333620681 0 0)
(0.349742814 0 0)
(0.35702467 0 0)
(0.377640461 0 0)
(0.401259046 0 0)
(0.425469512 0 0)
(0.444976192 0 0)
(0.448504628 0 0)
(0.463786157 0 0)
(0.480769552 0 0)
(0.502476679 0 0)
(0.518794736 0 0)
(0.52046955 0 0)
(0.537449359 0 0)
(0.54872304 0 0)
(0.575833208 0 0)
(0.590840487 0 0)
(0.58817334 0 0)
(0.60127077 0 0)
(0.613173327 0 0)
(0.618676042 0 0)
(0.615985868 0 0)
(0.620479318 0 0)
(0.626661442 0 0)
(0.62513043 0 0)
(0.630843831 0 0)
(0.633424298 0 0)
(0.646192813 0 0)
(0.643307025 0 0)
(0.661851879 0 0)
(0.673679085 0 0)
(0.652717494 0 0)
(0.659494227 0 0)
(0.664291241 0 0)
(0.66379666 0 0)
(0.660122031 0 0)
(0.664428693 0 0)
(0.674284495 0 0)
(0.675068936 0 0)
(0.68307353 0 0)
(0.692758483 0 0)
(0.698219175 0 0)
(0.708752457 0 0)
(0.707805359 0 0)
(0.713467951 0 0)
(0.720284622 0 0)
(0.727141452 0 0)
(0.727149287 0 0)
(0.73034331 0 0)
(0.719684193 0 0)
(0.693425594 0 0)
(0.699809835 0 0)
(0.695358657 0 0)
(0.696917309 0 0)
(0.708244373 0 0)
(0.708999384 0 0)
(0.722398798 0 0)
(0.725096708 0 0)
(0.747244274 0 0)
(0.758177885 0 0)
(0.718765384 0 0)
(0.681392053 0 0)
(0.693096461 0 0)
(0.70218819 0 0)
(0.683448388 0 0)
(0.690728514 0 0)
(0.676636395 0 0)
(0.672681497 0 0)
(0.660874438 0 0)
(0.6487447 0 0)
(0.642020569 0 0)
(0.632000511 0 0)
(0.636303335 0 0)
(0.639258927 0 0)
(0.625124472 0 0)
(0.623540244 0 0)
(0.631658943 0 0)
(0.617063061 0 0)
(0.586433766 0 0)
(0.582353699 0 0)
(0.58560329 0 0)
(0.573033264 0 0)
(0.547653273 0 0)
(0.529158864 0 0)
(0.525819337 0 0)
(0.500853336 0 0)
(0.475413957 0 0)
(0.452239443 0 0)
(0.435379456 0 0)
(0.428173901 0 0)
(0.403580908 0 0)
(0.368662924 0 0)
(0.348721874 0 0)
(0.334062989 0 0)
(0.301281744 0 0)
(0.270632465 0 0)
(0.246679913 0 0)
(0.227757346 0 0)
(0.215860906 0 0)
(0.192494928 0 0)
(0.162603393 0 0)
(0.146538472 0 0)
(0.131820347 0 0)
(0.10027816 0 0)
(0.0747957514 0 0)
(0.0589463499 0 0)
(0.038048416 0 0)
(0.0244157257 0 0)
(0.0062716848 0 0)
(-0.0162842361 0 0)
(-0.024773144 0 0)
(-0.0383912897 0 0)
(-0.0624012219 0 0)
(-0.0781498881 0 0)
(-0.0878449825 0 0)
(-0.101039269 0 0)
(-0.107886623 0 0)
(-0.112190071 0 0)
(-0.121466765 0 0)
(-0.123479008 0 0)
(-0.122397971 0 0)
(-0.129617703 0 0)
(-0.132148938 0 0)
(-0.127605835 0 0)
(-0.120728951 0 0)
(-0.122020831 0 0)
(-0.121262709 0 0)
(-0.114082469 0 0)
(-0.105153916 0 0)
(-0.103634051 0 0)
(-0.102785728 0 0)
(-0.0946644939 0 0)
(-0.092591977 0 0)
(-0.0867032695 0 0)
(-0.0801363226 0 0)
(-0.0803372994 0 0)
(-0.0772659613 0 0)
(-0.0734639641 0 0)
(-0.0766190602 0 0)
(-0.0777335094 0 0)
(-0.0745903645 0 0)
(-0.0740649936 0 0)
(-0.076448917 0 0)
(-0.0796039796 0 0)
(-0.0821506329 0 0)
(-0.0855700777 0 0)
(-0.0867470798 0 0)
(-0.0839095072 0 0)
(-0.100533787 0 0)
(-0.0541847646 0 0)
(-0.0191499447 0 0)
(-0.0435314902 0 0)
(-0.0398272038 0 0)
(-0.0419231129 0 0)
(-0.0445687293 0 0)
(-0.0457015171 0 0)
(-0.0481989799 0 0)
(-0.0517175277 0 0)
(-0.0547332686 0 0)
(-0.0576880917 0 0)
(-0.0601904849 0 0)
(-0.060753515 0 0)
(-0.0663696863 0 0)
(-0.0718443056 0 0)
(-0.074885421 0 0)
(-0.0858699019 0 0)
(-0.0937931558 0 0)
(-0.0952910155 0 0)
(-0.0988518458 0 0)
(-0.10307586 0 0)
(-0.112827047 0 0)
(-0.125646255 0 0)
(-0.12919432 0 0)
(-0.131340511 0 0)
(-0.141687848 0 0)
(-0.154388167 0 0)
(-0.158420603 0 0)
(-0.160347247 0 0)
(-0.17125975 0 0)
(-0.181120374 0 0)
(-0.184942861 0 0)
(-0.189093614 0 0)
(-0.193128565 0 0)
(-0.193083202 0 0)
(-0.199630981 0 0)
(-0.205195755 0 0)
(-0.206991223 0 0)
(-0.207204421 0 0)
(-0.208172698 0 0)
(-0.208519141 0 0)
(-0.208545137 0 0)
(-0.211385024 0 0)
(-0.215585755 0 0)
(-0.217407145 0 0)
(-0.213148876 0 0)
(-0.219766482 0 0)
(-0.22849344 0 0)
(-0.224548902 0 0)
(-0.222528741 0 0)
(-0.229582438 0 0)
(-0.234141443 0 0)
(-0.229726017 0 0)
(-0.222183692 0 0)
(-0.216637964 0 0)
(-0.212196396 0 0)
(-0.203644671 0 0)
(-0.195840807 0 0)
(-0.18739249 0 0)
(-0.179164165 0 0)
(-0.171888727 0 0)
(-0.163936949 0 0)
(-0.153574111 0 0)
(-0.139191099 0 0)
(-0.128642924 0 0)
(-0.120148551 0 0)
(-0.109615506 0 0)
(-0.0956616953 0 0)
(-0.0831077291 0 0)
(-0.0649532405 0 0)
(-0.0539440503 0 0)
(-0.0414447248 0 0)
(-0.029164857 0 0)
(-0.0178624104 0 0)
(-0.0049844838 0 0)
(0.0135405181 0 0)
(0.0340926274 0 0)
(0.0399205081 0 0)
(0.0411555975 0 0)
(0.0582381925 0 0)
(0.0824620673 0 0)
(0.0947614608 0 0)
(0.107532181 0 0)
(0.119251449 0 0)
(0.137826724 0 0)
(0.159234168 0 0)
(0.170818353 0 0)
(0.183534916 0 0)
(0.194878253 0 0)
(0.213799504 0 0)
(0.233814337 0 0)
(0.243761817 0 0)
(0.256485147 0 0)
(0.267297864 0 0)
(0.286211566 0 0)
(0.304609177 0 0)
(0.312654407 0 0)
(0.325288999 0 0)
(0.335311966 0 0)
(0.353459028 0 0)
(0.369739682 0 0)
(0.375926352 0 0)
(0.388582664 0 0)
)
;

boundaryField
{
    closed
    {
        type            noSlip;
    }
    open
    {
        type            inletOutlet;
        inletValue      nonuniform List<vector> 0();
        value           nonuniform List<vector> 0();
    }
    sides
    {
        type            empty;
    }
    procBoundary3to2
    {
        type            processor;
        value           uniform (-0.0666126381 0 0);
    }
    procBoundary3to4
    {
        type            processor;
        value           uniform (0.403626844 0 0);
    }
}


// ************************************************************************* //
