/*--------------------------------*- C++ -*----------------------------------*\
| =========                 |                                                 |
| \\      /  F ield         | OpenFOAM: The Open Source CFD Toolbox           |
|  \\    /   O peration     | Version:  2306                                  |
|   \\  /    A nd           | Website:  www.openfoam.com                      |
|    \\/     M anipulation  |                                                 |
\*---------------------------------------------------------------------------*/
FoamFile
{
    version     2.0;
    format      ascii;
    arch        "LSB;label=32;scalar=64";
    class       volScalarField;
    location    "0.00178";
    object      prefDh_H;
}
// * * * * * * * * * * * * * * * * * * * * * * * * * * * * * * * * * * * * * //

dimensions      [1 1 -3 0 0 0 0];

internalField   nonuniform List<scalar> 
531
(
23393.949
22984.9908
23089.783
22750.8581
22877.2035
23943.8913
23948.0978
23937.3863
23945.9976
23926.6157
23093.393
23047.286
23967.3943
23920.6986
23118.6949
22691.3226
22946.0887
23944.1711
23947.9067
23929.2036
23939.8973
23917.4759
23316.535
23097.5288
23034.8182
23100.5285
23947.4406
23918.9733
23043.5238
23081.3721
23948.6115
23917.971
22988.3024
23119.3072
23940.752
23938.5714
23933.2291
23139.4585
23109.8148
23959.196
23928.0446
23955.9959
23925.6501
23400.8534
23065.5911
23089.4875
22945.9994
22706.8415
22853.1916
23942.038
23951.984
23927.6834
23951.4611
23918.0467
23320.3439
23037.0947
23170.1072
23940.632
23946.9594
23328.9159
23321.3659
23960.7784
23946.3125
23402.9495
23220.8022
23134.1944
23226.1857
23946.7527
23952.6314
23930.0671
23399.4078
22989.426
23089.8651
22772.7977
22894.6945
23939.7773
23940.0627
23933.8055
23942.0371
23163.8543
23219.7598
23948.8614
23949.4366
23936.2743
23402.7922
22964.5514
23079.4525
23941.4353
23939.5578
23309.9081
22932.4467
23032.6338
23929.5498
23936.8725
23099.36
23065.8899
23951.4787
23922.6105
23948.1519
23923.1064
23291.6406
22757.6285
23140.5317
23920.6726
23346.7971
22880.6251
23951.9692
23909.7877
23263.4136
22786.8826
22883.551
23916.2293
23927.9562
23928.6131
23929.2062
23167.4421
22932.0454
23941.9599
23929.217
23213.2865
22818.589
22881.7003
23912.0027
23946.1523
23062.5622
23055.112
23925.3634
23948.1077
23933.2128
23952.6027
23937.8336
23382.9005
23118.5735
23048.7603
23047.5818
23945.7776
23925.8544
23364.8702
22835.2585
23163.5688
23909.7376
23390.9777
22896.764
23926.8113
23906.6978
23282.5901
22690.9513
22753.6409
23872.0657
23912.8941
23889.9147
23915.8755
23898.7687
23923.3785
23018.8191
22926.1376
23879.6524
23922.0848
23914.584
23361.0184
22918.1992
22898.4829
22901.6475
23890.2644
23922.7136
23156.2194
23037.9158
23903.9694
23923.3239
23331.8981
22818.6073
22890.5169
23896.2423
23942.2756
23924.3985
23949.8093
23946.7146
23389.8842
23232.3152
23078.7958
23079.7832
23918.5634
23938.5042
23309.513
22748.8163
22784.4087
23911.4863
23948.0885
23936.644
23955.2795
23403.5184
23175.481
23920.2563
23947.6552
23400.5462
23142.8788
22988.4781
22988.9205
23908.4464
23939.7776
23930.9953
23946.08
23408.0232
23245.5961
23129.6682
23131.8559
23906.7181
23950.5479
23408.3929
23128.0744
22984.1427
22988.4402
23898.3194
23950.3692
23177.5845
23058.9397
23905.0154
23952.9425
23158.1838
23121.7487
23911.0973
23954.7376
23947.101
23365.3134
23109.5243
23934.8369
23935.7327
23383.0352
22998.1807
23005.4801
23917.5246
23958.3132
23386.5511
23243.1549
23927.4588
23948.1672
23393.0114
23259.2569
23094.1986
23113.8542
23939.8961
23409.9254
22995.1019
23916.2694
23944.9698
23195.0418
23080.3597
23914.3563
23948.1771
23112.0444
23106.2029
23914.3243
23939.6701
23931.5375
23316.6911
23044.0425
23926.5878
23945.172
23149.2417
23148.7773
23925.6157
23943.7079
23931.5985
23400.6204
22981.3341
22840.8229
22850.6405
23922.5445
23925.6469
23925.7886
23196.8212
22988.2161
23943.4493
23933.8413
23941.5543
23938.6927
23394.489
23174.4477
23229.4308
23070.6691
23073.1229
22826.4491
22870.9066
23936.6992
23945.7257
23935.8138
23954.591
23940.5449
23392.9216
23207.2502
23984.7217
23936.6434
23379.5601
22952.2398
23067.0448
23944.7192
23951.5587
23931.7163
23391.4729
23149.3022
23119.8385
23019.446
22622.4287
22696.2362
23931.1864
23941.7272
23911.1889
23955.5532
23900.5879
23389.9547
22852.1247
22945.5166
23935.855
23953.9059
23134.1723
23146.4924
23961.82
23954.4884
23934.3742
23332.9006
23083.9058
23995.9566
23936.8584
23372.3692
22916.1537
23026.5106
23968.6504
23979.4836
23950.2679
23361.4032
22989.5301
23039.5864
24006.9836
23988.3516
23345.0861
22937.7525
22987.6042
24033.8178
24026.2158
23226.2201
23051.2147
24088.1159
24055.135
23279.9263
22869.7525
22913.8998
24136.7514
24128.3141
23088.9327
22877.5526
24226.9724
24198.4744
23106.9154
22592.9906
22683.045
24122.7068
24151.3423
24128.8347
24146.447
24150.0484
24135.2289
22833.7967
22659.9352
24033.9922
24073.3187
24008.3718
24055.8211
24015.5803
24048.4033
24024.7315
24051.8301
24039.7524
24067.3615
24068.9492
24102.2665
24121.7123
24169.4567
24220.6686
24305.359
24443.7362
24678.2819
24569.7753
24461.4305
24338.6408
24248.1029
24148.7021
24082.3168
24011.0599
23973.3116
23922.2647
23860.8556
23797.5712
23823.8208
23772.8187
23715.6441
23668.2721
23632.8937
23630.5917
23618.1115
23660.5052
23504.4789
23492.2874
23272.5145
23332.6648
23137.2791
25122.1455
24753.2144
24809.7412
24329.5911
24249.3661
23888.8146
23727.425
23433.6095
23226.796
22956.5198
22714.9321
22716.1715
23377.3238
23229.4471
22926.8154
22894.2308
23762.2752
26015.9715
26046.6984
27029.2969
26809.7438
33057.6831
33465.5425
34855.6141
35571.9552
37283.5773
38871.2775
41178.2648
43804.8424
47565.1344
50517.6751
53007.6478
54598.7625
57532.3216
59296.372
61295.8719
62484.5078
64189.638
65318.6252
66872.3045
68121.3264
69529.6714
70664.4966
71751.3124
72506.15
73403.7025
74101.4252
74908.8508
75553.8138
76290.7519
76883.9228
77544.1785
78061.2958
78662.4684
79116.9854
79673.4689
80076.289
80598.3537
80992.6111
81476.7821
81873.4444
82344.5398
82796.9291
83285.1508
83565.9785
83846.0324
84103.1755
84347.2411
84583.8006
84806.9329
85028.7943
85231.5147
85469.5055
85707.241
85968.8244
86205.9261
86460.9951
86660.0631
86878.7044
87057.5079
87254.9418
87416.585
87599.9894
87751.6095
87927.1735
88071.4904
88240.0635
88371.6696
88522.1595
88644.3645
88790.6683
88928.6126
89089.5035
89227.4981
89379.4568
89505.4205
89644.0531
89760.292
89887.9695
89987.9224
90097.9028
90193.084
90297.6455
90388.9962
90488.6543
90576.575
90673.8862
90761.155
90855.5144
90941.0323
91032.6102
91116.5422
91205.5959
91288.1074
91374.8953
91453.1785
91531.774
91607.6721
91682.7779
91755.7196
91827.5936
91897.7871
91966.6696
92034.3093
92100.4276
92165.6954
)
;

boundaryField
{
    closed
    {
        type            calculated;
        value           nonuniform List<scalar> 0();
    }
    open
    {
        type            calculated;
        value           nonuniform List<scalar> 0();
    }
    sides
    {
        type            empty;
    }
    procBoundary4to3
    {
        type            processor;
        value           uniform 23929.5569;
    }
    procBoundary4to5
    {
        type            processor;
        value           uniform 92229.2651;
    }
}


// ************************************************************************* //
