/*--------------------------------*- C++ -*----------------------------------*\
| =========                 |                                                 |
| \\      /  F ield         | OpenFOAM: The Open Source CFD Toolbox           |
|  \\    /   O peration     | Version:  2306                                  |
|   \\  /    A nd           | Website:  www.openfoam.com                      |
|    \\/     M anipulation  |                                                 |
\*---------------------------------------------------------------------------*/
FoamFile
{
    version     2.0;
    format      ascii;
    arch        "LSB;label=32;scalar=64";
    class       volScalarField;
    location    "0.00178";
    object      prefDh_H2O;
}
// * * * * * * * * * * * * * * * * * * * * * * * * * * * * * * * * * * * * * //

dimensions      [1 1 -3 0 0 0 0];

internalField   nonuniform List<scalar> 
531
(
88.2699955
87.7577243
87.8557034
87.4419704
87.5705243
92.4992506
92.4006621
92.4826414
92.3639125
92.4682308
87.8688061
87.8293891
92.3335073
92.5112266
87.895632
87.3771636
87.661894
92.4548155
92.3508785
92.4659519
92.2993831
92.4644531
88.1867377
87.9088807
87.8113756
87.8977113
92.412957
92.5169847
87.8179838
87.8811893
92.4280788
92.5368985
87.7436445
87.9175709
92.5097396
92.3333609
92.5421457
87.9406248
87.9070076
92.3996514
92.4018996
92.3134611
92.4514937
88.3905625
87.8660285
87.8737122
87.6900953
87.371868
87.5444616
92.5232793
92.3783904
92.5055627
92.298522
92.4958446
88.1657286
87.8338405
87.9584196
92.341102
92.3966323
88.1912927
88.1808027
92.2743362
92.3209634
88.3195603
88.0536554
87.9344585
88.04254
92.3999097
92.2318569
92.4545797
88.3237966
87.7743138
87.8602629
87.4794323
87.5973877
92.4942263
92.4407305
92.4362575
92.4465491
87.9828715
88.0436653
92.4301137
92.2325272
92.4636908
88.2913615
87.7353433
87.8546456
92.3653512
92.4146388
88.1726174
87.6977793
87.8021357
92.4228196
92.3993653
87.8964921
87.859887
92.43272
92.4293371
92.3637625
92.4671215
88.1393934
87.4876209
87.9332611
92.556743
88.2057259
87.64954
92.3163849
92.4895558
88.1011449
87.5314408
87.6093251
92.5109081
92.4559573
92.4225967
92.4530492
87.9795233
87.6923577
92.4071515
92.4318084
88.0310943
87.5594644
87.596069
92.4987247
92.3994194
87.8570013
87.8248226
92.570929
92.3064603
92.4698275
92.2519809
92.3588704
88.2500806
87.9400741
87.8078249
87.8387037
92.4534125
92.4445666
88.2163299
87.5888732
87.9568206
92.5950362
88.4648299
87.6700703
92.4610985
92.4869717
88.1323868
87.4276769
87.4582941
92.7156611
92.5265655
92.6044397
92.5290253
92.525328
92.4941499
87.8184843
87.682031
92.8191916
92.3605124
92.530592
88.2455238
87.6991139
87.6516943
87.6632869
92.7043808
92.4365476
87.974421
87.8320198
92.6436382
92.4549253
88.188832
87.5635318
87.6148081
92.6576512
92.3483416
92.4467032
92.2606655
92.2673717
89.2505946
88.0715645
87.86412
87.8671963
92.6221253
92.433104
88.1462969
87.4518224
87.4633979
92.6486187
92.4176453
92.4021357
92.3633218
88.3108687
87.9849416
92.5451911
92.3240023
88.3756801
87.9541804
87.7495939
87.7476202
92.681406
92.363614
92.3969435
92.3160511
89.7151632
88.0751139
87.9461883
87.921119
92.6096158
92.3299699
88.3596305
87.9279556
87.7549067
87.7346042
92.7115249
92.3637605
88.0072612
87.8228564
92.6952917
92.3341686
87.9730663
87.9066323
92.706406
92.266299
92.3750768
88.2231268
87.9096297
92.5301385
92.3859927
88.4566834
87.7789942
87.7427564
92.5167234
92.3093782
88.2703297
88.0718886
92.5150694
92.2792436
88.6352505
88.110737
87.8803267
87.9224738
92.5278279
88.369378
87.7547808
92.5981491
92.3688329
88.0274255
87.8598186
92.6524017
92.3457336
87.9207376
87.8969275
92.7185535
92.3043096
92.4919089
88.1765956
87.8249901
92.5862692
92.3519995
87.9667525
87.9530484
92.6552199
92.2576955
92.4505665
88.4594682
87.7633099
87.556974
87.5881856
92.688604
92.4008442
92.5468717
88.0200391
87.7585027
92.6054321
92.391125
92.4224163
92.3570443
89.4462844
87.9988996
88.0536693
87.8669199
87.8491886
87.5497111
87.5836654
92.5795858
92.3547399
92.4737325
92.2665246
92.3311342
88.2942373
88.0403747
92.305461
92.3669946
88.518557
87.7154645
87.8250057
92.4708806
92.2516099
92.3812398
88.8674589
87.9720907
87.9254582
87.7979812
87.2891907
87.3650751
92.6714859
92.4137132
92.6251952
92.292357
92.5217413
88.3133623
87.6102873
87.6590833
92.4690352
92.3588943
87.9484868
87.933973
92.4868978
92.2526711
92.4452256
88.1782726
87.8749533
92.2750737
92.41084
88.4304806
87.6511574
87.7459638
92.4204478
92.22642
92.3987008
88.5860207
87.7139522
87.7460145
92.2901653
92.3308474
88.429032
87.6047338
87.6424101
92.2620513
92.2569925
87.9462617
87.7030523
92.1398414
92.2231806
88.3157856
87.4028213
87.4354131
92.1089045
92.1278698
87.6213182
87.3117341
91.917997
92.067671
87.5547322
86.7953273
86.866026
91.7667935
91.589186
91.5619918
91.3350814
91.2481801
91.0694524
86.8272151
86.4563703
90.6916147
90.3884937
90.42161
90.0215644
90.0136958
89.6170441
89.5387837
89.1752057
89.0316602
88.6988294
88.5062445
88.2000057
87.9760566
87.697762
87.467016
87.2404102
87.0818081
87.0891069
86.7829501
86.4844717
86.0897013
85.7363442
85.2689943
84.8640795
84.3117495
83.8584419
83.2180244
82.7767177
82.2481949
82.1619079
81.8774045
81.425778
80.8445781
80.0951115
79.4786208
78.41665
77.9043323
76.3085116
76.0606995
73.9968518
74.3466477
71.826497
76.1556173
72.8355335
73.068634
70.0269986
69.4408249
67.0521594
65.9307154
63.9077557
62.4605676
60.5639899
58.8730376
57.519689
56.9004795
55.4421942
53.4199889
54.3862216
48.3534542
44.1929112
44.1034071
39.0798958
39.8315946
15.5413905
14.5720299
7.4792866
5.11558042
-3.10195462
-8.59808957
-19.0650731
-28.7126511
-45.4265652
-57.5063535
-69.7023977
-76.5451746
-90.1797834
-97.2606277
-106.011043
-110.232799
-117.242678
-121.151531
-127.315364
-131.506211
-136.85108
-140.536218
-144.57035
-146.971424
-150.211982
-152.362259
-155.129227
-157.029951
-159.373672
-160.992293
-162.884964
-164.240167
-165.938606
-167.185236
-168.774253
-169.916741
-171.409529
-172.526225
-173.91485
-175.018642
-176.352328
-177.551011
-178.891165
-179.679283
-180.517916
-181.227302
-181.95533
-182.613215
-183.282781
-183.907271
-184.523133
-185.184935
-185.868745
-186.578522
-187.246176
-187.908401
-188.449591
-189.024233
-189.51596
-190.046633
-190.491505
-190.985793
-191.39914
-191.872884
-192.262164
-192.716895
-193.074895
-193.493781
-193.827372
-194.233407
-194.592077
-195.015828
-195.357437
-195.752219
-196.063219
-196.426025
-196.711796
-197.04768
-197.298454
-197.597511
-197.833871
-198.116918
-198.341053
-198.609445
-198.822544
-199.082788
-199.292272
-199.543124
-199.746221
-199.987999
-200.185124
-200.418359
-200.609909
-200.835127
-201.012629
-201.211495
-201.378751
-201.567478
-201.727007
-201.906272
-202.058605
-202.229034
-202.374662
-202.53684
-202.676216
)
;

boundaryField
{
    closed
    {
        type            calculated;
        value           nonuniform List<scalar> 0();
    }
    open
    {
        type            calculated;
        value           nonuniform List<scalar> 0();
    }
    sides
    {
        type            empty;
    }
    procBoundary4to3
    {
        type            processor;
        value           uniform 92.4348809;
    }
    procBoundary4to5
    {
        type            processor;
        value           uniform -202.83069;
    }
}


// ************************************************************************* //
