/*--------------------------------*- C++ -*----------------------------------*\
| =========                 |                                                 |
| \\      /  F ield         | OpenFOAM: The Open Source CFD Toolbox           |
|  \\    /   O peration     | Version:  2306                                  |
|   \\  /    A nd           | Website:  www.openfoam.com                      |
|    \\/     M anipulation  |                                                 |
\*---------------------------------------------------------------------------*/
FoamFile
{
    version     2.0;
    format      ascii;
    arch        "LSB;label=32;scalar=64";
    class       volScalarField;
    location    "0.00054";
    object      alpha;
}
// * * * * * * * * * * * * * * * * * * * * * * * * * * * * * * * * * * * * * //

dimensions      [1 -1 -1 0 0 0 0];

internalField   nonuniform List<scalar> 
531
(
3.681528e-05
3.57532282e-05
3.53161755e-05
3.58728967e-05
3.67951349e-05
3.60111044e-05
3.53362064e-05
3.56873597e-05
3.67950657e-05
3.68055764e-05
3.55847276e-05
3.51481891e-05
3.58018579e-05
3.67680755e-05
3.6836139e-05
3.68312247e-05
3.59971925e-05
3.55774058e-05
3.50059854e-05
3.50546167e-05
3.67364052e-05
3.62312308e-05
3.54400267e-05
3.5710405e-05
3.67811781e-05
3.68111824e-05
3.57024153e-05
3.5381052e-05
3.57995241e-05
3.67833225e-05
3.68306369e-05
3.58062063e-05
3.53102624e-05
3.51767004e-05
3.57129232e-05
3.67834601e-05
3.67782152e-05
3.56751173e-05
3.52878493e-05
3.57885239e-05
3.67734514e-05
3.66570165e-05
3.55467629e-05
3.53287338e-05
3.61201932e-05
3.67461826e-05
3.67902526e-05
3.67493126e-05
3.57186905e-05
3.55194775e-05
3.53429293e-05
3.4975941e-05
3.54247553e-05
3.65799313e-05
3.68395525e-05
3.67846991e-05
3.61697712e-05
3.54524047e-05
3.51658877e-05
3.58716353e-05
3.6783338e-05
3.60078739e-05
3.5439306e-05
3.57017388e-05
3.67618453e-05
3.67277924e-05
3.57234952e-05
3.53224391e-05
3.55379015e-05
3.67314012e-05
3.68061099e-05
3.57398518e-05
3.57467548e-05
3.5784249e-05
3.59664177e-05
3.5903857e-05
3.57937338e-05
3.5800203e-05
3.58521805e-05
3.58568718e-05
3.58367806e-05
3.58293998e-05
3.58332277e-05
3.58363943e-05
3.58356822e-05
3.58341573e-05
3.58340238e-05
3.5834161e-05
3.58341585e-05
3.58340548e-05
3.58339907e-05
3.58339779e-05
3.58339563e-05
3.58339333e-05
3.58339207e-05
3.58339147e-05
3.58339077e-05
3.58339007e-05
3.58338969e-05
3.58338947e-05
3.58338927e-05
3.58338911e-05
3.58338899e-05
3.5833889e-05
3.58338885e-05
3.58338882e-05
3.58338878e-05
3.58338875e-05
3.58338874e-05
3.58338873e-05
3.58338873e-05
3.58338872e-05
3.58338869e-05
3.58338869e-05
3.58338875e-05
3.58338875e-05
3.58338862e-05
3.58338858e-05
3.58338879e-05
3.58338892e-05
3.58338865e-05
3.58338834e-05
3.5833886e-05
3.58338922e-05
3.58338908e-05
3.58338808e-05
3.58338802e-05
3.5833892e-05
3.58338958e-05
3.58338858e-05
3.58338776e-05
3.58338835e-05
3.58338953e-05
3.58338941e-05
3.58338812e-05
3.58338798e-05
3.58338884e-05
3.58338927e-05
3.58338887e-05
3.58338834e-05
3.58338843e-05
3.58338887e-05
3.58338891e-05
3.58338868e-05
3.58338859e-05
3.58338866e-05
3.58338875e-05
3.58338874e-05
3.58338869e-05
3.58338868e-05
3.5833887e-05
3.5833887e-05
3.5833887e-05
3.5833887e-05
3.5833887e-05
3.58338869e-05
3.58338869e-05
3.58338872e-05
3.58338872e-05
3.58338869e-05
3.58338867e-05
3.5833887e-05
3.58338873e-05
3.58338871e-05
3.58338866e-05
3.58338867e-05
3.58338873e-05
3.58338874e-05
3.58338869e-05
3.58338866e-05
3.58338869e-05
3.58338873e-05
3.58338872e-05
3.58338868e-05
3.58338868e-05
3.5833887e-05
3.58338871e-05
3.5833887e-05
3.5833887e-05
3.5833887e-05
3.5833887e-05
3.5833887e-05
3.5833887e-05
3.5833887e-05
3.5833887e-05
3.5833887e-05
3.5833887e-05
3.5833887e-05
3.5833887e-05
3.5833887e-05
3.5833887e-05
3.5833887e-05
3.5833887e-05
3.5833887e-05
3.5833887e-05
3.5833887e-05
3.5833887e-05
3.5833887e-05
3.5833887e-05
3.5833887e-05
3.5833887e-05
3.5833887e-05
3.5833887e-05
3.5833887e-05
3.5833887e-05
3.5833887e-05
3.5833887e-05
3.5833887e-05
3.5833887e-05
3.5833887e-05
3.5833887e-05
3.5833887e-05
3.5833887e-05
3.5833887e-05
3.5833887e-05
3.5833887e-05
3.5833887e-05
3.5833887e-05
3.5833887e-05
3.5833887e-05
3.5833887e-05
3.5833887e-05
3.5833887e-05
3.5833887e-05
3.5833887e-05
3.5833887e-05
3.5833887e-05
3.5833887e-05
3.5833887e-05
3.5833887e-05
3.5833887e-05
3.5833887e-05
3.5833887e-05
3.5833887e-05
3.5833887e-05
3.5833887e-05
3.5833887e-05
3.5833887e-05
3.5833887e-05
3.5833887e-05
3.5833887e-05
3.5833887e-05
3.5833887e-05
3.5833887e-05
3.5833887e-05
3.5833887e-05
3.5833887e-05
3.5833887e-05
3.5833887e-05
3.5833887e-05
3.5833887e-05
3.5833887e-05
3.5833887e-05
3.5833887e-05
3.5833887e-05
3.5833887e-05
3.5833887e-05
3.5833887e-05
3.5833887e-05
3.5833887e-05
3.5833887e-05
3.5833887e-05
3.5833887e-05
3.58338869e-05
3.5833887e-05
3.58338871e-05
3.58338871e-05
3.58338869e-05
3.58338869e-05
3.5833887e-05
3.58338871e-05
3.5833887e-05
3.58338869e-05
3.58338869e-05
3.58338871e-05
3.58338871e-05
3.5833887e-05
3.5833887e-05
3.5833887e-05
3.5833887e-05
3.5833887e-05
3.5833887e-05
3.5833887e-05
3.5833887e-05
3.5833887e-05
3.5833887e-05
3.5833887e-05
3.5833887e-05
3.5833887e-05
3.5833887e-05
3.5833887e-05
3.5833887e-05
3.5833887e-05
3.5833887e-05
3.5833887e-05
3.5833887e-05
3.5833887e-05
3.5833887e-05
3.58338871e-05
3.5833887e-05
3.58338869e-05
3.5833887e-05
3.5833887e-05
3.5833887e-05
3.5833887e-05
3.5833887e-05
3.5833887e-05
3.5833887e-05
3.5833887e-05
3.5833887e-05
3.5833887e-05
3.5833887e-05
3.5833887e-05
3.5833887e-05
3.5833887e-05
3.5833887e-05
3.5833887e-05
3.5833887e-05
3.5833887e-05
3.5833887e-05
3.5833887e-05
3.5833887e-05
3.5833887e-05
3.5833887e-05
3.5833887e-05
3.5833887e-05
3.5833887e-05
3.5833887e-05
3.5833887e-05
3.5833887e-05
3.5833887e-05
3.5833887e-05
3.5833887e-05
3.5833887e-05
3.5833887e-05
3.5833887e-05
3.5833887e-05
3.5833887e-05
3.5833887e-05
3.5833887e-05
3.5833887e-05
3.5833887e-05
3.5833887e-05
3.5833887e-05
3.5833887e-05
3.5833887e-05
3.5833887e-05
3.5833887e-05
3.5833887e-05
3.5833887e-05
3.5833887e-05
3.5833887e-05
3.5833887e-05
3.5833887e-05
3.5833887e-05
3.5833887e-05
3.5833887e-05
3.5833887e-05
3.58338869e-05
3.5833887e-05
3.58338871e-05
3.5833887e-05
3.58338869e-05
3.58338869e-05
3.58338871e-05
3.58338871e-05
3.5833887e-05
3.58338869e-05
3.5833887e-05
3.5833887e-05
3.5833887e-05
3.5833887e-05
3.5833887e-05
3.5833887e-05
3.5833887e-05
3.5833887e-05
3.5833887e-05
3.5833887e-05
3.58338871e-05
3.58338871e-05
3.58338868e-05
3.58338868e-05
3.58338873e-05
3.58338875e-05
3.58338864e-05
3.58338856e-05
3.58338878e-05
3.58338904e-05
3.58338867e-05
3.58338794e-05
3.58338843e-05
3.58339025e-05
3.5833899e-05
3.58338585e-05
3.58338575e-05
3.58339287e-05
3.58339448e-05
3.58338417e-05
3.5833785e-05
3.58339134e-05
3.58340483e-05
3.58339197e-05
3.58336596e-05
3.58337394e-05
3.58341709e-05
3.58341723e-05
3.58336164e-05
3.58334974e-05
3.58340276e-05
3.58343491e-05
3.58339446e-05
3.58334108e-05
3.5833612e-05
3.58343104e-05
3.58342987e-05
3.58336181e-05
3.58334798e-05
3.5833934e-05
3.58342222e-05
3.58340033e-05
3.58336623e-05
3.58336924e-05
3.58339843e-05
3.58340388e-05
3.58339889e-05
3.58338792e-05
3.58336464e-05
3.58335757e-05
3.5834209e-05
3.5834975e-05
3.58339427e-05
3.58311383e-05
3.58320738e-05
3.58416298e-05
3.58417161e-05
3.5819946e-05
3.58147583e-05
3.58597977e-05
3.58907504e-05
3.5813873e-05
3.57576568e-05
3.58294558e-05
3.60780964e-05
3.59236972e-05
3.57037225e-05
3.57418264e-05
3.67536937e-05
3.66244178e-05
3.52948131e-05
3.54540094e-05
3.68678441e-05
3.67892822e-05
3.57197345e-05
3.52311666e-05
3.57736986e-05
3.67952183e-05
3.67570121e-05
3.51759858e-05
3.52760451e-05
3.68302244e-05
3.67648027e-05
3.53616789e-05
3.53363297e-05
3.68311625e-05
3.67667799e-05
3.53897231e-05
3.54505425e-05
3.68656354e-05
3.68037132e-05
3.58923459e-05
3.53309926e-05
3.53611965e-05
3.60593189e-05
3.68275379e-05
3.67932788e-05
3.58439317e-05
3.55499844e-05
3.54882318e-05
3.5079442e-05
3.52857616e-05
3.68286722e-05
3.67763303e-05
3.60982149e-05
3.5345884e-05
3.54924677e-05
3.68458958e-05
3.6785262e-05
3.60043539e-05
3.52715022e-05
3.54066426e-05
3.68600087e-05
3.67863529e-05
3.5834532e-05
3.50162989e-05
3.5159504e-05
3.68676267e-05
3.67999521e-05
3.58554389e-05
3.51329813e-05
3.52266772e-05
3.68627312e-05
3.6815387e-05
3.58346849e-05
3.53109095e-05
3.56277018e-05
3.6850898e-05
3.68292419e-05
3.58797344e-05
3.52136414e-05
3.52238662e-05
3.62432298e-05
3.68164716e-05
3.68097688e-05
3.58928003e-05
3.55610586e-05
3.50618608e-05
3.50679615e-05
3.68016486e-05
3.68415557e-05
3.5567588e-05
3.53632099e-05
3.68123256e-05
3.68158914e-05
3.58205787e-05
3.53250193e-05
3.57122017e-05
3.68009204e-05
3.68696627e-05
3.55581697e-05
3.5309076e-05
3.67877967e-05
)
;

boundaryField
{
    closed
    {
        type            calculated;
        value           nonuniform List<scalar> 0();
    }
    open
    {
        type            calculated;
        value           nonuniform List<scalar> 0();
    }
    sides
    {
        type            empty;
    }
    procBoundary3to2
    {
        type            processor;
        value           uniform 3.60001559e-05;
    }
    procBoundary3to4
    {
        type            processor;
        value           uniform 3.68074735e-05;
    }
}


// ************************************************************************* //
