/*--------------------------------*- C++ -*----------------------------------*\
| =========                 |                                                 |
| \\      /  F ield         | OpenFOAM: The Open Source CFD Toolbox           |
|  \\    /   O peration     | Version:  2306                                  |
|   \\  /    A nd           | Website:  www.openfoam.com                      |
|    \\/     M anipulation  |                                                 |
\*---------------------------------------------------------------------------*/
FoamFile
{
    version     2.0;
    format      ascii;
    arch        "LSB;label=32;scalar=64";
    class       surfaceScalarField;
    location    "0.00022";
    object      phi;
}
// * * * * * * * * * * * * * * * * * * * * * * * * * * * * * * * * * * * * * //

dimensions      [1 0 -1 0 0 0 0];

oriented        oriented;

internalField   nonuniform List<scalar> 
530
(
-4.69551786e-06
-4.65803361e-06
-4.6194721e-06
-4.57966624e-06
-4.54017983e-06
-4.5011824e-06
-4.46200318e-06
-4.42256487e-06
-4.38316956e-06
-4.34390863e-06
-4.30471407e-06
-4.26558006e-06
-4.22656204e-06
-4.18770178e-06
-4.14901829e-06
-4.11053146e-06
-4.07226932e-06
-4.03426064e-06
-3.99653042e-06
-3.95910254e-06
-3.92200296e-06
-3.88525796e-06
-3.84889376e-06
-3.81293389e-06
-3.77740304e-06
-3.74232775e-06
-3.70773371e-06
-3.6736452e-06
-3.64008696e-06
-3.6070847e-06
-3.57466412e-06
-3.54285044e-06
-3.51166902e-06
-3.48114552e-06
-3.45130635e-06
-3.42217792e-06
-3.39378659e-06
-3.3661592e-06
-3.33932321e-06
-3.31330638e-06
-3.28813671e-06
-3.26384249e-06
-3.2404524e-06
-3.21799559e-06
-3.19650142e-06
-3.17599937e-06
-3.15651921e-06
-3.13809106e-06
-3.12074526e-06
-3.10451222e-06
-3.0894225e-06
-3.07550692e-06
-3.06279639e-06
-3.05132162e-06
-3.04111306e-06
-3.03220104e-06
-3.02461551e-06
-3.01838585e-06
-3.01354035e-06
-3.01010652e-06
-3.00811107e-06
-3.00757944e-06
-3.00853542e-06
-3.01100131e-06
-3.01499792e-06
-3.0205443e-06
-3.02765728e-06
-3.03635138e-06
-3.04663875e-06
-3.05852969e-06
-3.07203184e-06
-3.087149e-06
-3.10388182e-06
-3.12222916e-06
-3.14218721e-06
-3.1637471e-06
-3.18689562e-06
-3.21161573e-06
-3.23789092e-06
-3.26569979e-06
-3.29501209e-06
-3.32579456e-06
-3.35801518e-06
-3.39163787e-06
-3.42661787e-06
-3.46290594e-06
-3.50045313e-06
-3.53920762e-06
-3.5791136e-06
-3.62010685e-06
-3.66212254e-06
-3.70509653e-06
-3.74895998e-06
-3.79363892e-06
-3.83905817e-06
-3.88514211e-06
-3.93181284e-06
-3.97899003e-06
-4.02659243e-06
-4.07453843e-06
-4.12274593e-06
-4.17113243e-06
-4.21961564e-06
-4.26811395e-06
-4.3165467e-06
-4.36483451e-06
-4.41289958e-06
-4.46066615e-06
-4.50806079e-06
-4.55501275e-06
-4.60145429e-06
-4.64732095e-06
-4.69255178e-06
-4.73708967e-06
-4.78088175e-06
-4.82387947e-06
-4.86603863e-06
-4.90731969e-06
-4.94768796e-06
-4.98711408e-06
-5.0255736e-06
-5.06304667e-06
-5.09951879e-06
-5.13498104e-06
-5.16942948e-06
-5.20286478e-06
-5.23529266e-06
-5.26672393e-06
-5.29717407e-06
-5.32666303e-06
-5.35521479e-06
-5.38285762e-06
-5.4096237e-06
-5.43554872e-06
-5.46067155e-06
-5.48503407e-06
-5.50868085e-06
-5.53165871e-06
-5.55401643e-06
-5.57580439e-06
-5.59707422e-06
-5.61787834e-06
-5.63826962e-06
-5.65830111e-06
-5.67802559e-06
-5.69749518e-06
-5.71676075e-06
-5.73587182e-06
-5.75487657e-06
-5.7738211e-06
-5.79274847e-06
-5.811699e-06
-5.83071084e-06
-5.84981869e-06
-5.86905385e-06
-5.8884425e-06
-5.90800755e-06
-5.92776917e-06
-5.94774265e-06
-5.96793742e-06
-5.98835896e-06
-6.00900938e-06
-6.02988569e-06
-6.05098018e-06
-6.07227954e-06
-6.09376669e-06
-6.11542086e-06
-6.13721627e-06
-6.15912229e-06
-6.18110455e-06
-6.20312522e-06
-6.22514248e-06
-6.24711108e-06
-6.26898205e-06
-6.29070361e-06
-6.31222171e-06
-6.33347963e-06
-6.3544186e-06
-6.37497744e-06
-6.39509376e-06
-6.41470466e-06
-6.43374615e-06
-6.4521531e-06
-6.46986031e-06
-6.48680345e-06
-6.50291839e-06
-6.51814196e-06
-6.5324112e-06
-6.54566509e-06
-6.557845e-06
-6.56889381e-06
-6.57875606e-06
-6.58737905e-06
-6.59471323e-06
-6.60071171e-06
-6.60533035e-06
-6.60852834e-06
-6.61026844e-06
-6.61051685e-06
-6.60924317e-06
-6.60642061e-06
-6.60202634e-06
-6.59604119e-06
-6.58844979e-06
-6.57924003e-06
-6.56840375e-06
-6.555937e-06
-6.54183925e-06
-6.52611276e-06
-6.50876337e-06
-6.4898011e-06
-6.46923879e-06
-6.44709255e-06
-6.42338033e-06
-6.39812354e-06
-6.37134709e-06
-6.34307791e-06
-6.31334445e-06
-6.28217771e-06
-6.24961127e-06
-6.21568027e-06
-6.18042154e-06
-6.14387296e-06
-6.10607417e-06
-6.06706622e-06
-6.02689098e-06
-5.9855912e-06
-5.94321054e-06
-5.89979332e-06
-5.85538429e-06
-5.81002864e-06
-5.76377213e-06
-5.71666067e-06
-5.66874006e-06
-5.62005626e-06
-5.57065549e-06
-5.52058383e-06
-5.46988703e-06
-5.41861077e-06
-5.3668006e-06
-5.31450183e-06
-5.26175951e-06
-5.20861829e-06
-5.15512258e-06
-5.10131652e-06
-5.04724389e-06
-4.99294808e-06
-4.93847216e-06
-4.88385889e-06
-4.82915066e-06
-4.77438944e-06
-4.71961682e-06
-4.66487413e-06
-4.61020237e-06
-4.55564198e-06
-4.50123295e-06
-4.44701481e-06
-4.39302716e-06
-4.33930905e-06
-4.28589837e-06
-4.23283253e-06
-4.18014921e-06
-4.12788567e-06
-4.07607767e-06
-4.02476032e-06
-3.97396783e-06
-3.92373516e-06
-3.87409593e-06
-3.82508171e-06
-3.77672353e-06
-3.72905243e-06
-3.68209829e-06
-3.63588924e-06
-3.59045226e-06
-3.54581357e-06
-3.50199822e-06
-3.45902993e-06
-3.41693066e-06
-3.37572117e-06
-3.33542102e-06
-3.29604815e-06
-3.25761883e-06
-3.22014784e-06
-3.18364841e-06
-3.14813211e-06
-3.11360885e-06
-3.08008686e-06
-3.04757268e-06
-3.01607119e-06
-2.98558554e-06
-2.95611722e-06
-2.92766599e-06
-2.90022999e-06
-2.87380568e-06
-2.84838789e-06
-2.82396987e-06
-2.8005433e-06
-2.77809831e-06
-2.75662359e-06
-2.73610637e-06
-2.71653247e-06
-2.69788639e-06
-2.68015136e-06
-2.66330942e-06
-2.64734141e-06
-2.63222702e-06
-2.61794489e-06
-2.60447286e-06
-2.59178786e-06
-2.57986577e-06
-2.56868165e-06
-2.5582101e-06
-2.54842521e-06
-2.53930028e-06
-2.53080796e-06
-2.52292047e-06
-2.51561014e-06
-2.50884892e-06
-2.50260816e-06
-2.49685909e-06
-2.49157322e-06
-2.48672207e-06
-2.48227707e-06
-2.47820975e-06
-2.47449203e-06
-2.47109621e-06
-2.467995e-06
-2.46516152e-06
-2.46256956e-06
-2.46019363e-06
-2.45800904e-06
-2.45599196e-06
-2.4541196e-06
-2.45237025e-06
-2.45072345e-06
-2.44916003e-06
-2.44766227e-06
-2.44621401e-06
-2.44480075e-06
-2.44340975e-06
-2.44203019e-06
-2.44065322e-06
-2.43927212e-06
-2.43788238e-06
-2.43648183e-06
-2.43507072e-06
-2.43365178e-06
-2.43223032e-06
-2.4308144e-06
-2.42941481e-06
-2.42804511e-06
-2.42672163e-06
-2.42546368e-06
-2.42429349e-06
-2.42323623e-06
-2.42231979e-06
-2.42157496e-06
-2.42103555e-06
-2.42073807e-06
-2.42072163e-06
-2.42102791e-06
-2.42170118e-06
-2.42278811e-06
-2.42433747e-06
-2.42639999e-06
-2.42902831e-06
-2.43227678e-06
-2.4362011e-06
-2.44085807e-06
-2.44630545e-06
-2.45260168e-06
-2.45980553e-06
-2.46797579e-06
-2.47717106e-06
-2.48744947e-06
-2.49886818e-06
-2.51148306e-06
-2.52534857e-06
-2.54051743e-06
-2.55704017e-06
-2.5749646e-06
-2.59433574e-06
-2.61519574e-06
-2.63758329e-06
-2.66153326e-06
-2.68707651e-06
-2.71423971e-06
-2.7430452e-06
-2.77351064e-06
-2.80564876e-06
-2.83946723e-06
-2.87496851e-06
-2.91214994e-06
-2.95100356e-06
-2.99151598e-06
-3.03366805e-06
-3.0774352e-06
-3.12278798e-06
-3.16969154e-06
-3.21810528e-06
-3.26798347e-06
-3.31927586e-06
-3.37192759e-06
-3.42587879e-06
-3.48106512e-06
-3.53741811e-06
-3.59486617e-06
-3.65333386e-06
-3.71274205e-06
-3.77300887e-06
-3.83405026e-06
-3.89577982e-06
-3.958109e-06
-4.02094775e-06
-4.08420501e-06
-4.14778887e-06
-4.21160683e-06
-4.27556625e-06
-4.3395747e-06
-4.40354027e-06
-4.46737183e-06
-4.53097933e-06
-4.59427409e-06
-4.65716905e-06
-4.71957897e-06
-4.78142064e-06
-4.84261303e-06
-4.90307747e-06
-4.96273771e-06
-5.02152003e-06
-5.07935324e-06
-5.13616879e-06
-5.19190068e-06
-5.24648546e-06
-5.29986222e-06
-5.35197251e-06
-5.40276029e-06
-5.45217186e-06
-5.50015579e-06
-5.54666287e-06
-5.59164601e-06
-5.63506019e-06
-5.67686238e-06
-5.71701145e-06
-5.7554681e-06
-5.79219476e-06
-5.82715551e-06
-5.86031597e-06
-5.89164322e-06
-5.92110574e-06
-5.94867328e-06
-5.97431679e-06
-5.9980084e-06
-6.01972141e-06
-6.03943023e-06
-6.05711028e-06
-6.07273805e-06
-6.08629132e-06
-6.09774899e-06
-6.10709122e-06
-6.11429921e-06
-6.11935568e-06
-6.12224509e-06
-6.12295333e-06
-6.12146768e-06
-6.11777737e-06
-6.11187389e-06
-6.10375076e-06
-6.09340323e-06
-6.08082893e-06
-6.06602845e-06
-6.04900482e-06
-6.02976379e-06
-6.00831318e-06
-5.98466418e-06
-5.95883187e-06
-5.93083405e-06
-5.90069083e-06
-5.86842605e-06
-5.83406797e-06
-5.79764813e-06
-5.7592007e-06
-5.71876382e-06
-5.67637921e-06
-5.6320932e-06
-5.58595507e-06
-5.53801711e-06
-5.48833569e-06
-5.43697096e-06
-5.38398624e-06
-5.32944788e-06
-5.27342533e-06
-5.21599123e-06
-5.15722074e-06
-5.09719014e-06
-5.0359769e-06
-4.97365857e-06
-4.91031964e-06
-4.84605159e-06
-4.78093777e-06
-4.71505517e-06
-4.64847534e-06
-4.58135449e-06
-4.51387917e-06
-4.44602267e-06
-4.37764191e-06
-4.30897805e-06
-4.24050275e-06
-4.17277259e-06
-4.10468505e-06
-4.03501353e-06
-3.96593538e-06
-3.90018058e-06
-3.83543762e-06
-3.76711001e-06
-3.6968946e-06
-3.629444e-06
-3.57142199e-06
-3.51168433e-06
-3.44202205e-06
-3.37214413e-06
-3.31600824e-06
-3.26300207e-06
-3.20656414e-06
-3.137679e-06
-3.07637941e-06
-3.02902645e-06
-2.98010292e-06
-2.92418426e-06
-2.8697595e-06
)
;

boundaryField
{
    closed
    {
        type            calculated;
        value           nonuniform List<scalar> 0();
    }
    open
    {
        type            calculated;
        value           nonuniform List<scalar> 0();
    }
    sides
    {
        type            empty;
        value           nonuniform List<scalar> 0();
    }
    procBoundary1to0
    {
        type            processor;
        value           uniform 4.73459765e-06;
    }
    procBoundary1to2
    {
        type            processor;
        value           uniform -2.82276496e-06;
    }
}


// ************************************************************************* //
