/*--------------------------------*- C++ -*----------------------------------*\
| =========                 |                                                 |
| \\      /  F ield         | OpenFOAM: The Open Source CFD Toolbox           |
|  \\    /   O peration     | Version:  2306                                  |
|   \\  /    A nd           | Website:  www.openfoam.com                      |
|    \\/     M anipulation  |                                                 |
\*---------------------------------------------------------------------------*/
FoamFile
{
    version     2.0;
    format      ascii;
    arch        "LSB;label=32;scalar=64";
    class       volScalarField;
    location    "0.00022";
    object      prefDPV_H2O;
}
// * * * * * * * * * * * * * * * * * * * * * * * * * * * * * * * * * * * * * //

dimensions      [1 -1 -1 0 0 0 0];

internalField   nonuniform List<scalar> 
531
(
-3.73187272e-07
-3.72998316e-07
-3.72993395e-07
-3.7308783e-07
-3.73104907e-07
-3.73063927e-07
-3.73049093e-07
-3.73064772e-07
-3.7307386e-07
-3.73068568e-07
-3.73064032e-07
-3.73065605e-07
-3.7306755e-07
-3.73067127e-07
-3.73066382e-07
-3.73066501e-07
-3.7306679e-07
-3.73066744e-07
-3.73066584e-07
-3.73066603e-07
-3.73066743e-07
-3.7306674e-07
-3.73066618e-07
-3.73066602e-07
-3.73066694e-07
-3.73066726e-07
-3.73066667e-07
-3.73066627e-07
-3.7306666e-07
-3.73066699e-07
-3.73066684e-07
-3.7306665e-07
-3.73066653e-07
-3.73066683e-07
-3.73066683e-07
-3.73066664e-07
-3.73066658e-07
-3.73066669e-07
-3.73066678e-07
-3.73066674e-07
-3.73066663e-07
-3.73066664e-07
-3.73066673e-07
-3.73066674e-07
-3.73066668e-07
-3.73066666e-07
-3.7306667e-07
-3.73066673e-07
-3.73066669e-07
-3.73066665e-07
-3.7306667e-07
-3.73066676e-07
-3.73066671e-07
-3.73066661e-07
-3.73066664e-07
-3.73066679e-07
-3.73066678e-07
-3.73066661e-07
-3.7306666e-07
-3.73066674e-07
-3.73066678e-07
-3.73066668e-07
-3.73066661e-07
-3.73066669e-07
-3.73066679e-07
-3.73066672e-07
-3.73066656e-07
-3.73066659e-07
-3.7306669e-07
-3.73066693e-07
-3.73066647e-07
-3.73066623e-07
-3.73066679e-07
-3.73066746e-07
-3.73066698e-07
-3.73066561e-07
-3.73066578e-07
-3.73066794e-07
-3.73066814e-07
-3.73066576e-07
-3.73066482e-07
-3.730667e-07
-3.73066876e-07
-3.73066717e-07
-3.7306647e-07
-3.73066555e-07
-3.73066837e-07
-3.73066817e-07
-3.73066549e-07
-3.73066538e-07
-3.73066729e-07
-3.73066769e-07
-3.73066652e-07
-3.73066602e-07
-3.73066665e-07
-3.73066711e-07
-3.7306668e-07
-3.73066647e-07
-3.73066659e-07
-3.7306668e-07
-3.73066677e-07
-3.73066664e-07
-3.73066665e-07
-3.73066672e-07
-3.73066672e-07
-3.73066669e-07
-3.73066668e-07
-3.73066669e-07
-3.7306667e-07
-3.73066671e-07
-3.73066671e-07
-3.73066667e-07
-3.73066666e-07
-3.73066671e-07
-3.73066676e-07
-3.73066672e-07
-3.7306666e-07
-3.73066661e-07
-3.7306668e-07
-3.73066682e-07
-3.73066663e-07
-3.73066654e-07
-3.73066669e-07
-3.73066685e-07
-3.73066677e-07
-3.73066656e-07
-3.73066659e-07
-3.73066678e-07
-3.73066678e-07
-3.73066666e-07
-3.73066664e-07
-3.7306667e-07
-3.73066672e-07
-3.7306667e-07
-3.73066668e-07
-3.73066669e-07
-3.73066669e-07
-3.73066669e-07
-3.7306667e-07
-3.7306667e-07
-3.73066669e-07
-3.73066667e-07
-3.73066669e-07
-3.73066673e-07
-3.73066673e-07
-3.73066663e-07
-3.73066661e-07
-3.73066675e-07
-3.73066685e-07
-3.7306667e-07
-3.73066646e-07
-3.73066655e-07
-3.73066699e-07
-3.73066698e-07
-3.73066644e-07
-3.7306663e-07
-3.73066682e-07
-3.73066713e-07
-3.73066675e-07
-3.73066627e-07
-3.73066649e-07
-3.73066704e-07
-3.73066698e-07
-3.73066643e-07
-3.73066643e-07
-3.73066683e-07
-3.73066691e-07
-3.73066667e-07
-3.73066652e-07
-3.73066664e-07
-3.73066683e-07
-3.73066681e-07
-3.73066663e-07
-3.73066656e-07
-3.73066666e-07
-3.73066684e-07
-3.73066682e-07
-3.73066659e-07
-3.73066652e-07
-3.73066672e-07
-3.73066689e-07
-3.73066676e-07
-3.73066649e-07
-3.73066654e-07
-3.73066688e-07
-3.73066688e-07
-3.73066657e-07
-3.73066649e-07
-3.73066675e-07
-3.73066688e-07
-3.73066671e-07
-3.73066654e-07
-3.73066664e-07
-3.73066681e-07
-3.73066676e-07
-3.73066663e-07
-3.73066665e-07
-3.73066674e-07
-3.73066672e-07
-3.73066664e-07
-3.73066666e-07
-3.73066677e-07
-3.73066677e-07
-3.73066659e-07
-3.73066656e-07
-3.73066676e-07
-3.73066688e-07
-3.73066672e-07
-3.73066646e-07
-3.73066654e-07
-3.73066694e-07
-3.73066693e-07
-3.73066653e-07
-3.73066642e-07
-3.73066674e-07
-3.73066695e-07
-3.73066675e-07
-3.73066648e-07
-3.73066657e-07
-3.73066685e-07
-3.73066683e-07
-3.73066661e-07
-3.7306666e-07
-3.73066671e-07
-3.73066674e-07
-3.7306667e-07
-3.7306667e-07
-3.73066671e-07
-3.73066666e-07
-3.73066665e-07
-3.73066673e-07
-3.73066677e-07
-3.73066669e-07
-3.73066661e-07
-3.73066667e-07
-3.73066677e-07
-3.73066674e-07
-3.73066664e-07
-3.73066665e-07
-3.73066672e-07
-3.73066673e-07
-3.73066668e-07
-3.73066667e-07
-3.7306667e-07
-3.73066671e-07
-3.73066669e-07
-3.73066669e-07
-3.7306667e-07
-3.73066671e-07
-3.73066668e-07
-3.73066667e-07
-3.7306667e-07
-3.73066675e-07
-3.73066672e-07
-3.73066659e-07
-3.7306666e-07
-3.73066682e-07
-3.73066688e-07
-3.73066662e-07
-3.7306664e-07
-3.73066663e-07
-3.73066706e-07
-3.73066696e-07
-3.7306663e-07
-3.7306663e-07
-3.73066697e-07
-3.73066713e-07
-3.7306666e-07
-3.73066628e-07
-3.73066663e-07
-3.73066702e-07
-3.73066685e-07
-3.73066646e-07
-3.73066652e-07
-3.73066684e-07
-3.73066683e-07
-3.73066662e-07
-3.7306666e-07
-3.73066672e-07
-3.73066675e-07
-3.73066669e-07
-3.73066666e-07
-3.73066669e-07
-3.73066671e-07
-3.7306667e-07
-3.73066669e-07
-3.73066669e-07
-3.7306667e-07
-3.7306667e-07
-3.73066669e-07
-3.73066669e-07
-3.73066669e-07
-3.73066669e-07
-3.73066669e-07
-3.73066669e-07
-3.73066669e-07
-3.73066669e-07
-3.7306667e-07
-3.7306667e-07
-3.73066669e-07
-3.73066669e-07
-3.7306667e-07
-3.73066671e-07
-3.7306667e-07
-3.73066666e-07
-3.73066666e-07
-3.73066675e-07
-3.73066676e-07
-3.73066665e-07
-3.73066659e-07
-3.73066669e-07
-3.73066683e-07
-3.73066678e-07
-3.73066654e-07
-3.73066655e-07
-3.7306668e-07
-3.73066686e-07
-3.73066666e-07
-3.73066654e-07
-3.73066667e-07
-3.73066681e-07
-3.73066675e-07
-3.73066662e-07
-3.73066664e-07
-3.73066673e-07
-3.73066673e-07
-3.73066668e-07
-3.73066668e-07
-3.7306667e-07
-3.7306667e-07
-3.73066669e-07
-3.73066669e-07
-3.7306667e-07
-3.73066669e-07
-3.73066669e-07
-3.73066669e-07
-3.7306667e-07
-3.73066669e-07
-3.73066669e-07
-3.7306667e-07
-3.73066669e-07
-3.73066669e-07
-3.73066669e-07
-3.7306667e-07
-3.7306667e-07
-3.73066668e-07
-3.73066668e-07
-3.73066671e-07
-3.73066672e-07
-3.73066669e-07
-3.73066665e-07
-3.73066667e-07
-3.73066674e-07
-3.73066674e-07
-3.73066665e-07
-3.73066664e-07
-3.73066672e-07
-3.73066675e-07
-3.73066669e-07
-3.73066664e-07
-3.73066669e-07
-3.73066675e-07
-3.73066672e-07
-3.73066664e-07
-3.73066666e-07
-3.73066673e-07
-3.73066673e-07
-3.73066667e-07
-3.73066668e-07
-3.7306667e-07
-3.7306667e-07
-3.73066668e-07
-3.7306667e-07
-3.73066674e-07
-3.7306667e-07
-3.73066662e-07
-3.73066665e-07
-3.73066678e-07
-3.73066677e-07
-3.73066663e-07
-3.7306666e-07
-3.73066671e-07
-3.73066678e-07
-3.73066672e-07
-3.73066663e-07
-3.73066664e-07
-3.73066673e-07
-3.73066675e-07
-3.73066672e-07
-3.73066664e-07
-3.73066663e-07
-3.7306667e-07
-3.73066679e-07
-3.73066676e-07
-3.73066658e-07
-3.73066656e-07
-3.73066678e-07
-3.73066689e-07
-3.73066668e-07
-3.73066647e-07
-3.73066662e-07
-3.73066691e-07
-3.73066686e-07
-3.7306665e-07
-3.7306665e-07
-3.73066682e-07
-3.73066687e-07
-3.73066664e-07
-3.73066654e-07
-3.73066669e-07
-3.73066681e-07
-3.73066672e-07
-3.73066662e-07
-3.73066666e-07
-3.73066674e-07
-3.73066672e-07
-3.73066667e-07
-3.73066667e-07
-3.7306667e-07
-3.73066671e-07
-3.73066669e-07
-3.73066669e-07
-3.7306667e-07
-3.7306667e-07
-3.73066669e-07
-3.73066669e-07
-3.73066669e-07
-3.73066669e-07
-3.73066669e-07
-3.73066669e-07
-3.73066669e-07
-3.73066669e-07
-3.73066669e-07
-3.73066669e-07
-3.73066669e-07
-3.73066669e-07
-3.73066669e-07
-3.73066669e-07
-3.73066669e-07
-3.73066669e-07
-3.73066669e-07
-3.73066669e-07
-3.73066669e-07
-3.73066669e-07
-3.73066669e-07
-3.73066669e-07
-3.73066669e-07
-3.73066669e-07
-3.7306667e-07
-3.7306667e-07
-3.73066669e-07
-3.73066668e-07
-3.7306667e-07
-3.73066672e-07
-3.7306667e-07
-3.73066666e-07
-3.73066667e-07
-3.73066674e-07
-3.73066674e-07
-3.73066665e-07
-3.73066663e-07
-3.73066673e-07
-3.73066677e-07
-3.73066667e-07
-3.7306666e-07
-3.7306667e-07
-3.7306668e-07
-3.73066672e-07
-3.73066655e-07
-3.73066661e-07
-3.73066686e-07
-3.73066684e-07
-3.73066652e-07
-3.73066649e-07
-3.73066683e-07
-3.73066696e-07
-3.73066663e-07
-3.73066639e-07
-3.73066664e-07
-3.73066701e-07
-3.73066689e-07
-3.73066641e-07
-3.73066643e-07
-3.73066688e-07
-3.73066693e-07
-3.73066664e-07
-3.73066654e-07
-3.73066668e-07
-3.73066674e-07
-3.73066667e-07
-3.73066666e-07
-3.73066683e-07
-3.73066688e-07
-3.73066654e-07
-3.73066611e-07
-3.73066622e-07
-3.73066808e-07
-3.73066919e-07
-3.73066539e-07
-3.73065805e-07
-3.73066111e-07
-3.73069136e-07
-3.73069598e-07
-3.73062262e-07
-3.73056561e-07
-3.73069329e-07
-3.73093327e-07
-3.73084247e-07
-3.73009163e-07
-3.73003102e-07
-3.73141078e-07
-3.73222337e-07
-3.73038422e-07
-3.72776131e-07
-3.72892922e-07
-3.73521331e-07
-3.73508439e-07
-3.72651076e-07
-3.72368842e-07
-3.7321151e-07
-3.7399985e-07
-3.73368047e-07
-3.72181983e-07
-3.72361732e-07
-3.73845154e-07
-3.73879939e-07
-3.72694956e-07
-3.72404288e-07
-3.73127661e-07
-3.73554106e-07
-3.73163876e-07
)
;

boundaryField
{
    closed
    {
        type            calculated;
        value           nonuniform List<scalar> 0();
    }
    open
    {
        type            calculated;
        value           nonuniform List<scalar> 0();
    }
    sides
    {
        type            empty;
    }
    procBoundary1to0
    {
        type            processor;
        value           uniform -3.73203428e-07;
    }
    procBoundary1to2
    {
        type            processor;
        value           uniform -3.72772369e-07;
    }
}


// ************************************************************************* //
