/*--------------------------------*- C++ -*----------------------------------*\
| =========                 |                                                 |
| \\      /  F ield         | OpenFOAM: The Open Source CFD Toolbox           |
|  \\    /   O peration     | Version:  2306                                  |
|   \\  /    A nd           | Website:  www.openfoam.com                      |
|    \\/     M anipulation  |                                                 |
\*---------------------------------------------------------------------------*/
FoamFile
{
    version     2.0;
    format      ascii;
    arch        "LSB;label=32;scalar=64";
    class       volScalarField;
    location    "0.00022";
    object      prefDZ_H2O;
}
// * * * * * * * * * * * * * * * * * * * * * * * * * * * * * * * * * * * * * //

dimensions      [1 -1 -1 0 0 0 0];

internalField   nonuniform List<scalar> 
531
(
-7.52323149e-07
-7.51942226e-07
-7.51932306e-07
-7.52122681e-07
-7.52157107e-07
-7.52074492e-07
-7.52044588e-07
-7.52076196e-07
-7.52094518e-07
-7.52083848e-07
-7.52074705e-07
-7.52077875e-07
-7.52081796e-07
-7.52080944e-07
-7.52079441e-07
-7.52079682e-07
-7.52080265e-07
-7.52080172e-07
-7.5207985e-07
-7.52079889e-07
-7.52080171e-07
-7.52080165e-07
-7.52079917e-07
-7.52079885e-07
-7.5208007e-07
-7.52080136e-07
-7.52080016e-07
-7.52079936e-07
-7.52080003e-07
-7.5208008e-07
-7.5208005e-07
-7.52079982e-07
-7.52079989e-07
-7.52080049e-07
-7.52080049e-07
-7.5208001e-07
-7.52079999e-07
-7.52080021e-07
-7.52080039e-07
-7.5208003e-07
-7.52080009e-07
-7.5208001e-07
-7.5208003e-07
-7.52080031e-07
-7.52080018e-07
-7.52080014e-07
-7.52080024e-07
-7.52080029e-07
-7.5208002e-07
-7.52080012e-07
-7.52080022e-07
-7.52080035e-07
-7.52080025e-07
-7.52080004e-07
-7.52080011e-07
-7.52080041e-07
-7.52080039e-07
-7.52080005e-07
-7.52080002e-07
-7.52080031e-07
-7.52080039e-07
-7.52080018e-07
-7.52080004e-07
-7.52080021e-07
-7.52080041e-07
-7.52080027e-07
-7.52079994e-07
-7.5208e-07
-7.52080063e-07
-7.52080069e-07
-7.52079977e-07
-7.52079929e-07
-7.52080041e-07
-7.52080177e-07
-7.52080079e-07
-7.52079802e-07
-7.52079838e-07
-7.52080274e-07
-7.52080313e-07
-7.52079833e-07
-7.52079645e-07
-7.52080083e-07
-7.52080438e-07
-7.52080117e-07
-7.52079619e-07
-7.52079791e-07
-7.5208036e-07
-7.52080318e-07
-7.52079779e-07
-7.52079757e-07
-7.52080141e-07
-7.52080223e-07
-7.52079987e-07
-7.52079885e-07
-7.52080013e-07
-7.52080104e-07
-7.52080044e-07
-7.52079976e-07
-7.52080001e-07
-7.52080044e-07
-7.52080037e-07
-7.52080011e-07
-7.52080012e-07
-7.52080026e-07
-7.52080027e-07
-7.5208002e-07
-7.52080019e-07
-7.5208002e-07
-7.52080022e-07
-7.52080024e-07
-7.52080024e-07
-7.52080017e-07
-7.52080015e-07
-7.52080024e-07
-7.52080034e-07
-7.52080026e-07
-7.52080003e-07
-7.52080006e-07
-7.52080042e-07
-7.52080047e-07
-7.52080009e-07
-7.5207999e-07
-7.5208002e-07
-7.52080053e-07
-7.52080036e-07
-7.52079995e-07
-7.5208e-07
-7.52080039e-07
-7.52080039e-07
-7.52080015e-07
-7.5208001e-07
-7.52080022e-07
-7.52080027e-07
-7.52080023e-07
-7.5208002e-07
-7.52080021e-07
-7.52080022e-07
-7.52080021e-07
-7.52080022e-07
-7.52080024e-07
-7.52080021e-07
-7.52080017e-07
-7.5208002e-07
-7.5208003e-07
-7.52080029e-07
-7.52080009e-07
-7.52080005e-07
-7.52080032e-07
-7.52080052e-07
-7.52080023e-07
-7.52079974e-07
-7.52079992e-07
-7.52080082e-07
-7.5208008e-07
-7.52079969e-07
-7.52079942e-07
-7.52080046e-07
-7.5208011e-07
-7.52080032e-07
-7.52079936e-07
-7.52079981e-07
-7.52080092e-07
-7.5208008e-07
-7.52079969e-07
-7.52079968e-07
-7.52080048e-07
-7.52080065e-07
-7.52080016e-07
-7.52079986e-07
-7.5208001e-07
-7.52080048e-07
-7.52080045e-07
-7.52080008e-07
-7.52079994e-07
-7.52080014e-07
-7.5208005e-07
-7.52080047e-07
-7.5208e-07
-7.52079986e-07
-7.52080027e-07
-7.52080062e-07
-7.52080036e-07
-7.5207998e-07
-7.5207999e-07
-7.52080059e-07
-7.5208006e-07
-7.52079997e-07
-7.52079981e-07
-7.52080032e-07
-7.52080059e-07
-7.52080025e-07
-7.5207999e-07
-7.5208001e-07
-7.52080044e-07
-7.52080034e-07
-7.52080008e-07
-7.52080013e-07
-7.5208003e-07
-7.52080026e-07
-7.52080011e-07
-7.52080015e-07
-7.52080037e-07
-7.52080036e-07
-7.52080002e-07
-7.52079995e-07
-7.52080035e-07
-7.5208006e-07
-7.52080026e-07
-7.52079974e-07
-7.5207999e-07
-7.5208007e-07
-7.52080069e-07
-7.52079989e-07
-7.52079967e-07
-7.52080031e-07
-7.52080074e-07
-7.52080033e-07
-7.52079978e-07
-7.52079997e-07
-7.52080052e-07
-7.52080049e-07
-7.52080005e-07
-7.52080002e-07
-7.52080025e-07
-7.5208003e-07
-7.52080023e-07
-7.52080022e-07
-7.52080024e-07
-7.52080015e-07
-7.52080012e-07
-7.52080028e-07
-7.52080037e-07
-7.5208002e-07
-7.52080004e-07
-7.52080017e-07
-7.52080037e-07
-7.52080031e-07
-7.5208001e-07
-7.52080012e-07
-7.52080028e-07
-7.52080028e-07
-7.52080019e-07
-7.52080017e-07
-7.52080022e-07
-7.52080024e-07
-7.52080021e-07
-7.5208002e-07
-7.52080023e-07
-7.52080024e-07
-7.52080019e-07
-7.52080016e-07
-7.52080023e-07
-7.52080033e-07
-7.52080028e-07
-7.52080001e-07
-7.52080002e-07
-7.52080046e-07
-7.5208006e-07
-7.52080007e-07
-7.52079962e-07
-7.5208001e-07
-7.52080096e-07
-7.52080076e-07
-7.52079941e-07
-7.52079942e-07
-7.52080076e-07
-7.5208011e-07
-7.52080003e-07
-7.52079938e-07
-7.52080009e-07
-7.52080088e-07
-7.52080052e-07
-7.52079975e-07
-7.52079987e-07
-7.5208005e-07
-7.52080049e-07
-7.52080007e-07
-7.52080003e-07
-7.52080027e-07
-7.52080032e-07
-7.5208002e-07
-7.52080016e-07
-7.52080021e-07
-7.52080024e-07
-7.52080022e-07
-7.5208002e-07
-7.52080021e-07
-7.52080022e-07
-7.52080022e-07
-7.52080021e-07
-7.52080021e-07
-7.52080022e-07
-7.52080022e-07
-7.52080022e-07
-7.52080021e-07
-7.52080021e-07
-7.52080022e-07
-7.52080022e-07
-7.52080022e-07
-7.52080021e-07
-7.5208002e-07
-7.52080022e-07
-7.52080025e-07
-7.52080022e-07
-7.52080014e-07
-7.52080016e-07
-7.52080032e-07
-7.52080035e-07
-7.52080013e-07
-7.5208e-07
-7.52080021e-07
-7.5208005e-07
-7.52080039e-07
-7.52079991e-07
-7.52079992e-07
-7.52080043e-07
-7.52080054e-07
-7.52080014e-07
-7.52079991e-07
-7.52080017e-07
-7.52080044e-07
-7.52080033e-07
-7.52080007e-07
-7.52080011e-07
-7.52080028e-07
-7.52080028e-07
-7.52080019e-07
-7.52080019e-07
-7.52080022e-07
-7.52080022e-07
-7.52080021e-07
-7.52080022e-07
-7.52080022e-07
-7.52080021e-07
-7.52080021e-07
-7.52080022e-07
-7.52080022e-07
-7.52080021e-07
-7.52080022e-07
-7.52080022e-07
-7.52080021e-07
-7.52080021e-07
-7.52080021e-07
-7.52080023e-07
-7.52080023e-07
-7.52080019e-07
-7.52080018e-07
-7.52080024e-07
-7.52080027e-07
-7.52080021e-07
-7.52080013e-07
-7.52080018e-07
-7.52080031e-07
-7.5208003e-07
-7.52080013e-07
-7.52080011e-07
-7.52080026e-07
-7.52080032e-07
-7.5208002e-07
-7.5208001e-07
-7.5208002e-07
-7.52080032e-07
-7.52080026e-07
-7.52080011e-07
-7.52080015e-07
-7.52080029e-07
-7.52080029e-07
-7.52080018e-07
-7.52080018e-07
-7.52080022e-07
-7.52080022e-07
-7.52080018e-07
-7.52080023e-07
-7.52080031e-07
-7.52080023e-07
-7.52080007e-07
-7.52080012e-07
-7.52080038e-07
-7.52080038e-07
-7.52080009e-07
-7.52080003e-07
-7.52080025e-07
-7.52080038e-07
-7.52080027e-07
-7.52080008e-07
-7.52080011e-07
-7.52080028e-07
-7.52080033e-07
-7.52080027e-07
-7.52080011e-07
-7.52080009e-07
-7.52080023e-07
-7.5208004e-07
-7.52080036e-07
-7.52079998e-07
-7.52079994e-07
-7.52080039e-07
-7.52080061e-07
-7.52080018e-07
-7.52079976e-07
-7.52080007e-07
-7.52080066e-07
-7.52080054e-07
-7.52079982e-07
-7.52079983e-07
-7.52080047e-07
-7.52080058e-07
-7.52080011e-07
-7.52079991e-07
-7.52080022e-07
-7.52080044e-07
-7.52080027e-07
-7.52080006e-07
-7.52080015e-07
-7.5208003e-07
-7.52080027e-07
-7.52080017e-07
-7.52080018e-07
-7.52080024e-07
-7.52080024e-07
-7.5208002e-07
-7.5208002e-07
-7.52080022e-07
-7.52080022e-07
-7.52080021e-07
-7.52080021e-07
-7.52080022e-07
-7.52080022e-07
-7.52080022e-07
-7.52080021e-07
-7.52080022e-07
-7.52080022e-07
-7.52080022e-07
-7.52080022e-07
-7.52080022e-07
-7.52080022e-07
-7.52080022e-07
-7.52080022e-07
-7.52080022e-07
-7.52080022e-07
-7.52080022e-07
-7.52080021e-07
-7.52080021e-07
-7.52080022e-07
-7.52080022e-07
-7.52080021e-07
-7.52080021e-07
-7.52080021e-07
-7.52080023e-07
-7.52080022e-07
-7.5208002e-07
-7.52080019e-07
-7.52080023e-07
-7.52080026e-07
-7.52080022e-07
-7.52080014e-07
-7.52080017e-07
-7.52080031e-07
-7.5208003e-07
-7.52080012e-07
-7.52080009e-07
-7.52080028e-07
-7.52080036e-07
-7.52080017e-07
-7.52080004e-07
-7.52080022e-07
-7.52080044e-07
-7.52080027e-07
-7.52079993e-07
-7.52080005e-07
-7.52080055e-07
-7.52080052e-07
-7.52079986e-07
-7.5207998e-07
-7.5208005e-07
-7.52080074e-07
-7.52080009e-07
-7.5207996e-07
-7.5208001e-07
-7.52080086e-07
-7.52080061e-07
-7.52079964e-07
-7.52079968e-07
-7.52080058e-07
-7.52080069e-07
-7.52080011e-07
-7.52079991e-07
-7.52080019e-07
-7.52080032e-07
-7.52080017e-07
-7.52080015e-07
-7.5208005e-07
-7.52080059e-07
-7.5207999e-07
-7.52079904e-07
-7.52079927e-07
-7.520803e-07
-7.52080524e-07
-7.52079758e-07
-7.52078279e-07
-7.52078895e-07
-7.52084993e-07
-7.52085925e-07
-7.52071136e-07
-7.52059644e-07
-7.52085383e-07
-7.52133761e-07
-7.52115456e-07
-7.51964091e-07
-7.51951873e-07
-7.52230025e-07
-7.52393838e-07
-7.52023075e-07
-7.51494313e-07
-7.51729757e-07
-7.52996593e-07
-7.52970602e-07
-7.5124221e-07
-7.50673243e-07
-7.52372011e-07
-7.53961257e-07
-7.52687581e-07
-7.50296546e-07
-7.5065891e-07
-7.536494e-07
-7.53719525e-07
-7.5133067e-07
-7.50744701e-07
-7.52202978e-07
-7.53062664e-07
-7.52275984e-07
)
;

boundaryField
{
    closed
    {
        type            calculated;
        value           nonuniform List<scalar> 0();
    }
    open
    {
        type            calculated;
        value           nonuniform List<scalar> 0();
    }
    sides
    {
        type            empty;
    }
    procBoundary1to0
    {
        type            processor;
        value           uniform -7.5235572e-07;
    }
    procBoundary1to2
    {
        type            processor;
        value           uniform -7.5148673e-07;
    }
}


// ************************************************************************* //
