/*--------------------------------*- C++ -*----------------------------------*\
| =========                 |                                                 |
| \\      /  F ield         | OpenFOAM: The Open Source CFD Toolbox           |
|  \\    /   O peration     | Version:  2306                                  |
|   \\  /    A nd           | Website:  www.openfoam.com                      |
|    \\/     M anipulation  |                                                 |
\*---------------------------------------------------------------------------*/
FoamFile
{
    version     2.0;
    format      ascii;
    arch        "LSB;label=32;scalar=64";
    class       volScalarField;
    location    "0.00022";
    object      prefDh_H2;
}
// * * * * * * * * * * * * * * * * * * * * * * * * * * * * * * * * * * * * * //

dimensions      [1 1 -3 0 0 0 0];

internalField   nonuniform List<scalar> 
531
(
28.9471722
28.8997496
28.8985427
28.9218865
28.9261836
28.9159052
28.9122234
28.9161142
28.9183828
28.9170601
28.9159303
28.9163214
28.9168062
28.9167008
28.9165149
28.9165447
28.9166167
28.9166053
28.9165654
28.9165702
28.9166051
28.9166043
28.9165737
28.9165697
28.9165927
28.9166008
28.916586
28.9165761
28.9165843
28.9165939
28.9165902
28.9165817
28.9165826
28.91659
28.91659
28.9165852
28.9165839
28.9165866
28.9165888
28.9165877
28.916585
28.9165852
28.9165876
28.9165878
28.9165862
28.9165857
28.9165869
28.9165875
28.9165864
28.9165855
28.9165867
28.9165883
28.916587
28.9165844
28.9165853
28.916589
28.9165888
28.9165846
28.9165842
28.9165878
28.9165888
28.9165862
28.9165845
28.9165866
28.916589
28.9165873
28.9165833
28.916584
28.9165917
28.9165925
28.9165811
28.9165752
28.9165891
28.9166058
28.9165937
28.9165595
28.916564
28.9166178
28.9166226
28.9165633
28.91654
28.9165942
28.9166381
28.9165984
28.9165369
28.9165582
28.9166285
28.9166233
28.9165566
28.916554
28.9166014
28.9166116
28.9165824
28.9165697
28.9165856
28.9165969
28.9165894
28.916581
28.9165841
28.9165894
28.9165885
28.9165853
28.9165855
28.9165872
28.9165873
28.9165864
28.9165863
28.9165865
28.9165867
28.916587
28.916587
28.9165861
28.9165858
28.916587
28.9165882
28.9165872
28.9165843
28.9165847
28.9165892
28.9165898
28.9165851
28.9165827
28.9165865
28.9165905
28.9165884
28.9165834
28.916584
28.9165888
28.9165888
28.9165858
28.9165852
28.9165867
28.9165873
28.9165868
28.9165864
28.9165866
28.9165866
28.9165866
28.9165867
28.9165869
28.9165866
28.9165861
28.9165864
28.9165876
28.9165875
28.9165851
28.9165846
28.916588
28.9165904
28.9165868
28.9165808
28.916583
28.916594
28.9165938
28.9165802
28.9165768
28.9165897
28.9165976
28.9165879
28.9165761
28.9165816
28.9165954
28.9165938
28.9165801
28.91658
28.9165899
28.916592
28.916586
28.9165823
28.9165852
28.9165899
28.9165896
28.916585
28.9165832
28.9165857
28.9165901
28.9165898
28.916584
28.9165822
28.9165873
28.9165916
28.9165884
28.9165815
28.9165827
28.9165913
28.9165914
28.9165835
28.9165816
28.9165879
28.9165913
28.916587
28.9165827
28.9165852
28.9165894
28.9165882
28.9165849
28.9165856
28.9165877
28.9165872
28.9165853
28.9165859
28.9165886
28.9165885
28.9165842
28.9165834
28.9165883
28.9165914
28.9165872
28.9165808
28.9165828
28.9165927
28.9165926
28.9165826
28.9165799
28.9165878
28.9165931
28.9165881
28.9165813
28.9165836
28.9165904
28.91659
28.9165846
28.9165842
28.9165871
28.9165877
28.9165868
28.9165867
28.9165869
28.9165859
28.9165854
28.9165874
28.9165885
28.9165865
28.9165845
28.9165861
28.9165885
28.9165877
28.9165853
28.9165855
28.9165874
28.9165875
28.9165863
28.9165861
28.9165867
28.9165869
28.9165866
28.9165865
28.9165868
28.9165869
28.9165863
28.9165859
28.9165868
28.9165881
28.9165874
28.9165841
28.9165842
28.9165897
28.9165913
28.9165848
28.9165793
28.9165852
28.9165959
28.9165933
28.9165767
28.9165768
28.9165934
28.9165975
28.9165843
28.9165764
28.9165851
28.9165948
28.9165905
28.9165808
28.9165824
28.9165902
28.91659
28.9165848
28.9165844
28.9165873
28.916588
28.9165865
28.9165859
28.9165866
28.916587
28.9165867
28.9165864
28.9165865
28.9165867
28.9165867
28.9165866
28.9165866
28.9165866
28.9165866
28.9165866
28.9165866
28.9165866
28.9165866
28.9165867
28.9165867
28.9165865
28.9165865
28.9165867
28.9165871
28.9165867
28.9165857
28.9165859
28.916588
28.9165883
28.9165856
28.9165839
28.9165865
28.9165901
28.9165888
28.9165828
28.916583
28.9165893
28.9165907
28.9165858
28.9165829
28.916586
28.9165894
28.916588
28.9165849
28.9165853
28.9165875
28.9165874
28.9165864
28.9165863
28.9165867
28.9165867
28.9165866
28.9165866
28.9165867
28.9165866
28.9165866
28.9165866
28.9165867
28.9165866
28.9165866
28.9165867
28.9165866
28.9165865
28.9165866
28.9165868
28.9165868
28.9165863
28.9165862
28.9165869
28.9165873
28.9165866
28.9165856
28.9165861
28.9165878
28.9165877
28.9165856
28.9165853
28.9165872
28.916588
28.9165865
28.9165853
28.9165865
28.9165879
28.9165872
28.9165854
28.9165858
28.9165876
28.9165875
28.9165861
28.9165862
28.9165867
28.9165867
28.9165862
28.9165868
28.9165877
28.9165868
28.9165848
28.9165855
28.9165887
28.9165886
28.9165851
28.9165844
28.9165871
28.9165887
28.9165873
28.916585
28.9165853
28.9165874
28.916588
28.9165873
28.9165853
28.916585
28.9165869
28.9165889
28.9165884
28.9165837
28.9165832
28.9165888
28.9165915
28.9165862
28.9165811
28.9165848
28.9165921
28.9165907
28.9165817
28.9165819
28.9165898
28.9165911
28.9165853
28.9165829
28.9165866
28.9165894
28.9165873
28.9165847
28.9165858
28.9165877
28.9165874
28.916586
28.9165861
28.9165869
28.9165869
28.9165865
28.9165865
28.9165867
28.9165867
28.9165866
28.9165866
28.9165866
28.9165866
28.9165866
28.9165866
28.9165866
28.9165866
28.9165866
28.9165866
28.9165866
28.9165866
28.9165866
28.9165866
28.9165866
28.9165866
28.9165866
28.9165866
28.9165866
28.9165866
28.9165866
28.9165866
28.9165866
28.9165866
28.9165868
28.9165867
28.9165864
28.9165863
28.9165868
28.9165872
28.9165867
28.9165857
28.9165861
28.9165878
28.9165877
28.9165855
28.9165851
28.9165875
28.9165885
28.9165861
28.9165844
28.9165867
28.9165894
28.9165874
28.9165831
28.9165846
28.9165908
28.9165904
28.9165822
28.9165815
28.9165901
28.9165932
28.9165851
28.916579
28.9165852
28.9165946
28.9165915
28.9165795
28.91658
28.9165912
28.9165925
28.9165853
28.9165829
28.9165864
28.9165879
28.916586
28.9165858
28.9165901
28.9165912
28.9165827
28.9165721
28.916575
28.9166211
28.9166489
28.9165543
28.9163716
28.916448
28.9172027
28.9173187
28.9154924
28.9140766
28.9172601
28.9232696
28.9210068
28.9024027
28.9009551
28.9353932
28.9563449
28.9097556
28.8473133
28.8746778
29.0369055
29.0336822
28.819233
28.7604668
28.9536794
29.1778097
28.9947579
28.7243877
28.7582848
29.1310372
29.141178
28.8294136
28.7676105
28.9321099
29.0464906
28.9411463
)
;

boundaryField
{
    closed
    {
        type            calculated;
        value           nonuniform List<scalar> 0();
    }
    open
    {
        type            calculated;
        value           nonuniform List<scalar> 0();
    }
    sides
    {
        type            empty;
    }
    procBoundary1to0
    {
        type            processor;
        value           uniform 28.9513793;
    }
    procBoundary1to2
    {
        type            processor;
        value           uniform 28.8466249;
    }
}


// ************************************************************************* //
