/*--------------------------------*- C++ -*----------------------------------*\
| =========                 |                                                 |
| \\      /  F ield         | OpenFOAM: The Open Source CFD Toolbox           |
|  \\    /   O peration     | Version:  2306                                  |
|   \\  /    A nd           | Website:  www.openfoam.com                      |
|    \\/     M anipulation  |                                                 |
\*---------------------------------------------------------------------------*/
FoamFile
{
    version     2.0;
    format      ascii;
    arch        "LSB;label=32;scalar=64";
    class       volScalarField;
    location    "2e-05";
    object      PV;
}
// * * * * * * * * * * * * * * * * * * * * * * * * * * * * * * * * * * * * * //

dimensions      [0 0 0 0 0 0 0];

internalField   nonuniform List<scalar> 
530
(
0.00663207974
0.0067538875
0.00679637245
0.00674649208
0.00676579141
0.00684776837
0.00688904201
0.00686186371
0.00687445088
0.00692762198
0.00695297773
0.00695426913
0.00696744795
0.00699829946
0.00701314968
0.00703505269
0.00704773133
0.00706660618
0.007076922
0.00709116997
0.00709954887
0.00711015327
0.0071168347
0.00712463279
0.00712999971
0.00713558184
0.00713981298
0.00714377903
0.00714707492
0.0071498632
0.00715237993
0.00715434056
0.00715622863
0.00715761598
0.00715900416
0.00716000067
0.00716100361
0.0071617355
0.0071624493
0.00716300135
0.00716350432
0.00716393162
0.00716428522
0.00716462278
0.00716487336
0.0071651429
0.00716532549
0.0071655402
0.0071656786
0.00716584518
0.00716595127
0.00716608873
0.00716616337
0.00716628065
0.00716632631
0.00716642804
0.00716650809
0.00716656574
0.00716656281
0.00716663333
0.00716676357
0.00716677828
0.00716663935
0.00716670818
0.00716688545
0.00716688787
0.00716665866
0.00716672498
0.00716693051
0.00716693065
0.00716667216
0.00716673227
0.00716693812
0.00716693975
0.00716669413
0.00716674544
0.00716692983
0.00716693258
0.00716672617
0.00716676637
0.00716691473
0.00716691737
0.00716676521
0.00716679338
0.00716689784
0.00716689919
0.00716680528
0.00716682418
0.00716688213
0.00716688116
0.00716684184
0.00716685555
0.0071668733
0.007166874
0.00716686968
0.00716688465
0.00716688575
0.00716689176
0.0071668933
0.00716689678
0.0071668974
0.00716689914
0.00716689984
0.00716690072
0.00716690102
0.00716690145
0.00716690165
0.00716690185
0.00716690193
0.00716690202
0.00716690207
0.0071669021
0.00716690212
0.00716690213
0.00716690214
0.00716690215
0.00716690215
0.00716690215
0.00716690215
0.00716690215
0.00716690215
0.00716690215
0.00716690215
0.00716690215
0.00716690215
0.00716690215
0.00716690215
0.00716690215
0.00716690215
0.00716690215
0.00716690215
0.00716690215
0.00716690215
0.00716690215
0.00716690215
0.00716690215
0.00716690215
0.00716690215
0.00716690215
0.00716690215
0.00716690215
0.00716690215
0.00716690215
0.00716690215
0.00716690215
0.00716690215
0.00716690215
0.00716690215
0.00716690215
0.00716690215
0.00716690215
0.00716690215
0.00716690215
0.00716690215
0.00716690215
0.00716690215
0.00716690215
0.00716690215
0.00716690215
0.00716690215
0.00716690215
0.00716690215
0.00716690215
0.00716690215
0.00716690215
0.00716690215
0.00716690215
0.00716690215
0.00716690215
0.00716690215
0.00716690215
0.00716690215
0.00716690215
0.00716690215
0.00716690215
0.00716690215
0.00716690215
0.00716690215
0.00716690215
0.00716690215
0.00716690215
0.00716690215
0.00716690215
0.00716690215
0.00716690215
0.00716690215
0.00716690215
0.00716690215
0.00716690215
0.00716690215
0.00716690215
0.00716690215
0.00716690215
0.00716690215
0.00716690215
0.00716690215
0.00716690215
0.00716690215
0.00716690215
0.00716690215
0.00716690215
0.00716690215
0.00716690215
0.00716690215
0.00716690215
0.00716690215
0.00716690215
0.00716690215
0.00716690215
0.00716690215
0.00716690215
0.00716690215
0.00716690215
0.00716690215
0.00716690215
0.00716690215
0.00716690215
0.00716690215
0.00716690215
0.00716690215
0.00716690215
0.00716690215
0.00716690215
0.00716690215
0.00716690215
0.00716690215
0.00716690215
0.00716690215
0.00716690215
0.00716690215
0.00716690215
0.00716690215
0.00716690215
0.00716690215
0.00716690215
0.00716690215
0.00716690215
0.00716690215
0.00716690215
0.00716690215
0.00716690215
0.00716690215
0.00716690215
0.00716690215
0.00716690215
0.00716690215
0.00716690215
0.00716690215
0.00716690215
0.00716690215
0.00716690215
0.00716690215
0.00716690215
0.00716690215
0.00716690215
0.00716690215
0.00716690215
0.00716690215
0.00716690215
0.00716690215
0.00716690215
0.00716690215
0.00716690215
0.00716690215
0.00716690215
0.00716690215
0.00716690215
0.00716690215
0.00716690215
0.00716690215
0.00716690215
0.00716690215
0.00716690215
0.00716690215
0.00716690215
0.00716690215
0.00716690215
0.00716690215
0.00716690215
0.00716690215
0.00716690215
0.00716690215
0.00716690215
0.00716690215
0.00716690215
0.00716690215
0.00716690215
0.00716690215
0.00716690215
0.00716690215
0.00716690215
0.00716690215
0.00716690215
0.00716690215
0.00716690215
0.00716690215
0.00716690215
0.00716690215
0.00716690215
0.00716690215
0.00716690215
0.00716690215
0.00716690215
0.00716690215
0.00716690215
0.00716690215
0.00716690215
0.00716690215
0.00716690215
0.00716690215
0.00716690215
0.00716690215
0.00716690215
0.00716690215
0.00716690215
0.00716690215
0.00716690215
0.00716690215
0.00716690215
0.00716690215
0.00716690215
0.00716690215
0.00716690215
0.00716690215
0.00716690215
0.00716690215
0.00716690215
0.00716690215
0.00716690215
0.00716690215
0.00716690215
0.00716690215
0.00716690215
0.00716690215
0.00716690215
0.00716690215
0.00716690215
0.00716690215
0.00716690215
0.00716690215
0.00716690215
0.00716690215
0.00716690215
0.00716690215
0.00716690215
0.00716690215
0.00716690215
0.00716690215
0.00716690215
0.00716690215
0.00716690215
0.00716690215
0.00716690215
0.00716690215
0.00716690215
0.00716690215
0.00716690215
0.00716690215
0.00716690215
0.00716690215
0.00716690215
0.00716690215
0.00716690215
0.00716690215
0.00716690215
0.00716690215
0.00716690215
0.00716690215
0.00716690215
0.00716690215
0.00716690215
0.00716690215
0.00716690215
0.00716690215
0.00716690215
0.00716690215
0.00716690215
0.00716690215
0.00716690215
0.00716690215
0.00716690215
0.00716690215
0.00716690215
0.00716690215
0.00716690215
0.00716690215
0.00716690215
0.00716690215
0.00716690215
0.00716690215
0.00716690215
0.00716690215
0.00716690215
0.00716690215
0.00716690215
0.00716690215
0.00716690215
0.00716690215
0.00716690215
0.00716690215
0.00716690215
0.00716690215
0.00716690215
0.00716690215
0.00716690215
0.00716690215
0.00716690215
0.00716690215
0.00716690215
0.00716690215
0.00716690215
0.00716690215
0.00716690215
0.00716690215
0.00716690215
0.00716690215
0.00716690215
0.00716690215
0.00716690215
0.00716690215
0.00716690215
0.00716690215
0.00716690215
0.00716690215
0.00716690215
0.00716690215
0.00716690215
0.00716690215
0.00716690215
0.00716690215
0.00716690215
0.00716690215
0.00716690215
0.00716690215
0.00716690215
0.00716690215
0.00716690215
0.00716690215
0.00716690215
0.00716690215
0.00716690215
0.00716690215
0.00716690215
0.00716690215
0.00716690215
0.00716690215
0.00716690215
0.00716690215
0.00716690215
0.00716690215
0.00716690215
0.00716690215
0.00716690215
0.00716690215
0.00716690215
0.00716690215
0.00716690215
0.00716690215
0.00716690215
0.00716690215
0.00716690215
0.00716690215
0.00716690215
0.00716690215
0.00716690215
0.00716690215
0.00716690215
0.00716690215
0.00716690215
0.00716690215
0.00716690215
0.00716690215
0.00716690215
0.00716690215
0.00716690215
0.00716690215
0.00716690215
0.00716690215
0.00716690215
0.00716690215
0.00716690215
0.00716690215
0.00716690215
0.00716690215
0.00716690215
0.00716690215
0.00716690215
0.00716690215
0.00716690215
0.00716690215
0.00716690215
0.00716690215
0.00716690215
0.00716690215
0.00716690215
0.00716690215
0.00716690215
0.00716690215
0.00716690215
0.00716690215
0.00716690215
0.00716690215
0.00716690215
0.00716690215
0.00716690215
0.00716690215
0.00716690215
0.00716690215
0.00716690215
0.00716690215
0.00716690215
0.00716690215
0.00716690215
0.00716690215
0.00716690215
0.00716690215
0.00716690215
0.00716690215
0.00716690215
0.00716690215
0.00716690215
0.00716690215
0.00716690215
0.00716690215
0.00716690215
0.00716690215
0.00716690215
0.00716690215
0.00716690215
0.00716690215
)
;

boundaryField
{
    closed
    {
        type            zeroGradient;
    }
    open
    {
        type            zeroGradient;
    }
    sides
    {
        type            empty;
    }
    procBoundary5to4
    {
        type            processor;
        value           uniform 0.00660844073;
    }
}


// ************************************************************************* //
