/*--------------------------------*- C++ -*----------------------------------*\
| =========                 |                                                 |
| \\      /  F ield         | OpenFOAM: The Open Source CFD Toolbox           |
|  \\    /   O peration     | Version:  2306                                  |
|   \\  /    A nd           | Website:  www.openfoam.com                      |
|    \\/     M anipulation  |                                                 |
\*---------------------------------------------------------------------------*/
FoamFile
{
    version     2.0;
    format      ascii;
    arch        "LSB;label=32;scalar=64";
    class       volScalarField;
    location    "0.00102";
    object      h;
}
// * * * * * * * * * * * * * * * * * * * * * * * * * * * * * * * * * * * * * //

dimensions      [0 2 -2 0 0 0 0];

internalField   nonuniform List<scalar> 
531
(
3213.00203
9934.28375
8231.55478
-5766.34372
-5745.28872
4133.36029
10199.1617
8506.78956
-3710.47338
-1763.20631
10149.0577
8231.40265
-5374.92084
-5354.94122
5235.2145
10052.515
8190.42698
-5661.06387
-5650.65101
-1572.72889
2785.63409
10358.138
8345.5093
-5603.08098
-5620.09597
3909.41532
9956.67454
7760.96332
-6249.72373
-5991.48906
8530.59514
9462.50852
9540.30273
6373.85364
-6493.98606
-6464.64098
3060.8233
9820.81022
7726.99084
-6298.62806
-6119.8678
7091.23637
10246.4506
9393.90023
245.617123
-5592.33198
-4535.82438
3053.99411
10105.4646
8305.12484
-4521.11205
-2404.03839
10101.1106
8314.29918
-4607.15038
-366.654602
9587.58766
1550.41302
-5903.35112
-3738.20453
7046.72643
10424.6239
9380.31321
266.47387
-5326.21306
-4299.72338
3211.71718
9959.3389
8326.17136
-6593.32712
-6602.46161
2856.69409
9812.05776
7419.13482
-6206.94267
-5979.81209
7282.07883
10140.0507
9774.16387
2906.17765
-4030.33116
2428.27649
9635.49871
581.386189
-5921.48267
-2894.99619
8344.01264
10589.3276
8914.26423
-1814.88229
-5476.64149
-3955.08784
-2719.27077
4545.00802
9979.64624
2703.7109
-5501.89147
-5063.58829
3032.24135
10085.7786
8479.90972
-4481.81079
-2434.9492
10145.63
8503.78684
-3961.41849
411.742982
10440.2082
9644.70704
-2288.70204
-5698.8234
-4443.83715
-2765.2664
3486.76618
9983.7008
10412.395
8376.84705
-3090.50271
-255.251217
10498.8529
10665.1984
9199.51185
-3895.74343
-5951.95406
-4138.7372
-4447.928
-3101.44607
7179.9979
9806.0289
288.858796
-5705.33749
-4077.29446
5643.17614
10261.5795
9977.24818
2731.09479
-3533.98114
2724.47537
10522.3609
9483.52302
-3059.00955
-5654.14131
-4509.42414
-2314.65832
5899.11746
10681.4534
9066.90584
-2949.40268
-6839.17256
-2681.69153
9568.51094
9948.20233
9808.5904
9104.50838
-4274.56194
-5839.30666
-4870.04439
-1544.71494
9452.14496
10055.3822
9856.32614
9133.46626
-4011.92873
-5910.3277
-4090.5081
-4745.46366
-990.832584
9873.10044
10039.9795
10071.6029
9112.4701
-3645.55746
-5798.26385
-4059.92904
-4738.87453
-1085.78512
9844.05579
10005.9878
10019.474
9010.38133
-4074.51675
-6106.10144
-4349.79334
-4485.22917
-2962.05326
6274.257
10472.1284
9672.34195
1169.23418
-3937.75144
3468.54072
10439.0765
9837.36719
179.789085
-4198.22725
2899.89748
9870.57145
2397.35121
-4501.96768
4034.41863
9513.2903
-1102.17884
-5110.98666
-3447.25431
3068.14816
10206.1053
7534.36751
-4269.97108
1332.92568
9626.5137
185.859694
-5886.72624
-3083.69882
9042.50732
9712.32155
-1259.23599
-5597.20799
-2541.6485
8050.61061
10665.3215
9143.88055
-1239.91825
-5162.90513
-4253.66965
-2036.06486
6387.87968
10762.4392
9317.05735
-1526.66013
-5708.84871
-3530.54282
6400.66042
9974.61138
1345.31653
-4708.34843
4844.07824
9511.21197
-1881.113
-6609.57009
-2770.19155
8923.8391
10052.6732
9771.01204
9316.35708
-3704.58569
-5915.1117
-5125.31311
-2799.0579
8663.48052
10119.0324
9801.33946
9384.24947
-3149.36091
-6460.5656
-3655.95095
7662.71348
9756.58543
-1823.66679
-5621.65873
-3767.28331
5248.27929
10095.4861
2582.37832
-4377.61788
2802.4328
10067.8239
2530.78606
-4077.09795
3508.0095
10101.9822
2053.07517
-4016.22506
5155.67822
9844.05866
-535.641912
-5765.65718
-2973.77399
9115.47868
9983.32425
-1024.23894
-5202.02197
-3087.33797
7148.70054
10266.4859
1915.91837
-3848.87634
5009.75532
9897.99477
-507.093807
-5834.16859
-3044.08665
9351.3554
9874.52319
-1901.29064
-6126.16992
-2767.61425
9279.96389
10094.3528
9862.43196
9523.47202
-3035.19924
-5787.95029
-4426.1055
-3759.9395
5916.95011
10127.0041
945.073297
-4185.3814
3706.82181
10515.4052
9999.12109
-369.737578
-4471.85737
5256.07834
9814.39439
-1183.18692
-5551.10423
-3630.13119
5490.36332
10153.1976
2250.04857
-4400.40896
4219.03223
9873.94389
-254.877126
-5248.30543
-3387.47999
5626.80057
10222.6002
2893.5587
-4095.28832
3943.92893
9919.83657
204.314376
-5074.81498
-3278.43065
5671.53728
10248.5605
3377.37578
-3923.22102
3598.62822
9940.7313
691.476409
-4932.5852
-3225.21193
5527.0702
10274.7126
4093.57445
-3723.05361
3286.83265
9927.20736
977.241534
-5367.62378
-3200.0588
8189.76336
9957.17413
177.224594
-5457.23875
-3515.63838
7987.22102
9911.12101
-107.114785
-5120.38843
-3627.77926
5287.16596
10126.9525
3587.66412
-4269.26606
2660.31795
9813.77611
967.938648
-5109.57015
4586.77177
4986.6125
-3027.8369
2175.38216
10465.9799
10122.0948
1411.6399
-4014.23947
4097.27949
9641.02097
-468.688262
-5763.62854
-3730.23182
6555.53185
9792.03455
552.476565
-4487.49197
3847.0024
3556.67275
-3140.68629
3147.15574
9938.2923
1376.47148
-4167.39432
4916.25468
9476.36279
-1223.0598
-5734.88074
-3150.16943
5962.42391
10463.1683
9666.20346
720.044611
-3333.28731
4830.60325
10537.3394
9375.34179
-1306.66548
-5955.81983
-3241.4214
8511.18508
9578.51495
-1110.16159
-5636.35797
-2942.09053
8436.7505
9703.47699
-483.177596
-5452.66879
-2749.89645
8842.89755
9753.90657
-452.534306
-5262.4666
-2611.45108
9021.64137
9768.81463
-501.530548
-5265.61959
-2700.15763
8871.79963
9759.79359
-521.78683
-5105.87411
-2853.12786
7322.17525
10025.608
1617.62035
-3506.89727
4997.29113
9673.649
62.2865791
-5293.79803
-2921.2014
7428.22168
9955.1526
1270.44275
-3535.35051
5248.91875
9618.05316
-165.310434
-5280.45868
-2800.5162
7634.97332
9941.35087
1143.65088
-3375.34534
5469.28792
9611.24616
-113.563334
-5383.20353
-2657.65446
8829.17068
9612.75845
-830.116323
-5150.13851
-2680.17752
7702.87325
9901.67337
957.899817
-3418.43899
5353.65629
9541.55932
-426.868768
-5006.32174
-4328.46298
-1719.19591
7064.76317
10506.4426
9401.3605
805.761962
-3548.23921
5243.66248
9372.87413
-1004.08508
-5568.52465
-3044.64406
7368.3443
9643.7853
174.522249
-3808.3587
5794.54383
9299.77393
-1109.25251
-5625.54125
-2997.18084
7317.10984
9668.14392
410.594172
-3451.7962
5513.73128
9685.75658
621.432727
-3238.85458
6221.08639
9397.29207
-755.684899
-5264.40033
-2359.69327
8742.65818
9441.85204
-1033.37156
-5168.7775
-2394.60686
8608.44347
9448.24255
-1011.72209
-5048.44645
-2409.83433
7891.97078
9742.85802
334.719697
-3115.68706
6339.22904
9394.60346
-765.988196
-5359.84359
-2630.98275
8300.8922
)
;

boundaryField
{
    closed
    {
        type            lookUpEnthalpy;
        h0              nonuniform List<scalar> 0();
        value           nonuniform List<scalar> 0();
    }
    open
    {
        type            zeroGradient;
    }
    sides
    {
        type            empty;
    }
    procBoundary3to2
    {
        type            processor;
        value           uniform -6193.46974;
    }
    procBoundary3to4
    {
        type            processor;
        value           uniform 9309.67889;
    }
}


// ************************************************************************* //
