/*--------------------------------*- C++ -*----------------------------------*\
| =========                 |                                                 |
| \\      /  F ield         | OpenFOAM: The Open Source CFD Toolbox           |
|  \\    /   O peration     | Version:  2306                                  |
|   \\  /    A nd           | Website:  www.openfoam.com                      |
|    \\/     M anipulation  |                                                 |
\*---------------------------------------------------------------------------*/
FoamFile
{
    version     2.0;
    format      ascii;
    arch        "LSB;label=32;scalar=64";
    class       volScalarField;
    location    "0.00072";
    object      alpha;
}
// * * * * * * * * * * * * * * * * * * * * * * * * * * * * * * * * * * * * * //

dimensions      [1 -1 -1 0 0 0 0];

internalField   nonuniform List<scalar> 
531
(
3.68520103e-05
3.68482162e-05
3.5700993e-05
3.51472488e-05
3.55852926e-05
3.68219251e-05
3.68456132e-05
3.68355037e-05
3.56947803e-05
3.52477866e-05
3.54920809e-05
3.52213277e-05
3.53958452e-05
3.68255367e-05
3.6858594e-05
3.54331283e-05
3.54214271e-05
3.68459981e-05
3.68562786e-05
3.54382327e-05
3.5459858e-05
3.68624217e-05
3.68524885e-05
3.56579506e-05
3.53323631e-05
3.56720173e-05
3.68422094e-05
3.68802923e-05
3.54202529e-05
3.54158169e-05
3.68494614e-05
3.68621247e-05
3.56840268e-05
3.53298502e-05
3.5605581e-05
3.68477504e-05
3.68530879e-05
3.5716752e-05
3.51678513e-05
3.55405018e-05
3.68266845e-05
3.68466016e-05
3.68413238e-05
3.56943156e-05
3.53288316e-05
3.54214154e-05
3.5418169e-05
3.68300331e-05
3.68216822e-05
3.55391884e-05
3.48892768e-05
3.54443324e-05
3.67931058e-05
3.68285838e-05
3.68183085e-05
3.54873017e-05
3.48558487e-05
3.54287726e-05
3.67854501e-05
3.68435124e-05
3.52279785e-05
3.51997374e-05
3.67950179e-05
3.68345292e-05
3.52817732e-05
3.52494749e-05
3.68073198e-05
3.68311701e-05
3.52869286e-05
3.5262764e-05
3.68237816e-05
3.68377319e-05
3.53181222e-05
3.53398602e-05
3.68400458e-05
3.68375667e-05
3.56843158e-05
3.52670771e-05
3.55622654e-05
3.68278758e-05
3.68545885e-05
3.57106261e-05
3.52587627e-05
3.55548642e-05
3.68449922e-05
3.68456724e-05
3.5734124e-05
3.5128852e-05
3.54971705e-05
3.68280763e-05
3.68422842e-05
3.68337807e-05
3.58329407e-05
3.53796615e-05
3.54421126e-05
3.54182189e-05
3.53030772e-05
3.54230752e-05
3.68207181e-05
3.68440894e-05
3.54459633e-05
3.54033954e-05
3.68289464e-05
3.68424966e-05
3.53601463e-05
3.53448612e-05
3.6841888e-05
3.68457281e-05
3.53131147e-05
3.53295596e-05
3.68513483e-05
3.68478615e-05
3.53682771e-05
3.54033885e-05
3.68534751e-05
3.68380934e-05
3.56815305e-05
3.53079879e-05
3.5613293e-05
3.68362307e-05
3.68516121e-05
3.573429e-05
3.5340176e-05
3.55847718e-05
3.68438418e-05
3.68424716e-05
3.56710244e-05
3.51019857e-05
3.54057246e-05
3.68273204e-05
3.68576712e-05
3.52240426e-05
3.5225785e-05
3.68414836e-05
3.68411456e-05
3.53263191e-05
3.54416392e-05
3.68588531e-05
3.68187792e-05
3.57252392e-05
3.548121e-05
3.55002307e-05
3.55585416e-05
3.68537829e-05
3.68309851e-05
3.56842213e-05
3.52376942e-05
3.55497201e-05
3.68403178e-05
3.68516637e-05
3.53618431e-05
3.53936535e-05
3.6856807e-05
3.68307312e-05
3.56757195e-05
3.52065889e-05
3.55170136e-05
3.68378598e-05
3.68639358e-05
3.53482229e-05
3.54479189e-05
3.68567632e-05
3.68398376e-05
3.57125387e-05
3.54759567e-05
3.54307737e-05
3.56215744e-05
3.6860779e-05
3.68490756e-05
3.53298312e-05
3.53596449e-05
3.68609902e-05
3.68456419e-05
3.5675574e-05
3.52915886e-05
3.56115706e-05
3.68454e-05
3.68585908e-05
3.56912964e-05
3.53383052e-05
3.55886522e-05
3.68471918e-05
3.68572478e-05
3.56929623e-05
3.53032344e-05
3.55378888e-05
3.68457423e-05
3.68462828e-05
3.56909525e-05
3.50137889e-05
3.54760954e-05
3.68370647e-05
3.68277828e-05
3.6826557e-05
3.68146933e-05
3.53825307e-05
3.50555939e-05
3.53421633e-05
3.4806711e-05
3.5299569e-05
3.6805555e-05
3.68204857e-05
3.68074955e-05
3.68159025e-05
3.68040846e-05
3.53759464e-05
3.51119777e-05
3.53459974e-05
3.54255446e-05
3.68501424e-05
3.68128442e-05
3.57370003e-05
3.53802336e-05
3.55996356e-05
3.68353275e-05
3.6857727e-05
3.5694795e-05
3.53249355e-05
3.55518457e-05
3.68484094e-05
3.68549511e-05
3.5644103e-05
3.51777496e-05
3.55029625e-05
3.68474848e-05
3.68634158e-05
3.53531768e-05
3.53701373e-05
3.68566451e-05
3.68531354e-05
3.56736388e-05
3.52958026e-05
3.55633364e-05
3.68551863e-05
3.68646289e-05
3.56720052e-05
3.52974186e-05
3.5602362e-05
3.68520431e-05
3.68665161e-05
3.57065487e-05
3.55195899e-05
3.55013379e-05
3.56848457e-05
3.68440705e-05
3.68500897e-05
3.5243373e-05
3.5362068e-05
3.68507703e-05
3.68339039e-05
3.68388719e-05
3.68341432e-05
3.53686892e-05
3.51296869e-05
3.53914857e-05
3.51826538e-05
3.5387326e-05
3.68328804e-05
3.68269791e-05
3.55452734e-05
3.52798858e-05
3.56936583e-05
3.68038308e-05
3.68581375e-05
3.52616193e-05
3.54904178e-05
3.68204454e-05
3.68386459e-05
3.68524581e-05
3.54983112e-05
3.49334498e-05
3.56351308e-05
3.68184223e-05
3.68362506e-05
3.56209464e-05
3.52509308e-05
3.57460294e-05
3.6826569e-05
3.6831342e-05
3.68255988e-05
3.55281372e-05
3.50485392e-05
3.54108014e-05
3.50193908e-05
3.53994759e-05
3.68240304e-05
3.68430016e-05
3.68178329e-05
3.68481532e-05
3.55332202e-05
3.50812357e-05
3.54362246e-05
3.68497436e-05
3.68173281e-05
3.55888974e-05
3.49487726e-05
3.56474984e-05
3.68175149e-05
3.68571915e-05
3.68140809e-05
3.56221439e-05
3.48381824e-05
3.56638958e-05
3.68226675e-05
3.68510613e-05
3.68233342e-05
3.56376118e-05
3.52459261e-05
3.5450287e-05
3.55062285e-05
3.68684167e-05
3.68311011e-05
3.57194458e-05
3.55057802e-05
3.54528445e-05
3.57327634e-05
3.68491968e-05
3.68493099e-05
3.68339177e-05
3.57620918e-05
3.53479974e-05
3.5509481e-05
3.52494203e-05
3.55250953e-05
3.68478283e-05
3.68414406e-05
3.53162024e-05
3.5054319e-05
3.56854388e-05
3.68391763e-05
3.68467158e-05
3.68224076e-05
3.68476675e-05
3.53853672e-05
3.52715663e-05
3.52807551e-05
3.54041828e-05
3.68241216e-05
3.6830916e-05
3.51419318e-05
3.53284683e-05
3.6823129e-05
3.68250031e-05
3.62979427e-05
3.54805787e-05
3.51798107e-05
3.57032096e-05
3.683327e-05
3.68417821e-05
3.55968553e-05
3.52624165e-05
3.56931661e-05
3.68433941e-05
3.68429193e-05
3.68387715e-05
3.57238636e-05
3.53935737e-05
3.54714138e-05
3.54734951e-05
3.52515788e-05
3.56270287e-05
3.68440468e-05
3.68162832e-05
3.68334589e-05
3.68183129e-05
3.52613602e-05
3.47006593e-05
3.5448412e-05
3.67795971e-05
3.68077701e-05
3.64384654e-05
3.5176567e-05
3.50429418e-05
3.60071428e-05
3.67985084e-05
3.68225486e-05
3.52207709e-05
3.5189912e-05
3.68540404e-05
3.68131093e-05
3.57495999e-05
3.54311612e-05
3.5374754e-05
3.55707256e-05
3.68875574e-05
3.68604254e-05
3.52840164e-05
3.47507839e-05
3.52873194e-05
3.69099083e-05
3.69432931e-05
3.69369896e-05
3.69677919e-05
3.69621484e-05
3.51102768e-05
3.47509611e-05
3.49487468e-05
3.49813437e-05
3.71294093e-05
3.71358996e-05
3.51415223e-05
3.46356666e-05
3.50959326e-05
3.70353957e-05
3.70092948e-05
3.6981072e-05
3.68346491e-05
3.45975299e-05
3.6074515e-05
3.68576724e-05
3.67012272e-05
3.6779124e-05
3.67008707e-05
3.67149664e-05
3.66684309e-05
3.66679085e-05
3.66393268e-05
3.66468108e-05
3.66420541e-05
3.66866506e-05
3.67372954e-05
3.69332316e-05
3.72259211e-05
3.70112857e-05
3.68019691e-05
3.65336323e-05
3.63404891e-05
3.61377626e-05
3.59858612e-05
3.5821434e-05
3.56260124e-05
3.55426897e-05
3.55056014e-05
3.53288376e-05
3.52120319e-05
3.50569676e-05
3.50326703e-05
3.47154296e-05
3.45881894e-05
3.40072387e-05
3.40112227e-05
3.32745943e-05
3.65837408e-05
3.55189913e-05
3.5428882e-05
3.44851749e-05
3.41382568e-05
3.3334205e-05
3.27671609e-05
3.20293813e-05
3.13759726e-05
3.12923782e-05
3.11584691e-05
3.34676803e-05
3.56245611e-05
3.65152909e-05
3.77804726e-05
4.00515117e-05
4.60571548e-05
4.64095252e-05
4.76266794e-05
4.82111342e-05
4.92106609e-05
4.96899367e-05
5.05684236e-05
5.12109378e-05
5.22683058e-05
5.3041837e-05
5.44184695e-05
5.56348227e-05
5.71095992e-05
5.81914299e-05
5.95031432e-05
6.04360068e-05
6.15725638e-05
6.23783774e-05
6.33852043e-05
6.41419247e-05
6.5063882e-05
6.56051503e-05
6.64956719e-05
6.72826516e-05
6.8051421e-05
6.83507188e-05
6.89182448e-05
6.95524478e-05
7.00173035e-05
7.00583828e-05
7.02789999e-05
7.11805373e-05
7.15363223e-05
7.15172976e-05
7.17692229e-05
7.24864741e-05
7.26768365e-05
7.2582265e-05
7.269323e-05
7.30200349e-05
7.34679212e-05
7.30535088e-05
7.2969111e-05
7.35800433e-05
7.46582937e-05
7.34717977e-05
7.35798525e-05
7.42349445e-05
7.51332161e-05
7.38409614e-05
7.39984306e-05
7.46355733e-05
7.54910945e-05
7.4411065e-05
7.42862198e-05
7.49184112e-05
7.55561031e-05
7.47141213e-05
7.48474007e-05
7.5249716e-05
7.57356055e-05
7.52622242e-05
7.52894735e-05
7.55458393e-05
7.5910752e-05
7.56759494e-05
7.55870568e-05
7.57723781e-05
7.60707204e-05
7.59128422e-05
7.58495225e-05
7.6030669e-05
7.62071817e-05
)
;

boundaryField
{
    closed
    {
        type            calculated;
        value           nonuniform List<scalar> 0();
    }
    open
    {
        type            calculated;
        value           nonuniform List<scalar> 0();
    }
    sides
    {
        type            empty;
    }
    procBoundary4to3
    {
        type            processor;
        value           uniform 3.54711784e-05;
    }
    procBoundary4to5
    {
        type            processor;
        value           uniform 7.61216156e-05;
    }
}


// ************************************************************************* //
