/*--------------------------------*- C++ -*----------------------------------*\
| =========                 |                                                 |
| \\      /  F ield         | OpenFOAM: The Open Source CFD Toolbox           |
|  \\    /   O peration     | Version:  2306                                  |
|   \\  /    A nd           | Website:  www.openfoam.com                      |
|    \\/     M anipulation  |                                                 |
\*---------------------------------------------------------------------------*/
FoamFile
{
    version     2.0;
    format      ascii;
    arch        "LSB;label=32;scalar=64";
    class       volScalarField;
    location    "0.00072";
    object      Z;
}
// * * * * * * * * * * * * * * * * * * * * * * * * * * * * * * * * * * * * * //

dimensions      [0 0 0 0 0 0 0];

internalField   nonuniform List<scalar> 
531
(
0.0140648057
0.0140711919
0.0146073396
0.0148315559
0.014716922
0.0140789993
0.0140586221
0.014075706
0.0146614859
0.0148107371
0.014743504
0.0148159268
0.0147664779
0.0140756913
0.0140694147
0.0147591868
0.0147633583
0.0140695557
0.014068215
0.014750819
0.0147544319
0.0140620074
0.0140667812
0.0146721807
0.0147856895
0.0146435412
0.0140708962
0.014059661
0.0147578825
0.014760168
0.0140651273
0.0140648367
0.0146523177
0.0147843317
0.0147149546
0.0140654179
0.0140662159
0.0145826244
0.0148245383
0.0147282402
0.0140794174
0.0140590376
0.0140718894
0.014660961
0.0147922063
0.0147617368
0.0147723336
0.0140746292
0.0140794393
0.0147317243
0.0148973748
0.0147561715
0.0140969432
0.0140681772
0.0140876462
0.0147479782
0.0149058753
0.0147638767
0.0140949023
0.0140743568
0.0148180776
0.0148195491
0.0140895324
0.0140796105
0.014801614
0.0148100988
0.0140868451
0.01407909
0.0147974642
0.0148064861
0.0140828449
0.0140764439
0.0147850421
0.0147872659
0.0140717293
0.0140718712
0.0146694886
0.0148044923
0.0147257795
0.0140715961
0.0140667664
0.0146386132
0.0148019865
0.014730383
0.0140679147
0.0140685853
0.0145657012
0.0148342068
0.0147404407
0.0140793661
0.0140624326
0.0140720776
0.014477344
0.0147761221
0.0147618442
0.0147679349
0.0147964854
0.014765905
0.0140769343
0.0140711486
0.0147604785
0.0147707557
0.014076341
0.0140723626
0.0147779124
0.0147841275
0.0140744725
0.01407262
0.0147864655
0.0147869155
0.0140711721
0.0140710513
0.014771588
0.0147697067
0.014064209
0.0140712688
0.0146788946
0.014793935
0.0147125724
0.0140672508
0.0140648728
0.0145871786
0.0147822229
0.0147230814
0.0140655797
0.0140709982
0.014700617
0.0148430632
0.0147629688
0.0140790963
0.0140713901
0.0148116875
0.0148087811
0.0140729895
0.0140750597
0.0147827965
0.0147623843
0.0140609353
0.0140726066
0.0145710974
0.0147541096
0.0147397888
0.0147342052
0.0140598319
0.0140730688
0.0146799866
0.0148108044
0.0147279201
0.0140719807
0.0140694536
0.0147746975
0.0147707231
0.0140607402
0.0140759449
0.0146700498
0.0148186239
0.0147322135
0.0140728384
0.014066318
0.0147784897
0.01475418
0.0140602918
0.0140681299
0.0145947138
0.0147504391
0.0147570784
0.0147140242
0.0140649894
0.0140693565
0.0147790084
0.0147763626
0.0140595683
0.0140721965
0.0146709528
0.014795289
0.0147102847
0.0140641331
0.014064504
0.0146613188
0.0147816479
0.0147175947
0.0140631241
0.0140658324
0.0146746087
0.0147902604
0.0147330125
0.0140638952
0.0140728524
0.0146840109
0.0148610921
0.0147486899
0.0140774865
0.0140756243
0.0140756912
0.0140836692
0.0147759075
0.014861299
0.0147849715
0.0149167521
0.014793675
0.0140950514
0.0140745
0.0140967942
0.0140745292
0.0140946734
0.01477649
0.0148476631
0.0147810464
0.0147727218
0.0140621659
0.0140763945
0.0145562832
0.0147778994
0.0147143866
0.014065519
0.0140649371
0.0146722955
0.0147849585
0.0147283526
0.0140637242
0.0140682344
0.014704777
0.01482132
0.0147377164
0.014070828
0.0140660037
0.0147753528
0.0147728037
0.0140599878
0.0140692354
0.0146742672
0.0147920528
0.0147215671
0.0140617897
0.0140637914
0.0146743564
0.0147901393
0.014710489
0.0140621573
0.0140585331
0.0146306776
0.0147346176
0.0147437805
0.014686547
0.0140684701
0.0140652201
0.0148035708
0.0147770657
0.0140705148
0.0140751062
0.0140717799
0.0140782736
0.0147776833
0.0148364918
0.01477341
0.0148234813
0.0147738125
0.0140704224
0.0140760281
0.0147313841
0.0148048237
0.0146400711
0.0140796371
0.0140622443
0.0148120927
0.0147418318
0.01409043
0.0140643872
0.0140925389
0.014742174
0.0148851802
0.0147100097
0.0140752555
0.0140708554
0.0147171749
0.0148078048
0.0145675138
0.0140774865
0.0140617292
0.0140839028
0.0147371791
0.0148577001
0.0147644524
0.0148633845
0.0147659213
0.0140777696
0.0140737661
0.0140740644
0.0140785359
0.0147422553
0.0148430782
0.0147636805
0.0140662793
0.0140845228
0.0147167446
0.014882274
0.0146984347
0.0140859027
0.0140554355
0.0140938225
0.0147066807
0.0149074526
0.0146868877
0.0140825296
0.0140562462
0.0140854254
0.014705299
0.0148101559
0.0147491938
0.0147449512
0.014056222
0.0140707899
0.0145697648
0.0147416418
0.0147503039
0.0145719469
0.0140626701
0.0140560816
0.0140720243
0.0145273283
0.0147825247
0.0147374795
0.0148050453
0.0147341606
0.0140698734
0.0140761644
0.0147843624
0.0148509804
0.0146699502
0.0140709667
0.0140638308
0.0140741481
0.0140717266
0.0147780301
0.0147982487
0.0148021153
0.0147668608
0.0140774065
0.0140817466
0.0148323265
0.0147867448
0.0140823421
0.0140714581
0.0142644422
0.0147483328
0.0148265865
0.0146535115
0.0140694092
0.014069381
0.0147193311
0.0148020305
0.0146533476
0.0140685775
0.0140566149
0.0140728629
0.0145933449
0.0147737613
0.0147503949
0.0147556682
0.0148039939
0.0147196795
0.014072875
0.0140803427
0.0140741386
0.0140905131
0.0148023791
0.014939103
0.0147598342
0.0141016978
0.0140772159
0.0142223544
0.0148257881
0.0148634821
0.0143733627
0.0140835805
0.0141189172
0.0148110922
0.0148304994
0.0140641
0.0140774621
0.014529624
0.0147623911
0.0147648856
0.0147258748
0.0140588685
0.0140721863
0.0147785064
0.014912666
0.0147715764
0.0140704028
0.0140475446
0.0140684844
0.0140428648
0.0140636469
0.0147927469
0.014889016
0.0148173442
0.0148166467
0.0140080437
0.0140201416
0.0147295074
0.0148607219
0.0147162594
0.0140112049
0.0140218086
0.0140027408
0.0140663834
0.0147359794
0.0142771469
0.0139824268
0.0140447055
0.0139714075
0.0139969739
0.0139528085
0.0139589051
0.013925611
0.0139195897
0.0138873323
0.0138704409
0.0138295553
0.0137963306
0.0137191712
0.013630037
0.0135586638
0.013523866
0.013475349
0.0134371348
0.013392279
0.0133533084
0.0133118351
0.013257227
0.0131552151
0.0129803111
0.0128787649
0.0127944374
0.0127049411
0.0126513911
0.0125944344
0.0126118496
0.0125640127
0.0126259356
0.0125269218
0.0118755321
0.0117697604
0.0118224996
0.0117741481
0.011800713
0.0117849243
0.0118141837
0.0118473522
0.0118818558
0.0117960269
0.0116750091
0.0114943724
0.0111773595
0.0113249893
0.0115220666
0.0118861392
0.0125538361
0.0126342445
0.0126993396
0.0127515744
0.0127748648
0.0128298775
0.0128489255
0.0129089885
0.0129542198
0.0130278117
0.0131166569
0.013242224
0.0133554263
0.013469486
0.0135769479
0.0136792251
0.0137798478
0.0138579833
0.0139394166
0.0140332988
0.0141265187
0.0141314576
0.0141937858
0.0144028628
0.0145203915
0.0143029754
0.0143259721
0.0146904762
0.0147115803
0.0143336592
0.0143294427
0.0147152382
0.0146840238
0.0144764409
0.0145096957
0.0146732374
0.0146307761
0.014573951
0.0145346577
0.0145499406
0.0145593664
0.0144450829
0.0142987032
0.014476099
0.014722417
0.014211813
0.0138446747
0.0144914691
0.0147592014
0.0138763563
0.0136212981
0.0144075705
0.014555361
0.0136956703
0.0136493094
0.0142404301
0.0144008829
0.0137099031
0.0137126009
0.0141197819
0.0142882456
0.013762661
0.0137466094
0.014037327
0.0142046449
0.0138043484
0.0137575385
0.0139631048
0.0141367389
0.0138856551
0.0137629458
0.0138730359
0.0140723984
)
;

boundaryField
{
    closed
    {
        type            zeroGradient;
    }
    open
    {
        type            zeroGradient;
    }
    sides
    {
        type            empty;
    }
    procBoundary4to3
    {
        type            processor;
        value           uniform 0.0147480945;
    }
    procBoundary4to5
    {
        type            processor;
        value           uniform 0.0139645481;
    }
}


// ************************************************************************* //
