/*--------------------------------*- C++ -*----------------------------------*\
| =========                 |                                                 |
| \\      /  F ield         | OpenFOAM: The Open Source CFD Toolbox           |
|  \\    /   O peration     | Version:  2306                                  |
|   \\  /    A nd           | Website:  www.openfoam.com                      |
|    \\/     M anipulation  |                                                 |
\*---------------------------------------------------------------------------*/
FoamFile
{
    version     2.0;
    format      ascii;
    arch        "LSB;label=32;scalar=64";
    class       volScalarField;
    location    "0.00042";
    object      prefDZ_T;
}
// * * * * * * * * * * * * * * * * * * * * * * * * * * * * * * * * * * * * * //

dimensions      [1 -1 -1 -1 0 0 0];

internalField   nonuniform List<scalar> 
531
(
-1.22874406e-09
-1.20322168e-09
-1.18747095e-09
-1.18900654e-09
-1.2343254e-09
-1.22572415e-09
-1.22849858e-09
-1.19719962e-09
-1.19301696e-09
-1.19171473e-09
-1.18884175e-09
-1.19480193e-09
-1.23018719e-09
-1.20789645e-09
-1.19006269e-09
-1.22419962e-09
-1.22741336e-09
-1.19676983e-09
-1.18900889e-09
-1.21900771e-09
-1.22699711e-09
-1.21796927e-09
-1.19445544e-09
-1.19104503e-09
-1.1895208e-09
-1.1892604e-09
-1.23351171e-09
-1.22702791e-09
-1.2117091e-09
-1.18851418e-09
-1.18837051e-09
-1.23326073e-09
-1.22766921e-09
-1.19737147e-09
-1.18798419e-09
-1.20291237e-09
-1.22854902e-09
-1.22910178e-09
-1.192918e-09
-1.19098216e-09
-1.19967077e-09
-1.20786029e-09
-1.20349879e-09
-1.19902846e-09
-1.20277715e-09
-1.20795646e-09
-1.20573002e-09
-1.2021972e-09
-1.20279364e-09
-1.20466401e-09
-1.20466117e-09
-1.20386514e-09
-1.20379733e-09
-1.20404386e-09
-1.20411265e-09
-1.20404605e-09
-1.204011e-09
-1.20402591e-09
-1.20403912e-09
-1.20403645e-09
-1.20403224e-09
-1.20403245e-09
-1.2040334e-09
-1.2040334e-09
-1.20403318e-09
-1.20403315e-09
-1.20403322e-09
-1.20403321e-09
-1.20403317e-09
-1.20403318e-09
-1.20403319e-09
-1.20403318e-09
-1.20403318e-09
-1.20403318e-09
-1.20403318e-09
-1.20403318e-09
-1.20403318e-09
-1.20403318e-09
-1.20403318e-09
-1.20403318e-09
-1.20403318e-09
-1.20403318e-09
-1.20403318e-09
-1.20403318e-09
-1.20403318e-09
-1.20403318e-09
-1.20403318e-09
-1.20403318e-09
-1.20403318e-09
-1.20403318e-09
-1.20403318e-09
-1.20403318e-09
-1.20403318e-09
-1.20403318e-09
-1.20403318e-09
-1.20403318e-09
-1.20403318e-09
-1.20403318e-09
-1.20403318e-09
-1.20403318e-09
-1.20403318e-09
-1.20403318e-09
-1.20403318e-09
-1.20403318e-09
-1.20403318e-09
-1.20403318e-09
-1.20403318e-09
-1.20403318e-09
-1.20403318e-09
-1.20403318e-09
-1.20403318e-09
-1.20403318e-09
-1.20403318e-09
-1.20403318e-09
-1.20403318e-09
-1.20403318e-09
-1.20403318e-09
-1.20403318e-09
-1.20403318e-09
-1.20403318e-09
-1.20403318e-09
-1.20403318e-09
-1.20403318e-09
-1.20403318e-09
-1.20403318e-09
-1.20403318e-09
-1.20403318e-09
-1.20403318e-09
-1.20403318e-09
-1.20403318e-09
-1.20403318e-09
-1.20403318e-09
-1.20403318e-09
-1.20403318e-09
-1.20403318e-09
-1.20403318e-09
-1.20403318e-09
-1.20403318e-09
-1.20403318e-09
-1.20403318e-09
-1.20403318e-09
-1.20403318e-09
-1.20403318e-09
-1.20403318e-09
-1.20403318e-09
-1.20403318e-09
-1.20403318e-09
-1.20403318e-09
-1.20403318e-09
-1.20403318e-09
-1.20403318e-09
-1.20403318e-09
-1.20403318e-09
-1.20403318e-09
-1.20403318e-09
-1.20403318e-09
-1.20403318e-09
-1.20403318e-09
-1.20403318e-09
-1.20403318e-09
-1.20403318e-09
-1.20403318e-09
-1.20403318e-09
-1.20403318e-09
-1.20403318e-09
-1.20403318e-09
-1.20403318e-09
-1.20403318e-09
-1.20403318e-09
-1.20403318e-09
-1.20403318e-09
-1.20403318e-09
-1.20403318e-09
-1.20403318e-09
-1.20403318e-09
-1.20403318e-09
-1.20403318e-09
-1.20403318e-09
-1.20403318e-09
-1.20403318e-09
-1.20403318e-09
-1.20403318e-09
-1.20403318e-09
-1.20403318e-09
-1.20403318e-09
-1.20403318e-09
-1.20403318e-09
-1.20403318e-09
-1.20403318e-09
-1.20403318e-09
-1.20403318e-09
-1.20403318e-09
-1.20403318e-09
-1.20403318e-09
-1.20403318e-09
-1.20403318e-09
-1.20403318e-09
-1.20403318e-09
-1.20403318e-09
-1.20403318e-09
-1.20403318e-09
-1.20403318e-09
-1.20403318e-09
-1.20403318e-09
-1.20403318e-09
-1.20403318e-09
-1.20403318e-09
-1.20403318e-09
-1.20403318e-09
-1.20403318e-09
-1.20403318e-09
-1.20403318e-09
-1.20403318e-09
-1.20403318e-09
-1.20403318e-09
-1.20403318e-09
-1.20403318e-09
-1.20403318e-09
-1.20403318e-09
-1.20403318e-09
-1.20403318e-09
-1.20403318e-09
-1.20403318e-09
-1.20403318e-09
-1.20403318e-09
-1.20403318e-09
-1.20403318e-09
-1.20403318e-09
-1.20403318e-09
-1.20403318e-09
-1.20403318e-09
-1.20403318e-09
-1.20403318e-09
-1.20403318e-09
-1.20403318e-09
-1.20403318e-09
-1.20403318e-09
-1.20403318e-09
-1.20403318e-09
-1.20403318e-09
-1.20403318e-09
-1.20403318e-09
-1.20403318e-09
-1.20403318e-09
-1.20403318e-09
-1.20403318e-09
-1.20403318e-09
-1.20403318e-09
-1.20403318e-09
-1.20403318e-09
-1.20403318e-09
-1.20403318e-09
-1.20403318e-09
-1.20403318e-09
-1.20403318e-09
-1.20403318e-09
-1.20403318e-09
-1.20403318e-09
-1.20403318e-09
-1.20403318e-09
-1.20403318e-09
-1.20403318e-09
-1.20403318e-09
-1.20403318e-09
-1.20403318e-09
-1.20403318e-09
-1.20403318e-09
-1.20403318e-09
-1.20403318e-09
-1.20403318e-09
-1.20403318e-09
-1.20403318e-09
-1.20403318e-09
-1.20403318e-09
-1.20403318e-09
-1.20403318e-09
-1.20403318e-09
-1.20403318e-09
-1.20403318e-09
-1.20403318e-09
-1.20403318e-09
-1.20403318e-09
-1.20403318e-09
-1.20403318e-09
-1.20403318e-09
-1.20403318e-09
-1.20403318e-09
-1.20403318e-09
-1.20403318e-09
-1.20403318e-09
-1.20403318e-09
-1.20403318e-09
-1.20403318e-09
-1.20403318e-09
-1.20403318e-09
-1.20403318e-09
-1.20403318e-09
-1.20403318e-09
-1.20403318e-09
-1.20403318e-09
-1.20403318e-09
-1.20403318e-09
-1.20403318e-09
-1.20403318e-09
-1.20403318e-09
-1.20403318e-09
-1.20403318e-09
-1.20403318e-09
-1.20403318e-09
-1.20403318e-09
-1.20403318e-09
-1.20403318e-09
-1.20403318e-09
-1.20403318e-09
-1.20403318e-09
-1.20403318e-09
-1.20403318e-09
-1.20403318e-09
-1.20403318e-09
-1.20403318e-09
-1.20403318e-09
-1.20403318e-09
-1.20403318e-09
-1.20403318e-09
-1.20403318e-09
-1.20403318e-09
-1.20403318e-09
-1.20403318e-09
-1.20403318e-09
-1.20403318e-09
-1.20403318e-09
-1.20403318e-09
-1.20403318e-09
-1.20403318e-09
-1.20403318e-09
-1.20403318e-09
-1.20403318e-09
-1.20403318e-09
-1.20403318e-09
-1.20403318e-09
-1.20403318e-09
-1.20403318e-09
-1.20403318e-09
-1.20403318e-09
-1.20403318e-09
-1.20403318e-09
-1.20403318e-09
-1.20403318e-09
-1.20403318e-09
-1.20403318e-09
-1.20403318e-09
-1.20403318e-09
-1.20403318e-09
-1.20403318e-09
-1.20403318e-09
-1.20403318e-09
-1.20403318e-09
-1.20403318e-09
-1.20403318e-09
-1.20403318e-09
-1.20403318e-09
-1.20403318e-09
-1.20403318e-09
-1.20403318e-09
-1.20403318e-09
-1.20403318e-09
-1.20403318e-09
-1.20403318e-09
-1.20403318e-09
-1.20403318e-09
-1.20403318e-09
-1.20403318e-09
-1.20403318e-09
-1.20403318e-09
-1.20403318e-09
-1.20403318e-09
-1.20403318e-09
-1.20403318e-09
-1.20403318e-09
-1.20403318e-09
-1.20403318e-09
-1.20403318e-09
-1.20403318e-09
-1.20403318e-09
-1.20403318e-09
-1.20403318e-09
-1.20403318e-09
-1.20403318e-09
-1.20403318e-09
-1.20403318e-09
-1.20403318e-09
-1.20403318e-09
-1.20403318e-09
-1.20403318e-09
-1.20403318e-09
-1.20403318e-09
-1.20403318e-09
-1.20403318e-09
-1.20403318e-09
-1.20403318e-09
-1.20403318e-09
-1.20403318e-09
-1.20403318e-09
-1.20403318e-09
-1.20403318e-09
-1.20403318e-09
-1.20403318e-09
-1.20403318e-09
-1.20403318e-09
-1.20403318e-09
-1.20403318e-09
-1.20403318e-09
-1.20403318e-09
-1.20403318e-09
-1.20403318e-09
-1.20403318e-09
-1.20403318e-09
-1.20403318e-09
-1.20403318e-09
-1.20403318e-09
-1.20403318e-09
-1.20403318e-09
-1.20403318e-09
-1.20403318e-09
-1.20403318e-09
-1.20403318e-09
-1.20403318e-09
-1.20403318e-09
-1.20403318e-09
-1.20403318e-09
-1.20403318e-09
-1.20403319e-09
-1.20403318e-09
-1.20403315e-09
-1.20403315e-09
-1.20403326e-09
-1.20403329e-09
-1.20403302e-09
-1.20403281e-09
-1.20403337e-09
-1.20403425e-09
-1.20403347e-09
-1.20403036e-09
-1.20403041e-09
-1.20403965e-09
-1.20404147e-09
-1.20402472e-09
-1.20401066e-09
-1.20403169e-09
-1.20408898e-09
-1.20408931e-09
-1.20391936e-09
-1.20386904e-09
-1.20413508e-09
-1.20446553e-09
-1.20419184e-09
-1.2030395e-09
-1.20302166e-09
-1.20590634e-09
-1.20646579e-09
-1.20177068e-09
-1.19920962e-09
-1.20548601e-09
-1.21292352e-09
-1.20449394e-09
-1.19549882e-09
-1.20059708e-09
-1.21265349e-09
-1.20351726e-09
-1.19019189e-09
-1.19327861e-09
-1.23220755e-09
-1.23150197e-09
-1.19156612e-09
-1.19008752e-09
-1.22491242e-09
-1.2288678e-09
-1.20605327e-09
-1.18892295e-09
-1.18903375e-09
-1.23235926e-09
-1.22817561e-09
-1.20852114e-09
-1.19001149e-09
-1.18817091e-09
-1.19000771e-09
-1.23405134e-09
-1.23050503e-09
-1.19439685e-09
-1.18954391e-09
-1.20696887e-09
-1.22901643e-09
-1.23229468e-09
-1.19150521e-09
-1.19092629e-09
-1.228732e-09
-1.22910614e-09
-1.20247171e-09
-1.18804467e-09
-1.18743649e-09
-1.20622741e-09
-1.22908374e-09
-1.22771009e-09
-1.20450661e-09
-1.18990174e-09
-1.1876514e-09
-1.18758239e-09
-1.21963601e-09
-1.22788632e-09
-1.23049967e-09
-1.19238806e-09
-1.19188562e-09
-1.23370646e-09
-1.23131103e-09
-1.19211689e-09
-1.19042022e-09
-1.22620559e-09
-1.22962213e-09
-1.20237538e-09
-1.18801349e-09
-1.18955898e-09
-1.23396309e-09
-1.23322074e-09
-1.19143209e-09
-1.19048101e-09
-1.22666628e-09
-1.2298367e-09
-1.20231965e-09
-1.18875922e-09
-1.18981234e-09
-1.23335733e-09
)
;

boundaryField
{
    closed
    {
        type            calculated;
        value           nonuniform List<scalar> 0();
    }
    open
    {
        type            calculated;
        value           nonuniform List<scalar> 0();
    }
    sides
    {
        type            empty;
    }
    procBoundary3to2
    {
        type            processor;
        value           uniform -1.21871227e-09;
    }
    procBoundary3to4
    {
        type            processor;
        value           uniform -1.22857247e-09;
    }
}


// ************************************************************************* //
