/*--------------------------------*- C++ -*----------------------------------*\
| =========                 |                                                 |
| \\      /  F ield         | OpenFOAM: The Open Source CFD Toolbox           |
|  \\    /   O peration     | Version:  2306                                  |
|   \\  /    A nd           | Website:  www.openfoam.com                      |
|    \\/     M anipulation  |                                                 |
\*---------------------------------------------------------------------------*/
FoamFile
{
    version     2.0;
    format      ascii;
    arch        "LSB;label=32;scalar=64";
    class       volScalarField;
    location    "0.00042";
    object      sourcePV;
}
// * * * * * * * * * * * * * * * * * * * * * * * * * * * * * * * * * * * * * //

dimensions      [1 -3 -1 0 0 0 0];

internalField   nonuniform List<scalar> 
531
(
0.00506433461
0.0840598343
0.164847389
0.141082835
0.00255764308
0.00647956456
0.0152932998
0.10360765
0.121181905
0.123923079
0.148583092
0.111920788
0.00438228861
0.0701235228
0.133286355
0.027968027
0.00568512037
0.10581133
0.142141473
0.0407645956
0.00588439759
0.0422242996
0.11419323
0.128119711
0.146160035
0.145626362
0.00282707859
0.00587228103
0.0590925225
0.152829132
0.153490743
0.00293767457
0.00556544632
0.103344554
0.15461481
0.0847667989
0.00515995987
0.014711706
0.119195039
0.13064378
0.0955263466
0.0702300572
0.0833030561
0.097783472
0.0855264737
0.0699626944
0.0764853173
0.0872922399
0.0854048919
0.0796561321
0.0796597861
0.082064452
0.0822666126
0.0815106908
0.0812986574
0.0814982867
0.0816026268
0.0815561397
0.0815148268
0.0815223295
0.0815344555
0.0815335164
0.0815303539
0.0815301524
0.0815306935
0.0815307196
0.0815304236
0.081530441
0.0815305114
0.0815304771
0.0815304435
0.081530447
0.0815304513
0.0815304469
0.0815304438
0.0815304438
0.0815304438
0.0815304433
0.081530443
0.081530443
0.0815304429
0.0815304429
0.0815304428
0.0815304428
0.0815304428
0.0815304428
0.0815304428
0.0815304428
0.0815304428
0.0815304428
0.0815304428
0.0815304428
0.0815304428
0.0815304428
0.0815304428
0.0815304428
0.0815304428
0.0815304428
0.0815304428
0.0815304428
0.0815304428
0.0815304428
0.0815304428
0.0815304428
0.0815304428
0.0815304428
0.0815304428
0.0815304428
0.0815304428
0.0815304428
0.0815304428
0.0815304428
0.0815304428
0.0815304428
0.0815304428
0.0815304428
0.0815304428
0.0815304427
0.0815304427
0.0815304429
0.081530443
0.0815304428
0.0815304426
0.0815304427
0.081530443
0.081530443
0.0815304427
0.0815304427
0.0815304428
0.0815304429
0.0815304428
0.0815304428
0.0815304428
0.0815304428
0.0815304428
0.0815304428
0.0815304428
0.0815304428
0.0815304428
0.0815304428
0.0815304428
0.0815304428
0.0815304428
0.0815304428
0.0815304428
0.0815304428
0.0815304428
0.0815304428
0.0815304428
0.0815304428
0.0815304428
0.0815304428
0.0815304428
0.0815304428
0.0815304428
0.0815304428
0.0815304428
0.0815304428
0.0815304428
0.0815304428
0.0815304428
0.0815304428
0.0815304428
0.0815304428
0.0815304428
0.0815304428
0.0815304428
0.0815304428
0.0815304428
0.0815304428
0.0815304428
0.0815304428
0.0815304428
0.0815304428
0.0815304428
0.0815304428
0.0815304428
0.0815304428
0.0815304428
0.0815304428
0.0815304428
0.0815304428
0.0815304428
0.0815304428
0.0815304428
0.0815304428
0.0815304428
0.0815304428
0.0815304428
0.0815304428
0.0815304428
0.0815304428
0.0815304428
0.0815304428
0.0815304428
0.0815304428
0.0815304428
0.0815304428
0.0815304428
0.0815304428
0.0815304428
0.0815304428
0.0815304428
0.0815304428
0.0815304428
0.0815304428
0.0815304428
0.0815304428
0.0815304428
0.0815304428
0.0815304428
0.0815304428
0.0815304428
0.0815304428
0.0815304428
0.0815304428
0.0815304428
0.0815304428
0.0815304428
0.0815304428
0.0815304428
0.0815304428
0.0815304428
0.0815304428
0.0815304428
0.0815304428
0.0815304428
0.0815304428
0.0815304428
0.0815304428
0.0815304428
0.0815304428
0.0815304428
0.0815304428
0.0815304428
0.0815304428
0.0815304428
0.0815304428
0.0815304428
0.0815304428
0.0815304428
0.0815304428
0.0815304428
0.0815304428
0.0815304428
0.0815304428
0.0815304428
0.0815304428
0.0815304428
0.0815304428
0.0815304428
0.0815304428
0.0815304428
0.0815304428
0.0815304428
0.0815304428
0.0815304428
0.0815304428
0.0815304428
0.0815304428
0.0815304428
0.0815304428
0.0815304428
0.0815304428
0.0815304428
0.0815304428
0.0815304428
0.0815304428
0.0815304428
0.0815304428
0.0815304428
0.0815304428
0.0815304428
0.0815304428
0.0815304428
0.0815304428
0.0815304428
0.0815304428
0.0815304428
0.0815304428
0.0815304428
0.0815304428
0.0815304428
0.0815304428
0.0815304428
0.0815304428
0.0815304428
0.0815304428
0.0815304428
0.0815304428
0.0815304428
0.0815304428
0.0815304428
0.0815304428
0.0815304428
0.0815304428
0.0815304428
0.0815304428
0.0815304428
0.0815304428
0.0815304428
0.0815304428
0.0815304428
0.0815304428
0.0815304428
0.0815304428
0.0815304428
0.0815304428
0.0815304428
0.0815304428
0.0815304428
0.0815304428
0.0815304428
0.0815304428
0.0815304428
0.0815304428
0.0815304428
0.0815304428
0.0815304428
0.0815304428
0.0815304428
0.0815304428
0.0815304428
0.0815304428
0.0815304428
0.0815304428
0.0815304428
0.0815304428
0.0815304428
0.0815304428
0.0815304428
0.0815304428
0.0815304428
0.0815304428
0.0815304428
0.0815304428
0.0815304428
0.0815304428
0.0815304428
0.0815304428
0.0815304428
0.0815304428
0.0815304428
0.0815304428
0.0815304428
0.0815304428
0.0815304428
0.0815304428
0.0815304428
0.0815304428
0.0815304428
0.0815304428
0.0815304428
0.0815304428
0.0815304428
0.0815304428
0.0815304428
0.0815304428
0.0815304428
0.0815304428
0.0815304428
0.0815304428
0.0815304428
0.0815304428
0.0815304428
0.0815304428
0.0815304428
0.0815304428
0.0815304428
0.0815304428
0.0815304428
0.0815304428
0.0815304428
0.0815304428
0.0815304428
0.0815304428
0.0815304428
0.0815304428
0.0815304428
0.0815304428
0.0815304428
0.0815304428
0.0815304428
0.0815304428
0.0815304428
0.0815304428
0.0815304427
0.0815304429
0.081530443
0.0815304427
0.0815304423
0.0815304429
0.0815304441
0.0815304431
0.08153044
0.081530441
0.0815304479
0.0815304477
0.0815304355
0.0815304368
0.0815304487
0.0815304531
0.0815304394
0.0815304306
0.0815304406
0.0815304552
0.0815304502
0.0815304323
0.0815304356
0.0815304469
0.0815304497
0.0815304417
0.0815304377
0.0815304417
0.0815304454
0.0815304442
0.0815304418
0.0815304419
0.0815304431
0.0815304432
0.0815304428
0.0815304427
0.0815304426
0.0815304427
0.0815304433
0.0815304434
0.0815304417
0.0815304408
0.0815304454
0.0815304502
0.0815304402
0.0815304171
0.0815304283
0.0815305354
0.08153054
0.0815301942
0.0815300986
0.0815309355
0.0815315694
0.0815298733
0.0815272007
0.0815295865
0.0815390456
0.0815389034
0.0815109039
0.0815054331
0.0815562827
0.0815991925
0.0815353737
0.0813621799
0.0813612431
0.0818783271
0.082032435
0.0812254822
0.0802300198
0.0810576779
0.0845947593
0.0846516178
0.075944104
0.0742992699
0.0886182563
0.0970457893
0.0772083345
0.0560554036
0.0802117303
0.110371488
0.0925078699
0.0566741187
0.0832127955
0.137232791
0.118197345
0.00345287386
0.00375462281
0.125258891
0.141965955
0.0257134182
0.00500796057
0.0756072354
0.154268708
0.151899307
0.00725617563
0.00533114905
0.0682524451
0.136701822
0.160883347
0.142572748
0.00259570879
0.00422608589
0.114247642
0.146467279
0.0728242382
0.00494781467
0.00660936385
0.126293814
0.135006448
0.0165069727
0.00489013983
0.0865911729
0.157432993
0.161772373
0.0749824824
0.0049171516
0.00554862834
0.0803652948
0.138978508
0.162195859
0.162466159
0.0387593131
0.00547181623
0.0106725749
0.1228165
0.126050079
0.00418179333
0.00384344409
0.123805108
0.13976038
0.02261875
0.00465065938
0.0867888744
0.163050797
0.144844434
0.00373235784
0.00295339194
0.127290725
0.140385125
0.0213215077
0.0045502002
0.0870159968
0.156861467
0.140910519
0.00508272531
)
;

boundaryField
{
    closed
    {
        type            calculated;
        value           nonuniform List<scalar> 0();
    }
    open
    {
        type            calculated;
        value           nonuniform List<scalar> 0();
    }
    sides
    {
        type            empty;
    }
    procBoundary3to2
    {
        type            processor;
        value           uniform 0;
    }
    procBoundary3to4
    {
        type            processor;
        value           uniform 0;
    }
}


// ************************************************************************* //
