/*--------------------------------*- C++ -*----------------------------------*\
| =========                 |                                                 |
| \\      /  F ield         | OpenFOAM: The Open Source CFD Toolbox           |
|  \\    /   O peration     | Version:  2306                                  |
|   \\  /    A nd           | Website:  www.openfoam.com                      |
|    \\/     M anipulation  |                                                 |
\*---------------------------------------------------------------------------*/
FoamFile
{
    version     2.0;
    format      ascii;
    arch        "LSB;label=32;scalar=64";
    class       volScalarField;
    location    "0.0001";
    object      prefDZ_H;
}
// * * * * * * * * * * * * * * * * * * * * * * * * * * * * * * * * * * * * * //

dimensions      [1 -1 -1 0 0 0 0];

internalField   nonuniform List<scalar> 
531
(
0.000107840092
0.000107840092
0.000107840096
0.000107840097
0.000107840095
0.000107840095
0.000107840096
0.000107840096
0.000107840095
0.000107840095
0.000107840095
0.000107840095
0.000107840095
0.000107840095
0.000107840095
0.000107840095
0.000107840095
0.000107840095
0.000107840095
0.000107840095
0.000107840095
0.000107840095
0.000107840095
0.000107840095
0.000107840095
0.000107840095
0.000107840095
0.000107840095
0.000107840095
0.000107840095
0.000107840095
0.000107840095
0.000107840095
0.000107840095
0.000107840095
0.000107840095
0.000107840095
0.000107840095
0.000107840095
0.000107840095
0.000107840095
0.000107840095
0.000107840095
0.000107840095
0.000107840095
0.000107840095
0.000107840095
0.000107840095
0.000107840095
0.000107840095
0.000107840095
0.000107840095
0.000107840095
0.000107840095
0.000107840095
0.000107840095
0.000107840095
0.000107840095
0.000107840095
0.000107840095
0.000107840095
0.000107840095
0.000107840095
0.000107840095
0.000107840095
0.000107840095
0.000107840095
0.000107840095
0.000107840095
0.000107840095
0.000107840095
0.000107840095
0.000107840095
0.000107840095
0.000107840095
0.000107840095
0.000107840095
0.000107840095
0.000107840095
0.000107840095
0.000107840095
0.000107840095
0.000107840095
0.000107840095
0.000107840095
0.000107840095
0.000107840095
0.000107840095
0.000107840095
0.000107840095
0.000107840095
0.000107840095
0.000107840095
0.000107840095
0.000107840095
0.000107840095
0.000107840095
0.000107840095
0.000107840095
0.000107840095
0.000107840095
0.000107840095
0.000107840095
0.000107840095
0.000107840095
0.000107840095
0.000107840095
0.000107840095
0.000107840095
0.000107840095
0.000107840095
0.000107840095
0.000107840095
0.000107840095
0.000107840095
0.000107840095
0.000107840095
0.000107840095
0.000107840095
0.000107840095
0.000107840095
0.000107840095
0.000107840095
0.000107840095
0.000107840095
0.000107840095
0.000107840095
0.000107840095
0.000107840095
0.000107840095
0.000107840095
0.000107840095
0.000107840095
0.000107840095
0.000107840095
0.000107840095
0.000107840095
0.000107840095
0.000107840095
0.000107840095
0.000107840095
0.000107840095
0.000107840095
0.000107840095
0.000107840095
0.000107840095
0.000107840095
0.000107840095
0.000107840095
0.000107840095
0.000107840095
0.000107840095
0.000107840095
0.000107840095
0.000107840095
0.000107840095
0.000107840095
0.000107840095
0.000107840095
0.000107840095
0.000107840095
0.000107840095
0.000107840095
0.000107840095
0.000107840095
0.000107840095
0.000107840095
0.000107840095
0.000107840095
0.000107840095
0.000107840095
0.000107840095
0.000107840095
0.000107840095
0.000107840095
0.000107840095
0.000107840095
0.000107840095
0.000107840095
0.000107840095
0.000107840095
0.000107840095
0.000107840095
0.000107840095
0.000107840095
0.000107840095
0.000107840095
0.000107840095
0.000107840095
0.000107840095
0.000107840095
0.000107840095
0.000107840095
0.000107840095
0.000107840095
0.000107840095
0.000107840095
0.000107840095
0.000107840095
0.000107840095
0.000107840095
0.000107840095
0.000107840095
0.000107840095
0.000107840095
0.000107840095
0.000107840095
0.000107840095
0.000107840095
0.000107840095
0.000107840095
0.000107840095
0.000107840095
0.000107840095
0.000107840095
0.000107840095
0.000107840095
0.000107840095
0.000107840095
0.000107840095
0.000107840095
0.000107840095
0.000107840095
0.000107840095
0.000107840095
0.000107840095
0.000107840095
0.000107840095
0.000107840095
0.000107840095
0.000107840095
0.000107840095
0.000107840095
0.000107840095
0.000107840095
0.000107840095
0.000107840095
0.000107840095
0.000107840095
0.000107840095
0.000107840095
0.000107840095
0.000107840095
0.000107840095
0.000107840095
0.000107840095
0.000107840095
0.000107840095
0.000107840095
0.000107840095
0.000107840095
0.000107840095
0.000107840095
0.000107840095
0.000107840095
0.000107840095
0.000107840095
0.000107840095
0.000107840095
0.000107840095
0.000107840095
0.000107840095
0.000107840095
0.000107840095
0.000107840095
0.000107840095
0.000107840095
0.000107840095
0.000107840095
0.000107840095
0.000107840095
0.000107840095
0.000107840095
0.000107840095
0.000107840095
0.000107840095
0.000107840095
0.000107840095
0.000107840095
0.000107840095
0.000107840095
0.000107840095
0.000107840095
0.000107840095
0.000107840095
0.000107840095
0.000107840095
0.000107840095
0.000107840095
0.000107840095
0.000107840095
0.000107840095
0.000107840095
0.000107840095
0.000107840095
0.000107840095
0.000107840095
0.000107840095
0.000107840095
0.000107840095
0.000107840095
0.000107840095
0.000107840095
0.000107840095
0.000107840095
0.000107840095
0.000107840095
0.000107840095
0.000107840095
0.000107840095
0.000107840095
0.000107840095
0.000107840095
0.000107840095
0.000107840095
0.000107840095
0.000107840095
0.000107840095
0.000107840095
0.000107840095
0.000107840095
0.000107840095
0.000107840095
0.000107840095
0.000107840095
0.000107840095
0.000107840095
0.000107840095
0.000107840095
0.000107840095
0.000107840095
0.000107840095
0.000107840095
0.000107840095
0.000107840095
0.000107840095
0.000107840095
0.000107840095
0.000107840095
0.000107840095
0.000107840095
0.000107840095
0.000107840095
0.000107840095
0.000107840095
0.000107840095
0.000107840095
0.000107840095
0.000107840095
0.000107840095
0.000107840095
0.000107840095
0.000107840095
0.000107840095
0.000107840095
0.000107840095
0.000107840095
0.000107840095
0.000107840095
0.000107840095
0.000107840095
0.000107840095
0.000107840095
0.000107840095
0.000107840095
0.000107840095
0.000107840095
0.000107840095
0.000107840095
0.000107840095
0.000107840095
0.000107840095
0.000107840095
0.000107840095
0.000107840095
0.000107840095
0.000107840095
0.000107840095
0.000107840095
0.000107840095
0.000107840095
0.000107840095
0.000107840095
0.000107840095
0.000107840095
0.000107840095
0.000107840094
0.000107840094
0.000107840093
0.000107840092
0.00010784009
0.000107840086
0.000107840081
0.000107840073
0.000107840062
0.000107840044
0.000107840016
0.000107839976
0.000107839916
0.000107839828
0.0001078397
0.000107839514
0.000107839246
0.000107838867
0.00010783833
0.000107837586
0.000107836533
0.00010783515
0.000107833241
0.000107830658
0.000107826711
0.000107823745
0.000107821212
0.000107807554
0.000107778502
0.000107794415
0.000107905338
0.000107808259
0.000107499089
0.000107300397
0.000110048714
0.000111214291
0.000107065994
0.00010579036
0.000106815073
0.000111354832
0.000111380237
0.000111327343
0.000111457223
0.000111494806
0.000111740987
0.000111854948
0.000112243422
0.000112429192
0.000113178597
0.000108884539
0.000109377458
0.000109142193
0.000110695359
0.000115252011
0.00011912338
0.000119525166
0.000123394195
0.000122285552
0.00012539747
0.000128411141
0.000127366524
0.000128885855
0.000135619927
0.000137593224
0.000123774068
0.000135057931
0.000146767583
0.000151774986
0.000156294925
0.000161830094
0.000165533013
0.000172582356
0.000178305387
0.000187468243
0.000194813481
0.000202804305
0.00021019057
0.000216712677
0.000225289786
0.000231630848
0.000238148981
0.000243659181
0.000249785864
0.000255203036
0.000260791738
0.000265711113
0.000270698281
0.000275251446
0.000279899162
0.00028449347
0.000289023122
0.000293192979
0.000297215207
0.000300909265
0.000304477437
0.00030781959
0.000311143938
0.000314324969
0.000317288812
0.000320056447
0.00032263235
0.00032493938
0.000327277677
0.000329623199
0.000331706589
0.000333762733
0.000335438045
0.000337229473
0.000338692142
0.0003402322
0.000341493549
0.000342869512
0.000343939775
0.000345161183
0.000346129421
0.000347191381
0.000348122908
0.000349072425
0.000349882168
0.000350687336
0.000351532018
0.000352337291
0.00035311468
0.000353827983
0.000354521538
0.000355147091
0.000355788081
0.000356314701
0.00035689578
0.00035736734
0.00035788476
0.000358302747
0.000358802227
0.000359190136
0.000359623266
0.000359957176
0.000360337318
0.000360629371
0.000360977731
0.000361240719
0.000361566808
0.000361803703
0.000362116423
0.00036234861
0.000362674032
)
;

boundaryField
{
    closed
    {
        type            calculated;
        value           nonuniform List<scalar> 0();
    }
    open
    {
        type            calculated;
        value           nonuniform List<scalar> 0();
    }
    sides
    {
        type            empty;
    }
    procBoundary4to3
    {
        type            processor;
        value           uniform 0.000107840101;
    }
    procBoundary4to5
    {
        type            processor;
        value           uniform 0.000362908431;
    }
}


// ************************************************************************* //
