/*--------------------------------*- C++ -*----------------------------------*\
| =========                 |                                                 |
| \\      /  F ield         | OpenFOAM: The Open Source CFD Toolbox           |
|  \\    /   O peration     | Version:  2306                                  |
|   \\  /    A nd           | Website:  www.openfoam.com                      |
|    \\/     M anipulation  |                                                 |
\*---------------------------------------------------------------------------*/
FoamFile
{
    version     2.0;
    format      ascii;
    arch        "LSB;label=32;scalar=64";
    class       volScalarField;
    location    "0.00022";
    object      mu;
}
// * * * * * * * * * * * * * * * * * * * * * * * * * * * * * * * * * * * * * //

dimensions      [1 -1 -1 0 0 0 0];

internalField   nonuniform List<scalar> 
3816
(
1.98807525e-05
1.98130389e-05
1.9798613e-05
1.97985415e-05
1.97985359e-05
1.97985358e-05
1.97985358e-05
1.97985358e-05
1.97985358e-05
1.97985358e-05
1.97985358e-05
1.97985358e-05
1.97985358e-05
1.97985358e-05
1.97985358e-05
1.97985358e-05
1.97985358e-05
1.97985358e-05
1.97985358e-05
1.97985358e-05
1.97985358e-05
1.97985358e-05
1.97985358e-05
1.97985358e-05
1.97985358e-05
1.97985358e-05
1.97985358e-05
1.97985358e-05
1.97985358e-05
1.97985358e-05
1.97985358e-05
1.97985358e-05
1.97985358e-05
1.97985358e-05
1.97985358e-05
1.97985358e-05
1.97985358e-05
1.97985358e-05
1.97985358e-05
1.97985358e-05
1.97985358e-05
1.97985358e-05
1.97985358e-05
1.97985358e-05
1.97985358e-05
1.97985358e-05
1.97985358e-05
1.97985358e-05
1.97985358e-05
1.97985358e-05
1.97985358e-05
1.97985358e-05
1.97985358e-05
1.97985358e-05
1.97985358e-05
1.97985358e-05
1.97985358e-05
1.97985358e-05
1.97985358e-05
1.97985358e-05
1.97985358e-05
1.97985358e-05
1.97985358e-05
1.97985358e-05
1.97985358e-05
1.97985358e-05
1.97985358e-05
1.97985358e-05
1.97985358e-05
1.97985358e-05
1.97985358e-05
1.97985358e-05
1.97985358e-05
1.97985359e-05
1.97985361e-05
1.97985365e-05
1.97985376e-05
1.97985402e-05
1.97985459e-05
1.97985575e-05
1.97985795e-05
1.97986191e-05
1.97986856e-05
1.97987916e-05
1.97989505e-05
1.97991786e-05
1.97994869e-05
1.97999788e-05
1.98003214e-05
1.98004772e-05
1.98016693e-05
1.98060535e-05
1.98058272e-05
1.97893052e-05
1.9787106e-05
1.98355785e-05
1.98431745e-05
1.97621296e-05
1.97131348e-05
1.97112863e-05
1.96924052e-05
1.98184372e-05
2.03093524e-05
2.02618351e-05
2.02941917e-05
2.01599698e-05
1.94958127e-05
1.96072906e-05
2.02521266e-05
2.02262519e-05
2.02440437e-05
2.02344302e-05
1.93725182e-05
1.93691565e-05
1.96754688e-05
1.97177295e-05
1.9858187e-05
2.02855923e-05
2.02854871e-05
1.96262592e-05
1.9680561e-05
2.02916669e-05
2.0284907e-05
1.95508009e-05
1.96198496e-05
2.02907018e-05
2.02760628e-05
1.9492344e-05
1.94907584e-05
1.96026446e-05
1.98235485e-05
2.02822677e-05
2.02771828e-05
2.02816209e-05
2.02748199e-05
2.02800942e-05
2.02671016e-05
1.92079112e-05
1.92030975e-05
1.94578068e-05
1.93740127e-05
1.96929783e-05
2.02799293e-05
2.02801533e-05
2.02754262e-05
2.02774258e-05
2.02704419e-05
1.93003439e-05
1.92983615e-05
1.9478526e-05
1.95591683e-05
1.95907113e-05
1.9772296e-05
2.0283493e-05
2.02863827e-05
2.02766608e-05
2.02857198e-05
2.0269217e-05
1.94465625e-05
1.93859818e-05
1.97050196e-05
2.02754367e-05
2.02771171e-05
1.94716638e-05
1.968934e-05
2.02841445e-05
2.02782895e-05
2.02824757e-05
2.0272033e-05
1.93292417e-05
1.93282441e-05
1.94724127e-05
1.95776297e-05
1.95308596e-05
1.97745398e-05
2.02848848e-05
2.02854137e-05
2.02792104e-05
1.95505388e-05
1.97745596e-05
2.02855776e-05
1.96893529e-05
1.97040857e-05
2.02915936e-05
2.02809524e-05
2.02877218e-05
2.02791792e-05
1.94842891e-05
1.94845484e-05
1.95716644e-05
1.97598698e-05
2.02896271e-05
2.02824209e-05
1.95641751e-05
1.97324886e-05
2.02962345e-05
2.02788736e-05
1.94726446e-05
1.94688464e-05
1.97567233e-05
2.02894372e-05
2.02882189e-05
2.02900075e-05
2.0283258e-05
1.93277376e-05
1.93238384e-05
1.94964108e-05
1.95027712e-05
1.96442232e-05
1.9597772e-05
1.97705746e-05
2.02876417e-05
2.02993388e-05
1.96007092e-05
1.97335952e-05
2.02925534e-05
2.02971919e-05
1.9555781e-05
1.9733854e-05
2.02951303e-05
2.02921463e-05
2.02904408e-05
2.02956855e-05
1.94149559e-05
1.96370409e-05
2.0289559e-05
2.0293898e-05
2.02833405e-05
2.02920936e-05
2.02801385e-05
2.02873079e-05
2.02817936e-05
1.90678354e-05
1.90651271e-05
1.93689344e-05
1.93868045e-05
1.95402103e-05
1.96112108e-05
1.96239082e-05
1.97644411e-05
2.02891433e-05
2.02982306e-05
1.96446961e-05
1.96444278e-05
1.97031151e-05
1.97695571e-05
2.02909272e-05
2.03001814e-05
1.96826325e-05
1.97428806e-05
2.02955638e-05
2.02967959e-05
1.96396317e-05
1.96998177e-05
2.02977748e-05
2.02943251e-05
1.95960398e-05
1.96772628e-05
2.02991534e-05
2.02917938e-05
1.95251112e-05
1.96896973e-05
2.03026099e-05
2.02860871e-05
2.02996331e-05
2.0286627e-05
1.92989612e-05
1.92928882e-05
1.94759815e-05
1.94781638e-05
1.9631835e-05
1.9575257e-05
1.9758269e-05
2.02868291e-05
2.03046925e-05
1.96030695e-05
1.97068856e-05
2.02926397e-05
2.02957756e-05
2.02892072e-05
2.0295424e-05
2.02850344e-05
1.93554997e-05
1.92790488e-05
1.96454655e-05
2.02842931e-05
2.02940849e-05
1.94294473e-05
1.95966358e-05
2.02864588e-05
2.02886375e-05
1.94810847e-05
1.95772715e-05
2.02874127e-05
2.02842098e-05
1.94886867e-05
1.9557377e-05
2.02873719e-05
2.02816211e-05
1.94712806e-05
1.95291451e-05
2.02862496e-05
2.02813548e-05
1.94484547e-05
1.94482242e-05
1.94999177e-05
1.97119386e-05
2.02839871e-05
2.02885964e-05
1.94198674e-05
1.97655206e-05
2.02901808e-05
2.02901633e-05
2.02870963e-05
1.95322492e-05
1.95245442e-05
2.02871239e-05
2.02842385e-05
1.94301053e-05
1.97420296e-05
2.02900968e-05
2.02847708e-05
2.02859833e-05
1.95196412e-05
1.96075301e-05
2.0283215e-05
2.02846176e-05
2.02747354e-05
1.93911233e-05
1.93869484e-05
1.95851859e-05
1.95113198e-05
1.97688223e-05
2.02785741e-05
2.02846167e-05
1.95479072e-05
1.95792116e-05
1.95601592e-05
1.97677248e-05
2.02806011e-05
2.02876667e-05
1.9407099e-05
1.97534187e-05
2.02849788e-05
2.02869595e-05
2.02825452e-05
1.94919822e-05
1.96237377e-05
2.0283298e-05
2.02831801e-05
2.02779538e-05
1.94063751e-05
1.93680216e-05
1.96538787e-05
2.02844789e-05
2.02873636e-05
2.02797504e-05
2.02876037e-05
2.02739056e-05
2.02867596e-05
2.02701842e-05
1.91376629e-05
1.91309944e-05
1.93786344e-05
1.93761279e-05
1.95883157e-05
1.94966083e-05
1.97691731e-05
2.02875308e-05
2.02903536e-05
2.02861653e-05
1.95979198e-05
1.95982151e-05
2.02932799e-05
2.02825366e-05
1.95644389e-05
1.95988864e-05
2.02949776e-05
2.02807308e-05
1.95433905e-05
1.95913496e-05
2.02957898e-05
2.02793984e-05
1.95257768e-05
1.95792895e-05
2.02957643e-05
2.02784399e-05
1.95096302e-05
1.95643274e-05
2.02950611e-05
2.02778628e-05
1.94940657e-05
1.94924133e-05
1.95492674e-05
1.97556468e-05
2.02969435e-05
2.02811748e-05
1.95054846e-05
1.95031733e-05
1.97571361e-05
2.02908049e-05
2.02882618e-05
2.02918681e-05
1.95584424e-05
1.97659593e-05
2.02908236e-05
2.02873353e-05
2.02889195e-05
1.95138615e-05
1.95139795e-05
1.95302221e-05
1.97808777e-05
2.02863809e-05
2.02849396e-05
2.0288569e-05
1.95735641e-05
1.96645605e-05
2.0284695e-05
2.02877548e-05
2.02811467e-05
2.0287163e-05
2.02793103e-05
1.92021144e-05
1.91968692e-05
1.94158838e-05
1.94120625e-05
1.96021026e-05
1.95120702e-05
1.9767267e-05
2.02895909e-05
2.02919356e-05
2.02929323e-05
1.95964529e-05
1.95966046e-05
2.02952021e-05
2.02866161e-05
1.94521138e-05
1.94501897e-05
1.96561405e-05
2.02926751e-05
2.02891693e-05
1.96895932e-05
2.02879493e-05
2.02902474e-05
1.94170198e-05
1.9415771e-05
1.97233463e-05
2.02904588e-05
2.0285527e-05
1.94752233e-05
1.94727576e-05
1.97443293e-05
2.02892533e-05
2.02887258e-05
1.9504497e-05
1.95035251e-05
1.97325897e-05
2.02881808e-05
2.02894319e-05
2.02871348e-05
2.02859413e-05
2.02883034e-05
1.93973696e-05
1.93963627e-05
1.94558435e-05
1.97203844e-05
2.0286562e-05
2.02852036e-05
2.02834905e-05
2.02845343e-05
1.93150731e-05
1.93146697e-05
1.9461383e-05
1.9561395e-05
1.95048022e-05
1.98067507e-05
2.02801288e-05
2.02823884e-05
2.02847232e-05
1.9560609e-05
1.95508393e-05
2.02820007e-05
2.02846917e-05
1.95019708e-05
1.96099834e-05
2.02818328e-05
2.02867009e-05
1.93928504e-05
1.97422464e-05
2.02883732e-05
2.02849526e-05
2.02881909e-05
1.94415585e-05
1.95663916e-05
2.02887236e-05
2.02830367e-05
2.02873175e-05
1.93072554e-05
1.93048931e-05
1.94649819e-05
1.95674248e-05
1.95233691e-05
1.9785972e-05
2.02865453e-05
2.02880127e-05
2.02902747e-05
1.9633344e-05
1.96247012e-05
2.02887726e-05
2.02909041e-05
1.94858898e-05
1.97667134e-05
2.02930004e-05
1.96304463e-05
1.94697689e-05
1.97627648e-05
2.02904972e-05
2.02946624e-05
1.95690776e-05
1.96270197e-05
1.96197414e-05
1.9768067e-05
2.02959059e-05
2.02903283e-05
1.95817233e-05
1.95810989e-05
1.97613853e-05
2.02935089e-05
2.02964558e-05
2.02918217e-05
2.0293318e-05
1.94771561e-05
1.96178242e-05
2.02967178e-05
2.02857456e-05
2.02955843e-05
2.0279937e-05
1.92968074e-05
1.92899519e-05
1.9515845e-05
1.94302608e-05
1.97284494e-05
2.02839296e-05
2.02960764e-05
1.94773222e-05
1.97065654e-05
2.02918479e-05
2.02942061e-05
2.02893498e-05
2.02910452e-05
2.02873784e-05
1.92866225e-05
1.92842026e-05
1.94457023e-05
1.95467567e-05
1.95206331e-05
1.97645342e-05
2.02910133e-05
2.02929242e-05
2.02886778e-05
1.95831075e-05
1.94177509e-05
1.97705775e-05
2.02892528e-05
2.02876781e-05
2.02882358e-05
1.95802895e-05
1.96657952e-05
2.02892189e-05
2.02879359e-05
2.02846742e-05
2.0287384e-05
2.02797633e-05
1.92639945e-05
1.92531236e-05
1.95079813e-05
1.93916194e-05
1.97652586e-05
2.0286525e-05
2.02868058e-05
2.02837522e-05
1.95633651e-05
1.95954196e-05
2.02906365e-05
2.02797727e-05
2.02877723e-05
2.02770388e-05
2.02841482e-05
2.02736611e-05
1.91049244e-05
1.91035865e-05
1.93399172e-05
1.93739003e-05
1.94802959e-05
1.95639391e-05
1.95331572e-05
1.9848862e-05
2.0275361e-05
2.02791399e-05
2.02755007e-05
1.95792963e-05
1.9579923e-05
2.02850779e-05
2.02749187e-05
1.95511601e-05
1.96029014e-05
2.02885241e-05
2.0273847e-05
1.95158698e-05
1.9629537e-05
2.02919882e-05
2.02713191e-05
1.94502945e-05
1.94459737e-05
1.96903765e-05
2.02839258e-05
2.02844068e-05
2.02819621e-05
1.95063066e-05
1.97258942e-05
2.02863659e-05
2.02799083e-05
2.0283155e-05
1.94482381e-05
1.96569674e-05
2.02773751e-05
1.95139436e-05
1.9394141e-05
1.97625726e-05
2.02792368e-05
2.02852619e-05
1.94452345e-05
1.97081601e-05
2.02866284e-05
2.0282069e-05
2.02840978e-05
2.02778528e-05
1.93017933e-05
1.93017866e-05
1.94581385e-05
1.95635115e-05
1.95185179e-05
1.97713478e-05
2.02856973e-05
2.02874238e-05
2.02824412e-05
1.95199202e-05
1.97558724e-05
2.02902304e-05
1.96288751e-05
1.97041729e-05
2.0288503e-05
2.02913081e-05
2.02826626e-05
1.94282702e-05
1.94259065e-05
1.96055587e-05
1.95612053e-05
1.97616304e-05
2.02936031e-05
2.02972321e-05
2.02879369e-05
2.02936134e-05
2.02853168e-05
1.94616028e-05
1.94608365e-05
1.94871378e-05
1.97700102e-05
2.02916886e-05
2.02922161e-05
2.02912321e-05
1.95590413e-05
1.96875734e-05
2.02910161e-05
2.02928894e-05
2.02837373e-05
2.02888905e-05
2.02823071e-05
1.92713769e-05
1.92707921e-05
1.94806382e-05
1.95522279e-05
1.95675588e-05
1.97623796e-05
2.02904562e-05
2.02932603e-05
1.95867116e-05
1.97417875e-05
2.02942054e-05
2.02906431e-05
1.95537456e-05
1.97291036e-05
2.02950864e-05
2.02916314e-05
1.94325723e-05
1.97647379e-05
2.02971999e-05
1.96306479e-05
1.96209905e-05
2.02999694e-05
2.02904609e-05
1.95721226e-05
1.96143143e-05
2.03033669e-05
2.02881591e-05
1.9539792e-05
1.95984372e-05
2.03047439e-05
2.02872798e-05
1.95211405e-05
1.95861788e-05
2.03053882e-05
2.02870255e-05
1.95130316e-05
1.95806569e-05
2.03055893e-05
2.02870158e-05
1.95134578e-05
1.95825329e-05
2.03055486e-05
2.02869319e-05
1.95194217e-05
1.9591887e-05
2.03055668e-05
2.02865504e-05
1.95244463e-05
1.96101099e-05
2.03061841e-05
2.02855389e-05
1.95127045e-05
1.96523112e-05
2.03093253e-05
2.02801575e-05
1.94299229e-05
1.94209679e-05
1.97287589e-05
2.02878706e-05
2.03101886e-05
1.94026415e-05
1.97566689e-05
2.02974073e-05
1.96143617e-05
1.9614289e-05
2.0303065e-05
2.02896576e-05
1.94728147e-05
1.9469325e-05
1.9631786e-05
1.95812191e-05
1.975769e-05
2.02911101e-05
2.03042478e-05
1.96191907e-05
1.96196738e-05
1.96803725e-05
1.97620393e-05
2.02981763e-05
2.03038557e-05
1.96653477e-05
1.9666025e-05
2.03042582e-05
2.02898432e-05
1.97201992e-05
2.02854578e-05
2.029656e-05
2.02841781e-05
2.02929877e-05
2.0283824e-05
2.02915518e-05
2.02822613e-05
2.02899397e-05
1.9020369e-05
1.90160587e-05
1.93125634e-05
1.93493232e-05
1.94804954e-05
1.95936065e-05
1.95467811e-05
1.97760086e-05
2.02872725e-05
2.02875221e-05
2.0294702e-05
1.96203106e-05
1.96087942e-05
2.02907237e-05
2.02915776e-05
1.94704117e-05
1.97330908e-05
2.03041505e-05
1.95834559e-05
1.95596682e-05
1.96381515e-05
1.97655937e-05
2.02918913e-05
2.02930079e-05
2.02928043e-05
1.95955772e-05
1.95054468e-05
1.97669455e-05
2.0294651e-05
2.02918406e-05
2.02967989e-05
1.95598743e-05
1.97665116e-05
2.02998316e-05
1.96953662e-05
1.96929686e-05
2.02990297e-05
2.02898685e-05
2.02981371e-05
2.02906331e-05
2.0296986e-05
2.02874722e-05
1.92546268e-05
1.92357997e-05
1.95001005e-05
1.93713771e-05
1.97607015e-05
2.02960058e-05
2.02946706e-05
2.0293461e-05
1.95078683e-05
1.96574225e-05
2.02959519e-05
1.95635428e-05
1.94585431e-05
1.97463493e-05
2.02968264e-05
2.02972492e-05
1.95711363e-05
1.96193578e-05
1.96331297e-05
1.97593233e-05
2.02953945e-05
2.02975526e-05
1.96081054e-05
1.97512914e-05
2.03004964e-05
2.02923397e-05
1.94928519e-05
1.97677124e-05
2.02918171e-05
1.96684927e-05
1.96705722e-05
2.03031549e-05
2.0288934e-05
1.94892922e-05
1.94830858e-05
1.97375997e-05
2.02976973e-05
2.02862649e-05
1.94904062e-05
1.94893551e-05
1.97366433e-05
2.02987103e-05
2.02996759e-05
2.02874165e-05
2.02950025e-05
2.02796185e-05
1.93324157e-05
1.93307932e-05
1.94828534e-05
1.95756168e-05
1.9545677e-05
1.97773856e-05
2.02907428e-05
2.02913199e-05
2.02835331e-05
1.95278713e-05
1.97685038e-05
2.02865294e-05
1.96555422e-05
1.96520701e-05
2.02940747e-05
2.02826582e-05
1.95463201e-05
1.97005288e-05
2.0297313e-05
2.02815319e-05
2.02933015e-05
2.02772909e-05
1.93240392e-05
1.93207896e-05
1.94833067e-05
1.95749419e-05
1.95482696e-05
1.97759306e-05
2.02882554e-05
2.02949232e-05
2.02838949e-05
1.96283774e-05
1.96623283e-05
2.02987705e-05
2.0278752e-05
1.94690059e-05
1.9465152e-05
1.97610937e-05
2.02880816e-05
2.02909857e-05
1.94897393e-05
1.94876576e-05
1.97658638e-05
2.02946803e-05
2.02894959e-05
1.94928435e-05
1.94902366e-05
1.97612319e-05
2.02902211e-05
2.02901824e-05
2.02902532e-05
2.02894805e-05
1.94661479e-05
1.94654901e-05
1.95095785e-05
1.97764716e-05
2.02892371e-05
2.02896088e-05
2.02933092e-05
1.94999747e-05
1.94982608e-05
1.96053341e-05
1.97660744e-05
2.02906416e-05
2.02944601e-05
2.02864476e-05
2.02923733e-05
2.02858835e-05
1.93910987e-05
1.93869412e-05
1.95955231e-05
1.95611479e-05
1.97638222e-05
2.02836964e-05
2.02938609e-05
2.02808101e-05
2.02904811e-05
2.027984e-05
2.02846594e-05
2.02822915e-05
1.91970999e-05
1.91956238e-05
1.94407639e-05
1.94647136e-05
1.95750197e-05
1.96482804e-05
1.96400879e-05
1.97706959e-05
2.02813674e-05
2.02956119e-05
1.96217675e-05
1.97310861e-05
2.02845327e-05
2.02915493e-05
1.95646899e-05
1.969837e-05
2.02842323e-05
2.02913058e-05
1.94479982e-05
1.9770355e-05
2.02888019e-05
2.02838634e-05
2.02891207e-05
1.94396777e-05
1.94339243e-05
1.94792305e-05
1.97702878e-05
2.02858573e-05
2.0286667e-05
2.02873098e-05
1.95584691e-05
1.95946042e-05
2.0288973e-05
2.02783726e-05
2.02849275e-05
2.02779872e-05
2.02796943e-05
2.02775039e-05
1.91169044e-05
1.91143066e-05
1.93603808e-05
1.94548175e-05
1.94658648e-05
1.97304145e-05
2.02777599e-05
2.0290991e-05
1.94586169e-05
1.97676228e-05
2.02841528e-05
2.0287433e-05
2.02821409e-05
1.94208776e-05
1.93920499e-05
1.96144269e-05
1.95250244e-05
1.97781663e-05
2.02863988e-05
2.02860235e-05
2.0287954e-05
2.02816276e-05
1.938768e-05
1.93695387e-05
1.9668046e-05
2.02805033e-05
2.02899968e-05
1.93802809e-05
1.97287166e-05
2.02902267e-05
2.02895482e-05
2.02881107e-05
1.93985061e-05
1.93934284e-05
1.94650148e-05
1.97158799e-05
2.02894355e-05
2.0290659e-05
2.02873033e-05
2.02878848e-05
2.02855278e-05
1.93136667e-05
1.93121839e-05
1.94930786e-05
1.95804609e-05
1.95978877e-05
1.97669563e-05
2.02882909e-05
2.02914549e-05
2.02853388e-05
2.02890933e-05
2.02818297e-05
1.9552751e-05
1.9624819e-05
2.02928899e-05
2.02777501e-05
2.02902319e-05
2.02730398e-05
2.02874537e-05
2.02667577e-05
1.92114146e-05
1.92041554e-05
1.94310877e-05
1.94418235e-05
1.96160819e-05
1.95695658e-05
1.97678933e-05
2.02820035e-05
2.02899923e-05
2.02777159e-05
2.02874925e-05
2.02741678e-05
1.94982486e-05
1.95656706e-05
2.02900354e-05
2.02726e-05
2.02866301e-05
2.02678515e-05
1.91974077e-05
1.9148138e-05
1.95894937e-05
2.02822084e-05
2.02716952e-05
1.9284707e-05
1.92796348e-05
1.9618383e-05
2.02806677e-05
2.0278593e-05
1.94155098e-05
1.9498233e-05
1.94577164e-05
1.97726292e-05
2.02837616e-05
2.02845631e-05
2.02808033e-05
1.95328683e-05
1.96724332e-05
2.0284251e-05
2.02797448e-05
2.02809763e-05
1.93825008e-05
1.96760762e-05
2.02819895e-05
1.9552568e-05
1.95500975e-05
2.02883956e-05
2.02764997e-05
1.95206667e-05
1.95752549e-05
2.02908439e-05
2.02734778e-05
1.94923143e-05
1.95948028e-05
2.02938324e-05
2.02715398e-05
1.94289426e-05
1.94243806e-05
1.9612276e-05
1.9543799e-05
1.97694371e-05
2.02860525e-05
2.02849625e-05
1.95364945e-05
1.95350315e-05
1.97651214e-05
2.02844791e-05
2.02912835e-05
1.95035116e-05
1.97705272e-05
2.02875518e-05
2.02882633e-05
2.02895273e-05
1.95468979e-05
1.96701959e-05
2.02871683e-05
2.02887002e-05
2.02812022e-05
2.02850671e-05
2.02804241e-05
1.92314995e-05
1.92310576e-05
1.94389689e-05
1.95423499e-05
1.95116662e-05
1.97745699e-05
2.02841782e-05
2.02835625e-05
2.02861964e-05
1.95304885e-05
1.9775079e-05
2.02897036e-05
1.96643594e-05
1.96596887e-05
2.02879377e-05
2.0279664e-05
1.95947864e-05
1.97012658e-05
2.02940766e-05
2.02718888e-05
1.94701922e-05
1.94643685e-05
1.97631367e-05
2.02770483e-05
2.02917486e-05
1.94809359e-05
1.97350048e-05
2.0286815e-05
2.02811812e-05
2.02856971e-05
2.02773521e-05
1.92740394e-05
1.92683606e-05
1.95200281e-05
1.94111129e-05
1.97684285e-05
2.02880178e-05
2.02870493e-05
2.02911049e-05
1.94619995e-05
1.94592369e-05
1.95599932e-05
1.97608218e-05
2.02889158e-05
2.02916579e-05
2.02829748e-05
2.02903454e-05
2.02774772e-05
2.02869798e-05
2.02738845e-05
2.0281554e-05
2.02722566e-05
1.90683262e-05
1.90669435e-05
1.93398182e-05
1.94456343e-05
1.94532473e-05
1.97488427e-05
2.02864241e-05
2.02819922e-05
1.94691511e-05
1.94668591e-05
1.976711e-05
2.02861197e-05
2.02864632e-05
1.94833335e-05
1.9481909e-05
1.97700001e-05
2.0287426e-05
2.02864503e-05
2.02894611e-05
1.9532933e-05
1.97233364e-05
2.02942173e-05
1.95710651e-05
1.95682889e-05
1.96846e-05
1.97619954e-05
2.02964128e-05
2.02857326e-05
1.97610978e-05
2.02861211e-05
2.02945491e-05
2.02840229e-05
2.02924965e-05
1.94365315e-05
1.95831237e-05
2.0287488e-05
2.02849864e-05
2.02843559e-05
2.02854638e-05
1.92840529e-05
1.92823807e-05
1.941374e-05
1.96081226e-05
2.02860141e-05
2.02906339e-05
1.94726813e-05
1.95120374e-05
1.94956321e-05
1.97706058e-05
2.02867904e-05
2.0289324e-05
2.02902609e-05
1.95532112e-05
1.95524189e-05
2.0292951e-05
2.02839184e-05
1.94270924e-05
1.94236268e-05
1.96131514e-05
1.95307254e-05
1.97691809e-05
2.02880425e-05
2.02906625e-05
2.02935403e-05
1.96309262e-05
1.96294218e-05
2.02923841e-05
2.02903982e-05
1.94551622e-05
1.97726402e-05
2.03035872e-05
1.96341349e-05
1.97015397e-05
2.0292287e-05
2.02919012e-05
2.02934951e-05
1.95503973e-05
1.95528017e-05
2.0294291e-05
2.02869925e-05
2.0289799e-05
2.02894317e-05
1.93856445e-05
1.93856336e-05
1.93872373e-05
1.97658388e-05
2.02921688e-05
2.02900843e-05
2.02921605e-05
1.94514213e-05
1.96128363e-05
2.02986998e-05
1.95343119e-05
1.95184619e-05
1.95701894e-05
1.97595729e-05
2.02923763e-05
2.02960568e-05
2.02909589e-05
2.02966644e-05
1.94823827e-05
1.94979508e-05
1.94745406e-05
1.9765443e-05
2.02953218e-05
2.02925821e-05
2.02961798e-05
1.95118107e-05
1.96574634e-05
2.0297167e-05
1.95873165e-05
1.94142522e-05
1.97685753e-05
2.02937926e-05
2.0292673e-05
2.02943589e-05
1.95438295e-05
1.96815747e-05
2.02974205e-05
1.96121455e-05
1.94650396e-05
1.9766561e-05
2.02935755e-05
2.02926897e-05
2.02940739e-05
2.02894447e-05
1.93821706e-05
1.93789817e-05
1.96235833e-05
2.02911263e-05
2.02935963e-05
1.94383457e-05
1.95982601e-05
2.02950581e-05
2.02898421e-05
1.94507949e-05
1.95983904e-05
2.03012172e-05
2.02831644e-05
1.94225386e-05
1.94178336e-05
1.96332471e-05
2.02890212e-05
2.02961841e-05
1.95116938e-05
1.95833241e-05
1.9544755e-05
1.97610421e-05
2.0294024e-05
2.02957265e-05
2.02919791e-05
2.02928816e-05
2.02903645e-05
1.94318786e-05
1.94237024e-05
1.94835916e-05
1.96365096e-05
2.02921238e-05
2.02904626e-05
1.95037508e-05
1.96045014e-05
2.02946421e-05
2.02884395e-05
1.95017025e-05
1.95666316e-05
2.02962998e-05
2.02868582e-05
1.94958696e-05
1.95398858e-05
2.02976038e-05
2.02851626e-05
1.95031469e-05
1.95470876e-05
1.95086594e-05
1.97820182e-05
2.02919e-05
2.02909236e-05
2.02869328e-05
1.95395064e-05
1.96628085e-05
2.02929413e-05
2.02885423e-05
2.02880352e-05
1.95058251e-05
1.9505183e-05
1.94813482e-05
1.97655808e-05
2.02894364e-05
2.0290255e-05
2.02835461e-05
1.95381435e-05
1.96076738e-05
2.0293978e-05
2.02876131e-05
2.02890243e-05
2.02859331e-05
2.02829805e-05
1.92644199e-05
1.92595429e-05
1.93936657e-05
1.95075407e-05
1.94594753e-05
1.97508868e-05
2.02911416e-05
2.02929883e-05
2.02846226e-05
1.95251009e-05
1.96760456e-05
2.02956434e-05
1.95767116e-05
1.95574153e-05
1.96263374e-05
1.97354268e-05
2.02942915e-05
2.0291455e-05
1.96437297e-05
1.9656562e-05
1.96805868e-05
1.97672396e-05
2.02980748e-05
2.02892865e-05
1.96584438e-05
1.97735689e-05
2.03071705e-05
2.02824451e-05
1.95930747e-05
1.95921861e-05
1.9751797e-05
2.02884864e-05
2.03000479e-05
1.96061121e-05
1.97433326e-05
2.02949488e-05
2.02954624e-05
1.95553736e-05
1.9763179e-05
2.03010785e-05
2.02925851e-05
2.02989601e-05
2.02866355e-05
2.02964545e-05
2.02832517e-05
1.92875271e-05
1.92828428e-05
1.94953325e-05
1.9415656e-05
1.97313939e-05
2.02980639e-05
2.02870155e-05
1.95135754e-05
1.95110727e-05
1.97332605e-05
2.02854144e-05
2.0297228e-05
1.9565447e-05
1.9697779e-05
2.02902973e-05
2.02921595e-05
1.95609662e-05
1.96843817e-05
2.02923574e-05
2.02925628e-05
1.95097317e-05
1.97172888e-05
2.02957377e-05
2.02872569e-05
2.02921614e-05
2.02861685e-05
2.02878646e-05
2.0288858e-05
1.92359058e-05
1.92342487e-05
1.94077872e-05
1.94871053e-05
1.94953217e-05
1.9706067e-05
2.02861456e-05
2.02965961e-05
1.95298255e-05
1.96503787e-05
2.0289846e-05
2.02919401e-05
1.95152663e-05
1.96134601e-05
2.0293316e-05
2.02893084e-05
1.94741082e-05
1.96047126e-05
2.02978204e-05
2.02832159e-05
1.93907309e-05
1.93771293e-05
1.96226265e-05
2.02875408e-05
2.02949681e-05
2.028567e-05
2.0295908e-05
1.93328919e-05
1.93296216e-05
1.94518921e-05
1.95717093e-05
1.94977543e-05
1.97795369e-05
2.02892512e-05
2.02870022e-05
2.02940547e-05
1.95764464e-05
1.95623189e-05
2.02865572e-05
2.02895365e-05
1.95408587e-05
1.9581785e-05
2.02870649e-05
2.02866222e-05
1.94818703e-05
1.96065142e-05
2.028887e-05
2.0285366e-05
2.02850765e-05
2.0285624e-05
1.93349832e-05
1.93321331e-05
1.94635433e-05
1.95494447e-05
1.95394055e-05
1.97251037e-05
2.02843743e-05
2.02889598e-05
1.95258061e-05
1.97007984e-05
2.02908273e-05
2.02907804e-05
2.0288196e-05
2.02867719e-05
1.94000823e-05
1.93970412e-05
1.951616e-05
1.95997323e-05
1.95903176e-05
1.97644398e-05
2.02905215e-05
2.02937492e-05
2.02850304e-05
2.02878992e-05
1.9466415e-05
1.96894731e-05
2.02892709e-05
2.02887948e-05
2.02856604e-05
2.02843902e-05
2.02787944e-05
1.93341546e-05
1.93307502e-05
1.93810873e-05
1.96524252e-05
2.02838567e-05
2.02858567e-05
2.02777643e-05
2.02827046e-05
2.02719478e-05
1.93147265e-05
1.9314864e-05
1.94038724e-05
1.96218288e-05
2.02870192e-05
2.02705901e-05
1.94340411e-05
1.94314354e-05
1.96609586e-05
2.02866894e-05
2.02858212e-05
2.02795197e-05
2.02819308e-05
2.02757082e-05
1.93381097e-05
1.93379275e-05
1.94957647e-05
1.95737074e-05
1.95882014e-05
1.97690258e-05
2.02850996e-05
2.02890268e-05
2.02788048e-05
2.02871426e-05
2.02750747e-05
1.94061179e-05
1.9355106e-05
1.96653519e-05
2.02835872e-05
2.028748e-05
2.0277901e-05
2.02832456e-05
2.02763388e-05
1.93385495e-05
1.93369056e-05
1.94079791e-05
1.96987514e-05
2.02864736e-05
2.02777047e-05
2.02843207e-05
2.02767003e-05
1.93090379e-05
1.93047744e-05
1.95010882e-05
1.94889383e-05
1.96839944e-05
2.02877023e-05
2.02823936e-05
1.97027695e-05
2.02835798e-05
2.02847291e-05
1.93895625e-05
1.9386063e-05
1.96908163e-05
2.02801079e-05
2.02946706e-05
1.941994e-05
1.9699459e-05
2.0285221e-05
2.02883181e-05
2.0286009e-05
1.9374781e-05
1.93632232e-05
1.95751853e-05
1.95033248e-05
1.97653313e-05
2.02863631e-05
2.02938212e-05
2.02831719e-05
2.02967098e-05
1.94583274e-05
1.96345233e-05
2.02858684e-05
2.02887139e-05
2.02832418e-05
2.02876807e-05
2.02823523e-05
1.9224772e-05
1.91210559e-05
1.9585774e-05
2.02884907e-05
2.02844015e-05
1.93562177e-05
1.93520891e-05
1.95670619e-05
1.94967948e-05
1.97621604e-05
2.02850352e-05
2.02970414e-05
1.95685027e-05
1.9691008e-05
2.02927501e-05
2.02891056e-05
1.95942781e-05
1.95948817e-05
1.96578911e-05
1.97734321e-05
2.02969575e-05
2.02862591e-05
1.96146036e-05
1.96143533e-05
1.97731043e-05
2.02815206e-05
2.0299097e-05
1.96309274e-05
1.97636194e-05
2.02896435e-05
2.02921652e-05
2.02857411e-05
2.02903363e-05
2.02824904e-05
2.0286018e-05
2.028057e-05
1.92093602e-05
1.92095833e-05
1.94069713e-05
1.95119477e-05
1.94767243e-05
1.9770439e-05
2.02872155e-05
2.02824681e-05
2.02862068e-05
2.02761529e-05
1.93280131e-05
1.9323009e-05
1.95497886e-05
1.94341815e-05
1.97696833e-05
2.02840276e-05
2.02856236e-05
2.02819836e-05
1.95011369e-05
1.95010293e-05
2.02843883e-05
2.02773637e-05
1.93319213e-05
1.93310497e-05
1.94747974e-05
1.95610753e-05
1.9576021e-05
1.97700032e-05
2.02860248e-05
2.02894501e-05
2.02802153e-05
2.02884421e-05
2.02742953e-05
2.02858125e-05
2.0269226e-05
1.93907719e-05
1.93538245e-05
1.97070455e-05
2.02720524e-05
2.02849677e-05
2.02681765e-05
2.02821338e-05
2.0267185e-05
1.94829082e-05
1.95399361e-05
2.02848795e-05
2.02611925e-05
2.0282024e-05
2.02598643e-05
1.92396132e-05
1.92286595e-05
1.94831612e-05
1.93860743e-05
1.97262466e-05
2.02715035e-05
2.02817555e-05
1.94128241e-05
1.95923716e-05
2.02796888e-05
2.02749276e-05
1.93577307e-05
1.93550992e-05
1.95106071e-05
1.95057594e-05
1.96577656e-05
1.95802992e-05
1.97794027e-05
2.02788402e-05
2.02772257e-05
2.02786284e-05
2.02734044e-05
2.02769873e-05
2.02688132e-05
1.92005579e-05
1.91635618e-05
1.9547683e-05
2.02723325e-05
2.02739285e-05
1.9337331e-05
1.93368731e-05
1.9471957e-05
1.95862855e-05
1.95156061e-05
1.97815397e-05
2.02765822e-05
2.02772326e-05
2.02778642e-05
1.96125017e-05
1.96789271e-05
2.02815758e-05
2.02706897e-05
2.02782738e-05
2.02682004e-05
2.02754763e-05
2.026452e-05
2.02730696e-05
2.02604433e-05
2.02709253e-05
2.02565716e-05
2.02688201e-05
2.02522366e-05
2.02664988e-05
2.02450897e-05
1.88247648e-05
1.88148667e-05
1.92287996e-05
1.92499087e-05
1.94702311e-05
1.9491362e-05
1.96556115e-05
1.96209289e-05
1.97801667e-05
2.02725304e-05
2.02795824e-05
2.02721398e-05
2.02795288e-05
2.02719544e-05
2.0276852e-05
2.02713947e-05
1.93134351e-05
1.93133318e-05
1.93860448e-05
1.9674282e-05
2.02807135e-05
2.02768502e-05
2.02788734e-05
2.02729653e-05
1.92945442e-05
1.92947329e-05
1.94713149e-05
1.95582357e-05
1.95530508e-05
1.97759294e-05
2.02875239e-05
2.02752924e-05
1.95423334e-05
1.95403481e-05
1.97679268e-05
2.02843514e-05
2.02830871e-05
1.95498841e-05
1.97338086e-05
2.02949864e-05
2.02739847e-05
1.94931181e-05
1.94888226e-05
1.97567728e-05
2.02816025e-05
2.02906556e-05
1.95086677e-05
1.97314399e-05
2.02879154e-05
2.02911712e-05
2.02816484e-05
2.02870395e-05
2.0277524e-05
1.93495709e-05
1.93484046e-05
1.94259522e-05
1.97077545e-05
2.0287819e-05
2.02777542e-05
2.02849255e-05
2.0270845e-05
1.93318446e-05
1.94498341e-05
2.02856748e-05
2.02655966e-05
1.92728943e-05
1.92649475e-05
1.94982064e-05
1.94012005e-05
1.97535623e-05
2.02824137e-05
2.02772393e-05
1.94240811e-05
1.94210487e-05
1.97267044e-05
2.02788015e-05
2.02814362e-05
2.02750276e-05
2.02788135e-05
1.93778646e-05
1.97217003e-05
2.02771002e-05
2.02769612e-05
2.02778943e-05
1.94637881e-05
1.96271069e-05
2.02756843e-05
2.02787141e-05
2.0272133e-05
1.93602628e-05
1.92466556e-05
1.97101901e-05
2.027687e-05
2.0283154e-05
2.02768578e-05
1.95102463e-05
1.95513613e-05
2.02878253e-05
2.0267671e-05
2.02851605e-05
2.02673714e-05
1.92399074e-05
1.92310641e-05
1.94862262e-05
1.94398169e-05
1.97292501e-05
2.02764825e-05
2.02864693e-05
2.02753688e-05
2.02821375e-05
2.02777378e-05
1.93633099e-05
1.93625235e-05
1.94430206e-05
1.97455745e-05
2.02857762e-05
2.02755074e-05
2.02841744e-05
2.02740069e-05
1.92972428e-05
1.92908261e-05
1.95177727e-05
1.94813456e-05
1.97310385e-05
2.02776844e-05
2.02882803e-05
2.02763293e-05
2.02860772e-05
2.02754748e-05
1.92911201e-05
1.91868334e-05
1.96551993e-05
2.02832204e-05
2.02819103e-05
1.93198448e-05
1.93163577e-05
1.96616074e-05
2.02819164e-05
2.028726e-05
1.94193489e-05
1.95926862e-05
2.0286716e-05
2.02826259e-05
1.94593037e-05
1.95835191e-05
2.02913129e-05
2.02766315e-05
1.94609601e-05
1.94569177e-05
1.96416329e-05
1.96126862e-05
1.97707903e-05
2.0276696e-05
2.02903096e-05
2.02750509e-05
2.02881471e-05
2.0272335e-05
2.02851725e-05
2.0269797e-05
2.02812482e-05
2.02688947e-05
2.02758568e-05
2.0269027e-05
1.89768096e-05
1.8974887e-05
1.92737889e-05
1.93858902e-05
1.94155936e-05
1.96772179e-05
2.02761404e-05
2.02825869e-05
1.94799133e-05
1.95956835e-05
2.02816859e-05
2.02788725e-05
1.95166978e-05
1.95167259e-05
1.95712842e-05
1.97753422e-05
2.02898283e-05
2.02759176e-05
1.95123528e-05
1.95096633e-05
1.97645461e-05
2.02826769e-05
2.02907963e-05
2.02804928e-05
2.02898338e-05
1.9452487e-05
1.9458937e-05
1.94696163e-05
1.976987e-05
2.02839927e-05
2.02857295e-05
2.02838574e-05
1.95442289e-05
1.95438516e-05
2.02891179e-05
2.02806906e-05
2.02865774e-05
2.0279309e-05
1.93128063e-05
1.93108563e-05
1.94027029e-05
1.96264528e-05
2.02912807e-05
2.02764449e-05
1.94170484e-05
1.94129648e-05
1.96464137e-05