/*--------------------------------*- C++ -*----------------------------------*\
| =========                 |                                                 |
| \\      /  F ield         | OpenFOAM: The Open Source CFD Toolbox           |
|  \\    /   O peration     | Version:  2306                                  |
|   \\  /    A nd           | Website:  www.openfoam.com                      |
|    \\/     M anipulation  |                                                 |
\*---------------------------------------------------------------------------*/
FoamFile
{
    version     2.0;
    format      ascii;
    arch        "LSB;label=32;scalar=64";
    class       surfaceScalarField;
    location    "0.00152";
    object      phi;
}
// * * * * * * * * * * * * * * * * * * * * * * * * * * * * * * * * * * * * * //

dimensions      [1 0 -1 0 0 0 0];

oriented        oriented;

internalField   nonuniform List<scalar> 
529
(
-5.43484996e-07
-1.58665969e-07
1.25750844e-06
2.82250616e-06
3.58099032e-06
2.18398997e-06
1.05452335e-06
1.51652717e-07
-3.05168335e-06
-3.78607646e-06
1.48256595e-06
6.43427773e-06
6.2976354e-06
4.5496213e-06
4.01169302e-06
5.33427352e-06
6.30053208e-06
3.48035801e-06
-1.57983124e-06
-3.25636955e-06
9.69756972e-07
6.87431457e-06
8.02613696e-06
4.88490041e-06
1.51418485e-06
-2.90804852e-06
-1.12144524e-05
-1.69808786e-05
-1.53026385e-05
-9.99291053e-06
-3.89455713e-06
1.69062809e-06
7.47540871e-06
1.56730039e-05
2.09068508e-05
1.6201028e-05
5.27256322e-06
-3.59825203e-06
-4.68499264e-06
-8.69990905e-07
3.46112777e-06
4.25743964e-06
3.31449746e-06
2.63857835e-06
2.53885708e-06
2.35870591e-06
2.13350712e-06
1.90836515e-06
1.72061234e-06
1.54122648e-06
1.38137906e-06
1.28551007e-06
1.27070353e-06
1.31305494e-06
1.36119509e-06
1.39229523e-06
1.41678157e-06
1.43889247e-06
1.46184519e-06
1.49253929e-06
1.5389705e-06
1.6067499e-06
1.70254946e-06
1.84356259e-06
2.0743121e-06
2.49805985e-06
3.31064918e-06
4.82634558e-06
7.47749443e-06
1.17356857e-05
1.79128251e-05
2.58826874e-05
3.4851915e-05
4.34054279e-05
5.00142244e-05
5.34161494e-05
5.29970923e-05
4.90844292e-05
4.28382687e-05
3.573318e-05
2.89486139e-05
2.30567308e-05
1.81257972e-05
1.40480985e-05
1.06972174e-05
7.96684819e-06
5.7432744e-06
3.95619916e-06
2.51152987e-06
1.34908057e-06
4.21395591e-07
-3.59870529e-07
-9.92576346e-07
-1.27492347e-06
-1.58528974e-06
-1.89888239e-06
-2.18255694e-06
-2.4078402e-06
-2.64459584e-06
-2.7857777e-06
-2.93332631e-06
-3.05533841e-06
-3.21304944e-06
-3.29350791e-06
-3.14242819e-06
-3.18912936e-06
-3.28616031e-06
-3.34675182e-06
-3.46940617e-06
-3.6127142e-06
-3.80337112e-06
-3.85361155e-06
-3.89386599e-06
-3.92953671e-06
-3.97316487e-06
-3.99333791e-06
-3.86824683e-06
-3.90077211e-06
-3.94210505e-06
-3.99538309e-06
-4.10015672e-06
-4.25459978e-06
-4.51573612e-06
-4.60163008e-06
-4.6732111e-06
-4.75007024e-06
-4.83118241e-06
-4.89077433e-06
-4.80317817e-06
-4.8930107e-06
-5.02635875e-06
-5.13285181e-06
-5.32060868e-06
-5.35935019e-06
-5.42127909e-06
-5.42178269e-06
-5.54308367e-06
-5.70748978e-06
-5.88514066e-06
-6.15460354e-06
-6.24623332e-06
-6.33036916e-06
-6.40292394e-06
-6.5505959e-06
-6.67140462e-06
-6.83331362e-06
-6.91362081e-06
-7.05998211e-06
-7.33864299e-06
-7.57446582e-06
-7.77736176e-06
-7.96761193e-06
-8.2719027e-06
-8.97388326e-06
-9.22709832e-06
-9.40654109e-06
-9.76433607e-06
-1.02836397e-05
-1.12880375e-05
-1.1669305e-05
-1.2009416e-05
-1.23783934e-05
-1.2976947e-05
-1.39146454e-05
-1.51371278e-05
-1.55436063e-05
-1.57848736e-05
-1.64253529e-05
-1.73024706e-05
-1.86466161e-05
-1.89402807e-05
-1.90077695e-05
-1.95259116e-05
-2.06389028e-05
-2.19542263e-05
-2.24191219e-05
-2.28741067e-05
-2.32859583e-05
-2.32354373e-05
-2.30233033e-05
-2.34459732e-05
-2.54552794e-05
-2.57939314e-05
-2.55194485e-05
-2.48410582e-05
-2.51645413e-05
-2.70721249e-05
-2.71821608e-05
-2.6595604e-05
-2.56055335e-05
-2.5709615e-05
-2.73025032e-05
-2.72167822e-05
-2.69732917e-05
-2.61239573e-05
-2.5010305e-05
-2.4844577e-05
-2.52092568e-05
-2.47831153e-05
-2.36610189e-05
-2.34107914e-05
-2.3401146e-05
-2.29327439e-05
-2.17498296e-05
-2.14822368e-05
-2.16155867e-05
-2.11477716e-05
-2.00861356e-05
-1.87703591e-05
-1.84337668e-05
-1.81702733e-05
-1.76083218e-05
-1.6551568e-05
-1.63847621e-05
-1.61039611e-05
-1.56560811e-05
-1.471429e-05
-1.45934254e-05
-1.44630556e-05
-1.42841869e-05
-1.36524586e-05
-1.27400184e-05
-1.25715223e-05
-1.23241141e-05
-1.20380274e-05
-1.12049727e-05
-1.10575993e-05
-1.08416184e-05
-1.06643982e-05
-1.03319649e-05
-9.44748476e-06
-9.16169326e-06
-8.88926701e-06
-8.65646515e-06
-7.89616314e-06
-7.63035465e-06
-7.36099258e-06
-7.20311863e-06
-6.49309223e-06
-6.22017749e-06
-5.98146342e-06
-5.91143216e-06
-5.26106861e-06
-4.98195171e-06
-4.75086914e-06
-4.72422543e-06
-4.08570396e-06
-3.80238762e-06
-3.59274927e-06
-3.5760375e-06
-3.36167702e-06
-2.98058484e-06
-2.56544607e-06
-2.2012042e-06
-1.83974766e-06
-1.1125315e-06
-6.14995006e-07
-2.5649819e-07
-2.4849039e-07
2.41426531e-07
6.27716712e-07
7.96516082e-07
8.66286189e-07
1.11064381e-06
1.41959489e-06
1.81588953e-06
1.91790421e-06
1.90174799e-06
2.21992407e-06
2.56992704e-06
2.87577508e-06
2.99980226e-06
3.28673547e-06
3.59666006e-06
4.04552217e-06
4.35370705e-06
4.50498623e-06
4.78380847e-06
5.25706787e-06
5.78624798e-06
6.01332999e-06
6.3113909e-06
6.84272203e-06
7.28661504e-06
7.72532971e-06
8.22592585e-06
8.56098943e-06
9.08611124e-06
9.47926616e-06
9.77215536e-06
9.92319597e-06
1.04491404e-05
1.09173325e-05
1.15017405e-05
1.20264047e-05
1.25103439e-05
1.22573178e-05
1.25689978e-05
1.31392341e-05
1.36535994e-05
1.40717338e-05
1.37436951e-05
1.4161337e-05
1.46958499e-05
1.5185105e-05
1.55793816e-05
1.56559203e-05
1.59775197e-05
1.6497386e-05
1.7047298e-05
1.66357322e-05
1.67101069e-05
1.6908901e-05
1.72435457e-05
1.74495073e-05
1.65904221e-05
1.62693942e-05
1.61319973e-05
1.62069468e-05
1.61221161e-05
1.577684e-05
1.52758798e-05
1.49347841e-05
1.48680474e-05
1.46173187e-05
1.42523091e-05
1.3693486e-05
1.326041e-05
1.30128513e-05
1.27025577e-05
1.20968684e-05
1.0995644e-05
1.03010686e-05
9.73548709e-06
9.24318103e-06
8.62706254e-06
7.74004602e-06
7.17204402e-06
6.69594305e-06
6.06833945e-06
5.17810593e-06
4.67906861e-06
4.08826988e-06
3.54120478e-06
2.86874795e-06
2.14432811e-06
1.76793459e-06
1.24505055e-06
7.29085101e-07
1.04445247e-07
-4.10167159e-07
-6.14447412e-07
-1.09132765e-06
-1.5718415e-06
-2.11935023e-06
-2.45812188e-06
-2.56485067e-06
-2.96067469e-06
-3.30624679e-06
-3.70480793e-06
-4.01203204e-06
-4.12223455e-06
-4.04957939e-06
-4.31748574e-06
-4.49399448e-06
-4.6347932e-06
-4.20382706e-06
-4.39417058e-06
-4.54500112e-06
-4.70472588e-06
-4.61219638e-06
-4.44590417e-06
-4.55641215e-06
-4.55938167e-06
-4.51680775e-06
-4.01498464e-06
-4.0323013e-06
-4.03089832e-06
-4.07182886e-06
-3.92302398e-06
-3.75012855e-06
-3.76855733e-06
-3.72646932e-06
-3.6768026e-06
-3.30449594e-06
-3.25744141e-06
-3.16393654e-06
-3.09896369e-06
-2.77495348e-06
-2.6320226e-06
-2.50455602e-06
-2.37200278e-06
-2.26445645e-06
-1.90466878e-06
-1.73951451e-06
-1.57920326e-06
-1.44950564e-06
-1.20941217e-06
-1.03164617e-06
-8.2842661e-07
-6.88284583e-07
-5.94007594e-07
-3.27491306e-07
-1.27168158e-07
1.5471078e-08
1.16058545e-07
2.33692864e-07
4.12879545e-07
6.10682177e-07
7.56294539e-07
8.79549847e-07
9.48595716e-07
1.10453826e-06
1.30219664e-06
1.45436081e-06
1.61118291e-06
1.66427908e-06
1.78882819e-06
1.99285127e-06
2.17106725e-06
2.25546808e-06
2.34888897e-06
2.5384334e-06
2.74049147e-06
2.81252338e-06
2.86694689e-06
3.0329045e-06
3.14878462e-06
3.29251246e-06
3.22056655e-06
3.25156545e-06
3.37564005e-06
3.43059089e-06
3.45730936e-06
3.41501087e-06
3.49799394e-06
3.66333243e-06
3.63751325e-06
3.54864389e-06
3.57993692e-06
3.58729096e-06
3.59619307e-06
3.38060443e-06
3.29118865e-06
3.24934652e-06
3.2043939e-06
3.15002228e-06
3.06215087e-06
2.95397614e-06
2.68504284e-06
2.53822786e-06
2.41488675e-06
2.28834572e-06
2.13192943e-06
1.8508534e-06
1.67938732e-06
1.50329846e-06
1.31048918e-06
1.09102154e-06
8.22736598e-07
6.22843683e-07
3.9901309e-07
1.50103892e-07
-1.45049235e-07
-3.0192117e-07
-5.6167795e-07
-1.01683059e-06
-1.29710041e-06
-1.43697001e-06
-1.74515115e-06
-2.24828305e-06
-2.39570152e-06
-2.58846081e-06
-2.92694703e-06
-3.23322655e-06
-3.52361392e-06
-3.48635906e-06
-3.7171032e-06
-4.06196474e-06
-4.36403306e-06
-4.6290435e-06
-4.4887008e-06
-4.69797577e-06
-5.01832999e-06
-5.27470183e-06
-5.4689841e-06
-5.21381516e-06
-5.37077229e-06
-5.64069643e-06
-5.84772416e-06
-5.97652003e-06
-5.6276399e-06
-5.7363234e-06
-6.09336652e-06
-6.25674471e-06
-5.95964086e-06
-5.98391848e-06
-6.11636583e-06
-6.1795619e-06
-6.17461733e-06
-5.7338753e-06
-5.75143827e-06
-5.94986184e-06
-6.00717526e-06
-5.66884967e-06
-5.63052901e-06
-5.6742213e-06
-5.66406175e-06
-5.59110695e-06
-5.14137991e-06
-5.06959382e-06
-5.03485982e-06
-4.97166614e-06
-4.8337446e-06
-4.72377892e-06
-4.60271023e-06
-4.5099057e-06
-4.42759805e-06
-4.35808026e-06
-4.30697585e-06
-4.24441873e-06
-4.10841537e-06
-3.83285768e-06
-3.76264965e-06
-3.67456715e-06
-3.55750898e-06
-3.48493663e-06
-3.39444559e-06
-3.27491808e-06
)
;

boundaryField
{
    closed
    {
        type            calculated;
        value           uniform 0;
    }
    open
    {
        type            calculated;
        value           nonuniform List<scalar> 0();
    }
    sides
    {
        type            empty;
        value           nonuniform List<scalar> 0();
    }
    procBoundary0to1
    {
        type            processor;
        value           uniform -3.19992325e-06;
    }
}


// ************************************************************************* //
