/*--------------------------------*- C++ -*----------------------------------*\
| =========                 |                                                 |
| \\      /  F ield         | OpenFOAM: The Open Source CFD Toolbox           |
|  \\    /   O peration     | Version:  2306                                  |
|   \\  /    A nd           | Website:  www.openfoam.com                      |
|    \\/     M anipulation  |                                                 |
\*---------------------------------------------------------------------------*/
FoamFile
{
    version     2.0;
    format      ascii;
    arch        "LSB;label=32;scalar=64";
    class       volScalarField;
    location    "0.00152";
    object      prefDh_H2;
}
// * * * * * * * * * * * * * * * * * * * * * * * * * * * * * * * * * * * * * //

dimensions      [1 1 -3 0 0 0 0];

internalField   nonuniform List<scalar> 
530
(
57.2999006
33.3783775
29.0358447
28.9268572
28.9170511
28.9166197
28.9165882
28.9165867
28.9165866
28.9165866
28.9165866
28.9165866
28.9165866
28.9165866
28.9165866
28.9165866
28.9165866
28.9165866
28.9165866
28.9165866
28.9165866
28.9165866
28.9165866
28.9165866
28.9165866
28.9165866
28.9165866
28.9165866
28.9165866
28.9165866
28.9165866
28.9165866
28.9165866
28.9165866
28.9165866
28.9165866
28.9165866
28.9165866
28.9165866
28.9165866
28.9165866
28.9165866
28.9165866
28.9165866
28.9165866
28.9165866
28.9165866
28.9165866
28.9165866
28.9165866
28.9165866
28.9165866
28.9165866
28.9165866
28.9165866
28.9165866
28.9165866
28.9165866
28.9165866
28.9165867
28.9165867
28.916587
28.9165876
28.9165894
28.9165946
28.9166045
28.91663
28.9166722
28.9167556
28.9169799
28.9172625
28.9180287
28.9190892
28.9207186
28.9229352
28.9274312
28.9322651
28.9382695
28.9457178
28.9584342
28.9693533
28.98367
28.9950572
28.984334
28.9551615
28.9672306
29.2038706
29.4449168
29.4690654
28.7477206
28.9005042
27.7578658
28.9601509
33.8276634
38.1139169
38.5689023
38.6455186
28.3536497
26.9269651
26.039061
26.2336156
25.8618966
24.5631659
28.305184
36.7413356
38.6059655
37.7318934
38.5611573
38.5816143
29.7962453
27.4473165
25.565983
25.793272
25.7721577
24.8913785
28.4527209
37.4200985
38.4583294
37.6176455
38.2125727
38.4392652
31.4744463
27.4807728
24.8388437
25.516344
25.3613072
24.2351257
28.2566249
36.7223005
39.0221056
35.7461015
28.7223743
24.4955798
24.8560314
28.5093505
37.6438243
38.9174932
37.0589276
28.5542871
26.7226448
26.1370437
28.7139552
38.4551293
37.3755689
29.0884872
25.2066366
28.7256417
38.2425175
36.5403717
29.2610937
29.2194214
38.7043474
37.1225165
28.5659001
25.6193849
28.8656567
38.4438087
36.915542
26.856802
24.0907111
28.4278416
37.9667426
39.0550387
35.9238922
27.9598476
25.7849654
29.4632105
38.377985
36.6051698
27.638998
26.4698646
29.5052206
38.2925876
35.6564832
26.5386864
25.6826857
26.844229
26.731465
27.4061343
29.7044252
38.4110536
34.3317397
27.800044
28.5519923
31.3213508
38.2527976
33.2357473
27.1791784
28.1972719
31.4206851
37.9793378
31.8907204
25.9038402
25.910138
28.9025015
30.8856953
37.5673809
29.7228347
29.2238146
30.3938208
37.1062891
28.6946314
29.307255
30.5599998
37.2055574
28.6442755
24.3585654
27.7864755
32.8032276
36.2563895
28.4082293
29.5477226
31.8019438
35.9691917
28.4306725
28.397007
31.8935306
36.2886066
28.2935551
23.7075857
28.7816341
34.3112268
35.6775425
28.7423909
29.4563353
33.0904634
36.0689794
28.4944909
23.4198149
29.0322457
35.0979666
35.8386709
29.0246258
29.6768389
34.2832449
35.8193654
29.1780503
29.6658461
34.5636542
35.7200131
29.3410875
29.5341559
34.9522443
35.6452894
29.5380906
29.3675107
35.2351217
35.8967441
29.1398702
23.2005979
28.8325918
36.4013884
36.606022
29.7890122
29.9179055
36.4683352
36.8417062
29.8446259
29.7511345
36.6601446
36.799476
29.0783752
22.9770831
28.8910439
37.081198
37.3478694
29.6529727
29.4211975
37.1282328
37.1885744
29.0543228
22.7793996
28.9971079
37.3553387
37.8550905
29.970854
29.3995385
37.2574446
37.8351708
29.6889977
28.9820619
37.2069904
37.6152641
29.1290736
22.6786289
29.1917943
37.3205298
38.2805646
29.6952262
29.1945978
36.8481146
37.914798
29.0491679
24.3034188
26.2271286
25.5110215
29.1531581
37.2809034
38.5043632
29.22487
29.7719543
36.1106458
38.0538876
28.728578
25.1305801
29.3151032
37.0875725
38.4222731
28.6164326
25.0669365
29.3031908
36.8357591
38.4494093
28.5620976
24.5696653
28.0130364
36.5136715
38.4761623
28.702925
25.9237764
29.4448506
36.495808
38.5165925
28.92148
26.6752745
29.4525307
36.3830723
38.6084063
28.8748388
26.6634707
25.6497999
27.5246363
36.1373042
38.6374162
28.9443528
29.4733655
33.4507465
38.2193082
28.8756266
25.3087204
27.3936693
36.4470906
38.4763117
28.8654924
24.9035681
26.9057148
36.6222254
38.4567828
28.8361795
24.5259252
26.8051519
36.8730733
38.4297383
28.830208
24.2407353
26.7938893
37.0877899
38.5570619
28.9088222
25.5676887
24.6735577
26.3829204
37.5507416
38.4719177
29.2229062
29.0781068
35.3889181
38.1168726
28.8883918
23.7841325
27.1441278
37.8286518
38.4426842
29.4638202
29.2874665
36.6052929
38.02506
29.0420208
23.4593669
27.1319647
38.2152948
38.3116689
29.6858866
28.6371707
37.3444676
37.9090084
29.1968483
22.6933735
26.8356841
38.3307892
38.2526415
29.861433
28.2774295
37.9120995
37.8855971
29.2926477
22.6561764
27.0493151
38.3840082
38.3126807
29.9044814
28.3242472
38.23982
37.9688959
29.3211632
22.5860981
27.281594
38.5214687
38.1276255
29.1174655
22.5441717
27.3407161
38.5759547
38.1745474
29.0748941
22.6004712
27.0069741
38.4684154
38.6181096
29.668543
27.9817193
38.3640119
38.5844677
28.9494723
27.982065
38.511601
38.2357326
29.1333142
22.584326
26.3588734
38.4075587
38.7753444
29.5646527
27.8346991
38.3006015
38.7493821
29.4723802
28.2326467
38.3921424
38.407112
28.9353839
23.7114796
27.2721172
38.4647596
38.6441402
28.8081441
25.6533427
27.1791603
25.0779006
26.9174335
38.4891788
38.4719823
28.7667433
24.3687867
27.6469407
38.4580545
38.5380172
28.7617856
24.0237038
26.7461404
38.2962931
38.9487498
29.3038764
28.0928233
38.2349218
38.9164936
29.3314548
27.5551415
38.2327454
38.8042144
28.4895184
27.137276
38.5132906
38.3860113
29.0258222
22.468257
25.932342
38.5558973
38.3620129
28.8882263
22.6746907
26.4241834
38.6349873
38.3182352
28.8774222
22.8880527
26.9686652
38.6942547
38.2269672
28.8303815
23.1783524
27.165501
38.6930285
38.2248356
28.5151379
28.4648434
38.974162
38.0426559
28.9320882
23.1863597
27.7153226
38.6487873
37.7564124
28.2524256
28.8294505
38.9654029
37.9082616
29.1220852
23.1322409
28.545518
38.8218721
37.680904
28.7964392
22.8361155
28.5684822
38.9505953
38.924825
37.4222938
28.6902742
23.9922331
25.7650222
22.8305727
27.9937937
38.8080438
38.8093125
37.4148241
28.6638205
23.1688092
28.5960182
38.5431378
)
;

boundaryField
{
    closed
    {
        type            calculated;
        value           uniform 251.739691;
    }
    open
    {
        type            calculated;
        value           nonuniform List<scalar> 0();
    }
    sides
    {
        type            empty;
    }
    procBoundary0to1
    {
        type            processor;
        value           uniform 38.0076242;
    }
}


// ************************************************************************* //
