/*--------------------------------*- C++ -*----------------------------------*\
| =========                 |                                                 |
| \\      /  F ield         | OpenFOAM: The Open Source CFD Toolbox           |
|  \\    /   O peration     | Version:  2306                                  |
|   \\  /    A nd           | Website:  www.openfoam.com                      |
|    \\/     M anipulation  |                                                 |
\*---------------------------------------------------------------------------*/
FoamFile
{
    version     2.0;
    format      ascii;
    arch        "LSB;label=32;scalar=64";
    class       volScalarField;
    location    "0.0005";
    object      prefDPV_H2O;
}
// * * * * * * * * * * * * * * * * * * * * * * * * * * * * * * * * * * * * * //

dimensions      [1 -1 -1 0 0 0 0];

internalField   nonuniform List<scalar> 
531
(
-3.85328233e-07
-3.85123066e-07
-3.68273263e-07
-3.65228076e-07
-3.6886923e-07
-3.8532237e-07
-3.86285596e-07
-3.66928249e-07
-3.67298864e-07
-3.85418867e-07
-3.8527531e-07
-3.68687674e-07
-3.66222931e-07
-3.66076e-07
-3.65736279e-07
-3.69974121e-07
-3.85092065e-07
-3.86111199e-07
-3.67378941e-07
-3.6794341e-07
-3.8547379e-07
-3.85979933e-07
-3.66320397e-07
-3.64185612e-07
-3.67168389e-07
-3.86016438e-07
-3.85833366e-07
-3.6619257e-07
-3.67107196e-07
-3.85889661e-07
-3.85084152e-07
-3.66254845e-07
-3.67351968e-07
-3.85799613e-07
-3.86688302e-07
-3.66261437e-07
-3.64321527e-07
-3.67874924e-07
-3.85797482e-07
-3.84087788e-07
-3.66369569e-07
-3.68165707e-07
-3.85489689e-07
-3.86135882e-07
-3.66148739e-07
-3.64321042e-07
-3.68812765e-07
-3.85540401e-07
-3.81951172e-07
-3.65857501e-07
-3.68540794e-07
-3.85288071e-07
-3.81204122e-07
-3.65801432e-07
-3.68728378e-07
-3.85104204e-07
-3.84340865e-07
-3.65729618e-07
-3.64177033e-07
-3.70150248e-07
-3.85039621e-07
-3.79508373e-07
-3.65499729e-07
-3.69609706e-07
-3.84749396e-07
-3.79081082e-07
-3.65495185e-07
-3.695766e-07
-3.84581277e-07
-3.83471982e-07
-3.65398151e-07
-3.64154016e-07
-3.72502546e-07
-3.84595862e-07
-3.76465356e-07
-3.65172418e-07
-3.70749176e-07
-3.84324559e-07
-3.78082906e-07
-3.65427443e-07
-3.70172167e-07
-3.84197868e-07
-3.84425678e-07
-3.65357019e-07
-3.64185032e-07
-3.72314684e-07
-3.84381402e-07
-3.78295335e-07
-3.65693231e-07
-3.70499789e-07
-3.84100924e-07
-3.85416938e-07
-3.65264629e-07
-3.64206399e-07
-3.72504652e-07
-3.84373798e-07
-3.78739821e-07
-3.658325e-07
-3.7014793e-07
-3.84009135e-07
-3.862824e-07
-3.6550759e-07
-3.64390458e-07
-3.7120188e-07
-3.84263476e-07
-3.85612182e-07
-3.65683852e-07
-3.64406516e-07
-3.70921607e-07
-3.84235605e-07
-3.85266165e-07
-3.65725623e-07
-3.64360118e-07
-3.70626662e-07
-3.84193963e-07
-3.85018988e-07
-3.65633274e-07
-3.64090268e-07
-3.70991756e-07
-3.84267252e-07
-3.82602462e-07
-3.65739004e-07
-3.68724756e-07
-3.83872209e-07
-3.85120547e-07
-3.65349253e-07
-3.63796486e-07
-3.70363674e-07
-3.84331706e-07
-3.83337955e-07
-3.65782303e-07
-3.6865899e-07
-3.83894768e-07
-3.84587395e-07
-3.65592741e-07
-3.64349716e-07
-3.71031542e-07
-3.84099122e-07
-3.84264226e-07
-3.67065022e-07
-3.6572853e-07
-3.65575467e-07
-3.65605177e-07
-3.81114787e-07
-3.84126686e-07
-3.76075813e-07
-3.65595069e-07
-3.69439338e-07
-3.84175919e-07
-3.83286231e-07
-3.65499462e-07
-3.67964625e-07
-3.84093643e-07
-3.84814101e-07
-3.65227058e-07
-3.63995874e-07
-3.6953248e-07
-3.84524073e-07
-3.85945437e-07
-3.65674684e-07
-3.67877203e-07
-3.84086894e-07
-3.84947677e-07
-3.65224283e-07
-3.64094601e-07
-3.69289324e-07
-3.84482224e-07
-3.87107251e-07
-3.65727586e-07
-3.67788437e-07
-3.83989674e-07
-3.84977759e-07
-3.65522339e-07
-3.64505811e-07
-3.70176632e-07
-3.84203266e-07
-3.84965174e-07
-3.6575054e-07
-3.64585831e-07
-3.70077113e-07
-3.842115e-07
-3.85120868e-07
-3.65581324e-07
-3.64366376e-07
-3.69742138e-07
-3.84572925e-07
-3.85695348e-07
-3.65360001e-07
-3.67193908e-07
-3.84333575e-07
-3.86762624e-07
-3.65334973e-07
-3.6693969e-07
-3.84108136e-07
-3.85337264e-07
-3.65117587e-07
-3.64414873e-07
-3.78203931e-07
-3.85205518e-07
-3.69566042e-07
-3.64975025e-07
-3.7330215e-07
-3.84603827e-07
-3.78690275e-07
-3.65142593e-07
-3.67180102e-07
-3.83968734e-07
-3.85018033e-07
-3.66078109e-07
-3.64142408e-07
-3.67683648e-07
-3.84414292e-07
-3.85706961e-07
-3.65563653e-07
-3.66419996e-07
-3.8390459e-07
-3.84877123e-07
-3.66343078e-07
-3.64368535e-07
-3.67893406e-07
-3.84309514e-07
-3.85204916e-07
-3.65854424e-07
-3.66428963e-07
-3.83852022e-07
-3.84522065e-07
-3.6751439e-07
-3.64529351e-07
-3.66932932e-07
-3.83990016e-07
-3.84169872e-07
-3.67297921e-07
-3.65197589e-07
-3.65205923e-07
-3.67836367e-07
-3.83929614e-07
-3.84045761e-07
-3.69254735e-07
-3.64937545e-07
-3.66841799e-07
-3.843008e-07
-3.84227747e-07
-3.65566784e-07
-3.65007558e-07
-3.85180354e-07
-3.85556414e-07
-3.64689403e-07
-3.64851387e-07
-3.847297e-07
-3.84735666e-07
-3.65464315e-07
-3.65094618e-07
-3.84897423e-07
-3.84720364e-07
-3.65559192e-07
-3.65499737e-07
-3.84814871e-07
-3.84352558e-07
-3.68462611e-07
-3.64456605e-07
-3.66258672e-07
-3.8448679e-07
-3.84043109e-07
-3.68665586e-07
-3.6448945e-07
-3.67064434e-07
-3.84809603e-07
-3.84859452e-07
-3.65617712e-07
-3.65429905e-07
-3.85103973e-07
-3.84201392e-07
-3.69011823e-07
-3.64449319e-07
-3.66910986e-07
-3.84951561e-07
-3.84857541e-07
-3.65866509e-07
-3.65533815e-07
-3.85676052e-07
-3.84168252e-07
-3.70500501e-07
-3.64689187e-07
-3.65784832e-07
-3.85165938e-07
-3.84078381e-07
-3.70546096e-07
-3.64602376e-07
-3.65600777e-07
-3.85359477e-07
-3.84219943e-07
-3.70420137e-07
-3.64402314e-07
-3.65246834e-07
-3.8584363e-07
-3.8453605e-07
-3.66585531e-07
-3.6474445e-07
-3.84717336e-07
-3.84806323e-07
-3.66775662e-07
-3.65395018e-07
-3.86176936e-07
-3.84404587e-07
-3.7190057e-07
-3.6485277e-07
-3.65334974e-07
-3.8616409e-07
-3.84199722e-07
-3.71837824e-07
-3.64768558e-07
-3.6621955e-07
-3.86151265e-07
-3.85213966e-07
-3.66837316e-07
-3.65357152e-07
-3.82932396e-07
-3.84524001e-07
-3.73166497e-07
-3.64869996e-07
-3.66005111e-07
-3.86559253e-07
-3.85274976e-07
-3.67664673e-07
-3.65511231e-07
-3.80581779e-07
-3.84628154e-07
-3.76294562e-07
-3.65269946e-07
-3.64962996e-07
-3.82733827e-07
-3.84477636e-07
-3.76165352e-07
-3.65267282e-07
-3.65021508e-07
-3.8285607e-07
-3.84603628e-07
-3.7515368e-07
-3.64909194e-07
-3.6456757e-07
-3.82288895e-07
-3.84757328e-07
-3.70829119e-07
-3.65021595e-07
-3.75400212e-07
-3.85549726e-07
-3.69961497e-07
-3.65575746e-07
-3.79184988e-07
-3.84770777e-07
-3.76619705e-07
-3.65289298e-07
-3.65028367e-07
-3.84089785e-07
-3.84452886e-07
-3.74251434e-07
-3.6491998e-07
-3.66281276e-07
-3.86352359e-07
-3.85668074e-07
-3.66822372e-07
-3.65404453e-07
-3.7955802e-07
-3.84596509e-07
-3.76773197e-07
-3.65115467e-07
-3.65183442e-07
-3.86566242e-07
-3.85000772e-07
-3.68280069e-07
-3.65570627e-07
-3.78588885e-07
-3.84226724e-07
-3.78574993e-07
-3.67065803e-07
-3.65753269e-07
-3.65129612e-07
-3.66592773e-07
-3.86171203e-07
-3.83829166e-07
-3.79216565e-07
-3.65662963e-07
-3.65230063e-07
-3.81967071e-07
-3.84274781e-07
-3.7735437e-07
-3.652568e-07
-3.64914179e-07
-3.81349637e-07
-3.84381691e-07
-3.76713733e-07
-3.65110541e-07
-3.64765699e-07
-3.81682476e-07
-3.84403015e-07
-3.74207484e-07
-3.64926541e-07
-3.6707215e-07
-3.85571908e-07
-3.85693599e-07
-3.66211046e-07
-3.65119293e-07
-3.78598559e-07
-3.84553373e-07
-3.72219716e-07
-3.64900157e-07
-3.73448446e-07
-3.84953665e-07
-3.79886731e-07
-3.65591168e-07
-3.65076248e-07
-3.8027187e-07
-3.844509e-07
-3.71841487e-07
-3.65082276e-07
-3.74683456e-07
-3.84940767e-07
-3.7851916e-07
-3.6545639e-07
-3.65144354e-07
-3.82060744e-07
-3.84426162e-07
-3.7172624e-07
-3.64902884e-07
-3.7313378e-07
-3.85246244e-07
-3.79006561e-07
-3.65341099e-07
-3.64894951e-07
-3.80369086e-07
-3.84449469e-07
-3.71412191e-07
-3.65446647e-07
-3.76946124e-07
-3.84436707e-07
-3.76489976e-07
-3.67582276e-07
-3.68905495e-07
-3.70598881e-07
-3.6697801e-07
-3.66223912e-07
-3.81747153e-07
-3.84273341e-07
-3.7146245e-07
-3.65138938e-07
-3.76084055e-07
-3.84981644e-07
-3.70982079e-07
-3.65282426e-07
-3.773176e-07
-3.8494299e-07
-3.768478e-07
-3.65405939e-07
-3.64923501e-07
-3.81432826e-07
-3.8452129e-07
-3.7382649e-07
-3.65163218e-07
-3.70368498e-07
-3.86826877e-07
-3.70736871e-07
-3.65583555e-07
-3.80133252e-07
-3.84655283e-07
-3.76555836e-07
-3.6543038e-07
-3.64907711e-07
-3.81103323e-07
-3.84511069e-07
-3.73724091e-07
-3.65098034e-07
-3.70779683e-07
-3.86569296e-07
-3.70739234e-07
-3.65575198e-07
-3.79861764e-07
-3.84627111e-07
-3.76836539e-07
-3.65426714e-07
-3.64941946e-07
-3.80904712e-07
-3.84493569e-07
-3.76911767e-07
-3.65252586e-07
-3.65655686e-07
-3.86852765e-07
-3.83641395e-07
-3.65779454e-07
-3.66655355e-07
-3.86331277e-07
-3.85471974e-07
-3.67086276e-07
-3.64972161e-07
-3.77946427e-07
-3.84795988e-07
-3.77757769e-07
-3.65426043e-07
-3.64824229e-07
-3.79632518e-07
-3.84621032e-07
-3.77389299e-07
-3.65344874e-07
-3.6482145e-07
-3.80326269e-07
-3.84553228e-07
-3.77340711e-07
-3.65359382e-07
-3.64891474e-07
-3.81183879e-07
-3.84470141e-07
-3.77241059e-07
-3.65338442e-07
-3.64935975e-07
-3.82042435e-07
-3.84408199e-07
-3.7687515e-07
-3.65213052e-07
-3.64867981e-07
-3.83040719e-07
-3.84368921e-07
-3.7624069e-07
-3.65028742e-07
-3.64763942e-07
-3.83884255e-07
-3.84266543e-07
-3.77168325e-07
-3.65157383e-07
-3.64959645e-07
-3.85310452e-07
-3.84316123e-07
-3.75264757e-07
)
;

boundaryField
{
    closed
    {
        type            calculated;
        value           nonuniform List<scalar> 0();
    }
    open
    {
        type            calculated;
        value           nonuniform List<scalar> 0();
    }
    sides
    {
        type            empty;
    }
    procBoundary1to0
    {
        type            processor;
        value           uniform -3.67830392e-07;
    }
    procBoundary1to2
    {
        type            processor;
        value           uniform -3.64550057e-07;
    }
}


// ************************************************************************* //
