/*--------------------------------*- C++ -*----------------------------------*\
| =========                 |                                                 |
| \\      /  F ield         | OpenFOAM: The Open Source CFD Toolbox           |
|  \\    /   O peration     | Version:  2306                                  |
|   \\  /    A nd           | Website:  www.openfoam.com                      |
|    \\/     M anipulation  |                                                 |
\*---------------------------------------------------------------------------*/
FoamFile
{
    version     2.0;
    format      ascii;
    arch        "LSB;label=32;scalar=64";
    class       volScalarField;
    location    "0.0005";
    object      sourcePV;
}
// * * * * * * * * * * * * * * * * * * * * * * * * * * * * * * * * * * * * * //

dimensions      [1 -3 -1 0 0 0 0];

internalField   nonuniform List<scalar> 
531
(
0.0043500742
0.00458872357
0.114889333
0.154046391
0.110688613
0.00435920673
0.0032232061
0.125653928
0.123697637
0.00424447461
0.00440694826
0.111954205
0.138197605
0.136670927
0.144500337
0.102837077
0.00463631301
0.00344209851
0.122419706
0.119180822
0.0041855856
0.00360581152
0.129321637
0.170605243
0.123633024
0.00357233207
0.00855669045
0.136815868
0.12503678
0.00371187959
0.0124681704
0.135960255
0.123462372
0.00382201169
0.00281601658
0.131301141
0.168316896
0.118177542
0.0038354373
0.0175113248
0.134008851
0.116887884
0.00418168806
0.00614350231
0.13308532
0.168026078
0.110947307
0.0041287055
0.0291333115
0.141643819
0.11312693
0.0044105462
0.0333340411
0.142647999
0.112081368
0.00462366611
0.0157983518
0.140494968
0.169382292
0.101231201
0.00469987978
0.0428258048
0.147009613
0.105051267
0.0050298904
0.045327418
0.1470727
0.105648011
0.00522494608
0.0206492935
0.146065805
0.169299119
0.0852298314
0.00520882569
0.0605327697
0.151841321
0.0969795094
0.00552078989
0.0510900752
0.147564299
0.101414193
0.00566750204
0.0158390448
0.146361771
0.168739022
0.0864885783
0.00545644463
0.049828734
0.143261164
0.0991971883
0.00577967213
0.0107431217
0.147620688
0.168652371
0.0852498824
0.00546548012
0.0472681839
0.141018669
0.101938158
0.00588608081
0.00323710891
0.144835127
0.16720945
0.0943306376
0.00559417279
0.00401437556
0.143149785
0.166670035
0.0962783798
0.0056264772
0.00441716994
0.142582293
0.166894447
0.0983424577
0.00567401834
0.00470599918
0.143133611
0.170340634
0.0956041475
0.00558973981
0.0259525984
0.142139787
0.112720183
0.00604492887
0.00458578412
0.145884041
0.174670917
0.0999767937
0.00551480039
0.0220970109
0.141186042
0.112969405
0.00601859872
0.00521085508
0.142657852
0.165609818
0.0952563018
0.00578430911
0.00558947502
0.125199329
0.144839367
0.146777958
0.145594348
0.0337865652
0.00575131505
0.0627927717
0.14453698
0.106774048
0.00569259593
0.0224563025
0.144974545
0.11837321
0.00578806507
0.00494689618
0.149156426
0.171512506
0.106211165
0.00529137334
0.00865172112
0.143664712
0.119416833
0.00579590745
0.00479373399
0.149824636
0.170163221
0.108150732
0.0053389517
0.00226100587
0.142818263
0.120265875
0.0059087686
0.00476157186
0.145250499
0.163575844
0.101403659
0.00566173285
0.00477426836
0.14296383
0.162281705
0.10217564
0.00565207518
0.00459495896
0.145898401
0.166413081
0.104796677
0.00523453012
0.0100276209
0.150072432
0.125542578
0.00550952751
0.00437712222
0.148987793
0.127696739
0.00577125894
0.0043513802
0.152246971
0.165493842
0.0502603581
0.00450581062
0.105334284
0.157093217
0.0800739751
0.00520142249
0.0477045794
0.152470781
0.123839911
0.0059336446
0.00471975152
0.136297582
0.168951546
0.119547729
0.00541591003
0.00390577338
0.145408422
0.132249773
0.00600910864
0.00488513421
0.131499497
0.16551825
0.11789956
0.00553807185
0.0044925602
0.141189443
0.131892289
0.00606994763
0.00529650429
0.120807905
0.162261808
0.125087597
0.00590845082
0.00569943999
0.123130554
0.150068526
0.150690279
0.118737705
0.00597853918
0.00584507793
0.107935993
0.157157794
0.126142789
0.00554927541
0.00563266958
0.148674705
0.155557996
0.00451798147
0.00408695563
0.161239792
0.159360329
0.00504964822
0.00504321657
0.149198444
0.15404154
0.00484958124
0.00505766028
0.14712446
0.147492652
0.00494531698
0.00549131832
0.113859047
0.164187182
0.133323132
0.00533040122
0.00584681526
0.112283029
0.163427043
0.124677328
0.0049603567
0.00489137975
0.146489264
0.14978548
0.00460734869
0.00566480424
0.109688494
0.164188331
0.12575137
0.00479612425
0.00489372729
0.142792105
0.14825227
0.00394146431
0.00570378698
0.0992135025
0.160733809
0.142211443
0.00454074159
0.00580630579
0.0988735272
0.162196522
0.145896139
0.00431710758
0.0056433366
0.099822229
0.166474624
0.152085309
0.00376630591
0.00527343049
0.131869308
0.160117593
0.014826714
0.00495863262
0.129517997
0.15042053
0.0073513153
0.00543273862
0.0896395555
0.159432072
0.151044794
0.00338861633
0.00566595719
0.0898345549
0.159755364
0.136099127
0.00342730009
0.00447955817
0.126587502
0.151462679
0.0245561933
0.00529266005
0.0810105021
0.158022787
0.139583486
0.00296156931
0.0044088055
0.119847965
0.149261633
0.037308454
0.00517615549
0.0611795425
0.152025679
0.156503939
0.0253764157
0.00534704487
0.0619625641
0.152005217
0.156186478
0.0246446397
0.00520177994
0.0682782131
0.158464429
0.163080299
0.0276422384
0.00502047096
0.0968185839
0.156135897
0.0670775454
0.004097423
0.102632265
0.147987801
0.0452454869
0.00501333
0.0591947266
0.152881237
0.155832935
0.018121448
0.00537340794
0.0740138283
0.157447423
0.133823555
0.00319070138
0.00395614517
0.126965603
0.151448741
0.0429533954
0.00521121616
0.0583588442
0.154715141
0.15378424
0.00292072306
0.00472809243
0.115460961
0.14698295
0.0482860848
0.0056361355
0.0476287225
0.124836312
0.141462785
0.154945135
0.127694391
0.00339002215
0.00609414283
0.0437722716
0.144597696
0.15207095
0.0294768986
0.00558068162
0.0547870616
0.150645331
0.156368795
0.0330337578
0.00545759433
0.0586952253
0.153529991
0.15829602
0.0312621516
0.0054319986
0.0742949637
0.15677203
0.124222387
0.00407604526
0.00392314895
0.13691252
0.155757695
0.0481884269
0.00525908589
0.0871712966
0.15572568
0.079049526
0.00479559409
0.0403617559
0.147296652
0.154307712
0.0388053289
0.00537730756
0.0898071261
0.152805269
0.071465697
0.00481365232
0.0481344218
0.150319257
0.153180047
0.0289868614
0.0054071252
0.0906710208
0.156014548
0.081014283
0.0044626724
0.0452867205
0.151678382
0.156497796
0.0383930841
0.00537755084
0.0928968189
0.145464483
0.0580626995
0.00539197399
0.0601234276
0.120462366
0.11096173
0.0984265102
0.126520492
0.134376706
0.0308786959
0.00558053253
0.0925793508
0.150555876
0.0631319529
0.004758785
0.0955369994
0.150067293
0.0559898723
0.00481536317
0.0578347541
0.150700101
0.156596632
0.0325125204
0.00530082211
0.0767491546
0.154487524
0.0995552477
0.0026073109
0.0969397607
0.148799385
0.0401102789
0.00514873981
0.059541747
0.149416628
0.156321825
0.034363107
0.00531113567
0.0774049757
0.154859532
0.0966215438
0.00290361539
0.0968779674
0.148582555
0.0414594133
0.00518116724
0.057823554
0.14886994
0.155952444
0.0354655063
0.0053313338
0.057456825
0.152055757
0.146767849
0.00261410163
0.0198225836
0.145088144
0.129383378
0.00322639406
0.00418575673
0.123966637
0.157471252
0.0520656791
0.00498610424
0.0523144826
0.148548913
0.157987265
0.0424694272
0.00518417429
0.0545219379
0.149670319
0.157880873
0.0386028441
0.00526187072
0.0548196706
0.149606009
0.156724695
0.0338573809
0.00535727942
0.0554206786
0.150010877
0.155852304
0.0291886054
0.0054280913
0.0576405957
0.151966279
0.156566428
0.0238718952
0.00547272096
0.061526238
0.154876281
0.157681519
0.0194186462
0.00559050762
0.0558802945
0.152632936
0.154943849
0.0121394373
0.00553301982
0.0676217645
)
;

boundaryField
{
    closed
    {
        type            calculated;
        value           nonuniform List<scalar> 0();
    }
    open
    {
        type            calculated;
        value           nonuniform List<scalar> 0();
    }
    sides
    {
        type            empty;
    }
    procBoundary1to0
    {
        type            processor;
        value           uniform 0;
    }
    procBoundary1to2
    {
        type            processor;
        value           uniform 0;
    }
}


// ************************************************************************* //
