/*--------------------------------*- C++ -*----------------------------------*\
| =========                 |                                                 |
| \\      /  F ield         | OpenFOAM: The Open Source CFD Toolbox           |
|  \\    /   O peration     | Version:  2306                                  |
|   \\  /    A nd           | Website:  www.openfoam.com                      |
|    \\/     M anipulation  |                                                 |
\*---------------------------------------------------------------------------*/
FoamFile
{
    version     2.0;
    format      ascii;
    arch        "LSB;label=32;scalar=64";
    class       volScalarField;
    location    "0.00136";
    object      prefDh_H;
}
// * * * * * * * * * * * * * * * * * * * * * * * * * * * * * * * * * * * * * //

dimensions      [1 1 -3 0 0 0 0];

internalField   nonuniform List<scalar> 
531
(
23847.7977
23872.3875
23392.0643
23187.9573
23395.2087
23752.2751
23856.9965
23375.2915
23162.638
23384.0143
23829.1467
23829.189
23352.9398
23152.5335
23369.114
23856.81
23859.1602
23361.9653
23128.8723
23348.2701
23579.473
23928.8696
23541.6191
23371.5997
23390.9685
23790.17
23858.2274
23356.5466
23128.6687
23365.529
23747.7381
23966.6198
23803.3005
23351.7231
23133.1758
23200.4792
23327.0635
23432.4903
23946.2243
23765.7487
23385.3346
23129.8206
23367.0558
23889.9427
23832.5234
23379.8599
23089.0847
23362.8807
23874.6177
23691.6941
23421.0682
23385.4455
23880.6475
23681.5498
23420.2658
23391.5774
23910.0747
23819.3378
23346.3551
23154.8189
23380.4297
23928.6877
23853.6942
23390.3632
23138.1291
23231.6616
23392.6047
23549.8046
23960.2499
23672.1435
23239.3752
23196.7025
23396.3616
23939.559
23853.9583
23379.5436
23353.8055
23500.1657
23956.2782
23777.4618
23283.81
23082.3808
23229.4909
23394.5057
23953.094
23853.9552
23294.6839
23218.9684
23423.1508
23952.5433
23852.6278
23326.1253
23217.6985
23392.0082
23936.1659
23940.4649
23527.233
23090.1563
23079.0577
23157.1497
23374.7082
23964.2373
23914.083
23369.8209
23227.6845
23376.8116
23961.852
23885.9184
23352.8987
23098.0792
23377.9504
23946.8794
23794.3316
23362.0819
23408.6912
23965.6133
23886.8386
23234.6884
23054.6624
23378.2279
23951.3644
23917.4172
23309.0993
23060.9132
23376.8952
23953.9848
23935.7924
23353.751
23056.6428
23376.9819
23950.3325
23956.2802
23389.6948
23050.2493
23382.4939
23937.41
23963.8285
23373.2344
23051.3702
23366.6558
23906.611
23968.0202
23373.3657
23116.3214
23325.0718
23851.8649
23962.9706
23384.2579
23179.2756
23321.4564
23774.4576
23963.1384
23368.8175
23289.2197
23507.2927
23899.2487
23427.0962
23252.4861
23361.9399
23695.3622
23846.4059
23361.2072
23244.5633
23383.5915
23842.744
23592.6119
23385.1763
23242.3429
23205.3366
23211.4321
23460.0061
23874.8295
23538.7977
23397.4216
23354.4479
23754.5417
23750.6994
23370.7408
23211.6093
23366.3712
23791.9819
23669.8669
23388.3728
23366.4003
23731.4809
23759.75
23365.7989
23196.9421
23371.1726
23771.9217
23717.4376
23389.2702
23378.5745
23725.2409
23765.8866
23365.5101
23196.9283
23375.5483
23790.4749
23712.0413
23395.475
23388.4248
23711.3129
23764.1765
23362.1413
23122.6029
23378.3374
23794.2902
23854.2228
23367.6306
23170.5232
23373.912
23829.5371
23894.0886
23385.8742
23254.9095
23160.609
23374.1115
23878.8937
23874.525
23370.1591
23136.9398
23370.9344
23878.6976
23893.0865
23374.7433
23232.0348
23373.8032
23900.9946
23885.3056
23374.7508
23156.3258
23370.3345
23903.5976
23882.3192
23380.8869
23140.0132
23369.5201
23903.3168
23697.1076
23353.3099
23384.8989
23908.1415
23854.566
23391.5478
23062.4285
23366.9074
23918.943
23885.1721
23385.5825
23148.0433
23369.9965
23930.616
23887.4752
23385.863
23152.4386
23369.1994
23935.8955
23891.6621
23398.1686
23238.0602
23219.9594
23129.5968
23373.044
23917.1827
23648.6055
23418.5935
23389.533
23926.9019
23555.6171
23372.9777
23382.4007
23951.0865
23837.8769
23356.1574
23124.4258
23381.7233
23932.1787
23825.4903
23249.7089
23056.2971
23379.8356
23887.1833
23460.191
23281.0946
23379.3739
23900.1161
23442.3697
23352.6137
23398.3216
23931.2518
23656.3829
23196.9253
23223.4111
23453.418
23922.9225
23671.7595
23177.6595
23193.3056
23452.4369
23914.2827
23586.4852
23150.6183
23177.8396
23460.665
23909.4239
23541.4338
23094.5377
23112.5619
23498.1479
23865.1321
23378.45
23331.2523
23420.8651
23909.5335
23580.01
23148.7389
23134.2956
23490.0017
23865.5224
23388.8248
23360.8657
23406.8265
23895.0702
23664.9439
23186.4083
23094.9436
23410.3929
23849.5001
23410.6103
23321.9685
23391.524
23827.4493
23426.5551
23388.3467
23383.9403
23851.4211
23883.219
23360.644
23144.4103
23396.6733
23793.9147
23878.9627
23349.4406
23118.3612
23372.1211
23768.3071
23561.8466
23426.2372
23374.6896
23784.7275
23552.0904
23383.1722
23419.7404
23733.4854
23878.1441
23337.5071
23046.0348
23316.4431
23682.0433
23697.54
23402.5388
23406.8444
23741.4402
23756.5327
23395.7768
23424.9449
23641.1626
23895.252
23364.9795
23100.7209
23226.8004
23674.0422
23827.5138
23381.3195
23426.5599
23608.5152
23909.8168
23384.4816
23166.4987
23259.0041
23682.1233
23910.5634
23388.9079
23181.9413
23283.1939
23705.3081
23911.4071
23391.7528
23193.3844
23297.9941
23723.305
23913.8051
23395.0786
23202.9448
23315.0632
23744.0622
23918.1761
23395.8465
23180.8988
23096.2109
23262.9327
23655.9296
23955.6128
23887.25
23368.36
23171.6727
23312.0313
23800.0449
23888.6794
23369.644
23106.0404
23384.9771
23777.6452
23707.3714
23429.5494
23407.3258
23903.8725
23849.2567
23392.8269
23061.8263
23369.7161
23785.73
23644.6049
23404.0763
23379.5355
23897.1796
23617.1083
23389.2854
23378.6441
23909.1846
23595.9402
23401.2274
23385.8063
23933.3978
23752.1913
23283.223
23041.1641
23367.8939
23881.7071
23532.399
23431.9143
23394.3099
23941.5293
23704.2453
23284.9002
23113.3656
23392.6913
23931.7349
23688.8126
23280.6765
23103.4462
23394.4584
23937.1399
23663.1979
23261.0254
23067.9875
23390.9727
23943.0686
23618.1232
23217.1171
23027.9118
23388.2994
23947.0949
23471.652
23343.467
23407.8675
23967.0231
23582.1715
23254.6235
23076.7645
23370.9341
23877.397
23980.9532
23888.1437
23394.355
23074.3415
23070.408
23384.6303
23932.0963
23603.3244
23167.01
23047.2505
23400.8404
23931.3349
23451.3872
23377.8533
23428.8738
23935.6774
23563.2893
23150.0968
23067.173
23421.529
23931.9557
23416.2116
23341.1509
23470.6242
23949.8627
23409.1871
23392.0056
23485.8705
23939.0802
23516.6492
23150.4402
23120.0901
23474.3045
23923.4656
23532.3578
23150.7838
23125.5216
23483.0822
23925.9262
23541.1465
23162.3742
23139.1676
23483.6442
23928.1744
23561.8231
23172.9761
23150.3218
23479.0166
23930.529
23577.2914
23181.1561
23156.8931
23466.4771
23932.9685
23602.1079
23185.7829
23157.2319
23454.1061
)
;

boundaryField
{
    closed
    {
        type            calculated;
        value           nonuniform List<scalar> 0();
    }
    open
    {
        type            calculated;
        value           nonuniform List<scalar> 0();
    }
    sides
    {
        type            empty;
    }
    procBoundary1to0
    {
        type            processor;
        value           uniform 23369.2517;
    }
    procBoundary1to2
    {
        type            processor;
        value           uniform 23934.3938;
    }
}


// ************************************************************************* //
