/*--------------------------------*- C++ -*----------------------------------*\
| =========                 |                                                 |
| \\      /  F ield         | OpenFOAM: The Open Source CFD Toolbox           |
|  \\    /   O peration     | Version:  2306                                  |
|   \\  /    A nd           | Website:  www.openfoam.com                      |
|    \\/     M anipulation  |                                                 |
\*---------------------------------------------------------------------------*/
FoamFile
{
    version     2.0;
    format      ascii;
    arch        "LSB;label=32;scalar=64";
    class       volScalarField;
    location    "0.00086";
    object      mu;
}
// * * * * * * * * * * * * * * * * * * * * * * * * * * * * * * * * * * * * * //

dimensions      [1 -1 -1 0 0 0 0];

internalField   nonuniform List<scalar> 
531
(
1.98391985e-05
1.95127819e-05
1.94436235e-05
1.98142945e-05
2.02335584e-05
1.97927098e-05
1.97282845e-05
1.98540948e-05
2.02467499e-05
1.97809921e-05
1.975946e-05
1.99385737e-05
2.02538133e-05
1.97817931e-05
1.948736e-05
1.95704568e-05
1.99809173e-05
2.02635603e-05
1.97833599e-05
1.97856208e-05
2.00406194e-05
2.02630354e-05
1.97708155e-05
1.94965488e-05
1.96442465e-05
2.00391415e-05
2.02713865e-05
1.97802674e-05
1.97804098e-05
2.00985173e-05
2.02659047e-05
1.97765628e-05
1.95588393e-05
1.97530828e-05
2.00972729e-05
2.02651031e-05
1.97881914e-05
1.95286236e-05
1.95195667e-05
1.97349397e-05
2.0076872e-05
2.03057613e-05
2.02532857e-05
2.02920874e-05
2.02225308e-05
1.97581464e-05
1.94945705e-05
1.95254147e-05
1.95162526e-05
1.96928919e-05
2.00361445e-05
2.03051137e-05
2.02098017e-05
1.97628114e-05
1.95676737e-05
1.97441629e-05
2.00712859e-05
2.02425946e-05
1.97780107e-05
1.9582504e-05
1.97423088e-05
2.00518508e-05
2.02358829e-05
1.97830512e-05
1.95143e-05
1.95159411e-05
1.97265463e-05
2.00249569e-05
2.03037829e-05
2.02777855e-05
2.02793383e-05
2.02028881e-05
1.97746662e-05
1.95123945e-05
1.95322603e-05
1.97107569e-05
1.99624174e-05
2.02315883e-05
1.97955844e-05
1.95762876e-05
1.97136549e-05
1.99558292e-05
2.02395694e-05
1.98455926e-05
1.96280678e-05
1.97155189e-05
1.9924979e-05
2.02550401e-05
1.99058847e-05
1.96474793e-05
1.96973779e-05
1.98778437e-05
2.02686431e-05
2.00226869e-05
1.96308547e-05
1.95314412e-05
1.95984561e-05
1.97794141e-05
2.02640518e-05
1.99016758e-05
1.96936525e-05
1.97608928e-05
2.02847918e-05
1.99754431e-05
1.96733142e-05
1.97486564e-05
2.03045383e-05
2.01688083e-05
1.95933312e-05
1.94165852e-05
1.96934295e-05
2.02825442e-05
2.01498493e-05
1.96820706e-05
1.97425186e-05
2.03025938e-05
2.02941013e-05
2.02145549e-05
1.97430365e-05
1.92817106e-05
1.94889959e-05
2.0289494e-05
2.0283417e-05
2.02271021e-05
1.96255603e-05
1.92553328e-05
1.93571377e-05
2.02739724e-05
2.02670696e-05
1.95891949e-05
1.95244068e-05
2.02938734e-05
2.02711229e-05
1.95622424e-05
1.95351738e-05
2.02972883e-05
2.02792924e-05
1.96007087e-05
1.95776356e-05
2.03016039e-05
2.02844052e-05
1.96617546e-05
1.96469861e-05
2.03083034e-05
2.02821311e-05
1.97644215e-05
1.94398636e-05
1.94858246e-05
2.03026602e-05
2.02968569e-05
1.97560976e-05
1.96802822e-05
2.0316046e-05
2.02960935e-05
1.97634359e-05
1.94917533e-05
1.95244701e-05
2.03078476e-05
2.02902473e-05
1.97636334e-05
1.94628648e-05
1.94903983e-05
2.03087581e-05
2.03072167e-05
1.97600934e-05
1.96688532e-05
2.03200488e-05
2.0303902e-05
1.97644212e-05
1.95362343e-05
1.95514283e-05
2.0309405e-05
2.0294296e-05
1.978737e-05
1.95548739e-05
1.95643468e-05
2.0301549e-05
2.02977277e-05
1.97949574e-05
1.96174957e-05
1.94628721e-05
1.94672995e-05
2.03070786e-05
2.030012e-05
2.0303679e-05
1.97526068e-05
1.95921461e-05
2.03181637e-05
2.02993664e-05
1.97621372e-05
1.96384609e-05
1.95780165e-05
1.95805145e-05
2.02939929e-05
2.02904649e-05
2.02853637e-05
1.97936971e-05
1.96397583e-05
1.96498855e-05
1.94865655e-05
1.94892031e-05
2.02822757e-05
2.02999324e-05
1.95868868e-05
1.94934265e-05
2.02913568e-05
2.03026865e-05
1.95357418e-05
1.94861804e-05
2.02896812e-05
2.0300548e-05
1.95547455e-05
1.9516891e-05
2.02880184e-05
2.02988454e-05
1.95268844e-05
1.9575838e-05
2.0296793e-05
2.02904534e-05
2.02843648e-05
1.9761721e-05
1.93744111e-05
1.95207782e-05
2.02895737e-05
2.02885115e-05
1.97728385e-05
1.95048516e-05
1.9603264e-05
2.03054706e-05
2.02841057e-05
1.9757601e-05
1.94676671e-05
1.95607921e-05
2.03040044e-05
2.02945881e-05
1.96339781e-05
1.96376531e-05
2.03284106e-05
2.02860097e-05
1.97338187e-05
1.94728452e-05
1.96284451e-05
2.03015798e-05
2.02867672e-05
1.9603761e-05
1.96172828e-05
2.03213396e-05
2.02783053e-05
1.95625011e-05
1.96280617e-05
2.03273102e-05
2.02873042e-05
1.97102031e-05
1.94667012e-05
1.96299853e-05
2.03061051e-05
2.02883176e-05
1.96723118e-05
1.96999771e-05
2.03255953e-05
2.02959939e-05
1.97449516e-05
1.95225141e-05
1.96915671e-05
2.03127966e-05
2.02976404e-05
1.97538633e-05
1.95536273e-05
1.96640975e-05
2.03053794e-05
2.03024524e-05
1.97569718e-05
1.95615729e-05
1.9519382e-05
1.9596433e-05
2.0308416e-05
2.03132548e-05
2.03040421e-05
2.03135328e-05
2.03000604e-05
1.97481473e-05
1.96517382e-05
1.97229772e-05
1.97085095e-05
1.97456605e-05
1.975557e-05
1.97438919e-05
1.97517141e-05
2.0326973e-05
2.03074223e-05
1.97373044e-05
1.95054309e-05
1.9592789e-05
2.03093695e-05
2.03113883e-05
1.96326216e-05
1.96323069e-05
2.03197785e-05
2.02979581e-05
1.96156999e-05
1.96464988e-05
2.03251641e-05
2.0296662e-05
1.97407113e-05
1.94724022e-05
1.96047396e-05
2.03056879e-05
2.02998904e-05
1.96711833e-05
1.96867025e-05
2.03213947e-05
2.02974129e-05
1.97458122e-05
1.9526446e-05
1.96613017e-05
2.0313019e-05
2.03008047e-05
1.97528191e-05
1.9536105e-05
1.96680924e-05
2.03137814e-05
2.03005914e-05
1.97521213e-05
1.95363848e-05
1.96672932e-05
2.03143905e-05
2.03011874e-05
1.97509578e-05
1.95328472e-05
1.96684698e-05
2.03143644e-05
2.030171e-05
1.97514501e-05
1.95360113e-05
1.96697316e-05
2.03143517e-05
2.03017693e-05
1.97516722e-05
1.95371295e-05
1.96658113e-05
2.03138823e-05
2.03036727e-05
1.97517249e-05
1.95302129e-05
1.96524347e-05
2.03166047e-05
2.03041254e-05
1.97450758e-05
1.94971595e-05
1.96191539e-05
2.03111796e-05
2.03110271e-05
1.96685589e-05
1.96747085e-05
2.03240622e-05
2.03075716e-05
1.97418737e-05
1.95133309e-05
1.96259644e-05
2.03152286e-05
2.03152465e-05
1.97520389e-05
1.95207435e-05
1.9619865e-05
2.03258594e-05
2.03109776e-05
1.97410216e-05
1.94378556e-05
1.96280073e-05
2.0319167e-05
2.03334418e-05
2.0327905e-05
1.97271323e-05
1.94408779e-05
1.95381402e-05
2.03430619e-05
2.0361426e-05
1.9705553e-05
1.93915471e-05
1.94775181e-05
2.03905964e-05
2.03954588e-05
1.9633145e-05
1.9203491e-05
1.93938484e-05
2.04339707e-05
2.04913155e-05
2.04758626e-05
2.04920938e-05
2.04608952e-05
1.9567584e-05
1.91760248e-05
1.92298336e-05
2.03802253e-05
2.03887239e-05
1.92970663e-05
1.92441778e-05
2.03150427e-05
2.03437515e-05
2.0328656e-05
2.03288916e-05
2.03153848e-05
2.03185623e-05
2.03124049e-05
2.03206335e-05
2.03272458e-05
2.03498366e-05
2.03871405e-05
2.04571826e-05
2.06009997e-05
2.06565595e-05
2.05244558e-05
2.04078148e-05
2.02931847e-05
2.01989588e-05
2.0118942e-05
2.00543255e-05
1.99823957e-05
1.98988674e-05
1.99440414e-05
1.98229395e-05
1.97687844e-05
1.9689464e-05
1.96781698e-05
1.96251207e-05
1.95892046e-05
1.93564171e-05
1.93173875e-05
1.91742755e-05
2.05885772e-05
2.02654281e-05
2.015403e-05
1.97294451e-05
1.95441362e-05
1.91709861e-05
1.89233371e-05
1.85952965e-05
1.84043814e-05
1.91406645e-05
2.00216353e-05
2.08975158e-05
2.20298176e-05
2.337302e-05
2.3607885e-05
2.35065019e-05
2.55935708e-05
2.6435376e-05
2.74531542e-05
2.92343227e-05
3.1729181e-05
3.39999111e-05
3.56227971e-05
3.70700557e-05
3.9637968e-05
4.06279568e-05
4.18004034e-05
4.25560635e-05
4.37106144e-05
4.44943536e-05
4.55195919e-05
4.61967249e-05
4.70748966e-05
4.76614205e-05
4.83905281e-05
4.89116674e-05
4.95406435e-05
4.99933743e-05
5.0534309e-05
5.09307914e-05
5.13608859e-05
5.16445267e-05
5.20106351e-05
5.22792329e-05
5.26302023e-05
5.28792544e-05
5.32191464e-05
5.34313183e-05
5.37489912e-05
5.39545216e-05
5.42321999e-05
5.44249957e-05
5.46816468e-05
5.48694305e-05
5.51061922e-05
5.53187452e-05
5.56181564e-05
5.58379646e-05
5.60235942e-05
5.61497956e-05
5.62954992e-05
5.64207047e-05
5.65555729e-05
5.66703028e-05
5.67936505e-05
5.69045451e-05
5.70192809e-05
5.7122754e-05
5.72285799e-05
5.73291454e-05
5.74394678e-05
5.75660737e-05
5.7686326e-05
5.78014091e-05
5.78972432e-05
5.79911619e-05
5.8078366e-05
5.81660804e-05
5.82506852e-05
5.8337446e-05
5.84190463e-05
5.85036118e-05
5.85812678e-05
5.86534728e-05
5.87203811e-05
5.87899532e-05
5.88601174e-05
5.89371417e-05
5.90084288e-05
5.90829883e-05
5.91498807e-05
5.92194529e-05
5.92816275e-05
5.93466316e-05
5.94044819e-05
5.9464542e-05
5.95122451e-05
5.95629977e-05
5.96082679e-05
5.96567779e-05
5.96997521e-05
5.97461936e-05
)
;

boundaryField
{
    closed
    {
        type            calculated;
        value           nonuniform List<scalar> 0();
    }
    open
    {
        type            calculated;
        value           nonuniform List<scalar> 0();
    }
    sides
    {
        type            empty;
    }
    procBoundary4to3
    {
        type            processor;
        value           uniform 2.02917868e-05;
    }
    procBoundary4to5
    {
        type            processor;
        value           uniform 5.97870554e-05;
    }
}


// ************************************************************************* //
