/*--------------------------------*- C++ -*----------------------------------*\
| =========                 |                                                 |
| \\      /  F ield         | OpenFOAM: The Open Source CFD Toolbox           |
|  \\    /   O peration     | Version:  2306                                  |
|   \\  /    A nd           | Website:  www.openfoam.com                      |
|    \\/     M anipulation  |                                                 |
\*---------------------------------------------------------------------------*/
FoamFile
{
    version     2.0;
    format      ascii;
    arch        "LSB;label=32;scalar=64";
    class       volScalarField;
    location    "0.00086";
    object      prefDZ_H2O;
}
// * * * * * * * * * * * * * * * * * * * * * * * * * * * * * * * * * * * * * //

dimensions      [1 -1 -1 0 0 0 0];

internalField   nonuniform List<scalar> 
531
(
-7.55795624e-07
-7.35340163e-07
-7.34285518e-07
-7.54054291e-07
-7.79596359e-07
-7.51521627e-07
-7.388581e-07
-7.57571557e-07
-7.79126519e-07
-7.4948462e-07
-7.39354836e-07
-7.63720806e-07
-7.78264199e-07
-7.49303133e-07
-7.35248264e-07
-7.36293853e-07
-7.66521231e-07
-7.77777431e-07
-7.48274889e-07
-7.41030117e-07
-7.70246796e-07
-7.77619947e-07
-7.47156642e-07
-7.35381085e-07
-7.37276382e-07
-7.70199044e-07
-7.77531695e-07
-7.46998742e-07
-7.41656193e-07
-7.73706071e-07
-7.77175358e-07
-7.4765568e-07
-7.36370554e-07
-7.3885699e-07
-7.73730282e-07
-7.76915751e-07
-7.49424329e-07
-7.35726178e-07
-7.35357554e-07
-7.38414053e-07
-7.72449273e-07
-7.74501176e-07
-7.76105223e-07
-7.74962403e-07
-7.78463898e-07
-7.45750807e-07
-7.35240512e-07
-7.35199027e-07
-7.35247348e-07
-7.37606294e-07
-7.70087332e-07
-7.74332911e-07
-7.78767633e-07
-7.4727245e-07
-7.36467844e-07
-7.39010233e-07
-7.72219221e-07
-7.77883047e-07
-7.48912545e-07
-7.3657518e-07
-7.39078125e-07
-7.71066822e-07
-7.77889673e-07
-7.49542377e-07
-7.35518753e-07
-7.35187607e-07
-7.38127044e-07
-7.69327514e-07
-7.74589702e-07
-7.75091913e-07
-7.75274354e-07
-7.78650379e-07
-7.48776453e-07
-7.35453463e-07
-7.35446339e-07
-7.37891412e-07
-7.65284915e-07
-7.78430682e-07
-7.51205151e-07
-7.36435444e-07
-7.38093085e-07
-7.64817113e-07
-7.77318143e-07
-7.56257564e-07
-7.37217049e-07
-7.38168863e-07
-7.62607024e-07
-7.76511878e-07
-7.61151732e-07
-7.37472379e-07
-7.37990037e-07
-7.59004255e-07
-7.75678335e-07
-7.69313061e-07
-7.37435952e-07
-7.35543365e-07
-7.36420849e-07
-7.50512202e-07
-7.76764236e-07
-7.60957266e-07
-7.38022384e-07
-7.4773896e-07
-7.75884913e-07
-7.66162711e-07
-7.37700571e-07
-7.44708348e-07
-7.74972784e-07
-7.78197219e-07
-7.3671219e-07
-7.33972095e-07
-7.37456802e-07
-7.75306983e-07
-7.76977151e-07
-7.38142736e-07
-7.39242618e-07
-7.75153035e-07
-7.73299476e-07
-7.77929412e-07
-7.38878664e-07
-7.32195686e-07
-7.34596661e-07
-7.753559e-07
-7.7418571e-07
-7.77126243e-07
-7.37129921e-07
-7.31791197e-07
-7.32634943e-07
-7.75572474e-07
-7.76019136e-07
-7.36896824e-07
-7.35307285e-07
-7.75871621e-07
-7.75808005e-07
-7.36313024e-07
-7.35416941e-07
-7.75857451e-07
-7.75397277e-07
-7.36864669e-07
-7.3608578e-07
-7.75590096e-07
-7.74879867e-07
-7.37733434e-07
-7.3725384e-07
-7.75164476e-07
-7.74783439e-07
-7.4130279e-07
-7.34181785e-07
-7.34585901e-07
-7.74689411e-07
-7.74287394e-07
-7.39078424e-07
-7.37713964e-07
-7.74651317e-07
-7.74117899e-07
-7.43048009e-07
-7.34821452e-07
-7.35265129e-07
-7.74578521e-07
-7.74519589e-07
-7.45103539e-07
-7.34414457e-07
-7.34566138e-07
-7.74546057e-07
-7.73833546e-07
-7.39277576e-07
-7.37485449e-07
-7.74318161e-07
-7.73657961e-07
-7.45166176e-07
-7.3543725e-07
-7.35675046e-07
-7.74290797e-07
-7.73981655e-07
-7.49578156e-07
-7.35844326e-07
-7.35870666e-07
-7.74372663e-07
-7.73692435e-07
-7.50154639e-07
-7.36767474e-07
-7.34331644e-07
-7.34364103e-07
-7.75469261e-07
-7.73533226e-07
-7.74716085e-07
-7.39663316e-07
-7.36374604e-07
-7.74118883e-07
-7.73642845e-07
-7.44321319e-07
-7.37155372e-07
-7.36170955e-07
-7.36245873e-07
-7.74844869e-07
-7.73356136e-07
-7.73882395e-07
-7.49613407e-07
-7.37365948e-07
-7.3733628e-07
-7.34969378e-07
-7.3472932e-07
-7.75336621e-07
-7.74183177e-07
-7.36444107e-07
-7.34761478e-07
-7.75384825e-07
-7.74171017e-07
-7.35600918e-07
-7.34643835e-07
-7.75300118e-07
-7.74157857e-07
-7.35958664e-07
-7.35169031e-07
-7.75119548e-07
-7.74094569e-07
-7.35525625e-07
-7.3614375e-07
-7.75436208e-07
-7.73407694e-07
-7.75527229e-07
-7.39137127e-07
-7.33270236e-07
-7.35260536e-07
-7.74192476e-07
-7.74494198e-07
-7.42654465e-07
-7.35101652e-07
-7.36616917e-07
-7.73677602e-07
-7.74602443e-07
-7.41796064e-07
-7.34522656e-07
-7.35694549e-07
-7.74015119e-07
-7.74530502e-07
-7.36939882e-07
-7.37037991e-07
-7.73285774e-07
-7.74853464e-07
-7.38411351e-07
-7.34586031e-07
-7.36662579e-07
-7.74022228e-07
-7.75198492e-07
-7.36496769e-07
-7.36594226e-07
-7.73862929e-07
-7.75766976e-07
-7.3567332e-07
-7.36844514e-07
-7.73452518e-07
-7.7509862e-07
-7.38084484e-07
-7.34454926e-07
-7.36725526e-07
-7.73852079e-07
-7.75113724e-07
-7.37514333e-07
-7.38010595e-07
-7.7313961e-07
-7.74499003e-07
-7.39700146e-07
-7.35244174e-07
-7.37758388e-07
-7.73542911e-07
-7.74201277e-07
-7.43798285e-07
-7.35764214e-07
-7.37315069e-07
-7.73614425e-07
-7.74111153e-07
-7.41607288e-07
-7.35849962e-07
-7.35114753e-07
-7.36212124e-07
-7.74689511e-07
-7.73395106e-07
-7.74403905e-07
-7.73001873e-07
-7.74200447e-07
-7.42556914e-07
-7.37284994e-07
-7.38227902e-07
-7.38108288e-07
-7.39621076e-07
-7.43237037e-07
-7.38840221e-07
-7.4057689e-07
-7.72869653e-07
-7.73754448e-07
-7.4138001e-07
-7.34907932e-07
-7.36050665e-07
-7.73896823e-07
-7.74402226e-07
-7.36842424e-07
-7.36932709e-07
-7.73658969e-07
-7.74660738e-07
-7.36477649e-07
-7.37231134e-07
-7.73188512e-07
-7.74512603e-07
-7.38501654e-07
-7.34516044e-07
-7.36327447e-07
-7.73835801e-07
-7.74499948e-07
-7.37492344e-07
-7.37830353e-07
-7.73043605e-07
-7.74219264e-07
-7.40450258e-07
-7.35291621e-07
-7.37250674e-07
-7.73376672e-07
-7.74174186e-07
-7.42858394e-07
-7.35419472e-07
-7.37367745e-07
-7.73351337e-07
-7.74160772e-07
-7.43029547e-07
-7.35408057e-07
-7.37332709e-07
-7.73367231e-07
-7.74168512e-07
-7.4278868e-07
-7.35345453e-07
-7.37336801e-07
-7.73415867e-07
-7.7413413e-07
-7.42976992e-07
-7.35392228e-07
-7.37359033e-07
-7.73440166e-07
-7.74123378e-07
-7.43068404e-07
-7.35415078e-07
-7.37296827e-07
-7.73456092e-07
-7.74090243e-07
-7.42759183e-07
-7.35283891e-07
-7.37101586e-07
-7.73433117e-07
-7.74123415e-07
-7.41157186e-07
-7.34807253e-07
-7.36505646e-07
-7.73766521e-07
-7.73983195e-07
-7.37416631e-07
-7.37554119e-07
-7.7319925e-07
-7.73879226e-07
-7.39864557e-07
-7.35025371e-07
-7.3663512e-07
-7.73435767e-07
-7.73728313e-07
-7.42971568e-07
-7.35029134e-07
-7.36619016e-07
-7.73244322e-07
-7.73906907e-07
-7.43720892e-07
-7.33775373e-07
-7.36475547e-07
-7.74306941e-07
-7.72567672e-07
-7.74069621e-07
-7.41940227e-07
-7.3353212e-07
-7.34830066e-07
-7.73244138e-07
-7.73438152e-07
-7.39165607e-07
-7.32153568e-07
-7.33590661e-07
-7.72789149e-07
-7.73177117e-07
-7.35745132e-07
-7.28543457e-07
-7.31140451e-07
-7.73961428e-07
-7.71024852e-07
-7.71835209e-07
-7.69769854e-07
-7.69895749e-07
-7.41359739e-07
-7.25241999e-07
-7.2596589e-07
-7.67105521e-07
-7.63551162e-07
-7.28315956e-07
-7.27246396e-07
-7.60849176e-07
-7.55986471e-07
-7.54065627e-07
-7.51483474e-07
-7.49379176e-07
-7.46722952e-07
-7.44473344e-07
-7.41662008e-07
-7.39209852e-07
-7.36414985e-07
-7.33928555e-07
-7.31799608e-07
-7.30726279e-07
-7.29309535e-07
-7.25528201e-07
-7.2153878e-07
-7.16826945e-07
-7.118768e-07
-7.06489564e-07
-7.00370281e-07
-6.94595836e-07
-6.88833903e-07
-6.88943288e-07
-6.83076739e-07
-6.78268638e-07
-6.69021934e-07
-6.6314507e-07
-6.50328141e-07
-6.44143856e-07
-6.25873461e-07
-6.21515575e-07
-6.02942235e-07
-6.27977225e-07
-6.05052599e-07
-5.97683322e-07
-5.72496126e-07
-5.60822857e-07
-5.37595267e-07
-5.21767638e-07
-5.00348589e-07
-4.83916813e-07
-4.56009791e-07
-4.32858375e-07
-3.88448307e-07
-3.39471931e-07
-2.72481809e-07
-2.57422582e-07
-2.48535217e-07
-1.49502795e-07
-1.10314776e-07
-4.52893087e-08
4.23767496e-08
1.79439435e-07
3.13223278e-07
4.23629698e-07
5.29291419e-07
7.13216599e-07
7.88909729e-07
8.75944985e-07
9.32100902e-07
1.01399292e-06
1.07024647e-06
1.14383917e-06
1.19246378e-06
1.25647702e-06
1.29831716e-06
1.35203451e-06
1.38847977e-06
1.43459299e-06
1.46564201e-06
1.50477313e-06
1.53091943e-06
1.56112104e-06
1.57904828e-06
1.60367689e-06
1.62034553e-06
1.64415177e-06
1.66055153e-06
1.6841877e-06
1.69893627e-06
1.72160632e-06
1.73605553e-06
1.75632071e-06
1.76967621e-06
1.78846225e-06
1.80151695e-06
1.81907168e-06
1.83354354e-06
1.85449537e-06
1.86909067e-06
1.88322181e-06
1.89216538e-06
1.90375467e-06
1.91277344e-06
1.92359439e-06
1.93187012e-06
1.94185709e-06
1.94988398e-06
1.95925245e-06
1.9668808e-06
1.9756048e-06
1.98301539e-06
1.99206973e-06
2.0012375e-06
2.01068243e-06
2.0190346e-06
2.02672447e-06
2.03371395e-06
2.04072867e-06
2.04731717e-06
2.05412102e-06
2.06067597e-06
2.06713362e-06
2.0734793e-06
2.07957945e-06
2.08528596e-06
2.0907778e-06
2.09630052e-06
2.10194104e-06
2.10792236e-06
2.11352469e-06
2.11927613e-06
2.12449949e-06
2.12988598e-06
2.13472355e-06
2.13977308e-06
2.14426155e-06
2.14895813e-06
2.15280917e-06
2.15695284e-06
2.16059352e-06
2.16455703e-06
2.16800331e-06
2.17179638e-06
)
;

boundaryField
{
    closed
    {
        type            calculated;
        value           nonuniform List<scalar> 0();
    }
    open
    {
        type            calculated;
        value           nonuniform List<scalar> 0();
    }
    sides
    {
        type            empty;
    }
    procBoundary4to3
    {
        type            processor;
        value           uniform -7.75669085e-07;
    }
    procBoundary4to5
    {
        type            processor;
        value           uniform 2.17506489e-06;
    }
}


// ************************************************************************* //
