/*--------------------------------*- C++ -*----------------------------------*\
| =========                 |                                                 |
| \\      /  F ield         | OpenFOAM: The Open Source CFD Toolbox           |
|  \\    /   O peration     | Version:  2306                                  |
|   \\  /    A nd           | Website:  www.openfoam.com                      |
|    \\/     M anipulation  |                                                 |
\*---------------------------------------------------------------------------*/
FoamFile
{
    version     2.0;
    format      ascii;
    arch        "LSB;label=32;scalar=64";
    class       volScalarField;
    location    "0.00086";
    object      prefDh_H2;
}
// * * * * * * * * * * * * * * * * * * * * * * * * * * * * * * * * * * * * * //

dimensions      [1 1 -3 0 0 0 0];

internalField   nonuniform List<scalar> 
531
(
29.5682674
24.1284767
22.706118
29.1135077
36.8729849
28.8253689
28.5720465
29.7556664
37.1750988
28.7315472
29.2124484
31.2449245
37.3591762
28.7693028
23.6298372
25.3198699
32.0242601
37.587538
28.9071798
29.6259331
33.1266055
37.5819194
28.6999403
23.818571
26.8177385
33.0996012
37.7656394
28.9503068
29.441636
34.2175309
37.6600868
28.7961369
25.1043694
29.0303513
34.1911495
37.652174
28.9181535
24.4667032
24.2602397
28.6384805
33.8078696
38.6186963
37.4260236
38.3062499
36.67614
28.5166573
23.7689146
24.3573212
24.1868453
27.7607329
33.044542
38.6107302
36.3902313
28.4891775
25.2827516
28.7869698
33.7007511
37.1306432
28.7122017
25.5765364
28.7352637
33.3367062
36.9854043
28.7776648
24.1730411
24.175471
28.4459996
32.8355377
38.5727017
37.9922314
38.0192519
36.2452367
28.6414836
24.1307695
24.5111223
28.1257715
31.6916905
36.872971
28.9299007
25.4445948
28.2056629
31.5793193
37.085776
29.683571
26.5063953
28.2498073
31.0327632
37.4492685
30.7033871
26.8999658
27.8922583
30.2159119
37.7734208
32.7969085
26.5815995
24.5044436
25.863724
28.5903472
37.6349363
30.612302
27.8270506
28.3965242
38.1151802
31.9315829
27.4100585
28.3782191
38.5752553
35.5346321
25.7961687
22.1565511
27.7505885
38.0874153
35.1803851
27.624384
28.7256416
38.5266851
38.4094137
36.523303
28.8483884
19.3878324
23.606581
38.2359752
38.1465602
36.8233729
26.4499012
18.8416293
20.9020128
37.8924736
37.727111
25.7346263
24.3482596
38.312085
37.8223655
25.1645357
24.5638777
38.3864665
38.0138339
25.9515364
25.4357492
38.4894909
38.1430357
27.1971439
26.8666002
38.6498121
38.0973099
29.0795425
22.6251691
23.5449072
38.544823
38.4336957
29.1150608
27.5414101
38.8358658
38.423256
28.8971594
23.679315
24.3455478
38.6610627
38.2823571
28.7132895
23.0887926
23.6306335
38.6819347
38.6741593
29.1547606
27.3015757
38.9344964
38.6087096
28.7270355
24.5860078
24.897926
38.7051104
38.389243
28.8826677
24.9798867
25.1623924
38.5321631
38.4738538
29.0173853
26.2593252
23.0820817
23.1700431
38.612303
38.5313185
38.5659081
28.9360726
25.7397936
38.900858
38.5110901
28.7484392
26.695734
25.4516128
25.5064988
38.3517029
38.3287017
38.1995301
29.0380535
26.7429675
26.9301968
23.5919747
23.6223181
38.080542
38.5039844
25.6472277
23.706133
38.2752273
38.5640167
24.5919764
23.5568387
38.2420368
38.518213
24.9883265
24.1919339
38.2125727
38.4836404
24.4155731
25.4075848
38.390972
38.3266122
38.118856
29.2262405
21.2830661
24.2746253
38.2795153
38.2457157
29.1650679
23.9552893
25.9750247
38.6419552
38.1465198
28.8668157
23.1903583
25.0772948
38.59813
38.3758792
26.587649
26.6675043
39.1525837
38.1786918
28.6176171
23.2954771
26.4525508
38.5454053
38.1826657
25.9717382
26.2362922
38.9787981
37.979159
25.1073888
26.4661574
39.1227823
38.1978764
28.1410604
23.166132
26.4885615
38.6494381
38.2192528
27.3693045
27.942934
39.09686
38.4074276
28.7443603
24.3062704
27.7559082
38.8053445
38.4537382
28.5916398
24.9484177
27.1927695
38.642242
38.5610997
28.8683927
25.1077342
24.2344377
25.8032361
38.6693678
38.8205528
38.5849899
38.8406264
38.5061335
28.5641196
26.9590571
28.3945103
28.1128877
28.768926
28.6854218
28.79556
28.8318933
39.1363445
38.6814431
28.4037116
23.9490248
25.7171517
38.718485
38.7440282
26.5512108
26.555554
38.9523236
38.4441136
26.193546
26.8549127
39.0857723
38.4213929
28.7558539
23.2810816
25.9716637
38.6409906
38.4917026
27.3456992
27.6747243
39.0093444
38.4481719
28.697912
24.3857167
27.1331121
38.8161093
38.5231823
28.6520443
24.5818449
27.2732484
38.8335177
38.5190483
28.6191237
24.5860744
27.2541589
38.846136
38.5316673
28.612402
24.5127612
27.2764459
38.84383
38.5442095
28.6073369
24.5774456
27.3025366
38.8426842
38.5458788
28.6044568
24.6009134
27.2223176
38.8319535
38.5882565
28.6340649
24.4567407
26.9505813
38.8917086
38.5968633
28.61576
23.7817124
26.2612168
38.7623342
38.7512625
27.2878376
27.4186058
39.061532
38.6802025
28.6537622
24.1106902
26.40314
38.8618257
38.8517325
28.6223974
24.2522195
26.2874028
39.09883
38.7529286
28.2805713
22.5540069
26.4222176
38.9158135
39.2872156
39.1135004
28.1010607
22.5913896
24.5599616
39.4713441
39.8621274
27.8220959
21.5275649
23.2916724
40.5175395
40.6089375
26.349671
17.632907
21.4678331
41.4153217
42.7658575
42.3963952
42.8184665
42.1254844
24.1818335
16.8108687
17.8530933
40.4320319
40.7248787
18.7338836
17.5226658
39.1843517
39.952327
39.6737453
39.7478938
39.5066447
39.6426294
39.5618754
39.8047966
39.9996133
40.5415265
41.385361
42.9118312
45.9691134
47.0884429
44.2417358
41.7251772
39.2545275
37.2179014
35.4881945
34.0869074
32.6161416
30.9110897
31.7230116
29.3602515
28.3045857
26.7131753
26.4749592
25.347306
24.6740096
20.0843686
19.4248115
16.9036714
46.2722113
39.3127756
37.1416068
28.3775371
24.6569994
17.0689336
12.0768815
5.50842287
1.67367226
16.7986141
35.5213279
56.4574965
88.098804
129.585327
137.41965
139.55421
209.479297
244.159112
291.210122
378.729929
520.0119
670.272403
790.148629
908.606592
1137.75613
1234.56522
1354.23277
1434.34229
1561.7895
1651.82996
1773.51278
1856.54267
1967.42153
2043.19953
2139.6782
2209.97253
2296.71378
2359.98167
2437.13225
2494.19805
2557.34892
2599.2238
2654.16077
2694.68737
2748.61178
2787.21322
2840.72759
2874.48067
2925.64196
2959.03106
3004.77944
3036.67577
3079.73498
3111.36905
3151.88931
3188.44566
3240.47708
3278.98066
3312.13196
3334.62261
3361.00698
3383.637
3408.30174
3429.20924
3452.14934
3472.56969
3494.05946
3513.38588
3533.39955
3552.23317
3573.30904
3597.17259
3620.05439
3641.81297
3660.3163
3678.35133
3695.24795
3712.13813
3728.74747
3745.68874
3761.71807
3778.2585
3793.55263
3807.87738
3821.21295
3835.04121
3849.0335
3864.37333
3878.68912
3893.69001
3907.17344
3921.20147
3933.75016
3946.88379
3958.57483
3970.74693
3980.51727
3990.93906
4000.21893
4010.19354
4019.01052
4028.57058
)
;

boundaryField
{
    closed
    {
        type            calculated;
        value           nonuniform List<scalar> 0();
    }
    open
    {
        type            calculated;
        value           nonuniform List<scalar> 0();
    }
    sides
    {
        type            empty;
    }
    procBoundary4to3
    {
        type            processor;
        value           uniform 38.2742714;
    }
    procBoundary4to5
    {
        type            processor;
        value           uniform 4036.96131;
    }
}


// ************************************************************************* //
