/*--------------------------------*- C++ -*----------------------------------*\
| =========                 |                                                 |
| \\      /  F ield         | OpenFOAM: The Open Source CFD Toolbox           |
|  \\    /   O peration     | Version:  2306                                  |
|   \\  /    A nd           | Website:  www.openfoam.com                      |
|    \\/     M anipulation  |                                                 |
\*---------------------------------------------------------------------------*/
FoamFile
{
    version     2.0;
    format      ascii;
    arch        "LSB;label=32;scalar=64";
    class       volScalarField;
    location    "0.00144";
    object      prefDZ_H2O;
}
// * * * * * * * * * * * * * * * * * * * * * * * * * * * * * * * * * * * * * //

dimensions      [1 -1 -1 0 0 0 0];

internalField   nonuniform List<scalar> 
530
(
-7.74253034e-07
-7.53609153e-07
-7.52038977e-07
-7.52076172e-07
-7.52079962e-07
-7.52080021e-07
-7.52080021e-07
-7.52080022e-07
-7.52080022e-07
-7.52080022e-07
-7.52080022e-07
-7.52080022e-07
-7.52080022e-07
-7.52080022e-07
-7.52080022e-07
-7.52080022e-07
-7.52080022e-07
-7.52080022e-07
-7.52080022e-07
-7.52080022e-07
-7.52080022e-07
-7.52080022e-07
-7.52080022e-07
-7.52080022e-07
-7.52080022e-07
-7.52080022e-07
-7.52080022e-07
-7.52080022e-07
-7.52080022e-07
-7.52080022e-07
-7.52080022e-07
-7.52080022e-07
-7.52080022e-07
-7.52080022e-07
-7.52080022e-07
-7.52080022e-07
-7.52080022e-07
-7.52080022e-07
-7.52080022e-07
-7.52080022e-07
-7.52080022e-07
-7.52080022e-07
-7.52080022e-07
-7.52080022e-07
-7.52080022e-07
-7.52080022e-07
-7.52080022e-07
-7.52080022e-07
-7.52080022e-07
-7.52080022e-07
-7.52080022e-07
-7.52080022e-07
-7.52080022e-07
-7.52080022e-07
-7.52080022e-07
-7.52080022e-07
-7.52080022e-07
-7.52080022e-07
-7.52080022e-07
-7.52080022e-07
-7.52080022e-07
-7.52080021e-07
-7.52080021e-07
-7.52080021e-07
-7.52080021e-07
-7.5208002e-07
-7.52080019e-07
-7.52080015e-07
-7.52080029e-07
-7.52079933e-07
-7.52079763e-07
-7.52080625e-07
-7.52081451e-07
-7.52075312e-07
-7.52067705e-07
-7.52082715e-07
-7.52203587e-07
-7.52203519e-07
-7.51357617e-07
-7.51220077e-07
-7.53987086e-07
-7.54877017e-07
-7.49717729e-07
-7.47813908e-07
-7.5349022e-07
-7.53329717e-07
-7.48718658e-07
-7.3648987e-07
-7.36135182e-07
-7.78071079e-07
-7.73347923e-07
-7.74879778e-07
-7.4782626e-07
-7.31830036e-07
-7.31682871e-07
-7.78649422e-07
-7.74018743e-07
-7.76392523e-07
-7.43103325e-07
-7.29945991e-07
-7.30451419e-07
-7.78593776e-07
-7.74929664e-07
-7.76807224e-07
-7.74019074e-07
-7.7489139e-07
-7.41540899e-07
-7.3574502e-07
-7.31024725e-07
-7.31423647e-07
-7.77190068e-07
-7.74492216e-07
-7.75870445e-07
-7.38628849e-07
-7.35625203e-07
-7.7593738e-07
-7.73673403e-07
-7.74585366e-07
-7.51941133e-07
-7.3736433e-07
-7.37566007e-07
-7.36199013e-07
-7.35834449e-07
-7.32428148e-07
-7.323028e-07
-7.76660381e-07
-7.74601632e-07
-7.75110927e-07
-7.74028253e-07
-7.40302785e-07
-7.37547054e-07
-7.75584267e-07
-7.73056175e-07
-7.74188568e-07
-7.4281622e-07
-7.3587279e-07
-7.32229161e-07
-7.32259462e-07
-7.76510914e-07
-7.74779662e-07
-7.36686123e-07
-7.34825651e-07
-7.75441281e-07
-7.74772298e-07
-7.44781944e-07
-7.33769819e-07
-7.33882259e-07
-7.76217556e-07
-7.74479017e-07
-7.74761167e-07
-7.74140934e-07
-7.50064724e-07
-7.37035105e-07
-7.32899817e-07
-7.32903573e-07
-7.76178018e-07
-7.75049447e-07
-7.42275825e-07
-7.34127273e-07
-7.33912501e-07
-7.75472511e-07
-7.74130524e-07
-7.39639503e-07
-7.36762434e-07
-7.75930623e-07
-7.73782993e-07
-7.37699343e-07
-7.35812575e-07
-7.76479035e-07
-7.73942042e-07
-7.36028192e-07
-7.35584072e-07
-7.77000212e-07
-7.73816957e-07
-7.74873135e-07
-7.37767157e-07
-7.35018243e-07
-7.75789764e-07
-7.74328246e-07
-7.41129659e-07
-7.3607065e-07
-7.3287327e-07
-7.32766086e-07
-7.7702875e-07
-7.74687237e-07
-7.37040915e-07
-7.35151529e-07
-7.76480328e-07
-7.74299036e-07
-7.37951667e-07
-7.35878812e-07
-7.7569823e-07
-7.7464233e-07
-7.45865546e-07
-7.33888114e-07
-7.33729113e-07
-7.75955725e-07
-7.7435586e-07
-7.38219012e-07
-7.36578621e-07
-7.77689357e-07
-7.7413722e-07
-7.72434602e-07
-7.35567072e-07
-7.35342578e-07
-7.76262434e-07
-7.7410098e-07
-7.44563178e-07
-7.38365392e-07
-7.35040552e-07
-7.35200445e-07
-7.76264807e-07
-7.43203183e-07
-7.33532932e-07
-7.76394846e-07
-7.74463028e-07
-7.37691146e-07
-7.35730383e-07
-7.76907375e-07
-7.73931221e-07
-7.36719484e-07
-7.36388167e-07
-7.77656826e-07
-7.73279997e-07
-7.75825319e-07
-7.44866709e-07
-7.3142086e-07
-7.3144325e-07
-7.77296441e-07
-7.74018863e-07
-7.75360793e-07
-7.42434575e-07
-7.32302757e-07
-7.31997963e-07
-7.76689029e-07
-7.74634116e-07
-7.3808565e-07
-7.35514291e-07
-7.7663212e-07
-7.74163784e-07
-7.3858627e-07
-7.36337901e-07
-7.75991649e-07
-7.74551357e-07
-7.48502477e-07
-7.3399399e-07
-7.33802237e-07
-7.76432085e-07
-7.74303511e-07
-7.38221866e-07
-7.35616276e-07
-7.76498911e-07
-7.74037602e-07
-7.38283913e-07
-7.35872056e-07
-7.75988788e-07
-7.74480331e-07
-7.46220787e-07
-7.33794996e-07
-7.33675421e-07
-7.76190233e-07
-7.74356998e-07
-7.38818029e-07
-7.36198085e-07
-7.76053705e-07
-7.74395665e-07
-7.51257083e-07
-7.34557797e-07
-7.34372972e-07
-7.76256363e-07
-7.74071711e-07
-7.39177843e-07
-7.3692439e-07
-7.76015343e-07
-7.73650381e-07
-7.45583409e-07
-7.37950731e-07
-7.34949462e-07
-7.34888957e-07
-7.76715373e-07
-7.74999598e-07
-7.45032188e-07
-7.32864002e-07
-7.32801119e-07
-7.77177089e-07
-7.74033974e-07
-7.75241672e-07
-7.43573453e-07
-7.3177864e-07
-7.31663357e-07
-7.78010313e-07
-7.75624781e-07
-7.75500936e-07
-7.75609274e-07
-7.48827163e-07
-7.3222471e-07
-7.32006605e-07
-7.77440873e-07
-7.75087641e-07
-7.36804699e-07
-7.33552207e-07
-7.7786063e-07
-7.7480372e-07
-7.37122315e-07
-7.34537097e-07
-7.76939676e-07
-7.75049623e-07
-7.43594414e-07
-7.33509301e-07
-7.33332008e-07
-7.76738284e-07
-7.7459925e-07
-7.39219197e-07
-7.36129221e-07
-7.76436044e-07
-7.74538531e-07
-7.45900214e-07
-7.34467355e-07
-7.34386313e-07
-7.76627394e-07
-7.74505819e-07
-7.55614538e-07
-7.35384923e-07
-7.35369289e-07
-7.76413013e-07
-7.7416347e-07
-7.50100562e-07
-7.37116248e-07
-7.36985216e-07
-7.33462491e-07
-7.33214763e-07
-7.77959001e-07
-7.74293092e-07
-7.75401488e-07
-7.73709291e-07
-7.41920442e-07
-7.38623157e-07
-7.76891744e-07
-7.47682385e-07
-7.33840391e-07
-7.76754006e-07
-7.74509818e-07
-7.38346806e-07
-7.35417552e-07
-7.76415982e-07
-7.74667092e-07
-7.4455322e-07
-7.33385513e-07
-7.33087244e-07
-7.76685451e-07
-7.74066665e-07
-7.39157038e-07
-7.36632455e-07
-7.7655024e-07
-7.73213171e-07
-7.493812e-07
-7.38718963e-07
-7.3642982e-07
-7.36038191e-07
-7.7651897e-07
-7.73503871e-07
-7.39243717e-07
-7.37701449e-07
-7.77061643e-07
-7.73042149e-07
-7.7402307e-07
-7.48748977e-07
-7.37181679e-07
-7.369632e-07
-7.36371444e-07
-7.33690228e-07
-7.3353837e-07
-7.77401194e-07
-7.74252401e-07
-7.38658408e-07
-7.36780508e-07
-7.7818495e-07
-7.73746895e-07
-7.75577219e-07
-7.73507323e-07
-7.55726547e-07
-7.38377681e-07
-7.37370627e-07
-7.36962648e-07
-7.34531344e-07
-7.34420184e-07
-7.76896812e-07
-7.42176115e-07
-7.35219233e-07
-7.77883856e-07
-7.7370885e-07
-7.75124559e-07
-7.41664174e-07
-7.35900414e-07
-7.76889361e-07
-7.73857214e-07
-7.3943295e-07
-7.36986661e-07
-7.76728275e-07
-7.73601155e-07
-7.4491363e-07
-7.37477411e-07
-7.34348146e-07
-7.34097193e-07
-7.77918133e-07
-7.74329782e-07
-7.37959078e-07
-7.35392966e-07
-7.776958e-07
-7.74179843e-07
-7.38395819e-07
-7.35752852e-07
-7.77124676e-07
-7.74743322e-07
-7.43939619e-07
-7.32818689e-07
-7.3261747e-07
-7.78311513e-07
-7.74430376e-07
-7.75888381e-07
-7.73821945e-07
-7.74012905e-07
-7.53718572e-07
-7.37869815e-07
-7.37100996e-07
-7.36508977e-07
-7.33820249e-07
-7.33647846e-07
-7.77300498e-07
-7.74035421e-07
-7.4016686e-07
-7.37782626e-07
-7.76977117e-07
-7.73226235e-07
-7.53916802e-07
-7.38990444e-07
-7.35282627e-07
-7.35071377e-07
-7.77090898e-07
-7.74422772e-07
-7.47558258e-07
-7.34876586e-07
-7.34735075e-07
-7.77157447e-07
-7.73822957e-07
-7.74029977e-07
-7.38881197e-07
-7.3572389e-07
-7.77322685e-07
-7.74473212e-07
-7.52615153e-07
-7.34294983e-07
-7.34168288e-07
-7.77565543e-07
-7.74690993e-07
-7.44939915e-07
-7.3409863e-07
-7.33982483e-07
-7.76955704e-07
-7.7473753e-07
-7.47102822e-07
-7.34726514e-07
-7.3453519e-07
-7.77114375e-07
-7.74196209e-07
-7.44571106e-07
-7.36908021e-07
-7.33733191e-07
-7.33635978e-07
-7.78349469e-07
-7.74094156e-07
-7.74752244e-07
-7.38819483e-07
-7.36470458e-07
-7.77890522e-07
-7.73443087e-07
-7.74085203e-07
-7.49739667e-07
-7.38094249e-07
-7.37962979e-07
-7.39492288e-07
-7.36656418e-07
-7.36331876e-07
-7.76979531e-07
-7.73641873e-07
-7.39624579e-07
-7.36664571e-07
-7.77377888e-07
-7.73823931e-07
-7.39363827e-07
-7.36236974e-07
-7.77250331e-07
-7.74487898e-07
-7.4659712e-07
-7.33952251e-07
-7.33619634e-07
-7.77766563e-07
-7.74345179e-07
-7.38899796e-07
-7.35506304e-07
-7.77984941e-07
-7.74171774e-07
-7.38969979e-07
-7.35723617e-07
-7.7756756e-07
-7.74667772e-07
-7.45620219e-07
-7.33874127e-07
-7.3360046e-07
-7.77977114e-07
-7.74446426e-07
-7.39093505e-07
-7.3565756e-07
-7.78063419e-07
-7.74242e-07
-7.39114133e-07
-7.35782567e-07
-7.77644198e-07
-7.74766253e-07
-7.45636589e-07
-7.33686644e-07
-7.3334636e-07
-7.78117857e-07
-7.74483074e-07
-7.38864509e-07
-7.35335553e-07
-7.78440418e-07
-7.74114459e-07
-7.38712668e-07
-7.35786274e-07
)
;

boundaryField
{
    closed
    {
        type            calculated;
        value           uniform -1.03414302e-06;
    }
    open
    {
        type            calculated;
        value           nonuniform List<scalar> 0();
    }
    sides
    {
        type            empty;
    }
    procBoundary0to1
    {
        type            processor;
        value           uniform -7.78234485e-07;
    }
}


// ************************************************************************* //
