/*--------------------------------*- C++ -*----------------------------------*\
| =========                 |                                                 |
| \\      /  F ield         | OpenFOAM: The Open Source CFD Toolbox           |
|  \\    /   O peration     | Version:  2306                                  |
|   \\  /    A nd           | Website:  www.openfoam.com                      |
|    \\/     M anipulation  |                                                 |
\*---------------------------------------------------------------------------*/
FoamFile
{
    version     2.0;
    format      ascii;
    arch        "LSB;label=32;scalar=64";
    class       volScalarField;
    location    "0.00144";
    object      prefDh_H;
}
// * * * * * * * * * * * * * * * * * * * * * * * * * * * * * * * * * * * * * //

dimensions      [1 1 -3 0 0 0 0];

internalField   nonuniform List<scalar> 
530
(
24780.708
23598.3898
23397.9895
23393.5469
23393.1345
23393.1176
23393.1163
23393.1163
23393.1163
23393.1163
23393.1163
23393.1163
23393.1163
23393.1163
23393.1163
23393.1163
23393.1163
23393.1163
23393.1163
23393.1163
23393.1163
23393.1163
23393.1163
23393.1163
23393.1163
23393.1163
23393.1163
23393.1163
23393.1163
23393.1163
23393.1163
23393.1163
23393.1163
23393.1163
23393.1163
23393.1163
23393.1163
23393.1163
23393.1163
23393.1163
23393.1163
23393.1163
23393.1163
23393.1163
23393.1163
23393.1163
23393.1163
23393.1163
23393.1163
23393.1163
23393.1163
23393.1163
23393.1163
23393.1163
23393.1163
23393.1163
23393.1163
23393.1163
23393.1163
23393.1163
23393.1163
23393.1163
23393.1163
23393.1165
23393.1166
23393.118
23393.118
23393.1256
23393.1263
23393.1546
23393.1592
23393.2481
23393.3128
23393.3957
23393.6075
23393.787
23395.396
23395.3764
23390.5052
23389.7595
23412.2044
23421.3974
23382.3064
23380.7473
23408.3649
23415.4414
23379.0438
23168.268
23174.859
23901.0452
23969.8811
23899.1744
23379.734
22788.4772
22825.782
23904.4541
23956.8198
23874.7503
23385.0258
22615.6329
22720.0366
23900.3553
23943.0934
23897.6397
23947.4007
23909.315
23394.4484
23102.913
22761.0954
22775.8802
23941.2256
23931.7939
23932.8081
23350.345
23109.6936
23949.2939
23942.5959
23934.0002
23408.8075
23239.1909
23269.6382
23144.1509
23133.4099
22848.6164
22858.31
23931.5501
23943.6395
23931.8662
23956.0782
23406.9106
23275.1254
23957.7949
23960.6359
23951.8864
23384.2797
23137.1207
22860.7663
22860.9347
23948.1789
23944.4197
23208.1683
23049.29
23956.2057
23928.1067
23387.028
22953.4188
22979.3037
23929.1037
23934.0379
23931.8161
23937.8216
23404.7062
23222.183
22903.8808
22902.6497
23948.2634
23930.7372
23383.8046
22979.4558
22992.2828
23924.6423
23951.9851
23414.2068
23211.734
23928.3358
23958.9877
23266.4619
23144.2034
23930.3814
23958.535
23142.5363
23123.0046
23937.895
23947.7791
23937.9067
23288.0634
23066.7679
23948.7794
23941.8988
23402.0019
23144.6011
22888.9668
22892.5893
23918.8036
23940.4649
23214.5649
23079.1475
23928.1822
23940.9848
23293.2826
23128.7505
23943.1217
23928.5888
23388.7409
22964.4235
22971.2634
23926.5391
23941.9264
23300.5838
23184.4666
23894.642
23928.4149
23671.3662
23111.2569
23070.443
23937.8782
23929.2214
23392.7462
23317.2062
23065.9678
23075.0858
23936.0612
23396.5937
22950.956
23930.1196
23943.6614
23265.6121
23129.4903
23913.7821
23953.1775
23180.4989
23183.9955
23908.5382
23955.2708
23902.0299
23384.0543
22750.2479
22798.3046
23900.832
23947.7325
23907.1957
23387.5414
22822.5984
22841.8885
23909.5545
23947.5191
23293.5579
23110.3089
23920.7243
23943.9149
23339.9133
23165.0393
23934.8404
23928.9837
23393.3184
22974.6256
22982.8862
23924.1248
23954.5093
23314.2587
23125.8367
23932.9852
23955.9883
23325.8115
23139.3436
23943.729
23941.3751
23384.5925
22967.5122
22972.9882
23934.5195
23948.4319
23367.5182
23158.5396
23940.7373
23935.6605
23402.6389
23025.1953
23028.5273
23930.6266
23955.1601
23389.725
23222.3864
23934.8919
23949.1093
23395.6362
23293.6572
23052.0032
23053.0772
23918.6641
23922.934
23396.5467
22874.8989
22888.5975
23904.1969
23930.9332
23906.3881
23404.0749
22775.7333
22788.5456
23892.9465
23906.041
23911.5915
23902.0146
23405.6773
22812.8708
22826.1515
23893.184
23931.716
23187.0857
22950.7451
23900.9363
23933.8128
23219.6148
23020.737
23915.7094
23920.5749
23397.6261
22923.8452
22933.5966
23908.1353
23935.6054
23385.6536
23145.9864
23924.2223
23928.0075
23394.6207
23009.6
23014.2118
23918.2974
23928.5264
23439.3668
23091.0921
23092.045
23930.9727
23935.1019
23397.8893
23222.2819
23228.1683
22927.6039
22935.7948
23903.0607
23952.106
23916.2083
23962.4008
23411.1641
23361.3789
23919.9552
23382.0184
22974.9637
23941.268
23944.8493
23339.4871
23100.8618
23942.7652
23941.3486
23375.1857
22932.0884
22940.1389
23923.9943
23969.0155
23388.0789
23213.4728
23927.8009
23970.3346
23402.1799
23374.4527
23165.0492
23166.3625
23918.7711
23968.702
23391.3481
23293.5659
23927.7499
23966.0122
23946.9756
23389.7099
23243.1217
23221.1943
23179.3631
22950.7059
22958.7121
23899.154
23948.5903
23331.6114
23211.9814
23894.6555
23954.707
23911.6158
23960.1733
23442.0999
23343.4775
23245.2534
23227.4425
23021.7931
23026.1101
23918.8891
23387.9209
23078.4454
23923.2481
23943.0011
23939.0984
23397.0485
23143.495
23921.8305
23958.4033
23407.108
23232.0227
23919.5849
23958.4608
23399.0621
23267.7229
22999.0797
23007.7868
23897.2267
23953.9519
23285.1828
23107.6569
23906.8977
23951.906
23325.8127
23126.2782
23920.1712
23931.4837
23388.6491
22873.975
22885.9888
23893.7951
23945.1065
23912.9878
23951.0514
23936.7132
23420.4593
23298.746
23231.2718
23194.9363
22966.7142
22972.5049
23909.675
23955.6147
23416.3766
23291.5221
23913.8564
23957.7813
23427.3023
23387.5502
23075.8646
23078.7122
23916.0346
23939.0492
23393.853
23045.619
23047.5274
23912.6459
23945.6774
23944.4208
23373.918
23123.3829
23926.9313
23937.4342
23411.4073
23004.7323
23010.2552
23909.1143
23939.0914
23392.1198
22984.6319
22984.2847
23918.9319
23928.106
23391.7634
23027.3171
23035.8151
23905.7755
23945.7045
23398.5701
23214.1901
22955.6909
22959.8065
23905.7911
23941.3991
23937.2647
23366.8112
23185.5008
23921.1812
23954.3624
23951.2878
23396.1021
23322.5553
23299.3005
23388.6694
23186.2831
23188.4281
23912.8781
23968.6596
23417.1448
23213.5353
23912.7739
23962.81
23403.2441
23168.7587
23920.7743
23936.068
23386.4254
22965.5748
22971.8777
23897.1827
23957.3998
23355.6164
23118.5144
23898.7605
23954.8992
23366.1697
23124.872
23911.2529
23930.3002
23390.0472
22953.5241
22964.987
23886.3205
23950.0109
23366.0701
23124.7176
23893.058
23948.8447
23373.638
23124.9174
23907.5092
23924.8789
23391.4227
22933.4065
22944.4679
23882.1885
23951.7894
23341.9665
23104.6792
23881.655
23958.7287
23331.2364
23140.4312
)
;

boundaryField
{
    closed
    {
        type            calculated;
        value           uniform 31790.5795;
    }
    open
    {
        type            calculated;
        value           nonuniform List<scalar> 0();
    }
    sides
    {
        type            empty;
    }
    procBoundary0to1
    {
        type            processor;
        value           uniform 23886.6614;
    }
}


// ************************************************************************* //
