/*--------------------------------*- C++ -*----------------------------------*\
| =========                 |                                                 |
| \\      /  F ield         | OpenFOAM: The Open Source CFD Toolbox           |
|  \\    /   O peration     | Version:  2306                                  |
|   \\  /    A nd           | Website:  www.openfoam.com                      |
|    \\/     M anipulation  |                                                 |
\*---------------------------------------------------------------------------*/
FoamFile
{
    version     2.0;
    format      ascii;
    arch        "LSB;label=32;scalar=64";
    class       surfaceScalarField;
    location    "0.0002";
    object      phi;
}
// * * * * * * * * * * * * * * * * * * * * * * * * * * * * * * * * * * * * * //

dimensions      [1 0 -1 0 0 0 0];

oriented        oriented;

internalField   nonuniform List<scalar> 
529
(
9.22294851e-07
1.08344864e-06
1.24077158e-06
1.3935706e-06
1.54135796e-06
1.68376002e-06
1.82058444e-06
1.95172941e-06
2.07720345e-06
2.19718089e-06
2.31190675e-06
2.42161976e-06
2.52664022e-06
2.62723837e-06
2.72372913e-06
2.81633625e-06
2.90529252e-06
2.99071869e-06
3.07270796e-06
3.15124744e-06
3.22624063e-06
3.29756172e-06
3.36500264e-06
3.42825865e-06
3.48701157e-06
3.54085653e-06
3.58940747e-06
3.63221152e-06
3.66890326e-06
3.69901338e-06
3.72218504e-06
3.7380547e-06
3.74635898e-06
3.7468597e-06
3.73941541e-06
3.72395915e-06
3.70051418e-06
3.66916349e-06
3.63011951e-06
3.58364185e-06
3.53011192e-06
3.46995873e-06
3.40371265e-06
3.33194409e-06
3.25530336e-06
3.17446394e-06
3.09015784e-06
3.00311736e-06
2.91411271e-06
2.8238887e-06
2.73320825e-06
2.64279133e-06
2.55331378e-06
2.46544543e-06
2.37981067e-06
2.29695085e-06
2.21737676e-06
2.14151171e-06
2.06972899e-06
2.00230073e-06
1.93949699e-06
1.88146086e-06
1.82828343e-06
1.78000152e-06
1.73659713e-06
1.69798582e-06
1.66405439e-06
1.63463675e-06
1.60953992e-06
1.5885277e-06
1.57135999e-06
1.55776475e-06
1.54747284e-06
1.54018424e-06
1.53564274e-06
1.53357636e-06
1.53372794e-06
1.53584532e-06
1.53970241e-06
1.5450809e-06
1.55179205e-06
1.5596586e-06
1.56853258e-06
1.57827924e-06
1.58879111e-06
1.59997338e-06
1.61175576e-06
1.62413804e-06
1.63702137e-06
1.65037283e-06
1.66417829e-06
1.67842528e-06
1.69311659e-06
1.70825276e-06
1.72384657e-06
1.73990509e-06
1.75644482e-06
1.77347482e-06
1.7910087e-06
1.80907703e-06
1.82766739e-06
1.84677625e-06
1.86641422e-06
1.88657339e-06
1.90725018e-06
1.92842929e-06
1.95009745e-06
1.97223217e-06
1.99481075e-06
2.01780366e-06
2.04117939e-06
2.06490169e-06
2.0889311e-06
2.11322499e-06
2.13773692e-06
2.16241816e-06
2.18721618e-06
2.21207652e-06
2.23694124e-06
2.26175072e-06
2.28644182e-06
2.31095093e-06
2.33520924e-06
2.35915095e-06
2.38270066e-06
2.40579225e-06
2.42834358e-06
2.45028853e-06
2.47154063e-06
2.49203122e-06
2.51167472e-06
2.53039627e-06
2.54817233e-06
2.56486444e-06
2.5803379e-06
2.59469812e-06
2.60775778e-06
2.61947139e-06
2.6297479e-06
2.63855794e-06
2.64582052e-06
2.65150703e-06
2.65555693e-06
2.65794377e-06
2.65862855e-06
2.65759264e-06
2.6548174e-06
2.65029715e-06
2.64403297e-06
2.63603554e-06
2.62632564e-06
2.61493227e-06
2.60189592e-06
2.58726463e-06
2.57109828e-06
2.55346371e-06
2.5344392e-06
2.51410926e-06
2.49256888e-06
2.46991826e-06
2.4462667e-06
2.42172741e-06
2.39642094e-06
2.37047025e-06
2.34400359e-06
2.31714999e-06
2.29004156e-06
2.26280943e-06
2.23558564e-06
2.2084995e-06
2.1816791e-06
2.15524815e-06
2.12932723e-06
2.10403109e-06
2.07946963e-06
2.05574577e-06
2.03295619e-06
2.01118969e-06
1.99052785e-06
1.97104375e-06
1.95280262e-06
1.93586089e-06
1.92026685e-06
1.90606001e-06
1.89327173e-06
1.88192484e-06
1.87203428e-06
1.86360694e-06
1.85664227e-06
1.85113229e-06
1.84706214e-06
1.84441029e-06
1.84314901e-06
1.84324464e-06
1.84465812e-06
1.84734518e-06
1.85125693e-06
1.85634008e-06
1.86253742e-06
1.86978815e-06
1.87802825e-06
1.88719086e-06
1.89720664e-06
1.90800412e-06
1.91951006e-06
1.9316498e-06
1.94434765e-06
1.95752717e-06
1.97111164e-06
1.98502434e-06
1.99918894e-06
2.01352989e-06
2.02797277e-06
2.04244468e-06
2.05687459e-06
2.07119376e-06
2.08533602e-06
2.09923823e-06
2.11284055e-06
2.12608679e-06
2.13892476e-06
2.15130651e-06
2.16318863e-06
2.17453247e-06
2.18530436e-06
2.19547576e-06
2.20502342e-06
2.21392944e-06
2.22218134e-06
2.22977203e-06
2.23669981e-06
2.24296827e-06
2.24858615e-06
2.25356717e-06
2.25792981e-06
2.26169709e-06
2.26489622e-06
2.26755833e-06
2.26971809e-06
2.27141335e-06
2.27268472e-06
2.27357519e-06
2.27412966e-06
2.27439458e-06
2.27441745e-06
2.27424645e-06
2.27392999e-06
2.27351633e-06
2.27305318e-06
2.27258738e-06
2.27216448e-06
2.27182854e-06
2.27162173e-06
2.2715842e-06
2.27175378e-06
2.27216583e-06
2.27285309e-06
2.27384557e-06
2.2751705e-06
2.27685221e-06
2.27891219e-06
2.28136913e-06
2.28423882e-06
2.28753449e-06
2.29126652e-06
2.29544301e-06
2.30006945e-06
2.30514904e-06
2.31068332e-06
2.31667057e-06
2.32311556e-06
2.33000733e-06
2.33733998e-06
2.34510688e-06
2.35330034e-06
2.36191157e-06
2.37093119e-06
2.38034913e-06
2.39015494e-06
2.40033784e-06
2.41088689e-06
2.42179114e-06
2.4330397e-06
2.44462186e-06
2.45652716e-06
2.46874549e-06
2.48126714e-06
2.49408284e-06
2.5071838e-06
2.52056174e-06
2.53420892e-06
2.54811811e-06
2.56228261e-06
2.57669623e-06
2.59135325e-06
2.60624838e-06
2.62137673e-06
2.63673373e-06
2.65231508e-06
2.66811665e-06
2.68413443e-06
2.70036441e-06
2.71680247e-06
2.73344433e-06
2.75028536e-06
2.76732053e-06
2.78454424e-06
2.80195023e-06
2.81953144e-06
2.83727986e-06
2.85518646e-06
2.87324099e-06
2.89143192e-06
2.90974628e-06
2.92816957e-06
2.94668562e-06
2.96527654e-06
2.98392256e-06
3.00260203e-06
3.02129127e-06
3.03996457e-06
3.05859411e-06
3.07714994e-06
3.09559998e-06
3.11390998e-06
3.1320436e-06
3.14996234e-06
3.16762569e-06
3.18499111e-06
3.20201417e-06
3.21864857e-06
3.23484632e-06
3.25055778e-06
3.26573185e-06
3.28031609e-06
3.29425685e-06
3.30749946e-06
3.31998837e-06
3.33166733e-06
3.34247957e-06
3.35236796e-06
3.36127525e-06
3.36914415e-06
3.3759176e-06
3.38153893e-06
3.38595201e-06
3.38910143e-06
3.39093272e-06
3.39139244e-06
3.3904284e-06
3.38798982e-06
3.38402743e-06
3.3784937e-06
3.37134291e-06
3.36253135e-06
3.35201745e-06
3.3397619e-06
3.32572783e-06
3.30988093e-06
3.29218959e-06
3.27262506e-06
3.2511616e-06
3.22777666e-06
3.20245099e-06
3.17516886e-06
3.14591821e-06
3.11469085e-06
3.08148264e-06
3.04629368e-06
3.00912853e-06
2.96999643e-06
2.92891147e-06
2.88589285e-06
2.84096509e-06
2.79415822e-06
2.74550804e-06
2.69505627e-06
2.64285081e-06
2.58894587e-06
2.53340218e-06
2.47628712e-06
2.41767486e-06
2.35764646e-06
2.29628991e-06
2.23370023e-06
2.16997942e-06
2.10523642e-06
2.03958707e-06
1.97315392e-06
1.9060661e-06
1.83845907e-06
1.77047433e-06
1.70225911e-06
1.63396596e-06
1.56575232e-06
1.49778003e-06
1.43021479e-06
1.36322557e-06
1.29698396e-06
1.23166351e-06
1.167439e-06
1.10448571e-06
1.04297862e-06
9.83091618e-07
9.24996696e-07
8.68863096e-07
8.14856488e-07
7.63138137e-07
7.13864071e-07
6.67184279e-07
6.23241912e-07
5.82172527e-07
5.44103354e-07
5.09152599e-07
4.77428802e-07
4.49030236e-07
4.24044362e-07
4.02547344e-07
3.8460362e-07
3.70265541e-07
3.59573074e-07
3.52553575e-07
3.49221624e-07
3.49578939e-07
3.53614349e-07
3.6130384e-07
3.72610668e-07
3.87485532e-07
4.05866817e-07
4.27680889e-07
4.52842456e-07
4.81254979e-07
5.12811133e-07
5.47393319e-07
5.84874219e-07
6.2511739e-07
6.67977892e-07
7.13302953e-07
7.60932655e-07
8.1070065e-07
8.62434889e-07
9.15958371e-07
9.71089895e-07
1.02764483e-06
1.08543589e-06
1.14427388e-06
1.20396848e-06
1.26432898e-06
1.32516505e-06
1.38628745e-06
1.44750876e-06
1.50864408e-06
1.56963945e-06
1.63448198e-06
1.70313416e-06
1.77546496e-06
1.85122374e-06
1.93001064e-06
2.01124285e-06
2.09411815e-06
2.17757637e-06
2.26026262e-06
2.34049505e-06
2.4162432e-06
2.48512506e-06
2.54443293e-06
2.59119975e-06
2.62232044e-06
2.63474131e-06
2.62572771e-06
2.59321271e-06
2.5362155e-06
2.45529853e-06
2.3530071e-06
2.2342124e-06
2.1062733e-06
1.97887867e-06
1.86347726e-06
1.77229879e-06
1.71695888e-06
1.70671584e-06
1.74648571e-06
1.83479693e-06
1.96204286e-06
2.10947099e-06
2.25096819e-06
2.35860822e-06
2.40988215e-06
2.3951848e-06
2.32271316e-06
2.22828008e-06
2.18074893e-06
2.2501714e-06
2.46062586e-06
2.71222697e-06
2.84218609e-06
2.77994367e-06
2.58049902e-06
2.30570274e-06
1.97684591e-06
1.67702426e-06
1.54717746e-06
1.4833916e-06
1.35148669e-06
1.38041482e-06
1.62877192e-06
1.98786742e-06
1.97088066e-06
1.68212813e-06
1.81907078e-06
2.50902866e-06
3.22873022e-06
3.16956287e-06
2.42890532e-06
1.63977177e-06
1.56212241e-06
2.05079489e-06
2.46574227e-06
2.19046037e-06
1.70648804e-06
1.72570365e-06
2.13356807e-06
2.46293258e-06
2.49310333e-06
2.44594712e-06
2.35104414e-06
2.26054926e-06
2.30597626e-06
2.40347467e-06
)
;

boundaryField
{
    closed
    {
        type            calculated;
        value           nonuniform List<scalar> 0();
    }
    open
    {
        type            calculated;
        value           uniform 2.4233406e-06;
    }
    sides
    {
        type            empty;
        value           nonuniform List<scalar> 0();
    }
    procBoundary5to4
    {
        type            processor;
        value           uniform -7.58101764e-07;
    }
}


// ************************************************************************* //
