/*--------------------------------*- C++ -*----------------------------------*\
| =========                 |                                                 |
| \\      /  F ield         | OpenFOAM: The Open Source CFD Toolbox           |
|  \\    /   O peration     | Version:  2306                                  |
|   \\  /    A nd           | Website:  www.openfoam.com                      |
|    \\/     M anipulation  |                                                 |
\*---------------------------------------------------------------------------*/
FoamFile
{
    version     2.0;
    format      ascii;
    arch        "LSB;label=32;scalar=64";
    class       volScalarField;
    location    "0.00012";
    object      sourcePV;
}
// * * * * * * * * * * * * * * * * * * * * * * * * * * * * * * * * * * * * * //

dimensions      [1 -3 -1 0 0 0 0];

internalField   nonuniform List<scalar> 
531
(
0.0815307809
0.0815303677
0.0815302208
0.0815304372
0.0815305627
0.0815304672
0.0815303891
0.0815304232
0.0815304635
0.0815304532
0.081530437
0.081530438
0.0815304442
0.081530444
0.0815304435
0.0815304436
0.0815304415
0.081530441
0.0815304437
0.0815304449
0.0815304429
0.0815304409
0.0815304415
0.0815304442
0.0815304444
0.0815304429
0.0815304414
0.0815304417
0.0815304436
0.0815304441
0.0815304429
0.0815304418
0.0815304422
0.0815304432
0.0815304432
0.081530443
0.0815304429
0.0815304423
0.0815304422
0.0815304434
0.0815304438
0.0815304422
0.0815304413
0.0815304432
0.0815304449
0.0815304432
0.0815304403
0.0815304411
0.0815304455
0.0815304454
0.0815304411
0.0815304396
0.0815304428
0.0815304463
0.0815304449
0.0815304396
0.0815304397
0.0815304444
0.081530446
0.0815304434
0.0815304405
0.0815304409
0.0815304429
0.0815304445
0.0815304446
0.0815304432
0.0815304401
0.0815304403
0.0815304448
0.0815304464
0.0815304431
0.0815304386
0.0815304404
0.0815304465
0.0815304463
0.0815304408
0.0815304396
0.081530443
0.0815304452
0.0815304435
0.0815304414
0.0815304421
0.0815304432
0.0815304431
0.0815304429
0.0815304432
0.0815304428
0.0815304418
0.0815304424
0.0815304442
0.0815304438
0.0815304413
0.0815304414
0.081530444
0.0815304443
0.0815304422
0.0815304414
0.0815304428
0.0815304439
0.0815304432
0.0815304421
0.0815304423
0.0815304431
0.0815304431
0.0815304426
0.0815304427
0.0815304432
0.081530443
0.0815304421
0.0815304423
0.0815304436
0.0815304436
0.0815304422
0.081530442
0.0815304431
0.0815304435
0.0815304427
0.0815304423
0.0815304428
0.0815304431
0.081530443
0.0815304425
0.0815304424
0.0815304429
0.0815304434
0.0815304432
0.0815304419
0.081530442
0.0815304436
0.0815304439
0.0815304423
0.0815304417
0.081530443
0.0815304439
0.0815304428
0.0815304417
0.0815304425
0.0815304441
0.0815304437
0.0815304412
0.0815304413
0.0815304441
0.0815304449
0.0815304426
0.0815304404
0.0815304417
0.081530445
0.0815304448
0.0815304415
0.0815304407
0.0815304427
0.0815304445
0.0815304439
0.0815304418
0.0815304416
0.0815304429
0.0815304437
0.0815304431
0.0815304423
0.0815304426
0.0815304432
0.0815304428
0.0815304421
0.0815304429
0.0815304442
0.0815304432
0.0815304408
0.0815304412
0.0815304451
0.0815304451
0.0815304418
0.0815304398
0.0815304421
0.0815304454
0.081530445
0.0815304415
0.0815304405
0.0815304422
0.0815304446
0.0815304443
0.0815304419
0.0815304414
0.081530443
0.0815304438
0.0815304428
0.081530442
0.0815304428
0.0815304436
0.0815304428
0.0815304418
0.0815304423
0.0815304438
0.0815304437
0.0815304424
0.0815304421
0.0815304423
0.0815304428
0.0815304436
0.0815304437
0.0815304424
0.0815304417
0.0815304426
0.0815304435
0.0815304431
0.0815304427
0.081530443
0.0815304428
0.0815304418
0.0815304422
0.0815304445
0.0815304444
0.081530441
0.0815304406
0.0815304439
0.0815304453
0.0815304427
0.0815304404
0.081530442
0.081530445
0.0815304443
0.081530441
0.081530441
0.0815304439
0.0815304445
0.0815304425
0.0815304414
0.0815304425
0.0815304438
0.0815304435
0.0815304421
0.0815304421
0.081530443
0.0815304435
0.0815304429
0.0815304421
0.0815304424
0.0815304436
0.0815304435
0.0815304421
0.0815304419
0.0815304432
0.0815304436
0.0815304427
0.0815304422
0.0815304428
0.081530443
0.0815304427
0.0815304427
0.0815304434
0.0815304431
0.0815304417
0.0815304419
0.0815304442
0.0815304442
0.0815304416
0.0815304412
0.0815304436
0.0815304443
0.0815304423
0.0815304415
0.0815304432
0.0815304439
0.0815304422
0.0815304415
0.0815304435
0.0815304447
0.0815304424
0.0815304401
0.0815304423
0.081530446
0.0815304448
0.0815304396
0.0815304397
0.0815304452
0.0815304462
0.0815304422
0.0815304395
0.0815304418
0.0815304455
0.0815304451
0.081530441
0.0815304402
0.0815304431
0.0815304455
0.0815304439
0.0815304401
0.0815304405
0.0815304453
0.0815304455
0.0815304413
0.08153044
0.0815304434
0.0815304453
0.0815304428
0.0815304409
0.0815304426
0.0815304442
0.0815304429
0.0815304415
0.0815304427
0.0815304442
0.0815304431
0.0815304413
0.0815304418
0.0815304442
0.0815304442
0.0815304422
0.0815304413
0.0815304423
0.0815304442
0.0815304441
0.081530442
0.0815304413
0.0815304427
0.0815304443
0.0815304438
0.0815304415
0.0815304415
0.0815304436
0.0815304443
0.0815304426
0.0815304413
0.0815304425
0.0815304441
0.0815304434
0.0815304418
0.0815304421
0.0815304436
0.0815304435
0.0815304422
0.0815304422
0.0815304432
0.0815304434
0.0815304428
0.0815304423
0.0815304424
0.0815304431
0.0815304432
0.0815304428
0.0815304425
0.0815304427
0.081530443
0.0815304429
0.0815304425
0.0815304428
0.0815304432
0.0815304429
0.0815304422
0.0815304426
0.0815304436
0.0815304432
0.0815304419
0.0815304422
0.0815304437
0.0815304435
0.081530442
0.081530442
0.0815304435
0.0815304435
0.0815304423
0.0815304421
0.0815304431
0.0815304434
0.0815304427
0.0815304423
0.0815304429
0.0815304432
0.0815304427
0.0815304424
0.0815304429
0.0815304433
0.0815304427
0.0815304422
0.0815304427
0.0815304433
0.0815304429
0.0815304424
0.0815304427
0.0815304431
0.0815304429
0.0815304424
0.0815304427
0.0815304434
0.0815304432
0.0815304421
0.0815304422
0.0815304434
0.0815304436
0.0815304426
0.0815304419
0.0815304426
0.0815304437
0.0815304435
0.0815304422
0.0815304419
0.0815304429
0.0815304436
0.0815304434
0.0815304422
0.081530442
0.0815304427
0.0815304434
0.0815304434
0.0815304427
0.0815304422
0.0815304424
0.0815304432
0.0815304434
0.081530443
0.0815304421
0.0815304421
0.0815304434
0.0815304439
0.081530443
0.0815304414
0.0815304416
0.0815304438
0.0815304445
0.0815304433
0.081530441
0.0815304411
0.0815304435
0.0815304449
0.081530444
0.0815304408
0.0815304406
0.0815304435
0.0815304453
0.0815304438
0.0815304404
0.0815304406
0.0815304445
0.0815304453
0.0815304423
0.0815304404
0.0815304424
0.0815304447
0.0815304437
0.0815304415
0.0815304419
0.0815304437
0.0815304436
0.0815304421
0.0815304421
0.0815304435
0.0815304436
0.0815304423
0.0815304417
0.0815304428
0.0815304442
0.0815304438
0.0815304414
0.0815304412
0.0815304433
0.0815304446
0.0815304435
0.0815304413
0.0815304414
0.0815304434
0.0815304441
0.0815304433
0.081530442
0.0815304421
0.0815304429
0.0815304433
0.0815304431
0.0815304427
0.0815304425
0.0815304425
0.081530443
0.0815304432
0.0815304428
0.0815304424
0.0815304427
0.0815304433
0.0815304429
0.0815304423
0.0815304426
0.0815304432
0.081530443
0.0815304425
0.0815304427
0.081530443
0.0815304429
0.0815304428
0.0815304428
0.0815304427
0.0815304425
0.081530443
0.0815304436
0.0815304429
0.0815304417
0.081530442
0.081530444
0.0815304439
0.0815304422
0.0815304418
0.0815304426
0.0815304434
0.0815304434
0.0815304436
0.0815304418
0.0815304386
0.0815304425
0.0815304604
0.0815304593
0.0815303823
0.0815303469
0.0815305742
0.0815308413
0.0815303826
0.0815291734
0.0815295406
0.0815335784
0.0815341168
0.0815256489
0.0815203677
0.0815329616
0.0815512293
0.0815400918
0.0814982203
0.0815005627
0.0815639692
0.081577518
0.0815131149
0.0814762807
0.0815248122
0.0815789058
0.081552174
0.0814955707
0.0815051661
)
;

boundaryField
{
    closed
    {
        type            calculated;
        value           nonuniform List<scalar> 0();
    }
    open
    {
        type            calculated;
        value           nonuniform List<scalar> 0();
    }
    sides
    {
        type            empty;
    }
    procBoundary3to2
    {
        type            processor;
        value           uniform 0;
    }
    procBoundary3to4
    {
        type            processor;
        value           uniform 0;
    }
}


// ************************************************************************* //
