/*--------------------------------*- C++ -*----------------------------------*\
| =========                 |                                                 |
| \\      /  F ield         | OpenFOAM: The Open Source CFD Toolbox           |
|  \\    /   O peration     | Version:  2306                                  |
|   \\  /    A nd           | Website:  www.openfoam.com                      |
|    \\/     M anipulation  |                                                 |
\*---------------------------------------------------------------------------*/
FoamFile
{
    version     2.0;
    format      ascii;
    arch        "LSB;label=32;scalar=64";
    class       volScalarField;
    location    "0.0012";
    object      prefDPV_T;
}
// * * * * * * * * * * * * * * * * * * * * * * * * * * * * * * * * * * * * * //

dimensions      [1 -1 -1 -1 0 0 0];

internalField   nonuniform List<scalar> 
531
(
5.89813241e-10
6.11192642e-10
6.0917229e-10
5.97363872e-10
5.89537384e-10
5.89686907e-10
6.10883913e-10
6.0912767e-10
5.97248778e-10
5.89469468e-10
5.89375023e-10
6.11016112e-10
6.08781482e-10
5.91915544e-10
5.90341023e-10
6.11642085e-10
6.08579154e-10
5.91647591e-10
5.90499377e-10
6.10927438e-10
6.0889049e-10
5.95717333e-10
5.89277706e-10
5.89283931e-10
6.10232915e-10
6.09390856e-10
5.95880723e-10
5.88560821e-10
5.88434285e-10
6.11133858e-10
6.09690547e-10
6.10348394e-10
6.09615955e-10
6.09056489e-10
6.09272661e-10
5.94874505e-10
5.89795506e-10
5.89881924e-10
5.88741339e-10
5.88702994e-10
6.10675246e-10
6.0951599e-10
5.96930228e-10
5.89127309e-10
5.89102687e-10
6.10968954e-10
6.0859268e-10
6.09781162e-10
5.9729025e-10
5.89487072e-10
5.89237184e-10
6.10936963e-10
6.08868792e-10
5.91633986e-10
5.90454835e-10
6.10574501e-10
6.08512978e-10
5.98187704e-10
5.90750844e-10
5.90601576e-10
5.89856318e-10
5.89862846e-10
6.10812182e-10
6.08696916e-10
6.10376386e-10
6.08470597e-10
6.09680642e-10
5.9107399e-10
5.88651507e-10
5.88581064e-10
6.10845764e-10
6.09415567e-10
5.98745288e-10
5.89549527e-10
5.89549085e-10
6.12308372e-10
6.09231924e-10
5.99933502e-10
5.89712057e-10
5.89671877e-10
6.12084159e-10
6.09226264e-10
6.00835512e-10
5.89777569e-10
5.89699837e-10
6.11092213e-10
6.09244594e-10
6.01369813e-10
5.89812457e-10
5.89710099e-10
6.0966933e-10
6.09217444e-10
6.02383097e-10
5.89940313e-10
5.89752034e-10
6.0563612e-10
6.09277142e-10
6.05348541e-10
5.89990806e-10
5.89708966e-10
6.04017185e-10
6.09396559e-10
6.06468078e-10
5.89920867e-10
5.8963298e-10
6.06239641e-10
6.09417797e-10
6.03582199e-10
5.89744266e-10
5.89555404e-10
6.07812629e-10
6.09300132e-10
6.03509896e-10
5.89700067e-10
5.89525033e-10
6.03677529e-10
6.09323295e-10
6.09112177e-10
6.03192255e-10
5.90962836e-10
5.89024531e-10
5.88907923e-10
6.12105885e-10
6.09390829e-10
5.99382327e-10
5.89418492e-10
5.89157164e-10
6.12329297e-10
6.08887849e-10
5.92092878e-10
5.90520235e-10
6.11745201e-10
6.0890387e-10
5.99829733e-10
5.89458658e-10
5.89366333e-10
6.12450648e-10
6.09264399e-10
6.00893109e-10
5.89491537e-10
5.89256438e-10
6.12341071e-10
6.08826163e-10
5.92000257e-10
5.90607933e-10
6.11518429e-10
6.08715769e-10
6.00953618e-10
5.89858718e-10
5.8972614e-10
6.04793092e-10
6.09140422e-10
6.06023333e-10
5.8998531e-10
5.89652432e-10
6.00135446e-10
6.09281835e-10
6.108077e-10
5.90112419e-10
5.8963953e-10
5.98233272e-10
6.09499241e-10
6.10288836e-10
5.90094937e-10
5.89455349e-10
6.06005317e-10
6.08971911e-10
6.00558114e-10
5.90834439e-10
5.89458108e-10
5.89226247e-10
6.11547105e-10
6.08750763e-10
5.92001145e-10
5.90754088e-10
6.10723421e-10
6.08682224e-10
6.0071966e-10
5.89729306e-10
5.89667491e-10
6.0933479e-10
6.09155195e-10
6.02634147e-10
5.89498052e-10
5.89442102e-10
6.09645268e-10
6.09267214e-10
6.023079e-10
5.89379702e-10
5.89285171e-10
6.10938399e-10
6.08730219e-10
5.91406005e-10
5.90604888e-10
6.09986063e-10
6.08826014e-10
5.98690773e-10
5.89186118e-10
5.89473239e-10
6.10249176e-10
6.09189973e-10
5.9859717e-10
5.89021986e-10
5.89395287e-10
6.10122359e-10
6.09250488e-10
5.98765299e-10
5.89182744e-10
5.89324754e-10
6.10016218e-10
6.08796361e-10
5.9105561e-10
5.90515278e-10
6.09856373e-10
6.08773792e-10
5.96503344e-10
5.89598881e-10
5.89943867e-10
6.09562093e-10
6.0913608e-10
5.96123882e-10
5.88970281e-10
5.89311195e-10
6.09677499e-10
6.09037701e-10
5.94385196e-10
5.89916101e-10
5.92075272e-10
6.09282549e-10
6.08532681e-10
6.08648608e-10
6.08953309e-10
5.92686522e-10
5.90027589e-10
5.90018461e-10
5.90106196e-10
5.89089282e-10
5.89118587e-10
5.98110177e-10
6.10316734e-10
6.08804537e-10
6.10151829e-10
5.89480773e-10
5.89435278e-10
6.10902553e-10
6.0943686e-10
5.99264686e-10
5.89207601e-10
5.89321049e-10
6.10643081e-10
6.08714728e-10
5.91129025e-10
5.90173025e-10
6.09446987e-10
6.0839851e-10
5.91003275e-10
5.90171457e-10
6.093625e-10
6.08513239e-10
5.90834468e-10
5.90164273e-10
6.09296479e-10
6.0893066e-10
5.96114723e-10
5.8917986e-10
5.89539537e-10
6.0997368e-10
5.96557647e-10
5.89840576e-10
6.10026368e-10
6.09006507e-10
6.03062732e-10
5.89370188e-10
5.8915202e-10
6.05799195e-10
6.09232673e-10
5.91171402e-10
5.9025589e-10
6.09968343e-10
6.09021595e-10
6.00818557e-10
5.89313392e-10
5.8946198e-10
6.09356722e-10
6.09350128e-10
6.02327439e-10
5.89257885e-10
5.89213291e-10
6.08719534e-10
6.09163318e-10
5.91343086e-10
5.90405838e-10
6.10240731e-10
6.09059143e-10
6.01501603e-10
5.89220529e-10
5.89398348e-10
6.11417965e-10
6.09416714e-10
6.0115228e-10
5.89088045e-10
5.89078619e-10
6.11381121e-10
6.09060416e-10
5.91301988e-10
5.90356848e-10
6.10556753e-10
6.09021676e-10
6.0195115e-10
5.89165596e-10
5.89273844e-10
6.11173216e-10
6.09381585e-10
6.01667377e-10
5.89070506e-10
5.88988996e-10
6.1110553e-10
6.09000143e-10
5.91332459e-10
5.9040355e-10
6.11077195e-10
6.09000242e-10
6.03586263e-10
5.89328135e-10
5.89315287e-10
6.11756734e-10
6.093025e-10
6.02882329e-10
5.89355434e-10
5.89325102e-10
6.03892858e-10
6.09550982e-10
6.10599832e-10
5.89621489e-10
5.89131279e-10
6.12311255e-10
6.08877895e-10
5.91640951e-10
5.90941501e-10
6.09042507e-10
6.08324436e-10
6.09173547e-10
5.96601368e-10
5.90311786e-10
5.90319724e-10
5.88771864e-10
5.88586898e-10
6.12469304e-10
6.09511915e-10
6.04183165e-10
5.89337891e-10
5.89133397e-10
6.12244871e-10
6.08930942e-10
5.91577585e-10
5.90425046e-10
6.11465319e-10
6.08573421e-10
5.92041026e-10
5.9054342e-10
6.11536774e-10
6.08957128e-10
6.02135571e-10
5.89127273e-10
5.88973662e-10
6.12115698e-10
6.09086976e-10
5.91245271e-10
5.90085495e-10
6.11532533e-10
6.09148174e-10
6.00014511e-10
5.89009397e-10
5.88864318e-10
6.11916691e-10
6.09118037e-10
5.91269505e-10
5.90091007e-10
6.11340002e-10
6.09176109e-10
5.9942562e-10
5.88956775e-10
5.8883921e-10
6.11730943e-10
6.09151533e-10
5.91189917e-10
5.90034313e-10
6.11094647e-10
6.09263677e-10
5.98602884e-10
5.88766122e-10
5.88566354e-10
6.11600632e-10
6.09030231e-10
5.91048405e-10
5.89808274e-10
6.11165586e-10
6.086451e-10
5.91218353e-10
5.90071677e-10
6.10869869e-10
6.08665339e-10
5.91240348e-10
5.90105777e-10
6.1057313e-10
6.09161124e-10
5.98222128e-10
5.88626635e-10
5.88478078e-10
6.10965225e-10
6.09023723e-10
5.90982784e-10
5.89945587e-10
6.10669427e-10
6.08693254e-10
5.91302155e-10
5.90322221e-10
6.1046258e-10
6.09023555e-10
5.99871472e-10
5.89059906e-10
5.88978649e-10
6.10567352e-10
6.08995732e-10
5.91243734e-10
5.90395483e-10
6.10632755e-10
6.08970402e-10
6.02109341e-10
5.89423641e-10
5.89416277e-10
6.10314724e-10
6.08729511e-10
5.96653208e-10
5.91350131e-10
5.89058442e-10
5.89023009e-10
6.10645147e-10
6.09497654e-10
5.97511482e-10
5.88771188e-10
5.88578513e-10
6.10797044e-10
6.08993733e-10
5.91294854e-10
5.9002087e-10
6.1075154e-10
6.08567616e-10
5.91428525e-10
5.9018527e-10
6.10648756e-10
6.08548647e-10
5.9135575e-10
5.9005681e-10
6.10657724e-10
6.0856255e-10
5.98379732e-10
5.8980357e-10
5.89267432e-10
5.94825183e-10
6.09520607e-10
5.93370291e-10
5.89710613e-10
6.1094727e-10
6.08629932e-10
5.91287539e-10
5.89931142e-10
6.11233858e-10
6.08555276e-10
5.91470335e-10
5.90094592e-10
6.11249921e-10
6.0863112e-10
5.91657963e-10
5.9023457e-10
6.11339644e-10
6.09041872e-10
5.99803001e-10
5.89121925e-10
5.89031803e-10
6.11922096e-10
6.09438771e-10
5.98932932e-10
5.89002906e-10
5.88803034e-10
6.11871356e-10
6.08857608e-10
5.99102135e-10
5.90694227e-10
5.89738248e-10
5.90182453e-10
6.10678095e-10
6.08911388e-10
6.09137551e-10
6.09237203e-10
5.9609971e-10
5.88492023e-10
5.88316611e-10
6.12224153e-10
6.09582855e-10
5.99556946e-10
5.89201193e-10
5.89077388e-10
6.12217844e-10
6.09452111e-10
6.0095985e-10
5.89425578e-10
5.89301566e-10
6.12371234e-10
6.09409977e-10
6.0117453e-10
5.89497807e-10
5.89371043e-10
6.12383153e-10
6.09392959e-10
6.00718747e-10
5.89443926e-10
5.89314037e-10
6.12253604e-10
6.09390594e-10
5.99918138e-10
5.89267427e-10
5.8902953e-10
6.12029697e-10
6.08793114e-10
5.9806127e-10
5.90701318e-10
5.8963167e-10
5.8987238e-10
6.10773889e-10
6.09026644e-10
)
;

boundaryField
{
    closed
    {
        type            calculated;
        value           nonuniform List<scalar> 0();
    }
    open
    {
        type            calculated;
        value           nonuniform List<scalar> 0();
    }
    sides
    {
        type            empty;
    }
    procBoundary3to2
    {
        type            processor;
        value           uniform 5.89743395e-10;
    }
    procBoundary3to4
    {
        type            processor;
        value           uniform 6.09115281e-10;
    }
}


// ************************************************************************* //
