/*--------------------------------*- C++ -*----------------------------------*\
| =========                 |                                                 |
| \\      /  F ield         | OpenFOAM: The Open Source CFD Toolbox           |
|  \\    /   O peration     | Version:  2306                                  |
|   \\  /    A nd           | Website:  www.openfoam.com                      |
|    \\/     M anipulation  |                                                 |
\*---------------------------------------------------------------------------*/
FoamFile
{
    version     2.0;
    format      ascii;
    arch        "LSB;label=32;scalar=64";
    class       volScalarField;
    location    "0.0012";
    object      prefDPV_H2;
}
// * * * * * * * * * * * * * * * * * * * * * * * * * * * * * * * * * * * * * //

dimensions      [1 -1 -1 0 0 0 0];

internalField   nonuniform List<scalar> 
531
(
-3.05886891e-05
-3.14742824e-05
-3.15168413e-05
-3.0937704e-05
-3.05150968e-05
-3.05667516e-05
-3.14920724e-05
-3.15165001e-05
-3.0933489e-05
-3.04924774e-05
-3.05260771e-05
-3.14770952e-05
-3.15547115e-05
-3.09573164e-05
-3.07523606e-05
-3.14511494e-05
-3.15531003e-05
-3.0957852e-05
-3.07664049e-05
-3.14890464e-05
-3.15225756e-05
-3.09266981e-05
-3.04747251e-05
-3.047449e-05
-3.15081078e-05
-3.15023421e-05
-3.09242834e-05
-3.02791887e-05
-3.02962255e-05
-3.13518833e-05
-3.14992752e-05
-3.14732451e-05
-3.1506923e-05
-3.15082961e-05
-3.15060706e-05
-3.0917237e-05
-3.0557608e-05
-3.06147938e-05
-3.0312123e-05
-3.03426632e-05
-3.15044405e-05
-3.14889918e-05
-3.09359685e-05
-3.03901969e-05
-3.04641728e-05
-3.14890198e-05
-3.15300888e-05
-3.14571803e-05
-3.09285832e-05
-3.04551325e-05
-3.05269973e-05
-3.14890513e-05
-3.15488663e-05
-3.09400886e-05
-3.0782051e-05
-3.15304135e-05
-3.15438543e-05
-3.09475275e-05
-3.08148167e-05
-3.07898858e-05
-3.05681633e-05
-3.06285933e-05
-3.14700581e-05
-3.15297819e-05
-3.14519355e-05
-3.1545556e-05
-3.14865349e-05
-3.09137423e-05
-3.02677204e-05
-3.03335406e-05
-3.14991298e-05
-3.15004053e-05
-3.09618171e-05
-3.04867178e-05
-3.05374279e-05
-3.14335935e-05
-3.15041778e-05
-3.09850775e-05
-3.05252949e-05
-3.05552214e-05
-3.13916508e-05
-3.15014357e-05
-3.10043455e-05
-3.05420486e-05
-3.05564424e-05
-3.13503079e-05
-3.1499417e-05
-3.10167248e-05
-3.05546452e-05
-3.05580472e-05
-3.1292285e-05
-3.15015914e-05
-3.10419587e-05
-3.06067348e-05
-3.05637482e-05
-3.1139748e-05
-3.14982123e-05
-3.11290299e-05
-3.06313223e-05
-3.05425176e-05
-3.10851986e-05
-3.14888835e-05
-3.11663595e-05
-3.06019159e-05
-3.05228569e-05
-3.11612905e-05
-3.14860478e-05
-3.10749054e-05
-3.05481171e-05
-3.05218996e-05
-3.12199332e-05
-3.14973883e-05
-3.1072788e-05
-3.05764608e-05
-3.05195554e-05
-3.10735478e-05
-3.1486075e-05
-3.15064903e-05
-3.10640166e-05
-3.08430832e-05
-3.03692101e-05
-3.03758008e-05
-3.14475602e-05
-3.14891196e-05
-3.09735339e-05
-3.04588166e-05
-3.04693053e-05
-3.14205454e-05
-3.15262459e-05
-3.0963836e-05
-3.07539649e-05
-3.14388228e-05
-3.15075006e-05
-3.09839206e-05
-3.04915826e-05
-3.04931363e-05
-3.14259569e-05
-3.14957548e-05
-3.10041271e-05
-3.04853673e-05
-3.04917692e-05
-3.1421405e-05
-3.15290886e-05
-3.0960184e-05
-3.07788952e-05
-3.14484762e-05
-3.15176675e-05
-3.10059971e-05
-3.06104141e-05
-3.05792932e-05
-3.11107502e-05
-3.15046365e-05
-3.11515892e-05
-3.06639676e-05
-3.05433289e-05
-3.09764849e-05
-3.1497276e-05
-3.13301162e-05
-3.07033977e-05
-3.05098958e-05
-3.09375466e-05
-3.14795972e-05
-3.15099751e-05
-3.06708717e-05
-3.04892809e-05
-3.11527979e-05
-3.15076956e-05
-3.09981191e-05
-3.08422646e-05
-3.04565152e-05
-3.04876494e-05
-3.14592313e-05
-3.15359178e-05
-3.09600038e-05
-3.08131165e-05
-3.14864198e-05
-3.15185414e-05
-3.0999041e-05
-3.0561372e-05
-3.05601659e-05
-3.12785434e-05
-3.14986556e-05
-3.10474724e-05
-3.05054313e-05
-3.05018986e-05
-3.12913173e-05
-3.14889187e-05
-3.10377504e-05
-3.04676107e-05
-3.0489691e-05
-3.1492173e-05
-3.15305784e-05
-3.09304288e-05
-3.07727742e-05
-3.15148744e-05
-3.15100006e-05
-3.09560653e-05
-3.04533884e-05
-3.05159899e-05
-3.1530754e-05
-3.15006189e-05
-3.09562982e-05
-3.04164789e-05
-3.04932234e-05
-3.1535833e-05
-3.14956457e-05
-3.09551758e-05
-3.0442669e-05
-3.0513161e-05
-3.15251507e-05
-3.15357489e-05
-3.08784691e-05
-3.07712545e-05
-3.15263992e-05
-3.15216427e-05
-3.09240261e-05
-3.05576677e-05
-3.06296983e-05
-3.15421634e-05
-3.15052537e-05
-3.09197973e-05
-3.04137758e-05
-3.05114012e-05
-3.15520072e-05
-3.15198392e-05
-3.09024292e-05
-3.06149259e-05
-3.09088867e-05
-3.15239985e-05
-3.15479187e-05
-3.15332621e-05
-3.15366255e-05
-3.09117466e-05
-3.06261771e-05
-3.06659269e-05
-3.06202271e-05
-3.04786017e-05
-3.03854548e-05
-3.09362571e-05
-3.14446212e-05
-3.1515626e-05
-3.14721094e-05
-3.04946202e-05
-3.04376266e-05
-3.15049221e-05
-3.14634028e-05
-3.0969684e-05
-3.03988016e-05
-3.05125474e-05
-3.15047553e-05
-3.15383606e-05
-3.08296863e-05
-3.07168034e-05
-3.15435224e-05
-3.15523839e-05
-3.08374539e-05
-3.07287405e-05
-3.15588544e-05
-3.15473536e-05
-3.08173929e-05
-3.07080307e-05
-3.15709e-05
-3.1516411e-05
-3.09225045e-05
-3.04494297e-05
-3.05576908e-05
-3.15226412e-05
-3.09273405e-05
-3.06003007e-05
-3.15550311e-05
-3.1504564e-05
-3.10578113e-05
-3.05100741e-05
-3.04623984e-05
-3.11453783e-05
-3.15123139e-05
-3.08826895e-05
-3.06946716e-05
-3.15439895e-05
-3.14992527e-05
-3.10018427e-05
-3.04683867e-05
-3.05065441e-05
-3.12795224e-05
-3.14884119e-05
-3.1038275e-05
-3.04500804e-05
-3.04734068e-05
-3.12531154e-05
-3.15091556e-05
-3.08876712e-05
-3.0716237e-05
-3.15212311e-05
-3.14900654e-05
-3.10194008e-05
-3.04196707e-05
-3.04815814e-05
-3.14942209e-05
-3.14782007e-05
-3.10103008e-05
-3.03790959e-05
-3.04391418e-05
-3.14831867e-05
-3.15120848e-05
-3.08465258e-05
-3.070212e-05
-3.1501443e-05
-3.14932813e-05
-3.10312783e-05
-3.04187212e-05
-3.04464606e-05
-3.15054371e-05
-3.14817131e-05
-3.10226762e-05
-3.03886144e-05
-3.04138289e-05
-3.14921431e-05
-3.15142439e-05
-3.08665312e-05
-3.07085649e-05
-3.14750779e-05
-3.14911932e-05
-3.10754806e-05
-3.04488463e-05
-3.04495218e-05
-3.14696941e-05
-3.14873993e-05
-3.10558626e-05
-3.0487955e-05
-3.04517105e-05
-3.10808498e-05
-3.14680518e-05
-3.1483868e-05
-3.0512258e-05
-3.04132506e-05
-3.14269348e-05
-3.15119695e-05
-3.0919122e-05
-3.0843713e-05
-3.12653844e-05
-3.15218106e-05
-3.14884104e-05
-3.09293123e-05
-3.06391521e-05
-3.06951257e-05
-3.02920317e-05
-3.03043877e-05
-3.14058661e-05
-3.14794722e-05
-3.10927186e-05
-3.0454726e-05
-3.04421789e-05
-3.14190051e-05
-3.15194432e-05
-3.09463975e-05
-3.07419573e-05
-3.14414746e-05
-3.15269806e-05
-3.09529192e-05
-3.07545085e-05
-3.14448937e-05
-3.15046483e-05
-3.10352574e-05
-3.04363822e-05
-3.04188146e-05
-3.14349881e-05
-3.15157432e-05
-3.08999319e-05
-3.06448218e-05
-3.14507571e-05
-3.1497594e-05
-3.09860112e-05
-3.04003849e-05
-3.03966089e-05
-3.14381001e-05
-3.15133323e-05
-3.09035415e-05
-3.06408574e-05
-3.14573473e-05
-3.14949181e-05
-3.09749133e-05
-3.03857044e-05
-3.03888723e-05
-3.14461163e-05
-3.15107747e-05
-3.08879012e-05
-3.06235479e-05
-3.14705372e-05
-3.14910881e-05
-3.09585972e-05
-3.03355583e-05
-3.03466723e-05
-3.14505849e-05
-3.15286172e-05
-3.08366069e-05
-3.06255474e-05
-3.1465883e-05
-3.15381672e-05
-3.08750482e-05
-3.06823665e-05
-3.14805476e-05
-3.15314179e-05
-3.08969827e-05
-3.06608029e-05
-3.14977832e-05
-3.15027154e-05
-3.0950715e-05
-3.03205211e-05
-3.03280062e-05
-3.14891858e-05
-3.15276906e-05
-3.08289928e-05
-3.06443184e-05
-3.14919505e-05
-3.15258508e-05
-3.08953091e-05
-3.07006411e-05
-3.15025913e-05
-3.14987184e-05
-3.09822913e-05
-3.04097352e-05
-3.04128504e-05
-3.15074964e-05
-3.15127354e-05
-3.08714077e-05
-3.0702903e-05
-3.14937269e-05
-3.14932101e-05
-3.10348181e-05
-3.04897498e-05
-3.04893881e-05
-3.15228483e-05
-3.15077704e-05
-3.09389216e-05
-3.09084158e-05
-3.0401419e-05
-3.04030739e-05
-3.15116495e-05
-3.14840959e-05
-3.09426957e-05
-3.03195028e-05
-3.03418328e-05
-3.14940407e-05
-3.15271052e-05
-3.08659076e-05
-3.06674413e-05
-3.14875206e-05
-3.15393184e-05
-3.09018987e-05
-3.07117271e-05
-3.14980274e-05
-3.15418032e-05
-3.09070254e-05
-3.06838351e-05
-3.15103793e-05
-3.15457087e-05
-3.09514026e-05
-3.06715884e-05
-3.05034645e-05
-3.08882084e-05
-3.15242528e-05
-3.09010385e-05
-3.06122938e-05
-3.15058712e-05
-3.15475632e-05
-3.08903969e-05
-3.06710048e-05
-3.14785979e-05
-3.15479982e-05
-3.09146152e-05
-3.06962621e-05
-3.14734548e-05
-3.15359476e-05
-3.09552901e-05
-3.06941313e-05
-3.14676049e-05
-3.15023831e-05
-3.0984876e-05
-3.04068569e-05
-3.04109008e-05
-3.14592757e-05
-3.149064e-05
-3.09684827e-05
-3.0372984e-05
-3.03837679e-05
-3.14589614e-05
-3.15276137e-05
-3.09718136e-05
-3.08205119e-05
-3.05409389e-05
-3.06760072e-05
-3.14694786e-05
-3.15184695e-05
-3.14952114e-05
-3.15070608e-05
-3.09290253e-05
-3.02516609e-05
-3.02646505e-05
-3.14304231e-05
-3.14809237e-05
-3.09844107e-05
-3.0395011e-05
-3.04019291e-05
-3.14342025e-05
-3.14781496e-05
-3.10109734e-05
-3.04428252e-05
-3.04484417e-05
-3.14265855e-05
-3.14777264e-05
-3.10158408e-05
-3.04584399e-05
-3.04643844e-05
-3.14257423e-05
-3.14797455e-05
-3.10059086e-05
-3.04513088e-05
-3.04574757e-05
-3.1437045e-05
-3.14851028e-05
-3.09871634e-05
-3.04250547e-05
-3.04355329e-05
-3.14516843e-05
-3.15315454e-05
-3.0956349e-05
-3.08221583e-05
-3.05289455e-05
-3.06105287e-05
-3.14834429e-05
-3.152742e-05
)
;

boundaryField
{
    closed
    {
        type            calculated;
        value           nonuniform List<scalar> 0();
    }
    open
    {
        type            calculated;
        value           nonuniform List<scalar> 0();
    }
    sides
    {
        type            empty;
    }
    procBoundary3to2
    {
        type            processor;
        value           uniform -3.05491247e-05;
    }
    procBoundary3to4
    {
        type            processor;
        value           uniform -3.15261563e-05;
    }
}


// ************************************************************************* //
