/*--------------------------------*- C++ -*----------------------------------*\
| =========                 |                                                 |
| \\      /  F ield         | OpenFOAM: The Open Source CFD Toolbox           |
|  \\    /   O peration     | Version:  2306                                  |
|   \\  /    A nd           | Website:  www.openfoam.com                      |
|    \\/     M anipulation  |                                                 |
\*---------------------------------------------------------------------------*/
FoamFile
{
    version     2.0;
    format      ascii;
    arch        "LSB;label=32;scalar=64";
    class       volScalarField;
    location    "0.00196";
    object      H;
}
// * * * * * * * * * * * * * * * * * * * * * * * * * * * * * * * * * * * * * //

dimensions      [0 0 0 0 0 0 0];

internalField   nonuniform List<scalar> 
531
(
1.26015997e-09
1.11741712e-09
1.31870314e-09
1.23335434e-09
3.55276013e-08
4.25398082e-08
4.61442234e-08
4.61204279e-08
1.06760858e-09
1.18669629e-09
4.47863009e-08
4.84670095e-08
1.0933412e-09
1.15221583e-09
4.24209049e-08
4.96526423e-08
1.13531778e-09
1.11017512e-09
3.97868513e-08
5.32823113e-08
5.16695154e-08
1.03597317e-09
1.16517091e-09
4.70153017e-08
4.74766872e-08
9.67502214e-10
1.22400758e-09
1.08418623e-09
4.16285513e-08
4.60973504e-08
1.02123705e-09
1.28368902e-09
1.0716742e-09
3.38819965e-08
5.58801349e-08
4.85916554e-08
9.95675336e-10
1.23275757e-09
1.11003731e-09
4.03884708e-08
4.49323112e-08
1.07000079e-09
1.30882358e-09
1.14865861e-09
3.04500289e-08
4.81107478e-08
4.73110555e-08
1.17931117e-09
1.18486725e-09
3.81690264e-08
4.68309437e-08
5.07140107e-08
5.05171436e-08
9.89541409e-10
1.23235059e-09
1.06790254e-09
3.74037914e-08
4.98481681e-08
1.14526256e-09
1.17835681e-09
4.13660608e-08
4.48500212e-08
1.11769458e-09
1.2444334e-09
4.22151911e-08
4.15740118e-08
1.12212534e-09
3.14109121e-08
4.92173168e-08
1.20448399e-09
1.18450569e-09
3.8664164e-08
4.75583397e-08
1.19048255e-09
1.16800265e-09
3.6586858e-08
5.02456277e-08
4.73056835e-08
1.09279178e-09
1.25417955e-09
1.23387604e-09
3.91392223e-08
4.41488709e-08
1.21412528e-09
1.1749934e-09
3.08146847e-08
4.83074267e-08
4.48888478e-08
5.60821225e-08
5.56018481e-08
9.42771493e-10
1.17627641e-09
1.05409444e-09
1.27848225e-09
1.17310094e-09
3.64188407e-08
4.87715603e-08
4.82968473e-08
1.1104346e-09
1.2209371e-09
4.09836161e-08
4.47899209e-08
1.08744197e-09
1.25545445e-09
4.2608028e-08
4.21814617e-08
1.0916014e-09
3.41480007e-08
5.00636526e-08
1.14237929e-09
1.16823266e-09
4.21403755e-08
4.68162847e-08
1.06271706e-09
1.21137264e-09
4.50384055e-08
4.48055943e-08
1.03472259e-09
1.31816503e-09
1.14128085e-09
2.76689204e-08
4.80087719e-08
4.78922777e-08
1.19651654e-09
1.19107797e-09
3.57182713e-08
4.88161944e-08
4.8495798e-08
1.12648253e-09
1.21880039e-09
3.91714286e-08
4.45182509e-08
1.12343722e-09
1.24882471e-09
3.82441841e-08
4.2374769e-08
1.16758722e-09
1.24802126e-09
3.54094082e-08
4.24085254e-08
4.68692474e-08
4.68454897e-08
1.00722062e-09
1.19622398e-09
4.6674429e-08
4.64365563e-08
9.56642929e-10
1.28167806e-09
1.05742514e-09
3.53226996e-08
4.83295243e-08
1.11766061e-09
1.17982585e-09
4.11606096e-08
4.47707372e-08
1.04430906e-09
1.21913054e-09
4.38928231e-08
4.36449085e-08
9.81892644e-10
1.2609293e-09
1.09923066e-09
1.85823765e-08
4.53759319e-08
4.87401529e-08
4.8600807e-08
9.75346555e-10
1.17803621e-09
4.60844979e-08
4.77320099e-08
9.56496071e-10
1.19098564e-09
4.69069754e-08
4.67526961e-08
9.42697958e-10
1.26865037e-09
1.0868131e-09
3.67683821e-08
5.39887426e-08
5.20392043e-08
9.61576281e-10
1.1549826e-09
4.85479968e-08
4.82937697e-08
8.21374046e-10
1.2223896e-09
9.79794903e-10
1.28542066e-09
1.12976521e-09
3.60653666e-08
5.06430844e-08
4.67881261e-08
5.67971601e-08
5.64346609e-08
8.84801091e-10
1.07261275e-09
1.12470745e-09
1.11635501e-09
3.47178011e-08
4.66005777e-08
4.9739778e-08
4.96649214e-08
9.07089497e-10
1.20680495e-09
1.05380905e-09
3.91830688e-08
4.58552476e-08
9.82699177e-10
1.29231451e-09
1.12336705e-09
3.01210578e-08
4.85514391e-08
4.84040407e-08
1.13211151e-09
1.13153459e-09
3.60749576e-08
5.09773804e-08
5.03149036e-08
1.03453828e-09
1.1992541e-09
4.4040941e-08
4.39468183e-08
9.34591103e-10
1.31740253e-09
1.10704776e-09
3.34019627e-08
5.26298351e-08
4.96812498e-08
1.01337335e-09
1.21995681e-09
1.19070118e-09
4.17102081e-08
4.89283405e-08
1.11594198e-09
1.05950565e-09
3.40147355e-08
9.86193205e-10
1.36250183e-09
3.80720321e-08
4.06312099e-08
4.73108261e-08
4.7139958e-08
1.02279618e-09
1.29220509e-09
1.16641243e-09
3.11095719e-08
4.88635564e-08
4.52889176e-08
5.68842907e-08
5.66682835e-08
8.47916243e-10
1.09577786e-09
1.03128975e-09
4.73683636e-08
5.41036472e-08
8.63042959e-10
1.07348697e-09
1.098848e-09
1.10096914e-09
3.72494235e-08
4.85108145e-08
1.09619683e-09
1.08112556e-09
3.56150029e-08
5.18144479e-08
5.13111356e-08
9.62859028e-10
1.11513694e-09
4.51137793e-08
5.03978778e-08
8.5261759e-10
1.08783138e-09
1.06359019e-09
1.0807094e-09
3.96546133e-08
5.20817253e-08
5.90127451e-08
5.90033561e-08
7.25594999e-10
1.07682463e-09
9.23526419e-10
1.18823643e-09
1.10715354e-09
3.77920645e-08
5.08838074e-08
5.04699306e-08
9.72744538e-10
1.15833503e-09
4.37076674e-08
4.44764651e-08
8.65410114e-10
1.17895537e-09
1.04066935e-09
1.31957773e-08
4.94679302e-08
4.90578071e-08
5.80615326e-08
5.78913988e-08
8.06734676e-10
1.08616146e-09
1.01220162e-09
4.69186534e-08
5.41727006e-08
8.92801399e-10
1.09780825e-09
1.1626281e-09
1.15613976e-09
3.06256314e-08
4.80830306e-08
4.67531008e-08
1.07265962e-09
1.20706752e-09
1.24501976e-09
1.22358422e-09
3.12374184e-08
4.40667772e-08
5.01961517e-08
5.00943404e-08
8.69307497e-10
1.14130949e-09
5.10284552e-08
5.31525039e-08
8.28666974e-10
1.12346046e-09
1.10531611e-09
1.14724033e-09
3.729672e-08
4.84853772e-08
5.32430774e-08
5.31607618e-08
8.60403274e-10
1.21545631e-09
1.04060792e-09
4.07746904e-08
4.94181277e-08
9.59800567e-10
1.28716209e-09
1.14204787e-09
3.78469018e-08
5.57328208e-08
5.54729298e-08
1.05235338e-09
1.19478627e-09
4.78101861e-08
5.45530831e-08
9.71635379e-10
1.2466997e-09
1.25515612e-09
1.29079204e-09
4.30315747e-08
5.6695677e-08
6.48347478e-08
6.46325314e-08
9.99924937e-10
1.41342329e-09
1.3792604e-09
1.82627069e-09
1.85153271e-09
2.30226552e-09
2.38338621e-09
4.69266542e-08
5.36213257e-08
3.72054501e-09
3.95313869e-09
4.42965546e-09
4.8645999e-08
5.84193521e-08
6.20209222e-09
6.69312803e-09
7.18310247e-09
7.7846238e-09
8.25983399e-09
8.90093791e-09
9.38692095e-09
1.00332192e-08
1.05413463e-08
1.11818074e-08
1.17005277e-08
1.23079461e-08
1.28112831e-08
1.33529709e-08
1.38077934e-08
1.42199812e-08
1.4564922e-08
1.47235505e-08
1.4787745e-08
1.44088749e-08
1.3695489e-08
1.14864478e-08
8.82776779e-09
9.10690163e-09
9.39402144e-09
9.75399083e-09
1.0146135e-08
1.05800941e-08
1.1101073e-08
1.16050761e-08
1.22780931e-08
1.28476391e-08
1.41141736e-08
1.49415098e-08
1.549775e-08
1.47548299e-08
1.12977953e-08
1.07659274e-08
1.05266759e-08
1.06431353e-08
1.11751386e-08
1.18369723e-08
1.30018448e-08
1.41594294e-08
1.47201459e-08
1.48120111e-08
1.493466e-08
1.48986555e-08
1.48574411e-08
1.46731078e-08
1.44621992e-08
1.40835381e-08
1.18310994e-08
1.45745418e-09
1.48933143e-09
1.53809826e-09
1.5701446e-09
1.61682072e-09
1.65586781e-09
1.72020976e-09
1.78476411e-09
1.9120136e-09
2.04521885e-09
2.31848636e-09
1.98034801e-09
1.49451432e-09
1.20534519e-09
7.94680205e-10
5.57791977e-10
3.60659598e-10
2.80840344e-10
1.50431415e-10
4.11977149e-11
2.75635252e-11
2.8809923e-11
1.89140569e-11
1.40346931e-11
4.3195267e-11
9.33749579e-11
1.12700273e-10
1.54455332e-10
2.83684379e-09
6.00948327e-09
2.14386126e-08
3.76830682e-08
7.76495265e-08
1.05544476e-07
1.59841091e-07
2.29169365e-07
4.17109435e-07
5.6023139e-07
9.84058298e-07
1.28569487e-06
2.30884517e-06
2.92259724e-06
4.7036307e-06
5.6202486e-06
8.28378078e-06
9.61797482e-06
1.33437875e-05
1.49159981e-05
1.93508531e-05
2.10755925e-05
2.60452937e-05
2.78103333e-05
3.32182031e-05
3.49329396e-05
4.03316581e-05
4.19006764e-05
4.70067087e-05
4.82968745e-05
5.28448921e-05
5.39633695e-05
5.80276727e-05
5.84059066e-05
6.14551831e-05
6.22295661e-05
6.52868139e-05
6.38441967e-05
6.521694e-05
6.69889652e-05
6.94377374e-05
6.29051797e-05
6.22784619e-05
6.99170692e-05
7.50382565e-05
5.57617809e-05
5.109511e-05
7.81471756e-05
9.02788191e-05
3.42311781e-05
1.94531163e-05
8.44719952e-05
9.14995866e-05
5.85181708e-06
3.54241676e-07
6.38453134e-05
7.31865336e-05
6.70366285e-11
7.98764461e-11
4.31145115e-05
6.01435096e-05
9.36756123e-11
1.09827328e-10
3.21039404e-05
4.64758176e-05
1.31247046e-10
1.39223662e-10
2.52408984e-05
3.80157182e-05
4.4465384e-06
1.72767767e-10
1.0269548e-05
3.19396298e-05
1.69410937e-05
2.02911252e-10
2.26607651e-07
2.60812029e-05
1.726384e-05
2.41269766e-10
2.23351471e-10
2.25677737e-05
1.6257728e-05
6.13192265e-06
)
;

boundaryField
{
    closed
    {
        type            calculated;
        value           nonuniform List<scalar> 0();
    }
    open
    {
        type            calculated;
        value           nonuniform List<scalar> 0();
    }
    sides
    {
        type            empty;
    }
    procBoundary4to3
    {
        type            processor;
        value           uniform 9.9237643e-10;
    }
    procBoundary4to5
    {
        type            processor;
        value           uniform 2.56072141e-10;
    }
}


// ************************************************************************* //
