/*--------------------------------*- C++ -*----------------------------------*\
| =========                 |                                                 |
| \\      /  F ield         | OpenFOAM: The Open Source CFD Toolbox           |
|  \\    /   O peration     | Version:  2306                                  |
|   \\  /    A nd           | Website:  www.openfoam.com                      |
|    \\/     M anipulation  |                                                 |
\*---------------------------------------------------------------------------*/
FoamFile
{
    version     2.0;
    format      ascii;
    arch        "LSB;label=32;scalar=64";
    class       volScalarField;
    location    "0.00196";
    object      H2;
}
// * * * * * * * * * * * * * * * * * * * * * * * * * * * * * * * * * * * * * //

dimensions      [0 0 0 0 0 0 0];

internalField   nonuniform List<scalar> 
531
(
0.0110081023
0.0110210902
0.0110026184
0.0110103657
0.0106945278
0.0106735837
0.0106580508
0.0106591209
0.0110258968
0.0110146883
0.0106621527
0.0106505884
0.0110235224
0.0110178195
0.0106704263
0.0106473682
0.0110196362
0.0110214711
0.0106794198
0.0106356879
0.0106366802
0.01102797
0.0110168663
0.0106575871
0.0106534661
0.0110346606
0.0110111268
0.011024071
0.0106741414
0.0106603862
0.0110301242
0.0110053735
0.0110254805
0.0107059768
0.0106241939
0.0106485363
0.0110322012
0.0110105045
0.0110218242
0.0106777354
0.0106640304
0.0110258306
0.0110031525
0.0110184932
0.0107324064
0.0106521605
0.0106535667
0.0110154688
0.0110149672
0.0106854282
0.0106579188
0.0106407622
0.0106430483
0.0110330617
0.011010405
0.0110259439
0.0106883336
0.0106459919
0.0110186785
0.0110153991
0.0106748691
0.0106641955
0.0110213021
0.011009309
0.0106713527
0.0106755002
0.0110212453
0.0107245363
0.0106466329
0.0110133707
0.0110151171
0.0106829256
0.010654244
0.0110147493
0.0110164092
0.0106900055
0.010646164
0.0106526978
0.0110231962
0.0110085223
0.0110102084
0.0106827109
0.0106684074
0.0110125331
0.0110153042
0.0107281082
0.0106544469
0.0106606902
0.010623822
0.0106210155
0.0110367491
0.0110160777
0.0110266827
0.0110066143
0.0110158001
0.0106898148
0.0106524347
0.0106477483
0.0110213405
0.0110121053
0.0106784551
0.0106621507
0.0110238715
0.0110085453
0.0106706789
0.0106726757
0.0110239929
0.0107032804
0.0106443565
0.0110190186
0.011016475
0.0106715708
0.0106565192
0.0110263878
0.0110124234
0.0106613282
0.0106633832
0.0110290761
0.0110025346
0.011019186
0.0107550089
0.0106513595
0.0106506277
0.0110141832
0.0110146015
0.0106920763
0.0106506354
0.0106470486
0.0110201112
0.0110123162
0.0106838789
0.0106634476
0.0110205877
0.011009142
0.0106865242
0.0106727534
0.0110166115
0.0110089506
0.0106956885
0.0106744538
0.0106565641
0.0106568502
0.0110311257
0.0110137303
0.0106569726
0.0106577294
0.0110358731
0.011005827
0.0110266219
0.0106955437
0.0106528849
0.0110210987
0.0110150491
0.0106768966
0.0106656186
0.0110276592
0.0110113533
0.0106684422
0.0106697444
0.0110332623
0.0110072952
0.0110223618
0.0108435916
0.0106624345
0.0106520024
0.0106497425
0.0110336928
0.0110155053
0.010661242
0.01065275
0.0110354279
0.0110142736
0.0106579584
0.010656669
0.0110367923
0.0110068908
0.0110234838
0.0106912356
0.0106348892
0.010635988
0.0110343447
0.011017694
0.0106548732
0.0106502661
0.0110473026
0.0110113225
0.0110329303
0.0110054975
0.0110192779
0.0106937157
0.0106479803
0.010656647
0.0106234816
0.0106207725
0.0110414119
0.0110248388
0.0110196415
0.0110208429
0.0107017539
0.0106613327
0.0106475661
0.0106482764
0.0110400037
0.0110123719
0.0110266922
0.0106840575
0.0106620514
0.0110333944
0.0110044369
0.0110204813
0.0107358055
0.0106521209
0.0106508982
0.0110195797
0.0110195578
0.0106930754
0.0106447474
0.0106421093
0.0110281135
0.0110137475
0.0106686443
0.0106659439
0.0110376061
0.0110025411
0.0110218795
0.0107087098
0.0106377543
0.0106441375
0.0110302722
0.0110118157
0.0110140333
0.0106725387
0.0106515098
0.0110216636
0.0110257169
0.0107016094
0.0110324384
0.0109989423
0.0106905178
0.0106781533
0.0106573575
0.0106551315
0.011029514
0.0110046909
0.0110162387
0.0107277556
0.0106524709
0.0106623351
0.0106216228
0.0106199637
0.0110449911
0.0110226991
0.0110284224
0.0106553811
0.0106315822
0.0110438034
0.0110245664
0.0110223009
0.0110220989
0.010691649
0.0106551381
0.0110226598
0.0110234305
0.0106965618
0.0106457013
0.0106407544
0.0110339351
0.0110208484
0.0106687355
0.0106461552
0.0110442396
0.0110230554
0.0110250866
0.0110238161
0.0106853743
0.0106416756
0.0106132861
0.0106131485
0.0110556626
0.0110241026
0.0110377999
0.0110139381
0.011021025
0.0106904289
0.0106493486
0.0106447555
0.011032937
0.011016713
0.010675054
0.0106691741
0.0110429705
0.0110142197
0.0110269536
0.0109045305
0.0106509741
0.0106522444
0.010617552
0.0106166973
0.0110485008
0.0110234906
0.0110301326
0.010656279
0.0106310428
0.0110412882
0.0110225355
0.0110168134
0.0110172674
0.010730858
0.0106547287
0.0106561546
0.0110248911
0.0110127672
0.0110091002
0.0110113475
0.0107262725
0.0106668529
0.0106442488
0.010643137
0.0110435133
0.011019142
0.0106403211
0.0106306968
0.0110472671
0.0110208856
0.0110223286
0.0110187837
0.010687109
0.0106502622
0.0106304302
0.0106311125
0.0110447886
0.0110126343
0.0110287591
0.0106718317
0.0106436867
0.0110365527
0.011006414
0.0110203758
0.0106793475
0.0106174554
0.0106151886
0.0110287245
0.0110168037
0.0106400573
0.010613408
0.0110374778
0.011013837
0.0110132875
0.011011078
0.0106416895
0.0105949592
0.0105632551
0.0105607776
0.0110440177
0.0110067614
0.0110207639
0.0109903997
0.0109974128
0.0109712604
0.0109738311
0.0105806242
0.0105574937
0.010963879
0.0109302656
0.0109337855
0.0105393373
0.0105066673
0.0109118949
0.0108770198
0.0108763091
0.0108457317
0.0108401314
0.0108118584
0.0108027066
0.0107754599
0.0107636714
0.0107363536
0.0107224258
0.0106951884
0.010679223
0.0106522492
0.0106343636
0.0106081683
0.0105886008
0.0105642818
0.0105448287
0.0105239586
0.0105083879
0.0105005231
0.0104963412
0.0104602452
0.010427604
0.0103887504
0.0103511577
0.0103109932
0.0102676697
0.0102267991
0.0101770934
0.010136093
0.0100800005
0.0100423052
0.00999163866
0.00997208339
0.00995576338
0.00991984949
0.0098637425
0.00981641073
0.0097479897
0.00969240796
0.00961462786
0.00955087779
0.00945304123
0.00936540228
0.00926609908
0.00917005234
0.00907527668
0.00896848715
0.00888068488
0.00876010526
0.00873151645
0.00887565663
0.00877971932
0.00863325188
0.00852899044
0.00838100897
0.00826953153
0.00811589044
0.00799920385
0.00783420597
0.00771207155
0.00752991294
0.00744585493
0.00731603305
0.00722577605
0.00708832058
0.00699213883
0.00684961459
0.00675133131
0.00659914963
0.00662177957
0.00644084635
0.00627358579
0.0060877589
0.00594389385
0.00575694163
0.00560042246
0.00555269714
0.00543178302
0.005069523
0.00494559562
0.00475191016
0.00463999983
0.00443992033
0.00433462225
0.00412831267
0.00402788638
0.00383014285
0.0037372895
0.00354622459
0.00346021059
0.00327548065
0.00319590255
0.00301613869
0.00294194559
0.00276716866
0.00269813238
0.00252943669
0.00246442449
0.00230206686
0.00224063272
0.00208550224
0.00202742861
0.00188003746
0.00182525837
0.00168663079
0.00163506843
0.00150710591
0.00145630793
0.00133719024
0.00129220187
0.00118657422
0.00113810526
0.00103933571
0.00100233076
0.00091711843
0.000869230421
0.000788618605
0.000770541088
0.000710084789
0.000641877107
0.00057363923
0.000617014036
0.000589725486
0.000425159977
0.00036207967
0.000543149274
0.000528396118
0.000221252733
0.000122835591
0.000468403196
0.000448676948
4.47650632e-05
5.58117971e-06
0.000335547396
0.000342287902
1.51918965e-08
1.729053e-08
0.000208922534
0.000265061973
1.9443761e-08
2.18025765e-08
0.000150894269
0.000198593855
2.48737693e-08
2.60019903e-08
0.000118933594
0.000160935577
3.30053426e-05
3.04518887e-08
5.87331289e-05
0.000136491193
8.42913298e-05
3.42734472e-08
3.26235122e-06
0.000114745894
8.46471343e-05
3.90710406e-08
3.68263425e-08
0.000101781014
8.02515744e-05
4.02358548e-05
)
;

boundaryField
{
    closed
    {
        type            calculated;
        value           nonuniform List<scalar> 0();
    }
    open
    {
        type            calculated;
        value           nonuniform List<scalar> 0();
    }
    sides
    {
        type            empty;
    }
    procBoundary4to3
    {
        type            processor;
        value           uniform 0.0110325542;
    }
    procBoundary4to5
    {
        type            processor;
        value           uniform 4.07650488e-08;
    }
}


// ************************************************************************* //
