/*--------------------------------*- C++ -*----------------------------------*\
| =========                 |                                                 |
| \\      /  F ield         | OpenFOAM: The Open Source CFD Toolbox           |
|  \\    /   O peration     | Version:  2306                                  |
|   \\  /    A nd           | Website:  www.openfoam.com                      |
|    \\/     M anipulation  |                                                 |
\*---------------------------------------------------------------------------*/
FoamFile
{
    version     2.0;
    format      ascii;
    arch        "LSB;label=32;scalar=64";
    class       volScalarField;
    location    "8e-05";
    object      prefDZ_H2;
}
// * * * * * * * * * * * * * * * * * * * * * * * * * * * * * * * * * * * * * //

dimensions      [1 -1 -1 0 0 0 0];

internalField   nonuniform List<scalar> 
3810
(
6.29928882e-05
6.34971546e-05
6.23017416e-05
6.11605048e-05
6.21256307e-05
6.34588014e-05
6.35596314e-05
6.2289466e-05
6.15646355e-05
6.22524221e-05
6.26187492e-05
6.23096571e-05
6.23448671e-05
6.27894012e-05
6.35259017e-05
6.2289402e-05
6.2158772e-05
6.2877669e-05
6.34856386e-05
6.22771776e-05
6.22100994e-05
6.27235007e-05
6.34889971e-05
6.22999851e-05
6.23358919e-05
6.26335295e-05
6.34450766e-05
6.23021454e-05
6.17555132e-05
6.23280873e-05
6.31084225e-05
6.34269156e-05
6.23026159e-05
6.1484963e-05
6.1599153e-05
6.20331943e-05
6.21844049e-05
6.25069632e-05
6.35377163e-05
6.27418127e-05
6.19979633e-05
6.23400339e-05
6.35561308e-05
6.2817212e-05
6.19746472e-05
6.23632403e-05
6.35650989e-05
6.29314605e-05
6.19119394e-05
6.23748125e-05
6.35713736e-05
6.29946459e-05
6.18474892e-05
6.2371951e-05
6.35731057e-05
6.29736131e-05
6.18068646e-05
6.23633163e-05
6.35665426e-05
6.29331336e-05
6.17332532e-05
6.23722318e-05
6.35756518e-05
6.34626778e-05
6.10965664e-05
6.10765473e-05
6.23239764e-05
6.35127153e-05
6.31285974e-05
6.17194534e-05
6.23748782e-05
6.35560039e-05
6.30117185e-05
6.18003943e-05
6.23515012e-05
6.35622376e-05
6.28847983e-05
6.18879864e-05
6.22988442e-05
6.35478154e-05
6.23316375e-05
6.21454805e-05
6.28953105e-05
6.34241672e-05
6.2309026e-05
6.15195057e-05
6.2295231e-05
6.35748344e-05
6.3426449e-05
6.21851915e-05
6.13591646e-05
6.19672981e-05
6.26664772e-05
6.3476683e-05
6.22798724e-05
6.20727602e-05
6.26297864e-05
6.34633176e-05
6.22737113e-05
6.21101114e-05
6.25338987e-05
6.34896976e-05
6.2280442e-05
6.20867061e-05
6.25005516e-05
6.3494772e-05
6.23279359e-05
6.21434897e-05
6.25348843e-05
6.34151868e-05
6.22389982e-05
6.13846119e-05
6.15955668e-05
6.18891282e-05
6.23536071e-05
6.35077212e-05
6.24479738e-05
6.20026932e-05
6.23837989e-05
6.35118836e-05
6.25905829e-05
6.2175663e-05
6.2384521e-05
6.34939618e-05
6.2429226e-05
6.15473787e-05
6.17440962e-05
6.24410413e-05
6.35065085e-05
6.28184807e-05
6.20013498e-05
6.23606539e-05
6.3518225e-05
6.27277875e-05
6.17724512e-05
6.19189577e-05
6.26351491e-05
6.34683453e-05
6.29273145e-05
6.1659093e-05
6.24675145e-05
6.3135802e-05
6.2175209e-05
6.24189418e-05
6.35507247e-05
6.31260169e-05
6.12643313e-05
6.12507876e-05
6.16954176e-05
6.23214964e-05
6.35487126e-05
6.35841395e-05
6.33045353e-05
6.17723844e-05
6.21454319e-05
6.35825686e-05
6.33086066e-05
6.17724065e-05
6.22746409e-05
6.35847899e-05
6.3326529e-05
6.179578e-05
6.23069558e-05
6.3591142e-05
6.33462549e-05
6.18176669e-05
6.23030553e-05
6.35955012e-05
6.33670912e-05
6.18302754e-05
6.22870111e-05
6.35957947e-05
6.33918391e-05
6.18129462e-05
6.23177261e-05
6.35859801e-05
6.33958755e-05
6.13758555e-05
6.13517803e-05
6.23120929e-05
6.35437184e-05
6.34738577e-05
6.17517739e-05
6.22809561e-05
6.35788918e-05
6.34693102e-05
6.17108964e-05
6.17083156e-05
6.19754688e-05
6.23226183e-05
6.35928228e-05
6.35365166e-05
6.19062428e-05
6.1870887e-05
6.23043573e-05
6.35692762e-05
6.35221275e-05
6.17362979e-05
6.17329293e-05
6.23133765e-05
6.35707152e-05
6.35345897e-05
6.18834042e-05
6.21620917e-05
6.3588349e-05
6.35225515e-05
6.18426625e-05
6.20289233e-05
6.35942107e-05
6.35208372e-05
6.17675196e-05
6.19371814e-05
6.35963291e-05
6.35228796e-05
6.17136919e-05
6.18689532e-05
6.35954e-05
6.35270166e-05
6.16796007e-05
6.1817905e-05
6.35936844e-05
6.35323215e-05
6.16586284e-05
6.17814565e-05
6.35930207e-05
6.35377735e-05
6.16491651e-05
6.17606449e-05
6.35941959e-05
6.35424977e-05
6.16461276e-05
6.17511967e-05
6.35961801e-05
6.35456071e-05
6.16461932e-05
6.17399711e-05
6.35990002e-05
6.35471786e-05
6.16048446e-05
6.14231893e-05
6.18387876e-05
6.35702757e-05
6.35898764e-05
6.17283033e-05
6.18023629e-05
6.35910231e-05
6.35698365e-05
6.1807335e-05
6.15755196e-05
6.19193536e-05
6.35718491e-05
6.36199102e-05
6.18131498e-05
6.18522726e-05
6.35974317e-05
6.36213713e-05
6.18644855e-05
6.1997718e-05
6.17693779e-05
6.22874998e-05
6.36276394e-05
6.23022903e-05
6.18940871e-05
6.3610569e-05
6.36248064e-05
6.20293388e-05
6.19157186e-05
6.36094934e-05
6.36271415e-05
6.19730645e-05
6.19634188e-05
6.3596973e-05
6.36216523e-05
6.20533283e-05
6.2221374e-05
6.3600807e-05
6.22901303e-05
6.18206765e-05
6.36102923e-05
6.35750746e-05
6.22805349e-05
6.13273421e-05
6.18951131e-05
6.3557293e-05
6.36142758e-05
6.35675954e-05
6.18509266e-05
6.10235408e-05
6.1437484e-05
6.35435374e-05
6.35937589e-05
6.1744315e-05
6.17460716e-05
6.35675925e-05
6.35811655e-05
6.35866534e-05
6.23197736e-05
6.16980941e-05
6.18394287e-05
6.17539799e-05
6.35999704e-05
6.35949804e-05
6.20032452e-05
6.19250696e-05
6.36263406e-05
6.35930695e-05
6.21189163e-05
6.19676662e-05
6.36562162e-05
6.35885941e-05
6.22688655e-05
6.18147679e-05
6.19821353e-05
6.16746889e-05
6.16940973e-05
6.3607226e-05
6.36321724e-05
6.20765083e-05
6.19449824e-05
6.36542984e-05
6.36138564e-05
6.21170463e-05
6.2022939e-05
6.36859584e-05
6.35908749e-05
6.22433293e-05
6.19121554e-05
6.206998e-05
6.36147857e-05
6.36430193e-05
6.21963716e-05
6.20690492e-05
6.3639919e-05
6.36223997e-05
6.19921302e-05
6.19595505e-05
6.36515972e-05
6.35969348e-05
6.19141405e-05
6.1809481e-05
6.36578462e-05
6.35644124e-05
6.21543715e-05
6.15261614e-05
6.18225351e-05
6.12067237e-05
6.15544016e-05
6.35839604e-05
6.35711788e-05
6.35788164e-05
6.2080274e-05
6.150242e-05
6.36302661e-05
6.35662706e-05
6.17898498e-05
6.17550692e-05
6.36265171e-05
6.35782202e-05
6.18358024e-05
6.18551258e-05
6.36263515e-05
6.35931409e-05
6.19011604e-05
6.18616604e-05
6.36301632e-05
6.35915481e-05
6.21765377e-05
6.18172962e-05
6.17077648e-05
6.17332593e-05
6.36043321e-05
6.35875386e-05
6.19418815e-05
6.21021881e-05
6.36221124e-05
6.35948484e-05
6.35964318e-05
6.2300457e-05
6.15113645e-05
6.16492108e-05
6.3627693e-05
6.35874988e-05
6.22802194e-05
6.17776408e-05
6.20055567e-05
6.16803146e-05
6.16917945e-05
6.35904332e-05
6.36176185e-05
6.22727487e-05
6.20219224e-05
6.36043803e-05
6.36242183e-05
6.21360252e-05
6.1998266e-05
6.35956317e-05
6.36301718e-05
6.20900302e-05
6.19578531e-05
6.35796184e-05
6.36262947e-05
6.20784486e-05
6.19323861e-05
6.35648268e-05
6.36175629e-05
6.20759417e-05
6.19070138e-05
6.3556092e-05
6.36061909e-05
6.20913395e-05
6.18452494e-05
6.35537455e-05
6.3591795e-05
6.23215434e-05
6.17886968e-05
6.16384102e-05
6.16344972e-05
6.35221247e-05
6.35671594e-05
6.23396578e-05
6.18444209e-05
6.16153683e-05
6.16251228e-05
6.34939844e-05
6.35550293e-05
6.35433063e-05
6.2340368e-05
6.16764622e-05
6.34910363e-05
6.35592488e-05
6.19600556e-05
6.16830937e-05
6.34846643e-05
6.35570935e-05
6.35541813e-05
6.35598347e-05
6.22897062e-05
6.14621284e-05
6.18086141e-05
6.13165888e-05
6.14357931e-05
6.35155174e-05
6.35854146e-05
6.35648239e-05
6.22865655e-05
6.1820932e-05
6.21009863e-05
6.1772136e-05
6.1880608e-05
6.35259806e-05
6.36161702e-05
6.23556593e-05
6.19963419e-05
6.35448035e-05
6.36231158e-05
6.23254796e-05
6.20124083e-05
6.17918206e-05
6.18242257e-05
6.3562871e-05
6.35869924e-05
6.35840132e-05
6.36028818e-05
6.23004429e-05
6.16431215e-05
6.36022636e-05
6.35786076e-05
6.2296255e-05
6.13076583e-05
6.14083741e-05
6.35549096e-05
6.35786616e-05
6.220065e-05
6.18344638e-05
6.36009785e-05
6.35645517e-05
6.22954516e-05
6.15169956e-05
6.16193919e-05
6.357974e-05
6.35933653e-05
6.22376362e-05
6.19021486e-05
6.36368547e-05
6.35952559e-05
6.2289712e-05
6.15527436e-05
6.1663727e-05
6.36354728e-05
6.35722318e-05
6.22653782e-05
6.16556214e-05
6.18194569e-05
6.36001216e-05
6.36378883e-05
6.2317111e-05
6.21181383e-05
6.36250562e-05
6.36507683e-05
6.23129792e-05
6.21541068e-05
6.36334326e-05
6.36277471e-05
6.22769351e-05
6.20031089e-05
6.21518995e-05
6.18818156e-05
6.18840397e-05
6.35927349e-05
6.35787527e-05
6.22832138e-05
6.1743713e-05
6.17906105e-05
6.35585981e-05
6.36359151e-05
6.23428903e-05
6.20674227e-05
6.3505402e-05
6.36525002e-05
6.23813878e-05
6.20457306e-05
6.34667127e-05
6.36369598e-05
6.23905519e-05
6.20365017e-05
6.34645928e-05
6.36129646e-05
6.23261447e-05
6.19877441e-05
6.1761898e-05
6.17678382e-05
6.34245807e-05
6.35522169e-05
6.23162861e-05
6.16694922e-05
6.16745978e-05
6.34612293e-05
6.35722798e-05
6.22902699e-05
6.18306355e-05
6.19672432e-05
6.16706974e-05
6.16754849e-05
6.33706442e-05
6.36049009e-05
6.23908308e-05
6.20289873e-05
6.33488014e-05
6.3636688e-05
6.24146939e-05
6.20288604e-05
6.33427812e-05
6.36296741e-05
6.23936518e-05
6.22603846e-05
6.33574714e-05
6.23526664e-05
6.18483478e-05
6.33262717e-05
6.36032258e-05
6.24087678e-05
6.19095182e-05
6.33088265e-05
6.36190518e-05
6.24157561e-05
6.18795539e-05
6.32822974e-05
6.36110048e-05
6.23186564e-05
6.19914177e-05
6.33163359e-05
6.23621231e-05
6.16773331e-05
6.33246777e-05
6.35709544e-05
6.2364341e-05
6.18845225e-05
6.33586068e-05
6.35698512e-05
6.22924047e-05
6.14709279e-05
6.15989894e-05
6.34657206e-05
6.36195483e-05
6.23348606e-05
6.20149761e-05
6.34256838e-05
6.36136163e-05
6.22996545e-05
6.19548747e-05
6.18182655e-05
6.18259982e-05
6.34990283e-05
6.35641646e-05
6.22719187e-05
6.14844852e-05
6.1729048e-05
6.3522214e-05
6.36307263e-05
6.22565304e-05
6.19756193e-05
6.35233001e-05
6.35743381e-05
6.2280659e-05
6.19071472e-05
6.35366319e-05
6.3588004e-05
6.19520266e-05
6.24196733e-05
6.35768274e-05
6.2329738e-05
6.21537449e-05
6.2349194e-05
6.35994637e-05
6.36211266e-05
6.21925338e-05
6.15254265e-05
6.17676734e-05
6.16640046e-05
6.1634093e-05
6.16592865e-05
6.25833989e-05
6.35848746e-05
6.23256147e-05
6.1809563e-05
6.23343987e-05
6.36040333e-05
6.2527724e-05
6.18908937e-05
6.23074028e-05
6.3612363e-05
6.26679531e-05
6.19719298e-05
6.23183882e-05
6.36090316e-05
6.28416837e-05
6.20435428e-05
6.23430948e-05
6.36143215e-05
6.35744161e-05
6.17718455e-05
6.15345536e-05
6.2423684e-05
6.35302363e-05
6.263061e-05
6.19890535e-05
6.23119571e-05
6.35866576e-05
6.25872731e-05
6.19831769e-05
6.23418864e-05
6.35852014e-05
6.24332521e-05
6.19552751e-05
6.2428618e-05
6.35588781e-05
6.23070942e-05
6.16412167e-05
6.17233079e-05
6.19265288e-05
6.26747212e-05
6.3557863e-05
6.22862499e-05
6.19665259e-05
6.29614558e-05
6.35485082e-05
6.2333238e-05
6.20701603e-05
6.31115711e-05
6.34970606e-05
6.22804674e-05
6.14049077e-05
6.21334157e-05
6.34580212e-05
6.35448993e-05
6.23126626e-05
6.22002033e-05
6.35327173e-05
6.34800597e-05
6.23259253e-05
6.14412897e-05
6.23044145e-05
6.35402303e-05
6.35076652e-05
6.23184515e-05
6.15003303e-05
6.22987009e-05
6.35339848e-05
6.34963121e-05
6.23155049e-05
6.16462604e-05
6.23136793e-05
6.35139559e-05
6.34619373e-05
6.23680804e-05
6.1662725e-05
6.18268117e-05
6.23225595e-05
6.34899758e-05
6.34553593e-05
6.34893768e-05
6.32161777e-05
6.20507504e-05
6.13589792e-05
6.16893018e-05
6.23671459e-05
6.32677205e-05
6.33877731e-05
6.23882865e-05
6.23059804e-05
6.31385272e-05
6.33873456e-05
6.23132879e-05
6.23211459e-05
6.28695795e-05
6.34202202e-05
6.22697945e-05
6.224908e-05
6.26017078e-05
6.34345241e-05
6.23006166e-05
6.13556768e-05
6.16825495e-05
6.246581e-05
6.34598555e-05
6.24536623e-05
6.17734695e-05
6.23019005e-05
6.35187712e-05
6.26335419e-05
6.16661347e-05
6.23218163e-05
6.35628734e-05
6.29181754e-05
6.16438453e-05
6.23721015e-05
6.35819663e-05
6.31882731e-05
6.17336957e-05
6.2291708e-05
6.35787197e-05
6.33074494e-05
6.16628719e-05
6.20141036e-05
6.36329354e-05
6.34538732e-05
6.19925047e-05
6.12453001e-05
6.20361734e-05
6.35515782e-05
6.35284714e-05
6.16741625e-05
6.17992772e-05
6.35788296e-05
6.35500609e-05
6.18133335e-05
6.18347687e-05
6.36605141e-05
6.35671705e-05
6.23015866e-05
6.18461105e-05
6.21377358e-05
6.36268543e-05
6.35904845e-05
6.22512147e-05
6.14402038e-05
6.20052847e-05
6.35635414e-05
6.36508502e-05
6.21770963e-05
6.19596035e-05
6.3545258e-05
6.36261535e-05
6.22885419e-05
6.20769677e-05
6.35743874e-05
6.35933442e-05
6.23012065e-05
6.18289891e-05
6.19490825e-05
6.18189175e-05
6.19747184e-05
6.1751615e-05
6.2294024e-05
6.35368857e-05
6.3465699e-05
6.35257558e-05
6.33792866e-05
6.20433571e-05
6.18671858e-05
6.35311945e-05
6.36356084e-05
6.22342733e-05
6.22650157e-05
6.35798896e-05
6.23359572e-05
6.18281662e-05
6.35734096e-05
6.36158182e-05
6.22892944e-05
6.19328167e-05
6.35548738e-05
6.35659361e-05
6.23412481e-05
6.19831084e-05
6.22027858e-05
6.35463084e-05
6.35835245e-05
6.23438754e-05
6.16646937e-05
6.10317126e-05
6.1053432e-05
6.34300803e-05
6.35090423e-05
6.34342943e-05
6.35198238e-05
6.23604969e-05
6.1713802e-05
6.13690943e-05
6.1372212e-05
6.35036788e-05
6.35112462e-05
6.23386138e-05
6.14294677e-05
6.14390967e-05
6.35212688e-05
6.35206186e-05
6.23472174e-05
6.15307369e-05
6.15408733e-05
6.35390118e-05
6.3578648e-05
6.2359098e-05
6.1997875e-05
6.3579545e-05
6.35636574e-05
6.23208461e-05
6.18537332e-05
6.18580211e-05
6.35809344e-05
6.36016478e-05
6.22346142e-05
6.18959571e-05
6.36464161e-05
6.36124996e-05
6.19847331e-05
6.17839811e-05
6.36864409e-05
6.35874748e-05
6.22555941e-05
6.1557593e-05
6.22774323e-05
6.35698918e-05
6.24184538e-05
6.15735515e-05
6.14865935e-05
6.17134026e-05
6.28802903e-05
6.35529786e-05
6.35022461e-05
6.16912472e-05
6.16898533e-05
6.36200622e-05
6.35275068e-05
6.18713974e-05
6.1894788e-05
6.36211539e-05
6.35273438e-05
6.17363479e-05
6.19310534e-05
6.35958945e-05
6.35405872e-05
6.16580159e-05
6.2060431e-05
6.36789387e-05
6.35648475e-05
6.22642561e-05
6.18971345e-05
6.23244806e-05
6.35742342e-05
6.28884952e-05
6.18968676e-05
6.2344909e-05
6.35801325e-05
6.22877402e-05
6.19924659e-05
6.3673263e-05
6.35316099e-05
6.22019705e-05
6.23204977e-05
6.35313163e-05
6.23031818e-05
6.17806252e-05
6.18653579e-05
6.18408767e-05
6.18762648e-05
6.16240657e-05
6.23046836e-05
6.36311007e-05
6.3459392e-05
6.23010557e-05
6.13483957e-05
6.22567912e-05
6.3581304e-05
6.36170509e-05
6.33917733e-05
6.21214801e-05
6.22568698e-05
6.36413309e-05
6.33388632e-05
6.19679779e-05
6.23961609e-05
6.35783111e-05
6.33703006e-05
6.18808333e-05
6.23010025e-05
6.34859066e-05
6.23082841e-05
6.23302851e-05
6.36432766e-05
6.33399738e-05
6.17650769e-05
6.23058058e-05
6.35864128e-05
6.3385713e-05
6.14091285e-05
6.14135213e-05
6.17913152e-05
6.23074099e-05
6.36028069e-05
6.34778153e-05
6.20053654e-05
6.20001145e-05
6.34897546e-05
6.342139e-05
6.19974253e-05
6.23125143e-05
6.35990711e-05
6.3429151e-05
6.17965991e-05
6.21867094e-05
6.36061766e-05
6.34440434e-05
6.17266072e-05
6.21203153e-05
6.36002853e-05
6.34665556e-05
6.18783815e-05
6.22554732e-05
6.36079697e-05
6.34974856e-05
6.21632313e-05
6.24040348e-05
6.36044375e-05
6.35085908e-05
6.20178447e-05
6.15734513e-05
6.19375659e-05
6.17763191e-05
6.2328412e-05
6.35716708e-05
6.35010995e-05
6.19734706e-05
6.23559313e-05
6.35824959e-05
6.33919267e-05
6.20494263e-05
6.24132512e-05
6.35782534e-05
6.34334783e-05
6.2060241e-05
6.24148637e-05
6.35581933e-05
6.34687e-05
6.16861499e-05
6.15511285e-05
6.19025022e-05
6.23441959e-05
6.35941227e-05
6.34002797e-05
6.22690474e-05
6.23028016e-05
6.28306296e-05
6.23018737e-05
6.2358777e-05
6.32043122e-05
6.34321637e-05
6.23416529e-05
6.21248434e-05
6.30260267e-05
6.34353534e-05
6.22631511e-05
6.20522749e-05
6.27067002e-05
6.34502721e-05
6.2230943e-05
6.19646219e-05
6.2533121e-05
6.33946646e-05
6.21904549e-05
6.1257728e-05
6.22270187e-05
6.34416428e-05
6.278974e-05
6.21040309e-05
6.22900898e-05
6.35404692e-05
6.26949276e-05
6.2018264e-05
6.23530733e-05
6.3557096e-05
6.29357121e-05
6.21325947e-05
6.23515092e-05
6.35748934e-05
6.32040766e-05
6.17074415e-05
6.1712316e-05
6.18234225e-05
6.17605453e-05
6.15142853e-05
6.22547877e-05
6.36005936e-05
6.36051702e-05
6.33807046e-05
6.19422413e-05
6.20901007e-05
6.3605347e-05
6.34203436e-05
6.19227671e-05
6.21634592e-05
6.36370658e-05
6.3487e-05
6.19383874e-05
6.22928516e-05
6.36287717e-05
6.22866212e-05
6.19964465e-05
6.36530813e-05
6.35843887e-05
6.20395979e-05
6.20779091e-05
6.36522152e-05
6.35981588e-05
6.21096362e-05
6.21179738e-05
6.36740936e-05
6.35812211e-05
6.22797084e-05
6.17163916e-05
6.1999276e-05
6.36408068e-05
6.35788183e-05
6.22800295e-05
6.18299073e-05
6.19648377e-05
6.16875926e-05
6.17886e-05
6.13283442e-05
6.15477637e-05
6.35881956e-05
6.35536153e-05
6.35647012e-05
6.23434026e-05
6.17528583e-05
6.36173241e-05
6.35929586e-05
6.20393815e-05
6.1840282e-05
6.35668703e-05
6.36041878e-05
6.20491929e-05
6.1815234e-05
6.35413186e-05
6.36071368e-05
6.20502955e-05
6.17826948e-05
6.35265677e-05
6.36071843e-05
6.20734584e-05
6.17917176e-05
6.35139605e-05
6.36040154e-05
6.21207502e-05
6.18274569e-05
6.35029962e-05
6.35987564e-05
6.21670474e-05
6.18550481e-05
6.34963881e-05
6.35896805e-05
6.21680321e-05
6.18445274e-05
6.35054468e-05
6.35724712e-05
6.20948139e-05
6.16980207e-05
6.3556484e-05
6.35452479e-05
6.23695234e-05
6.1155943e-05
6.11805182e-05
6.35612238e-05
6.3504725e-05
6.23122343e-05
6.14709923e-05
6.16826292e-05
6.35347222e-05
6.35873153e-05
6.213257e-05
6.17434748e-05
6.3583778e-05
6.36063389e-05
6.21465486e-05
6.18580727e-05
6.36076705e-05
6.35864827e-05
6.23422692e-05
6.18384377e-05
6.17532308e-05
6.17501346e-05
6.35885778e-05
6.35799737e-05
6.21787085e-05
6.1922098e-05
6.36571571e-05
6.3587146e-05
6.20791764e-05
6.18082001e-05
6.36605328e-05
6.35714535e-05
6.22031062e-05
6.12921803e-05
6.1880638e-05
6.35650293e-05
6.36171949e-05
6.19913551e-05
6.18772458e-05
6.36063716e-05
6.35984149e-05
6.20011891e-05
6.1920518e-05
6.36145101e-05
6.35853183e-05
6.21801814e-05
6.14317853e-05
6.22032499e-05
6.36023414e-05
6.36007352e-05
6.22886463e-05
6.16244567e-05
6.23119999e-05
6.36140085e-05
6.36078489e-05
6.22717074e-05
6.15065527e-05
6.21958171e-05
6.3575047e-05
6.366302e-05
6.20112727e-05
6.19385847e-05
6.35704925e-05
6.36443735e-05
6.21212358e-05
6.22632591e-05
6.302281e-05
6.2309196e-05
6.2045305e-05
6.35889054e-05
6.35946545e-05
6.2102682e-05
6.20388153e-05
6.35359073e-05
6.3596844e-05
6.2045672e-05
6.19193447e-05
6.35289297e-05
6.35742283e-05
6.18404864e-05
6.13021037e-05
6.17237062e-05
6.14590381e-05
6.18597566e-05
6.3518626e-05
6.36154406e-05
6.1959425e-05
6.1795543e-05
6.34707084e-05
6.35956393e-05
6.1990204e-05
6.18073129e-05
6.34480365e-05
6.35922415e-05
6.20948625e-05
6.18733647e-05
6.34195677e-05
6.35930575e-05
6.2237833e-05
6.19692298e-05
6.33883792e-05
6.35818635e-05
6.23959872e-05
6.20346202e-05
6.33803263e-05
6.35292216e-05
6.23082719e-05
6.14906333e-05
6.19102861e-05
6.31390178e-05
6.36081583e-05
6.23733249e-05
6.2387716e-05
6.35582632e-05
6.22810765e-05
6.15999761e-05
6.17331957e-05
6.19686331e-05
6.26658099e-05
6.35264648e-05
6.35575529e-05
6.26206851e-05
6.22121687e-05
6.22790938e-05
6.34303829e-05
6.303015e-05
6.19568154e-05
6.23003245e-05
6.32815309e-05
6.22789746e-05
6.24294803e-05
6.33159518e-05
6.35749275e-05
6.19914065e-05
6.14452751e-05
6.17323735e-05
6.1793573e-05
6.17262e-05
6.22573639e-05
6.36192882e-05
6.36002041e-05
6.36108613e-05
6.352681e-05
6.21231966e-05
6.16469166e-05
6.16044619e-05
6.22309584e-05
6.35994116e-05
6.32333614e-05
6.19861143e-05
6.2244695e-05
6.35557718e-05
6.32799651e-05
6.21524109e-05
6.21153881e-05
6.34193339e-05
6.34131265e-05
6.23627235e-05
6.21409342e-05
6.30346154e-05
6.3454405e-05
6.22914302e-05
6.21936619e-05
6.26461329e-05
6.35364402e-05
6.2672137e-05
6.18580428e-05
6.18540247e-05
6.2462006e-05
6.35057591e-05
6.24069584e-05
6.21838237e-05
6.24717301e-05
6.35040724e-05
6.23427143e-05
6.1971348e-05
6.27949735e-05
6.33930245e-05
6.231235e-05
6.24150934e-05
6.36359732e-05
6.34154885e-05
6.20271773e-05
6.16147686e-05
6.18779482e-05
6.17777507e-05
6.14322293e-05
6.22502407e-05
6.34832946e-05
6.36440275e-05
6.31418504e-05
6.20977301e-05
6.23532874e-05
6.36402823e-05
6.35466477e-05
6.18958659e-05
6.2109068e-05
6.36644321e-05
6.35463777e-05
6.21228554e-05
6.10958431e-05
6.22482446e-05
6.34244664e-05
6.36371511e-05
6.34913029e-05
6.22968463e-05
6.16740267e-05
6.16303129e-05
6.23281289e-05
6.31398107e-05
6.23266149e-05
6.19984252e-05
6.35646662e-05
6.35913747e-05
6.17681802e-05
6.17424257e-05
6.35560586e-05
6.35497061e-05
6.35733005e-05
6.35696451e-05
6.22415423e-05
6.10782983e-05
6.15591386e-05
6.35297019e-05
6.35931716e-05
6.22906246e-05
6.1650188e-05
6.15623503e-05
6.15609832e-05
6.35492368e-05
6.35905563e-05
6.20795373e-05
6.18729522e-05
6.35642454e-05
6.36071653e-05
6.21287806e-05
6.19113341e-05
6.36096216e-05
6.35744103e-05
6.22788551e-05
6.14354401e-05
6.17263973e-05
6.35800218e-05
6.36335426e-05
6.22218272e-05
6.20940607e-05
6.36164682e-05
6.35718488e-05
6.23783055e-05
6.18122377e-05
6.17925181e-05
6.29752414e-05
6.30099562e-05
6.20258227e-05
6.18913818e-05
6.18996476e-05
6.19535822e-05
6.3624222e-05
6.36248459e-05
6.227233e-05
6.20944243e-05
6.36649145e-05
6.36423212e-05
6.19789328e-05
6.19281937e-05
6.36622394e-05
6.36224871e-05
6.18607152e-05
6.18499617e-05
6.36572756e-05
6.36002491e-05
6.18430297e-05
6.18634892e-05
6.36507792e-05
6.35838451e-05
6.18963693e-05
6.19722743e-05
6.36524907e-05
6.35713707e-05
6.19241442e-05
6.22882414e-05
6.36367378e-05
6.22637299e-05
6.20193942e-05
6.368277e-05
6.35511797e-05
6.2119851e-05
6.2239162e-05
6.36809264e-05
6.35468836e-05
6.22676043e-05
6.18469759e-05
6.19932952e-05
6.16123798e-05
6.18999079e-05
6.35761651e-05
6.3545778e-05
6.19841743e-05
6.20558071e-05
6.36027873e-05
6.35328785e-05
6.17636803e-05
6.20226548e-05
6.36444272e-05
6.35424037e-05
6.36204238e-05
6.35139751e-05
6.21506474e-05
6.14060481e-05
6.17454801e-05
6.12615909e-05
6.17377871e-05
6.35680166e-05
6.35292906e-05
6.20075254e-05
6.21424454e-05
6.36167368e-05
6.35203593e-05
6.21431175e-05
6.2323416e-05
6.36393329e-05
6.3548159e-05
6.23048232e-05
6.20203514e-05
6.19667752e-05
6.21840652e-05
6.36241089e-05
6.35408855e-05
6.22414271e-05
6.19324453e-05
6.19383789e-05
6.1877409e-05
6.15360188e-05
6.20143103e-05
6.35999347e-05
6.35825759e-05
6.35749926e-05
6.21170361e-05
6.18835419e-05
6.36260231e-05
6.35247738e-05
6.19247717e-05
6.20182428e-05
6.36264684e-05
6.35328971e-05
6.18431761e-05
6.21163001e-05
6.36152745e-05
6.36029661e-05
6.35817066e-05
6.22157778e-05
6.16337968e-05
6.1831506e-05
6.18445693e-05
6.36178312e-05
6.36034221e-05
6.19053925e-05
6.18712863e-05
6.3619949e-05
6.36173387e-05
6.19306204e-05
6.18976225e-05
6.35974611e-05
6.35982359e-05
6.19470848e-05
6.18610744e-05
6.35926183e-05
6.35505686e-05
6.2192543e-05
6.12466544e-05
6.21381114e-05
6.35344528e-05
6.361702e-05
6.36024637e-05
6.21597883e-05
6.15561748e-05
6.17160937e-05
6.18347744e-05
6.35475216e-05
6.35889105e-05
6.21193868e-05
6.19011762e-05
6.3476983e-05
6.3606479e-05
6.21123039e-05
6.18923167e-05
6.34636523e-05
6.36071626e-05
6.20943807e-05
6.1882262e-05
6.34638617e-05
6.36184103e-05
6.20629138e-05
6.18889461e-05
6.34732177e-05
6.36465838e-05
6.19506521e-05
6.23022878e-05
6.35927983e-05
6.23001674e-05
6.18802789e-05
6.35321366e-05
6.36106227e-05
6.19739681e-05
6.19462469e-05
6.35430982e-05
6.35724971e-05
6.15860776e-05
6.13692878e-05
6.18048848e-05
6.15588516e-05
6.21622358e-05
6.35515769e-05
6.36426517e-05
6.17915424e-05
6.18661914e-05
6.3580608e-05
6.36101608e-05
6.18282618e-05
6.18854884e-05
6.35873188e-05
6.35971702e-05
6.18373555e-05
6.19127315e-05
6.35873726e-05
6.35962279e-05
6.18438573e-05
6.19270889e-05
6.35860406e-05
6.3594277e-05
6.18608085e-05
6.19463179e-05
6.35821885e-05
6.35963355e-05
6.18568528e-05
6.19675747e-05
6.35669032e-05
6.35832006e-05
6.157631e-05
6.15566578e-05
6.17028247e-05
6.22544878e-05
6.35749424e-05
6.36188014e-05
6.18161717e-05
6.19116316e-05
6.35917057e-05
6.36016127e-05
6.18220878e-05
6.18945458e-05
6.35922236e-05
6.35904832e-05
6.1811987e-05
6.18867282e-05
6.35911589e-05
6.35790973e-05
6.18008945e-05
6.18605114e-05
6.35890748e-05
6.3573912e-05
6.18007485e-05
6.18231628e-05
6.35703803e-05
6.35935563e-05
6.18004447e-05
6.20402578e-05
6.35272036e-05
6.35860163e-05
6.35004149e-05
6.18989012e-05
6.12097324e-05
6.15450354e-05
6.22529098e-05
6.3594785e-05
6.35202823e-05
6.35500958e-05
6.35483971e-05
6.1923657e-05
6.13485983e-05
6.15931052e-05
6.21395194e-05
6.3560195e-05
6.35577718e-05
6.22260658e-05
6.18646282e-05
6.34360833e-05
6.35157615e-05
6.22737628e-05
6.12260848e-05
6.20688735e-05
6.35298404e-05
6.35653339e-05
6.23553298e-05
6.13053083e-05
6.20426137e-05
6.3140601e-05
6.35966687e-05
6.2321415e-05
6.18263961e-05
6.27232706e-05
6.3564959e-05
6.22674516e-05
6.18147858e-05
6.26578029e-05
6.35603248e-05
6.22528955e-05
6.17940842e-05
6.26274942e-05
6.35502653e-05
6.22457674e-05
6.18125301e-05
6.25965052e-05
6.35345245e-05
6.22462341e-05
6.18713905e-05
6.25616878e-05
6.35176713e-05
6.2257802e-05
6.1954388e-05
6.25235188e-05
6.35043282e-05
6.22837257e-05
6.20384053e-05
6.24831629e-05
6.34956129e-05
6.2323338e-05
6.20939561e-05
6.24412925e-05
6.34909549e-05
6.23713711e-05
6.20867066e-05
6.23984634e-05
6.34771714e-05
6.23760259e-05
6.1650687e-05
6.17460766e-05
6.21010367e-05
6.23642292e-05
6.35394897e-05
6.26862641e-05
6.2021561e-05
6.23338312e-05
6.35657502e-05
6.28723404e-05
6.19972825e-05
6.23472459e-05
6.35893585e-05
6.30560718e-05
6.17150006e-05
6.17140661e-05
6.19329276e-05
6.18709432e-05
6.22685043e-05
6.35818212e-05
6.33665745e-05
6.20362257e-05
6.23245413e-05
6.36052652e-05
6.34243132e-05
6.21018744e-05
6.23268389e-05
6.36192717e-05
6.3468327e-05
6.21179729e-05
6.23299193e-05
6.3629317e-05
6.34974723e-05
6.21083869e-05
6.22946251e-05
6.36345503e-05
6.35574074e-05
6.20262405e-05
6.19994668e-05
6.20513707e-05
6.20177082e-05
6.1981361e-05
6.21501765e-05
6.36445465e-05
6.35666584e-05
6.20331968e-05
6.20488769e-05
6.36655238e-05
6.35653689e-05
6.21229658e-05
6.16240718e-05
6.22046602e-05
6.35994258e-05
6.36568685e-05
6.35965003e-05
6.22612812e-05
6.16203681e-05
6.20504185e-05
6.35945249e-05
6.36345672e-05
6.20323645e-05
6.19836638e-05
6.35998966e-05
6.3602266e-05
6.21444874e-05
6.16778995e-05
6.19391018e-05
6.14473147e-05
6.17337255e-05
6.35644337e-05
6.36010071e-05
6.35811683e-05
6.36029242e-05
6.35919658e-05
6.20143516e-05
6.14958506e-05
6.15597329e-05
6.15590335e-05
6.35362162e-05
6.35986921e-05
6.194551e-05
6.18247931e-05
6.35391949e-05
6.36013544e-05
6.19836594e-05
6.18578902e-05
6.35420545e-05
6.36050272e-05
6.19766349e-05
6.18290316e-05
6.35429208e-05
6.36057036e-05
6.20482264e-05
6.17673226e-05
6.35394952e-05
6.36001321e-05
6.22742705e-05
6.16054437e-05
6.16080982e-05
6.35397553e-05
6.35648578e-05
6.22836089e-05
6.14749541e-05
6.18024898e-05
6.35395145e-05
6.36163967e-05
6.35807865e-05
6.3631058e-05
6.36196543e-05
6.22707967e-05
6.17966463e-05
6.19501981e-05
6.17195765e-05
6.1794126e-05
6.15713143e-05
6.15820045e-05
6.34800201e-05
6.36071949e-05
6.23626586e-05
6.19797728e-05
6.34877638e-05
6.36117922e-05
6.23057712e-05
6.19987784e-05
6.34874963e-05
6.36142168e-05
6.2310856e-05
6.19992591e-05
6.34796601e-05
6.36088768e-05
6.23216923e-05
6.1963618e-05
6.34786279e-05
6.36024988e-05
6.23220146e-05
6.18555773e-05
6.34933986e-05
6.35923441e-05
6.23182636e-05
6.18473443e-05
6.18707391e-05
6.17699722e-05
6.13524494e-05
6.13650479e-05
6.34468972e-05
6.35841902e-05
6.23958454e-05
6.19196575e-05
6.34526297e-05
6.36109411e-05
6.2335772e-05
6.1917528e-05
6.34598569e-05
6.36257135e-05
6.23132362e-05
6.19038463e-05
6.34612779e-05
6.36294956e-05
6.23196642e-05
6.19106226e-05
6.34628885e-05
6.36302361e-05
6.2339518e-05
6.19420382e-05
6.34669711e-05
6.36291789e-05
6.23622921e-05
6.20150697e-05
6.34754398e-05
6.36191152e-05
6.22549791e-05
6.21108515e-05
6.34836144e-05
6.35666368e-05
6.34711954e-05
6.25632464e-05
6.20507426e-05
6.1941677e-05
6.18437243e-05
6.18546234e-05
6.14264073e-05
6.1446392e-05
6.35200811e-05
6.35694404e-05
6.239121e-05
6.20673282e-05
6.35587362e-05
6.35912687e-05
6.23607348e-05
6.18864015e-05
6.36070523e-05
6.35521674e-05
6.23300867e-05
6.12507132e-05
6.12922786e-05
6.36187015e-05
6.35086886e-05
6.23240275e-05
6.12380774e-05
6.13417638e-05
6.35907494e-05
6.35791316e-05
6.22331583e-05
6.19293453e-05
6.36493855e-05
6.35968378e-05
6.2150154e-05
6.19826582e-05
6.36925394e-05
6.35632183e-05
6.22957531e-05
6.19505249e-05
6.20183785e-05
6.14899353e-05
6.16667409e-05
6.36235185e-05
6.35723312e-05
6.22612665e-05
6.21098329e-05
6.36544262e-05
6.35923842e-05
6.20823845e-05
6.19872504e-05
6.36558127e-05
6.3571309e-05
6.22952077e-05
6.18204509e-05
6.2316848e-05
6.35467468e-05
6.3002272e-05
6.14700011e-05
6.23033798e-05
6.35885134e-05
6.22865938e-05
6.1772921e-05
6.36799827e-05
6.35386726e-05
6.19356421e-05
6.22410057e-05
6.36232033e-05
6.35682148e-05
6.24872703e-05
6.18837635e-05
6.18689293e-05
6.16982734e-05
6.22816208e-05
6.36020065e-05
6.36311958e-05
6.18337022e-05
6.18671914e-05
6.36177086e-05
6.35681435e-05
6.18171279e-05
6.17516856e-05
6.36337095e-05
6.33895942e-05
6.18405027e-05
6.12549014e-05
6.22715815e-05
6.35306035e-05
6.36779805e-05
6.19551433e-05
6.18186893e-05
6.35202217e-05
6.3619967e-05
6.2023936e-05
6.18462708e-05
6.34812266e-05
6.36189878e-05
6.20938489e-05
6.18900233e-05
6.34494148e-05
6.36230316e-05
6.21767929e-05
6.20201803e-05
6.34387476e-05
6.35390135e-05
6.20776829e-05
6.23381452e-05
6.35259591e-05
6.24659738e-05
6.19908259e-05
6.2575509e-05
6.35737492e-05
6.23357084e-05
6.19607685e-05
6.33849199e-05
6.36016269e-05
6.23369761e-05
6.19301422e-05
6.17332728e-05
6.17273179e-05
6.34011353e-05
6.35811111e-05
6.23547579e-05
6.20686289e-05
6.34040924e-05
6.35779185e-05
6.2314196e-05
6.1859738e-05
6.2070167e-05
6.1759719e-05
6.18597055e-05
6.34613866e-05
6.3573599e-05
6.35420283e-05
6.35935305e-05
6.23056016e-05
6.18113769e-05
6.17252216e-05
6.17477196e-05
6.35042977e-05
6.35589743e-05
6.22877799e-05
6.16916998e-05
6.19327884e-05
6.16541932e-05
6.16893229e-05
6.35153271e-05
6.36088348e-05
6.23636066e-05
6.19844767e-05
6.35098156e-05