/*--------------------------------*- C++ -*----------------------------------*\
| =========                 |                                                 |
| \\      /  F ield         | OpenFOAM: The Open Source CFD Toolbox           |
|  \\    /   O peration     | Version:  2306                                  |
|   \\  /    A nd           | Website:  www.openfoam.com                      |
|    \\/     M anipulation  |                                                 |
\*---------------------------------------------------------------------------*/
FoamFile
{
    version     2.0;
    format      ascii;
    arch        "LSB;label=32;scalar=64";
    class       volScalarField;
    location    "8e-05";
    object      sourcePV;
}
// * * * * * * * * * * * * * * * * * * * * * * * * * * * * * * * * * * * * * //

dimensions      [1 -3 -1 0 0 0 0];

internalField   nonuniform List<scalar> 
3810
(
0.0214149845
0.00443456099
0.124697089
0.179016747
0.13696355
0.00380466177
0.00485958034
0.117060411
0.162374778
0.107560431
0.0485326214
0.0886250528
0.123897573
0.0348613697
0.00471191657
0.110360619
0.136603945
0.0282585597
0.00448883534
0.104564432
0.134312534
0.0395543243
0.0047217846
0.0892166241
0.128745704
0.0471609881
0.00457288439
0.0860122849
0.154795106
0.127984044
0.0112184976
0.00448183373
0.0838450339
0.165679333
0.160689009
0.142382414
0.135331783
0.060783361
0.00536325892
0.039330581
0.143406754
0.102292416
0.00544352992
0.0336649015
0.144372012
0.107146121
0.00554563269
0.0259105295
0.14706726
0.112919335
0.00557209364
0.0218715032
0.149811475
0.116043006
0.00556037945
0.0230806482
0.151597932
0.117043997
0.00552747538
0.0254376069
0.154867248
0.124014691
0.00539260904
0.00363969949
0.181388309
0.182280385
0.101225786
0.00515232541
0.0139760194
0.155810191
0.123320749
0.00541920536
0.0202386775
0.152310765
0.116899893
0.00538247453
0.0286182315
0.148485739
0.0974863291
0.00508417897
0.0841131758
0.137818285
0.0270106405
0.00409364154
0.128225315
0.164479068
0.0975915588
0.00559980914
0.00374967332
0.134911024
0.170994388
0.14421972
0.0441644294
0.00446279246
0.0953443796
0.14055091
0.0475281666
0.00461497532
0.0905069877
0.138550836
0.0566830994
0.00469540314
0.0874817933
0.139275922
0.0605165123
0.00483565765
0.0802390153
0.137222472
0.0569203108
0.00414000239
0.101254009
0.169768416
0.160345676
0.148439418
0.0816354923
0.00475589439
0.0644607412
0.143392353
0.0803056067
0.00528849386
0.0509394669
0.135683638
0.0805720146
0.00499772781
0.0663862456
0.162730347
0.154603147
0.0699436086
0.00524875919
0.0338598082
0.143496304
0.0946281851
0.00537552304
0.0400389461
0.153468366
0.147629164
0.0469727916
0.00527120129
0.0268459208
0.158725463
0.0654937301
0.0125070344
0.136012437
0.119310049
0.00561890886
0.0144252197
0.1744785
0.175280969
0.156326211
0.102163806
0.00587423847
0.00612438103
0.00517741754
0.152768449
0.138406191
0.00585435862
0.00303902818
0.152815425
0.133190356
0.0058998944
0.0024988121
0.15175041
0.131748114
0.00596331373
0.00281269424
0.150735888
0.131753869
0.00601429948
0.00308147769
0.15015585
0.132226242
0.00603334612
0.00335212406
0.150959663
0.13060201
0.00584596634
0.00370186918
0.169631902
0.171188537
0.119838069
0.00564557692
0.00407626268
0.15395191
0.131381665
0.00594300829
0.00415990102
0.155426638
0.156153056
0.143943235
0.115474308
0.00625582046
0.005414044
0.147080904
0.149067577
0.107019827
0.00601647468
0.00503418013
0.154365108
0.155035413
0.123088314
0.00599815502
0.00498459302
0.148096921
0.136157882
0.00612040578
0.00489489632
0.149696619
0.142121179
0.00610006256
0.00490805109
0.1528672
0.146126404
0.0060578899
0.00496809327
0.155167575
0.149056793
0.00602271339
0.00505298461
0.156643398
0.151219245
0.00599785613
0.00515419466
0.15755418
0.152746896
0.00598626268
0.0052677693
0.157956036
0.153613241
0.00598747166
0.00538880788
0.15806708
0.154007176
0.00599504297
0.00550442549
0.158043788
0.154507946
0.00599092569
0.00561572696
0.159748944
0.16792903
0.149621956
0.00590156215
0.00598274763
0.154791893
0.151508198
0.00608793266
0.00588852622
0.150980919
0.161502316
0.145936096
0.00590985624
0.00627640041
0.151129563
0.148898169
0.00611204737
0.00629356685
0.148477955
0.142607612
0.152581071
0.109574279
0.00614688146
0.122117681
0.147076461
0.00631927921
0.00630350013
0.141214763
0.146064731
0.00604546163
0.00634690057
0.143752515
0.143952963
0.00599574053
0.00649337091
0.140381791
0.132791126
0.0060475443
0.114255702
0.150788827
0.00640736031
0.00596379547
0.121798843
0.171921138
0.146843248
0.00525849292
0.00627671095
0.00550874185
0.148836175
0.184349775
0.166841537
0.00537011262
0.00593938489
0.154216153
0.153922771
0.00557357898
0.00632420269
0.00581322313
0.126167122
0.156063854
0.149775012
0.153495013
0.0058845314
0.00614174236
0.142341878
0.146136113
0.00617845645
0.00622707955
0.136787334
0.144395656
0.00648346722
0.00617990703
0.127577894
0.151186608
0.142746042
0.157053954
0.155487185
0.00611471336
0.00624182402
0.139062592
0.144847285
0.00644514423
0.00632707748
0.136604596
0.141748453
0.00671386957
0.0062173788
0.116322089
0.146804001
0.138596183
0.00636451874
0.00648610522
0.133938383
0.139126259
0.00639931944
0.00634401813
0.142662962
0.144251202
0.0063088558
0.00611131907
0.145872687
0.151201094
0.00644242773
0.00576646908
0.135482036
0.163663725
0.150424697
0.176848054
0.162016833
0.00536320954
0.00607562868
0.00536413629
0.139318249
0.164454284
0.00622155286
0.00575045635
0.151713197
0.153541414
0.00607066037
0.00592211168
0.149827047
0.149054145
0.00611755242
0.00606109416
0.146918098
0.148747073
0.00630377277
0.00603158404
0.135093314
0.150889558
0.155628649
0.154309344
0.00599360624
0.00608572488
0.145434949
0.138315215
0.00589194074
0.00657307026
0.00574888253
0.119340444
0.163922271
0.157883536
0.00623967133
0.00597834548
0.119497781
0.152863814
0.142118196
0.156976029
0.15586941
0.00599962571
0.00622267191
0.130920485
0.141544524
0.00599354522
0.00640796953
0.136844241
0.142394226
0.00576556729
0.00639623792
0.138979141
0.144151561
0.00557468525
0.00635048948
0.139626028
0.145368579
0.00540440742
0.00629343393
0.139795212
0.14663003
0.00525996862
0.00620645612
0.13904913
0.149504076
0.00523537843
0.00606642209
0.128588801
0.152264101
0.15881502
0.158810196
0.00482403537
0.00590785104
0.127113989
0.150235167
0.159878315
0.159483069
0.00439325195
0.00616341943
0.00542609497
0.123703612
0.157241394
0.00450329577
0.00586375631
0.145072614
0.156880975
0.00395986113
0.00574378347
0.00557828322
0.00568905358
0.120331889
0.166387796
0.15107869
0.172446998
0.167217273
0.00479836298
0.00624857627
0.00617128954
0.115967162
0.151261041
0.138024985
0.153497461
0.147886683
0.00538214946
0.00635079336
0.126753307
0.142530284
0.00505013494
0.00634304309
0.124230786
0.14221629
0.152179645
0.15061625
0.00526554489
0.0061113829
0.00597249216
0.00605814348
0.128986401
0.15831879
0.00531731368
0.00567003872
0.128006192
0.172724352
0.168225883
0.00531754521
0.00588087097
0.134053823
0.150400043
0.00551858134
0.00584476234
0.120958273
0.163992454
0.15924438
0.00560334509
0.00605242653
0.132142502
0.147179588
0.00580073157
0.00599846964
0.120181936
0.162122327
0.157452508
0.00593393598
0.00589374534
0.110819809
0.158007446
0.150141702
0.00581155399
0.00641805473
0.125037389
0.136774773
0.00569248027
0.0065985701
0.127802311
0.135310923
0.00564619119
0.00644532933
0.112107903
0.142547672
0.135928851
0.148021462
0.148010983
0.00561337203
0.00609087782
0.100602191
0.154250784
0.151621868
0.00529221354
0.00638913001
0.1223313
0.138953974
0.00435110879
0.00647019253
0.126222799
0.14002781
0.00393718486
0.00637917551
0.125849446
0.14077146
0.0036859202
0.00623127546
0.11631683
0.143473572
0.153939695
0.153234857
0.0035587712
0.00584780557
0.104854953
0.1577967
0.157271635
0.00400656381
0.00595709274
0.108456969
0.150553631
0.144097059
0.157896017
0.15697665
0.00335122817
0.0061310503
0.117946851
0.140991906
0.00264265109
0.0062383679
0.121438091
0.140917405
0.00248870675
0.00630682583
0.122258747
0.131242793
0.00289288377
0.0867951059
0.149958285
0.00231939794
0.00598370936
0.124696573
0.146475584
0.00271439623
0.00603229859
0.125993613
0.147721323
0.00420845358
0.00605578936
0.130194414
0.143138092
0.00234947973
0.082015883
0.157380425
0.00227140246
0.0058255263
0.127048671
0.148075294
0.0027425509
0.00576229515
0.115263656
0.165986806
0.160152283
0.00431859926
0.00623499199
0.12274673
0.141651683
0.00371720384
0.00623269625
0.115003072
0.144889199
0.150808752
0.150700082
0.0045435174
0.00585063576
0.113104221
0.16538609
0.154200759
0.00501993864
0.00630796765
0.131734534
0.14355349
0.00480725878
0.00618842594
0.130719944
0.147944736
0.00515435631
0.00490376691
0.144655369
0.0706668899
0.00615305461
0.0906031965
0.136127267
0.0808284964
0.00632197261
0.0061229464
0.133801027
0.163396964
0.15271947
0.157605765
0.158640219
0.157684129
0.0516332863
0.00601585634
0.0841612164
0.150997825
0.0821224079
0.00613848929
0.0568373032
0.14721496
0.0915719626
0.00620518872
0.0444178024
0.143605302
0.0973638202
0.0062459563
0.0310966393
0.140633854
0.11348516
0.00619937771
0.00484242711
0.152659479
0.163447081
0.0693510193
0.00569479624
0.0475482795
0.143436197
0.0925544379
0.00596975442
0.0512703631
0.143191231
0.082819825
0.00588663643
0.0667733579
0.144481682
0.0682966859
0.00556662188
0.0856725942
0.158310462
0.154646027
0.14568384
0.0437743882
0.00551803503
0.107329718
0.143908284
0.0228787554
0.00544028585
0.115308925
0.139828466
0.0133986695
0.00510033189
0.108666324
0.169150716
0.136029267
0.00386683449
0.00510369907
0.13148898
0.134652109
0.00433973085
0.00475121508
0.124356182
0.167773362
0.127354922
0.00465333521
0.00474367169
0.123135854
0.165405262
0.122324835
0.00488807149
0.00473577931
0.116975604
0.15953544
0.115875146
0.00487081552
0.00426761872
0.127445258
0.158446905
0.151394735
0.116198813
0.00460607065
0.00499571067
0.00503273064
0.00722842171
0.14136287
0.171094955
0.15697569
0.127825677
0.00337645697
0.00348797505
0.125215339
0.130909735
0.0105389758
0.00377514063
0.114108147
0.129763872
0.0281821673
0.00411622889
0.10084356
0.132632828
0.0502104458
0.00446132876
0.0825993269
0.170880828
0.157102138
0.0653953572
0.00450321699
0.0627666181
0.153253984
0.099533617
0.0050270893
0.0474599998
0.157478499
0.114706587
0.00542199051
0.0269677827
0.158253284
0.125580692
0.00574806372
0.00898266779
0.154440915
0.13139611
0.00587867829
0.00298526948
0.157284743
0.143135916
0.00618975396
0.00472005954
0.142999645
0.175449246
0.140442884
0.00569430456
0.00521759027
0.157380054
0.15140761
0.00584042354
0.00565150223
0.151290593
0.150168368
0.00594345671
0.00604117757
0.0962584243
0.149742072
0.136794329
0.00615980067
0.00605859828
0.130688515
0.167162226
0.14179912
0.00550181374
0.00646521063
0.135719884
0.143892661
0.00514547102
0.00637537278
0.130893134
0.13934153
0.00518353828
0.00618878249
0.122113861
0.15054743
0.144666705
0.151061037
0.143537582
0.154197934
0.130038371
0.00517416666
0.00527838758
0.00579353449
0.00308850453
0.141370984
0.149689109
0.00469250513
0.00612388115
0.132474848
0.131370395
0.00514689842
0.0908933757
0.150149046
0.00420233378
0.00610558227
0.131272605
0.145854275
0.00423817093
0.00606845673
0.0910556511
0.144484476
0.134471166
0.00531779456
0.00615852597
0.108542382
0.157695396
0.184060028
0.183163115
0.00274667574
0.00525438401
0.00463314653
0.00546976232
0.0979970079
0.155994035
0.17044437
0.170196011
0.00392592519
0.00543757834
0.105037095
0.167995284
0.167382114
0.0045991989
0.00559195197
0.0883698775
0.163669116
0.16282128
0.00483940985
0.00597905826
0.126748191
0.143312175
0.00521653527
0.00610878326
0.0924996637
0.149647587
0.149037639
0.00568633706
0.00619431136
0.132419244
0.147182562
0.0058283245
0.00617765034
0.142756837
0.152094425
0.00633554445
0.00588450505
0.118570302
0.162103767
0.103207173
0.00571676403
0.0700388023
0.161426856
0.165259128
0.155405371
0.0286844042
0.00595102785
0.00478180724
0.1562917
0.156574593
0.00616627905
0.00520001438
0.148069995
0.147933467
0.0061574295
0.00489881904
0.154136169
0.146553994
0.00596641006
0.00492812161
0.157412314
0.140552389
0.00630736012
0.00573703038
0.113940698
0.147707451
0.0896148049
0.00599452287
0.0285742081
0.147317174
0.0858710082
0.00575104451
0.105928532
0.14289183
0.00593979223
0.00493004573
0.134346534
0.0921371109
0.00568917608
0.090054991
0.152742265
0.148573583
0.150359923
0.148265481
0.159716248
0.127023114
0.00537347312
0.00482708141
0.127131693
0.171305284
0.11976987
0.00593610747
0.00655598252
0.00333597905
0.137298256
0.13294549
0.00613007562
0.00319050378
0.144166889
0.126799775
0.00591106123
0.00329044538
0.149239466
0.11120495
0.00391308339
0.109677277
0.129695651
0.00595401464
0.00292429195
0.153152913
0.130511176
0.00562526224
0.00301807941
0.16846347
0.168437358
0.152157296
0.104781881
0.006032595
0.00464206597
0.143895092
0.143508558
0.0040494203
0.00374104617
0.144354093
0.130442569
0.00579771351
0.00337843174
0.151924487
0.136418861
0.00564027854
0.00337248301
0.155057226
0.139386519
0.00561606061
0.00364374756
0.148640447
0.133709116
0.00583336615
0.00409797057
0.136169101
0.119734471
0.00602930655
0.00480791827
0.142584577
0.162306481
0.14588935
0.153672343
0.112865658
0.00545445274
0.00361818749
0.144974419
0.129787285
0.00548648504
0.00307357522
0.141745038
0.127475359
0.00545250434
0.00344329379
0.141498922
0.127019551
0.00513401782
0.00390363373
0.157474508
0.163192975
0.148135657
0.108940681
0.00520027599
0.00276863779
0.131573212
0.112155788
0.031859993
0.101583395
0.127894899
0.00759716023
0.00387992464
0.128417282
0.138343472
0.0184605721
0.00395703176
0.115104366
0.141288594
0.0410666565
0.00418628301
0.0997417524
0.145140804
0.0566120767
0.00367036046
0.106934998
0.175052111
0.114841221
0.00401337721
0.0349086131
0.139942327
0.106348242
0.00490496439
0.0423299085
0.142562332
0.0965736827
0.00578847803
0.0252161721
0.136785155
0.103581802
0.0060884093
0.00642595264
0.155979565
0.156001847
0.150760627
0.153104877
0.163831374
0.115760426
0.00581573653
0.00637736204
0.00339347447
0.145345879
0.138971022
0.00622981221
0.00425233953
0.145854465
0.135799276
0.00625229153
0.00509749176
0.144988446
0.129596129
0.00600946753
0.106046317
0.14203628
0.00648054876
0.00584729144
0.140631142
0.138821342
0.00628249118
0.00618639433
0.13755136
0.137459508
0.00644037094
0.00606434902
0.11859551
0.155223522
0.142634123
0.00622659557
0.00610475153
0.112071728
0.150619806
0.144228248
0.156821803
0.152186775
0.171870484
0.162578358
0.00513272133
0.00614365099
0.00544684799
0.126099392
0.153826622
0.005434807
0.00605740843
0.141912963
0.149731986
0.00498530826
0.0061170302
0.141972837
0.150743046
0.0047287014
0.00609061673
0.142104472
0.152129885
0.00452361125
0.0060687123
0.141239257
0.151766439
0.00438624693
0.00606970746
0.139361864
0.1502853
0.00430977141
0.00607391307
0.137528795
0.149190884
0.0042660124
0.00604891155
0.137529756
0.149813482
0.00425329527
0.00592789082
0.140273582
0.156331189
0.00449732947
0.00551450686
0.126254849
0.179033006
0.178029922
0.00504507441
0.00538912837
0.108425651
0.166302268
0.156753164
0.0051208496
0.00600146951
0.138090125
0.153867351
0.00502025755
0.00608000007
0.137314973
0.149030775
0.00551372015
0.00606151541
0.123523701
0.150234369
0.153964004
0.153912304
0.005721452
0.00607823354
0.135146862
0.146398338
0.00599572956
0.00611109595
0.138875401
0.151485008
0.00627524584
0.00576454804
0.133162757
0.173367201
0.147653979
0.00572217685
0.00618370809
0.143493675
0.148032455
0.00568030474
0.00607322232
0.142652335
0.146571927
0.0058715785
0.00582625206
0.134409186
0.167500103
0.133877934
0.00594572317
0.00606075614
0.122366445
0.159218076
0.127159812
0.00605831939
0.00612782933
0.122883147
0.164371885
0.133303452
0.0056541834
0.00638127774
0.142333693
0.144933446
0.00551349376
0.00632680124
0.138577868
0.131193318
0.0188512657
0.0975759077
0.14189882
0.0055421847
0.00616353141
0.138714868
0.141375505
0.00532092089
0.00606288849
0.141379039
0.146804816
0.00504620729
0.00563589109
0.149920286
0.173104926
0.155149662
0.166755122
0.149321221
0.00502216633
0.0059006361
0.145245465
0.151985214
0.00442598737
0.00572709906
0.143969335
0.15168706
0.00419334276
0.00569380006
0.139521766
0.148861296
0.00388925359
0.00574054586
0.133538634
0.144771007
0.0035151755
0.005759739
0.125724961
0.142341398
0.00303846104
0.00537466853
0.112043464
0.165885418
0.147325189
0.0118369513
0.00572720771
0.0796115957
0.0730147408
0.00474418529
0.0934912606
0.160396291
0.154696735
0.145182158
0.0444789517
0.00547497427
0.00582577014
0.0483656048
0.133771064
0.108135041
0.00449716637
0.0186853683
0.145637528
0.0987701306
0.00402535532
0.111845108
0.12481546
0.00357053493
0.00491405035
0.14248561
0.16718559
0.154442301
0.152018696
0.154615112
0.131026449
0.00615981807
0.00618349948
0.00637910471
0.00508052788
0.13784858
0.158133771
0.160242397
0.131040635
0.00525731606
0.00511043075
0.144521518
0.131001008
0.00448350176
0.00286328765
0.137749711
0.137519226
0.00330588664
0.00407373559
0.124872705
0.136522649
0.018121327
0.00458656354
0.107270749
0.134413468
0.0460781589
0.0055045567
0.044008247
0.149700879
0.149961208
0.0650016553
0.00520970034
0.0708177556
0.135142872
0.0637269166
0.00539303123
0.0824210275
0.145351701
0.0344777756
0.00300110006
0.128828907
0.116696036
0.00633868019
0.00316677614
0.141858136
0.160451435
0.148716766
0.152390402
0.167794379
0.114479373
0.004861458
0.00669767845
0.0111338613
0.137782569
0.13003402
0.00631224184
0.00466616869
0.146819349
0.139738438
0.0063181488
0.00556122384
0.135954163
0.181538704
0.120036345
0.00412626813
0.00685006877
0.00440481689
0.121163912
0.158034569
0.159549937
0.104862723
0.0117611685
0.12467262
0.144404271
0.0054178843
0.00580012677
0.153086947
0.154558573
0.0048723814
0.00559391531
0.00568803756
0.00558436554
0.132020339
0.182176649
0.161890475
0.00519783046
0.00579884589
0.130713645
0.158379313
0.162148855
0.162115102
0.00535079153
0.00593285271
0.139839804
0.148357066
0.00527423103
0.00614370159
0.137335766
0.146851072
0.00564996992
0.00587198514
0.119325216
0.167379337
0.154203146
0.00559433749
0.00631366364
0.133180063
0.138500162
0.00578632243
0.00625061767
0.0773882541
0.151829873
0.152619219
0.0218328023
0.019596777
0.142692307
0.148554662
0.147588616
0.144833754
0.0062618741
0.00636316937
0.130412473
0.137700091
0.00627111933
0.00630758464
0.143253799
0.144874023
0.00611216391
0.00597024892
0.148432011
0.14843837
0.00607792985
0.00572207628
0.149230097
0.147974713
0.00612106981
0.00558068551
0.146891237
0.143312363
0.00619637693
0.00569407748
0.145588843
0.125288989
0.00598259705
0.11122376
0.14129521
0.00671060767
0.00551696245
0.136242033
0.132453124
0.00672074746
0.00582169659
0.119201909
0.150126491
0.142773834
0.159964951
0.146971216
0.00598492585
0.00530701838
0.143779955
0.14093355
0.00609635785
0.00521918422
0.152960768
0.142269678
0.00591330859
0.00564900869
0.00603129491
0.00506949849
0.136459161
0.168920641
0.153987614
0.174702936
0.154182537
0.00579669
0.00506906156
0.142735571
0.13717834
0.0063174596
0.00533917286
0.136205282
0.128993443
0.00656517814
0.00586770904
0.122418332
0.142403264
0.144217223
0.134694026
0.00637866108
0.00568017923
0.132224173
0.146432934
0.145658819
0.148467233
0.162932264
0.141852364
0.00561176265
0.00627585547
0.00528140032
0.137933608
0.147768992
0.00625727578
0.00517514241
0.145921863
0.141905022
0.00606346655
0.00537784459
0.14955744
0.137407081
0.00577373062
0.00648544259
0.00544239583
0.133224508
0.158785177
0.150057831
0.149391967
0.00609939676
0.00609639451
0.146936827
0.148161649
0.00602260257
0.00623856462
0.14586264
0.147107902
0.00570508649
0.00616856261
0.144964273
0.149171937
0.00552880653
0.00571792607
0.13319894
0.175373673
0.136203088
0.00489060329
0.00653992636
0.00605594001
0.135072978
0.162263816
0.155216649
0.150624942
0.00531661089
0.00607616657
0.13772294
0.147198542
0.00449532004
0.00606214216
0.138423035
0.147584785
0.00445350023
0.00603422115
0.139203252
0.147988904
0.0045123305
0.00605288808
0.140558745
0.147417261
0.00465124954
0.0063615309
0.144973858
0.12271968
0.00551952595
0.118984921
0.148117466
0.00541646327
0.00605829988
0.143826114
0.145515268
0.00535677733
0.00582790186
0.16058997
0.170201555
0.15129629
0.16238299
0.135528289
0.00565362824
0.00613901717
0.151990615
0.148660524
0.0059087595
0.00576549839
0.150200582
0.148269413
0.00596173953
0.00570713519
0.149809308
0.147256828
0.00596493603
0.00569981947
0.149553626
0.146685268
0.00596184748
0.00569048213
0.148861233
0.145862553
0.00595256504
0.00572767141
0.149184646
0.144882729
0.00577043536
0.00565444823
0.161409161
0.162289662
0.156230965
0.132075649
0.00583324422
0.00600163572
0.150974275
0.146977498
0.00596281285
0.0058185721
0.150733044
0.147856247
0.0059619161
0.00580679226
0.151274967
0.148194451
0.005915978
0.0057473282
0.15183949
0.149271119
0.00584494116
0.00567425633
0.151996839
0.150685309
0.00575997123
0.00573707102
0.152711559
0.140829479
0.00486020415
0.00630758484
0.00432473329
0.147486179
0.176982289
0.162811684
0.133289648
0.0052626999
0.00542851857
0.00543679541
0.00491033328
0.147172945
0.171177607
0.161314601
0.137470882
0.00465602614
0.00574279004
0.135216281
0.149444465
0.00342781117
0.0052074825
0.132025535
0.176401296
0.139928688
0.00447414509
0.00539699044
0.12793316
0.173192422
0.140855992
0.0112041275
0.00573382349
0.111271805
0.150894714
0.0399449705
0.00546828929
0.105285704
0.151510117
0.0452677532
0.00529555048
0.105644403
0.152384267
0.0477984506
0.00510753444
0.104493384
0.151587759
0.0504841311
0.00494806733
0.101107774
0.149042747
0.0537146431
0.00484796031
0.0956090524
0.145409048
0.0576371361
0.00481913792
0.0885226378
0.141673913
0.0623861841
0.00484186018
0.0809263223
0.139157626
0.0681811428
0.00488412662
0.0736713721
0.139433296
0.0750839335
0.00477035707
0.0724035238
0.158245415
0.154271789
0.13823973
0.0829823825
0.00542838585
0.0431431299
0.141869507
0.101121689
0.00573235883
0.0292120772
0.142715311
0.110067292
0.00592579655
0.0162296716
0.154964937
0.156096173
0.145197353
0.148824193
0.117004843
0.00610091098
0.00342602381
0.141193935
0.12566019
0.0063303299
0.00418209888
0.138074779
0.127483642
0.0064334941
0.00473498533
0.13721354
0.128023573
0.0064655619
0.00511852524
0.137505043
0.129732269
0.00648898661
0.00583070409
0.141263657
0.143084414
0.140042899
0.142033795
0.143110708
0.135918704
0.00646679846
0.00591452179
0.140469662
0.14087379
0.00666520494
0.0058286371
0.136003883
0.159400123
0.132208062
0.00594740681
0.00682544831
0.00583195908
0.124415116
0.159415587
0.139619773
0.0060937175
0.00643646894
0.141205625
0.143289855
0.00618683117
0.00619792878
0.135881617
0.157004732
0.145080624
0.166781496
0.154148382
0.00538528159
0.00615056337
0.00561391353
0.00621603956
0.00571906482
0.141704477
0.164608946
0.161838684
0.161803315
0.00518882418
0.00600985995
0.145228966
0.150374929
0.00529305813
0.00616511532
0.143506377
0.14887725
0.00522803828
0.0061821219
0.143738637
0.150094198
0.00517060252
0.00613386855
0.140605054
0.152794582
0.00521487085
0.0059947216
0.130380319
0.160016831
0.159802391
0.00536103342
0.00579846369
0.116038231
0.165800325
0.151139445
0.00499841664
0.00639467451
0.00580687559
0.00659425841
0.00655578194
0.120473276
0.151901033
0.144443434
0.155442139
0.151471989
0.16195918
0.160715123
0.00468142083
0.00611305676
0.128025231
0.143522301
0.00464642182
0.00630444867
0.130377567
0.142598865
0.00448338398
0.00630892798
0.130203621
0.142615896
0.00433915149
0.00626435736
0.129770085
0.144286064
0.0042023027
0.00615674103
0.129547176
0.149097898
0.00416902952
0.00604709158
0.110675757
0.149654502
0.148985574
0.153013395
0.171088435
0.170195223
0.00378552817
0.00586612759
0.127080258
0.146323151
0.00382783547
0.00617411306
0.129662097
0.146091251
0.00374349284
0.00620652338
0.130685049
0.146572207
0.00370926877
0.00621110457
0.130545638
0.146261431
0.00373148415
0.00622697707
0.129837404
0.144895116
0.00380972945
0.00627128165
0.1289735
0.141760802
0.00389416542
0.0063323188
0.133612592
0.137931545
0.00364681435
0.00609597896
0.00529466899
0.0538336494
0.141749829
0.14589816
0.150744385
0.149625043
0.168208997
0.16691784
0.00450551776
0.00594767585
0.12033803
0.140114842
0.00480472175
0.00617299798
0.127820906
0.148144084
0.00506747065
0.00572050977
0.0969177098
0.175068851
0.173446846
0.00513154973
0.00530975674
0.0919178732
0.175706336
0.171156534
0.00527632665
0.00582934477
0.133146453
0.146017801
0.00580074852
0.00615824687
0.136075467
0.143673827
0.00618037719
0.00607561697
0.0979248076
0.14572996
0.14231975
0.165142741
0.157363634
0.00587453653
0.0058715294
0.13130388
0.13795068
0.00623788884
0.00602172355
0.139735355
0.143011939
0.00511885792
0.00589730381
0.108531503
0.151015047
0.0944968422
0.00570807423
0.0210184022
0.16592112
0.109783534
0.00518777189
0.123865267
0.153008435
0.00637771174
0.00525569452
0.14518311
0.132369371
0.00600651099
0.00620205797
0.0610753097
0.147931375
0.148349819
0.156007374
0.124408965
0.005939093
0.0058216201
0.15012714
0.14846357
0.00600544647
0.00574262254
0.150599681
0.154950303
0.00615396859
0.00312322119
0.148883639
0.175232279
0.127747862
0.00546855633
0.00639548501
0.145067478
0.150315357
0.00502704244
0.00606913174
0.142000715
0.149470487
0.00458907443
0.00598331956
0.138918202
0.147737467
0.00422716704
0.00582430018
0.134921093
0.143153102
0.00428055928
0.00446139123
0.138952257
0.11749082
0.0051720984
0.0651698671
0.142939216
0.0523235756
0.00571596728
0.109233905
0.144421307
0.00277458981
0.00603929093
0.10862162
0.146041579
0.155210816
0.155068441
0.00367607214
0.00611027447
0.118260095
0.139931954
0.00328963612
0.0060134786
0.106450809
0.149580131
0.140056553
0.154225146
0.14966614
0.00428625432
0.00595073213
0.00575385663
0.00594383839
0.100061878
0.151402995
0.155059685
0.154371216
0.0044315854
0.00581349035
0.11379158
0.156774322
0.14571649
0.158508421
0.15649542
0.00494482896
0.00613401841
0.126587958
0.143315279
0.00435634998
0.00614516724
0.132501636
0.148068275
0.00456944146
0.00570022225
0.11917533
0.171875213
0.152338677
0.00516253327
0.00609331654
0.118800268
0.150564367
0.0467546805
0.00587147966
0.0755193732
0.147498173
0.0880694794
0.00578158564
0.0574479346
0.146732789
0.0792432956
0.00583948353
0.0790321067
0.146388164
0.0557854684
0.00590657869
0.0966719624
0.146194616
0.0367141332
0.0058735475
0.106737254
0.147587697
0.0287982108
0.00542870731
0.107307294
0.174987415
0.14507232
0.00273081552
0.00583862731
0.116210278
0.147801806
0.0271658034
0.00545428058
0.11084925
0.158269003
0.151477568
0.13571371
0.02156149
0.00569465066
0.103889424
0.139307592
0.0733098655
0.0789388149
0.124340074
0.0490401357
0.00538846168
0.104100784
0.136108593
0.0349895022
0.00625532324
0.00423484082
0.0997183213
0.166064825
0.156340509
0.132698296
0.0475616804
0.00457844903
0.0972278818
0.140307239
0.0479794447
0.00588853602
0.00443360813
0.0852792372
0.165308996
0.159081268
0.134836656
0.069044425
0.00485407187
0.0707599926
0.143330699
0.083685726
0.00515635109
0.0558953555
0.143810425
0.09577328
0.00554173291
0.0389319663
0.144929164
0.108418163
0.00595317837
0.00909387227
0.163891846
0.164066835
0.109310653
0.00584847285
0.0029648226
0.144322638
0.123891908
0.00631307199
0.00375655309
0.140640303
0.129514533
0.00655024721
0.00522105417
0.140475752
0.1547687
0.139292341
0.156726635
0.133520002
0.00614815264
0.00570175279
0.144128063
0.130491386
0.00597667664
0.00666116436
0.00568406521
0.120914161
0.157575692
0.158891879
0.13907036
0.00566414863
0.00655856127
0.00557688593
0.112170036
0.160972578
0.155822043
0.147751668
0.00609183008
0.0060749622
0.144966666
0.145195186
0.00616464076
0.00605684413
0.143463742
0.149397425
0.00638905334
0.00565918161
0.134322891
0.172338273
0.143627969
0.00588028643
0.00594887758
0.147352377
0.145862632
0.00608049793
0.00575369698
0.146389937
0.143860987
0.00613957794
0.00556550709
0.144363528
0.139608893
0.00621113953
0.00542494441
0.138413193
0.130502712
0.00647768318
0.00582126264
0.111108875
0.146032065
0.136341342
0.149855329
0.121164789
0.00627561082
0.0051923716
0.128670073
0.121342647
0.00632489401
0.00579862213
0.109047437
0.14321608
0.137731207
0.140446926
0.137042153
0.148679282
0.116379773
0.00610127957
0.00498383196
0.134790653
0.128436642
0.0058375202
0.00484307507
0.14009047
0.134678765
0.00574134146
0.00482553287
0.144384034
0.139505266
0.00566267533
0.00493999104
0.145967967
0.142259707
0.00564276155
0.00510541293
0.147148653
0.144479441
0.00563835559
0.00512238199
0.145242441
0.174501762
0.1337354
0.00553616286
0.00553813343
0.143819282
0.140408505
0.00564067106
0.00538831911
0.138503632
0.134639103
0.005837163
0.00526788958
0.131520798
0.159493896
0.107163826
0.00548397858
0.00550718378
0.00582583689
0.00459994818
0.129095533
0.163428846
0.149033633
0.153457772
0.14984349
0.155254756
0.125845522
0.00507065712
0.00479912379
0.138065321
0.134504302
0.00479850661
0.00456061885
0.135456885
0.133267862
0.00435010051
0.00397307379
0.14032861
0.166030405
0.122490946
0.00413171445
0.00381159417
0.136552318
0.167611909
0.127552483
0.00544502928
0.00424946874
0.115392453
0.138352067
0.0337787575
0.00415174268
0.105569016
0.139088314
0.0471610829
0.00425795962
0.0953853398
0.141573544
0.0621941961
0.00448076657
0.0819578199
0.144141246
0.0743892552
0.00436794023
0.0809460344
0.170203572
0.159300457
0.0788294505
0.00491607745
0.0440854895
0.152240991
0.108802253
0.00544606133
0.0288418252
0.15215214
0.120344565
0.00574886218
0.0132615144
0.153790882
0.130382608
0.00591436309
0.00263599988
0.154629092
0.138542465
0.00600087993
0.00371409144
0.154679554
0.143645092
0.00605121754
0.00449907749
0.154209003
0.146746671
0.0060879755
0.00505253053
0.153330241
0.148341681
0.0061207107
0.00543650445
0.15189112
0.148430786
0.00614185343
0.00569733989
0.149925501
0.147521464
0.00616296342
0.00587523967
0.147877937
0.145723088
0.00619202448
0.00600768574
0.144532635
0.141696472
0.00625904512
0.00615906741
0.139248118
0.141513224
0.00611424411
0.00579154142
0.156199269
0.174005156
0.162774071
0.175427115
0.1660182
0.00565839006