/*--------------------------------*- C++ -*----------------------------------*\
| =========                 |                                                 |
| \\      /  F ield         | OpenFOAM: The Open Source CFD Toolbox           |
|  \\    /   O peration     | Version:  2306                                  |
|   \\  /    A nd           | Website:  www.openfoam.com                      |
|    \\/     M anipulation  |                                                 |
\*---------------------------------------------------------------------------*/
FoamFile
{
    version     2.0;
    format      ascii;
    arch        "LSB;label=32;scalar=64";
    class       volScalarField;
    location    "0.00022";
    object      mu;
}
// * * * * * * * * * * * * * * * * * * * * * * * * * * * * * * * * * * * * * //

dimensions      [1 -1 -1 0 0 0 0];

internalField   nonuniform List<scalar> 
3801
(
2.02917224e-05
2.02922798e-05
2.02576505e-05
2.02905265e-05
2.02211836e-05
1.97629644e-05
1.94109108e-05
1.9750391e-05
2.02966682e-05
2.02520843e-05
1.97728495e-05
1.9534558e-05
1.95652451e-05
1.93751513e-05
1.97593478e-05
2.03141618e-05
2.02551026e-05
1.97430659e-05
1.93374044e-05
1.97356183e-05
2.02883578e-05
2.03005121e-05
2.02647174e-05
1.96617815e-05
1.94237024e-05
1.97761249e-05
2.0273519e-05
2.0277788e-05
1.93957414e-05
1.93572494e-05
1.97999823e-05
2.02769808e-05
2.02603265e-05
2.02763439e-05
2.02790051e-05
1.95588284e-05
1.97879652e-05
2.02960905e-05
1.97699371e-05
1.97196149e-05
2.03198857e-05
2.02928961e-05
1.97074468e-05
1.93587557e-05
1.96813882e-05
2.02807031e-05
2.03127645e-05
1.95809838e-05
1.96023715e-05
2.03001994e-05
2.02854025e-05
1.97387005e-05
1.95250461e-05
1.95977461e-05
1.94820026e-05
1.9520154e-05
1.9347218e-05
1.95456552e-05
2.02684244e-05
2.02923152e-05
2.02820062e-05
2.02891778e-05
2.02894424e-05
1.96794804e-05
1.95275798e-05
2.02798436e-05
2.0278601e-05
2.02873161e-05
2.02883775e-05
1.97563965e-05
1.93155613e-05
1.94932446e-05
2.02774683e-05
2.03102815e-05
1.97534927e-05
1.95147908e-05
1.94651531e-05
1.95240623e-05
2.0284993e-05
2.02939863e-05
2.02905148e-05
1.97652287e-05
1.94434649e-05
1.95511371e-05
2.02948204e-05
2.0293598e-05
1.97583255e-05
1.94422107e-05
1.95847633e-05
2.02909809e-05
2.03038208e-05
2.02866706e-05
1.97606867e-05
1.9558332e-05
1.96440643e-05
1.94769866e-05
1.95639324e-05
2.02791422e-05
2.03071403e-05
1.99600224e-05
1.97030228e-05
1.95250151e-05
1.96846092e-05
2.02911609e-05
2.03200241e-05
1.97162229e-05
1.96269585e-05
2.0306891e-05
2.03166776e-05
1.96291899e-05
1.95812679e-05
2.03051959e-05
2.03077559e-05
1.96100337e-05
1.95991866e-05
2.0301111e-05
2.02979072e-05
1.95713194e-05
1.96656322e-05
2.02972681e-05
2.02935858e-05
2.02805722e-05
1.96096262e-05
1.92837964e-05
1.94792196e-05
1.92657193e-05
1.94253142e-05
2.02858918e-05
2.02854162e-05
2.02816271e-05
2.02826309e-05
1.95406467e-05
1.95447745e-05
2.02899868e-05
1.99999346e-05
1.94312105e-05
1.93080932e-05
1.94798748e-05
2.03114085e-05
2.02933963e-05
1.97573665e-05
1.95797601e-05
1.95406043e-05
1.9697397e-05
2.03118126e-05
2.03008643e-05
2.03097017e-05
2.03036952e-05
2.03024358e-05
2.03037954e-05
1.97670356e-05
1.94825144e-05
1.94289184e-05
1.95003137e-05
2.02999741e-05
2.02888509e-05
1.98043541e-05
1.95846489e-05
1.95927331e-05
1.96412741e-05
1.96061248e-05
1.97599909e-05
2.02889845e-05
2.03132191e-05
1.9762026e-05
1.95877319e-05
2.02927518e-05
2.02995223e-05
1.9728968e-05
1.94456737e-05
1.97406175e-05
2.02750765e-05
2.03216679e-05
1.97289452e-05
1.95936923e-05
2.02621128e-05
2.03128587e-05
1.96901064e-05
1.95713839e-05
2.02634501e-05
2.03090749e-05
1.96831111e-05
1.95678362e-05
2.02657889e-05
2.03088841e-05
1.96973838e-05
1.95845736e-05
2.02676459e-05
2.03097799e-05
1.97138581e-05
1.96071456e-05
2.02728581e-05
2.03215511e-05
1.96986184e-05
1.97638232e-05
2.00155094e-05
1.97659893e-05
1.97891412e-05
2.02784185e-05
2.02179443e-05
1.96315336e-05
1.97674772e-05
2.02883002e-05
1.98117039e-05
1.95088275e-05
1.99363715e-05
2.02897803e-05
1.97539234e-05
1.93117198e-05
1.94314856e-05
2.02917465e-05
2.0304794e-05
1.97546935e-05
1.94518469e-05
1.97518144e-05
2.02848018e-05
2.0302465e-05
1.98367691e-05
1.9619412e-05
1.97584581e-05
2.02795921e-05
2.03061847e-05
2.03072368e-05
1.966222e-05
1.93679846e-05
1.95858572e-05
1.95412808e-05
1.97573518e-05
2.02684208e-05
2.03230292e-05
1.9563633e-05
1.94334297e-05
1.96219276e-05
1.97771018e-05
2.02840985e-05
2.03214081e-05
1.97097019e-05
1.97040875e-05
2.02798896e-05
2.03213703e-05
1.96728411e-05
1.97782282e-05
2.02852707e-05
1.99554371e-05
1.94673007e-05
1.9507195e-05
1.99985866e-05
2.02770325e-05
1.98367627e-05
1.94793197e-05
1.95425512e-05
1.9846785e-05
2.02883256e-05
2.01948562e-05
1.95958193e-05
1.97741587e-05
2.02903509e-05
1.98126692e-05
1.94638152e-05
1.95084204e-05
1.97030964e-05
1.99152345e-05
2.02890391e-05
1.97974285e-05
1.94452894e-05
1.95451903e-05
1.98798876e-05
2.02914311e-05
2.0044752e-05
1.96008688e-05
1.97789759e-05
2.02823216e-05
1.98969149e-05
1.94284605e-05
1.94248385e-05
1.97665046e-05
2.02799697e-05
2.02953792e-05
2.02505678e-05
2.03039417e-05
2.02432827e-05
2.03165781e-05
2.02293736e-05
1.9630492e-05
1.93171811e-05
1.95494436e-05
1.96554303e-05
1.98199498e-05
2.02875817e-05
2.01296127e-05
1.96241512e-05
1.97960952e-05
2.02888107e-05
2.00657465e-05
1.96030717e-05
1.97903444e-05
2.02852595e-05
2.00305052e-05
1.95304127e-05
1.97745844e-05
2.02770046e-05
1.99328617e-05
1.93389165e-05
1.93568822e-05
1.95938419e-05
1.98012763e-05
2.02855991e-05
2.00621915e-05
1.9447173e-05
1.94614554e-05
1.98076513e-05
2.02637543e-05
2.02949496e-05
2.01623113e-05
1.96607899e-05
1.98006704e-05
2.03004816e-05
2.01517193e-05
1.94332305e-05
1.94282508e-05
1.97980144e-05
2.02789046e-05
2.02299666e-05
1.96286435e-05
1.97953787e-05
2.02962111e-05
2.0207641e-05
1.94504509e-05
1.94501671e-05
1.98297933e-05
2.02745861e-05
2.02592201e-05
2.02728297e-05
2.01941442e-05
1.93895459e-05
1.93890245e-05
1.96176156e-05
1.97947763e-05
2.02987085e-05
2.02318218e-05
1.96263156e-05
1.97862201e-05
2.0306734e-05
2.02529443e-05
1.93768403e-05
1.93649542e-05
1.97723439e-05
2.02888396e-05
2.02699643e-05
1.93886992e-05
1.93485869e-05
1.97685448e-05
2.02865483e-05
2.02592165e-05
1.94630266e-05
1.94490439e-05
1.95980068e-05
1.97699572e-05
2.02937335e-05
2.03041353e-05
2.02573902e-05
1.9711749e-05
1.97503183e-05
2.03126877e-05
2.02608712e-05
1.945484e-05
1.94199347e-05
1.95956047e-05
1.96047826e-05
1.95828011e-05
1.976757e-05
2.03033337e-05
2.02671086e-05
1.96481551e-05
1.97079373e-05
2.03110427e-05
2.02714547e-05
1.95736503e-05
1.94017278e-05
1.97585625e-05
2.02898008e-05
2.02898473e-05
2.02929207e-05
2.02694132e-05
2.02945209e-05
2.0269703e-05
1.95987109e-05
1.95542695e-05
2.02745586e-05
2.02787856e-05
1.97056218e-05
1.9607736e-05
2.01919214e-05
2.02897582e-05
1.97694192e-05
1.96554872e-05
2.00832092e-05
2.02943277e-05
1.97678135e-05
1.97307777e-05
2.00490404e-05
2.0283334e-05
1.97693956e-05
1.96140382e-05
1.96832962e-05
1.97334558e-05
1.97115707e-05
1.97599497e-05
2.02465845e-05
2.0273272e-05
1.97618151e-05
1.95029518e-05
1.97283771e-05
2.00920889e-05
2.02926075e-05
2.02525161e-05
1.98292298e-05
1.97061548e-05
1.98222214e-05
2.02731397e-05
1.97972789e-05
1.95014855e-05
1.9541491e-05
1.9720631e-05
1.98611372e-05
2.02868751e-05
1.99348221e-05
1.97086214e-05
1.98167264e-05
2.02921769e-05
2.02700231e-05
2.02723379e-05
1.99802614e-05
1.94241742e-05
1.94369835e-05
1.95557041e-05
1.95323267e-05
1.95442203e-05
1.95334814e-05
1.9531883e-05
1.95287832e-05
1.95567826e-05
1.95209486e-05
1.97485556e-05
2.0305476e-05
2.03122476e-05
2.02747017e-05
2.02966338e-05
2.02024699e-05
1.95393402e-05
1.96249558e-05
2.0307461e-05
2.02265772e-05
1.95847736e-05
1.96545438e-05
2.02998819e-05
2.02500154e-05
1.96558611e-05
1.96822261e-05
2.02974319e-05
2.02817217e-05
2.02798299e-05
2.02713674e-05
1.97223857e-05
1.93047409e-05
1.96392689e-05
2.02996263e-05
2.02887857e-05
1.97748205e-05
1.93872272e-05
1.96421555e-05
2.02926744e-05
2.02918383e-05
1.97727499e-05
1.94466448e-05
1.96685016e-05
2.02355357e-05
2.03133694e-05
1.97907293e-05
1.96931304e-05
1.99503574e-05
2.03127077e-05
2.02940487e-05
1.97823881e-05
1.96277648e-05
1.98927028e-05
2.02989644e-05
1.97653408e-05
1.95275244e-05
1.95701964e-05
1.96815885e-05
1.99606644e-05
2.03030217e-05
1.97750023e-05
1.95238115e-05
1.96546524e-05
1.99626941e-05
2.0307994e-05
1.98067205e-05
1.96579843e-05
1.98625523e-05
2.03033131e-05
1.98233824e-05
1.96991123e-05
1.98775403e-05
2.02927588e-05
1.98054729e-05
1.96094402e-05
1.96489892e-05
1.97026422e-05
1.97576384e-05
1.99417224e-05
2.02841333e-05
1.98011882e-05
1.9650271e-05
1.9839262e-05
2.0270978e-05
1.97698553e-05
1.94667289e-05
1.95155572e-05
1.96528068e-05
1.98513881e-05
2.02917926e-05
2.02716312e-05
1.98412775e-05
1.94954524e-05
1.95603471e-05
1.98209633e-05
2.02668077e-05
1.98990354e-05
1.96157127e-05
1.97808302e-05
2.02791277e-05
1.99494981e-05
1.95949329e-05
1.97731637e-05
2.02863244e-05
2.00257844e-05
1.9573725e-05
1.97742354e-05
2.02914253e-05
2.01114729e-05
1.95573679e-05
1.97793744e-05
2.02944176e-05
2.01834478e-05
1.95424197e-05
1.97107642e-05
2.02972154e-05
2.02213784e-05
1.95041012e-05
1.96679525e-05
2.03062044e-05
2.02902061e-05
2.02963622e-05
2.02715636e-05
1.95597325e-05
1.94610075e-05
1.94230201e-05
1.95430455e-05
2.03012006e-05
2.02968699e-05
2.02930387e-05
2.0291581e-05
2.02811615e-05
1.96359822e-05
1.93979104e-05
1.94722203e-05
2.03020054e-05
2.02928632e-05
1.96477215e-05
1.94329152e-05
1.94874137e-05
2.03004744e-05
2.02986409e-05
1.97290358e-05
1.95671451e-05
1.95482925e-05
1.95460242e-05
2.03081293e-05
2.02951138e-05
1.97653637e-05
1.96497635e-05
1.96140478e-05
1.96137053e-05
2.02994027e-05
2.02961349e-05
1.97460871e-05
1.9651453e-05
2.03065004e-05
2.02950923e-05
1.97607506e-05
1.96144633e-05
1.96467106e-05
1.96022692e-05
1.9577637e-05
1.9581679e-05
1.947048e-05
1.94730449e-05
2.02821973e-05
2.02904616e-05
2.02781992e-05
2.02980509e-05
1.97796597e-05
1.96128466e-05
2.0287849e-05
2.03034564e-05
1.96901145e-05
1.95884454e-05
2.02880106e-05
2.03049463e-05
1.96541121e-05
1.95604733e-05
2.02902861e-05
2.03035416e-05
1.96431116e-05
1.95306472e-05
2.02971081e-05
2.02983657e-05
1.9752531e-05
1.95351263e-05
1.93829734e-05
1.93857381e-05
2.02917551e-05
2.0288367e-05
2.02865385e-05
1.97684771e-05
1.94872477e-05
2.02915599e-05
2.02915469e-05
1.96212384e-05
1.95366864e-05
2.0288314e-05
2.02914296e-05
2.02864432e-05
2.02924243e-05
1.97725501e-05
1.94470063e-05
1.9448377e-05
2.02963203e-05
2.0284997e-05
1.97590237e-05
1.94444841e-05
1.94495236e-05
2.02785335e-05
2.03030896e-05
1.96591724e-05
1.96010586e-05
2.02826484e-05
2.03052367e-05
2.02851196e-05
2.03090733e-05
2.02908284e-05
1.97639636e-05
1.96303446e-05
1.9653923e-05
1.95573063e-05
1.9567765e-05
1.944828e-05
1.94515363e-05
2.02841021e-05
2.03003781e-05
1.9772829e-05
1.96346124e-05
1.95491906e-05
1.95495567e-05
2.02794367e-05
2.03016574e-05
1.97239209e-05
1.96438662e-05
2.02819187e-05
2.03013893e-05
1.96599766e-05
1.96204333e-05
2.02918547e-05
2.03007029e-05
2.02928371e-05
2.03044503e-05
1.97458122e-05
1.95583307e-05
2.03165116e-05
2.0297293e-05
1.97489095e-05
1.9507111e-05
1.95693677e-05
1.94048975e-05
1.9410478e-05
2.03038714e-05
2.03005754e-05
1.9760478e-05
1.9570321e-05
1.95029447e-05
1.95032106e-05
2.03021748e-05
2.03004553e-05
1.96342179e-05
1.96012161e-05
2.03064465e-05
2.02989132e-05
1.95855908e-05
1.95975857e-05
2.03197064e-05
2.02969803e-05
2.03115749e-05
2.02968542e-05
1.97579884e-05
1.95333698e-05
1.96089547e-05
1.94539447e-05
1.94811156e-05
2.03074904e-05
2.02994976e-05
1.96784686e-05
1.96027903e-05
2.03142384e-05
2.02915876e-05
1.97577776e-05
1.95356633e-05
1.95680881e-05
2.02979254e-05
2.02891277e-05
1.96527608e-05
1.94597513e-05
2.03044059e-05
2.02903855e-05
1.96229221e-05
1.92721841e-05
1.94348861e-05
2.02834569e-05
2.02968958e-05
2.02901428e-05
2.02978449e-05
2.02951483e-05
1.97617902e-05
1.95636791e-05
1.95460695e-05
1.95451839e-05
2.02883605e-05
2.03030945e-05
1.96426526e-05
1.95797867e-05
2.02836429e-05
2.03044026e-05
1.96429632e-05
1.95673347e-05
2.02821925e-05
2.03059106e-05
1.96284588e-05
1.95458408e-05
2.02819458e-05
2.03068621e-05
1.96149109e-05
1.95283608e-05
2.02836101e-05
2.03086013e-05
1.96097597e-05
1.95224014e-05
2.02882264e-05
2.03100276e-05
1.96200347e-05
1.95382633e-05
2.03008197e-05
2.0307951e-05
1.97007716e-05
1.95768991e-05
1.9511589e-05
1.95458622e-05
2.030384e-05
2.03006702e-05
2.02977169e-05
1.97823484e-05
1.95643054e-05
1.96186297e-05
1.95952381e-05
1.94997048e-05
1.95923607e-05
2.03152312e-05
2.03070314e-05
2.03136367e-05
1.9742591e-05
1.95531912e-05
2.03166814e-05
2.03159656e-05
1.96339518e-05
1.95749708e-05
1.95367805e-05
1.96305196e-05
2.03199389e-05
2.03131483e-05
2.03218394e-05
1.9718885e-05
1.95516082e-05
2.03196203e-05
2.03143594e-05
1.96100154e-05
1.94629152e-05
1.96363215e-05
2.03116578e-05
2.03268946e-05
1.9570827e-05
1.96037816e-05
2.03164749e-05
2.03158385e-05
1.9564073e-05
1.94765524e-05
1.96917248e-05
2.03084657e-05
2.03227554e-05
1.9563814e-05
1.95456228e-05
1.95882178e-05
1.96809444e-05
2.03141157e-05
2.03190927e-05
1.96037706e-05
1.9636349e-05
2.03169516e-05
2.03100841e-05
1.9530861e-05
1.95499481e-05
2.03206101e-05
2.03157032e-05
1.94197097e-05
1.94404673e-05
2.03251849e-05
2.03186522e-05
1.95321011e-05
1.95676008e-05
2.0335094e-05
2.03250113e-05
1.95502587e-05
1.95847851e-05
2.03438387e-05
2.03291029e-05
1.95226538e-05
1.93632421e-05
1.96966255e-05
2.03287936e-05
2.03528838e-05
2.03451251e-05
1.95760669e-05
1.95414572e-05
2.03569415e-05
2.03438599e-05
1.95235054e-05
1.95529489e-05
2.03584549e-05
2.03392123e-05
1.94451816e-05
1.93515212e-05
1.95019361e-05
1.93561067e-05
1.9610466e-05
2.03717659e-05
2.03695553e-05
2.03820979e-05
2.03694351e-05
2.03877296e-05
2.03640037e-05
1.96582181e-05
1.93035699e-05
1.96414485e-05
2.03750538e-05
2.03795522e-05
1.95033514e-05
1.93350462e-05
1.96431917e-05
2.03944758e-05
2.03541191e-05
1.92991913e-05
1.94155962e-05
2.03977989e-05
2.03784794e-05
1.93915529e-05
1.92505905e-05
1.9644389e-05
2.04024964e-05
2.03645963e-05
1.9431389e-05
1.93961905e-05
1.94279838e-05
1.96284838e-05
2.04408828e-05
2.04160828e-05
1.96121398e-05
1.93636889e-05
1.96175403e-05
2.04409276e-05
2.04188813e-05
1.94455798e-05
1.95402888e-05
2.04591821e-05
2.04401993e-05
1.93763636e-05
1.95138234e-05
2.04733566e-05
2.0498764e-05
2.04713768e-05
2.04945008e-05
2.04585982e-05
2.04926761e-05
2.0418057e-05
1.93386282e-05
1.89798929e-05
1.9493995e-05
2.04599051e-05
2.04249272e-05
1.92474681e-05
1.94254153e-05
2.04842163e-05
2.04836373e-05
2.04756634e-05
2.04813291e-05
2.04757113e-05
2.0484164e-05
2.04811291e-05
2.04889609e-05
2.04884088e-05
2.04945766e-05
2.04956007e-05
2.05005585e-05
2.05022957e-05
2.05067287e-05
2.0508872e-05
2.05129685e-05
2.05153694e-05
2.05193126e-05
2.05219579e-05
2.05257975e-05
2.05287466e-05
2.05324548e-05
2.05357835e-05
2.05392953e-05
2.05430788e-05
2.05462866e-05
2.05506105e-05
2.05533031e-05
2.0558325e-05
2.05598528e-05
2.05661837e-05
2.05654933e-05
2.05740834e-05
2.05689235e-05
2.05817814e-05
2.05679529e-05
2.05907154e-05
2.05624561e-05
1.86411988e-05
1.86994362e-05
1.86620907e-05
1.89132303e-05
1.88620013e-05
1.91651551e-05
1.88844216e-05
1.94853136e-05
1.94573497e-05
1.89948934e-05
1.89558138e-05
1.91979469e-05
1.94005958e-05
1.87515639e-05
1.8721417e-05
1.89073175e-05
1.89131523e-05
1.87598936e-05
1.88331539e-05
1.88436732e-05
1.89395341e-05
1.87853078e-05
1.89542612e-05
1.99832952e-05
1.99630376e-05
1.94481912e-05
1.98805259e-05
2.00070719e-05
2.06856421e-05
2.06681859e-05
2.0654799e-05
2.06633618e-05
2.06841906e-05
2.17401392e-05
2.18462938e-05
2.19043385e-05
2.20679519e-05
2.22959859e-05
2.18726568e-05
2.20367557e-05
2.22538892e-05
2.26931917e-05
2.31104749e-05
2.31669831e-05
2.32926461e-05
2.35996385e-05
2.36283142e-05
2.34387865e-05
2.30376312e-05
2.28700834e-05
2.28668035e-05
2.21705746e-05
2.26209606e-05
2.32605691e-05
2.22747831e-05
2.26087243e-05
2.22093032e-05
2.29917394e-05
2.27524694e-05
2.3050574e-05
2.32065228e-05
2.35827491e-05
2.38278698e-05
2.43018031e-05
2.47036812e-05
2.52199877e-05
2.57201918e-05
2.62738066e-05
2.6850556e-05
2.74290813e-05
2.80889218e-05
2.86844495e-05
2.92691642e-05
2.97690929e-05
3.02326554e-05
3.06814424e-05
3.11281841e-05
3.15602693e-05
3.19892172e-05
3.24019765e-05
3.28125332e-05
3.31953081e-05
3.35813433e-05
3.39516238e-05
3.43224597e-05
3.46774881e-05
3.50352339e-05
3.5378069e-05
3.5720124e-05
3.60496553e-05
3.63771276e-05
3.66929479e-05
3.70077706e-05
3.73087273e-05
3.76074062e-05
3.78895341e-05
3.81766103e-05
3.84439766e-05
3.87209184e-05
3.89741651e-05
3.92419548e-05
3.94856031e-05
3.97469816e-05
3.99791392e-05
4.02316149e-05
4.04527723e-05
4.06962302e-05
4.0908956e-05
4.11652672e-05
4.13888846e-05
4.16350236e-05
4.18531222e-05
4.20891577e-05
4.23016569e-05
4.25276109e-05
4.27338115e-05
4.29493313e-05
4.31478558e-05
4.33526622e-05
4.35415012e-05
4.37347679e-05
4.39412359e-05
4.41281012e-05
4.43515029e-05
4.45314538e-05
4.47499916e-05
4.49231842e-05
4.51364509e-05
4.53031241e-05
4.55110102e-05
4.56735274e-05
4.59392928e-05
4.6128723e-05
4.63844747e-05
4.65642414e-05
4.68090377e-05
4.69791864e-05
4.71849403e-05
4.73470631e-05
4.74539341e-05
4.75810403e-05
4.7682268e-05
4.78078465e-05
4.79070461e-05
4.80249507e-05
4.81090836e-05
4.82408376e-05
4.83480245e-05
4.84301496e-05
4.84844955e-05
4.86627399e-05
4.87421464e-05
4.8775365e-05
4.91571941e-05
4.89989638e-05
4.89662663e-05
4.94795081e-05
4.97959279e-05
4.91901084e-05
4.92923898e-05
5.00688305e-05
5.04285403e-05
4.9604976e-05
4.97233985e-05
5.04647563e-05
5.04779088e-05
5.00071806e-05
5.02155759e-05
5.04992863e-05
5.04702768e-05
5.0690259e-05
5.05937794e-05
5.07326809e-05
5.0811402e-05
5.09574706e-05
5.10429697e-05
5.10339431e-05
5.10699951e-05
5.1172384e-05
5.12591696e-05
5.12833091e-05
5.13470537e-05
5.14062729e-05
5.14836367e-05
5.15417398e-05
5.16161017e-05
5.16736826e-05
5.1746767e-05
5.18018038e-05
5.18732394e-05
5.19256303e-05
5.19962677e-05
5.20475599e-05
5.21156969e-05
5.21657639e-05
5.2231756e-05
5.22813784e-05
5.23440321e-05
5.23913675e-05
5.24506085e-05
5.24987119e-05
5.25547538e-05
5.26018679e-05
5.26561892e-05
5.27040927e-05
5.27553578e-05
5.28029194e-05
5.28524302e-05
5.29012942e-05
5.29478857e-05
5.29969733e-05
5.30400287e-05
5.30885546e-05
5.31297941e-05
5.31812161e-05
5.3217375e-05
5.32664625e-05
5.3305122e-05
5.3360607e-05
5.33889365e-05
5.34327615e-05
5.34737691e-05
5.35296504e-05
5.35487677e-05
5.35883517e-05
5.36315017e-05
5.36942086e-05
5.36979007e-05
5.37310606e-05
5.37842063e-05
5.38490397e-05
5.38373093e-05
5.38649129e-05
5.39293535e-05
5.39954953e-05
5.3969314e-05
5.39917684e-05
5.40702269e-05
5.41341593e-05
5.40931962e-05
5.41124063e-05
5.42056837e-05
5.42591429e-05
5.42100469e-05
5.42270466e-05
5.43324426e-05
5.4371504e-05
5.43192908e-05
5.43381751e-05
5.44473417e-05
5.44750168e-05
5.4421413e-05
5.44444398e-05
5.45524774e-05
5.45711061e-05
5.45179538e-05
5.45464606e-05
5.46501852e-05
5.4661438e-05
5.46091939e-05
5.4648772e-05
5.47405121e-05
5.47440662e-05
5.46975903e-05
5.4744885e-05
5.48247442e-05
5.48213603e-05
5.47815769e-05
5.48371855e-05
5.49035347e-05
5.48951384e-05
5.48617924e-05
5.4922052e-05
5.49778604e-05
5.49645444e-05
5.49388046e-05
5.50018333e-05
5.50465551e-05
5.50308683e-05
5.50128125e-05
5.5075466e-05
5.51115171e-05
5.50952322e-05
5.50835458e-05
5.51437477e-05
5.51737621e-05
5.51574566e-05
5.51525073e-05
5.52075054e-05
5.52328522e-05
5.52189403e-05
5.52183164e-05
5.52665859e-05
5.52886696e-05
5.52782705e-05
5.52805813e-05
5.53220589e-05
5.53418245e-05
5.53365058e-05
5.53402756e-05
5.53743967e-05
5.53929813e-05
5.53921664e-05
5.53969207e-05
5.54241173e-05
5.54421968e-05
5.54454144e-05
5.54505001e-05
5.54714804e-05
5.54898842e-05
5.54968721e-05
5.55017026e-05
5.55168802e-05
5.55360568e-05
5.55451893e-05
5.55506348e-05
5.55611135e-05
5.55810099e-05
5.55923029e-05
5.55971411e-05
5.5605534e-05
5.56235504e-05
5.56373218e-05
5.56420154e-05
5.56490081e-05
5.56648697e-05
5.56798211e-05
5.56860072e-05
5.56914774e-05
5.57048924e-05
5.57210134e-05
5.57282445e-05
5.573365e-05
5.57443609e-05
5.57617711e-05
5.57695218e-05
5.57743378e-05
5.57830555e-05
5.58008696e-05
5.58093884e-05
5.58136548e-05
5.58210042e-05
5.58385065e-05
5.58479453e-05
5.58521264e-05
5.58583782e-05
5.58749158e-05
5.58851118e-05
5.58898726e-05
5.58955327e-05
5.59102539e-05
5.59214539e-05
5.59265821e-05
5.59318884e-05
5.59447924e-05
5.59569376e-05
5.59621736e-05
5.59673536e-05
5.59786837e-05
5.59914509e-05
5.59971753e-05
5.60018428e-05
5.60122314e-05
5.60252687e-05
5.60312903e-05
5.60357458e-05
5.60451687e-05
5.60583575e-05
5.60645745e-05
5.60689436e-05
5.60775259e-05
5.60906179e-05
5.60970711e-05
5.61014563e-05
5.61095166e-05
5.61221176e-05
5.6128803e-05
5.61333857e-05
5.61410374e-05
5.61531294e-05
5.61600391e-05
5.61647642e-05
5.61721416e-05
5.61836231e-05
5.61906361e-05
5.61957548e-05
5.62028807e-05
5.6213623e-05
5.62206733e-05
5.62261875e-05
5.6233101e-05
5.62432381e-05
5.62502663e-05
5.62560661e-05
5.62628571e-05
5.62724568e-05
5.62794489e-05
5.628545e-05
5.62921882e-05
5.63012824e-05
5.6308227e-05
5.63144032e-05
5.63211409e-05
5.63297737e-05
5.63365497e-05
5.63429182e-05
5.63494625e-05
5.63575328e-05
5.63641417e-05
5.63705921e-05
5.63770457e-05
5.63848353e-05
5.63913184e-05
5.63979707e-05
5.64044384e-05
5.6412075e-05
5.64185135e-05
5.64253528e-05
5.64316589e-05
5.64391507e-05
5.64454046e-05
5.64523587e-05
5.64585061e-05
5.64658729e-05
5.64719639e-05
5.64799783e-05
5.64862413e-05
5.64954884e-05
5.65018918e-05
5.65115443e-05
5.65181096e-05
5.65281297e-05
5.65347338e-05
5.65451936e-05
5.65512905e-05
5.65620891e-05
5.65683391e-05
5.65794886e-05
5.65858958e-05
5.65973703e-05
5.66039394e-05
5.66157385e-05
5.66224728e-05
5.66345755e-05
5.6641484e-05
5.6653889e-05
5.666097e-05
5.66736533e-05
5.66809253e-05
5.66939028e-05
5.6701343e-05
5.67145678e-05
5.67222316e-05
5.67357815e-05
5.67435767e-05
5.67573006e-05
5.67654406e-05
5.67796007e-05
5.67876169e-05
5.68017015e-05
5.68094503e-05
5.68246439e-05
5.68314993e-05
5.68462541e-05
5.68544225e-05
5.68726102e-05
5.68766687e-05
5.68923345e-05
5.69011226e-05
5.69128838e-05
5.69213874e-05
5.69277113e-05
5.6942495e-05
5.69213572e-05
5.69561547e-05
5.69507436e-05
5.69536813e-05
5.69271478e-05
5.69779103e-05
5.69676949e-05
5.69590801e-05
5.69303546e-05
5.699248e-05
5.69802281e-05
5.69599201e-05
5.69289463e-05
5.70009351e-05
5.69781441e-05
5.69560474e-05
5.69202886e-05
5.70023969e-05
5.69596034e-05
5.69468622e-05
5.68940143e-05
5.69981019e-05
5.69274027e-05
5.69324758e-05
5.68408879e-05
5.69808003e-05
5.69054619e-05
5.69106966e-05
5.67810999e-05
5.69580521e-05
5.6902102e-05
5.6878699e-05
5.67245198e-05
5.69373018e-05
5.68977286e-05
5.68376049e-05
5.66819461e-05
5.69252352e-05
5.68976272e-05
5.68040985e-05
5.66497815e-05
5.69186096e-05
5.68982323e-05
5.6771905e-05
5.66249457e-05
5.69188337e-05
5.68981154e-05
5.67428038e-05
5.66109138e-05
5.69173509e-05
5.69011266e-05
5.671861e-05
5.66046079e-05
5.69221189e-05
5.69050335e-05
5.67023161e-05
5.66155644e-05
5.69269305e-05
5.69116518e-05
5.66938409e-05
5.66287676e-05
5.69336108e-05
5.69190534e-05
5.66925372e-05
5.66461974e-05
5.69442599e-05
5.69281822e-05
5.66963063e-05
5.66664245e-05
5.69562904e-05
5.69485182e-05
5.670069e-05
5.66829299e-05
5.6969789e-05
5.69634619e-05
5.67050411e-05
5.66997765e-05
5.69856779e-05
5.69780908e-05
5.67168131e-05
5.67215825e-05
5.70044895e-05
5.69954715e-05
5.67437305e-05
5.67544811e-05
5.70265214e-05
5.70179623e-05
5.68160338e-05
5.6808048e-05
5.70529982e-05
5.70520333e-05
5.69218235e-05
5.68948797e-05
5.7082138e-05
5.71019646e-05
5.70103399e-05
5.69913371e-05
5.70796657e-05
5.712632e-05
5.70627233e-05
5.70866948e-05
5.70720928e-05
5.71010545e-05
5.70846403e-05
5.71186544e-05
5.70895942e-05
5.71082479e-05
5.7094703e-05
5.71138492e-05
5.70978836e-05
5.71101211e-05
5.71007518e-05
5.71121402e-05
5.71033847e-05
5.71112713e-05
5.71059677e-05
5.7112902e-05
5.71085455e-05
5.71139293e-05
5.71110979e-05
5.71158158e-05
5.71136505e-05
5.71176003e-05
5.71161846e-05
5.71196952e-05
5.71187173e-05
5.7121819e-05
5.71212458e-05
5.71240804e-05
5.71237832e-05
5.7126402e-05
5.71263358e-05
5.71288107e-05
5.71289164e-05
5.71312857e-05
5.71313795e-05
5.71337224e-05
5.71329442e-05
5.71352253e-05
5.713454e-05
5.71368136e-05
5.71361736e-05
5.71384919e-05
5.71378734e-05
5.71402345e-05
5.71396444e-05
5.71420562e-05
5.71414908e-05
5.71439565e-05
5.71434197e-05
5.71459405e-05
5.71454355e-05
5.71480121e-05
5.71475427e-05
5.71501751e-05
5.71497454e-05
5.71524333e-05
5.71520471e-05
5.71547901e-05
5.71544509e-05
5.71572486e-05
5.71569597e-05
5.71597105e-05
5.7158557e-05
5.71609631e-05
5.71598955e-05
5.71622586e-05
5.71612768e-05
5.71635994e-05
5.71627026e-05
5.71649858e-05
5.71641762e-05
5.71664212e-05
5.71654841e-05
5.71676167e-05
5.71661358e-05
5.71682168e-05
5.71668173e-05
5.71689034e-05
5.71675779e-05
5.71696544e-05
5.71684066e-05
5.71704746e-05
5.71693055e-05
5.71713651e-05
5.71702744e-05
5.71723264e-05
5.71713143e-05
5.71733595e-05
5.71724255e-05
5.71744651e-05
5.71736088e-05
5.7175644e-05
5.71748649e-05
5.71768968e-05
5.71761945e-05
5.71782244e-05
5.71775983e-05
5.71796274e-05
5.71790769e-05
5.71811066e-05
5.71806312e-05
5.71826625e-05
5.71822617e-05
5.71842957e-05
5.71839691e-05
5.7186007e-05
5.7185754e-05
5.71877967e-05
5.71876168e-05
5.71896654e-05
5.71895582e-05
5.71916133e-05
5.71915784e-05
5.71936408e-05
5.71936777e-05
5.7195748e-05
5.71958563e-05
5.71979349e-05
5.71981141e-05
5.72002012e-05
5.7200227e-05
5.72023644e-05
5.72019538e-05
5.72040818e-05
5.72037616e-05
5.72058804e-05
5.72056491e-05
5.7207759e-05
5.7207615e-05
5.72097161e-05
5.72096578e-05
5.72117503e-05
5.72117762e-05
5.72138599e-05
5.72139685e-05
5.72160432e-05
5.72162329e-05
5.72182983e-05
5.72185676e-05
5.72206233e-05
5.72209706e-05
5.72230161e-05
5.72234399e-05
5.72254743e-05
5.72259733e-05
5.72279957e-05
5.72285683e-05
5.72305777e-05
5.72312225e-05
5.72332176e-05
5.72339331e-05
5.72359123e-05
5.72366971e-05
5.72386585e-05
5.72395114e-05
5.72414527e-05
5.72423724e-05
5.72442908e-05
5.72452761e-05
5.72471683e-05
5.72482183e-05
5.72500799e-05
5.72511939e-05
5.72530205e-05
5.72541981e-05
5.72559828e-05
5.72572246e-05
5.72589625e-05
5.72602691e-05
5.72619479e-05
5.72633241e-05
5.72649461e-05
5.72663917e-05
5.72679262e-05
5.72694714e-05
5.72709432e-05
5.72725489e-05
5.7273903e-05
5.72755987e-05
5.72771168e-05
5.72787236e-05
5.72801221e-05
5.72818279e-05
5.72844233e-05
5.72852368e-05
5.72870066e-05
5.72884784e-05
5.72972818e-05
5.72926256e-05
5.72851034e-05
5.72954884e-05
5.73243168e-05
5.73016409e-05
5.72669409e-05
5.72974655e-05
5.73650553e-05
5.73128585e-05
5.71857602e-05
5.7298948e-05
5.73686926e-05
5.73252047e-05
5.70651671e-05
5.72987164e-05
5.73391539e-05
5.73367387e-05
5.6993427e-05
5.73011446e-05
5.73347464e-05
5.73468126e-05
5.69350002e-05
5.73082115e-05
5.73354979e-05
5.73573889e-05
5.68939779e-05
5.73190087e-05
5.7336384e-05
5.73670648e-05
5.68687925e-05
5.73312978e-05
5.73393116e-05
5.73754086e-05
5.68566241e-05
5.73433495e-05
5.73357348e-05
5.73825929e-05
5.68688744e-05
5.73546556e-05
5.73404556e-05
5.73893444e-05
5.68823655e-05
5.73651845e-05
5.73496813e-05
5.73955076e-05
5.68973467e-05
5.73761376e-05
5.73662404e-05
5.74026203e-05
5.69115475e-05
5.73860417e-05
5.73779318e-05
5.74106431e-05
5.6926635e-05
5.7395493e-05
5.73928252e-05
5.74195902e-05
5.69421523e-05
5.7404577e-05
5.74086789e-05
5.7429448e-05
5.69579981e-05
5.74143136e-05
5.74250393e-05
5.74397308e-05
5.69740879e-05
5.74244361e-05
5.74412897e-05
5.74506258e-05
5.69904441e-05
5.74348693e-05
5.74553074e-05
5.74621546e-05
5.70069933e-05
5.74457497e-05
5.74693676e-05
5.74738399e-05
5.70236457e-05
5.74569601e-05
5.74834454e-05
5.74858929e-05
5.70403133e-05
5.74683186e-05
5.74974195e-05
5.74981607e-05
5.7056922e-05
5.74796594e-05
5.75113064e-05
5.7510507e-05
5.70734341e-05
5.74906953e-05
5.7525091e-05
5.75224075e-05
5.70898309e-05
5.75012853e-05
5.75388401e-05
5.75341941e-05
5.7107787e-05
5.7511615e-05
5.7552604e-05
5.75457799e-05
5.71296763e-05
5.75212909e-05
5.75663061e-05
5.75571619e-05
5.71514259e-05
5.75303616e-05
5.75798898e-05
5.75684397e-05
5.71732667e-05
5.75393348e-05
5.75935737e-05
5.75797426e-05
5.71951753e-05
5.75484482e-05
5.76074246e-05
5.75912009e-05
5.72172174e-05
5.75579373e-05
5.76215405e-05
5.76029603e-05
5.72394408e-05
5.75679682e-05
5.76359277e-05
5.76151175e-05
5.72618722e-05
5.75787119e-05
5.76504944e-05
5.76277514e-05
5.72843316e-05
5.75902285e-05
5.7665283e-05
5.76409407e-05
5.73051017e-05
5.7602506e-05
5.76804135e-05
5.76547391e-05
5.732338e-05
5.76154453e-05
5.76960128e-05
5.76691509e-05
5.73419479e-05
5.76289466e-05
5.77120827e-05
5.76841396e-05
5.7360828e-05
5.76429066e-05
5.77286091e-05
5.76996944e-05
5.73800378e-05
5.7657476e-05
5.77455846e-05
5.77158085e-05
5.73995709e-05
5.76725547e-05
5.77630029e-05
5.77324638e-05
5.74194298e-05
5.7688063e-05
5.77808714e-05
5.77496792e-05
5.74395926e-05
5.77039688e-05
5.77991781e-05
5.77674728e-05
5.7460063e-05
5.77202487e-05
5.78178489e-05
5.77859787e-05
5.74808781e-05
5.77366522e-05
5.78369692e-05
5.78050682e-05
5.75019726e-05
5.77530098e-05
5.78565389e-05
5.78251405e-05
5.7523222e-05
5.77689229e-05
5.78765786e-05
5.78466534e-05
5.75446278e-05
5.7783765e-05
5.7897104e-05
5.78697269e-05
5.75660514e-05
5.77966678e-05
5.79180591e-05
5.78943729e-05
5.75875096e-05
5.78065881e-05
5.79394625e-05
5.79222113e-05
5.76088135e-05
5.78128535e-05
5.79614227e-05
5.79520094e-05
5.7628904e-05
5.78143665e-05
5.79836078e-05
5.79814536e-05
5.76501121e-05
5.7813153e-05
5.80065367e-05
5.80110909e-05
5.76716009e-05
5.78095767e-05
5.80296114e-05
5.80376157e-05
5.76942133e-05
5.78051712e-05
5.80529621e-05
5.80611596e-05
5.77182292e-05
5.78196292e-05
5.80766997e-05
5.8085352e-05
5.77428276e-05
5.78352716e-05
5.81006876e-05
5.81101313e-05
5.77679463e-05
5.78531424e-05
5.81248918e-05
5.81340996e-05
5.77934781e-05
5.78715941e-05
5.81492304e-05
5.81577678e-05
5.78193962e-05
5.78892871e-05
5.81736928e-05
5.81816981e-05
5.78457232e-05
5.79066233e-05
5.81984391e-05
5.82063395e-05
5.78725475e-05
5.79237856e-05
5.82235973e-05
5.82300758e-05
5.78999965e-05
5.79402559e-05