/*--------------------------------*- C++ -*----------------------------------*\
| =========                 |                                                 |
| \\      /  F ield         | OpenFOAM: The Open Source CFD Toolbox           |
|  \\    /   O peration     | Version:  2306                                  |
|   \\  /    A nd           | Website:  www.openfoam.com                      |
|    \\/     M anipulation  |                                                 |
\*---------------------------------------------------------------------------*/
FoamFile
{
    version     2.0;
    format      ascii;
    arch        "LSB;label=32;scalar=64";
    class       volScalarField;
    location    "0.00022";
    object      prefDPV_H2O;
}
// * * * * * * * * * * * * * * * * * * * * * * * * * * * * * * * * * * * * * //

dimensions      [1 -1 -1 0 0 0 0];

internalField   nonuniform List<scalar> 
3801
(
-3.8469056e-07
-3.84179454e-07
-3.85171793e-07
-3.8396394e-07
-3.85951334e-07
-3.6962793e-07
-3.64088333e-07
-3.67325675e-07
-3.84008541e-07
-3.85303859e-07
-3.66994991e-07
-3.65035913e-07
-3.65106788e-07
-3.63653231e-07
-3.66680287e-07
-3.83992868e-07
-3.8538927e-07
-3.68045225e-07
-3.63505168e-07
-3.66608223e-07
-3.84047202e-07
-3.83654808e-07
-3.85802017e-07
-3.65931398e-07
-3.64242002e-07
-3.69363958e-07
-3.84427656e-07
-3.85271657e-07
-3.63874417e-07
-3.63632856e-07
-3.71730626e-07
-3.84542782e-07
-3.85030219e-07
-3.84418763e-07
-3.86227575e-07
-3.65149224e-07
-3.69151391e-07
-3.84355821e-07
-3.66901653e-07
-3.6638579e-07
-3.83569146e-07
-3.84421593e-07
-3.66111161e-07
-3.63635809e-07
-3.65959017e-07
-3.84364879e-07
-3.84218113e-07
-3.65215831e-07
-3.65472669e-07
-3.84002762e-07
-3.84098208e-07
-3.6643893e-07
-3.64946182e-07
-3.65358365e-07
-3.64601679e-07
-3.64731346e-07
-3.63544038e-07
-3.64936675e-07
-3.850775e-07
-3.83870705e-07
-3.8466027e-07
-3.83842403e-07
-3.84321862e-07
-3.66029847e-07
-3.64908978e-07
-3.85598116e-07
-3.84399512e-07
-3.84449746e-07
-3.84438614e-07
-3.67508897e-07
-3.63273649e-07
-3.64441479e-07
-3.8487658e-07
-3.83960577e-07
-3.66593061e-07
-3.64651613e-07
-3.64378372e-07
-3.6477652e-07
-3.85013137e-07
-3.8361307e-07
-3.84121703e-07
-3.69036408e-07
-3.64185847e-07
-3.64967425e-07
-3.84487347e-07
-3.84069078e-07
-3.67817704e-07
-3.64196135e-07
-3.65176112e-07
-3.84681549e-07
-3.83469061e-07
-3.83915152e-07
-3.69497236e-07
-3.65079778e-07
-3.65613069e-07
-3.64496153e-07
-3.64988596e-07
-3.8481137e-07
-3.83535237e-07
-3.7953036e-07
-3.66014106e-07
-3.64915441e-07
-3.65872317e-07
-3.8411994e-07
-3.83436791e-07
-3.66323118e-07
-3.65423805e-07
-3.84056773e-07
-3.83627744e-07
-3.65620157e-07
-3.65087489e-07
-3.840421e-07
-3.83798914e-07
-3.65478439e-07
-3.65276594e-07
-3.84048583e-07
-3.83862772e-07
-3.65179074e-07
-3.65841652e-07
-3.84438608e-07
-3.83693152e-07
-3.84798865e-07
-3.65440831e-07
-3.63077401e-07
-3.64429675e-07
-3.62913715e-07
-3.64001949e-07
-3.8467018e-07
-3.84472249e-07
-3.84507791e-07
-3.84613043e-07
-3.65000003e-07
-3.65049554e-07
-3.84214514e-07
-3.80849088e-07
-3.64042217e-07
-3.63120639e-07
-3.64410094e-07
-3.83889727e-07
-3.84162949e-07
-3.67386484e-07
-3.65219929e-07
-3.64852011e-07
-3.66107473e-07
-3.84065342e-07
-3.83756246e-07
-3.83992215e-07
-3.83934812e-07
-3.8371783e-07
-3.84050415e-07
-3.67084632e-07
-3.64441088e-07
-3.64121937e-07
-3.64585684e-07
-3.85541565e-07
-3.83959242e-07
-3.72653747e-07
-3.65218434e-07
-3.65300566e-07
-3.65624784e-07
-3.6542007e-07
-3.69590365e-07
-3.83955619e-07
-3.8347401e-07
-3.66613128e-07
-3.65193052e-07
-3.84663382e-07
-3.84013716e-07
-3.66204857e-07
-3.64219094e-07
-3.67454976e-07
-3.84616906e-07
-3.83414719e-07
-3.66476107e-07
-3.65171958e-07
-3.85456995e-07
-3.83768592e-07
-3.66202814e-07
-3.65043014e-07
-3.85610476e-07
-3.83853828e-07
-3.66151628e-07
-3.65031932e-07
-3.85638627e-07
-3.838825e-07
-3.66271279e-07
-3.65180953e-07
-3.8556459e-07
-3.83900928e-07
-3.66392369e-07
-3.6536625e-07
-3.85413485e-07
-3.83796926e-07
-3.66189869e-07
-3.67316824e-07
-3.81319853e-07
-3.68332835e-07
-3.67273825e-07
-3.8461142e-07
-3.86977402e-07
-3.65595254e-07
-3.69265849e-07
-3.84537189e-07
-3.73475338e-07
-3.64647371e-07
-3.78788121e-07
-3.84638444e-07
-3.68636575e-07
-3.63173506e-07
-3.63981945e-07
-3.84928708e-07
-3.84144866e-07
-3.68585636e-07
-3.64204495e-07
-3.67338246e-07
-3.84588501e-07
-3.83540358e-07
-3.74632297e-07
-3.6555032e-07
-3.66979561e-07
-3.84874247e-07
-3.83499283e-07
-3.8403835e-07
-3.65715072e-07
-3.63612149e-07
-3.65187964e-07
-3.65043994e-07
-3.67996252e-07
-3.84674236e-07
-3.84023698e-07
-3.65039272e-07
-3.64077643e-07
-3.65576801e-07
-3.69464751e-07
-3.84094477e-07
-3.83911333e-07
-3.66179411e-07
-3.66234832e-07
-3.84355168e-07
-3.84186505e-07
-3.65915246e-07
-3.67602024e-07
-3.84266623e-07
-3.7937782e-07
-3.64403554e-07
-3.64727342e-07
-3.80804117e-07
-3.84372524e-07
-3.74788809e-07
-3.64529164e-07
-3.64884934e-07
-3.7482169e-07
-3.84073434e-07
-3.8635408e-07
-3.65381854e-07
-3.69730699e-07
-3.84382778e-07
-3.73767446e-07
-3.64311347e-07
-3.64632088e-07
-3.66196816e-07
-3.77947279e-07
-3.84368872e-07
-3.73113519e-07
-3.64205077e-07
-3.64844866e-07
-3.76452214e-07
-3.8423718e-07
-3.82157615e-07
-3.65421078e-07
-3.70248097e-07
-3.84544885e-07
-3.77382198e-07
-3.64055071e-07
-3.64205885e-07
-3.6919264e-07
-3.84586323e-07
-3.83911892e-07
-3.8501022e-07
-3.84165222e-07
-3.85307554e-07
-3.83977832e-07
-3.86690886e-07
-3.65517601e-07
-3.63376541e-07
-3.64865733e-07
-3.6589063e-07
-3.73314318e-07
-3.84161466e-07
-3.8455965e-07
-3.65588517e-07
-3.68912777e-07
-3.8423511e-07
-3.82798412e-07
-3.65426942e-07
-3.68726871e-07
-3.84402963e-07
-3.81747549e-07
-3.64878952e-07
-3.68228912e-07
-3.84813815e-07
-3.7867701e-07
-3.63385496e-07
-3.63610614e-07
-3.65370103e-07
-3.7141983e-07
-3.84420807e-07
-3.82701154e-07
-3.6416628e-07
-3.64511677e-07
-3.72832104e-07
-3.84071237e-07
-3.83751029e-07
-3.85467792e-07
-3.65813901e-07
-3.67774703e-07
-3.84134921e-07
-3.85273508e-07
-3.64056036e-07
-3.64276306e-07
-3.71534275e-07
-3.84293128e-07
-3.87046267e-07
-3.65627593e-07
-3.6795393e-07
-3.84159732e-07
-3.86824927e-07
-3.64220715e-07
-3.64415311e-07
-3.73954168e-07
-3.84473238e-07
-3.84934455e-07
-3.84577865e-07
-3.86323599e-07
-3.6385871e-07
-3.63930093e-07
-3.65561782e-07
-3.70649714e-07
-3.8401482e-07
-3.86737224e-07
-3.65561585e-07
-3.67376181e-07
-3.84238288e-07
-3.85965589e-07
-3.63672064e-07
-3.63693809e-07
-3.69852757e-07
-3.84493983e-07
-3.85801307e-07
-3.63791663e-07
-3.63539454e-07
-3.69467481e-07
-3.84519737e-07
-3.86172043e-07
-3.64427278e-07
-3.6424114e-07
-3.65437298e-07
-3.70133551e-07
-3.83885129e-07
-3.83479548e-07
-3.86095477e-07
-3.66251144e-07
-3.66653853e-07
-3.8444051e-07
-3.85565689e-07
-3.64361627e-07
-3.64123537e-07
-3.65415577e-07
-3.65456813e-07
-3.65287897e-07
-3.68949766e-07
-3.84155005e-07
-3.85477375e-07
-3.65820736e-07
-3.66261649e-07
-3.84540451e-07
-3.85306559e-07
-3.65187701e-07
-3.64007284e-07
-3.68567572e-07
-3.84179155e-07
-3.84136895e-07
-3.84434885e-07
-3.85034747e-07
-3.84215448e-07
-3.85874315e-07
-3.65497958e-07
-3.65146007e-07
-3.85919714e-07
-3.85068996e-07
-3.66351261e-07
-3.65473203e-07
-3.86355903e-07
-3.84789806e-07
-3.67635213e-07
-3.6579983e-07
-3.83355356e-07
-3.84516537e-07
-3.69892697e-07
-3.66386747e-07
-3.82371004e-07
-3.84632277e-07
-3.70786893e-07
-3.65512071e-07
-3.66029428e-07
-3.66417332e-07
-3.66428803e-07
-3.68897635e-07
-3.85930194e-07
-3.8485953e-07
-3.70629463e-07
-3.64734009e-07
-3.66248293e-07
-3.83743469e-07
-3.8405559e-07
-3.85109048e-07
-3.74852877e-07
-3.66217106e-07
-3.7395646e-07
-3.84980123e-07
-3.73350863e-07
-3.64598407e-07
-3.64939592e-07
-3.6626756e-07
-3.75544657e-07
-3.84412908e-07
-3.78722936e-07
-3.66187589e-07
-3.73133109e-07
-3.84099775e-07
-3.8454094e-07
-3.84680888e-07
-3.8020548e-07
-3.64126864e-07
-3.64266509e-07
-3.65094892e-07
-3.64934684e-07
-3.64949155e-07
-3.64912041e-07
-3.64812354e-07
-3.6487145e-07
-3.64947054e-07
-3.64783618e-07
-3.68851192e-07
-3.83722649e-07
-3.83651589e-07
-3.84912504e-07
-3.83891211e-07
-3.86673611e-07
-3.6489127e-07
-3.65658337e-07
-3.84366724e-07
-3.8601492e-07
-3.6534853e-07
-3.65819708e-07
-3.84517893e-07
-3.85228137e-07
-3.65995142e-07
-3.66014742e-07
-3.84897445e-07
-3.84308005e-07
-3.84515465e-07
-3.84988587e-07
-3.66361806e-07
-3.63309901e-07
-3.65581631e-07
-3.85105842e-07
-3.8431518e-07
-3.67252688e-07
-3.63918811e-07
-3.65658968e-07
-3.85358459e-07
-3.84115948e-07
-3.68567058e-07
-3.64418228e-07
-3.65831633e-07
-3.86656541e-07
-3.83640212e-07
-3.70287723e-07
-3.65994521e-07
-3.79204791e-07
-3.83539639e-07
-3.84035518e-07
-3.72045818e-07
-3.65601526e-07
-3.77221637e-07
-3.84216162e-07
-3.70739282e-07
-3.64763488e-07
-3.65069081e-07
-3.65983223e-07
-3.79566641e-07
-3.84096695e-07
-3.71417358e-07
-3.6479994e-07
-3.65681965e-07
-3.79629748e-07
-3.83988796e-07
-3.73459647e-07
-3.65783982e-07
-3.75919653e-07
-3.84050247e-07
-3.74312612e-07
-3.66118295e-07
-3.76474622e-07
-3.84308854e-07
-3.73437323e-07
-3.65427373e-07
-3.65707947e-07
-3.66182976e-07
-3.66575224e-07
-3.78903867e-07
-3.84575989e-07
-3.73542167e-07
-3.65770066e-07
-3.74906962e-07
-3.85095685e-07
-3.72106303e-07
-3.64305687e-07
-3.64593454e-07
-3.65702026e-07
-3.75277766e-07
-3.84072561e-07
-3.84733135e-07
-3.75322747e-07
-3.64560248e-07
-3.65110639e-07
-3.73717931e-07
-3.84850978e-07
-3.77512737e-07
-3.65519041e-07
-3.70757602e-07
-3.84560312e-07
-3.79215413e-07
-3.65324359e-07
-3.69302429e-07
-3.84369397e-07
-3.81614866e-07
-3.65149625e-07
-3.67961278e-07
-3.84211692e-07
-3.84145646e-07
-3.65015873e-07
-3.66859917e-07
-3.84109467e-07
-3.86203839e-07
-3.64893586e-07
-3.663194e-07
-3.84085178e-07
-3.86503975e-07
-3.64563684e-07
-3.65866754e-07
-3.84061367e-07
-3.84119112e-07
-3.84046997e-07
-3.8488358e-07
-3.651095e-07
-3.64293498e-07
-3.63975165e-07
-3.64817037e-07
-3.84333025e-07
-3.83937035e-07
-3.84443222e-07
-3.83813935e-07
-3.84687791e-07
-3.65653814e-07
-3.63794218e-07
-3.64293856e-07
-3.83914386e-07
-3.84342891e-07
-3.65695481e-07
-3.64057089e-07
-3.6439298e-07
-3.83849393e-07
-3.84035075e-07
-3.66371375e-07
-3.651143e-07
-3.64927082e-07
-3.64919518e-07
-3.83864256e-07
-3.83841446e-07
-3.67094123e-07
-3.6577802e-07
-3.65494758e-07
-3.65461152e-07
-3.84057168e-07
-3.83743164e-07
-3.66511391e-07
-3.65774384e-07
-3.83933115e-07
-3.83764157e-07
-3.67681371e-07
-3.65499167e-07
-3.65728792e-07
-3.65402345e-07
-3.65239297e-07
-3.65246181e-07
-3.64449716e-07
-3.64386598e-07
-3.84808752e-07
-3.84015543e-07
-3.84179644e-07
-3.83873965e-07
-3.67431281e-07
-3.65426618e-07
-3.845852e-07
-3.83751571e-07
-3.66138007e-07
-3.65205537e-07
-3.84826299e-07
-3.83797063e-07
-3.65850339e-07
-3.64982229e-07
-3.84920063e-07
-3.8388082e-07
-3.65731977e-07
-3.64767713e-07
-3.84796299e-07
-3.83988949e-07
-3.66564047e-07
-3.64884436e-07
-3.6369111e-07
-3.63704928e-07
-3.85340874e-07
-3.83889795e-07
-3.84662159e-07
-3.67271191e-07
-3.6451761e-07
-3.84887502e-07
-3.84051788e-07
-3.65582183e-07
-3.64871293e-07
-3.85337983e-07
-3.84083678e-07
-3.84353764e-07
-3.84143667e-07
-3.69312419e-07
-3.64192988e-07
-3.64187455e-07
-3.84596454e-07
-3.84274956e-07
-3.67996848e-07
-3.64270461e-07
-3.641133e-07
-3.84798425e-07
-3.83908461e-07
-3.65914269e-07
-3.65303483e-07
-3.85369701e-07
-3.83623982e-07
-3.84484821e-07
-3.83447407e-07
-3.83659737e-07
-3.69953619e-07
-3.65619949e-07
-3.65697698e-07
-3.65051865e-07
-3.65033376e-07
-3.6421903e-07
-3.64124274e-07
-3.84797361e-07
-3.83907223e-07
-3.67994392e-07
-3.65619174e-07
-3.65046868e-07
-3.64917687e-07
-3.84828582e-07
-3.83774503e-07
-3.66430793e-07
-3.6566857e-07
-3.84719536e-07
-3.83678022e-07
-3.65909101e-07
-3.65478818e-07
-3.84929996e-07
-3.83804134e-07
-3.842213e-07
-3.83852206e-07
-3.66471369e-07
-3.65005273e-07
-3.84035664e-07
-3.83990344e-07
-3.67048997e-07
-3.64663462e-07
-3.65026529e-07
-3.63840496e-07
-3.63790967e-07
-3.84180912e-07
-3.84039618e-07
-3.6663823e-07
-3.65126903e-07
-3.6461615e-07
-3.645563e-07
-3.84204671e-07
-3.83879781e-07
-3.65652687e-07
-3.65335908e-07
-3.84005542e-07
-3.8379738e-07
-3.65223916e-07
-3.65307757e-07
-3.84092271e-07
-3.83875469e-07
-3.83870505e-07
-3.83953816e-07
-3.67809179e-07
-3.6485529e-07
-3.65366713e-07
-3.6419756e-07
-3.64352466e-07
-3.83929447e-07
-3.83942527e-07
-3.65913056e-07
-3.65402513e-07
-3.83587476e-07
-3.83901814e-07
-3.67098084e-07
-3.64903745e-07
-3.65103534e-07
-3.83987007e-07
-3.84061167e-07
-3.65718866e-07
-3.64323111e-07
-3.84049788e-07
-3.84259577e-07
-3.65456449e-07
-3.62897141e-07
-3.64001228e-07
-3.84854821e-07
-3.83884817e-07
-3.84404817e-07
-3.83610028e-07
-3.83960054e-07
-3.67541109e-07
-3.65067403e-07
-3.64936482e-07
-3.64877535e-07
-3.84714653e-07
-3.83822595e-07
-3.65715949e-07
-3.65137771e-07
-3.84823033e-07
-3.8378788e-07
-3.6574162e-07
-3.6502774e-07
-3.84973405e-07
-3.83817231e-07
-3.65644616e-07
-3.6484694e-07
-3.85097241e-07
-3.83854932e-07
-3.65555804e-07
-3.6469986e-07
-3.85145707e-07
-3.83878337e-07
-3.65525783e-07
-3.64644091e-07
-3.85086137e-07
-3.83867788e-07
-3.65596748e-07
-3.64774208e-07
-3.84809928e-07
-3.83839082e-07
-3.66145893e-07
-3.65133159e-07
-3.64653402e-07
-3.64886234e-07
-3.84508438e-07
-3.83573736e-07
-3.84134875e-07
-3.71578771e-07
-3.65003545e-07
-3.65415249e-07
-3.65233084e-07
-3.6448977e-07
-3.65210104e-07
-3.8429228e-07
-3.83503254e-07
-3.84062195e-07
-3.66383371e-07
-3.64872476e-07
-3.83881946e-07
-3.83718191e-07
-3.65497519e-07
-3.650348e-07
-3.64728354e-07
-3.65472088e-07
-3.83937014e-07
-3.83422249e-07
-3.83862704e-07
-3.66153698e-07
-3.6485648e-07
-3.83463657e-07
-3.83950119e-07
-3.65238638e-07
-3.64197472e-07
-3.65459236e-07
-3.83874731e-07
-3.83872865e-07
-3.6499781e-07
-3.65259025e-07
-3.83680558e-07
-3.84049259e-07
-3.64901029e-07
-3.64318186e-07
-3.65927175e-07
-3.83904896e-07
-3.84047193e-07
-3.64960329e-07
-3.6482449e-07
-3.65163938e-07
-3.65902716e-07
-3.83698588e-07
-3.84200604e-07
-3.65241618e-07
-3.65648702e-07
-3.83741274e-07
-3.84410786e-07
-3.64629173e-07
-3.64974482e-07
-3.83970167e-07
-3.84619266e-07
-3.6369021e-07
-3.64068445e-07
-3.83885817e-07
-3.84447277e-07
-3.64564534e-07
-3.6505827e-07
-3.83618492e-07
-3.84139237e-07
-3.64657948e-07
-3.65119905e-07
-3.83519965e-07
-3.84044906e-07
-3.64368909e-07
-3.63310108e-07
-3.65760069e-07
-3.83986132e-07
-3.83137635e-07
-3.83930207e-07
-3.64778137e-07
-3.64619609e-07
-3.83327004e-07
-3.83957549e-07
-3.64331751e-07
-3.64705619e-07
-3.83473504e-07
-3.84008726e-07
-3.63689236e-07
-3.63054046e-07
-3.6411937e-07
-3.63020092e-07
-3.64958307e-07
-3.83491084e-07
-3.83459439e-07
-3.83294881e-07
-3.83780244e-07
-3.83025083e-07
-3.84244778e-07
-3.65218913e-07
-3.62508845e-07
-3.65032087e-07
-3.8352172e-07
-3.83795301e-07
-3.64056973e-07
-3.62629907e-07
-3.65100944e-07
-3.83660473e-07
-3.8490515e-07
-3.62240623e-07
-3.63179817e-07
-3.83432633e-07
-3.8454329e-07
-3.63015144e-07
-3.61896896e-07
-3.64996043e-07
-3.83497101e-07
-3.85004981e-07
-3.63237372e-07
-3.62975446e-07
-3.63130111e-07
-3.65091e-07
-3.82683493e-07
-3.83628173e-07
-3.65548283e-07
-3.62573687e-07
-3.65392754e-07
-3.82969757e-07
-3.84329004e-07
-3.63123819e-07
-3.63954485e-07
-3.82783959e-07
-3.84275538e-07
-3.62435217e-07
-3.63503415e-07
-3.82648835e-07
-3.82338813e-07
-3.83216342e-07
-3.82353744e-07
-3.83804901e-07
-3.8230833e-07
-3.84340964e-07
-3.61805976e-07
-3.59102076e-07
-3.63017423e-07
-3.83132813e-07
-3.82647195e-07
-3.61123151e-07
-3.6238205e-07
-3.82286607e-07
-3.81647269e-07
-3.82208908e-07
-3.81731306e-07
-3.82099966e-07
-3.81718871e-07
-3.81956805e-07
-3.81625137e-07
-3.817795e-07
-3.81470386e-07
-3.81570361e-07
-3.81272665e-07
-3.81332832e-07
-3.81046844e-07
-3.81069971e-07
-3.80806008e-07
-3.80787719e-07
-3.80557144e-07
-3.80492777e-07
-3.8030506e-07
-3.80190818e-07
-3.80053854e-07
-3.79885971e-07
-3.79808195e-07
-3.79580964e-07
-3.79574104e-07
-3.79277419e-07
-3.79359195e-07
-3.78975238e-07
-3.79173807e-07
-3.78667455e-07
-3.79022841e-07
-3.78347136e-07
-3.78903715e-07
-3.78000009e-07
-3.78814133e-07
-3.77461645e-07
-3.78693794e-07
-3.75509555e-07
-3.80617628e-07
-3.7542634e-07
-3.50467083e-07
-3.55489051e-07
-3.87310966e-07
-3.80498854e-07
-3.46759274e-07
-3.46294936e-07
-3.7964424e-07
-3.76848599e-07
-3.4152116e-07
-3.45830581e-07
-3.62047679e-07
-3.63298619e-07
-3.51306925e-07
-3.50631747e-07
-3.58553413e-07
-3.5389604e-07
-3.52496002e-07
-3.47213797e-07
-3.53073753e-07
-3.45514601e-07
-3.31344267e-07
-3.32150193e-07
-3.54796745e-07
-3.34972263e-07
-3.3104988e-07
-3.29571392e-07
-3.28522516e-07
-3.27388058e-07
-3.25514769e-07
-3.23163249e-07
-3.25191371e-07
-3.2130588e-07
-3.19747957e-07
-3.13347848e-07
-3.1305422e-07
-3.3458332e-07
-3.29058361e-07
-3.22285423e-07
-3.07838215e-07
-2.94579829e-07
-2.92743718e-07
-2.91511607e-07
-2.84830489e-07
-2.88082836e-07
-2.92401885e-07
-3.00317327e-07
-3.0230487e-07
-3.03209238e-07
-3.10421199e-07
-3.04080991e-07
-2.90736217e-07
-3.08563979e-07
-2.99624746e-07
-3.07753426e-07
-2.91362783e-07
-2.96113634e-07
-2.88349376e-07
-2.85969197e-07
-2.77553239e-07
-2.73564749e-07
-2.64011668e-07
-2.57427454e-07
-2.47441636e-07
-2.39176045e-07
-2.28603243e-07
-2.18752879e-07
-2.07520475e-07
-1.9556933e-07
-1.83476292e-07
-1.71965852e-07
-1.61014632e-07
-1.50900437e-07
-1.40375852e-07
-1.29940811e-07
-1.19248915e-07
-1.08555705e-07
-9.77611073e-08
-8.68824673e-08
-7.62517852e-08
-6.54092508e-08
-5.46085967e-08
-4.36794553e-08
-3.28136887e-08
-2.18186205e-08
-1.08645903e-08
3.5820292e-11
1.09933337e-08
2.17739025e-08
3.26682176e-08
4.32951819e-08
5.40301246e-08
6.43297578e-08
7.47161872e-08
8.47452781e-08
9.48264767e-08
1.04574677e-07
1.14329231e-07
1.23792792e-07
1.33320749e-07
1.42548155e-07
1.51749566e-07
1.6062098e-07
1.69475631e-07
1.77955881e-07
1.86520555e-07
1.9528597e-07
2.04126779e-07
2.12369085e-07
2.2093044e-07
2.28651625e-07
2.36956814e-07
2.44207358e-07
2.52285142e-07
2.59114748e-07
2.66995572e-07
2.73456669e-07
2.81118541e-07
2.8729025e-07
2.95901657e-07
3.01838665e-07
3.11183531e-07
3.16794262e-07
3.26063884e-07
3.31333804e-07
3.40527646e-07
3.45445507e-07
3.54578614e-07
3.59209315e-07
3.70531023e-07
3.75980952e-07
3.87104923e-07
3.92073385e-07
4.02961815e-07
4.07437034e-07
4.1714078e-07
4.21168475e-07
4.27678909e-07
4.3042485e-07
4.36948393e-07
4.39405113e-07
4.45815481e-07
4.48156427e-07
4.54869185e-07
4.56450323e-07
4.62317008e-07
4.65012617e-07
4.75378471e-07
4.71604356e-07
4.66287849e-07
4.84727072e-07
5.23671858e-07
4.70258346e-07
4.43022747e-07
5.36110428e-07
5.8462356e-07
4.50792629e-07
4.29501724e-07
5.95858868e-07
6.34387544e-07
4.65361409e-07
4.48381386e-07
6.21569952e-07
6.34400267e-07
5.09245061e-07
4.93057045e-07
6.04926733e-07
6.14117535e-07
5.70305402e-07
5.48678546e-07
5.97599044e-07
6.09370539e-07
6.00185517e-07
5.96394818e-07
6.10833535e-07
6.13624767e-07
6.19014705e-07
6.212099e-07
6.27512935e-07
6.30829215e-07
6.36230751e-07
6.39933175e-07
6.45401455e-07
6.49534393e-07
6.54517467e-07
6.58672507e-07
6.63480883e-07
6.67836622e-07
6.72452105e-07
6.76759045e-07
6.8123616e-07
6.85598648e-07
6.90196615e-07
6.94350732e-07
6.98708545e-07
7.02930351e-07
7.07589969e-07
7.11428322e-07
7.15689768e-07
7.19743745e-07
7.24622566e-07
7.28091746e-07
7.32261054e-07
7.3627341e-07
7.41461876e-07
7.4444563e-07
7.48435251e-07
7.52588045e-07
7.58188594e-07
7.60464516e-07
7.63950692e-07
7.68632149e-07
7.75218646e-07
7.76077741e-07
7.78347177e-07
7.84851703e-07
7.93704361e-07
7.91481383e-07
7.91212415e-07
8.01893492e-07
8.1439813e-07
8.06220248e-07
8.02048372e-07
8.19978583e-07
8.38041738e-07
8.19654804e-07
8.11034681e-07
8.39903941e-07
8.62955779e-07
8.31618173e-07
8.19452144e-07
8.6110669e-07
8.86944231e-07
8.42057205e-07
8.28965251e-07
8.82822177e-07
9.07561377e-07
8.51286357e-07
8.39800076e-07
9.03227491e-07
9.2370293e-07
8.5935318e-07
8.5169749e-07
9.21370414e-07
9.35681558e-07
8.66083889e-07
8.63749206e-07
9.3679696e-07
9.44163569e-07
8.71877162e-07
8.75493314e-07
9.49152786e-07
9.49434561e-07
8.77732423e-07
8.86741397e-07
9.59186581e-07
9.52049009e-07
8.8338034e-07
8.98934989e-07
9.66888335e-07
9.52024526e-07
8.89212917e-07
9.11890584e-07
9.72864817e-07
9.50327288e-07
8.95065545e-07
9.25108069e-07
9.77416797e-07
9.47754261e-07
9.01155618e-07
9.3766766e-07
9.80647215e-07
9.45441399e-07
9.07826536e-07
9.48752675e-07
9.82446519e-07
9.44243391e-07
9.15160202e-07
9.5759406e-07
9.83100815e-07
9.44642579e-07
9.22888207e-07
9.6407763e-07
9.82953716e-07
9.46654395e-07
9.30848369e-07
9.68417473e-07
9.82272295e-07
9.50221117e-07
9.38773061e-07
9.70972494e-07
9.81365593e-07
9.54879008e-07
9.46370951e-07
9.72279942e-07
9.80520144e-07
9.60224964e-07
9.53387742e-07
9.72831364e-07
9.79939204e-07
9.65695985e-07
9.59655466e-07
9.73061578e-07
9.79737822e-07
9.70893418e-07
9.65101566e-07
9.73286647e-07
9.79947287e-07
9.75615415e-07
9.69777102e-07
9.73728536e-07
9.80535665e-07
9.79565922e-07
9.7385425e-07
9.74556308e-07
9.81444819e-07
9.82816066e-07
9.77389198e-07
9.76037999e-07
9.82271325e-07
9.85299252e-07
9.808042e-07
9.77981082e-07
9.82956087e-07
9.87154033e-07
9.84177802e-07
9.80211028e-07
9.83645082e-07
9.88699409e-07
9.87218277e-07
9.82566283e-07
9.84556521e-07
9.9011361e-07
9.89843701e-07
9.84904724e-07
9.85751207e-07
9.91395486e-07
9.92112108e-07
9.87231257e-07
9.87131361e-07
9.9260379e-07
9.9403195e-07
9.89633072e-07
9.88776746e-07
9.93654641e-07
9.95690047e-07
9.92036971e-07
9.90633266e-07
9.94642824e-07
9.9713635e-07
9.94385446e-07
9.92565108e-07
9.95717945e-07
9.98479209e-07
9.96560421e-07
9.94531843e-07
9.96908887e-07
9.9978748e-07
9.98558364e-07
9.96414812e-07
9.98232602e-07
1.00116086e-06
1.00042187e-06
9.98203837e-07
9.99613495e-07
1.00255475e-06
1.00218154e-06
9.9995324e-07
1.00104628e-06
1.00391829e-06
1.00381688e-06
1.00169477e-06
1.00254748e-06
1.00523508e-06
1.00532667e-06
1.00345327e-06
1.00413634e-06
1.00647914e-06
1.00672852e-06
1.00520017e-06
1.00574565e-06
1.00771083e-06
1.00807798e-06
1.00687859e-06
1.00732978e-06
1.00897667e-06
1.00941651e-06
1.00847131e-06
1.00887017e-06
1.01025963e-06
1.0107394e-06
1.00999062e-06
1.01037267e-06
1.0115433e-06
1.01204415e-06
1.01145171e-06
1.01184468e-06
1.01281339e-06
1.01332634e-06
1.01286724e-06
1.01329266e-06
1.0140624e-06
1.01458342e-06
1.01424937e-06
1.0147116e-06
1.01528697e-06
1.01582332e-06
1.01558258e-06
1.01608028e-06
1.01650424e-06
1.01705926e-06
1.01687844e-06
1.01741124e-06
1.01771197e-06
1.01828657e-06
1.01814611e-06
1.01870963e-06
1.0189041e-06
1.01949719e-06
1.01938621e-06
1.01997798e-06
1.02007551e-06
1.02068724e-06
1.02063034e-06
1.02125552e-06
1.02132433e-06
1.02196763e-06
1.02196694e-06
1.0226262e-06
1.02266357e-06
1.02333565e-06
1.02334653e-06
1.02402087e-06
1.024044e-06
1.02473185e-06
1.02474383e-06
1.02544593e-06
1.02546134e-06
1.0261757e-06
1.02618544e-06
1.02691346e-06
1.02692427e-06
1.02766279e-06
1.02766795e-06
1.02842144e-06
1.02842831e-06
1.02918928e-06
1.02918431e-06
1.02996743e-06
1.02996882e-06
1.03075169e-06
1.03072115e-06
1.03155069e-06
1.03154498e-06
1.03234822e-06
1.03225154e-06
1.03317238e-06
1.03318017e-06
1.03394149e-06
1.03369783e-06
1.03482605e-06
1.03491481e-06
1.03555855e-06
1.03484477e-06
1.03664408e-06
1.0371693e-06
1.03712321e-06
1.03468136e-06
1.03882736e-06
1.04109086e-06
1.03803053e-06
1.03202204e-06
1.04226647e-06
1.04541756e-06
1.03692046e-06
1.02917092e-06
1.0460818e-06
1.04942257e-06
1.03535743e-06
1.02652774e-06
1.0497029e-06
1.05291239e-06
1.03380222e-06
1.02372162e-06
1.05284531e-06
1.05622259e-06
1.03222911e-06
1.020329e-06
1.0555324e-06
1.0596261e-06
1.030634e-06
1.01452159e-06
1.05788169e-06
1.06359472e-06
1.02892362e-06
1.00727009e-06
1.05977161e-06
1.06879787e-06
1.02676806e-06
1.00081121e-06
1.06195393e-06
1.07277916e-06
1.023492e-06
9.94953596e-07
1.06474702e-06
1.07529548e-06
1.019062e-06
9.90699159e-07
1.06808563e-06
1.0771479e-06
1.01485549e-06
9.87532956e-07
1.07142636e-06
1.07846979e-06
1.01079247e-06
9.85336652e-07
1.07431123e-06
1.07935847e-06
1.00783268e-06
9.84043645e-07
1.07691367e-06
1.08003618e-06
1.00486257e-06
9.83772478e-07
1.07842363e-06
1.08042303e-06
1.00300962e-06
9.84704992e-07
1.07935212e-06
1.08063624e-06
1.00275066e-06
9.85666456e-07
1.08007917e-06
1.0807187e-06
1.00349446e-06
9.86403825e-07
1.08086039e-06
1.08080155e-06
1.00475097e-06
9.87758207e-07
1.08163608e-06
1.08021421e-06
1.00553479e-06
9.90664098e-07
1.08224296e-06
1.07963313e-06
1.00508697e-06
9.93673627e-07
1.08263118e-06
1.07907989e-06
1.00500567e-06
9.96671606e-07
1.08225297e-06
1.0785009e-06
1.00689481e-06
9.99650033e-07
1.08015947e-06
1.0778173e-06
1.01346972e-06
1.00316563e-06
1.0756675e-06
1.07552184e-06
1.02577328e-06
1.00932495e-06
1.06699209e-06
1.07145447e-06
1.03866811e-06
1.01960625e-06
1.05731227e-06
1.06465332e-06
1.047198e-06
1.03332738e-06
1.05163295e-06
1.05488357e-06
1.05050725e-06
1.04370367e-06
1.05146211e-06
1.05134691e-06
1.05155619e-06
1.04815869e-06
1.05196066e-06
1.05089885e-06
1.05228389e-06
1.05041826e-06
1.05264496e-06
1.05160467e-06
1.05301616e-06
1.05190516e-06
1.05339426e-06
1.05264221e-06
1.05378933e-06
1.05313523e-06
1.05419108e-06
1.05372685e-06
1.05460557e-06
1.05424557e-06
1.05502701e-06
1.05477742e-06
1.05545687e-06
1.05528204e-06
1.0558921e-06
1.05578129e-06
1.05633224e-06
1.056267e-06
1.05677553e-06
1.05674536e-06
1.05721698e-06
1.05721256e-06
1.05763459e-06
1.05764684e-06
1.05805223e-06
1.05807601e-06
1.05846923e-06
1.05850012e-06
1.05888653e-06
1.05892239e-06
1.05930084e-06
1.0593415e-06
1.05971407e-06
1.05975841e-06
1.06012559e-06
1.06017323e-06
1.06053567e-06
1.06058622e-06
1.06094441e-06
1.06099759e-06
1.06135192e-06
1.06140754e-06
1.0617583e-06
1.06181623e-06
1.06216366e-06
1.0622238e-06
1.0625681e-06
1.0626269e-06
1.06293628e-06
1.06298339e-06
1.06329098e-06
1.06333691e-06
1.06364269e-06
1.06368746e-06
1.0639916e-06
1.0640353e-06
1.06433763e-06
1.06438017e-06
1.06467541e-06
1.06471576e-06
1.06499026e-06
1.06502848e-06
1.06530518e-06
1.0653407e-06
1.06561726e-06
1.06565067e-06
1.06592766e-06
1.06595892e-06
1.0662361e-06
1.06626529e-06
1.06654278e-06
1.06656995e-06
1.06684767e-06
1.0668729e-06
1.06715085e-06
1.06717423e-06
1.06745237e-06
1.06747397e-06
1.0677523e-06
1.06777219e-06
1.06805069e-06
1.06806896e-06
1.0683476e-06
1.06836434e-06
1.06864311e-06
1.0686584e-06
1.06893729e-06
1.06895121e-06
1.0692302e-06
1.06924284e-06
1.06952193e-06
1.06953337e-06
1.06981254e-06
1.06982288e-06
1.07010211e-06
1.07011143e-06
1.07039072e-06
1.07039911e-06
1.07067844e-06
1.07068598e-06
1.07096534e-06
1.07097211e-06
1.07125151e-06
1.07125757e-06
1.071537e-06
1.07154243e-06
1.07181598e-06
1.071822e-06
1.07208211e-06
1.07208736e-06
1.0723479e-06
1.07235242e-06
1.07261337e-06
1.0726172e-06
1.07287853e-06
1.07288169e-06
1.0731434e-06
1.07314588e-06
1.07340795e-06
1.07340975e-06
1.07367218e-06
1.07367326e-06
1.07393605e-06
1.07393633e-06
1.07419949e-06
1.07419887e-06
1.07446243e-06
1.07446078e-06
1.07472476e-06
1.07472189e-06
1.07498633e-06
1.07498201e-06
1.07524698e-06
1.07524089e-06
1.07550647e-06
1.07549825e-06
1.07576454e-06
1.07575369e-06
1.07602085e-06
1.07600676e-06
1.07627498e-06
1.07625689e-06
1.07652642e-06
1.07650336e-06
1.07677455e-06
1.07674534e-06
1.07701862e-06
1.07698161e-06
1.07725763e-06
1.07721111e-06
1.07749054e-06
1.07743143e-06
1.07771559e-06
1.07764202e-06
1.07793166e-06
1.07783657e-06
1.07813488e-06
1.07801976e-06
1.07832553e-06
1.07816907e-06
1.07849397e-06
1.07831693e-06
1.07864896e-06
1.07837232e-06
1.07876977e-06
1.07848523e-06
1.07889346e-06
1.07828273e-06
1.07894252e-06
1.07851896e-06
1.07906807e-06
1.07743838e-06
1.07896386e-06
1.07885822e-06
1.07925547e-06
1.07420342e-06
1.07870646e-06
1.08041558e-06
1.07963233e-06
1.06642389e-06
1.07772109e-06
1.08489591e-06
1.08018413e-06
1.05189531e-06
1.07619822e-06
1.09154406e-06
1.0808212e-06
1.03777059e-06
1.07460593e-06
1.09649359e-06
1.08184445e-06
1.02877229e-06
1.07403457e-06
1.09926669e-06
1.08291274e-06
1.02073154e-06
1.07453551e-06
1.10062634e-06
1.08409675e-06
1.01413957e-06
1.07586418e-06
1.10177732e-06
1.085346e-06
1.00950279e-06
1.07773253e-06
1.10262283e-06
1.08658938e-06
1.00663143e-06
1.07978923e-06
1.10268852e-06
1.08774937e-06
1.00595187e-06
1.08177888e-06
1.10278727e-06
1.08862027e-06
1.00596826e-06
1.08345578e-06
1.10296985e-06
1.08951214e-06
1.00641935e-06
1.08524585e-06
1.10328788e-06
1.09046327e-06
1.0068223e-06
1.08666419e-06
1.10351562e-06
1.0913582e-06
1.00768768e-06
1.08781445e-06
1.10380265e-06
1.0922236e-06
1.0086638e-06
1.08871634e-06
1.1041074e-06
1.09299152e-06
1.00975125e-06
1.08944444e-06
1.1044214e-06
1.09363683e-06
1.01091334e-06
1.09001127e-06
1.10471076e-06
1.09414026e-06
1.01212399e-06
1.09041505e-06
1.10488025e-06
1.0945035e-06
1.01335974e-06
1.09065722e-06
1.10504629e-06
1.09472345e-06
1.01460422e-06
1.09075644e-06
1.10521208e-06
1.09483323e-06
1.01584438e-06
1.09072465e-06
1.10537522e-06
1.09484795e-06
1.01707592e-06
1.09057769e-06
1.10553479e-06
1.09478377e-06
1.01830657e-06
1.09033924e-06
1.10568811e-06
1.09466367e-06
1.01954793e-06
1.09003132e-06
1.10582502e-06
1.09450769e-06
1.02090293e-06
1.08966823e-06
1.10590757e-06
1.09433748e-06
1.02251074e-06
1.08925634e-06
1.10595763e-06
1.0941931e-06
1.02419686e-06
1.08882712e-06
1.10599304e-06
1.09408999e-06
1.02593945e-06
1.0884436e-06
1.10602217e-06
1.09403995e-06
1.02772323e-06
1.08813202e-06
1.1060497e-06
1.09405413e-06
1.02953542e-06
1.08790434e-06
1.10608069e-06
1.09413566e-06
1.03136139e-06
1.08777589e-06
1.10611692e-06
1.09428016e-06
1.03318286e-06
1.08775362e-06
1.10616607e-06
1.09448322e-06
1.03498344e-06
1.08783366e-06
1.10626416e-06
1.09474507e-06
1.03658547e-06
1.08799843e-06
1.10644729e-06
1.09506077e-06
1.03790646e-06
1.08821891e-06
1.10666581e-06
1.09541705e-06
1.03912392e-06
1.08847133e-06
1.1069068e-06
1.09581279e-06
1.04025811e-06
1.08874242e-06
1.10716648e-06
1.09623825e-06
1.04132103e-06
1.08902449e-06
1.10744341e-06
1.09668917e-06
1.04231548e-06
1.08931325e-06
1.10773774e-06
1.09716156e-06
1.04324372e-06
1.08960401e-06
1.108051e-06
1.09765602e-06
1.04410215e-06
1.08988792e-06
1.1083816e-06
1.09817272e-06
1.04488745e-06
1.09015499e-06
1.10872845e-06
1.09871407e-06
1.04559754e-06
1.09040454e-06
1.10909793e-06
1.09928693e-06
1.04621855e-06
1.09059444e-06
1.10949279e-06