/*--------------------------------*- C++ -*----------------------------------*\
| =========                 |                                                 |
| \\      /  F ield         | OpenFOAM: The Open Source CFD Toolbox           |
|  \\    /   O peration     | Version:  2306                                  |
|   \\  /    A nd           | Website:  www.openfoam.com                      |
|    \\/     M anipulation  |                                                 |
\*---------------------------------------------------------------------------*/
FoamFile
{
    version     2.0;
    format      ascii;
    arch        "LSB;label=32;scalar=64";
    class       volScalarField;
    location    "0.00022";
    object      T;
}
// * * * * * * * * * * * * * * * * * * * * * * * * * * * * * * * * * * * * * //

dimensions      [0 0 0 1 0 0 0];

internalField   nonuniform List<scalar> 
3801
(
339.88256
339.913484
339.109447
339.882388
338.272589
329.020546
321.555958
328.90699
340.017017
338.98122
329.452121
324.262728
324.93113
320.772131
329.163646
340.405682
339.04502
328.681954
319.946072
328.619934
339.831271
340.115066
339.243075
327.043867
321.836408
329.346343
339.48838
339.552325
321.22324
320.380658
329.715212
339.560979
339.173941
339.551352
339.544194
324.792563
329.637233
339.991618
329.391831
328.308323
340.548007
339.918374
328.036216
320.413619
327.468688
339.649987
340.36651
325.275017
325.744754
340.095561
339.763875
328.722041
324.05432
325.641819
323.11208
323.944478
320.160941
324.502348
339.351779
339.925434
339.668166
339.856857
339.845386
327.429672
324.108908
339.585951
339.60211
339.793583
339.817531
329.03201
319.467608
323.354587
339.559653
340.320763
329.046672
323.826513
322.742236
324.030218
339.721552
339.971792
339.876424
329.119042
322.267347
324.622
339.958668
339.946721
329.052998
322.240103
325.35605
339.866441
340.195163
339.798617
328.977889
324.780469
326.651411
323.00151
324.900088
339.599152
340.266431
332.799401
327.937266
324.053192
327.535225
339.89082
340.555854
328.232985
326.275983
340.242058
340.474708
326.329745
325.278137
340.204984
340.270575
325.91108
325.671029
340.114128
340.049771
325.06449
327.124558
340.014734
339.960023
339.63132
325.901331
318.771793
323.049287
318.37584
321.869713
339.753982
339.750627
339.665297
339.683737
324.394639
324.485249
339.861353
333.61662
321.998683
319.303988
323.063275
340.34833
339.938849
329.063846
325.248558
324.391006
327.819275
340.350934
340.11922
340.306752
340.175573
340.155471
340.173612
329.310739
323.12117
321.949441
323.510637
340.034448
339.845388
329.743024
325.354567
325.531768
326.591432
325.824937
328.954475
339.848484
340.403513
329.231276
325.420791
339.906382
340.080145
328.50328
322.315852
328.67072
339.516054
340.593124
328.51285
325.549335
339.197972
340.384887
327.664639
325.062892
339.222002
340.297854
327.511767
324.985722
339.272826
340.292584
327.824109
325.352054
339.316713
340.311793
328.184107
325.845709
339.437818
340.576727
327.848337
329.218658
333.937334
329.190952
329.807916
339.590373
338.163054
326.379841
329.153402
339.812236
329.84716
323.696801
332.30593
339.841381
328.887888
319.383426
322.004026
339.874415
340.192344
328.90968
322.450243
328.938987
339.732777
340.162517
330.336589
326.116117
329.120225
339.606838
340.246524
340.250396
327.046809
320.615318
325.380041
324.409161
329.016729
339.366372
340.601307
324.894718
322.047429
326.171294
329.361194
339.735086
340.569411
328.087301
327.967954
339.632296
340.558588
327.282638
329.530354
339.754857
332.704765
322.789333
323.662513
333.588798
339.568299
330.322904
323.052751
324.433931
330.555505
339.829609
337.680121
325.600567
329.272286
339.863328
329.845249
322.712275
323.687696
327.945312
331.88869
339.834736
329.543579
322.307327
324.490403
331.191665
339.892567
334.543589
325.710992
329.343749
339.679353
331.506593
321.938843
321.861002
329.136522
339.625687
339.991916
338.958295
340.172698
338.785956
340.459837
338.426912
326.355137
319.503093
324.583127
326.90523
330.053113
339.809924
336.313897
326.219773
329.843929
339.834519
334.979492
325.758906
329.724947
339.749666
334.24769
324.170042
329.398043
339.551656
332.233232
319.978919
320.372559
325.557403
329.769864
339.756552
334.90537
322.347957
322.662957
329.805433
339.284704
339.988192
336.998002
327.019037
330.036662
340.097038
336.771528
322.042863
321.936012
329.684995
339.612696
338.42692
326.318099
329.900548
340.001404
337.941602
322.420011
322.415715
330.230403
339.510394
339.152893
339.467644
337.665764
321.08778
321.07672
326.077458
329.679218
340.062052
338.47946
326.265962
329.732536
340.231991
338.976063
320.809135
320.549395
329.220672
339.825768
339.359433
321.068899
320.190884
329.162513
339.774013
339.107516
322.696419
322.389565
325.64926
329.143326
339.956375
340.201763
339.069848
328.133964
328.980408
340.356721
339.166466
322.517201
321.753325
325.596653
325.796703
325.316015
329.180026
340.15958
339.307995
326.745796
328.051997
340.316588
339.410609
325.115271
321.354813
329.000757
339.858506
339.861067
339.918437
339.375264
339.961892
339.350959
325.665832
324.69339
339.456949
339.581851
328.004712
325.861135
337.614346
339.835381
329.323879
326.903942
335.341065
339.946678
329.11241
328.549302
334.630674
339.698632
329.078794
325.998702
327.512152
328.608167
328.135719
329.007387
338.836378
339.467216
328.915066
323.570214
328.492323
335.520108
339.925237
338.997895
330.140059
328.012033
330.052977
339.459889
329.520184
323.536325
324.411932
328.326168
330.830398
339.785139
332.276154
328.064276
329.992664
339.914087
339.406743
339.452997
333.209052
321.845927
322.126681
324.723662
324.212593
324.471415
324.237332
324.200823
324.134479
324.744097
323.962639
328.746779
340.222747
340.375554
339.496993
340.020494
337.833792
324.364306
326.238926
340.243454
338.389799
325.360101
326.884094
340.069831
338.938113
326.917231
327.488566
340.001655
339.674641
339.625159
339.420281
328.367355
319.230523
326.546805
340.042711
339.831062
329.47811
321.037368
326.611484
339.879275
339.905991
329.329581
322.338824
327.186244
338.564747
340.400854
329.613475
327.723326
332.60087
340.389801
339.957932
329.280292
326.298393
331.422085
340.060436
328.988309
324.105226
325.037747
327.473794
332.808614
340.154772
329.158952
324.025167
326.882328
332.851431
340.268989
329.731926
326.957478
330.830072
340.162919
330.049885
327.85667
331.133763
339.91942
329.704614
325.896967
326.760716
327.935047
329.135294
332.425169
339.718405
329.595503
326.79023
330.371359
339.407741
328.98313
322.775658
323.842102
326.843075
330.624208
339.906547
339.435428
330.381808
323.404479
324.82484
330.043503
339.324178
331.543717
326.035169
329.346852
339.607957
332.57604
325.580025
329.282438
339.774504
334.149827
325.116077
329.41046
339.893362
335.930803
324.758256
329.613376
339.963441
337.432621
324.431242
328.114936
340.026383
338.256616
323.592647
327.175482
340.226659
339.86967
340.008839
339.428455
324.811467
322.650891
321.819424
324.443279
340.105802
340.024077
339.920751
339.911194
339.64843
326.477733
321.270046
322.895021
340.138824
339.920502
326.732934
322.036001
323.227019
340.107208
340.05982
328.511178
324.97253
324.55943
324.510027
340.276499
339.988573
329.271319
326.779468
325.998487
325.990226
340.07592
340.01477
328.883974
326.81593
340.23787
339.990885
329.119619
326.007601
326.712022
325.740926
325.202894
325.290766
322.859161
322.914261
339.667001
339.879083
339.601157
340.052556
329.576507
325.970741
339.800482
340.176896
327.662897
325.436558
339.795291
340.208309
326.875596
324.824927
339.84234
340.174119
326.634204
324.173139
339.998163
340.055384
329.024843
324.272611
320.943212
321.003675
339.859532
339.837162
339.768618
329.329875
323.225284
339.87178
339.901847
326.156488
324.306276
339.783324
339.898093
339.777706
339.917985
329.267437
322.344624
322.374436
339.98797
339.748483
329.055411
322.290412
322.398514
339.586124
340.163092
326.986907
325.712262
339.656519
340.220998
339.743592
340.312483
339.900056
329.018271
326.354753
326.867064
324.757644
324.984211
322.372675
322.442479
339.709661
340.102982
329.375355
326.447139
324.58122
324.58668
339.605055
340.136157
328.402822
326.648768
339.664069
340.13369
327.004179
326.136396
339.876767
340.113912
339.924331
340.195313
328.876518
324.778935
340.456266
340.031537
328.893882
323.659722
325.018801
321.422897
321.544146
340.170569
340.102569
329.198927
325.041724
323.568346
323.573163
340.132071
340.105685
326.4395
325.716492
340.234053
340.07445
325.375118
325.637129
340.525094
340.02875
340.352717
340.023122
329.045845
324.233915
325.884898
322.49586
323.089415
340.259966
340.082172
327.404138
325.752229
340.42204
339.90817
329.09542
324.284626
324.992768
340.045685
339.847845
326.842591
322.623871
340.187179
339.868563
326.189646
318.517605
322.078335
339.693259
340.026539
339.857912
340.057506
339.985054
329.154437
324.896316
324.511343
324.490942
339.807118
340.166304
326.623833
325.247267
339.698542
340.196579
326.631251
324.974753
339.660893
340.228973
326.314528
324.504563
339.650903
340.248721
326.01867
324.122171
339.686041
340.28646
325.906247
323.991694
339.790596
340.318486
326.130748
324.338613
340.079992
340.273452
327.893421
325.184555
323.756947
324.505844
340.157975
340.121495
340.03571
329.316998
324.908515
326.095624
325.584399
323.495826
325.521493
340.418539
340.265166
340.391519
328.803676
324.664554
340.465601
340.455643
326.429349
325.140421
324.305473
326.354401
340.535882
340.403806
340.580744
328.284244
324.629869
340.545924
340.411615
325.904262
322.691155
326.479351
340.354404
340.692545
325.049741
325.770034
340.468303
340.440837
324.901053
322.989633
327.690596
340.282491
340.594379
324.896869
324.499351
325.430592
327.457237
340.415306
340.507543
325.769316
326.485538
340.476686
340.300042
324.174935
324.59632
340.549575
340.417104
321.743979
322.200712
340.654139
340.488795
324.200332
324.98121
340.883702
340.641089
324.595769
325.355131
341.081335
340.735302
323.99095
320.5098
327.78928
340.730574
341.295903
341.095006
325.156943
324.404299
341.37913
341.065936
324.008394
324.655236
341.407417
340.960941
322.297245
320.251986
323.53631
320.351469
325.904525
341.702243
341.65432
341.93872
341.639996
342.073527
341.502509
326.940808
319.202267
326.572749
341.774115
341.864017
323.565233
319.888507
326.613329
342.200221
341.258964
319.104141
321.64537
342.282295
341.812849
321.121205
318.04312
326.633882
342.384241
341.487782
321.988226
321.220776
321.911758
326.256113
343.266271
342.681117
325.841761
320.508548
325.979087
343.256858
342.717555
322.290629
324.356411
343.669085
343.192839
320.778497
323.769033
343.988888
344.564687
343.924167
344.468483
343.618311
344.429216
342.69553
319.946464
312.132331
323.319654
343.669972
342.905482
317.964327
321.826496
344.240951
344.249049
344.052486
344.194737
344.057148
344.258467
344.182863
344.368692
344.351299
344.499216
344.518825
344.639329
344.676186
344.784565
344.831713
344.931844
344.9861
345.081705
345.142922
345.234813
345.304426
345.391742
345.471559
345.552587
345.644459
345.716433
345.822585
345.880238
346.004748
346.032668
346.190298
346.163672
346.377146
346.244206
346.560291
346.225296
346.776954
346.106044
303.569347
304.688867
304.067584
310.636298
309.312926
314.812647
308.857514
323.514473
322.921996
311.380247
310.636518
317.390773
321.726004
306.73245
306.036051
310.633649
310.80855
307.146583
308.966793
309.279363
311.613786
308.037631
312.050463
335.006422
334.550707
322.30349
332.663574
335.645096
350.764951
350.444858
350.222251
350.518085
351.112685
374.806633
377.466279
378.927281
383.063811
388.358875
377.370986
381.54035
387.036423
398.070665
408.574279
410.112555
413.246485
420.904638
421.481141
416.570585
406.205229
401.801903
401.649814
383.434112
394.988413
411.165974
385.837137
393.786724
383.549936
403.234416
396.926665
404.137898
407.960516
417.32591
423.468835
435.58316
445.988796
459.488395
472.739378
487.588831
503.266006
519.221301
537.685242
554.58522
571.386964
585.959263
599.648213
613.028662
626.464881
639.583046
652.71395
665.46616
678.247079
690.268005
702.474493
714.282484
726.182092
737.668837
749.305439
760.547675
771.812725
782.757383
793.67316
804.287746
814.898275
825.126675
835.299061
844.988291
854.859428
864.126453
873.730466
882.585174
891.950138
900.539997
909.753822
918.004145
926.968881
934.88678
943.593308
951.26406
960.506427
968.635019
977.567668
985.547913
994.16377
1001.98434
1010.27555
1017.90588
1025.85546
1033.2419
1040.8348
1047.89947
1055.10207
1062.85052
1069.84358
1078.2469
1085.00909
1093.26226
1099.79689
1107.88363
1114.19746
1122.11269
1128.29403
1138.48812
1145.74544
1155.59856
1162.51439
1171.98622
1178.55681
1186.55812
1192.84002
1197.03653
1201.97515
1205.96128
1210.8479
1214.7607
1219.35853
1222.69887
1227.83135
1232.06909
1235.28875
1237.49551
1244.41852
1247.63516
1248.91704
1264.06445
1257.73301
1256.58214
1276.74057
1289.44297
1265.38468
1269.42942
1300.26565
1314.60322
1281.82626
1286.4378
1316.14277
1316.75292
1297.87238
1305.97217
1317.6186
1316.57502
1325.06425
1321.17273
1326.97572
1330.12918
1335.87758
1339.25491
1339.00793
1340.48605
1344.5569
1348.0224
1349.03026
1351.59573
1353.98229
1357.08791
1359.44193
1362.43282
1364.76339
1367.70367
1369.93379
1372.81102
1374.93508
1377.78104
1379.86144
1382.60885
1384.64225
1387.30327
1389.31735
1391.84704
1393.77485
1396.16642
1398.12135
1400.38766
1402.30778
1404.5009
1406.44597
1408.5217
1410.46064
1412.45784
1414.43859
1416.32789
1418.33036
1420.06485
1422.0292
1423.70963
1425.8135
1427.26201
1429.24068
1430.83342
1433.12511
1434.23542
1435.98391
1437.71691
1440.07611
1440.75292
1442.29383
1444.19827
1446.90268
1446.8445
1448.07713
1450.51432
1453.39444
1452.53825
1453.50513
1456.5716
1459.57073
1457.925
1458.66799
1462.48519
1465.44082
1462.97537
1463.6022
1468.21372
1470.71104
1467.73487
1468.31558
1473.58517
1475.41761
1472.17795
1472.89934
1478.45932
1479.70981
1476.32664
1477.29182
1482.89853
1483.64342
1480.25399
1481.52215
1487.00345
1487.2942
1483.96869
1485.79295
1490.76854
1490.57753
1487.57696
1489.83546
1494.25546
1493.61351
1491.00944
1493.74533
1497.49245
1496.49512
1494.29483
1497.35878
1500.52457
1499.20518
1497.46392
1500.754
1503.29448
1501.81091
1500.53415
1503.86351
1505.88611
1504.3699
1503.48376
1506.7119
1508.34692
1506.87783
1506.36906
1509.33741
1510.66578
1509.38959
1509.13169
1511.73336
1512.85324
1511.83392
1511.74951
1513.95826
1514.93693
1514.25408
1514.25696
1516.03864
1516.94415
1516.57402
1516.63145
1518.00477
1518.88071
1518.79222
1518.86652
1519.87719
1520.76455
1520.93378
1520.99169
1521.67996
1522.59577
1522.92952
1523.01513
1523.44341
1524.38945
1524.86653
1524.92982
1525.22757
1526.08589
1526.70312
1526.77631
1526.9829
1527.73067
1528.42407
1528.59422
1528.70434
1529.32363
1530.0859
1530.33311
1530.42498
1530.89889
1531.72826
1532.0264
1532.08422
1532.44927
1533.29965
1533.65461
1533.68685
1533.97319
1534.80965
1535.21961
1535.26012
1535.48093
1536.26544
1536.72096
1536.80573
1536.98778
1537.67569
1538.18416
1538.30682
1538.46354
1539.05523
1539.61175
1539.75713
1539.90339
1540.4112
1540.99855
1541.18321
1541.30139
1541.75968
1542.3584
1542.56944
1542.6794
1543.08766
1543.6887
1543.9193
1544.02853
1544.39447
1544.98717
1545.23618
1545.34907
1545.68746
1546.25501
1546.5182
1546.64566
1546.96297
1547.50396
1547.78087
1547.91892
1548.22226
1548.73154
1549.01582
1549.17825
1549.46951
1549.93945
1550.22716
1550.41282
1550.69385
1551.13173
1551.41948
1551.62227
1551.89768
1552.30747
1552.59413
1552.80951
1553.08286
1553.46645
1553.75127
1553.97754
1554.25148
1554.61086
1554.8897
1555.12638
1555.39432
1555.72718
1555.9998
1556.24271
1556.50778
1556.82474
1557.09255
1557.34573
1557.61393
1557.92228
1558.19049
1558.45284
1558.71528
1559.01439
1559.27553
1559.5434
1559.80013
1560.09109
1560.34606
1560.65977
1560.92223
1561.29063
1561.55924
1561.94226
1562.21784
1562.61687
1562.89461
1563.3107
1563.56929
1563.99954
1564.26471
1564.70895
1564.9809
1565.43849
1565.71734
1566.188
1566.47395
1566.95702
1567.25035
1567.74558
1568.04633
1568.55296
1568.8617
1569.37998
1569.69621
1570.22474
1570.55007
1571.09096
1571.42296
1571.97166
1572.31694
1572.88095
1573.22479
1573.78851
1574.11867
1574.72001
1575.02478
1575.61852
1575.96205
1576.6712
1576.88234
1577.52618
1577.87483
1578.26967
1578.73297
1579.04968
1579.55186
1578.50212
1580.21706
1580.08815
1579.9387
1578.61954
1581.19084
1580.86645
1580.07537
1578.63568
1581.86205
1581.45391
1580.02661
1578.46002
1582.27456
1581.43748
1579.78826
1577.97629
1582.38561
1580.7574
1579.33211
1576.70731
1582.25081
1579.55238
1578.65988
1574.31719
1581.57743
1578.82994
1577.67282
1571.67779
1580.69367
1578.83564
1576.23496
1569.18726
1579.91886
1578.74268
1574.39928
1567.3064
1579.51937
1578.79522
1572.88484
1565.88258
1579.35312
1578.84843
1571.43147
1564.78181
1579.45355
1578.85458
1570.13454
1564.14438
1579.4916
1578.987
1569.03505
1563.84622
1579.72096
1579.13409
1568.28532
1564.28285
1579.92336
1579.37752
1567.89574
1564.8113
1580.19654
1579.64308
1567.82397
1565.50722
1580.64022
1579.97775
1567.97143
1566.3318
1581.13792
1580.71387
1568.13114
1567.04023
1581.68179
1581.25724
1568.25832
1567.76259
1582.30901
1581.79027
1568.69708
1568.68593
1583.00334
1582.43209
1569.80193
1570.06584
1583.73738
1583.27397
1572.89376
1572.30694
1584.55919
1584.50815
1577.51709
1575.96851
1585.36242
1586.33126
1581.46746
1580.149
1584.87031
1587.03637
1583.83136
1584.40409
1584.33361
1585.6208
1584.79855
1585.98769
1585.01696
1585.77383
1585.21512
1585.89181
1585.34356
1585.80621
1585.45654
1585.85912
1585.56091
1585.84561
1585.66347
1585.907
1585.76598
1585.95698
1585.86792
1586.03467
1585.97004
1586.1111
1586.07175
1586.198
1586.17358
1586.28643
1586.27546
1586.37964
1586.37783
1586.4751
1586.48095
1586.5737
1586.58528
1586.67476
1586.68496
1586.77407
1586.74852
1586.83567
1586.81335
1586.90058
1586.87969
1586.96897
1586.94868
1587.03991
1587.02051
1587.11397
1587.09537
1587.19116
1587.17353
1587.27169
1587.25521
1587.35575
1587.34057
1587.44349
1587.4298
1587.53507
1587.52304
1587.63065
1587.62043
1587.73036
1587.72209
1587.83025
1587.7871
1587.88133
1587.84163
1587.93405
1587.89779
1587.98852
1587.95567
1588.04476
1588.0154
1588.10289
1588.06843
1588.15136
1588.09508
1588.1759
1588.12294
1588.20387
1588.15393
1588.2344
1588.18764
1588.26769
1588.22415
1588.30379
1588.26346
1588.34273
1588.30561
1588.38454
1588.35062
1588.42927
1588.39852
1588.47694
1588.44935
1588.52759
1588.50314
1588.58126
1588.55993
1588.63798
1588.61974
1588.69777
1588.68261
1588.76068
1588.74857
1588.82673
1588.81765
1588.89594
1588.88988
1588.96835
1588.96529
1589.04398
1589.04389
1589.12284
1589.12572
1589.20495
1589.21077
1589.29033
1589.29908
1589.37897
1589.39062
1589.47086
1589.47656
1589.55879
1589.54738
1589.62922
1589.62151
1589.70298
1589.69892
1589.78003
1589.77955
1589.8603
1589.86335
1589.94375
1589.95025
1590.0303
1590.0402
1590.11989
1590.13312
1590.21243
1590.22893
1590.30784
1590.32756
1590.40604
1590.42891
1590.50693
1590.5329
1590.6104
1590.63941
1590.71635
1590.74835
1590.82465
1590.85958
1590.93517
1590.97298
1591.04775
1591.0884
1591.16224
1591.20567
1591.27842
1591.32462
1591.3961
1591.44504
1591.51501
1591.56669
1591.6349
1591.68933
1591.75538
1591.81264
1591.87627
1591.93639
1591.99683
1592.06014
1592.11753
1592.18398
1592.23625
1592.30748
1592.35651
1592.4305
1592.47089
1592.55118
1592.59792
1592.6751
1592.70423
1592.79535
1592.88036
1592.93106
1592.93506
1593.05112
1593.40111
1593.22354
1592.71407
1593.31103
1594.5503
1593.59027
1591.66389
1593.33951
1596.40493
1594.0571
1587.82268
1593.32627
1596.94207
1594.57581
1582.43299
1593.23902
1596.28208
1595.07947
1579.2212
1593.30078
1596.4356
1595.52595
1576.58819
1593.59536
1596.61554
1595.99799
1574.72016
1594.07531
1596.77648
1596.43596
1573.55335
1594.63706
1596.98214
1596.81913
1572.96687
1595.19554
1596.83559
1597.15881
1573.44216
1595.73412
1597.02252
1597.47896
1573.98474
1596.22933
1597.39796
1597.77694
1574.59822
1596.74616
1598.08125
1598.11736
1575.1792
1597.20269
1598.56063
1598.49341
1575.80847
1597.63285
1599.17428
1598.90491
1576.45825
1598.05099
1599.82828
1599.34632
1577.12439
1598.48535
1600.50368
1599.79645
1577.80249
1598.92527
1601.17186
1600.26161
1578.49275
1599.36664
1601.73698
1600.74302
1579.1916
1599.81513
1602.30348
1601.22309
1579.89496
1600.26725
1602.87078
1601.71092
1580.59892
1600.71634
1603.43377
1602.20121
1581.30034
1601.1567
1603.99301
1602.68945
1581.99785
1601.57824
1604.54761
1603.15586
1582.69097
1601.97673
1605.09899
1603.61522
1583.45277
1602.36062
1605.64455
1604.06544
1584.38721
1602.72094
1606.18403
1604.50918
1585.31815
1603.06273
1606.71738
1604.95158
1586.25438
1603.40269
1607.25418
1605.39875
1587.19444
1603.75183
1607.79764
1605.85679
1588.14065
1604.12041
1608.3522
1606.33186
1589.09451
1604.51601
1608.92047
1606.8276
1590.05663
1604.94602
1609.49944
1607.34692
1591.01924
1605.41274
1610.09314
1607.89303
1591.90895
1605.91484
1610.71049
1608.46778
1592.69106
1606.44686
1611.35071
1609.07042
1593.48197
1607.00356
1612.0124
1609.69938
1594.2833
1607.58006
1612.69458
1610.35355
1595.09616
1608.1824
1613.39679
1611.03236
1595.92043
1608.80623
1614.11879
1611.7348
1596.75631
1609.44797
1614.86109
1612.46169
1597.60284
1610.10585
1615.62302
1613.21377
1598.4601
1610.77841
1616.40149
1613.99668
1599.32958
1611.45536
1617.20067
1614.80569
1600.20821
1612.12759
1618.02086
1615.65939
1601.0902
1612.77537
1618.86347
1616.58043
1601.97531
1613.36853
1619.72895
1617.57433
1602.85645
1613.86485
1620.61046
1618.67326
1603.73314
1614.21315
1621.50851
1619.93658
1604.59534
1614.37634
1622.43399
1621.32089
1605.39072
1614.3116
1623.3946
1622.68928
1606.24447
1614.14997
1624.36839
1624.07352
1607.10952
1613.89941
1625.34033
1625.2914
1608.02668
1613.61705
1626.3207
1626.33774
1609.00845
1614.16126
1627.31608
1627.37742
1610.01477
1614.74903
1628.32357
1628.43946
1611.04334
1615.42669
1629.33924
1629.47432
1612.08972
1616.12967
1630.35879
1630.4952
1613.15352
1616.79664
1631.39225
1631.52999
1614.23917
1617.44641
1632.43941
1632.59307
1615.34794
1618.08583
1633.50328
1633.62047
1616.48568
1618.69764
1634.58723
1634.67839
1617.65218
1619.36013
1635.69007
1635.75659
1618.84243
1620.15774
1636.80519
1636.86622
1620.0492
1621.04061
1637.92387
1637.95635
1621.25927
1621.96678
1639.03797
1639.04631
1622.46215
1622.9327
1640.13942
1640.13053
1623.6489
1623.92736
1641.22074
1641.2151
1624.81242
1624.94551
1642.27836
1642.28096
1625.88876
1625.9747
1643.32219
1643.3187
1626.8775
1627.01635
1644.32394
1644.33273
1627.84715
1628.04584
1645.31944
1645.33519
1628.78521
1629.06573
1646.29346
1646.31428
1629.70142
1630.07243
1647.24437
1647.26866
1630.59724
1631.062
1648.17178
1648.19939
1631.47276
1632.03022
1649.07437
1649.10702
1632.3296
1632.89154
1649.95411
1649.99408
1633.16834
1633.73359
1650.81069
1650.85947
1633.9873
1634.55568
1651.64874
1651.70292
1634.78869
1635.36108
1652.46786
1652.52568
1635.57179
1636.14974
1653.26916
1653.32847
1636.34027
1636.92225
1654.05343
1654.11472
1637.0903
1637.67755
1654.8216
1654.88355
1637.82516
1638.41838
1655.57751
1655.63687
1638.54552
1639.14279
1656.31994
1656.37547
1639.25124
1639.85299
1657.0437
1657.09626
1639.94749
1640.54976
1657.75146
1657.80746
1640.62546
1641.22298
1658.45152
1658.50269
1641.2857
1641.88501
1659.12554
1659.17752
1641.93682
1642.52988
1659.78908
1659.83883
1642.57185
1643.16041
1660.43515
1660.48222
1643.1906
1643.77339
1661.06489
1661.10855
1643.79153
1644.36836
1661.6768
1661.71738
1644.37422
1644.94745
1662.269
1662.3055
1644.94322
1645.50894
1662.84219
1662.87632
1645.48894
1646.05021
1663.3972
1663.42671
1646.01605
1646.57333
1663.93266
1663.95721
1646.52384
1647.07755
1664.44806
1664.46803
1647.01209
1647.5621
1664.94427
1664.95915
1647.48045
1648.0287
1665.41986
1665.43243
1647.92839
1648.47462
1665.88127
1665.88513
1648.35647
1648.90479
1666.31713
1666.3145
1648.76534
1649.31587
1666.73405
1666.72315
1649.15502
1649.71019
1667.12982
1667.11125
1649.52601
1650.0848
1667.50662
1667.48176
1649.8777
1650.44538
1667.84645
1667.82726
1650.22413
1650.78684
1668.13218
1668.16959
1650.52719
1651.09621
1668.31308
1668.44109
1650.81188
1651.40346
1668.56215
1668.73976
1651.0879
1651.69913
1668.79635
1669.02951
1651.34551
1651.97937
1669.01111
1669.29141
1651.58509
1652.24412
1669.20688
1669.5202
1651.80695
1652.49355
1669.38405
1669.7307
1652.01143
1652.72788
1669.54301
1669.92331
1652.19884
1652.94735
1669.68415
1670.0985
1652.36949
1653.15213
1669.80786
1670.25652
1652.52369
1653.34238
1669.91447
1670.39688
1652.66177
1653.51936
1670.00411
1670.51825
1652.78398
1653.68506
1670.07704
1670.62367
1652.89062
1653.83689
1670.13358
1670.71336
1652.98201
1653.97504
1670.17411
1670.78765
1653.05842
1654.09965
1670.19897
1670.84687
1653.12013
1654.21087
1670.20852
1670.89136
1653.16738
1654.30882
1670.20312
1670.92147
1653.20039
1654.39359
1670.18317
1670.93757
1653.21939
1654.46524
1670.14912
1670.93993
1653.22461
1654.52382
1670.10146
1670.9289
1653.21628
1654.56937
1670.04069
1670.90481
1653.1946
1654.60055
1669.96705
1670.8677
1653.15972
1654.61766
1669.88064
1670.8175
1653.11177
1654.62216
1669.78176
1670.75424
1653.05093
1654.61427
1669.67089
1670.67799
1652.97738
1654.59409
1669.54858
1670.58883
1652.89128
1654.56173
1669.41544
1670.48685
1652.79281
1654.51725
1669.27219
1670.3723
1652.68215
1654.46067
1669.11938
1670.24509
1652.55951
1654.39209
1668.95748
1670.10518
1652.42502
1654.31166
1668.78697
1669.95252
1652.27882
1654.21943
1668.60829
1669.78709
1652.12104
1654.11542
1668.42184
1669.60883
1651.95177
1653.99964
1668.22791
1669.41764
1651.7711
1653.8721
1668.02679
1669.21345
1651.57914
1653.73277
1667.81869
1668.99628
1651.37596
1653.58161
1667.60392
1668.76629
1651.16166
1653.41842
1667.38255
1668.52003
1650.9361
1653.24698
1667.15407
1668.26146
1650.69913
1653.06407
1666.91796
1667.98883
1650.45052
1652.86972
1666.6736
1667.70178
1650.19016
1652.66426
1666.42049
1667.39978
1649.91789
1652.44795
1666.15812
1667.08226
1649.6336
1652.22105
1665.88598
1666.74865
1649.33709
1651.98386
1665.60347
1666.39831
1649.02816
1651.73669
1665.31006
1666.03054
1648.7067
1651.47998
1665.00533
1665.64457
1648.37269
1651.21444
1664.68889
1665.23964
1648.02607
1650.94133
1664.36027
1664.81514
1647.66546
1650.66278
1664.01888
1664.37071
1647.29065
1650.38215
1663.66568
1663.90669
1646.90359
1650.10498
1663.30189
1663.42642
1646.50501
1649.8335
1662.92902
1662.93416
1646.09516
1649.53812
1662.54929
1662.36925
1645.67283
1649.19231
1662.16292
1661.75659
1645.23861
1648.83048
1661.77094
1661.08456
1644.79631
1648.46081
1661.37916
1660.41634
1644.35898
1648.22025
1660.99996
1659.95173
1643.94937
1648.31518
1660.63604
1659.69478
1643.56524
1648.57388
1660.27141
1659.25174
1643.16718
1648.90442
1659.85848
1658.36178
1642.74138
1649.22303
1659.6898
1657.0355
1642.24627
1649.61878
1659.2118
1655.85142
1641.79079
1650.19534
1658.79049
1654.84514
1641.34837
1650.8593
1658.36773
1654.09428
1640.92703
1651.40811
1657.96805
1653.55976
1640.52376
1651.68794
1657.5889
1653.20848
1640.13521
1651.84302
1657.22436
1652.91614
1639.75798
1651.92017
1656.87347
1652.61645
1639.3944
1651.97063
1656.53598
1652.3319
1639.04093
1652.03902
1656.15326
1652.13776
1638.69221
1652.10341
1655.79993
1651.96857
1638.35959
1652.11763
1655.35605
1651.80641
1638.05708
1652.07985
1654.90643
1651.64696
1637.7685
1652.01103
1654.46611
1651.47621
1637.47161
1651.90149
1654.02357
1651.30488
1637.16043
1651.75587
1653.59435
1651.12544
1636.83737
1651.54989
1653.17217
1651.07366
1636.50751
1650.59506
1652.75778
1650.6701
1636.1694
1649.6929
1652.3508
1649.66412
1635.81988
1648.74436
1651.94685
1648.81774
1635.45263
1647.95737
1651.54981
1648.10192
1635.07191
1647.28578
1651.16114
1647.48633
1634.68171
1646.70868
1650.7814
1646.95577
1634.28569
1646.21598
1650.41068
1646.50227
1633.88663
1645.79863
1650.0486
1646.11708
1633.48683
1645.44775
1649.69446
1645.79158
1633.08802
1645.15464
1649.34743
1645.51745
1632.69153
1644.91106
1649.00669
1645.28696
1632.29842
1644.70954
1648.67154
1645.09338
1631.90956
1644.54373
1648.34156
1644.93115
1631.52573
1644.40845
1648.01653
1644.79584
1631.14781
1644.2995
1647.69634
1644.68403
1630.77525
1644.21347
1647.38021
1644.59301
1630.40794
1644.14711
1647.06884
1644.51992
1630.04807
1644.09752
1646.75996
1644.4623
1629.69808
1644.06198
1646.45383
1644.41797
1629.35814
1644.03829
1646.15308
1644.38512
1629.02566
1644.02467
1645.85786
1644.36277
1628.70066
1644.02055
1645.56805
1644.35155
1628.38331
1644.01398
1645.28298
1644.349
1628.074
1643.99624
1645.00295
1644.27992
1627.77409
1643.9848
1644.72911
1643.90988
1627.48466
1643.9819
1644.45978
1643.55736
1627.20686
1643.73582
1644.19508
1643.2451
1626.94114
1643.40369
1643.93802
1642.93461
1626.68521
1643.07661
1643.68403
1642.63009
1626.4405
1642.74804
1643.43158
1642.33558
1626.20335
1642.42552
1643.18652
1642.04128
1625.96885
1642.11314
1642.94727
1641.75008
1625.73929
1641.8061
1642.7127
1641.46426
1625.51457
1641.5041
1642.48237
1641.18392
1625.29485
1641.20661
1642.25586
1640.90896
1625.08018
1640.9138
1642.03214
1640.63979
1624.87118
1640.62571
1641.81212
1640.37461
1624.66646
1640.34346
1641.59638
1640.11268
1624.46533
1640.06663
1641.38451
1639.85527
1624.26799
1639.79435
1641.1761
1639.60269
1624.07456
1639.52621
1640.97098
1639.35475
1623.88498
1639.26194
1640.76895
1639.11132
1623.69929
1639.00117
1640.56978
1638.87253
1623.51774
1638.74301
1640.37336
1638.63917
1623.33407
1638.48562
1640.17913
1638.41346
1623.15016
1638.22573
1639.98595
1638.1966
1622.97219
1637.96382
1639.79367
1637.98423
1622.79976
1637.70744
1639.60044
1637.77168
1622.63368
1637.45657
1639.40915
1637.55874
1622.47118
1637.21178
1639.22307
1637.34658
1622.31102
1636.97255
1639.04215
1637.1361
1622.15335
1636.73588
1638.86541
1636.93182
1621.99716
1636.49826
1638.69196
1636.74371
1621.84132
1636.25354
1638.52185
1636.57284
1621.68604
1636.01012
1638.35502
1636.4149
1621.53151
1635.76537
1638.19138
1636.2616