/*--------------------------------*- C++ -*----------------------------------*\
| =========                 |                                                 |
| \\      /  F ield         | OpenFOAM: The Open Source CFD Toolbox           |
|  \\    /   O peration     | Version:  2306                                  |
|   \\  /    A nd           | Website:  www.openfoam.com                      |
|    \\/     M anipulation  |                                                 |
\*---------------------------------------------------------------------------*/
FoamFile
{
    version     2.0;
    format      ascii;
    arch        "LSB;label=32;scalar=64";
    class       surfaceScalarField;
    location    "0.00052";
    object      phi;
}
// * * * * * * * * * * * * * * * * * * * * * * * * * * * * * * * * * * * * * //

dimensions      [1 0 -1 0 0 0 0];

oriented        oriented;

internalField   nonuniform List<scalar> 
529
(
1.32644839e-05
1.37498122e-05
1.38806497e-05
1.30188608e-05
1.30223644e-05
1.31133427e-05
1.37535106e-05
1.38651413e-05
1.40388996e-05
1.41313225e-05
1.32793908e-05
1.32789695e-05
1.38997886e-05
1.43690409e-05
1.445589e-05
1.36902896e-05
1.3715043e-05
1.43259686e-05
1.44899897e-05
1.46845026e-05
1.47580859e-05
1.37436073e-05
1.36970966e-05
1.43853467e-05
1.48129599e-05
1.47922769e-05
1.38116403e-05
1.36909147e-05
1.35896186e-05
1.37622112e-05
1.39390918e-05
1.38249542e-05
1.36403085e-05
1.25101526e-05
1.22391417e-05
1.24223229e-05
1.24166387e-05
1.20917607e-05
1.11049644e-05
1.07948374e-05
1.05490639e-05
1.02463604e-05
9.42952051e-06
9.11582364e-06
8.83246026e-06
8.55786996e-06
7.85636559e-06
7.57562676e-06
7.34126273e-06
7.14304864e-06
6.58155201e-06
6.34296049e-06
6.3383278e-06
6.18777799e-06
5.9652633e-06
5.65912362e-06
5.50787898e-06
5.60688663e-06
5.49241385e-06
5.18019429e-06
5.05477439e-06
5.00006936e-06
4.91934457e-06
4.5560034e-06
4.45371038e-06
4.3842949e-06
4.4680317e-06
4.30821651e-06
4.22321226e-06
4.21094911e-06
4.31737329e-06
4.25835812e-06
4.22912599e-06
4.23528191e-06
4.31770208e-06
4.39940439e-06
4.23389002e-06
4.27746658e-06
4.36176254e-06
4.6214843e-06
4.67887408e-06
4.69650751e-06
4.79412096e-06
4.95457642e-06
5.13497087e-06
5.00785706e-06
5.08711983e-06
5.23240548e-06
5.62809762e-06
5.76565935e-06
5.7854235e-06
5.95055045e-06
6.19080336e-06
6.45606564e-06
6.33741891e-06
6.44584701e-06
6.62958675e-06
6.91850671e-06
7.24826867e-06
7.13488282e-06
7.28489507e-06
7.52093305e-06
7.7239424e-06
7.96754054e-06
7.99835992e-06
8.23187372e-06
8.57073381e-06
8.90752758e-06
8.71943217e-06
8.80868431e-06
9.00827919e-06
9.37826183e-06
9.73567811e-06
9.50182459e-06
9.56853623e-06
9.73935555e-06
1.00852854e-05
1.04129163e-05
1.06167737e-05
1.06468157e-05
1.077608e-05
1.10949547e-05
1.13474424e-05
1.08530003e-05
1.07597068e-05
1.07538667e-05
1.09564928e-05
1.11145883e-05
1.04955236e-05
1.03710335e-05
1.03643068e-05
1.03876888e-05
1.03587479e-05
9.80174937e-06
9.74926376e-06
9.90850426e-06
1.00065557e-05
9.56446837e-06
9.45919769e-06
9.36802333e-06
9.4641385e-06
9.4771142e-06
8.89686949e-06
8.73866202e-06
8.62356206e-06
8.55971375e-06
8.41453324e-06
7.92750672e-06
7.78256777e-06
7.79700931e-06
7.73190122e-06
7.2428524e-06
7.14205479e-06
6.99121396e-06
6.91912494e-06
6.83262366e-06
6.39573711e-06
6.25938775e-06
6.39517538e-06
6.32399743e-06
6.16333458e-06
5.75541875e-06
5.605084e-06
5.57256707e-06
5.46417481e-06
5.34686946e-06
5.24323372e-06
5.35429018e-06
5.23133496e-06
5.12839131e-06
4.94352963e-06
4.91515726e-06
4.85845135e-06
4.78500354e-06
4.64008701e-06
4.65569126e-06
4.68761405e-06
4.57987607e-06
4.52927189e-06
4.49199341e-06
4.91233215e-06
4.88180386e-06
4.68493238e-06
4.47329295e-06
4.42486138e-06
4.39421094e-06
4.28472346e-06
4.14567762e-06
4.08811288e-06
4.06841332e-06
4.03187322e-06
3.84410887e-06
3.81121588e-06
3.94963119e-06
3.89180281e-06
3.57655594e-06
3.56368506e-06
3.60573458e-06
3.62989449e-06
3.44546854e-06
3.39084493e-06
3.31128522e-06
3.28841399e-06
3.22319552e-06
3.12343541e-06
3.09154219e-06
3.32420395e-06
3.2541034e-06
3.2387671e-06
3.22827607e-06
3.39742071e-06
3.34353332e-06
3.26735017e-06
3.2702107e-06
3.29562574e-06
3.28820022e-06
3.23968719e-06
3.17857412e-06
3.16619397e-06
3.27418777e-06
3.22754162e-06
3.12809832e-06
3.12645345e-06
3.16776235e-06
3.34696244e-06
3.29921331e-06
3.20418469e-06
3.18361842e-06
3.259743e-06
3.23571863e-06
3.1207495e-06
3.11506776e-06
3.17970149e-06
3.36575875e-06
3.30534752e-06
3.13891249e-06
3.11958837e-06
3.41652195e-06
3.46065068e-06
3.37489511e-06
3.21033741e-06
3.17367524e-06
3.1879371e-06
3.16318132e-06
3.05698779e-06
3.05189124e-06
3.06297505e-06
3.06083025e-06
3.03863994e-06
2.94039891e-06
2.94149305e-06
3.19834799e-06
3.27495181e-06
3.20254526e-06
3.03915599e-06
3.04674118e-06
3.3001581e-06
3.376814e-06
3.35821533e-06
3.20561576e-06
3.24197248e-06
3.46878111e-06
3.57404061e-06
3.59292689e-06
3.46657314e-06
3.53020874e-06
3.7771378e-06
3.90485873e-06
3.93137289e-06
3.81193684e-06
3.86546218e-06
4.01950965e-06
4.1079644e-06
3.94683794e-06
3.95503066e-06
4.00007309e-06
4.05215206e-06
4.03944374e-06
4.01960591e-06
4.06409204e-06
4.13573169e-06
4.13922e-06
4.12085396e-06
4.11445906e-06
4.10832305e-06
4.08632083e-06
4.04705657e-06
4.00119176e-06
3.95166434e-06
3.89400633e-06
3.82730219e-06
3.75397101e-06
3.67533979e-06
3.59141994e-06
3.50248739e-06
3.40931004e-06
3.31252791e-06
3.21262884e-06
3.11001955e-06
3.00508332e-06
2.89815835e-06
2.7895113e-06
2.67934608e-06
2.56781602e-06
2.45502862e-06
2.34105099e-06
2.22591717e-06
2.1096363e-06
1.99220124e-06
1.87359712e-06
1.75380915e-06
1.63282746e-06
1.51065009e-06
1.38728666e-06
1.26276029e-06
1.13710895e-06
1.01038475e-06
8.82654816e-07
7.54000957e-07
6.24516428e-07
4.94301012e-07
3.63458584e-07
2.32115541e-07
1.00352329e-07
-3.1703621e-08
-1.6403994e-07
-2.96591654e-07
-4.29307068e-07
-5.62142655e-07
-6.95051372e-07
-8.27968923e-07
-9.60798884e-07
-1.09339775e-06
-1.22556138e-06
-1.35701445e-06
-1.48740415e-06
-1.61629887e-06
-1.74319226e-06
-1.86751213e-06
-1.98863385e-06
-2.10589679e-06
-2.21862183e-06
-2.32612873e-06
-2.42775192e-06
-2.52285287e-06
-2.61082861e-06
-2.69111542e-06
-2.76318915e-06
-2.82656342e-06
-2.88078871e-06
-2.9254554e-06
-2.96020445e-06
-2.98474785e-06
-2.99889916e-06
-3.0026106e-06
-2.99601015e-06
-2.97942877e-06
-2.95340614e-06
-2.91866404e-06
-2.87603834e-06
-2.82638547e-06
-2.7704868e-06
-2.7089483e-06
-2.64208873e-06
-2.56991791e-06
-2.49229721e-06
-2.4091144e-06
-2.32007711e-06
-2.22447065e-06
-2.12183416e-06
-2.01315744e-06
-1.90055423e-06
-1.78117182e-06
-1.64990654e-06
-1.51423842e-06
-1.38595635e-06
-1.25361343e-06
-1.09438213e-06
-9.25434282e-07
-7.9123023e-07
-6.45486579e-07
-4.80376013e-07
-2.0884097e-07
-6.38217854e-08
-1.68104709e-08
1.20381498e-07
3.00418049e-07
5.56433294e-07
6.14803272e-07
5.95277561e-07
8.0379708e-07
9.79377599e-07
1.02678005e-06
1.10239743e-06
1.36451302e-06
1.48579746e-06
1.60532988e-06
1.70037444e-06
1.77992854e-06
1.9145399e-06
2.060331e-06
2.13810738e-06
2.16363844e-06
2.28139801e-06
2.60516396e-06
2.67368738e-06
2.71623573e-06
2.80907359e-06
2.89600748e-06
3.00929658e-06
3.06741586e-06
3.14353322e-06
3.23934195e-06
3.36027359e-06
3.43259451e-06
3.54344096e-06
3.64355949e-06
3.78958945e-06
3.89867346e-06
3.92911019e-06
3.92783759e-06
4.11284305e-06
4.32757581e-06
4.28447052e-06
4.26585967e-06
4.29487397e-06
4.43732092e-06
4.55253388e-06
4.31385208e-06
4.43292862e-06
4.87212517e-06
4.99134746e-06
4.72709579e-06
4.79660796e-06
4.81532118e-06
4.96906462e-06
5.12438576e-06
4.99126638e-06
5.08332148e-06
5.63049285e-06
5.6778801e-06
5.33891677e-06
5.34368571e-06
5.31713434e-06
5.42163779e-06
5.4802103e-06
5.2231129e-06
5.26291005e-06
5.26978111e-06
5.39067668e-06
5.47878575e-06
5.23973104e-06
5.30254235e-06
5.32823811e-06
5.44412879e-06
5.50921049e-06
5.21608149e-06
5.22595198e-06
5.20414919e-06
5.26647504e-06
5.29719768e-06
5.02472852e-06
5.0563077e-06
5.06186814e-06
5.17676376e-06
5.27017311e-06
4.97141107e-06
5.03768802e-06
5.56869367e-06
5.67917378e-06
5.38116194e-06
5.46117217e-06
5.5215037e-06
5.67143774e-06
5.79852702e-06
5.81898687e-06
5.87608115e-06
6.30523309e-06
6.44185659e-06
6.51294107e-06
6.5328284e-06
7.03365327e-06
7.17201589e-06
6.78760011e-06
6.786436e-06
6.78564552e-06
6.79707209e-06
6.83359096e-06
6.46174594e-06
6.4103441e-06
6.54393464e-06
6.54589632e-06
6.19104195e-06
6.08776004e-06
6.00726281e-06
6.05294075e-06
6.14769558e-06
6.09902677e-06
5.64267032e-06
5.5751261e-06
5.64986506e-06
5.90570887e-06
5.80338635e-06
5.40464787e-06
5.33209442e-06
5.47446157e-06
5.47644081e-06
5.37052664e-06
5.27245075e-06
4.99386926e-06
5.02056861e-06
5.16350844e-06
5.04470903e-06
4.913281e-06
4.85616417e-06
4.90215631e-06
4.9094136e-06
4.87455823e-06
4.80704966e-06
4.74757037e-06
4.77927136e-06
4.77816954e-06
4.466655e-06
4.39290786e-06
4.31707631e-06
4.32468487e-06
4.31819019e-06
3.96125473e-06
3.89258068e-06
)
;

boundaryField
{
    closed
    {
        type            calculated;
        value           nonuniform List<scalar> 0();
    }
    open
    {
        type            calculated;
        value           nonuniform List<scalar> 0();
    }
    sides
    {
        type            empty;
        value           nonuniform List<scalar> 0();
    }
    procBoundary2to1
    {
        type            processor;
        value           uniform -1.2588241e-05;
    }
    procBoundary2to3
    {
        type            processor;
        value           uniform 3.9518496e-06;
    }
}


// ************************************************************************* //
