/*--------------------------------*- C++ -*----------------------------------*\
| =========                 |                                                 |
| \\      /  F ield         | OpenFOAM: The Open Source CFD Toolbox           |
|  \\    /   O peration     | Version:  2306                                  |
|   \\  /    A nd           | Website:  www.openfoam.com                      |
|    \\/     M anipulation  |                                                 |
\*---------------------------------------------------------------------------*/
FoamFile
{
    version     2.0;
    format      ascii;
    arch        "LSB;label=32;scalar=64";
    class       volScalarField;
    location    "0.00144";
    object      h;
}
// * * * * * * * * * * * * * * * * * * * * * * * * * * * * * * * * * * * * * //

dimensions      [0 2 -2 0 0 0 0];

internalField   nonuniform List<scalar> 
530
(
10931.9459
4465.80068
2342.93399
2280.07888
2274.17565
2273.91525
2273.89552
2273.89466
2273.89461
2273.89461
2273.89461
2273.89461
2273.89461
2273.89461
2273.89461
2273.89461
2273.89461
2273.89461
2273.89461
2273.89461
2273.89461
2273.89461
2273.89461
2273.89461
2273.89461
2273.89461
2273.89461
2273.89461
2273.89461
2273.89461
2273.89461
2273.89461
2273.89461
2273.89461
2273.89461
2273.89461
2273.89461
2273.89461
2273.89461
2273.89461
2273.89461
2273.89461
2273.89461
2273.89461
2273.89461
2273.89461
2273.89461
2273.89461
2273.89461
2273.89461
2273.89461
2273.89461
2273.89461
2273.89461
2273.89461
2273.89461
2273.89461
2273.89461
2273.89461
2273.89462
2273.89463
2273.89474
2273.89491
2273.89565
2273.89741
2273.90177
2273.91469
2273.93331
2273.96655
2274.07362
2274.19917
2274.56311
2275.31462
2275.96743
2277.06281
2281.17194
2285.04419
2286.4815
2294.05396
2305.12493
2316.05732
2326.67324
2318.75008
2248.77306
2248.01018
2483.23733
2937.08279
2788.71127
1406.08494
-2263.64178
-2642.40531
-578.905228
8298.95818
9854.5896
9328.5267
5007.86147
-3854.22868
-3948.78597
-3824.70371
-3935.10338
-3094.33608
3815.08498
9683.36687
9735.89408
9383.1647
9586.22536
6812.81056
-2782.07698
-4914.45431
-4239.1914
-4089.73377
-4091.72513
-861.194724
9315.12667
9949.83083
9519.57799
9452.55386
9633.56532
7183.50677
-2505.42611
-4731.2803
-4096.87576
-3940.99662
-4066.00921
-1333.96426
8740.50931
10182.7531
7846.20956
-2106.91207
-4532.77312
-4325.65357
-1594.47606
8552.5785
9986.57581
9725.02851
6416.94285
-3850.07696
-5031.70204
-2274.05691
8294.16271
8927.64972
-74.6293782
-4407.44312
-1012.28486
8585.41762
8684.21016
-300.574091
-1585.00662
7212.78895
9441.2404
2655.83836
-3245.90532
-1355.0251
8420.97672
9195.24093
417.010525
-5008.00671
-3983.08202
7122.57992
10090.6131
9939.05705
934.072644
-3411.91543
-1550.08251
8479.84193
9646.7757
2699.41858
-3430.07355
-1840.39997
8427.34213
9438.99311
1281.1613
-4104.96056
-3880.7116
-3537.92965
-3858.69849
-2407.02063
8404.43417
9587.64811
1982.15893
-3370.33685
-876.946946
8966.73849
9570.93434
1058.91686
-3399.42474
-223.042087
9249.09349
9384.98244
-9.30964403
-4418.04334
-4549.18444
-1065.90376
9271.86291
9421.53481
406.898652
-1291.60958
7291.91777
8997.57634
-678.787403
-3554.58049
3566.3225
8930.29046
3273.91472
-4257.41292
-2325.65919
8778.06385
8192.89944
-2726.57794
-2780.93119
8203.33967
8671.16355
-1571.30547
-4650.23369
1502.78606
8713.38972
4372.40394
-4314.41902
-2536.19358
8683.82588
8431.92129
-2605.15976
-4139.88438
4208.69487
8617.36423
1295.87183
-5105.551
-2020.36532
8953.65729
7813.28538
-3090.18906
-2578.69682
8533.7699
8011.8801
-3007.13785
-2521.68793
8630.88641
8203.1663
-2909.64966
-2500.21246
8599.29398
8586.39393
-3148.32716
-3648.6242
6459.82056
8807.74801
-133.921397
-5431.83573
-2053.62538
9271.74717
8380.2541
-2964.10643
-2721.24737
8768.98725
8514.5436
-2908.06745
-2486.1347
8907.19377
8946.17769
-1998.55122
-5380.66004
-1300.14702
9525.91132
8907.23695
-3440.16202
-3546.50378
8324.2776
8957.82957
-1845.11391
-5857.18042
-2133.35276
9558.96418
9063.68689
-2528.4914
-2534.84328
9169.69426
9078.08408
-2938.91044
-2762.77036
9104.32523
9141.89011
-2313.27295
-5905.5199
-2456.62053
9589.59056
9290.80958
-2436.3287
-2534.01898
9225.37197
9402.10122
-1894.23816
-4783.74929
-3924.14646
-4847.97634
-2856.5614
9625.2918
9631.20887
-1866.79519
-2217.03415
9096.64957
9743.45372
-85.2759789
-4496.07983
-1781.76671
9636.58874
9931.10792
36.0996184
-4397.44986
-1802.0646
9476.27004
9758.61268
-994.962465
-5780.01342
-3996.83002
9025.10124
9752.62123
693.434709
-4135.64941
-1689.15945
9335.73168
10076.723
1492.40792
-3725.2353
-1986.70646
9201.02027
10036.7171
1741.13052
-3799.1472
-4314.3867
-3326.65264
8771.51851
9944.88942
-348.903974
-3086.24438
5609.35714
9727.04006
4345.9421
-3849.80752
-3975.29922
7832.38281
9842.05667
2314.39399
-4626.39138
-4625.36959
8075.55666
9873.50119
2463.1744
-4624.22724
-4669.77278
7801.84301
9869.37005
2553.94149
-4629.89269
-4793.20492
7585.52399
9915.62629
2907.61548
-3848.3394
-4950.12534
-4974.25726
6718.10423
9877.36395
882.378282
-2663.73979
6150.97641
9744.18455
2764.75437
-4610.35506
-4857.47229
6909.10665
10011.9478
1500.66974
-2264.51424
6154.44187
9776.19247
2953.99706
-4691.47377
-5005.02759
6537.32692
9917.41295
1198.77587
-2858.70709
5838.11547
9675.17359
2487.662
-5207.64792
-5415.79532
6519.38466
9839.68321
776.083387
-2940.08983
6179.05401
9639.09456
2006.27501
-5185.96519
-5033.9405
7137.85498
9640.66279
179.524062
-2600.88807
6999.3813
9423.03407
972.459667
-5231.47879
-4441.83688
8187.98068
9247.7237
632.322291
-5154.09528
-3830.36413
8501.94387
9061.35597
24.8313535
-5163.61044
-3486.88032
8651.51752
8645.08502
-1333.43709
-1581.22192
8399.4824
8302.79539
-1745.68648
-1344.41741
8539.84079
8700.4076
-1550.22629
-5338.40384
-2482.76584
8870.30017
7899.12737
-1656.683
-958.514635
8703.73409
7690.17282
-1864.1587
-587.139285
8918.24893
8691.89679
-1762.54879
-4810.91811
-959.57221
9300.2949
8921.55169
-743.703685
-3798.6943
-3753.75639
-4530.98832
-747.092748
9282.3449
8867.76711
-1016.0207
-4228.55613
-131.99539
9415.50554
8820.41187
-1454.27974
-4649.86345
-670.89087
9296.29294
7431.82962
-1775.68506
-230.459378
9188.67624
7094.19704
-2412.92255
-352.130008
9144.29555
6888.8382
-2569.9393
-284.03004
9279.24607
8454.54637
-3406.39018
-5538.22826
-679.506888
9373.35447
8527.06839
-2978.92367
-5356.18967
-465.097556
9467.65064
8641.74043
-2839.40657
-5203.0995
-349.59052
9532.58315
8738.59517
-2820.62069
-5193.88642
-605.393206
9557.95694
7540.89116
-2297.31853
-430.786608
9641.21178
8899.97975
-3248.58933
-5399.19141
-977.671711
9621.21616
7911.56305
-2463.51315
-926.017992
9659.84089
9261.85987
-2913.64393
-5286.52972
-1135.01035
9502.254
9505.89595
-2044.42444
-5043.99116
-1975.85988
9382.12172
10501.5224
9858.3802
-1617.27625
-4524.33386
-4214.44793
-5027.81569
-4000.01547
8426.29937
10360.2516
10013.5974
266.922651
-4676.57682
-3831.001
7820.54335
9651.60534
3468.82002
)
;

boundaryField
{
    closed
    {
        type            lookUpEnthalpy;
        h0              uniform 257150.666;
        value           uniform 257150.666;
    }
    open
    {
        type            zeroGradient;
    }
    sides
    {
        type            empty;
    }
    procBoundary0to1
    {
        type            processor;
        value           uniform -3128.21365;
    }
}


// ************************************************************************* //
