/*--------------------------------*- C++ -*----------------------------------*\
| =========                 |                                                 |
| \\      /  F ield         | OpenFOAM: The Open Source CFD Toolbox           |
|  \\    /   O peration     | Version:  2306                                  |
|   \\  /    A nd           | Website:  www.openfoam.com                      |
|    \\/     M anipulation  |                                                 |
\*---------------------------------------------------------------------------*/
FoamFile
{
    version     2.0;
    format      ascii;
    arch        "LSB;label=32;scalar=64";
    class       surfaceScalarField;
    location    "0.00144";
    object      phi;
}
// * * * * * * * * * * * * * * * * * * * * * * * * * * * * * * * * * * * * * //

dimensions      [1 0 -1 0 0 0 0];

oriented        oriented;

internalField   nonuniform List<scalar> 
529
(
-1.66379751e-06
-7.27567392e-07
1.92137979e-06
2.28330016e-06
1.63097591e-06
2.03736993e-06
2.57353161e-06
2.16749259e-06
2.22429508e-06
6.04548498e-07
-3.22231692e-06
-1.90694279e-06
3.34603553e-06
3.72449961e-06
2.23670452e-06
3.27551993e-06
2.15209737e-06
-2.32443274e-06
-4.72494126e-06
-1.45573669e-06
1.3811903e-06
-9.73548773e-07
4.39148568e-07
8.49734523e-06
8.32749162e-06
6.09452028e-07
-7.00307497e-06
-8.75894168e-06
-3.41594343e-06
1.99788316e-06
5.92907896e-07
-2.63211033e-06
4.5460499e-07
5.43142675e-06
5.41451618e-06
3.1368133e-06
-1.47421513e-08
-1.8859172e-06
3.83190985e-06
1.67730433e-05
2.17780106e-05
9.60169625e-06
-8.01456872e-06
-1.55375714e-05
-9.56102148e-06
-2.74320201e-06
-7.3885128e-07
-3.93335156e-07
2.51620153e-06
8.38083068e-06
1.7005201e-05
2.65331657e-05
3.25768783e-05
3.12572781e-05
2.19672174e-05
1.05282199e-05
2.17678947e-06
-1.99434121e-06
-3.30550042e-06
-3.77140984e-06
-4.22003241e-06
-4.61264994e-06
-5.10419779e-06
-5.78580903e-06
-6.7181031e-06
-7.95938617e-06
-9.57375031e-06
-1.15967102e-05
-1.3992315e-05
-1.66216947e-05
-1.92512739e-05
-2.16102544e-05
-2.3467602e-05
-2.46850252e-05
-2.5219374e-05
-2.50708015e-05
-2.42943216e-05
-2.30756871e-05
-2.16567507e-05
-2.01893011e-05
-1.87211663e-05
-1.7251975e-05
-1.57846192e-05
-1.43404302e-05
-1.2939466e-05
-1.15824114e-05
-1.03012302e-05
-9.10082683e-06
-7.99781767e-06
-6.96683063e-06
-6.04930118e-06
-5.18145634e-06
-4.21714162e-06
-3.52491871e-06
-2.9293183e-06
-2.44416386e-06
-1.89119045e-06
-1.33801972e-06
-7.81647194e-07
-2.66388875e-07
1.60058306e-07
6.24443644e-07
1.04858806e-06
1.48357263e-06
1.8862069e-06
2.32365795e-06
2.9515587e-06
3.40879508e-06
3.81501171e-06
4.25219998e-06
4.70792874e-06
5.10019654e-06
5.53178872e-06
5.873249e-06
6.31173165e-06
6.78300937e-06
7.2257419e-06
7.70654228e-06
8.72277063e-06
9.48440155e-06
1.00300139e-05
1.05596799e-05
1.11443524e-05
1.16565677e-05
1.22199382e-05
1.25185819e-05
1.30445938e-05
1.437059e-05
1.48748375e-05
1.54363656e-05
1.56716089e-05
1.61280983e-05
1.62485198e-05
1.65354496e-05
1.69167143e-05
1.79990465e-05
1.8926411e-05
1.91553695e-05
1.82422705e-05
1.80908966e-05
1.80765957e-05
1.80415042e-05
1.78474415e-05
1.74498202e-05
1.68011652e-05
1.64814533e-05
1.60027911e-05
1.54278708e-05
1.40890707e-05
1.35033586e-05
1.31899806e-05
1.26402245e-05
1.19953196e-05
1.12972774e-05
1.06923429e-05
1.02047546e-05
9.61792774e-06
8.58697899e-06
7.77081587e-06
7.14314762e-06
6.49757561e-06
5.94590976e-06
5.22601497e-06
4.5259359e-06
3.95895191e-06
3.31330747e-06
2.66808407e-06
1.87979474e-06
1.17664804e-06
7.18127775e-07
1.09301102e-07
-5.85608721e-07
-1.29450992e-06
-1.93191862e-06
-2.57923232e-06
-3.29539947e-06
-3.84326274e-06
-4.09222863e-06
-4.70903452e-06
-5.39293438e-06
-6.01269094e-06
-6.54707392e-06
-6.70881171e-06
-7.2881447e-06
-7.87906221e-06
-8.37083602e-06
-8.80106118e-06
-8.89448595e-06
-9.44176093e-06
-9.88163844e-06
-1.04161138e-05
-1.06382899e-05
-1.09370802e-05
-1.08210121e-05
-1.1205715e-05
-1.14659521e-05
-1.16811387e-05
-1.10217466e-05
-1.13057193e-05
-1.14323751e-05
-1.1397617e-05
-1.10611907e-05
-1.10969568e-05
-1.14143208e-05
-1.13955548e-05
-1.06372913e-05
-1.04458983e-05
-1.0655937e-05
-1.07121163e-05
-9.95505118e-06
-9.4963873e-06
-9.27526637e-06
-8.93679338e-06
-8.59447594e-06
-8.11133718e-06
-7.77083442e-06
-7.77181957e-06
-7.59721211e-06
-6.95018075e-06
-6.60709103e-06
-6.36445293e-06
-6.56560994e-06
-6.36742947e-06
-5.91494624e-06
-5.70586638e-06
-5.63072698e-06
-5.53571588e-06
-5.34777352e-06
-5.13791532e-06
-5.01753669e-06
-5.02609322e-06
-4.77133695e-06
-4.51085216e-06
-4.39702574e-06
-4.47377371e-06
-4.28808484e-06
-4.06319363e-06
-3.93126098e-06
-4.00704877e-06
-3.82839683e-06
-3.58775244e-06
-3.40066211e-06
-3.59479994e-06
-3.53111596e-06
-3.08186576e-06
-2.91368349e-06
-2.81079011e-06
-2.758072e-06
-2.60874447e-06
-2.47932539e-06
-2.28265214e-06
-2.33452498e-06
-2.27633788e-06
-2.07869216e-06
-1.90313325e-06
-1.98009136e-06
-1.92190678e-06
-1.71542514e-06
-1.51572229e-06
-1.37436372e-06
-1.25607805e-06
-1.03323134e-06
-8.17605949e-07
-4.65073631e-07
-3.4386835e-07
-1.91378642e-07
3.0789846e-07
7.09389e-07
1.04668168e-06
1.33478916e-06
1.68576062e-06
1.9448338e-06
2.41951373e-06
2.64073726e-06
2.7393823e-06
2.88194889e-06
3.32821034e-06
3.5536667e-06
3.50304263e-06
3.69933478e-06
3.99251177e-06
4.44648694e-06
4.65605196e-06
4.52202316e-06
4.6005087e-06
4.89678533e-06
5.39771432e-06
5.54563725e-06
5.55928417e-06
5.86384764e-06
6.07653969e-06
6.37322855e-06
6.64644852e-06
6.94392667e-06
6.80654741e-06
6.91563972e-06
7.22643313e-06
7.44963008e-06
7.62996556e-06
7.59579846e-06
7.89978905e-06
8.2372705e-06
8.59612022e-06
8.88752621e-06
8.99173858e-06
9.28480054e-06
9.66706229e-06
1.00490768e-05
1.03356423e-05
1.04206143e-05
1.06938407e-05
1.10239063e-05
1.14090995e-05
1.10434808e-05
1.10464907e-05
1.12570795e-05
1.16193136e-05
1.19285791e-05
1.21109106e-05
1.20874703e-05
1.22522016e-05
1.26477815e-05
1.29419923e-05
1.3094629e-05
1.30205135e-05
1.31417402e-05
1.35060347e-05
1.38821144e-05
1.39852631e-05
1.34622832e-05
1.33835194e-05
1.34842264e-05
1.3695487e-05
1.38738791e-05
1.32715434e-05
1.33705305e-05
1.39062839e-05
1.42321645e-05
1.4251516e-05
1.33540957e-05
1.33407819e-05
1.3706685e-05
1.40894212e-05
1.43222697e-05
1.34924219e-05
1.3642721e-05
1.41100405e-05
1.44873965e-05
1.46385668e-05
1.37364236e-05
1.37937519e-05
1.41986849e-05
1.45333251e-05
1.46223413e-05
1.36422569e-05
1.36194723e-05
1.39183182e-05
1.4221389e-05
1.41956349e-05
1.41367997e-05
1.31085704e-05
1.29499898e-05
1.29327364e-05
1.2807064e-05
1.19560042e-05
1.16952783e-05
1.16765279e-05
1.15627964e-05
1.12246665e-05
1.01364331e-05
9.67443366e-06
9.29377845e-06
8.79010014e-06
7.86935033e-06
7.27299108e-06
6.76176e-06
6.13481408e-06
5.37928749e-06
4.33923625e-06
3.49313998e-06
2.57563082e-06
1.52065514e-06
5.51049393e-07
-5.3341272e-07
-1.74913487e-06
-3.11270526e-06
-4.22788374e-06
-5.1203359e-06
-6.54279751e-06
-8.02474908e-06
-9.29778094e-06
-1.00920434e-05
-1.16972421e-05
-1.3502894e-05
-1.5125356e-05
-1.5973557e-05
-1.63480998e-05
-1.80659564e-05
-1.95541539e-05
-2.04046037e-05
-2.04175332e-05
-2.18970612e-05
-2.32743126e-05
-2.42473158e-05
-2.38726289e-05
-2.31690231e-05
-2.38721776e-05
-2.44176249e-05
-2.4497791e-05
-2.2457519e-05
-2.2224952e-05
-2.22613861e-05
-2.19666616e-05
-2.14326885e-05
-1.94799185e-05
-1.89522891e-05
-1.92696065e-05
-1.89473019e-05
-1.84257246e-05
-1.77160755e-05
-1.80731234e-05
-1.74258207e-05
-1.67559956e-05
-1.60875079e-05
-1.57034453e-05
-1.51015156e-05
-1.43741412e-05
-1.36613469e-05
-1.29076668e-05
-1.28586112e-05
-1.23664088e-05
-1.18319009e-05
-1.13296861e-05
-1.14022013e-05
-1.10552332e-05
-1.06197011e-05
-1.02216387e-05
-9.99310369e-06
-9.76536146e-06
-9.55989356e-06
-9.27615803e-06
-9.08728228e-06
-8.96259677e-06
-8.85679587e-06
-8.78844367e-06
-8.62819816e-06
-8.38785523e-06
-8.10826283e-06
-7.86022464e-06
-7.64796654e-06
-7.47325786e-06
-7.28223107e-06
-6.97324791e-06
-6.72373944e-06
-6.47477983e-06
-6.27281706e-06
-6.0748327e-06
-5.74989778e-06
-5.4695723e-06
-5.25199645e-06
-5.01948146e-06
-4.71894853e-06
-4.44120852e-06
-4.2446164e-06
-4.18768142e-06
-3.96913253e-06
-3.76785024e-06
-3.62601676e-06
-3.63229159e-06
-3.46920196e-06
-3.31886237e-06
-3.08962774e-06
-3.19166803e-06
-3.14120049e-06
-2.96564468e-06
-2.83235144e-06
-2.59222244e-06
-2.68118179e-06
-2.64766418e-06
-2.50148656e-06
-2.39320731e-06
-2.17209744e-06
-2.24456419e-06
-2.20659467e-06
-2.04746165e-06
-1.90179022e-06
-1.62188346e-06
-1.58058541e-06
-1.45071976e-06
-1.1843222e-06
-9.16820248e-07
-3.10431963e-07
-1.29953167e-07
2.1113486e-07
6.0007941e-07
1.1648983e-06
1.61287283e-06
2.01928548e-06
2.56705331e-06
3.08378485e-06
4.35669597e-06
5.1355071e-06
6.03971687e-06
6.8744652e-06
8.29445694e-06
9.93219621e-06
1.142963e-05
1.30260749e-05
1.44431771e-05
1.62517355e-05
1.80492532e-05
2.01321202e-05
2.21586189e-05
2.37156989e-05
2.58202094e-05
2.87362002e-05
3.11913344e-05
3.4104406e-05
3.67678441e-05
3.96461806e-05
4.04995786e-05
4.17743911e-05
4.41818418e-05
4.62757046e-05
4.91714573e-05
5.17189568e-05
5.0857113e-05
4.99389313e-05
5.04891069e-05
)
;

boundaryField
{
    closed
    {
        type            calculated;
        value           uniform 0;
    }
    open
    {
        type            calculated;
        value           nonuniform List<scalar> 0();
    }
    sides
    {
        type            empty;
        value           nonuniform List<scalar> 0();
    }
    procBoundary0to1
    {
        type            processor;
        value           uniform 5.22599081e-05;
    }
}


// ************************************************************************* //
