/*--------------------------------*- C++ -*----------------------------------*\
| =========                 |                                                 |
| \\      /  F ield         | OpenFOAM: The Open Source CFD Toolbox           |
|  \\    /   O peration     | Version:  2306                                  |
|   \\  /    A nd           | Website:  www.openfoam.com                      |
|    \\/     M anipulation  |                                                 |
\*---------------------------------------------------------------------------*/
FoamFile
{
    version     2.0;
    format      ascii;
    arch        "LSB;label=32;scalar=64";
    class       volScalarField;
    location    "0.00144";
    object      prefDh_H2O;
}
// * * * * * * * * * * * * * * * * * * * * * * * * * * * * * * * * * * * * * //

dimensions      [1 1 -3 0 0 0 0];

internalField   nonuniform List<scalar> 
530
(
92.1067948
89.9571032
89.8134496
89.8189903
89.8195622
89.8195743
89.8195748
89.8195748
89.8195748
89.8195748
89.8195748
89.8195748
89.8195748
89.8195748
89.8195748
89.8195748
89.8195748
89.8195748
89.8195748
89.8195748
89.8195748
89.8195748
89.8195748
89.8195748
89.8195748
89.8195748
89.8195748
89.8195748
89.8195748
89.8195748
89.8195748
89.8195748
89.8195748
89.8195748
89.8195748
89.8195748
89.8195748
89.8195748
89.8195748
89.8195748
89.8195748
89.8195748
89.8195748
89.8195748
89.8195748
89.8195748
89.8195748
89.8195748
89.8195748
89.8195748
89.8195748
89.8195748
89.8195748
89.8195748
89.8195748
89.8195748
89.8195748
89.8195748
89.8195748
89.8195748
89.8195748
89.8195748
89.8195748
89.8195748
89.8195747
89.8195746
89.8195743
89.8195738
89.8195737
89.8195719
89.8195562
89.8195564
89.819635
89.81944
89.8192324
89.8197428
89.8200831
89.818703
89.8182951
89.819685
89.8210862
89.8218753
89.813165
89.7765152
89.7711039
89.8655535
90.0571568
89.9887584
89.4128599
88.253873
88.2167236
88.7548806
92.9817538
92.4142767
92.6352119
91.1901978
88.0509167
88.0231132
88.0290486
88.0089414
88.132248
90.4901693
92.4712541
92.4584873
92.612008
92.4923908
92.187953
88.1729463
87.8981137
87.9588236
87.9934351
88.0068264
88.6595062
92.6092989
92.3870746
92.5657967
92.5775996
92.4881162
92.432893
88.216001
87.9317561
87.9898876
88.0213228
88.0274425
88.5160473
92.8733858
92.2916986
92.757082
88.2924899
87.9512482
87.9736714
88.4419505
92.9132219
92.3873491
92.496709
92.0105907
88.0262842
87.8850879
88.2809875
92.9887648
92.669265
88.9157183
87.9909554
88.6105789
92.9031511
92.7687013
88.8253279
88.4547141
92.4744881
92.5443354
89.9359386
88.151357
88.5114527
92.9489301
92.5808379
89.1026785
87.8999623
88.0110262
92.3239353
92.326263
92.3628049
89.2837066
88.1391214
88.4551446
92.9433949
92.4423226
89.966097
88.1229533
88.3740644
92.9409043
92.4893121
89.3937332
88.0023109
88.0217973
88.0843708
88.0610772
88.2605807
92.9182817
92.454701
89.6541443
88.1314951
88.6516652
92.7210482
92.4633222
89.3043053
88.1286246
88.856975
92.6067433
92.5265633
88.9265516
87.9542678
87.9428918
88.5946788
92.5761992
92.5319788
89.042744
88.5302506
92.6154667
92.702306
88.7122175
88.1116382
90.3937604
92.7600803
90.2370958
88.023529
88.2446522
92.740566
92.9982841
88.2548503
88.2190191
92.9577421
92.850219
88.4480225
87.9587733
89.482977
92.8261454
90.8205248
88.0213935
88.214171
92.7674275
92.9242295
88.2326334
88.0338379
90.7109019
92.8760933
89.4024953
87.8985921
88.3173209
92.6947048
92.9797309
88.209779
88.2526071
92.8438117
93.0367711
88.2223022
88.2628708
92.8059073
93.02259
88.2369143
88.2641581
92.8063785
92.8650343
88.1813178
88.1074756
91.9990729
92.8115467
88.885065
87.8395315
88.3070436
92.5803211
92.9176812
88.219009
88.2279824
92.7480221
92.8876465
88.2302058
88.2649533
92.6723827
92.750166
88.3352331
87.843158
88.5260146
92.4974146
92.7057052
88.1427032
88.108926
92.9150693
92.727659
88.3754806
87.7648836
88.2863267
92.4985738
92.6440712
88.2710693
88.2546427
92.6002861
92.6570761
88.2116084
88.2258448
92.5951724
92.6565655
88.2624547
87.7512074
88.2191566
92.492996
92.5510477
88.2662721
88.2459125
92.558966
92.5497756
88.3605305
87.9219744
88.0141139
87.9016631
88.1729961
92.478229
92.4378008
88.370075
88.2901823
92.6290116
92.4520187
88.8964678
87.9531491
88.3896453
92.489474
92.3670475
88.9404268
87.9595481
88.3833822
92.5476993
92.4043784
88.6179356
87.746181
88.0054877
92.6934044
92.4119373
89.1668134
87.9959438
88.4146121
92.6274365
92.3215737
89.4548018
88.0531158
88.3311877
92.6916852
92.3286321
89.5288389
88.0279467
87.9635058
88.1248886
92.8419682
92.3482419
88.8113251
88.1459806
91.6994379
92.4851284
90.6057382
88.0413606
88.0296077
92.8322327
92.4230732
89.7504273
87.927591
87.9334867
92.9537926
92.4141663
89.8033296
87.9258813
87.9239609
92.8097833
92.417049
89.8410676
87.9257237
87.8986294
92.6539922
92.3971691
89.959731
88.0257147
87.8769917
87.8715686
92.2037359
92.4110118
89.206629
88.2108377
91.979938
92.4691665
89.9134438
87.9413025
87.8852416
92.2437661
92.3728809
89.4058806
88.267303
91.9539844
92.4580446
89.9835097
87.9284789
87.8608929
92.0639687
92.404315
89.3056335
88.1823362
91.8024714
92.4868437
89.805459
87.8476915
87.7919073
92.0734525
92.431529
89.1632099
88.1678117
91.9940009
92.5124848
89.6192335
87.8518482
87.8430059
92.4213535
92.5247834
88.9668522
88.206446
92.4696239
92.6102956
89.2403654
87.8448109
87.9264081
93.026324
92.7027432
89.1207225
87.8566527
88.0029128
92.8877289
92.7785031
88.9265362
87.8554771
88.031471
92.8467305
92.9318097
88.5230039
88.4426851
92.9094623
92.9292325
88.4102946
88.5131668
92.8366358
92.906016
88.4568093
87.8307114
88.174224
92.7522169
92.7022466
88.435511
88.6312496
92.7757944
92.5936571
88.3780791
88.747547
92.6803116
92.9051487
88.398387
87.9106098
88.6357427
92.5724115
92.8249432
88.6887935
88.062012
88.0421177
87.9458956
88.6998115
92.5822277
92.8465268
88.6091883
88.0062097
88.8975694
92.5301506
92.8556374
88.482394
87.9422515
88.7256926
92.5809448
92.5341808
88.4004347
88.8561862
92.5829776
92.3531572
88.2753155
88.8184554
92.601015
92.2275729
88.2494894
88.8370658
92.5420427
92.9478595
88.1162887
87.805694
88.7193625
92.5387712
92.9131299
88.1766346
87.8341865
88.7869928
92.5069871
92.8680256
88.1936581
87.8567336
88.8225171
92.4831755
92.8298005
88.1910144
87.8606847
88.7396918
92.492199
92.7277026
88.2770189
88.7832445
92.4161201
92.7625975
88.1215956
87.8268581
88.622501
92.4737397
93.0125418
88.2487616
88.6352347
92.4225383
92.6047038
88.1636335
87.8381848
88.5747695
92.5201676
92.5044778
88.3110452
87.8773287
88.3269189
92.6651557
92.2165439
92.3668742
88.4322965
87.9689204
87.9556084
87.8674271
87.9945762
92.9425699
92.2618557
92.3275093
89.0431269
87.9402582
88.0502839
92.6160508
92.477048
90.2184565
)
;

boundaryField
{
    closed
    {
        type            calculated;
        value           uniform 120.284334;
    }
    open
    {
        type            calculated;
        value           nonuniform List<scalar> 0();
    }
    sides
    {
        type            empty;
    }
    procBoundary0to1
    {
        type            processor;
        value           uniform 88.1281934;
    }
}


// ************************************************************************* //
