/*--------------------------------*- C++ -*----------------------------------*\
| =========                 |                                                 |
| \\      /  F ield         | OpenFOAM: The Open Source CFD Toolbox           |
|  \\    /   O peration     | Version:  2306                                  |
|   \\  /    A nd           | Website:  www.openfoam.com                      |
|    \\/     M anipulation  |                                                 |
\*---------------------------------------------------------------------------*/
FoamFile
{
    version     2.0;
    format      ascii;
    arch        "LSB;label=32;scalar=64";
    class       volScalarField;
    location    "0.001";
    object      prefDh_H2;
}
// * * * * * * * * * * * * * * * * * * * * * * * * * * * * * * * * * * * * * //

dimensions      [1 1 -3 0 0 0 0];

internalField   nonuniform List<scalar> 
530
(
43.8952554
31.1761746
28.9545053
28.9201221
28.9166841
28.9165932
28.9165868
28.9165866
28.9165866
28.9165866
28.9165866
28.9165866
28.9165866
28.9165866
28.9165866
28.9165866
28.9165866
28.9165866
28.9165866
28.9165866
28.9165866
28.9165866
28.9165866
28.9165866
28.9165866
28.9165866
28.9165866
28.9165866
28.9165866
28.9165866
28.9165866
28.9165866
28.9165866
28.9165866
28.9165866
28.9165866
28.9165866
28.9165866
28.9165866
28.9165866
28.9165866
28.9165866
28.9165866
28.9165866
28.9165866
28.9165866
28.9165866
28.9165866
28.9165866
28.9165866
28.9165866
28.9165866
28.9165866
28.9165866
28.9165866
28.9165866
28.9165866
28.9165866
28.9165866
28.9165866
28.9165866
28.9165866
28.9165866
28.9165866
28.9165867
28.9165867
28.916587
28.9165878
28.9165898
28.9165953
28.9166082
28.9166388
28.9167022
28.9168308
28.9171184
28.9175861
28.9184849
28.9199213
28.9226488
28.9262443
28.9305797
28.9383412
28.9477853
28.9576552
28.9812489
28.9925515
28.9497417
28.8769242
28.9107204
29.5969606
29.7556941
28.8998656
28.8946485
28.3644093
28.6846721
34.3259881
38.299365
37.9670298
28.1475683
24.8480241
24.7657718
24.664142
28.7120223
37.1368647
38.2591763
37.2198998
38.543052
35.031739
27.6375986
24.0456283
25.0100884
24.8155303
28.4135992
31.9992999
37.8025909
38.0600414
31.8794907
25.7539377
22.4471314
28.0441363
31.9682231
37.8753484
37.9897649
31.4868703
26.3854764
24.7212905
25.7401009
29.9690921
37.9533063
34.5878584
29.6520995
29.0205812
37.1228181
31.799625
25.6564486
24.4839673
29.2150649
38.1460621
34.4189803
29.4739256
29.1612189
37.8486415
33.6190102
28.5977786
29.0183519
37.8288453
33.1416647
28.04955
28.9127003
37.8140643
32.6201364
27.6612982
28.831434
37.7977445
32.1785914
27.2481034
28.7542261
38.2089582
31.7907506
28.6906495
28.7234645
33.3710794
28.7225037
24.5576429
24.4861003
29.2030422
38.4247441
32.9923909
28.1732755
28.7385816
36.9005428
29.6998958
24.0226194
24.0406276
29.1738781
38.2743356
33.2829325
28.0563302
28.9713153
38.1641544
32.1867208
27.3032698
28.8149564
38.0675109
31.6264513
26.9320947
28.733819
38.0713335
31.2378514
26.6715938
28.6737013
38.1089832
30.8063694
26.6592996
28.7038293
37.318989
29.1637361
23.480836
24.2717306
29.3457502
38.3229483
32.4435898
27.6260131
28.856439
38.2985014
31.1860363
26.9237072
28.7956194
37.6996928
29.1818986
23.570624
24.5835055
29.4922567
38.2963228
31.685408
27.4780178
28.8480123
37.9581312
29.254713
23.6312741
24.7115696
29.5386451
38.2934598
31.9794732
27.5434525
28.8425478
38.2938543
30.8203865
26.7608487
28.7698503
38.1617522
30.2465969
26.4202504
28.7680022
38.0666649
29.6854561
26.2751137
29.118538
37.6724105
28.6160773
23.0630232
25.1540412
29.946849
38.2456234
30.6789663
27.2513847
28.8876497
38.1714324
29.8584767
26.7088863
28.9760498
37.9639283
29.2957064
26.5623957
29.464134
37.6190701
28.4783056
23.4014686
26.2638947
31.2177532
38.0656882
29.7849151
28.3187051
29.4255424
37.9804026
29.3057744
27.7644214
29.8344213
37.5800561
28.4876216
23.7785814
27.0925715
32.8646088
37.709914
29.0005691
28.2997612
30.1607003
37.365962
28.4023375
23.5002781
24.7267614
24.7878941
28.5187655
38.2979845
37.2773193
28.6312449
25.4543932
28.7774515
37.0567421
37.729103
28.9668165
29.2881731
30.665387
37.7907434
28.650863
28.197812
31.0347245
37.3026612
28.4021728
23.3267629
24.9366013
25.4272051
28.8657336
38.7200441
37.5598587
28.6691105
28.6945835
30.0086221
38.7886875
37.0134322
29.0414171
25.5343291
28.5666519
38.6026083
37.9295896
28.5339517
24.2858514
27.8801306
35.3956696
37.9033747
28.7203297
24.1410328
27.17813
35.2314691
38.1797855
29.1697813
28.7299941
29.9345996
37.8466113
28.8655671
23.9997483
26.2481824
34.4101821
37.9473799
29.1377851
24.4729023
26.2009219
35.1006543
37.9629863
29.2934072
24.7217831
25.6008767
33.5353765
37.934251
29.4783511
25.0010386
23.8087388
26.8857346
36.3484131
38.0237688
29.7220611
25.2870731
25.5204368
34.1400958
37.9728684
29.9078092
25.2494608
25.4259408
33.3496938
38.1842036
30.4171789
29.2176509
29.0999164
37.9851207
30.0619012
28.0669089
29.2803265
37.7377044
29.0111613
23.807326
24.9105615
32.8722721
37.723957
29.1559396
24.3704753
25.8114109
34.0794571
37.7545508
29.2838873
28.7339204
29.9094878
37.330338
28.651414
24.0053265
26.85954
35.2994079
37.4698891
28.8938626
28.8996493
30.9236452
36.8560241
28.5814778
23.4860599
27.678927
36.8158511
36.7287739
28.8809511
23.6647463
28.6540725
37.1255013
36.6323171
28.9466513
24.2176001
28.6116643
36.6126792
37.1918678
28.7290432
29.3774646
31.7074388
36.8892844
28.6974156
29.0885171
34.6701403
36.0045025
27.630466
23.4044792
28.4883745
37.2840717
37.0775541
28.843191
29.3925462
33.0193331
36.7088817
29.1848732
29.3132521
36.3339612
35.6312844
25.7278604
23.1443955
28.4579389
37.5885079
36.6297785
29.7091595
29.2968174
36.1643022
34.8685891
25.0029214
25.2082342
31.0838083
36.9949556
28.56028
24.112828
28.4152969
37.9966416
32.766318
25.9659885
27.2571075
35.2963207
36.4104956
29.0124202
28.7182063
36.5358876
36.7932176
29.5945123
29.5344507
36.9825195
36.6639225
28.9858865
28.8084179
35.446798
36.8900894
28.8474006
23.5453996
27.4547597
31.7794715
37.631278
28.9238274
24.0335025
28.7908042
37.9011046
36.6907126
29.4275696
25.7140139
29.1092855
38.3647652
36.1843476
25.1893901
23.141161
28.6153697
38.1855086
35.8843271
28.2862142
29.3965291
37.1810971
36.7637282
28.5708672
24.4044879
28.7697648
38.3710165
35.1589827
27.3159314
29.263769
37.5680633
36.7491056
26.4087424
23.3077457
28.5995026
38.4273713
37.2767297
28.6047117
26.8385963
29.449306
38.1369073
38.7880706
36.934769
28.6627009
24.8588555
26.5319172
26.6072238
26.6318266
28.9643183
38.8819834
37.3961714
28.9227386
26.995148
29.4897985
38.7821916
37.2886843
28.948509
24.7948866
27.5138368
29.5674895
38.7809513
37.0988206
26.7344788
24.5526181
28.933835
38.5775635
37.3924511
26.781783
)
;

boundaryField
{
    closed
    {
        type            calculated;
        value           uniform 249.697172;
    }
    open
    {
        type            calculated;
        value           nonuniform List<scalar> 0();
    }
    sides
    {
        type            empty;
    }
    procBoundary0to1
    {
        type            processor;
        value           uniform 24.5201567;
    }
}


// ************************************************************************* //
