/*--------------------------------*- C++ -*----------------------------------*\
| =========                 |                                                 |
| \\      /  F ield         | OpenFOAM: The Open Source CFD Toolbox           |
|  \\    /   O peration     | Version:  2306                                  |
|   \\  /    A nd           | Website:  www.openfoam.com                      |
|    \\/     M anipulation  |                                                 |
\*---------------------------------------------------------------------------*/
FoamFile
{
    version     2.0;
    format      ascii;
    arch        "LSB;label=32;scalar=64";
    class       volScalarField;
    location    "0.001";
    object      prefDh_T;
}
// * * * * * * * * * * * * * * * * * * * * * * * * * * * * * * * * * * * * * //

dimensions      [1 1 -3 -1 0 0 0];

internalField   nonuniform List<scalar> 
530
(
-0.000853358921
-0.000630892959
-0.000591866237
-0.000591257028
-0.000591196218
-0.000591194616
-0.000591194505
-0.000591194501
-0.000591194501
-0.000591194501
-0.000591194501
-0.000591194501
-0.000591194501
-0.000591194501
-0.000591194501
-0.000591194501
-0.000591194501
-0.000591194501
-0.000591194501
-0.000591194501
-0.000591194501
-0.000591194501
-0.000591194501
-0.000591194501
-0.000591194501
-0.000591194501
-0.000591194501
-0.000591194501
-0.000591194501
-0.000591194501
-0.000591194501
-0.000591194501
-0.000591194501
-0.000591194501
-0.000591194501
-0.000591194501
-0.000591194501
-0.000591194501
-0.000591194501
-0.000591194501
-0.000591194501
-0.000591194501
-0.000591194501
-0.000591194501
-0.000591194501
-0.000591194501
-0.000591194501
-0.000591194501
-0.000591194501
-0.000591194501
-0.000591194501
-0.000591194501
-0.000591194501
-0.000591194501
-0.000591194501
-0.000591194501
-0.000591194501
-0.000591194501
-0.000591194501
-0.000591194501
-0.000591194501
-0.000591194501
-0.000591194501
-0.000591194501
-0.000591194501
-0.000591194503
-0.000591194507
-0.000591194521
-0.000591194556
-0.000591194654
-0.00059119488
-0.000591195419
-0.000591196536
-0.000591198796
-0.000591203844
-0.00059121209
-0.000591228028
-0.000591253241
-0.000591300657
-0.000591364036
-0.00059144196
-0.000591578934
-0.000591742445
-0.000591909473
-0.000592297713
-0.000592497934
-0.00059190415
-0.000590977559
-0.000591475709
-0.000601941006
-0.000604455856
-0.00059165224
-0.000595386344
-0.000587237605
-0.000590614856
-0.000679994277
-0.000743163682
-0.000738552957
-0.000580632553
-0.000527882289
-0.000526488493
-0.000525037829
-0.000588773611
-0.000725522223
-0.00074253412
-0.0007262662
-0.000747008372
-0.000692050341
-0.000574774876
-0.00051458417
-0.000530720837
-0.000527611873
-0.00058816707
-0.000641130623
-0.000735644099
-0.000739853769
-0.000639179172
-0.000543209309
-0.000487648184
-0.000581906744
-0.00064058416
-0.000736633984
-0.00073855754
-0.000632677892
-0.000553955429
-0.000525954459
-0.000543228613
-0.000608165397
-0.000738096913
-0.000684571934
-0.000608486864
-0.000595218643
-0.000726607434
-0.000637888113
-0.000541716807
-0.000521976379
-0.000596439032
-0.000741480176
-0.000681803555
-0.000606138059
-0.000598587444
-0.000737454865
-0.000668342771
-0.000591492078
-0.000596121197
-0.000737158979
-0.000660348237
-0.000582269546
-0.000594202624
-0.00073691671
-0.000651613627
-0.000575742355
-0.0005926156
-0.000736647055
-0.000644231992
-0.000568743946
-0.000591235488
-0.000743082619
-0.000637790519
-0.000592909645
-0.000588613142
-0.000664081579
-0.000588910161
-0.000523143467
-0.000521892733
-0.00059612664
-0.000745683868
-0.00065785636
-0.00058427994
-0.000589924745
-0.000723109726
-0.00060355534
-0.000514203439
-0.000514435932
-0.000595929258
-0.000743246756
-0.000662693327
-0.000582307282
-0.000594849308
-0.000741954716
-0.000644344402
-0.000569686452
-0.000591856921
-0.000740440021
-0.000635026419
-0.000563430233
-0.000590229136
-0.000740468398
-0.00062858607
-0.000559021138
-0.000588963673
-0.000741055657
-0.000621464065
-0.000558871313
-0.000588518129
-0.00072936553
-0.000595164861
-0.000505077116
-0.000518282133
-0.00059845167
-0.000743860056
-0.000648635272
-0.000574998899
-0.000592235553
-0.000743769971
-0.000627726554
-0.000563285307
-0.000589988428
-0.000735092491
-0.000595468574
-0.000506583786
-0.000523529583
-0.000600614623
-0.000743406374
-0.000636007498
-0.000572551237
-0.000590903952
-0.00073899861
-0.000596595727
-0.000507584184
-0.000525692299
-0.000601360245
-0.000743301851
-0.000640900615
-0.00057356691
-0.000591542972
-0.000743584852
-0.000621694662
-0.000560407666
-0.000589828542
-0.000741587744
-0.000612282111
-0.000554662912
-0.000589420804
-0.00074012943
-0.000603165331
-0.000552265622
-0.000594362524
-0.000734635222
-0.000587201416
-0.000497976905
-0.000533044537
-0.000607658512
-0.000742667614
-0.000619366074
-0.000568557055
-0.000591375804
-0.00074170247
-0.000605953553
-0.000559430356
-0.000592382342
-0.000738529941
-0.000596890832
-0.000556991684
-0.00059976119
-0.000733644784
-0.000585002883
-0.000503662589
-0.000551662117
-0.000628203483
-0.000739843001
-0.000604791412
-0.000586464893
-0.000599381523
-0.000738621234
-0.000597098898
-0.000577147762
-0.00060572104
-0.00073280665
-0.000584853422
-0.000510028858
-0.00056560436
-0.000655470931
-0.000734346843
-0.000592447924
-0.000586179153
-0.000610962741
-0.000729521464
-0.000584210657
-0.000505359646
-0.00052590191
-0.000527172486
-0.000587177433
-0.000743493975
-0.000727577368
-0.000587825505
-0.000538439152
-0.000593348216
-0.0007246122
-0.000734433136
-0.000592239208
-0.000602447936
-0.000619173019
-0.000735726149
-0.00058715005
-0.000584434119
-0.000625217612
-0.000728716403
-0.000585343596
-0.000502419338
-0.000529364676
-0.000537821926
-0.000591116664
-0.000749701202
-0.000732235385
-0.000589844155
-0.000592746191
-0.000608652829
-0.000750338655
-0.000724074553
-0.000598339217
-0.000539776125
-0.000586800503
-0.000748180118
-0.000737956316
-0.000587260754
-0.00051869484
-0.000578938515
-0.00069808705
-0.000737476702
-0.000588478461
-0.000516243475
-0.000567142479
-0.00069530186
-0.000741493377
-0.000595333789
-0.000593432368
-0.00060730749
-0.000736674962
-0.000590433579
-0.000513830022
-0.000551558132
-0.000681495907
-0.000738035488
-0.000594868627
-0.000521872713
-0.000550840355
-0.000693140095
-0.000738176846
-0.000597347871
-0.000526038352
-0.000540760907
-0.000666797577
-0.000737774445
-0.000600239061
-0.000530624502
-0.000510662921
-0.000562536879
-0.000714246295
-0.000738822443
-0.000604085399
-0.000535592889
-0.000539440624
-0.000676980332
-0.000738185871
-0.000606941483
-0.000534927463
-0.000537800154
-0.000663687236
-0.000741321714
-0.000615127417
-0.000601620922
-0.000594392997
-0.000738601775
-0.000609329178
-0.000582282806
-0.000596912892
-0.000735139955
-0.000592732896
-0.000510544668
-0.000529008872
-0.000655693438
-0.000734657583
-0.000595116996
-0.000520074861
-0.000544188613
-0.000675902569
-0.00073486368
-0.000597096996
-0.00059351388
-0.000606919156
-0.000728785932
-0.000587548283
-0.000513932939
-0.000561710659
-0.000696417817
-0.000730592605
-0.000591425928
-0.000596281518
-0.00062339036
-0.000721637204
-0.000588129661
-0.000505194249
-0.000575421868
-0.000721162358
-0.000719561127
-0.000593770127
-0.000508222181
-0.000591711846
-0.000725935968
-0.000718069099
-0.000595188139
-0.00051755629
-0.00059106522
-0.000717863325
-0.000726452548
-0.00058939797
-0.000604248729
-0.000636309149
-0.000722088682
-0.000590126291
-0.000599447828
-0.000685937704
-0.000708441111
-0.000574998654
-0.000503865106
-0.000588006485
-0.000728212568
-0.000725001649
-0.000592684142
-0.000604522421
-0.000658162077
-0.000719549029
-0.000599922777
-0.000602981085
-0.0007140763
-0.000702174457
-0.000543060874
-0.000499483513
-0.000586427313
-0.000732905882
-0.00071832775
-0.000609695987
-0.000602572901
-0.000711187278
-0.000689346747
-0.000530875478
-0.000534294556
-0.000626013578
-0.000723590855
-0.000585156901
-0.000515766652
-0.00058443953
-0.000739255497
-0.000653986839
-0.000547091748
-0.000568754779
-0.00069643438
-0.000715307317
-0.000598352567
-0.000593347144
-0.000717199043
-0.000720858614
-0.000607645141
-0.000606836824
-0.000724103146
-0.000718999617
-0.000597991965
-0.000594905048
-0.00069900256
-0.000722321825
-0.000594072173
-0.000506169645
-0.000571765262
-0.000637453543
-0.000733351429
-0.000590998108
-0.000514450194
-0.000592864947
-0.00073774788
-0.000719245671
-0.000605103757
-0.000542803405
-0.000594729337
-0.000744308838
-0.000711585676
-0.000533866967
-0.000499405662
-0.00058802635
-0.000741922473
-0.000706491754
-0.00058625598
-0.000604833051
-0.000727031172
-0.000720439633
-0.000590787699
-0.000520699791
-0.000589597731
-0.000744614974
-0.000694294381
-0.000569831897
-0.00060252141
-0.000733091011
-0.000720507022
-0.000554476998
-0.000502207701
-0.000587641505
-0.000745579932
-0.000728540059
-0.000591352761
-0.000561685629
-0.000599704217
-0.000739776959
-0.000750232833
-0.000723473665
-0.00059219959
-0.000528371463
-0.000556342809
-0.00055768203
-0.000558038511
-0.000592750454
-0.000752418675
-0.00072996769
-0.000595714743
-0.00056425476
-0.000600460536
-0.000750404105
-0.000728357871
-0.000596273413
-0.000527236629
-0.000572718825
-0.000601956748
-0.000750492642
-0.000725813109
-0.00055979634
-0.000523183599
-0.000592226849
-0.000747601094
-0.000730424649
-0.000560640718
)
;

boundaryField
{
    closed
    {
        type            calculated;
        value           uniform -0.00449428596;
    }
    open
    {
        type            calculated;
        value           nonuniform List<scalar> 0();
    }
    sides
    {
        type            empty;
    }
    procBoundary0to1
    {
        type            processor;
        value           uniform -0.00052261859;
    }
}


// ************************************************************************* //
