/*--------------------------------*- C++ -*----------------------------------*\
| =========                 |                                                 |
| \\      /  F ield         | OpenFOAM: The Open Source CFD Toolbox           |
|  \\    /   O peration     | Version:  2306                                  |
|   \\  /    A nd           | Website:  www.openfoam.com                      |
|    \\/     M anipulation  |                                                 |
\*---------------------------------------------------------------------------*/
FoamFile
{
    version     2.0;
    format      ascii;
    arch        "LSB;label=32;scalar=64";
    class       volScalarField;
    location    "0.00016";
    object      rho;
}
// * * * * * * * * * * * * * * * * * * * * * * * * * * * * * * * * * * * * * //

dimensions      [1 -3 0 0 0 0 0];

internalField   nonuniform List<scalar> 
3816
(
0.939286446
0.940707956
0.940281857
0.939871764
0.939297157
0.938557994
0.938194571
0.938137331
0.937953932
0.937753047
0.937443451
0.936665312
0.935643478
0.935127483
0.935378492
0.935893131
0.936175253
0.936264441
0.936228994
0.935935686
0.935593996
0.935612671
0.935799796
0.935869109
0.936090612
0.936416177
0.936182584
0.935255542
0.93449687
0.9346618
0.935327507
0.935850729
0.936608336
0.937045507
0.935910029
0.93446946
0.935006724
0.93650812
0.936327269
0.935667736
0.93568989
0.935147724
0.934027542
0.933440079
0.93336927
0.934384499
0.937183213
0.939355953
0.937990967
0.935610323
0.935377224
0.936852068
0.937252124
0.936169922
0.935659975
0.935663939
0.934362176
0.932138956
0.930372735
0.929627403
0.931390541
0.936186799
0.94131334
0.942229555
0.938758681
0.935308467
0.935081858
0.936793875
0.936999633
0.936298742
0.936256024
0.936498419
0.936627961
0.936576855
0.936436199
0.93641061
0.936499015
0.936533374
0.936427699
0.936259964
0.936159152
0.936202941
0.936410507
0.936719064
0.936982607
0.937093574
0.937028142
0.936817152
0.936522325
0.936208201
0.935921881
0.935693237
0.935534308
0.935413034
0.93526386
0.935340987
0.936182429
0.936307096
0.933501678
0.933437433
0.938694781
0.943158991
0.944371464
0.948952215
0.938780816
0.904681974
0.90465862
0.905562911
0.926011143
0.957405271
0.939799913
0.904998544
0.907040663
0.905417631
0.907824247
0.968952338
0.969454776
0.950500651
0.938458263
0.905250645
0.90612014
0.951443749
0.944388855
0.904799763
0.905847182
0.955504213
0.950197634
0.904653675
0.905454758
0.958271931
0.958414213
0.953909545
0.938240164
0.904717213
0.905311307
0.904731156
0.905334483
0.904748052
0.905275625
0.970195477
0.970655458
0.95482535
0.957503808
0.940099095
0.904875399
0.904483634
0.90474429
0.90457793
0.90454983
0.963774758
0.963884979
0.951415961
0.949202532
0.944224295
0.936667117
0.904686824
0.904172176
0.946431233
0.943936869
0.904243835
0.904291087
0.952432159
0.95242232
0.95159407
0.938794263
0.904252501
0.904215469
0.904169509
0.904288342
0.904041316
0.960520919
0.960654039
0.952610618
0.941222442
0.904255461
0.904165433
0.950837574
0.943191058
0.903961211
0.9044118
0.955207349
0.955309079
0.949037792
0.947856258
0.933361881
0.90449895
0.903966965
0.950007619
0.942890604
0.903792756
0.904201146
0.955759087
0.955895036
0.939593458
0.904128696
0.903878362
0.904322675
0.90414886
0.964557734
0.964821774
0.956097688
0.924586169
0.904913945
0.905611268
0.90481752
0.956462846
0.95722965
0.950946757
0.940076435
0.904742684
0.904148405
0.953638774
0.942753449
0.904527518
0.904026555
0.962209376
0.940141988
0.904474397
0.952370809
0.965475927
0.940805749
0.904426544
0.903921779
0.959712961
0.956755344
0.953650092
0.940823738
0.904301778
0.904081689
0.90448592
0.904207053
0.904625213
0.904489062
0.904618494
0.968193615
0.968180616
0.958840267
0.947333231
0.904559519
0.904531651
0.955130405
0.955104166
0.950492716
0.940104458
0.904326396
0.904240334
0.950860556
0.943833789
0.904101777
0.904218232
0.95178982
0.9455869
0.904110229
0.904258548
0.953446025
0.944618762
0.904478298
0.904404327
0.960213108
0.939743968
0.905141821
0.95509859
0.970379126
0.944884588
0.904660464
0.904982883
0.904973738
0.905177662
0.963259956
0.963342825
0.943474999
0.90445625
0.904515565
0.904184816
0.959614095
0.959662965
0.949465798
0.950685722
0.93644024
0.90424351
0.903568246
0.949486639
0.944362124
0.903746209
0.903636056
0.951530229
0.94750165
0.903437225
0.903678215
0.952972925
0.949412241
0.903269255
0.903726468
0.95373804
0.950417273
0.903193506
0.903794189
0.954016337
0.950968514
0.903168069
0.903916796
0.95387388
0.953964864
0.950116485
0.938896833
0.903108886
0.904019591
0.954244002
0.954439956
0.940141132
0.904027359
0.90296433
0.956150087
0.944932208
0.903509095
0.903417214
0.962500479
0.962702812
0.945556949
0.903281164
0.903516763
0.95920766
0.959387206
0.944485992
0.903805106
0.903488057
0.903885335
0.903574182
0.903918071
0.957287144
0.965506339
0.938871317
0.904074776
0.904231748
0.903963835
0.956679192
0.957147687
0.904329282
0.904140336
0.960171595
0.959021173
0.961342004
0.938944672
0.904114247
0.904531292
0.904168397
0.955042871
0.948409785
0.904090936
0.904643999
0.904203365
0.964175272
0.964510039
0.955428952
0.950245901
0.95113484
0.939369059
0.904137941
0.904169963
0.904144409
0.904121888
0.904258114
0.904214227
0.965984267
0.966352452
0.95945339
0.947693914
0.904346273
0.904332631
0.956020361
0.948898297
0.904206262
0.90443597
0.954761654
0.949900969
0.90410889
0.904562481
0.954410089
0.950352714
0.904066242
0.904679664
0.954308355
0.950479058
0.904074062
0.904784738
0.954285105
0.950452586
0.904123875
0.904837516
0.954267157
0.954309494
0.949524226
0.940451208
0.904221895
0.904710937
0.948363087
0.94831342
0.944775082
0.93827891
0.904716104
0.904645534
0.948902451
0.939989924
0.904425637
0.904853154
0.904640615
0.904787117
0.963641903
0.963612311
0.958441744
0.947409535
0.904735014
0.904737194
0.956101031
0.955122315
0.953190273
0.940043628
0.904716207
0.904593103
0.904986251
0.904655763
0.905206054
0.904879684
0.905203435
0.969223239
0.969301173
0.961305782
0.947376993
0.904864996
0.905265554
0.95901866
0.947479156
0.904452437
0.905668637
0.962418342
0.962883269
0.944533165
0.905229622
0.904692431
0.959074845
0.949299715
0.904897969
0.904965751
0.958159247
0.952461777
0.904758012
0.905106217
0.957917148
0.956586957
0.957975473
0.93812397
0.905015607
0.905017917
0.904938037
0.960102032
0.960343485
0.956266489
0.940553344
0.90467863
0.904944353
0.904862246
0.904963142
0.959014853
0.95902441
0.95466842
0.939880695
0.90465193
0.905180729
0.904766256
0.905313909
0.961298808
0.961538538
0.949330955
0.953731143
0.938997787
0.905417559
0.905159518
0.955564037
0.955659469
0.945072964
0.90494232
0.906039388
0.955179702
0.905429597
0.905724272
0.962280672
0.960722529
0.939477627
0.905178292
0.904813176
0.953429104
0.94276279
0.904581757
0.904347618
0.904715795
0.904230475
0.904751358
0.964268533
0.964616981
0.951211966
0.95545262
0.939834575
0.90462655
0.903709977
0.952403699
0.943254838
0.904193684
0.903812016
0.953318662
0.945856974
0.904052178
0.903770427
0.955478996
0.945566153
0.903998434
0.903677567
0.962807492
0.939668304
0.903266953
0.949984583
0.950665886
0.903688212
0.903860575
0.960250562
0.96046455
0.949554678
0.954215343
0.939506779
0.903684711
0.903414653
0.953752985
0.953845978
0.941158674
0.903986886
0.903489803
0.903953854
0.903533612
0.903862638
0.960494929
0.968978954
0.940680663
0.903736458
0.904050886
0.903389679
0.958019495
0.958270932
0.954185701
0.939034767
0.903995519
0.90396043
0.903862902
0.904055212
0.903724628
0.963624499
0.963655819
0.958676487
0.945100446
0.9037879
0.904328958
0.961747804
0.962038842
0.946989481
0.904308517
0.903655204
0.956868406
0.956727713
0.951687744
0.943104862
0.904356401
0.904201585
0.904527159
0.904164648
0.904698023
0.904218591
0.90497109
0.973943385
0.980056487
0.953689666
0.904903962
0.904615561
0.965122849
0.962879762
0.957492678
0.94671298
0.90500615
0.904788414
0.905126139
0.904793233
0.905360266
0.904860241
0.905903269
0.974660413
0.975218544
0.959222984
0.964285007
0.943380059
0.905493027
0.905310271
0.957655412
0.946797212
0.905121147
0.905658018
0.956611771
0.947256617
0.904690456
0.906152324
0.95824406
0.958566961
0.944086946
0.905469114
0.90481662
0.905834899
0.956137449
0.959129761
0.940995357
0.905563307
0.905282444
0.955392881
0.945176356
0.905194259
0.905482728
0.955488776
0.948616481
0.904973385
0.905560179
0.956333837
0.951255156
0.904857598
0.905538196
0.956637984
0.955854694
0.956023598
0.939692295
0.904905631
0.904799872
0.905256725
0.904923102
0.905207512
0.96414647
0.964200293
0.957261711
0.944931542
0.904642495
0.904844582
0.954993595
0.94846805
0.904390789
0.905052349
0.953369743
0.953284021
0.951799294
0.93869703
0.90419308
0.90512586
0.904203434
0.904916151
0.965948437
0.966374561
0.955161821
0.957646914
0.942332868
0.904437231
0.903741913
0.904423302
0.903844834
0.904288905
0.962503746
0.962909799
0.949467873
0.9537958
0.938892612
0.904429964
0.903448173
0.951621453
0.938885395
0.903782742
0.904136757
0.90375894
0.904030659
0.963793493
0.964786034
0.946339184
0.904017924
0.903303694
0.959302261
0.950245662
0.903711964
0.903617073
0.957597589
0.951663187
0.903604891
0.9038311
0.957041848
0.952663499
0.903594595
0.90399726
0.957016819
0.953367877
0.903621908
0.904160733
0.957192404
0.95381254
0.903671295
0.904322411
0.95739026
0.954069471
0.903736785
0.904476308
0.957550446
0.954200624
0.903813412
0.904618952
0.957663885
0.954248871
0.903898124
0.904748763
0.957731578
0.954235227
0.903990953
0.904864614
0.957745902
0.95415541
0.904095231
0.904965399
0.957683411
0.953969974
0.904216921
0.905052004
0.957518448
0.953586241
0.904360216
0.905130137
0.957295805
0.952844669
0.904518651
0.90521049
0.957330979
0.95148534
0.904664144
0.905307881
0.958613624
0.948798211
0.904770973
0.90539803
0.964191772
0.942589921
0.904953152
0.952331599
0.952664896
0.904778398
0.905415688
0.963657908
0.965132388
0.948268509
0.905139981
0.905512465
0.963677584
0.952412979
0.904858988
0.906003592
0.966742684
0.96713411
0.95752972
0.962033523
0.946450099
0.904942549
0.904934992
0.905092313
0.905043665
0.905393045
0.905185176
0.905726114
0.905401692
0.90581839
0.969078796
0.969156268
0.961633519
0.949986548
0.905283764
0.90544472
0.957856707
0.950674922
0.904996803
0.905372281
0.957221306
0.952227509
0.9048097
0.905224695
0.957415428
0.957497342
0.95375744
0.945271633
0.904689705
0.90500418
0.952456916
0.951945
0.950647811
0.940879473
0.904465478
0.905029777
0.953189328
0.945099207
0.904095437
0.905375115
0.955950177
0.956184957
0.945818843
0.905087536
0.904373871
0.905168831
0.904489267
0.905391482
0.904633845
0.90561372
0.965189805
0.971162129
0.949758034
0.9055838
0.905063203
0.962367074
0.949642983
0.905209236
0.905464358
0.962482249
0.962590059
0.947431737
0.905022433
0.90568246
0.961039438
0.961312749
0.947402564
0.905538413
0.905146019
0.959253302
0.950410001
0.905338274
0.905390088
0.959326993
0.952377532
0.905220633
0.905656085
0.960817477
0.952057941
0.904998875
0.90604553
0.964303889
0.964667606
0.949310363
0.905629912
0.905338
0.905715989
0.905421489
0.96242791
0.962833926
0.95911674
0.946770356
0.905558433
0.905577174
0.905650609
0.905536632
0.962671434
0.962882017
0.958270125
0.947987655
0.905560921
0.9054511
0.956803257
0.950687089
0.905356396
0.905442849
0.956393465
0.953081003
0.90524244
0.905486057
0.95559602
0.954754659
0.954474517
0.938428425
0.905499743
0.90548469
0.905473111
0.905563768
0.905382874
0.961786559
0.962035076
0.956827476
0.945940562
0.905380593
0.905460255
0.956473202
0.946758918
0.904878785
0.9057656
0.960242043
0.960520281
0.945767351
0.905545604
0.904836022
0.957600237
0.950752097
0.905298639
0.905040547
0.955675893
0.954674966
0.954299396
0.940657069
0.905134587
0.905321171
0.905170232
0.905266306
0.967729566
0.967913186
0.954399901
0.961867041
0.940873924
0.905202942
0.905382554
0.904939553
0.957856964
0.9580009
0.95656312
0.94081901
0.905161433
0.905233108
0.905290028
0.905053975
0.905443409
0.90495049
0.972697534
0.972968806
0.959626988
0.954924238
0.951296743
0.940906944
0.905668841
0.905118854
0.90565757
0.9050451
0.90555188
0.905070503
0.905511717
0.967857804
0.968855232
0.953516658
0.958540974
0.940883397
0.905673298
0.90442186
0.954000929
0.945897482
0.9051761
0.904575506
0.953829018
0.949706582
0.904887591
0.904661219
0.954388605
0.954181326
0.952690132
0.939649941
0.904853425
0.904799805
0.904689137
0.957240562
0.964001523
0.943191503
0.904613908
0.904149431
0.956885431
0.953162887
0.952746314
0.938279089
0.904502785
0.904749477
0.904468844
0.904686857
0.904482039
0.90459256
0.966232299
0.966582183
0.951614163
0.956241598
0.939537296
0.904963821
0.903912158
0.953988889
0.939934141
0.904304788
0.904473431
0.904330878
0.904393242
0.966337851
0.966554023
0.955616972
0.955146868
0.946691258
0.949139491
0.938333263
0.904782027
0.90381509
0.949442837
0.942105638
0.904388709
0.904124849
0.953435783
0.942924039
0.904136144
0.904425867
0.904395477
0.904324562
0.963563757
0.963630899
0.95835107
0.943156339
0.904534296
0.904347299
0.904769015
0.904401191
0.9049647
0.973531811
0.973850655
0.960919473
0.960594074
0.950381349
0.95409427
0.940037848
0.904652368
0.904835815
0.953321397
0.953426537
0.947235919
0.930697063
0.904777989
0.905498868
0.904792452
0.905470127
0.904865789
0.90556772
0.90505555
0.905663678
0.96960738
0.969743242
0.956696059
0.951749365
0.950821682
0.939520144
0.905101948
0.905181499
0.951107786
0.939710132
0.904763747
0.905454126
0.904848313
0.905744153
0.963955003
0.964300038
0.941488435
0.904919386
0.905485338
0.960499488
0.960733581
0.940294041
0.905024685
0.905465808
0.904992813
0.905855962
0.96713946
0.967547465
0.944166412
0.905268214
0.905339624
0.960356435
0.948485653
0.904963756
0.905600813
0.958194305
0.950437543
0.904820881
0.905706402
0.957869073
0.951882013
0.904730456
0.905747704
0.958283236
0.953094008
0.90468136
0.905743215
0.958727953
0.954253677
0.904702384
0.905678044
0.958577453
0.958267355
0.957910511
0.938166394
0.905257842
0.90525929
0.905140199
0.959938587
0.960194636
0.953512133
0.941338876
0.90489352
0.904934401
0.953488747
0.946710311
0.904639863
0.905064229
0.955060679
0.955117452
0.951238078
0.934153974
0.905105339
0.904958596
0.905195739
0.904994677
0.904939324
0.966091081
0.966132454
0.958661482
0.945123001
0.904551027
0.904494915
0.957856634
0.94974032
0.904230939
0.904564697
0.958315915
0.95130806
0.903986457
0.904540745
0.959632639
0.950054416
0.903718451
0.904593992
0.964094184
0.964445263
0.9437265
0.904138201
0.904028357
0.958577741
0.958712209
0.940833775
0.904036034
0.904074856
0.904068223
0.904300249
0.904011388
0.959531593
0.959638121
0.955854699
0.939462988
0.904430823
0.904425609
0.904484964
0.904563182
0.904490753
0.972290903
0.97248009
0.962650576
0.956454857
0.958691
0.94033953
0.904308159
0.904416166
0.904423987
0.904419889
0.90463801
0.904569063
0.962389433
0.962427496
0.955512857
0.942694158
0.904441147
0.904922804
0.956140708
0.956309445
0.940146936
0.904341212
0.904702448
0.95628228
0.956438683
0.94212399
0.904503775
0.904247975
0.955097046
0.947612107
0.904367188
0.904386045
0.954182557
0.954136789
0.95015543
0.941318422
0.904406985
0.904589105
0.949313618
0.949209183
0.945674881
0.938934433
0.90491324
0.904704255
0.949163718
0.939487291
0.904938783
0.904887156
0.905093429
0.905054144
0.905282751
0.958368942
0.958715435
0.905286418
0.905349136
0.958681177
0.958771627
0.954334005
0.94168837
0.905608347
0.905442916
0.957515259
0.940897781
0.90536353
0.905307368
0.905647556
0.962570728
0.964479775
0.951556884
0.957001061
0.941058163
0.905742731
0.905305327
0.955467999
0.946859444
0.90540406
0.905428748
0.957498247
0.952118348
0.905248843
0.905510903
0.959367042
0.955596404
0.905245343
0.905529261
0.959297769
0.959199534
0.956757752
0.941115525
0.905383562
0.905185417
0.90567162
0.905276889
0.905648059
0.961089124
0.96117393
0.90531442
0.905773797
0.959420046
0.957057728
0.905364013
0.905789694
0.957926724
0.957945187
0.953717171
0.940268007
0.905323994
0.905643086
0.905480345
0.905402113
0.960800834
0.960782944
0.954817836
0.942461303
0.905170448
0.905246775
0.955629894
0.945034588
0.904629515
0.90548715
0.96089963
0.961216572
0.943014885
0.905246435
0.904453853
0.95717203
0.948935326
0.904852602
0.904683939
0.955123715
0.955139572
0.951267884
0.939902264
0.904600951
0.904869018
0.904672296
0.904585865
0.957631402
0.956458481
0.904497212
0.904828073
0.958507749
0.954670244
0.904362647
0.904901603
0.960119131
0.951961729
0.904115177
0.905138044
0.965617388
0.966207451
0.946166213
0.904854292
0.903977827
0.956792206
0.954833305
0.950792463
0.939960337
0.90461454
0.904457543
0.904372417
0.904511494
0.90412358
0.962639141
0.962923946
0.955389873
0.943689499
0.904318266
0.904024341
0.953998525
0.947686607
0.904046207
0.904084512
0.953989925
0.949752557
0.90386844
0.904184503
0.954527506
0.950938502
0.903752585
0.904302657
0.955358533
0.95544498
0.95077041
0.939562622
0.903652358
0.904134927
0.954659299
0.954814426
0.939203325
0.904295827
0.903639737
0.904258087
0.903547819
0.958508137
0.958707767
0.952825415
0.939799004
0.90370624
0.903654441
0.954524843
0.954575624
0.939448478
0.903733306
0.903704826
0.903758675
0.903576896
0.903845406
0.903358365
0.96615768
0.966463323
0.957683569
0.94563978
0.903651269
0.903157373
0.955095561
0.948817825
0.90335779
0.903115161
0.954781888
0.954749567
0.949546978
0.940432954
0.902974814
0.902760713
0.949311132
0.94921401
0.945918844
0.938254649
0.902641978
0.902319191
0.948808471
0.940962757
0.901914117
0.90262978
0.955325598
0.956005965
0.941331376
0.902444931
0.901201205
0.953342796
0.946778597
0.902037938
0.901234886
0.950735979
0.950248806
0.947660379
0.936795689
0.90194227
0.901826817
0.901535687
0.901801308
0.901076719
0.955834744
0.956015114
0.952216265
0.941579961
0.901124897
0.901550255
0.953150422
0.95409589
0.942693561
0.901475105
0.900079043
0.953218022
0.947289322
0.901041747
0.899842644
0.953014088
0.951231107
0.900706903
0.899681317
0.950732868
0.951029794
0.948282489
0.940934405
0.900409084
0.89991088
0.899859118
0.899369346
0.899198685
0.898843178
0.898668075
0.959561938
0.971346726
0.953162593
0.89918457
0.897749422
0.954314654
0.951406494
0.898197503
0.896614953
0.946972029
0.949002619
0.897949962
0.89521438
0.941416203
0.945935429
0.896619048
0.893347532
0.933556439
0.93929805
0.940420986
0.935620005
0.891961426
0.889242938
0.888468093
0.886548925
0.922122168
0.935764656
0.93257572
0.927101923
0.927689474
0.926903599
0.883867519
0.878936011
0.910514489
0.916769347
0.890104486
0.876887907
0.909027798
0.918799449
0.895130786
0.877777484
0.908310621
0.92678798
0.9316418
0.908148381
0.881300888
0.880276934
0.881432418
0.910146441
0.929409862
0.935942102
0.935704941
0.937560498
0.940029383
0.920146916
0.892103458
0.916979491
0.930481308
0.925891198
0.895585281
0.893664869
0.895866428
0.895913711
0.896220988
0.919782657
0.944693996
0.954548725
0.954149244
0.953644404
0.957802453
0.935828535
0.901792373
0.918863767
0.942482944
0.956506936
0.938011364
0.903450771
0.902904433
0.904428636
0.921733214
0.94408194
0.95373247
0.961650635
0.941154549
0.905192682
0.904034478
0.906637055
0.90580307
0.906981083
0.92354683
0.960921298
0.943691001
0.905621392
0.924988919
0.962427712
0.964313621
0.960142712
0.968713398
0.944356433
0.908008965
0.908284483
0.909653272
0.909985903
0.910558498
0.928388574
0.963874176
0.968475223
0.964471619
0.970507464
0.947058154
0.911767019
0.912378561
0.9376437
0.959722749
0.963244037
0.964954202
0.950119183
0.915347472
0.916072579
0.917536033
0.918906536
0.944290494
0.974457448
0.975251101
0.974503739
0.955489131
0.92280309
0.92354668
0.926755722
0.956840444
0.981089503
0.980246086
0.974120179
0.956391513
0.929635283
0.961266622
0.971163063
0.954099291
0.929819733
0.962871197
0.981416216
0.965652676
0.938810174
0.923567142
0.933231355
0.958461413
0.958147762
0.930093844
0.919959402
0.930765477
0.969542554
0.973242566
0.966933393
0.968039585
0.952810643
0.917815059
0.919033826
0.963994161
0.9714214
0.95187763
0.932582708
0.914163645
0.914863968
0.914332815
0.914533172
0.934891085
0.957985336
0.947833697
0.91313704
0.924560704
0.96878525
0.967666785
0.961204684
0.945821441
0.910894985
0.924899423
0.959146057
0.944739223
0.909513006
0.92600374
0.964612056
0.963110253
0.953541077
0.941509863
0.906459475
0.907497319
0.938616695
0.960491387
0.959885468
0.939139414
0.906223275
0.92787837
0.959182312
0.957337493
0.946469956
0.935568578
0.905346212
0.905051502
0.905688329
0.904406044
0.906218807
0.903518896
0.90612259
0.94106376
0.962919038
0.954061822
0.953671513
0.941327932
0.905008638
0.903130699
0.904805789
0.937114704
0.962873801
0.957737387
0.953053504
0.954028213
0.936062496
0.904196906
0.926510403
0.949606416
0.938739908
0.904382389
0.902373379
0.904169184
0.901820243
0.903900986
0.940634495
0.966451281
0.956745414
0.958933982
0.957293078
0.951954467
0.955283284
0.938769436
0.903261673
0.902132634
0.960606896
0.960831244
0.95161307
0.945131572
0.922680014
0.903407834
0.904548821
0.934250463
0.944525551
0.935737004
0.903731066
0.902529857
0.90358075
0.902285757
0.903807817
0.937087234
0.956598891
0.940690731
0.903351088
0.902233869
0.962490023
0.967098003
0.93973676
0.904390954
0.902049105
0.904471391
0.901773106
0.904480448
0.940796943
0.96410027
0.95443173
0.956476706
0.953548376
0.950913282
0.947002666
0.945930533
0.936606604
0.904353727
0.904070313
0.947295093
0.944764271
0.904058873
0.904681904
0.951924292
0.94780298
0.903979155
0.904890315
0.953608908
0.946867373
0.904171525
0.905380638
0.952990671
0.953172383
0.945015717
0.950701919
0.950034503
0.95257738
0.949835116
0.952354114
0.941686438
0.904758999
0.904124551
0.904815878
0.903979371
0.905125814
0.903848028
0.905625551
0.903833602
0.906174716
0.904193963
0.906239841
0.948335435
0.969168154
0.957519864
0.96140959
0.957979808
0.952785903
0.954575236
0.940222112
0.904908789
0.90486583
0.905621644
0.90531893
0.906180191
0.962123982
0.962159006
0.954807361
0.939835282
0.905104715
0.905056129
0.905860862
0.905339143
0.906557608
0.967320136
0.967525492
0.956877046
0.939339256
0.904586752
0.906122279
0.964092021
0.964513156
0.93950108
0.905080028
0.905138637
0.956907473
0.946414304
0.904777691
0.905387825
0.959701513
0.959720306
0.953659616
0.939122732
0.904834398
0.904883332
0.955110179
0.939828306
0.904935864
0.904957702
0.905870471
0.905392124
0.90613572
0.970342599
0.970455958
0.961354211
0.940061864
0.905695339
0.906224274
0.906061201
0.90635467
0.968054002
0.950457201
0.906207715
0.906071358
0.906422793
0.972412437
0.972529137
0.961420651
0.943302531
0.905238522
0.906302232
0.966738329
0.967121719
0.94157602
0.905130412
0.905259674
0.95869036
0.956873363
0.954734654
0.938225701
0.904754925
0.90486749
0.9048507
0.952292607
0.944312917
0.904832936
0.904826322
0.905215088
0.962947119
0.973251614
0.939639955
0.905266574
0.904829078
0.905505854
0.954799533
0.953106144
0.904758429
0.906317565
0.905062771
0.906311796
0.972737777
0.973506479
0.956252012
0.959916484
0.941221358
0.906183307
0.905394985
0.906058876
0.905667955
0.905642615
0.965920552
0.96602914
0.958070215
0.940643254
0.905564174
0.906302987
0.905581043
0.906011916
0.966969029
0.967332037
0.952504277
0.955372569
0.940287076
0.905737621
0.904846732
0.905654817
0.904888099
0.905575606
0.964161402
0.972436525
0.940498894
0.905096594
0.905005441
0.96192222
0.962038563
0.940286915
0.90436314
0.904534897
0.955679523
0.945880473
0.903834806
0.904427961
0.952310621
0.945039468
0.903618001
0.904590384
0.954338623
0.954406537
0.94790555
0.949460829
0.947256762
0.947933027
0.947422912
0.946240921
0.945656261
0.932347958
0.903271186
0.904230748
0.903386852
0.904191781
0.903674449
0.904190029
0.904112206
0.904187916
0.953940509
0.954702145
0.950338759
0.942141361
0.903893639
0.904509094
0.956069506
0.950389442
0.903751712
0.904926645
0.956540553
0.956737017
0.947705738
0.936854824
0.903950216
0.905000407
0.942385444
0.952848551
0.944692658
0.950563128
0.941525126
0.904782582
0.904703675
0.94679396
0.946771001
0.945927373
0.940538612
0.904502658
0.90514314
0.954034732
0.954110135
0.940956029
0.905214832
0.90461234
0.905345429
0.904854804
0.905441481
0.960519758
0.970435113
0.94328902
0.905536581
0.905367187
0.962817391
0.962958014
0.943452396
0.905134581
0.905793758
0.905109072
0.90588531
0.970848159
0.971310257
0.960196047
0.960344218
0.950033909
0.954248262
0.940126224
0.905633661
0.905181283
0.957128383
0.945519508
0.904841102
0.904941561
0.904725905
0.905156721
0.904812148
0.905093028
0.959388681
0.959515149
0.952938692
0.942856284
0.904630667
0.904332406
0.948780683
0.940221841
0.904015758
0.904076012
0.904034739
0.904194912
0.90406435
0.95168919
0.958289204
0.951788492
0.951196729
0.954867081
0.941391752
0.904011985
0.904556446
0.904227874
0.905082887
0.964180513
0.964329527
0.956601731
0.954142409
0.949575485
0.945459994
0.904635828
0.905812669
0.941629318
0.905624078
0.905245522
0.959393555
0.951261779
0.905534958
0.905683996
0.959641803
0.954368193
0.905392235
0.906026109
0.961101065
0.966889067
0.952873867
0.905571543
0.905401072
0.905859083
0.905427654
0.964012197
0.960577084
0.959804013
0.946477808
0.905827877
0.905862323
0.905955259
0.905879112
0.906052819
0.905996872
0.960289511
0.965780054
0.953144617
0.96241185
0.946300269
0.906011957
0.906131245
0.959099783
0.96215246
0.95006941
0.905706409
0.906375311
0.956971578
0.96036549
0.946809552
0.905703983
0.906300573
0.95371164
0.956941361
0.942769565
0.905981976
0.905635636
0.953876253
0.945675227
0.905311821
0.905506833
0.905138349
0.905422594
0.955493045
0.965135636
0.942630255
0.905273012
0.904888492
0.905439406
0.904823365
0.954809026
0.957207604
0.949854379
0.953265092
0.940212432
0.90538357
0.904720258
0.948791573
0.952951193
0.951032276
0.948242641
0.953050152
0.941813948
0.905195586
0.905758172
0.954659322
0.961831983
0.952955832
0.905862131
0.905645194
0.961482932
0.961400702
0.964418742
0.955565487
0.906137809
0.906108812
0.906197525
0.90597309
0.956804872
0.962582755
0.953089724
0.935626269
0.906823654
0.906666053
0.906697656
0.906496921
0.906316605
0.906474726
0.948085106
0.958593707
0.943145173
0.907655179
0.905634863
0.954007226
0.958365338
0.959454756
0.954055499
0.924278216
0.908143387
0.90845024
0.953187793
0.958614579
0.951288895
0.955015279
0.939929676
0.908841208
0.907926168
0.908369259
0.908036165
0.964742669
0.974716826
0.953366808
0.909066215
0.907585327
0.963574283
0.956782342
0.908773528
0.907451259
0.962910559
0.956862271
0.908078909
0.907998641
0.96707464
0.970312557
0.950714198
0.907955101
0.906529316
0.960506982
0.958831385
0.954608845
0.941849931
0.907186558
0.906546332
0.906961016
0.905752831
0.961887966
0.962040459
0.952407345
0.942338569
0.906331781
0.905122591
0.950063507
0.941627875
0.906126131
0.90591572
0.90583735
0.906004911
0.9054751
0.969116627
0.969656287
0.958047127
0.957848679
0.953953788
0.950927679
0.959674738
0.940949341
0.905246856
0.905675139
0.905251572
0.947714671
0.939538275
0.905959288
0.906036995
0.90631524
0.905681823
0.906225837
0.905742358
0.905659476
0.974086242
0.974130944
0.960847338
0.942674951
0.905487693
0.904860433
0.961866871
0.942794083
0.905360928
0.905222189
0.905061159
0.970119791
0.97040901
0.953573691
0.957072594
0.939050117
0.904965115
0.904865869
0.957340186
0.957466776
0.939483051
0.904934193
0.90465783
0.952332101
0.952293761
0.943011557
0.936997323
0.904527001
0.904594878
0.946339853
0.938669381
0.904604164
0.904422744
0.905093667
0.904471869
0.905301034
0.974387225
0.975431555
0.940539008
0.904428282
0.905150836
0.967586384
0.96815338
0.955538053
0.96090042
0.943219471
0.907387325
0.904150036
0.907944211
0.904366533
0.907240208
0.904646021
0.906499376
0.970950655
0.971376418
0.957217833
0.940443691
0.904403857
0.904885348
0.957621591
0.957586361
0.951132843
0.938551932
0.904184591
0.904618562
0.954761224
0.938867682
0.904160579
0.904101678
0.904933437
0.904270787
0.905813565
0.90466802
0.906207096
0.972070316
0.972472221
0.956826528
0.953096532
0.953295818
0.938090015
0.904519327
0.905083393
0.904641764
0.905513991
0.96195238
0.946056106
0.904644084
0.904390186
0.905443795
0.969568738
0.970001752
0.953514525
0.957984766
0.938208797
0.904426568
0.904690163
0.904507462
0.905193261
0.966882362
0.966907701
0.958269193
0.942012052
0.904587961
0.904827436
0.962925729
0.963005858
0.962308359
0.939658775
0.90436568
0.904488898
0.904628565
0.945847357
0.938861915
0.904993711
0.905075413
0.905560667
0.904933756
0.905937805
0.904932702
0.905895772
0.968457289
0.968939944
0.953469652
0.958165563
0.939929341
0.904736878
0.9047549
0.959056715
0.959166453
0.948442939
0.950537794
0.938324219
0.904873371
0.904531338
0.950568869
0.942741334
0.904399228
0.904781304
0.95297217
0.9468975
0.904143751
0.904793229
0.955042721
0.949389836
0.904005468
0.90469297
0.956332867
0.949806336
0.904004583
0.904540304
0.957369326
0.947156719
0.904102883
0.90430319
0.964300867
0.93967965
0.903766276
0.95074201
0.951558485
0.903901477
0.903971022
0.963312237
0.96334728
0.952798646
0.948993655
0.945469136
0.938500708
0.904226741
0.903775171
0.904450438
0.903813477
0.904657379
0.903942744
0.904790496
0.959298829
0.964435414
0.94023919
0.904807013
0.904026531
0.958110102
0.948245207
0.904603844
0.904369693
0.955826071
0.955865139
0.952669479
0.93954076
0.904801101
0.904667444
0.904867214
0.904833639
0.904871283
0.970912025
0.97099829
0.958513552
0.953767486
0.952772729
0.940141185
0.904860587
0.904763355
0.951365999
0.951070108
0.947834778
0.939878624
0.904846947
0.904853055
0.950394555
0.941500656
0.904485178
0.905335046
0.955897872
0.95608273
0.940656295
0.904949589
0.904820302
0.905073486
0.904969823
0.905314683
0.905292464
0.968202665
0.96843108
0.962463903
0.946087863
0.905503434
0.905633423
0.905645825
0.905833446
0.970596191
0.970732667
0.958921693
0.953791223
0.953486652
0.940766905
0.905901461
0.905900943
0.954971511
0.945081415
0.905489242
0.906483212
0.959566256
0.959832955
0.945245761
0.906023971
0.905882472
0.90625466
0.906038943
0.906509026
0.906332076
0.906656325
0.975627999
0.975614056
0.965529941
0.951837715
0.906727779
0.906820084
0.963967788
0.956474524
0.906662019
0.906773032