/*--------------------------------*- C++ -*----------------------------------*\
| =========                 |                                                 |
| \\      /  F ield         | OpenFOAM: The Open Source CFD Toolbox           |
|  \\    /   O peration     | Version:  2306                                  |
|   \\  /    A nd           | Website:  www.openfoam.com                      |
|    \\/     M anipulation  |                                                 |
\*---------------------------------------------------------------------------*/
FoamFile
{
    version     2.0;
    format      ascii;
    arch        "LSB;label=32;scalar=64";
    class       volScalarField;
    location    "0.00016";
    object      Z;
}
// * * * * * * * * * * * * * * * * * * * * * * * * * * * * * * * * * * * * * //

dimensions      [0 0 0 0 0 0 0];

internalField   nonuniform List<scalar> 
3816
(
0.0144826588
0.0144667044
0.0144617101
0.0144617084
0.0144617069
0.0144617069
0.0144617069
0.0144617069
0.0144617069
0.0144617069
0.0144617069
0.0144617069
0.0144617069
0.0144617069
0.0144617069
0.0144617069
0.0144617069
0.0144617069
0.0144617069
0.0144617069
0.0144617069
0.0144617069
0.0144617069
0.0144617069
0.0144617069
0.0144617069
0.0144617069
0.0144617069
0.0144617069
0.0144617069
0.0144617069
0.0144617069
0.0144617069
0.0144617069
0.0144617069
0.0144617069
0.0144617069
0.0144617069
0.0144617069
0.0144617069
0.0144617069
0.0144617069
0.0144617069
0.0144617069
0.0144617069
0.0144617069
0.0144617069
0.0144617069
0.0144617069
0.0144617069
0.0144617069
0.0144617069
0.0144617069
0.0144617069
0.0144617069
0.0144617069
0.0144617069
0.0144617069
0.0144617069
0.0144617069
0.0144617069
0.0144617069
0.0144617069
0.0144617069
0.0144617069
0.0144617069
0.0144617069
0.0144617069
0.0144617069
0.0144617069
0.0144617069
0.0144617069
0.0144617069
0.0144617069
0.0144617069
0.0144617069
0.0144617069
0.014461707
0.0144617071
0.0144617075
0.0144617084
0.0144617105
0.0144617148
0.0144617233
0.0144617386
0.0144617652
0.0144618079
0.0144618734
0.0144619691
0.0144621016
0.0144622627
0.0144625065
0.0144630548
0.0144628355
0.0144607253
0.0144621047
0.0144815033
0.0144828007
0.014418077
0.0144165924
0.0145473767
0.0147215716
0.0147222848
0.0147603292
0.0145380731
0.0140837699
0.0140846989
0.0140930491
0.0143015594
0.0148170964
0.014655219
0.0140842548
0.0141112875
0.0140889204
0.0141519311
0.0148955918
0.0149052998
0.014774278
0.0146257067
0.0140767051
0.01411063
0.0147780434
0.0147339426
0.0140761368
0.0141102104
0.0148047561
0.0147745853
0.0140777895
0.0141074002
0.0148236767
0.0148293368
0.0147961109
0.0145878626
0.0140800153
0.0140813763
0.0140832859
0.014093383
0.0140862398
0.0141038856
0.014903106
0.014910799
0.0148001989
0.0148246839
0.0146977335
0.0140783457
0.0140722517
0.014086566
0.0140786424
0.0140941624
0.0148613188
0.0148637022
0.0147786512
0.0147640703
0.0147293905
0.0145010896
0.0140715273
0.0140792006
0.0147444655
0.0147261477
0.0140723262
0.0140855316
0.0147829395
0.0147846806
0.0147785474
0.0145854492
0.014077408
0.0140685788
0.0140849185
0.0140752546
0.0140918676
0.0148389692
0.0148395152
0.0147872413
0.0147049072
0.0140742721
0.0140796758
0.0147727393
0.0147204324
0.0140729056
0.0140844362
0.0148002617
0.0148051325
0.0147589452
0.0147528972
0.0144150375
0.0140725428
0.014080529
0.0147667245
0.0147159801
0.0140716221
0.0140793471
0.0148020369
0.0148077104
0.0146004906
0.0140745251
0.0140725704
0.0140794551
0.0140862493
0.0148654674
0.0148703874
0.0148084527
0.0142915702
0.0140874688
0.0140882586
0.0140971197
0.0148146634
0.0148172578
0.0147776538
0.0146787581
0.0140771689
0.0140788798
0.0147934343
0.0147124129
0.0140795179
0.0140786546
0.0148504722
0.0146320809
0.0140908312
0.0147775835
0.0148740595
0.0146939427
0.0140824919
0.014083966
0.0148323214
0.014809364
0.0147928966
0.0146979099
0.0140733103
0.01406911
0.0140825271
0.0140755728
0.0140918104
0.0140816201
0.0141010182
0.0148895652
0.0148896246
0.0148288367
0.0147475366
0.0140787102
0.0140897476
0.0148017166
0.0148018259
0.014771482
0.0146835183
0.0140731419
0.0140808893
0.0147717608
0.0147223876
0.0140719724
0.0140835153
0.0147774563
0.014735033
0.0140730194
0.0140844113
0.0147902844
0.014729006
0.0140787087
0.0140835656
0.0148404883
0.0146761311
0.0140970353
0.0148021971
0.0149114079
0.0147314932
0.0140942246
0.0140857524
0.014094268
0.0140990472
0.0148621373
0.0148639349
0.0147260867
0.0140810307
0.0140759884
0.0140890249
0.0148333189
0.0148357125
0.014763177
0.0147744999
0.0144913453
0.0140738684
0.0140779118
0.014766101
0.0147281623
0.0140719113
0.0140818033
0.0147780117
0.0147513249
0.0140712357
0.0140842151
0.0147869323
0.0147656051
0.0140710814
0.0140856528
0.0147919111
0.0147735465
0.0140711407
0.0140866119
0.0147939622
0.014778469
0.0140712144
0.0140879253
0.0147931344
0.014800158
0.0147690149
0.0146661217
0.0140701315
0.0140777877
0.0147944694
0.0148050734
0.0146763582
0.0140790548
0.0140725187
0.0148136512
0.0147316028
0.014078128
0.0140785384
0.0148528505
0.0148560784
0.0147367627
0.014077702
0.0140803607
0.0148294947
0.0148354162
0.0147281526
0.0140759894
0.0140696514
0.0140826997
0.0140734867
0.0140893171
0.0148177571
0.0148780026
0.0146226976
0.0140847994
0.0140722462
0.0140891909
0.0148174023
0.0148196923
0.0140811757
0.0140918231
0.014840819
0.0148325541
0.01484979
0.0146476922
0.0140868226
0.0140731425
0.0140914347
0.0148056625
0.0147599985
0.0140840969
0.0140810654
0.0140920677
0.0148662939
0.0148671377
0.0148081217
0.0147700706
0.0147785238
0.0146380662
0.0140729224
0.0140731218
0.0140773658
0.0140833056
0.0140814245
0.0140949843
0.0148750106
0.0148763139
0.0148328627
0.0147484176
0.0140784248
0.0140843025
0.014807597
0.0147576577
0.0140751692
0.014086054
0.0147973962
0.0147649332
0.0140734839
0.0140875391
0.0147938886
0.0147684537
0.0140727019
0.0140886436
0.0147925976
0.0147697151
0.0140724742
0.0140895008
0.0147922488
0.0147698977
0.0140726012
0.0140898114
0.0147923132
0.0147967416
0.0147616354
0.0146988978
0.0140698535
0.0140835911
0.0147518276
0.0147555289
0.0147288113
0.0145496363
0.0140707877
0.0140792188
0.0147588642
0.0146934001
0.0140752852
0.0140805379
0.014079723
0.0140954156
0.0148580728
0.0148581923
0.0148250533
0.0147468362
0.0140791944
0.0140907617
0.014808065
0.014801451
0.0147901671
0.0146675016
0.0140775995
0.0140707305
0.0140865158
0.0140772868
0.0140958326
0.0140834134
0.0141054122
0.014896375
0.0148978301
0.0148453865
0.014749635
0.0140819524
0.0140925893
0.0148278441
0.014753084
0.0140793625
0.0140940476
0.0148476101
0.0148589357
0.014724576
0.0140851156
0.014087668
0.0148297939
0.0147607711
0.0140806654
0.01409268
0.0148216939
0.0147838407
0.0140789713
0.01409621
0.0148193168
0.0148122688
0.0148214051
0.0145455783
0.0140880324
0.0140733888
0.0140972262
0.0148350352
0.0148366428
0.0148106844
0.0146988254
0.0140790869
0.0140818299
0.0140803398
0.0140975285
0.0148269324
0.0148283869
0.0147990206
0.0146731197
0.0140780259
0.0140806446
0.0140797883
0.0140958462
0.0148409665
0.014847347
0.0147596124
0.0147951114
0.0145827833
0.0140808602
0.0140847448
0.0148081284
0.0148080661
0.0147397731
0.0140790105
0.0141122634
0.014800015
0.0141011244
0.0141016677
0.014853135
0.0148452374
0.0146747902
0.0140821088
0.0140837052
0.0147915368
0.014714849
0.0140751393
0.0140716644
0.0140854299
0.0140761379
0.0140955761
0.0148602965
0.0148685745
0.0147711672
0.0148079132
0.0146186903
0.0140781098
0.0140768585
0.0147858594
0.0147181798
0.0140753868
0.0140811681
0.0147911267
0.0147381718
0.0140757911
0.0140823236
0.0148065128
0.0147366606
0.0140793297
0.0140797293
0.0148561077
0.0146779752
0.0140839311
0.0147688657
0.0147737583
0.0140746421
0.0140849684
0.0148372648
0.0148431647
0.0147643742
0.0148015467
0.0146535495
0.0140753877
0.014076098
0.0147939987
0.01479969
0.0147064812
0.014075514
0.0140695764
0.0140837357
0.0140750116
0.0140914964
0.0148412369
0.0149029087
0.014706825
0.0140868901
0.0140749845
0.0140887195
0.0148290164
0.0148289134
0.0148053683
0.0146966016
0.0140814691
0.0140732394
0.0140875959
0.0140799971
0.0140927203
0.0148659248
0.0148666158
0.014834119
0.0147413219
0.0140814363
0.0140855741
0.0148505303
0.0148578341
0.0147491194
0.014084093
0.0140842634
0.0148209733
0.014817275
0.014787142
0.0147234472
0.0140769329
0.0140753596
0.0140854851
0.0140806189
0.0140938897
0.0140856822
0.014102731
0.0149290146
0.0149724198
0.0147937195
0.0140928163
0.0140940433
0.0148738323
0.0148562296
0.0148238939
0.0147452854
0.0140805679
0.0140779934
0.0140874747
0.0140826258
0.0140954019
0.0140870495
0.0141075746
0.0149303294
0.0149383205
0.0148277518
0.01486783
0.0147177367
0.0140857642
0.0140882014
0.0148197722
0.0147432577
0.0140795937
0.0140923069
0.014808841
0.0147482013
0.0140761258
0.0140955833
0.0148157231
0.014827137
0.0147171031
0.0140770841
0.0140702504
0.0140914831
0.0148015436
0.01483054
0.0146875546
0.014081818
0.0140870356
0.0148016254
0.0147286881
0.0140776877
0.0140924348
0.0148003107
0.0147543624
0.0140764862
0.0140959579
0.0148053234
0.0147737895
0.0140763444
0.0140986297
0.0148076214
0.0148052216
0.014805588
0.0146071512
0.0140806178
0.0140699724
0.0140919568
0.0140775188
0.0141029228
0.014860891
0.0148629172
0.0148167495
0.0147307403
0.0140779711
0.0140915617
0.014800361
0.0147595296
0.0140754431
0.0140960759
0.0147893358
0.014795008
0.0147806858
0.0146342701
0.0140774153
0.0140843112
0.0140808632
0.014098594
0.0148750074
0.0148840699
0.0148020698
0.0148262045
0.0147128306
0.0140771548
0.0140709621
0.0140865491
0.0140767939
0.0140944305
0.014854138
0.0148631351
0.0147658643
0.0148030439
0.0146202681
0.0140798465
0.0140752479
0.0147857922
0.0146747057
0.0140782109
0.0140789805
0.0140805599
0.0140892576
0.0148635941
0.0148753519
0.0147438755
0.0140841112
0.0140819952
0.0148361011
0.0147726183
0.0140791805
0.0140858224
0.0148227759
0.0147836795
0.0140771968
0.0140878928
0.0148180059
0.0147908343
0.0140764509
0.0140893003
0.0148170766
0.014795595
0.0140761666
0.0140904808
0.0148175746
0.0147984117
0.0140760673
0.0140914908
0.0148182578
0.014799814
0.0140760392
0.0140923464
0.014818709
0.0148002465
0.0140760361
0.0140930647
0.0148188628
0.0148000253
0.0140760457
0.0140936581
0.014818739
0.0147993187
0.0140760798
0.0140941253
0.0148183251
0.0147981259
0.0140761691
0.0140944451
0.0148175279
0.0147962127
0.0140763578
0.0140945747
0.0148162459
0.0147929922
0.0140767006
0.0140944607
0.0148148213
0.0147874316
0.0140773019
0.0140940453
0.014815346
0.0147777819
0.0140784634
0.0140931577
0.0148243707
0.0147590848
0.0140813566
0.0140908369
0.0148626663
0.0147140824
0.0140955014
0.0147815793
0.0147846397
0.0140782831
0.0140912646
0.0148566103
0.0148707835
0.0147523191
0.0140854448
0.0140945575
0.0148585356
0.0147854351
0.0140836366
0.0141000357
0.0148770826
0.0148854169
0.0148152614
0.0148506753
0.0147388597
0.0140767325
0.014075545
0.0140845725
0.014080145
0.0140918609
0.0140841269
0.0140995603
0.0140877469
0.0141080563
0.0148957478
0.0148974379
0.0148480465
0.0147678093
0.014083413
0.0140928845
0.014821101
0.0147735319
0.01408001
0.0140928928
0.0148152976
0.0147834543
0.0140784941
0.0140923233
0.0148157508
0.0148186759
0.0147922892
0.0147332783
0.0140751731
0.0140869155
0.0147812799
0.0147808048
0.0147701869
0.0147023872
0.014072927
0.0140824082
0.0147844937
0.0147340068
0.0140718194
0.0140864905
0.0148004561
0.0148115269
0.0147302185
0.0140754971
0.0140702513
0.0140821731
0.0140746388
0.0140895768
0.0140785911
0.0140973206
0.014864726
0.01491088
0.0147600511
0.0140886425
0.0140850093
0.0148507412
0.014762096
0.0140832468
0.0140866071
0.0148486338
0.014851436
0.0147465015
0.014081231
0.014087203
0.014836141
0.0148440082
0.0147422995
0.0140832251
0.0140828922
0.0148274371
0.0147645396
0.014080491
0.014086112
0.0148260334
0.0147788542
0.0140795715
0.0140883377
0.0148344491
0.0147778136
0.0140794537
0.0140894911
0.0148556211
0.0148639437
0.0147534322
0.0140835241
0.0140813871
0.0140839391
0.0140925338
0.0148464821
0.0148479311
0.0148254908
0.014737458
0.0140810663
0.0140811017
0.0140823917
0.0140918188
0.0148470224
0.0148475599
0.0148189266
0.0147448573
0.0140789673
0.014082957
0.014806992
0.0147640988
0.01407653
0.0140849551
0.0148028027
0.0147808626
0.0140750904
0.0140867569
0.0147967233
0.0147930156
0.0147905318
0.0145216995
0.014080193
0.0140700428
0.0140854132
0.0140764553
0.0140904533
0.0148404967
0.0148417294
0.0148084367
0.0147309748
0.0140771116
0.0140805682
0.0148033383
0.0147385815
0.0140749149
0.0140831091
0.0148254492
0.0148349846
0.01472536
0.0140803856
0.0140774865
0.014812737
0.014762328
0.0140765972
0.0140827045
0.014798222
0.0147917189
0.0147902704
0.0146513575
0.0140774151
0.0140754045
0.0140806165
0.0140862262
0.0148780859
0.0148823295
0.014788389
0.0148433268
0.0146646542
0.0140818075
0.0140713053
0.0140857729
0.0148139799
0.0148140066
0.0148070492
0.0146707866
0.0140790831
0.0140750196
0.0140833712
0.0140847938
0.0140870758
0.0140927793
0.0149137554
0.0149139011
0.0148292319
0.0147935919
0.0147746585
0.014691647
0.0140753047
0.0140696055
0.0140822708
0.0140747803
0.0140887393
0.0140797187
0.0140938649
0.0148802998
0.0148926567
0.0147835545
0.0148259866
0.0146611245
0.0140811779
0.0140724159
0.0147929762
0.0147315667
0.0140767547
0.0140784269
0.0147896421
0.0147602599
0.0140750626
0.0140833723
0.0147927333
0.0147923718
0.0147832216
0.0146099597
0.0140791802
0.0140698244
0.0140861303
0.0148111044
0.0148614148
0.0147139687
0.0140800351
0.0140792798
0.0148108036
0.0147859544
0.0147836376
0.0145485134
0.0140759862
0.0140745171
0.0140787157
0.014084725
0.0140813794
0.0140921753
0.0148743898
0.0148813467
0.0147753726
0.0148139152
0.014608183
0.0140802938
0.0140733189
0.0147971228
0.0146927501
0.0140790743
0.0140796508
0.0140817124
0.0140918613
0.0148765248
0.0148813361
0.0148044791
0.0148060268
0.0147425234
0.0147653342
0.0145506787
0.0140756275
0.0140752289
0.0147665158
0.0147107834
0.0140752367
0.01408029
0.0147917781
0.0147179851
0.014077556
0.0140823372
0.0140811223
0.0140958472
0.0148598495
0.0148594029
0.0148266929
0.0147179611
0.0140812527
0.0140748115
0.0140917682
0.0140819733
0.0141032352
0.0149232527
0.0149283754
0.0148395434
0.0148413337
0.0147672964
0.0147976707
0.0146641332
0.0140765167
0.0140857977
0.0147876991
0.0147934454
0.0147447196
0.0143694498
0.0140740856
0.014082834
0.0140781091
0.014088437
0.0140819622
0.0140969678
0.0140856529
0.0141095861
0.0148971745
0.0148991762
0.0148122922
0.0147766289
0.0147727588
0.014604211
0.0140753838
0.0140851916
0.014772334
0.0146368722
0.014076089
0.0140802494
0.0140793102
0.0140981283
0.0148568866
0.0148641776
0.0147025701
0.0140818731
0.0140924105
0.014833268
0.0148402596
0.0146527418
0.0140826218
0.0140824312
0.0140835507
0.014102246
0.014878303
0.0148868524
0.0147213081
0.0140855796
0.014096061
0.0148356233
0.014755809
0.0140801164
0.01410029
0.0148198927
0.0147711293
0.014078331
0.0141023558
0.0148172636
0.0147821614
0.0140779066
0.0141037333
0.0148200342
0.0147912208
0.0140781007
0.0141046079
0.0148233889
0.0147996896
0.0140786196
0.0141055825
0.014823491
0.0148262078
0.0148218455
0.0145589789
0.0140906596
0.0140750387
0.0141006859
0.0148364879
0.014838501
0.014794717
0.0147080332
0.0140786566
0.0140916333
0.0147923271
0.0147481648
0.0140773085
0.0140945656
0.0148025422
0.0148073656
0.0147775923
0.014440125
0.0140840782
0.0140767426
0.0140949249
0.0140827943
0.0141042599
0.0148791535
0.0148799906
0.0148309023
0.0147364033
0.0140815283
0.0140911072
0.0148230886
0.0147693833
0.0140791305
0.0140937085
0.014824871
0.014780733
0.0140782322
0.0140936017
0.0148328923
0.0147722052
0.014078642
0.0140903674
0.0148616036
0.0148701096
0.0147223423
0.0140819408
0.0140838173
0.0148263111
0.0148305327
0.0147033125
0.0140764858
0.0140708871
0.0140855602
0.0140770211
0.0140943533
0.0148353806
0.0148354233
0.0148130652
0.0146871511
0.0140834475
0.014075007
0.0140912468
0.0140838421
0.0140991406
0.014919949
0.0149201739
0.0148576289
0.0148130944
0.0148316245
0.0147010111
0.0140797001
0.0140766961
0.0140821741
0.0140864687
0.0140840232
0.0140970075
0.0148532111
0.0148534047
0.0148081966
0.014717994
0.0140778381
0.0140833497
0.0148073226
0.0148129231
0.0146942958
0.0140769745
0.0140807925
0.0148058451
0.0148118398
0.0147060494
0.014076891
0.0140783459
0.0147992707
0.0147448458
0.0140739475
0.0140831304
0.0147908205
0.0147905986
0.0147645142
0.0146996056
0.014069849
0.0140793442
0.0147555487
0.0147558375
0.014731564
0.0145456211
0.0140695416
0.0140736122
0.0147560019
0.0145729597
0.0140766695
0.0140671276
0.0140845577
0.01407321
0.0140958589
0.0148175959
0.0148200575
0.0140783492
0.0140925077
0.0148207647
0.0148204902
0.0147935226
0.0147005008
0.0140788088
0.0140801693
0.0148133549
0.0146651341
0.0140827828
0.0140716323
0.0140921764
0.0148429561
0.0148603661
0.0147671276
0.0148109619
0.0146403729
0.0140790002
0.0140807656
0.014798141
0.0147353112
0.0140766669
0.0140871508
0.0148096064
0.0147725513
0.0140765052
0.0140912835
0.0148213563
0.0147969086
0.0140769465
0.0140939267
0.0148213006
0.0148213602
0.0148064469
0.0146559981
0.01407982
0.0140682927
0.0140904619
0.01407421
0.0141006993
0.0148337063
0.0148374269
0.0140781769
0.0140975909
0.014823459
0.0148109745
0.0140779552
0.0140956499
0.0148144461
0.0148178733
0.0147880332
0.0146600548
0.014077756
0.0140807704
0.0140802937
0.0140939049
0.0148357443
0.0148363224
0.0147969835
0.0147097757
0.0140767849
0.0140835298
0.0147998411
0.0147298513
0.0140755064
0.0140857003
0.0148326568
0.0148428822
0.0147090589
0.0140813871
0.0140798528
0.0148127434
0.0147537327
0.0140763856
0.014086394
0.0147969678
0.0147990402
0.014772048
0.0146344505
0.0140737265
0.0140784002
0.0140756593
0.0140906293
0.0148141759
0.0148093024
0.0140758968
0.0140908956
0.0148200803
0.0147984116
0.0140763225
0.0140902612
0.0148309382
0.0147809319
0.014077723
0.0140891182
0.0148666887
0.0148780675
0.014733787
0.0140828465
0.0140816755
0.0148124686
0.0147967176
0.0147728343
0.0146439117
0.0140744233
0.0140692628
0.0140829337
0.0140761112
0.0140904603
0.0148510479
0.0148525294
0.0148040757
0.0147200532
0.0140754573
0.0140791121
0.0147923091
0.0147486404
0.014072941
0.0140826384
0.0147910914
0.0147643939
0.0140720857
0.0140851379
0.0147943945
0.0147738498
0.0140721429
0.0140879052
0.0148000169
0.0148056356
0.014770478
0.0146580915
0.014070836
0.0140763205
0.0147952515
0.0148027724
0.0145877937
0.0140784989
0.0140741673
0.014079598
0.0140876178
0.0148267856
0.0148270704
0.0147897899
0.0146910049
0.0140742748
0.0140759135
0.0147982837
0.0148025837
0.0146546294
0.0140744419
0.0140743702
0.0140789689
0.0140855655
0.0140830173
0.0140938713
0.0148815358
0.0148827443
0.0148271954
0.0147414137
0.0140791012
0.0140806384
0.0148088952
0.0147651528
0.0140768475
0.0140839831
0.0148067495
0.0148078883
0.0147731818
0.0147086032
0.0140724652
0.0140781329
0.0147697144
0.0147711415
0.0147482445
0.0146454098
0.0140700813
0.0140712908
0.0147673896
0.0147154327
0.0140703773
0.0140771844
0.0148093981
0.0148230638
0.0147124933
0.0140777235
0.014068763
0.0148037057
0.0147538029
0.0140740543
0.0140738334
0.0147856284
0.0147817628
0.0147668636
0.0145927827
0.0140753606
0.0140670888
0.0140787255
0.0140732904
0.0140790687
0.0148241092
0.0148259894
0.0148014353
0.0147289738
0.0140742002
0.0140745462
0.0148042896
0.0148184253
0.0147321728
0.0140792594
0.0140649327
0.0148122671
0.0147653739
0.014078252
0.0140684178
0.0148116754
0.0147958387
0.0140778342
0.0140715363
0.0147986807
0.0147996364
0.0147865374
0.0147335614
0.0140816278
0.0140717788
0.0140818962
0.0140747474
0.0140827905
0.0140774443
0.0140807527
0.0148646204
0.0149495471
0.0148261495
0.0140962072
0.0140733259
0.014842921
0.0148210308
0.014091843
0.0140731036
0.0148010488
0.0148129643
0.0141055091
0.0140735323
0.0147757559
0.0148044865
0.0141152744
0.0140733704
0.0147328879
0.0147783492
0.014796527
0.0147677538
0.0141068922
0.014072362
0.0140787636
0.0140714754
0.0146800437
0.0148060601
0.0147941234
0.0147628043
0.0147843849
0.0147820547
0.0141385895
0.0140721487
0.0146010544
0.0147307172
0.014229394
0.0140804977
0.0145876225
0.0147573118
0.0142852256
0.0140941841
0.0144972063
0.0148067897
0.0148337252
0.0144210295
0.0141082268
0.0140809421
0.0140824125
0.0144076048
0.0147715712
0.0148135162
0.0148050978
0.014810543
0.0148247357
0.0144583769
0.014106472
0.0143779789
0.0147324623
0.0145118201
0.0141127582
0.0140770341
0.0140909064
0.014081347
0.0140775961
0.0143234378
0.0147726558
0.0148397325
0.0148353064
0.0148229478
0.0148580433
0.014595843
0.0140984899
0.0142643841
0.0147341979
0.0148389718
0.0146085459
0.0140993625
0.0140765532
0.0140868357
0.0142700801
0.0147338861
0.0147932865
0.0148518567
0.0146448288
0.014097042
0.0140689051
0.0140983403
0.0140857342
0.0140905499
0.0142647387
0.0148285898
0.0147070282
0.0140810021
0.0142698173
0.0148294952
0.0148483795
0.0148085509
0.0148741062
0.0146414883
0.0140819373
0.0140725082
0.0140915138
0.0140886637
0.0140900022
0.0142731896
0.0148188585
0.0148547424
0.0148105463
0.0148593087
0.014557658
0.0140744053
0.0140718934
0.0143410655
0.0147683207
0.0147861264
0.0147929886
0.0145470089
0.0140686826
0.0140689104
0.0140854253
0.0140869163
0.0143459689
0.0148237675
0.0148209755
0.0148080657
0.0144936675
0.0140764138
0.0140762026
0.0141100194
0.014426761
0.0148273337
0.0148123905
0.0147708788
0.014402222
0.0141102035
0.0144680385
0.0147462227
0.0143641957
0.0141190907
0.0145252208
0.0148303168
0.0147081476
0.0142209233
0.0140733933
0.0141940254
0.0146969047
0.0146717167
0.0141792662
0.0140736328
0.0142055242
0.0147988482
0.0148335594
0.014785188
0.014808421
0.0146443472
0.0141165759
0.0141420816
0.014797693
0.014852005
0.0147006343
0.0142681124
0.0140797139
0.0140903303
0.0140933872
0.0140936227
0.0143084319
0.014773321
0.0146806529
0.0141054774
0.0142185617
0.0148527066
0.0148454932
0.0148050967
0.0146092851
0.0140975744
0.0142386104
0.0148002656
0.0146517226
0.0140940849
0.0142616749
0.0148419285
0.0148333949
0.0147700413
0.0145483623
0.0140727923
0.0140839866
0.0144553254
0.0148223297
0.0148202806
0.0145053586
0.0140893283
0.0143113298
0.0148223703
0.0148095487
0.0147358267
0.0144398278
0.0140738432
0.0140721407
0.0140843853
0.0140724399
0.0140940517
0.0140642994
0.0140994009
0.014568998
0.0148545984
0.0147777387
0.0147904704
0.0146152857
0.014075312
0.0140577564
0.0140848245
0.0144635398
0.0148532163
0.0148122658
0.0147866649
0.0147918626
0.0144687047
0.0140764493
0.0143138564
0.0147652775
0.0145578591
0.0140756101
0.0140583477
0.0140866968
0.0140561839
0.0140949679
0.0146668486
0.0148891437
0.0148128464
0.014838152
0.0148223747
0.0147879341
0.0148124609
0.0146338806
0.014081078
0.0140778577
0.0148496833
0.0148475538
0.0147939552
0.0147401579
0.0142809015
0.0140681477
0.014084988
0.0144448242
0.0147363931
0.0144762162
0.014071086
0.0140613493
0.0140766098
0.0140596174
0.0140816718
0.0144959219
0.0148169813
0.0146716013
0.0140775637
0.0140750939
0.014849854
0.0148859169
0.0146020363
0.0140828563
0.014054364
0.014087888
0.0140526231
0.0140934767
0.0146300931
0.0148696353
0.0147914843
0.0148180211
0.0147893885
0.0147787808
0.0147460938
0.0147423138
0.0144957489
0.0140712181
0.0140814971
0.0147485501
0.0147294015
0.014070441
0.0140892142
0.0147760322
0.0147504036
0.0140703914
0.0140908708
0.0147845125
0.0147419115
0.0140698373
0.0140895098
0.0147782717
0.0147866067
0.0147226846
0.0147675346
0.0147547273
0.0147777127
0.0147505365
0.0147737313
0.0146229154
0.0140664407
0.0140615632
0.0140730363
0.014065984
0.0140800079
0.0140677366
0.0140872722
0.0140670094
0.0140959731
0.0140654453
0.0141065767
0.0147439977
0.0148944976
0.014807864
0.0148407106
0.0148138871
0.0147801552
0.0147934553
0.0146195263
0.0140732919
0.0140696189
0.014091398
0.0140784454
0.0141151733
0.0148483673
0.0148497125
0.0148009681
0.0146407615
0.0140793489
0.0140737788
0.0140982007
0.0140826013
0.0141235069
0.0148853048
0.0148899075
0.0148168531
0.0146974691
0.0140819314
0.0141065306
0.0148635522
0.0148743953
0.0146801293
0.0140877196
0.0141059759
0.0148205692
0.0147499497
0.0140837548
0.0141110167
0.0148383859
0.0148404649
0.0147992272
0.0146793781
0.014081346
0.0140981265
0.014806266
0.0146980971
0.014083359
0.0140771913
0.0141028052
0.0140858418
0.0141213363
0.0149052735
0.0149065393
0.0148473621
0.0146981744
0.014088715
0.014094562
0.0140916795
0.0141176219
0.0148901795
0.0147717443
0.014099694
0.0140878739
0.0141214277
0.0149178774
0.0149202887
0.0148472648
0.0147233512
0.0140865318
0.014105734
0.0148799372
0.0148884747
0.0147084512
0.0140876208
0.0141041295
0.0148298261
0.0148182483
0.0148045781
0.0145815782
0.0140843581
0.0140728459
0.0141028985
0.0147877054
0.0147299695
0.0140871419
0.0140786472
0.014103458
0.0148555227
0.0149280391
0.0146455681
0.014091833
0.0140707364
0.0141075173
0.0147962579
0.0147917988
0.0140791429
0.0140975415
0.0140838793
0.0141093722
0.0149123991
0.0149235643
0.0148009742
0.0148336121
0.014671956
0.014080708
0.0140704941
0.0140920993
0.0140780607
0.0141013649
0.0148661666
0.0148684838
0.0148151655
0.0146711631
0.0140801832
0.014086255
0.0140821366
0.0141010334
0.0148722211
0.0148809664
0.0147742013
0.0148010813
0.0145930811
0.0140757846
0.0140673666
0.0140884294
0.0140746091
0.0141018466
0.0148563918
0.0149179311
0.0146710794
0.0140868729
0.0140917262
0.0148451114
0.0148492475
0.0146883778
0.0140784688
0.0140901368
0.0148031147
0.0147371791
0.0140721715
0.0140918571
0.0147795628
0.0147330559
0.014070678
0.0140912808
0.0147929505
0.0147993559
0.0147486679
0.0147632077
0.0147428184
0.0147511104
0.014742011
0.014739387
0.0147271169
0.0143968174
0.0140617262
0.014070906
0.014063467
0.0140730111
0.0140658143
0.0140772424
0.0140690527
0.0140834336
0.0147883004
0.0147935643
0.0147622969
0.0147035479
0.0140680258
0.0140842146
0.0147961062
0.0147618323
0.0140674081
0.0140878747
0.0147964755
0.0148070509
0.0147337062
0.0144735596
0.0140573803
0.0140753421
0.0146880958
0.0147785802
0.0147121981
0.0147615895
0.0146286131
0.0140668341
0.0140757266
0.0147324223
0.0147354697
0.0147266475
0.0146124894
0.0140657346
0.0140766956
0.0147809474
0.0147883788
0.0146054342
0.0140721075
0.0140640459
0.0140834892
0.014071044
0.0140948863
0.0148292394
0.0149019824
0.0147116635
0.014086012
0.0140858661
0.0148485913
0.0148521721
0.0147159551
0.0140835081
0.0140867179
0.0140849502
0.0141030297
0.0149013287
0.0149098247
0.0148311469
0.01483839
0.0147628247
0.0147990975
0.0146637128
0.0140823272
0.0140861738
0.0148158245
0.0147332451
0.0140800931
0.014078362
0.0140809036
0.014088488
0.0140817496
0.0141005143
0.0148304427
0.014830638
0.0147889831
0.0147124567
0.0140744848
0.0140786974
0.0147577103
0.0146642113
0.0140719431
0.0140642568
0.0140757522
0.0140680227
0.0140823318
0.0147760382
0.0148204731
0.0147763723
0.0147705235
0.0147977761
0.0147004101
0.0140753214
0.014074954
0.0140781262
0.01409113
0.0148574826
0.0148606623
0.0148069775
0.0147914348
0.0147587134
0.0147312519
0.0140652887
0.0140846231
0.014697074
0.0140785818
0.0140761992
0.0148247336
0.0147648331
0.0140785406
0.01408171
0.014823426
0.0147873457
0.0140768206
0.0140839263
0.0148291809
0.0148716812
0.0147714489
0.014078151
0.0140739796
0.0140808688
0.0140794731
0.0148492428
0.0148214256
0.0148215898
0.0147245913
0.0140739564
0.0140693627
0.0140758523
0.0140740907
0.0140765289
0.0140795973
0.0148197817
0.0148588853
0.0147705907
0.0148368886
0.0147231621
0.0140752986
0.0140735552
0.0148115798
0.0148326013
0.0147505644
0.0140734925
0.0140764335
0.0147953347
0.0148225068
0.0147269622
0.0140721873
0.0140739147
0.0147721759
0.0148011422
0.014693249
0.0140719673
0.0140656283
0.0147775702
0.0147179698
0.0140698547
0.0140690567
0.0140692869
0.0140753025
0.0147837887
0.0148547368
0.0146547052
0.0140743827
0.0140615614
0.0140738569
0.0140669741
0.0147839798
0.014799521
0.0147481116
0.0147739422
0.0145345712
0.0140675206
0.0140623964
0.0147445086
0.0147703058
0.0147607386
0.0147385451
0.0147751906
0.0146627934
0.0140708943
0.0140705636
0.014782793
0.0148366391
0.0147713466
0.0140808712
0.0140733429
0.0148336788
0.0148296128
0.0148540699
0.0147906695
0.014083333
0.0140764939
0.0140800838
0.0140770619
0.0147959705
0.0148369595
0.0147710402
0.0144140854
0.0140729607
0.0140745148
0.014070085
0.0140738408
0.0140657675
0.014070573
0.0147235532
0.014806145
0.0145789528
0.014081034
0.0140592145
0.0147731969
0.0147933767
0.0148133416
0.0147666582
0.0142530832
0.0140735261
0.0140828581
0.0147598474
0.0148013414
0.014746921
0.0147756672
0.0144667469
0.0140813539
0.0140748082
0.0140793729
0.0140814913
0.0148332456
0.0149056056
0.0147577361
0.0140910631
0.0140683355
0.0148321138
0.0147808024
0.0140853221
0.0140717189
0.0148273901
0.0147863293
0.0140828155
0.0140808784
0.0148540043
0.0148814558
0.0147450344
0.0140844551
0.0140728574
0.0148168455
0.0148034795
0.0147793066
0.0145859495
0.0140767193
0.014074767
0.0140786408
0.0140816441
0.0148306928
0.0148303953
0.0147695044
0.0146575429
0.0140724274
0.0140682797
0.0147553995
0.0146433289
0.0140761707
0.0140706834
0.0140857921
0.014079606
0.0140926897
0.0148879445
0.014891644
0.0148178956
0.0148136954
0.0147942808
0.0147656336
0.0148343381
0.0146760113
0.0140894887
0.0140698541
0.0140990348
0.0147496278
0.0146878001
0.0140843483
0.0140781129
0.0140961562
0.0140832507
0.0141070906
0.0140888683
0.0141147593
0.0149265861
0.0149273234
0.0148421318
0.0147143237
0.0140854082
0.0140908562
0.0148479551
0.014714088
0.0140905624
0.0140791935
0.0141047018
0.0149001516
0.0149051395
0.014789561
0.0148172034
0.0145913097
0.0140803008
0.0140915184
0.0148163896
0.0148220697
0.0146321709
0.0140800323
0.0140952588
0.0147845188
0.0147874318
0.0147207862
0.0145248218
0.0140712983
0.0140941732
0.0147453372
0.0146224003
0.0140782484
0.0140749957
0.0140964042
0.0140842394
0.0141159068
0.0149344447
0.0149455662
0.0147068381
0.014091961
0.014115025
0.0148904106
0.0149021421
0.0148096019
0.0148620861
0.0147208636
0.014134554
0.0140781641
0.0141266135
0.0140852055
0.0141256063
0.0140899713
0.0141380329
0.0149150503
0.0149213146
0.0148254319
0.0147094012
0.0140833284
0.0141098025
0.0148258022
0.0148278344
0.0147829956
0.0146450068
0.0140792019
0.0141031955
0.0148054454
0.0146623437
0.014079842
0.014074237