/*--------------------------------*- C++ -*----------------------------------*\
| =========                 |                                                 |
| \\      /  F ield         | OpenFOAM: The Open Source CFD Toolbox           |
|  \\    /   O peration     | Version:  2306                                  |
|   \\  /    A nd           | Website:  www.openfoam.com                      |
|    \\/     M anipulation  |                                                 |
\*---------------------------------------------------------------------------*/
FoamFile
{
    version     2.0;
    format      ascii;
    arch        "LSB;label=32;scalar=64";
    class       volScalarField;
    location    "0.00012";
    object      rho;
}
// * * * * * * * * * * * * * * * * * * * * * * * * * * * * * * * * * * * * * //

dimensions      [1 -3 0 0 0 0 0];

internalField   nonuniform List<scalar> 
531
(
0.937430178
0.937391073
0.937351414
0.937311255
0.937270583
0.93722943
0.937187863
0.937145938
0.937103702
0.937061205
0.937018501
0.936975645
0.936932693
0.9368897
0.936846724
0.936803822
0.936761054
0.936718478
0.936676153
0.93663414
0.9365925
0.936551291
0.936510576
0.936470415
0.936430867
0.936391994
0.936353854
0.936316508
0.936280013
0.936244429
0.936209812
0.936176218
0.936143703
0.93611232
0.936082122
0.936053161
0.936025486
0.935999145
0.935974184
0.935950647
0.935928577
0.935908012
0.935888991
0.935871549
0.935855718
0.935841528
0.935829006
0.935818177
0.935809062
0.935801679
0.935796044
0.935792167
0.935790058
0.935789722
0.935791161
0.935794373
0.935799353
0.935806092
0.935814578
0.935824795
0.935836723
0.93585034
0.93586562
0.935882531
0.935901041
0.935921113
0.935942706
0.935965778
0.93599028
0.936016165
0.936043378
0.936071864
0.936101566
0.936132422
0.936164369
0.936197341
0.936231272
0.936266092
0.936301729
0.93633811
0.936375163
0.936412811
0.93645098
0.936489591
0.936528568
0.936567833
0.936607309
0.936646918
0.936686583
0.936726227
0.936765775
0.936805152
0.936844283
0.936883097
0.936921523
0.936959491
0.936996934
0.937033787
0.937069987
0.937105472
0.937140185
0.937174069
0.937207072
0.937239143
0.937270235
0.937300303
0.937329305
0.937357204
0.937383964
0.937409554
0.937433943
0.937457108
0.937479025
0.937499676
0.937519044
0.937537118
0.937553887
0.937569346
0.937583492
0.937596325
0.937607847
0.937618065
0.937626988
0.937634628
0.937640999
0.937646117
0.937650004
0.937652681
0.937654172
0.937654504
0.937653707
0.93765181
0.937648847
0.937644853
0.937639863
0.937633915
0.937627049
0.937619305
0.937610725
0.937601351
0.937591227
0.937580398
0.937568908
0.937556803
0.937544129
0.937530932
0.937517258
0.937503154
0.937488667
0.937473841
0.937458724
0.93744336
0.937427793
0.937412069
0.937396231
0.93738032
0.937364378
0.937348447
0.937332564
0.937316769
0.937301098
0.937285587
0.937270269
0.937255177
0.937240343
0.937225795
0.937211561
0.937197668
0.937184139
0.937170998
0.937158266
0.937145961
0.9371341
0.9371227
0.937111774
0.937101334
0.93709139
0.937081951
0.937073023
0.937064611
0.93705672
0.937049349
0.9370425
0.937036171
0.937030359
0.937025059
0.937020265
0.937015971
0.937012167
0.937008844
0.937005991
0.937003595
0.937001644
0.937000122
0.936999015
0.936998306
0.936997979
0.936998016
0.936998397
0.936999105
0.937000118
0.937001418
0.937002982
0.93700479
0.93700682
0.93700905
0.937011458
0.937014021
0.937016716
0.93701952
0.937022411
0.937025364
0.937028358
0.937031368
0.937034372
0.937037346
0.937040268
0.937043114
0.937045862
0.93704849
0.937050974
0.937053294
0.937055428
0.937057354
0.937059051
0.9370605
0.937061679
0.93706257
0.937063154
0.937063412
0.937063327
0.937062882
0.93706206
0.937060846
0.937059225
0.937057184
0.937054711
0.937051792
0.937048418
0.937044578
0.937040265
0.937035472
0.937030191
0.937024419
0.937018153
0.937011391
0.937004133
0.936996379
0.936988133
0.9369794
0.936970186
0.936960498
0.936950347
0.936939744
0.936928703
0.936917239
0.936905368
0.936893111
0.936880487
0.93686752
0.936854234
0.936840656
0.936826813
0.936812736
0.936798457
0.936784008
0.936769425
0.936754745
0.936740005
0.936725246
0.936710507
0.93669583
0.936681259
0.936666837
0.93665261
0.936638622
0.936624919
0.936611549
0.936598556
0.936585989
0.936573893
0.936562315
0.9365513
0.936540894
0.93653114
0.936522083
0.936513764
0.936506223
0.9364995
0.936493633
0.936488655
0.936484602
0.936481503
0.936479388
0.936478281
0.936478206
0.936479184
0.93648123
0.93648436
0.936488584
0.93649391
0.93650034
0.936507876
0.936516514
0.936526248
0.936537066
0.936548956
0.936561899
0.936575875
0.936590858
0.936606821
0.936623732
0.936641557
0.936660258
0.936679794
0.936700121
0.936721194
0.936742963
0.936765378
0.936788385
0.936811931
0.936835957
0.936860407
0.93688522
0.936910337
0.936935698
0.93696124
0.936986902
0.937012624
0.937038342
0.937063998
0.937089531
0.937114881
0.937139991
0.937164804
0.937189266
0.937213322
0.937236922
0.937260015
0.937282554
0.937304495
0.937325794
0.937346411
0.937366309
0.937385452
0.937403808
0.937421347
0.937438041
0.937453868
0.937468803
0.93748283
0.937495931
0.937508092
0.937519302
0.937529553
0.937538838
0.937547154
0.937554498
0.937560871
0.937566275
0.937570716
0.9375742
0.937576735
0.937578331
0.937579
0.937578756
0.937577612
0.937575586
0.937572693
0.937568954
0.937564386
0.937559012
0.937552851
0.937545927
0.937538263
0.937529882
0.937520809
0.937511068
0.937500686
0.937489689
0.937478103
0.937465954
0.937453272
0.937440082
0.937426413
0.937412293
0.937397751
0.937382816
0.937367516
0.93735188
0.937335938
0.937319719
0.937303253
0.937286569
0.937269696
0.937252665
0.937235505
0.937218246
0.937200917
0.937183547
0.937166167
0.937148806
0.937131492
0.937114254
0.937097122
0.937080123
0.937063285
0.937046636
0.937030204
0.937014014
0.936998093
0.936982466
0.936967159
0.936952196
0.936937599
0.936923393
0.936909598
0.936896235
0.936883326
0.936870888
0.936858941
0.936847501
0.936836584
0.936826205
0.936816378
0.936807116
0.936798431
0.936790333
0.936782831
0.936775934
0.936769648
0.936763981
0.936758936
0.936754518
0.936750729
0.936747573
0.93674505
0.93674316
0.936741903
0.936741278
0.936741283
0.936741916
0.936743174
0.936745055
0.936747553
0.936750667
0.936754392
0.936758725
0.936763661
0.936769196
0.936775328
0.936782053
0.936789367
0.936797269
0.936805755
0.936814825
0.936824476
0.936834707
0.936845518
0.93685691
0.936868882
0.936881435
0.936894571
0.936908291
0.936922597
0.936937491
0.936952975
0.936969051
0.936985722
0.937002989
0.937020852
0.937039314
0.937058374
0.937078032
0.937098285
0.937119131
0.937140565
0.937162583
0.937185175
0.937208334
0.937232047
0.937256301
0.93728108
0.937306366
0.937332139
0.937358373
0.937385043
0.93741212
0.937439571
0.93746736
0.93749545
0.9375238
0.937552363
0.937581095
0.937609943
0.937638855
0.937667776
0.937696646
0.937725406
0.937753991
0.937782338
0.93781038
0.937838047
0.937865272
0.937891983
0.937918109
0.937943579
0.937968322
0.937992265
0.938015339
0.938037474
0.9380586
0.938078653
0.938097567
0.93811528
0.938131732
0.938146858
0.93816061
0.938172953
0.938183864
0.938193222
0.93820093
0.938207076
0.938211782
0.938215015
0.938216294
0.938215499
0.938213318
0.938209906
0.938204734
0.938197441
)
;

boundaryField
{
    closed
    {
        type            calculated;
        value           nonuniform List<scalar> 0();
    }
    open
    {
        type            calculated;
        value           nonuniform List<scalar> 0();
    }
    sides
    {
        type            empty;
    }
    procBoundary1to0
    {
        type            processor;
        value           uniform 0.937468527;
    }
    procBoundary1to2
    {
        type            processor;
        value           uniform 0.938188377;
    }
}


// ************************************************************************* //
