/*--------------------------------*- C++ -*----------------------------------*\
| =========                 |                                                 |
| \\      /  F ield         | OpenFOAM: The Open Source CFD Toolbox           |
|  \\    /   O peration     | Version:  2306                                  |
|   \\  /    A nd           | Website:  www.openfoam.com                      |
|    \\/     M anipulation  |                                                 |
\*---------------------------------------------------------------------------*/
FoamFile
{
    version     2.0;
    format      ascii;
    arch        "LSB;label=32;scalar=64";
    class       volScalarField;
    location    "0.00196";
    object      H2O;
}
// * * * * * * * * * * * * * * * * * * * * * * * * * * * * * * * * * * * * * //

dimensions      [0 0 0 0 0 0 0];

internalField   nonuniform List<scalar> 
531
(
0.00100782689
0.00590566817
0.00753525349
0.00728289916
0.00819613756
0.00802909715
0.000762935305
0.00100965212
0.000976653694
0.00104651649
0.0057767568
0.00692746875
0.000989976875
0.00110003317
0.00547585758
0.00680600035
0.00770479781
0.00761095855
0.000771005792
0.00104781542
0.000904660046
0.00109050607
0.00103016735
0.00611717569
0.00805484935
0.00797141408
0.00088586345
0.00100621398
0.00684671132
0.00738345714
0.000914605176
0.00104708582
0.0055095927
0.00731770016
0.00723761797
0.000928506765
0.00108647427
0.003082943
0.00698301945
0.00696726
0.000959211113
0.00110325225
0.0010370631
0.00110781154
0.00332611307
0.0068023984
0.00725005849
0.00729495771
0.00820168813
0.00819596705
0.00235086143
0.00098375891
0.000925645116
0.00103808203
0.00100390812
0.00679938623
0.00759003534
0.000837525115
0.00104300045
0.00678235072
0.00706430254
0.000899225205
0.00109790821
0.00567160636
0.00668442437
0.00770045775
0.00767292412
0.000740723232
0.00100394758
0.000972100544
0.00101316749
0.00558259994
0.00744258479
0.00722342871
0.00801635078
0.00795319739
0.000774043998
0.00106911926
0.00103765414
0.00656400153
0.0071274921
0.000771420793
0.0010090265
0.000938365948
0.000966082853
0.00732090605
0.00790924506
0.000749588044
0.000993123705
0.00576890763
0.00792037564
0.00788990466
0.000824285546
0.00100768627
0.00532591549
0.00761927489
0.00734059377
0.000854192939
0.00106476176
0.00101016661
0.00106438724
0.00661945199
0.00702423043
0.000725523047
0.00552886846
0.00816463103
0.000749975481
0.00101259778
0.00573007099
0.00708437927
0.00761730481
0.00761364264
0.000740296281
0.00108944793
0.00105033253
0.00592439262
0.00710403748
0.000815783967
0.00103417216
0.00496244858
0.00777654656
0.00776675203
0.000741266493
0.00100627622
0.00520856378
0.00761259653
0.00736528036
0.000806543355
0.00108922888
0.000984977078
0.00111534635
0.00111642341
0.0056897247
0.00771831076
0.00770008615
0.000780049729
0.00100112704
0.00499456146
0.00779540715
0.00776442274
0.000802465532
0.00569042958
0.00782537789
0.000742397912
0.0010192079
0.00592830275
0.00717339515
0.00799445746
0.0079930871
0.00132973214
0.001013405
0.000928212522
0.00107321619
0.00107401023
0.00606010428
0.00672968113
0.000772355731
0.00111798823
0.00106791545
0.00384874379
0.00677748192
0.0077691996
0.00775760162
0.000742449164
0.000997072708
0.006740126
0.00771311103
0.000742978448
0.000975815326
0.00593017223
0.00789166237
0.00811523171
0.00543465354
0.000878337152
0.00105679648
0.000991585593
0.00107701042
0.00107800227
0.0058883195
0.00786546829
0.00785187056
0.00114177193
0.000969356371
0.00564556167
0.00828567543
0.00826028758
0.00128233937
0.000987312303
0.00100054751
0.00103431853
0.00572391047
0.00696334864
0.000837383625
0.00108748383
0.00568956745
0.00682578366
0.00793282568
0.0079217003
0.00122316708
0.001021934
0.00092888875
0.00108002251
0.00108156498
0.00535518341
0.00756288563
0.00754847255
0.000798877928
0.00104491606
0.00576594373
0.00700666538
0.007697329
0.00768515352
0.000735909985
0.0010220969
0.00692835885
0.00739598723
0.000745458714
0.00104864626
0.00694217715
0.00716966448
0.000740169525
0.0010926481
0.00107726462
0.00650409394
0.00717556983
0.000839319357
0.0010458967
0.00492561372
0.00751004
0.00749953713
0.000814264199
0.00105151946
0.006403736
0.00694203996
0.000870283246
0.00110316306
0.00535620272
0.00665075009
0.00735889525
0.00735761939
0.000824296215
0.00592245095
0.00778698159
0.000813340253
0.00102071365
0.006868818
0.0073852939
0.000791595544
0.00105143795
0.00709487421
0.00724602463
0.000761345811
0.00109172907
0.000997120841
0.00648134906
0.00729516639
0.000844080071
0.00106615589
0.0069184064
0.00703324986
0.000808758832
0.00112246634
0.00104750585
0.00516548861
0.00707465112
0.00785768358
0.00785471791
0.000771780277
0.0010747356
0.000982321213
0.00469440828
0.00789855547
0.00785658732
0.000858909967
0.00104692431
0.000984233625
0.00109751304
0.00109820531
0.0060136093
0.00710370892
0.00725079118
0.00738674609
0.00830635359
0.00829475571
0.000800375947
0.000998419139
0.000998672266
0.00104303027
0.00565639596
0.00699216125
0.000980990627
0.00105985814
0.00448691809
0.00771099157
0.00770515909
0.000865221779
0.00101241161
0.00100913126
0.00102362621
0.00595891382
0.00728338475
0.00722024658
0.00734679564
0.00823538383
0.00823202607
0.000807972885
0.000993267218
0.00085593533
0.00100827344
0.000818100619
0.00776405401
0.00786743675
0.000841614989
0.00103718742
0.00721436283
0.00721432026
0.0008831202
0.00109381388
0.00103130023
0.00669628519
0.00727216112
0.000969260773
0.001025815
0.00525124544
0.00791667169
0.00789508118
0.000863925989
0.000921499501
0.000938304146
0.000829255555
0.00786477418
0.00801890852
0.000855341395
0.000984704388
0.00469908333
0.00797697962
0.00791821336
0.000876319429
0.000989986364
0.0074992058
0.00767331451
0.000788406246
0.00100833778
0.000902297803
0.00750179702
0.00821351363
0.00084175211
0.000928360902
0.00805362746
0.00839318383
0.0010335022
0.00114625603
0.00115959998
0.00853528558
0.00908375299
0.00149839193
0.00164644903
0.0016711052
0.00189545938
0.00190532781
0.00215096797
0.00218919954
0.00242354412
0.00249143608
0.00271058786
0.00280216018
0.00300320278
0.00310762043
0.00328988739
0.00339577025
0.00355208107
0.00364340749
0.00375010757
0.00379085809
0.00377260079
0.00360705921
0.00326190054
0.0034607337
0.00363078566
0.0038884943
0.00407173644
0.00438984089
0.00458565937
0.00497213335
0.00517634748
0.00563848787
0.00581963747
0.00611097402
0.00605907088
0.00563893695
0.00568227144
0.00597677454
0.00613305407
0.00666427631
0.00691876776
0.00762756782
0.00801321288
0.00886748093
0.00928810332
0.0101121797
0.0105672322
0.0106942568
0.00448957073
0.00530779974
0.0060642992
0.0070917733
0.00794381572
0.00890608673
0.00986701546
0.0107595328
0.0118446227
0.0127098962
0.0138914061
0.0138706757
0.0120680549
0.0125979259
0.0133843721
0.0104182324
0.0122067534
0.0106478762
0.0141473068
0.0115567152
0.0156189201
0.0127818514
0.0208092895
0.0211504614
0.0216961666
0.0227710958
0.0247663113
0.0271434209
0.0309696683
0.0349767617
0.0428962445
0.0472273765
0.0514341504
0.0552477029
0.0598681371
0.0648514133
0.0684664475
0.0720879767
0.0755793682
0.0791294819
0.082471654
0.0864466233
0.0895190815
0.0934311816
0.0960595271
0.0989766485
0.101084216
0.103445772
0.105364736
0.107317605
0.108982604
0.110605032
0.112030421
0.113310688
0.114554097
0.115612846
0.116768747
0.117652965
0.11871905
0.119509017
0.120432771
0.121149916
0.121981183
0.122690221
0.12346634
0.124071575
0.124574182
0.124985961
0.125425215
0.125792023
0.126177216
0.126503107
0.126842737
0.127145829
0.127460206
0.127743883
0.128039231
0.12830455
0.12860022
0.128886008
0.129146695
0.129401086
0.129636082
0.129868867
0.130084098
0.130301655
0.130502758
0.130706428
0.130890746
0.131081795
0.131255416
0.131437142
0.131610791
0.131800308
0.13198202
0.132170504
0.132337654
0.132512839
0.132667835
0.132826905
0.132965023
0.133115305
0.133246978
0.133390878
0.1335167
0.133654726
0.133776463
0.133910998
0.134029153
0.134159394
0.134273761
0.134399967
0.134510861
0.134633281
0.134741002
0.134858639
0.134960397
0.135073092
0.135171885
0.135281121
0.135377127
0.135484622
0.135581771
0.135687594
0.135781564
0.135883677
0.13597469
0.136073124
0.136159846
)
;

boundaryField
{
    closed
    {
        type            calculated;
        value           nonuniform List<scalar> 0();
    }
    open
    {
        type            calculated;
        value           nonuniform List<scalar> 0();
    }
    sides
    {
        type            empty;
    }
    procBoundary4to3
    {
        type            processor;
        value           uniform 0.000992567118;
    }
    procBoundary4to5
    {
        type            processor;
        value           uniform 0.136253875;
    }
}


// ************************************************************************* //
