/*--------------------------------*- C++ -*----------------------------------*\
| =========                 |                                                 |
| \\      /  F ield         | OpenFOAM: The Open Source CFD Toolbox           |
|  \\    /   O peration     | Version:  2306                                  |
|   \\  /    A nd           | Website:  www.openfoam.com                      |
|    \\/     M anipulation  |                                                 |
\*---------------------------------------------------------------------------*/
FoamFile
{
    version     2.0;
    format      ascii;
    arch        "LSB;label=32;scalar=64";
    class       volScalarField;
    location    "0.00196";
    object      prefDZ_H2O;
}
// * * * * * * * * * * * * * * * * * * * * * * * * * * * * * * * * * * * * * //

dimensions      [1 -1 -1 0 0 0 0];

internalField   nonuniform List<scalar> 
531
(
-7.75400474e-07
-7.4288382e-07
-7.33902753e-07
-7.34854174e-07
-7.30361283e-07
-7.30776671e-07
-7.78980455e-07
-7.75028734e-07
-7.76166815e-07
-7.74371759e-07
-7.43862388e-07
-7.3667738e-07
-7.74928684e-07
-7.73511346e-07
-7.45806576e-07
-7.37371593e-07
-7.32974164e-07
-7.33011772e-07
-7.78637996e-07
-7.74409727e-07
-7.77161843e-07
-7.7370535e-07
-7.75431642e-07
-7.41406262e-07
-7.310207e-07
-7.30992626e-07
-7.76752531e-07
-7.74943562e-07
-7.37419043e-07
-7.34331617e-07
-7.75914441e-07
-7.74572161e-07
-7.45437805e-07
-7.34879648e-07
-7.35100604e-07
-7.76163186e-07
-7.74018662e-07
-7.62433614e-07
-7.36521427e-07
-7.36672559e-07
-7.75659244e-07
-7.73594329e-07
-7.74971323e-07
-7.73399773e-07
-7.60684019e-07
-7.37303538e-07
-7.35302644e-07
-7.34810668e-07
-7.30013541e-07
-7.29959594e-07
-7.67827134e-07
-7.75678192e-07
-7.76362432e-07
-7.74894531e-07
-7.75437288e-07
-7.3770497e-07
-7.33397805e-07
-7.77442398e-07
-7.74815336e-07
-7.38011631e-07
-7.36304033e-07
-7.76752512e-07
-7.74179961e-07
-7.44670343e-07
-7.3846647e-07
-7.33096621e-07
-7.33017985e-07
-7.80242459e-07
-7.75511175e-07
-7.76145663e-07
-7.75355955e-07
-7.4507575e-07
-7.34408079e-07
-7.35336948e-07
-7.313827e-07
-7.31437015e-07
-7.78886782e-07
-7.74743754e-07
-7.75466609e-07
-7.39308918e-07
-7.36248976e-07
-7.79224487e-07
-7.75854209e-07
-7.77136085e-07
-7.76165003e-07
-7.35095631e-07
-7.31819713e-07
-7.79349521e-07
-7.75849886e-07
-7.44001945e-07
-7.3186038e-07
-7.31817894e-07
-7.77880169e-07
-7.7557404e-07
-7.46796143e-07
-7.33565529e-07
-7.34697844e-07
-7.77943434e-07
-7.74312082e-07
-7.75718232e-07
-7.74042308e-07
-7.38818255e-07
-7.3609529e-07
-7.79542788e-07
-7.45259709e-07
-7.30448061e-07
-7.78942453e-07
-7.7541305e-07
-7.44140204e-07
-7.36255345e-07
-7.33382703e-07
-7.33316081e-07
-7.79302463e-07
-7.74205461e-07
-7.74854475e-07
-7.42948136e-07
-7.35994184e-07
-7.78371189e-07
-7.74903036e-07
-7.49231896e-07
-7.32477439e-07
-7.32329022e-07
-7.79340481e-07
-7.75442655e-07
-7.47541026e-07
-7.33582721e-07
-7.34568216e-07
-7.78796151e-07
-7.74062075e-07
-7.75986838e-07
-7.73514663e-07
-7.73766787e-07
-7.4426608e-07
-7.32975372e-07
-7.32649053e-07
-7.79913362e-07
-7.75492156e-07
-7.4909659e-07
-7.32442843e-07
-7.32426352e-07
-7.78721636e-07
-7.44328357e-07
-7.32252178e-07
-7.79699889e-07
-7.75278667e-07
-7.42844359e-07
-7.35773993e-07
-7.31227212e-07
-7.31190318e-07
-7.7566035e-07
-7.75281017e-07
-7.76718259e-07
-7.74319688e-07
-7.74366989e-07
-7.42026383e-07
-7.38030355e-07
-7.7932975e-07
-7.7379666e-07
-7.74624901e-07
-7.56949797e-07
-7.37703156e-07
-7.32610944e-07
-7.32390257e-07
-7.80225001e-07
-7.75410259e-07
-7.38161322e-07
-7.32676106e-07
-7.80207366e-07
-7.75634072e-07
-7.42890708e-07
-7.31511863e-07
-7.30548836e-07
-7.45705144e-07
-7.77637718e-07
-7.73939441e-07
-7.75615432e-07
-7.73983714e-07
-7.74216061e-07
-7.43043891e-07
-7.32174242e-07
-7.31981756e-07
-7.77098715e-07
-7.76198395e-07
-7.4478943e-07
-7.29908906e-07
-7.29702777e-07
-7.76018539e-07
-7.75667579e-07
-7.75836317e-07
-7.74882005e-07
-7.44263867e-07
-7.36755102e-07
-7.78699895e-07
-7.74195823e-07
-7.4447745e-07
-7.37569894e-07
-7.31676508e-07
-7.31499973e-07
-7.76484462e-07
-7.75033541e-07
-7.76785572e-07
-7.74072785e-07
-7.74331801e-07
-7.46493485e-07
-7.33786951e-07
-7.33408095e-07
-7.79477547e-07
-7.74621573e-07
-7.43995196e-07
-7.36494571e-07
-7.33004724e-07
-7.32739405e-07
-7.80262136e-07
-7.74931101e-07
-7.37132978e-07
-7.34269726e-07
-7.79969161e-07
-7.74509324e-07
-7.36975286e-07
-7.35495184e-07
-7.79816283e-07
-7.73918614e-07
-7.74191968e-07
-7.39085166e-07
-7.35645972e-07
-7.78267584e-07
-7.74847695e-07
-7.49402383e-07
-7.33934501e-07
-7.33632747e-07
-7.78990261e-07
-7.74429454e-07
-7.39787292e-07
-7.36799475e-07
-7.77842755e-07
-7.73878921e-07
-7.46565949e-07
-7.38471718e-07
-7.34646812e-07
-7.34624736e-07
-7.78441177e-07
-7.42810448e-07
-7.32329049e-07
-7.78719852e-07
-7.75070721e-07
-7.37251792e-07
-7.3442005e-07
-7.78978545e-07
-7.74590965e-07
-7.36035484e-07
-7.3515205e-07
-7.79312298e-07
-7.74019015e-07
-7.75355252e-07
-7.3921472e-07
-7.34925865e-07
-7.78024166e-07
-7.74314349e-07
-7.3692827e-07
-7.36249712e-07
-7.78377668e-07
-7.73493859e-07
-7.74570851e-07
-7.47795173e-07
-7.36132743e-07
-7.31873066e-07
-7.31821268e-07
-7.79062204e-07
-7.74223724e-07
-7.75780861e-07
-7.50988563e-07
-7.31817683e-07
-7.31796273e-07
-7.77615738e-07
-7.74553868e-07
-7.75629955e-07
-7.73747723e-07
-7.73917141e-07
-7.42150458e-07
-7.3605854e-07
-7.35093015e-07
-7.34537665e-07
-7.29406165e-07
-7.295301e-07
-7.78410345e-07
-7.75523674e-07
-7.75482871e-07
-7.7485851e-07
-7.44614339e-07
-7.36716028e-07
-7.75633494e-07
-7.74771431e-07
-7.5245058e-07
-7.32786687e-07
-7.32683162e-07
-7.77257026e-07
-7.75139171e-07
-7.75142525e-07
-7.74943993e-07
-7.42605436e-07
-7.35110136e-07
-7.35427285e-07
-7.34814863e-07
-7.29994305e-07
-7.29973981e-07
-7.78619041e-07
-7.75816825e-07
-7.78472256e-07
-7.7558695e-07
-7.7902538e-07
-7.32395406e-07
-7.32050289e-07
-7.77485362e-07
-7.74742864e-07
-7.35310541e-07
-7.35194604e-07
-7.76551487e-07
-7.73716509e-07
-7.74644375e-07
-7.37878594e-07
-7.34977879e-07
-7.75084547e-07
-7.74837335e-07
-7.47096805e-07
-7.31470643e-07
-7.31601133e-07
-7.76953496e-07
-7.76882515e-07
-7.76167557e-07
-7.77699025e-07
-7.31532004e-07
-7.30943968e-07
-7.7636912e-07
-7.75071942e-07
-7.50649779e-07
-7.30619519e-07
-7.30663801e-07
-7.7551732e-07
-7.73790345e-07
-7.32774095e-07
-7.31495807e-07
-7.76038723e-07
-7.72835484e-07
-7.74426865e-07
-7.31874002e-07
-7.27993818e-07
-7.74507545e-07
-7.72757012e-07
-7.2831842e-07
-7.25979826e-07
-7.73197499e-07
-7.70477938e-07
-7.70973677e-07
-7.24115095e-07
-7.20655281e-07
-7.69428717e-07
-7.65691186e-07
-7.66709473e-07
-7.62654826e-07
-7.63127133e-07
-7.59289985e-07
-7.59081902e-07
-7.55604673e-07
-7.54870068e-07
-7.51653728e-07
-7.50541989e-07
-7.47531024e-07
-7.46150895e-07
-7.43291363e-07
-7.41727361e-07
-7.39017509e-07
-7.37356593e-07
-7.34900719e-07
-7.33308819e-07
-7.3153821e-07
-7.30733411e-07
-7.30800665e-07
-7.27880686e-07
-7.25409752e-07
-7.21708353e-07
-7.19101631e-07
-7.14619554e-07
-7.11884727e-07
-7.06529725e-07
-7.03723897e-07
-6.97406053e-07
-6.94799401e-07
-6.89113487e-07
-6.87954766e-07
-6.8613306e-07
-6.84055451e-07
-6.77372717e-07
-6.74275655e-07
-6.657081e-07
-6.61611751e-07
-6.51641038e-07
-6.4591306e-07
-6.33730645e-07
-6.27140433e-07
-6.1494141e-07
-6.07495342e-07
-5.9840912e-07
-6.20227467e-07
-6.07724187e-07
-5.97440962e-07
-5.83813204e-07
-5.72099631e-07
-5.58840177e-07
-5.45406269e-07
-5.32727523e-07
-5.17362778e-07
-5.05137391e-07
-4.87964414e-07
-4.7989273e-07
-4.72226787e-07
-4.6305804e-07
-4.43168835e-07
-4.5605668e-07
-4.1823678e-07
-4.0795431e-07
-3.3710689e-07
-3.43776991e-07
-2.62375742e-07
-2.73675198e-07
-1.06600565e-07
-9.13532691e-08
-3.28933584e-08
-9.062829e-09
6.49701931e-08
1.14059738e-07
2.14455108e-07
2.97370838e-07
4.83108279e-07
5.74440731e-07
6.81145219e-07
7.55474805e-07
8.582033e-07
9.44098977e-07
1.01532499e-06
1.06584652e-06
1.12914463e-06
1.17612375e-06
1.23315876e-06
1.28225445e-06
1.33234955e-06
1.37943376e-06
1.4219016e-06
1.45583318e-06
1.49059412e-06
1.51812246e-06
1.55003514e-06
1.57337326e-06
1.60181294e-06
1.62207779e-06
1.64744099e-06
1.66433894e-06
1.68742726e-06
1.7023895e-06
1.72421001e-06
1.73771061e-06
1.75857973e-06
1.77156167e-06
1.79114044e-06
1.8038748e-06
1.82296295e-06
1.83675782e-06
1.85599783e-06
1.86854608e-06
1.88215489e-06
1.8904774e-06
1.90268967e-06
1.91022976e-06
1.92133396e-06
1.928165e-06
1.93846372e-06
1.94602984e-06
1.95702504e-06
1.96449749e-06
1.97505782e-06
1.98180078e-06
1.99155849e-06
1.99869882e-06
2.00759157e-06
2.01411072e-06
2.02220108e-06
2.02817058e-06
2.03566897e-06
2.04132586e-06
2.04838892e-06
2.05370524e-06
2.06013425e-06
2.06511259e-06
2.07118779e-06
2.07596281e-06
2.08210892e-06
2.08735186e-06
2.09385508e-06
2.09913078e-06
2.10503544e-06
2.10983746e-06
2.11524394e-06
2.11940935e-06
2.12405053e-06
2.12791125e-06
2.13229011e-06
2.13595915e-06
2.14010011e-06
2.1435967e-06
2.14751965e-06
2.15087963e-06
2.15464677e-06
2.15791137e-06
2.16154027e-06
2.16471597e-06
2.16821778e-06
2.17131101e-06
2.17469634e-06
2.17758773e-06
2.18055794e-06
2.18322139e-06
2.18607169e-06
2.18864505e-06
2.19138193e-06
2.19392983e-06
2.19670781e-06
2.19923358e-06
2.20188633e-06
2.20430888e-06
2.20684526e-06
2.2091626e-06
2.21152126e-06
)
;

boundaryField
{
    closed
    {
        type            calculated;
        value           nonuniform List<scalar> 0();
    }
    open
    {
        type            calculated;
        value           nonuniform List<scalar> 0();
    }
    sides
    {
        type            empty;
    }
    procBoundary4to3
    {
        type            processor;
        value           uniform -7.75620997e-07;
    }
    procBoundary4to5
    {
        type            processor;
        value           uniform 2.21369552e-06;
    }
}


// ************************************************************************* //
