/*--------------------------------*- C++ -*----------------------------------*\
| =========                 |                                                 |
| \\      /  F ield         | OpenFOAM: The Open Source CFD Toolbox           |
|  \\    /   O peration     | Version:  2306                                  |
|   \\  /    A nd           | Website:  www.openfoam.com                      |
|    \\/     M anipulation  |                                                 |
\*---------------------------------------------------------------------------*/
FoamFile
{
    version     2.0;
    format      ascii;
    arch        "LSB;label=32;scalar=64";
    class       volScalarField;
    location    "0.00106";
    object      H2;
}
// * * * * * * * * * * * * * * * * * * * * * * * * * * * * * * * * * * * * * //

dimensions      [0 0 0 0 0 0 0];

internalField   nonuniform List<scalar> 
531
(
0.0110108691
0.0106844485
0.0106518528
0.0107227631
0.0110232581
0.0110252217
0.0110167263
0.0110649666
0.0106602208
0.0106509507
0.0106597739
0.0106757129
0.0110110554
0.0110060294
0.0106832418
0.0106738271
0.0110134057
0.0110095969
0.0106750168
0.0106724283
0.0110138557
0.0110138657
0.0106739251
0.0106557636
0.0106938334
0.0110087123
0.0110050069
0.0106858704
0.0106800881
0.0110081345
0.0110118741
0.0106785245
0.0106570334
0.0107192158
0.0110080991
0.0110090715
0.0106726132
0.010650391
0.0108061979
0.0110147134
0.0110024914
0.0110217503
0.0106650971
0.010658713
0.0106668359
0.0106977592
0.0110064586
0.011017777
0.0106625096
0.010644222
0.0107421637
0.0110380164
0.0109962731
0.0110621732
0.0106608438
0.0106367608
0.0106930873
0.0110166306
0.0110182138
0.0106703495
0.0106745838
0.0110074761
0.0110274804
0.0106675517
0.0106762766
0.0110074485
0.0110303088
0.0106698321
0.0106819106
0.0110081887
0.0110293612
0.0106747238
0.0106952125
0.011020857
0.010858385
0.010638942
0.0106728155
0.0110085586
0.0110286875
0.0106983052
0.0106480486
0.0106819364
0.0110081436
0.011025184
0.0107027703
0.0106509762
0.0106877805
0.0110172061
0.0110132954
0.0110083849
0.0110274234
0.0106930785
0.0106606828
0.0106725528
0.0106736227
0.0106715048
0.0107712469
0.0110062706
0.0110301117
0.0106755969
0.010689206
0.0110085762
0.0110395589
0.0106696694
0.0106915103
0.0110094916
0.0110418606
0.0106733183
0.0106946855
0.01101028
0.0110394258
0.0106733943
0.0107412479
0.0110258925
0.0107825917
0.0106481851
0.0106875728
0.0110104509
0.0110243
0.0106932724
0.0106528747
0.0106928591
0.011009656
0.0110238345
0.0106928126
0.0106517613
0.0106939881
0.011010356
0.0110094871
0.0107624414
0.0106828923
0.0107938621
0.0110093738
0.0108992118
0.010678167
0.0108773759
0.0110201684
0.0107397454
0.0106639825
0.0106607404
0.0106948605
0.0110034154
0.0110237562
0.0106947528
0.01065644
0.0106912838
0.0110106242
0.0110202975
0.0106868665
0.0106902838
0.0110082319
0.0110233799
0.0106864044
0.0106564213
0.0106899862
0.0110085552
0.0110209156
0.0106899844
0.0106920334
0.0110040324
0.0110179809
0.0106893562
0.0106679678
0.0106687951
0.0106924545
0.0110044882
0.0110202712
0.0106874561
0.0106943216
0.0110000323
0.0110221481
0.0106841148
0.010654555
0.010687688
0.0110061195
0.011021517
0.0106987679
0.0106541334
0.0106834733
0.0110057745
0.0110215448
0.0106957336
0.0106501702
0.0106801871
0.0110053878
0.0110217235
0.0106982909
0.0106509512
0.0106901071
0.0110155013
0.0110102758
0.0110088756
0.0110271556
0.0106800735
0.0106520672
0.0106694704
0.0106603
0.0106971081
0.0110109811
0.0109952572
0.0110213442
0.0109965208
0.0110290113
0.0106791005
0.0106629782
0.0106565173
0.0106814232
0.011000504
0.0110193622
0.0106992695
0.0106545215
0.0106763543
0.0110045236
0.0110150168
0.0107013477
0.010652334
0.010677544
0.0110037376
0.0110140974
0.0107031935
0.0106568187
0.0106785076
0.011005793
0.0110056713
0.0106897419
0.0106793236
0.0109975947
0.0110121949
0.010689433
0.0106580588
0.0106832685
0.0110048327
0.0110098494
0.0107049771
0.0106565051
0.0106776876
0.0110060136
0.0110044989
0.0106881678
0.0106641913
0.0106657653
0.0106744262
0.0110062639
0.0110007066
0.0106900394
0.0106811725
0.0110292751
0.0110029018
0.0110483952
0.011005491
0.0110528704
0.0106602091
0.0106495819
0.0106482773
0.010666778
0.0110084062
0.0110167633
0.0106804611
0.0106449893
0.0106648793
0.0110213261
0.0110007187
0.0106814479
0.0106747851
0.0110289165
0.0109962709
0.0110230254
0.0106923762
0.0106466651
0.0106767563
0.0110171084
0.0110092993
0.0106984362
0.0106506208
0.0106855257
0.0110279865
0.0109969459
0.0110145453
0.010679842
0.0106531207
0.0106684709
0.0106654868
0.0107006271
0.0110247661
0.0110064004
0.0110096204
0.0110165158
0.0106973407
0.0106357976
0.0106680884
0.0110250479
0.0110123322
0.0107052217
0.0106497751
0.0106831928
0.0110324797
0.0109945201
0.0110095867
0.0106979913
0.0106538305
0.0106860338
0.0110306299
0.0109942198
0.0110015113
0.0106942317
0.0106681132
0.0106634301
0.0106804593
0.0110241211
0.0110065338
0.0107095344
0.0106631048
0.0106619798
0.0107172695
0.0110341072
0.0110136761
0.0110164059
0.0110218842
0.010685109
0.0106541316
0.0106538259
0.010673539
0.0110324612
0.0110167944
0.010718581
0.0106487026
0.0106960402
0.0110462047
0.0110216424
0.0110217876
0.0110418776
0.0106798898
0.0106573009
0.0106599655
0.0106774514
0.0110404333
0.0110018226
0.0107219401
0.0106825233
0.0110797838
0.0110015914
0.0109597493
0.0106838998
0.0106548752
0.0106730088
0.0110442597
0.011018199
0.0107034475
0.0106449794
0.0107158972
0.0110453163
0.0110035153
0.011009541
0.0109155754
0.0106667787
0.0106552514
0.0106508086
0.0106491326
0.0107960685
0.0110347931
0.0110248677
0.0110143881
0.0110351934
0.0106654972
0.0106387898
0.0106770072
0.0110592205
0.0109918322
0.0109964814
0.0106906866
0.0106278649
0.0106635749
0.0110410928
0.0109928102
0.0107135947
0.0106294517
0.0111057446
0.0110138017
0.0107817129
0.0105735306
0.0105650942
0.0110510514
0.0109817793
0.010993445
0.0105921706
0.0105549986
0.0109719027
0.0109348503
0.0109566398
0.0109025283
0.01089808
0.0108616963
0.0108425365
0.0108162566
0.0107880005
0.0107642355
0.0107319519
0.0107089664
0.0106733201
0.0106508925
0.0106143927
0.0105879147
0.0105542137
0.010529617
0.01050611
0.0105069636
0.0104589081
0.0104233683
0.0103641225
0.0103195887
0.0102572687
0.0102070448
0.0101384402
0.0100857301
0.0100168265
0.00997569968
0.00996773509
0.00989826331
0.00985417482
0.00975713978
0.00970366228
0.00958045819
0.00953415212
0.00934721584
0.00931600614
0.00909875919
0.00912471879
0.00883560175
0.0093481375
0.00891039019
0.00891964605
0.00861008783
0.00852037088
0.00827657188
0.00813915561
0.00791287585
0.00773764213
0.00751317795
0.00739429533
0.00722867046
0.00710383724
0.00691602925
0.00680897727
0.00657716664
0.00669773065
0.00727484394
0.00586528206
0.00592116276
0.0056791658
0.00546918579
0.00527990925
0.00507232529
0.00485315462
0.00464820311
0.00439377768
0.00426214825
0.00409181774
0.00394994666
0.0037854751
0.0036425238
0.00346945122
0.00331814536
0.0031623854
0.00300584299
0.002844449
0.00272706719
0.00262634893
0.00239057233
0.00217779284
0.00226614831
0.00221224346
0.00181581811
0.00164034215
0.00180043993
0.00172487059
0.00131130077
0.00125158715
0.00129581927
0.00123173641
0.00103851902
0.000991771036
0.000934842162
0.000880662665
0.000819840573
0.000768817905
0.000722117811
0.000673764522
0.000639770162
0.000587347999
0.000563692503
0.000492506424
0.000489152339
0.000493646331
0.000423604905
0.000230119312
0.000385922317
0.000458680089
0.000245799966
2.64944844e-05
0.000329181092
0.000346158701
7.62636464e-05
1.75410434e-08
0.000262431344
0.00026657424
2.87031451e-06
1.99011338e-08
0.000212440747
0.000161819659
2.67277142e-08
2.44476793e-08
0.000174678425
0.000114598825
3.01096895e-08
2.88375406e-08
0.000145957771
8.96138274e-05
3.34463735e-08
3.28909416e-08
0.000123728056
7.35380642e-05
3.65290017e-08
3.60810167e-08
0.000109524296
6.32563802e-05
3.9354973e-08
3.90068957e-08
9.7458604e-05
5.82683423e-05
4.20954259e-08
4.20502099e-08
)
;

boundaryField
{
    closed
    {
        type            calculated;
        value           nonuniform List<scalar> 0();
    }
    open
    {
        type            calculated;
        value           nonuniform List<scalar> 0();
    }
    sides
    {
        type            empty;
    }
    procBoundary4to3
    {
        type            processor;
        value           uniform 0.0110168095;
    }
    procBoundary4to5
    {
        type            processor;
        value           uniform 8.50646221e-05;
    }
}


// ************************************************************************* //
