/*--------------------------------*- C++ -*----------------------------------*\
| =========                 |                                                 |
| \\      /  F ield         | OpenFOAM: The Open Source CFD Toolbox           |
|  \\    /   O peration     | Version:  2306                                  |
|   \\  /    A nd           | Website:  www.openfoam.com                      |
|    \\/     M anipulation  |                                                 |
\*---------------------------------------------------------------------------*/
FoamFile
{
    version     2.0;
    format      ascii;
    arch        "LSB;label=32;scalar=64";
    class       volScalarField;
    location    "0.00106";
    object      prefDZ_H;
}
// * * * * * * * * * * * * * * * * * * * * * * * * * * * * * * * * * * * * * //

dimensions      [1 -1 -1 0 0 0 0];

internalField   nonuniform List<scalar> 
531
(
0.000110331255
0.000107532343
0.000105985217
0.000107792576
0.000110229028
0.000110123448
0.000110221885
0.000110009928
0.000106416384
0.000105819443
0.000106339894
0.000107065358
0.000110340822
0.00011037291
0.000107350612
0.000107129631
0.000110378898
0.000110353559
0.000107057769
0.000107025272
0.000110395113
0.0001102896
0.000107136131
0.000106136286
0.000107758837
0.000110319833
0.000110362088
0.00010743594
0.000107363152
0.000110362684
0.000110304166
0.000107260093
0.000106234111
0.000107771504
0.00011034038
0.000110321755
0.000106949401
0.000106008197
0.000107902222
0.000110317695
0.000110328196
0.000110247796
0.000106626702
0.000106291234
0.000106703817
0.000107897252
0.000110389778
0.000110226812
0.000106671675
0.00010548553
0.000107717305
0.000110031794
0.000110440808
0.000110008304
0.00010668611
0.000105044697
0.000107734484
0.00011021697
0.000110339785
0.000106810826
0.000107101158
0.000110369595
0.000110274654
0.000106773756
0.000107069392
0.000110377285
0.000110235965
0.000106846767
0.000107233323
0.000110345556
0.000110218393
0.00010692723
0.000107832502
0.000110258037
0.000108117818
0.000105512223
0.000106910786
0.000110402836
0.00011017812
0.000107824826
0.000105729483
0.000107353029
0.000110372608
0.00011021027
0.00010778354
0.00010581525
0.000107741241
0.000110320533
0.000110291102
0.000110349382
0.000110235702
0.000107833118
0.000106307268
0.000106981207
0.000106956576
0.000106934869
0.000107834343
0.000110346178
0.000110296054
0.000107112091
0.000107443329
0.000110398586
0.000110224683
0.000106878051
0.000107432574
0.00011036881
0.000110189235
0.000106986334
0.000107559816
0.000110334752
0.000110265379
0.000106888881
0.00010782326
0.00011022792
0.000107805983
0.000105824786
0.000107690655
0.000110396922
0.000110278028
0.000107816773
0.000105960351
0.000107823871
0.000110402498
0.00011026427
0.000107773893
0.000105906954
0.000107737479
0.000110414417
0.000110366775
0.000107766254
0.000107339987
0.000107859411
0.000110338504
0.000108347182
0.000107185607
0.000108224383
0.000110274802
0.000107766222
0.000106504824
0.000106568926
0.000107858337
0.000110499991
0.000110235717
0.000107731949
0.000106079583
0.000107754361
0.000110348001
0.000110342358
0.000107555117
0.000107659782
0.000110525345
0.000110252664
0.00010762207
0.000106101227
0.000107797488
0.000110347501
0.000110314516
0.000107706065
0.000107789184
0.000110513768
0.000110304901
0.000107635545
0.000106691891
0.000106754942
0.000107812179
0.000110404543
0.000110253572
0.000107671405
0.000107840418
0.000110557194
0.000110251369
0.000107546361
0.000106096861
0.000107679202
0.00011041405
0.00011024905
0.000107797512
0.000106090904
0.000107520338
0.000110421409
0.000110265977
0.000107799794
0.000105959946
0.00010737067
0.000110443382
0.000110242378
0.000107760647
0.000105919261
0.000107752162
0.000110392116
0.000110355291
0.000110402236
0.00011024077
0.000107341461
0.000105888582
0.00010698437
0.000106235597
0.000107718642
0.000110347499
0.000110480689
0.000110253191
0.000110457887
0.000110149595
0.000107346592
0.000106362832
0.000106452656
0.000107229556
0.000110509979
0.00011019843
0.000107744608
0.000106120162
0.000107250274
0.000110421749
0.000110300229
0.000107789998
0.000106104617
0.000107240791
0.000110444396
0.0001102753
0.000107763855
0.000106213736
0.000107335259
0.000110378505
0.000110345904
0.000107749815
0.000107246156
0.000110532736
0.000110293658
0.000107790113
0.000106285103
0.000107444747
0.000110409386
0.000110293262
0.000107779324
0.000106216972
0.000107290536
0.000110399878
0.000110402192
0.00010759413
0.000106673113
0.000106642219
0.000107117139
0.000110359875
0.000110388982
0.000107543169
0.000107390402
0.000110235301
0.000110378049
0.00011001629
0.000110374667
0.000110048274
0.000106553322
0.000105605667
0.000106033093
0.00010648104
0.000110470059
0.000110222573
0.000107480072
0.000105587661
0.000106812067
0.000110224365
0.000110433868
0.000107126181
0.000107175045
0.000110307847
0.000110421502
0.00011021319
0.00010777026
0.000105643029
0.000107184487
0.000110306896
0.000110307693
0.000107825927
0.000105862134
0.000107546283
0.000110274831
0.00011040542
0.00011025907
0.000107444707
0.000105942595
0.000106922747
0.000106410172
0.00010778151
0.000110222242
0.000110408888
0.000110337613
0.000110367827
0.000107765453
0.000105302537
0.000106779188
0.000110293685
0.000110287101
0.00010779113
0.000105796306
0.000107458094
0.000110217935
0.000110438085
0.000110235923
0.000107711066
0.000105931349
0.000107671591
0.000110231789
0.000110441149
0.000110333535
0.000107788702
0.000106711202
0.000106533284
0.000107182548
0.000110282059
0.000110355025
0.000107820963
0.000106570113
0.000106371153
0.000107832106
0.000110133394
0.00011030984
0.000110248531
0.000110330138
0.000107611518
0.00010599295
0.000106083095
0.000106717582
0.000110246434
0.000110256784
0.000107715849
0.000105684691
0.000107792404
0.000110037891
0.000110203278
0.000110147267
0.000110200957
0.000107298582
0.000106103015
0.000106207626
0.000107054707
0.000110067283
0.000110439728
0.000107955164
0.000107475039
0.000109855654
0.000110403787
0.000108760599
0.000107623474
0.000105877483
0.000106892423
0.000110147561
0.000110368306
0.000107660365
0.000105614531
0.000107631116
0.000110090182
0.000110445462
0.000110288349
0.000108458427
0.000106814954
0.000106227315
0.000106125696
0.000105921704
0.000107774289
0.000110195988
0.000110263965
0.000110401359
0.000109358942
0.000107175173
0.000105328329
0.000107591072
0.000110208423
0.000110780144
0.000110676075
0.000107348769
0.000105454105
0.000107265797
0.000110397691
0.000110977815
0.000107504052
0.000106066816
0.000110351905
0.000110923808
0.000107569091
0.000103837969
0.000103961718
0.000109713355
0.000111244183
0.000111104984
0.000106195087
0.000104784266
0.000109153089
0.000110840126
0.000110506806
0.00011066615
0.000110497635
0.000110463438
0.000110329718
0.000110294053
0.000110194879
0.000110195872
0.000110212749
0.000110277857
0.000110396474
0.000110506145
0.000110697951
0.000110880693
0.0001112006
0.00011154279
0.000112293198
0.000113511147
0.000112940113
0.00011249267
0.000111852498
0.000111460022
0.000111009504
0.000110745338
0.00011048236
0.000110273697
0.000109873721
0.000109717055
0.00010997054
0.0001095297
0.000109382421
0.000109158159
0.000109200836
0.000109158223
0.00010931266
0.000108455339
0.000108365573
0.000107379167
0.000107574965
0.000106297242
0.000116809241
0.000113814069
0.000113921525
0.000111889481
0.000111321082
0.000109755311
0.000108868499
0.000107402254
0.000106159415
0.000104747783
0.000104925379
0.000105179538
0.000105366091
0.000105656218
0.000105816227
0.000109371597
0.000120190573
0.000115590262
0.000126892471
0.00013247821
0.00014109129
0.000148439206
0.0001555067
0.000161101155
0.000167980503
0.000175687026
0.000186393971
0.000191203947
0.000197598676
0.000203260481
0.000210136392
0.000216079962
0.000223735917
0.000230329996
0.000237082617
0.000243289412
0.000249224103
0.00025473789
0.000259221733
0.000265593893
0.000271014797
0.000272437728
0.000275483995
0.000283290481
0.000287310906
0.000287679276
0.000290325341
0.000297859905
0.000298802745
0.000301222035
0.000303231149
0.000306829544
0.00030800677
0.000310810892
0.000312089906
0.00031351801
0.000314729909
0.000316174894
0.00031714186
0.000318319036
0.000320173338
0.000320522253
0.000321424997
0.000322405321
0.000324961916
0.000324474437
0.00032807541
0.000326069047
0.000328919255
0.000329438544
0.00033372399
0.000329516757
0.00033176426
0.000334163479
0.000335608375
0.000332620046
0.000333533735
0.000338006443
0.000336891168
0.00033542636
0.000336073765
0.000339702459
0.000338838293
0.00033747887
0.000338201629
0.000340940677
0.000340552894
0.000339020907
0.000339777882
0.000342007962
0.000341859639
0.000340277565
0.00034101372
0.000342976997
0.000342869112
0.000341261512
0.000342003048
0.000343789787
0.000343713498
0.00034211815
0.000342781688
0.000344477931
0.000344477194
)
;

boundaryField
{
    closed
    {
        type            calculated;
        value           nonuniform List<scalar> 0();
    }
    open
    {
        type            calculated;
        value           nonuniform List<scalar> 0();
    }
    sides
    {
        type            empty;
    }
    procBoundary4to3
    {
        type            processor;
        value           uniform 0.000110345802;
    }
    procBoundary4to5
    {
        type            processor;
        value           uniform 0.000342930329;
    }
}


// ************************************************************************* //
