/*--------------------------------*- C++ -*----------------------------------*\
| =========                 |                                                 |
| \\      /  F ield         | OpenFOAM: The Open Source CFD Toolbox           |
|  \\    /   O peration     | Version:  2306                                  |
|   \\  /    A nd           | Website:  www.openfoam.com                      |
|    \\/     M anipulation  |                                                 |
\*---------------------------------------------------------------------------*/
FoamFile
{
    version     2.0;
    format      ascii;
    arch        "LSB;label=32;scalar=64";
    class       volScalarField;
    location    "8e-05";
    object      prefDh_T;
}
// * * * * * * * * * * * * * * * * * * * * * * * * * * * * * * * * * * * * * //

dimensions      [1 1 -3 -1 0 0 0];

internalField   nonuniform List<scalar> 
3810
(
-0.00047506695
-0.000597904264
-0.000738186586
-0.000746112412
-0.000558767567
-0.000494543738
-0.000734264015
-0.000731730581
-0.000561168365
-0.000723026011
-0.000745694612
-0.000532397094
-0.000510878773
-0.000718848703
-0.00073980761
-0.000580696393
-0.00056565736
-0.000719244984
-0.000596240648
-0.000521020716
-0.000492229634
-0.000490807864
-0.000716204349
-0.000742232795
-0.000738505367
-0.000591457396
-0.000671221897
-0.00074595885
-0.000605852429
-0.000514064026
-0.00063397896
-0.000736069529
-0.000598065499
-0.000560885291
-0.0006340922
-0.000591961293
-0.000518049627
-0.000520421645
-0.000530181124
-0.000516090399
-0.000538244645
-0.000676539979
-0.000739338472
-0.000732575262
-0.000742279183
-0.000619010641
-0.000545780052
-0.000579020632
-0.000722239532
-0.000751166186
-0.000742155999
-0.000620823702
-0.000515324343
-0.000581658071
-0.000726050148
-0.000629664969
-0.000568323764
-0.000513628812
-0.000490970514
-0.000579649804
-0.000719770276
-0.000749100902
-0.000662453013
-0.000577609136
-0.000508735842
-0.000586815314
-0.000736694799
-0.00066004495
-0.000583700795
-0.000530873427
-0.000592040147
-0.000740091695
-0.000640987679
-0.00058443248
-0.000591710477
-0.000745845937
-0.000649562819
-0.000571268888
-0.000593385284
-0.000749134414
-0.000675933148
-0.000588762447
-0.000558454709
-0.00057438836
-0.000575237494
-0.000570185289
-0.000549477371
-0.000603244825
-0.000732230166
-0.000609806223
-0.000673866731
-0.000741588879
-0.000596185691
-0.000528651911
-0.00058928676
-0.000745160067
-0.000594536986
-0.000602945146
-0.000748851539
-0.000614817908
-0.00051289618
-0.00051311078
-0.000609776915
-0.000740191344
-0.000604989179
-0.000526767344
-0.000514927259
-0.000593875532
-0.000742434587
-0.000671210861
-0.00050196935
-0.000502456867
-0.000599053216
-0.000741874997
-0.000748237385
-0.000736391907
-0.000598581622
-0.000512404594
-0.000517114245
-0.000507237068
-0.000598568009
-0.000742576623
-0.000705287156
-0.0004803331
-0.00050818809
-0.000687557368
-0.000740121075
-0.000725026887
-0.000590068234
-0.000554087977
-0.000595599831
-0.000738421803
-0.00060410827
-0.000541924615
-0.000593348442
-0.000736496156
-0.000595249755
-0.000542014962
-0.000597530224
-0.000732704716
-0.000586592196
-0.000537547946
-0.000604973216
-0.000728405127
-0.000582762592
-0.0005240219
-0.000625474741
-0.000722339918
-0.000566764069
-0.000480206337
-0.00051363698
-0.00051795943
-0.000609775497
-0.000745681757
-0.000733814453
-0.000746142854
-0.000720407713
-0.000539351605
-0.000511167649
-0.000662945261
-0.000721836043
-0.000526431786
-0.0004718861
-0.000523633974
-0.000540796087
-0.000628566918
-0.00074483032
-0.00073073611
-0.000743633206
-0.000726809606
-0.00053707297
-0.000534920894
-0.000698985103
-0.000727531594
-0.000587844053
-0.000461877981
-0.000574353355
-0.000731201021
-0.000730772216
-0.000547246348
-0.000560801284
-0.00073976225
-0.000726943731
-0.000532531129
-0.000549267749
-0.000745411267
-0.00073455783
-0.000519542599
-0.000464093827
-0.00058318484
-0.00066067343
-0.000751227181
-0.000725311101
-0.00074979921
-0.000729693088
-0.000557731544
-0.00045528656
-0.0005988393
-0.000739041231
-0.000741268484
-0.000543485042
-0.000572182788
-0.000742880689
-0.000735336455
-0.000539546484
-0.000570041333
-0.000743979593
-0.000737181187
-0.000527639179
-0.00056893454
-0.000743535262
-0.000739882599
-0.000501046995
-0.000500332817
-0.000512603992
-0.00058693103
-0.000744316929
-0.000741046338
-0.000509512271
-0.000504782176
-0.000510999511
-0.000591736054
-0.000742930355
-0.000750394927
-0.000735355876
-0.000753559725
-0.000732784053
-0.000586143021
-0.000496668944
-0.000544349536
-0.000565861417
-0.000603350862
-0.000741170301
-0.000636782759
-0.000472671815
-0.00043145221
-0.000595448934
-0.000736011859
-0.000749893646
-0.000732424189
-0.000590555615
-0.000448919349
-0.000582726456
-0.000744830474
-0.000748515102
-0.000598374703
-0.000483429013
-0.000595897516
-0.000744149083
-0.000750120006
-0.000519824346
-0.000539602056
-0.000751554749
-0.000743160407
-0.00057701254
-0.000504085471
-0.000587387208
-0.000737607854
-0.000750196663
-0.000518780788
-0.000585453456
-0.000740525129
-0.000740586595
-0.000736092076
-0.000515607506
-0.000528905826
-0.000750579487
-0.000734244676
-0.000567568139
-0.000484279344
-0.000542157107
-0.000638575164
-0.000741805485
-0.000592993469
-0.000475361247
-0.000480178673
-0.000596984792
-0.000743624306
-0.000734746821
-0.000740442376
-0.000724122535
-0.000532983458
-0.0005726485
-0.000745091012
-0.000723502079
-0.000525452126
-0.000583436792
-0.000746378142
-0.000730317206
-0.000498806212
-0.000478255968
-0.000599212481
-0.000738948106
-0.000726670791
-0.000524053809
-0.000588038689
-0.000745483091
-0.000723186677
-0.000470973163
-0.000468301941
-0.000592738381
-0.000657652015
-0.000743582209
-0.000721592708
-0.000740182437
-0.000717678464
-0.000459392799
-0.000456931555
-0.000520637475
-0.000491225669
-0.00059416513
-0.000730955238
-0.000727616323
-0.000725605874
-0.000704507615
-0.00051191503
-0.000574933536
-0.000742247471
-0.000721209313
-0.000504184099
-0.000571975683
-0.000743873644
-0.000720425649
-0.00051058161
-0.000572996302
-0.000746038212
-0.000728409471
-0.000515985435
-0.000501814252
-0.000598708424
-0.000638194936
-0.00074406824
-0.000726891399
-0.000507179708
-0.000507418794
-0.000626458798
-0.000735054226
-0.00072942362
-0.000556998623
-0.000616606619
-0.000742114573
-0.000732185066
-0.000506894509
-0.000506635289
-0.000623904326
-0.00073980969
-0.000736017229
-0.000552715831
-0.000610068248
-0.000746241703
-0.000737877056
-0.000524951595
-0.000524493698
-0.000574930386
-0.000548887551
-0.000566699194
-0.000548780129
-0.000590110429
-0.000738086851
-0.000745581018
-0.000740662869
-0.000550494132
-0.000598247701
-0.000746190259
-0.000746568002
-0.000740881594
-0.000607856853
-0.000475011395
-0.000498477704
-0.000544095918
-0.000599237208
-0.000737829256
-0.00074302584
-0.000479827567
-0.000477884519
-0.000521684569
-0.000600132959
-0.000744493815
-0.000744714602
-0.000750634976
-0.00074359284
-0.0006058151
-0.000488757631
-0.000502675476
-0.000562985619
-0.00059216918
-0.000742726403
-0.000753301746
-0.000535030863
-0.00059983476
-0.000744764722
-0.000740442741
-0.000753483965
-0.000518026261
-0.000593181821
-0.000748704621
-0.00058020666
-0.000564760421
-0.000744932413
-0.000747039267
-0.000528025628
-0.000550194935
-0.000744607465
-0.00074340925
-0.000440802088
-0.000435857748
-0.000521826901
-0.000499858476
-0.000595215576
-0.000737952738
-0.000740445871
-0.000737941727
-0.000740918715
-0.000736200471
-0.000742761762
-0.000416145223
-0.000413229894
-0.000504295364
-0.000524416379
-0.000531326141
-0.000596663572
-0.000738811537
-0.000745785408
-0.000743659938
-0.000745337848
-0.000747834543
-0.000524554531
-0.000522565223
-0.000743196583
-0.000743160435
-0.000536148795
-0.000561342755
-0.000741517022
-0.000743328094
-0.0004853674
-0.000601684381
-0.000748531738
-0.00056277115
-0.000538802083
-0.000742940712
-0.000741454356
-0.000527955223
-0.000545831603
-0.000746449531
-0.000739821674
-0.000467424948
-0.00046623775
-0.000513847939
-0.000512875377
-0.000558183283
-0.000538589008
-0.000589246376
-0.000744916285
-0.000749162709
-0.000744799846
-0.00074684381
-0.000529195946
-0.000562544902
-0.000746148543
-0.000745521436
-0.000745330573
-0.000742620505
-0.000482474744
-0.00046887004
-0.000545367398
-0.000630009276
-0.000742635813
-0.000740255475
-0.000530614177
-0.000528179787
-0.000551149733
-0.000598022151
-0.000745992182
-0.000743269805
-0.000559435862
-0.000578751606
-0.000747381006
-0.000743057889
-0.000554764434
-0.000567538204
-0.000747654513
-0.000740882967
-0.000549661825
-0.000564725336
-0.000747517438
-0.00073760741
-0.000535470567
-0.000555766822
-0.000747084142
-0.000739867906
-0.000505747104
-0.000506323757
-0.000532794907
-0.00055371391
-0.000545882369
-0.000591279151
-0.000745961372
-0.000743463706
-0.000745761183
-0.0007334212
-0.000530534533
-0.000549741273
-0.000748424919
-0.00073490537
-0.000515447906
-0.000472998598
-0.00059782283
-0.000741374621
-0.000731050485
-0.000527667874
-0.000575186765
-0.000743633514
-0.000728730158
-0.000514033366
-0.000514032577
-0.000524546353
-0.000593998609
-0.000740469779
-0.00073228401
-0.000739024825
-0.00071759716
-0.000481452556
-0.000520981153
-0.000742530368
-0.00072296567
-0.000474434753
-0.000472944003
-0.000522123788
-0.000594583316
-0.000748017841
-0.000739323108
-0.000748870716
-0.000733700371
-0.000596645018
-0.000533948733
-0.000570035431
-0.000544310347
-0.000595450881
-0.000744619307
-0.000731229855
-0.000547042953
-0.000601831922
-0.000747043651
-0.000729726672
-0.000489243889
-0.000489171379
-0.000596436308
-0.000745520047
-0.000748081765
-0.000741129199
-0.000594328367
-0.000485365423
-0.000488538133
-0.000604864022
-0.000743051307
-0.000733014794
-0.000496951383
-0.000550666653
-0.000742817783
-0.000735042794
-0.000472004917
-0.000471709014
-0.000512684586
-0.000602178439
-0.000748297101
-0.00074155024
-0.000748910484
-0.00074015036
-0.000594437356
-0.000506325659
-0.000592577777
-0.000741857668
-0.000751383711
-0.000488893661
-0.000543158617
-0.000746801104
-0.00074706566
-0.000462519594
-0.000441600438
-0.000589813312
-0.000744922314
-0.000747580194
-0.000749752294
-0.000578278195
-0.000571870009
-0.000747592484
-0.000745252623
-0.000560193674
-0.000530554082
-0.000588603363
-0.000739980502
-0.00075614187
-0.000530452516
-0.000527500915
-0.000741138307
-0.000751161942
-0.000505855277
-0.000499872015
-0.000741635079
-0.000744687292
-0.000469823277
-0.000432748368
-0.000527400632
-0.00049815721
-0.000600820567
-0.000657375724
-0.000742310953
-0.000742342643
-0.000588517434
-0.000610214546
-0.000742091782
-0.000732606874
-0.000741199537
-0.000741859251
-0.00050831293
-0.000492898057
-0.000736614018
-0.000726768325
-0.000479766198
-0.000445303994
-0.000525700953
-0.000546443359
-0.000616318178
-0.000738171916
-0.0007490063
-0.000552410253
-0.00053290364
-0.000739828243
-0.000749205346
-0.000539803418
-0.000539195743
-0.000743854602
-0.000749868406
-0.000546044763
-0.000551016446
-0.000745499237
-0.000752114198
-0.000546727863
-0.000558915778
-0.000746389575
-0.000755835873
-0.000519835135
-0.000590128921
-0.000750545666
-0.00058423303
-0.000521301406
-0.000583436064
-0.000574979137
-0.000595850531
-0.00074451028
-0.000753861147
-0.000558741688
-0.000563601847
-0.000746570466
-0.000749627468
-0.000536730943
-0.000550381631
-0.000745429055
-0.000746860675
-0.000503345841
-0.000525819693
-0.000743646219
-0.000744543162
-0.000420397998
-0.000414571375
-0.000519405453
-0.000513826625
-0.000597948481
-0.000739384423
-0.000742048678
-0.000740460661
-0.000746877184
-0.000536787426
-0.000545050326
-0.000742361893
-0.000742589425
-0.000555296512
-0.000574053952
-0.000741757303
-0.00074179085
-0.00053672022
-0.000548976188
-0.000738398237
-0.000743566517
-0.000455371703
-0.000526326211
-0.000736845299
-0.000736356262
-0.000740764161
-0.00053038527
-0.000527711962
-0.000737189878
-0.000737205525
-0.000511564244
-0.000540876826
-0.000738615053
-0.000739178074
-0.000416046511
-0.000415757034
-0.000509952102
-0.000529276038
-0.000549650742
-0.000598881974
-0.000737271431
-0.00074260242
-0.000738031054
-0.00074280402
-0.000738626168
-0.000459672686
-0.000418734322
-0.000593221997
-0.00073903126
-0.000742458937
-0.000742930774
-0.000521398232
-0.000521055044
-0.000742804718
-0.000743400889
-0.000524865455
-0.000552734191
-0.000743240936
-0.000744581365
-0.00049034248
-0.000594485029
-0.000742951637
-0.000537330378
-0.00047505822
-0.000593534416
-0.000739819592
-0.000742944806
-0.000479955891
-0.000479829246
-0.00053592978
-0.000525273548
-0.000608734008
-0.00072729617
-0.000738311419
-0.000711669361
-0.00053177883
-0.000522445015
-0.000742908991
-0.000742209976
-0.000514390795
-0.000534336169
-0.000746053841
-0.000746890262
-0.000467067674
-0.000592801356
-0.000749419928
-0.000514874878
-0.000497125637
-0.000743062338
-0.00074918753
-0.000742072546
-0.000587213647
-0.000442126579
-0.00052650753
-0.000746715412
-0.000751208653
-0.000573693993
-0.00052413071
-0.000549241438
-0.000591432909
-0.000748085278
-0.000748718409
-0.000749192021
-0.000596024034
-0.000528357692
-0.000585267468
-0.000556333814
-0.000585141075
-0.000743453578
-0.000756738031
-0.000568158857
-0.000560507461
-0.000745430077
-0.000756050491
-0.000547963478
-0.000551763539
-0.000748122957
-0.000754471103
-0.000516179272
-0.000585804619
-0.000749163989
-0.00057329892
-0.000487073253
-0.00058994551
-0.000745115185
-0.000743841569
-0.000611902325
-0.000548404564
-0.00054948571
-0.000739792966
-0.00074749876
-0.000502701944
-0.000500030413
-0.000456856478
-0.000530253092
-0.00073913179
-0.000746583307
-0.000737303124
-0.000589062241
-0.000491627828
-0.000585810329
-0.000743334411
-0.000748799825
-0.000526058927
-0.000461828406
-0.000577780315
-0.000748347888
-0.000749711787
-0.000502519299
-0.000549279558
-0.000748126278
-0.000748467815
-0.000748748414
-0.000747766601
-0.000552911833
-0.000480436886
-0.000575777883
-0.000744455906
-0.000750959317
-0.000545218053
-0.000542398047
-0.000550854404
-0.000596070438
-0.000740149194
-0.000749584008
-0.000568737604
-0.000551404279
-0.000744738943
-0.000745244247
-0.000551751814
-0.000489899462
-0.000588300232
-0.000739933153
-0.000746999139
-0.000532214073
-0.000502021914
-0.000739843881
-0.000732994858
-0.000499056879
-0.000692155486
-0.000740364241
-0.000488270412
-0.00048944262
-0.000736298587
-0.000735893624
-0.000503612551
-0.000409489172
-0.000491022048
-0.000736846749
-0.000748279011
-0.00073788642
-0.000751400193
-0.000515617403
-0.000583912984
-0.000742640287
-0.000586953354
-0.000502564762
-0.000590395219
-0.000742918771
-0.000754734864
-0.000585528543
-0.000577606865
-0.000746526462
-0.000752032458
-0.000564286886
-0.000561993972
-0.000750309212
-0.00074832447
-0.000536137387
-0.00052286872
-0.000560616053
-0.000543311958
-0.000586735515
-0.000745975313
-0.000750682088
-0.000571363394
-0.00057382578
-0.000567298122
-0.000595688328
-0.000747916474
-0.00074784828
-0.000557108332
-0.000573560948
-0.00074875335
-0.000745898125
-0.0005401593
-0.000557563016
-0.00074828161
-0.000743391048
-0.000528150257
-0.000548271203
-0.000747276103
-0.000741103873
-0.000514344685
-0.000523677806
-0.000510687883
-0.000597620676
-0.000745198626
-0.000746620627
-0.000737556053
-0.000543648911
-0.000554776186
-0.00074687291
-0.000735159881
-0.000541768696
-0.000574266108
-0.000748011939
-0.000734071605
-0.000542761442
-0.000603927139
-0.000747070138
-0.000609210521
-0.000529863798
-0.000534837664
-0.000593847818
-0.000741842706
-0.000736656373
-0.000525533468
-0.000593983181
-0.00073721678
-0.000516489428
-0.000512961896
-0.000543388389
-0.000591487549
-0.000748125172
-0.000750383955
-0.000741564129
-0.000585458718
-0.000518474526
-0.000594540162
-0.000742179036
-0.000730112812
-0.000536556173
-0.00060188047
-0.000744267658
-0.000724822915
-0.000532498529
-0.000595646007
-0.000744932664
-0.000722237276
-0.000527884146
-0.000593011347
-0.000745096278
-0.000720711116
-0.000523343639
-0.000591041374
-0.000745023738
-0.000719746317
-0.000520040105
-0.000589718359
-0.000744833941
-0.000719165514
-0.000518420171
-0.000589202364
-0.000744626957
-0.000718891683
-0.000517838104
-0.000588924921
-0.000744435132
-0.000718842634
-0.000517208197
-0.00058799659
-0.000744270255
-0.000718948551
-0.000515513958
-0.000585634228
-0.000744212218
-0.000719203068
-0.000511639649
-0.000581399039
-0.000744291424
-0.000719894824
-0.000504447847
-0.000577755296
-0.000743453489
-0.000721643026
-0.000468085221
-0.000464864288
-0.000527845424
-0.000607345278
-0.000745348065
-0.000727719651
-0.000490540332
-0.000488086452
-0.000591789524
-0.000731548808
-0.000743584847
-0.000728549436
-0.000485148398
-0.000483265735
-0.000595487331
-0.000738312736
-0.00073799143
-0.00052755641
-0.000606597581
-0.000739122925
-0.000740662252
-0.000735419616
-0.00047812818
-0.000476596402
-0.000596135176
-0.000738261766
-0.000738306583
-0.000529152108
-0.000608837888
-0.000740211283
-0.000737282982
-0.000500012418
-0.000596733297
-0.000734453985
-0.00058782496
-0.000601419775
-0.000742337689
-0.000738721902
-0.00050812355
-0.000593381443
-0.000737813892
-0.000591401822
-0.000595816576
-0.00074818356
-0.0007384125
-0.000562046782
-0.000594984222
-0.000748749478
-0.000738360919
-0.000548299672
-0.000592841261
-0.00074739851
-0.000737833065
-0.000477845295
-0.000476299864
-0.000534663263
-0.0005407861
-0.000566046891
-0.00057532065
-0.000597109184
-0.00073753619
-0.000745185552
-0.000736303725
-0.000743567135
-0.000736819564
-0.000541404493
-0.000551076283
-0.000741845132
-0.000735601479
-0.000450788984
-0.000449444421
-0.000518771676
-0.000536563992
-0.000542551967
-0.000594352851
-0.000745409843
-0.000747649814
-0.000744091058
-0.000607491524
-0.000496228134
-0.00057559348
-0.00074335983
-0.000748433821
-0.000519390194
-0.000546611431
-0.000741675981
-0.00074492556
-0.000520452232
-0.000550817381
-0.000742747424
-0.000740945748
-0.000466106443
-0.000444952288
-0.000595847188
-0.00073703146
-0.000752580479
-0.000512604095
-0.000536079889
-0.00073995541
-0.000749858708
-0.000521244665
-0.00052351032
-0.00074271733
-0.000747234905
-0.000518797686
-0.000528782818
-0.000742440527
-0.000745574005
-0.000520364573
-0.000532645414
-0.000742641813
-0.000746431926
-0.000527120016
-0.000534761803
-0.000742502275
-0.000748614325
-0.000536695794
-0.000536306591
-0.000742591654
-0.000750186777
-0.000547442062
-0.000572499735
-0.000744100961
-0.000666429565
-0.000523119422
-0.000559806607
-0.000743181869
-0.000750937759
-0.00055618863
-0.000546665704
-0.000740502148
-0.000746296138
-0.000530682967
-0.000485787701
-0.000550968395
-0.000537874745
-0.000588665507
-0.000738303425
-0.000755686694
-0.000572372726
-0.000543215233
-0.00073539567
-0.000754343822
-0.000560977702
-0.000540194534
-0.000736287002
-0.000753694975
-0.000526433878
-0.000590720011
-0.00074898665
-0.000601194211
-0.000554080348
-0.000736560938
-0.000753297913
-0.00054321861
-0.000589211526
-0.000747905689
-0.000598416961
-0.000557901498
-0.000739631861
-0.000750983101
-0.000571243041
-0.000548756112
-0.000740235635
-0.000749092816
-0.000547358104
-0.000545587604
-0.0007410497
-0.000745763973
-0.00048341195
-0.000480841853
-0.000741570724
-0.000743725103
-0.000495858978
-0.000490524837
-0.000537342107
-0.000552850398
-0.000546842218
-0.000592584788
-0.000745862062
-0.000745742892
-0.000750312135
-0.000570123556
-0.000571949748
-0.000748472218
-0.000744963908
-0.000518396992
-0.000515999811
-0.000590414606
-0.000740518401
-0.000746590156
-0.000740631262
-0.000521436543
-0.000491001062
-0.000596525582
-0.000741768006
-0.000744137543
-0.000507147903
-0.000515457401
-0.000519469589
-0.000594853478
-0.000742985918
-0.000746412992
-0.000740834395
-0.000548173077
-0.00056433839
-0.000746241649
-0.000738243025
-0.000515973044
-0.000602338752
-0.000744138726
-0.000530898421
-0.000522848418
-0.000549701129
-0.000594655435
-0.000746706611
-0.000740894888
-0.00074670962
-0.000736133109
-0.000522218583
-0.000565121736
-0.000747073615
-0.000737624424
-0.00051069613
-0.000599456783
-0.000739487139
-0.000569346124
-0.000575247504
-0.00074734913
-0.000739908151
-0.000537509181
-0.000538125851
-0.000545408912
-0.000593314924
-0.000749421248
-0.000745050257
-0.000746732801
-0.000742139647
-0.000537279784
-0.000527803105
-0.000542787536
-0.000539644892
-0.000523324636
-0.000594077936
-0.000749888686
-0.000744087958
-0.000747983914
-0.000737007858
-0.000549730273
-0.00057025435
-0.000746266977
-0.000741762742
-0.000524434889
-0.000509501942
-0.000498836563
-0.000576153675
-0.000746700804
-0.000745974038
-0.000743189024
-0.000559936805
-0.000559466113
-0.000747061109
-0.00073662092
-0.000547549066
-0.000570463461
-0.000749894434
-0.000738293319
-0.000550510543
-0.000597129616
-0.000746603236
-0.000593748395
-0.000560988545
-0.000751623338
-0.000740885499
-0.000595452901
-0.000499392285
-0.00053094388
-0.000467899024
-0.000521402269
-0.000745609496
-0.000735163167
-0.000524460934
-0.000535975604
-0.00074816912
-0.000736773702
-0.000582331287
-0.000459610588
-0.00055141074
-0.000746487253
-0.000747802978
-0.000737318043
-0.000559857315
-0.000565007913
-0.000748799033
-0.000732719008
-0.000593219887
-0.000495748415
-0.000568242332
-0.000739756991
-0.000738328373
-0.000740468158
-0.000723413656
-0.000457827127
-0.00049362141
-0.000746404393
-0.000723855665
-0.000524194294
-0.000569831553
-0.000749282616
-0.000731293262
-0.000595824912
-0.000514313403
-0.000534119167
-0.000456203555
-0.000552919481
-0.000742820148
-0.000743401023
-0.000725360168
-0.000543461338
-0.000563428351
-0.000744464636
-0.000720716536
-0.000539918656
-0.000587513705
-0.000747165635
-0.000719871311
-0.000550327991
-0.000604332314
-0.000746045665
-0.000719477765
-0.00054351036
-0.000602489246
-0.000745034714
-0.000720141762
-0.000537804754
-0.000599659847
-0.000742934111
-0.00072015157
-0.000501182091
-0.000500394171
-0.000502505111
-0.000594321477
-0.000741150859
-0.000741758051
-0.00073204642
-0.000528029289
-0.000506840336
-0.000527379786
-0.000608874039
-0.000741885148
-0.000723491675
-0.000503720403
-0.000568394439
-0.0007392853
-0.000740977604
-0.000724778182
-0.000538135743
-0.00058210842
-0.000746828651
-0.000727383091
-0.000562043728
-0.000518182862
-0.000595756955
-0.000740496411
-0.000735877096
-0.000559327247
-0.000600546873
-0.000747332951
-0.000733090041
-0.00053911706
-0.000590408292
-0.000744475563
-0.000731758094
-0.000487578324
-0.000487577977
-0.000486355688
-0.000602170074
-0.000740782124
-0.000744191781
-0.0007366031
-0.000539938352
-0.000558479696
-0.000745103048
-0.000735313255
-0.000527553652
-0.000603746103
-0.000743206879
-0.000585293634
-0.000580301481
-0.000745373423
-0.000738021131
-0.000530023692
-0.000555271571
-0.000746973762
-0.000735470833
-0.000506897411
-0.000535509383
-0.000745937627
-0.000739069413
-0.000476623016
-0.000476359378
-0.000497719901
-0.000596794385
-0.000750499865
-0.000747987996
-0.000751255012
-0.000747178522
-0.000588576832
-0.0005396725
-0.000537163989
-0.00059943274
-0.000746132283
-0.000738248552
-0.000524096033
-0.000601493425
-0.000746871486
-0.000610148117
-0.000517494859
-0.000513739526
-0.000595360543
-0.000744388922
-0.000602567887
-0.000501032764
-0.000527976908
-0.000605794651
-0.000748516371
-0.000749240086
-0.000590959912
-0.000545184741
-0.000751845348
-0.000749168559
-0.000562009896
-0.000564317566
-0.000649911175
-0.000600442562
-0.000542767377
-0.000588893254
-0.00074646785
-0.000748036528
-0.00059741516
-0.000498517213
-0.000540256871
-0.00047313083
-0.000513743301
-0.000738478226
-0.000742810377
-0.000740672851
-0.000744185401
-0.000743845558
-0.000584846408
-0.000525728477
-0.000739183368
-0.000745713879
-0.000558885132
-0.000557822965
-0.000736242794
-0.000592900874
-0.000507313101
-0.000740920128
-0.000742688211
-0.000600261059
-0.00050158754
-0.000474697133
-0.00047505619
-0.000730618348
-0.00074558912
-0.000741877211
-0.000748846245
-0.000589327189
-0.000562755519
-0.000598557818
-0.000593014359
-0.000589391577
-0.000554132393
-0.000553483222
-0.000722777892
-0.000747731773
-0.000607764388
-0.000576099308
-0.000721790425
-0.000748954526
-0.000615192693
-0.000561376903
-0.000717748853
-0.000749003236
-0.000615235982
-0.000531451059
-0.000714463685
-0.000752530504
-0.000595194528
-0.000589427853
-0.000731056921
-0.000592027306
-0.000529612632
-0.000700003145
-0.000743798901
-0.000591816424
-0.000505110894
-0.000587047952
-0.000728619235
-0.000596827347
-0.000568675996
-0.00068556206
-0.000737426075
-0.000598324711
-0.000540056475
-0.000540297213
-0.000505346755
-0.000500302536
-0.000608337463
-0.000737460464
-0.000741964974
-0.000590069352
-0.000523977665
-0.000617179043
-0.000732322853
-0.000604104043
-0.000505919196
-0.000501302621
-0.000697961426
-0.000734406715
-0.000605572578
-0.000503545546
-0.00050144675
-0.00071225499
-0.000742912537
-0.000594743496
-0.000534537173
-0.000585013729
-0.000735835719
-0.000633229071
-0.000543664284
-0.000588292585
-0.000736068123
-0.000660973847
-0.000551168639
-0.000594470203
-0.00073755766
-0.000670883564
-0.000553639513
-0.000590666009
-0.000734707345
-0.000746995934
-0.000651683101
-0.000534837373
-0.000512644295
-0.000603567762
-0.000736266392
-0.000659255845
-0.000542372437
-0.000546305209
-0.000647506004
-0.000739021955
-0.000641588598
-0.000542298355
-0.000536058391
-0.000553828718
-0.000598275017
-0.000741786908
-0.000700296763
-0.000516565749
-0.000499184745
-0.000543438761
-0.00055198331
-0.000615632574
-0.000742463086
-0.000730551586
-0.000741520714
-0.000679723781
-0.000484928672
-0.000476106286
-0.000590406847
-0.000740431928
-0.000626829445
-0.000562842853
-0.000591804175
-0.000745172205
-0.000620608572
-0.000572338327
-0.000596355971
-0.00074275007
-0.000679103171
-0.000515804842
-0.000516800524
-0.000538099885
-0.000592060507
-0.000742188823
-0.000644113885
-0.000575192972
-0.000595746305
-0.000744380366
-0.000657512376
-0.00056860069
-0.00059763777
-0.000746453149
-0.000677545072
-0.000559561501
-0.000601084465
-0.00074663443
-0.000697280417
-0.000554358063
-0.000594906205
-0.000735060044
-0.000595159589
-0.000543258664
-0.000755477078
-0.000719349316
-0.000539111333
-0.000557846158
-0.000756967892
-0.000736229829
-0.000594004475
-0.000522474428
-0.000527179164
-0.000512451337
-0.00046068602
-0.000591486952
-0.000746428831
-0.000744046371
-0.00074220334
-0.000737078285
-0.000597632038
-0.000443535378
-0.00046877853
-0.000743563224
-0.000742050461
-0.000593538664
-0.000557681379
-0.000745934857
-0.00074072273
-0.000588886564
-0.000586010344
-0.000743333304
-0.000608665122
-0.00048801992
-0.000748623831
-0.000737314587
-0.000555629978
-0.000571658955
-0.000742861025
-0.000602220919
-0.000476564517
-0.000752462187
-0.000739310768
-0.000559546494
-0.000536918466
-0.000753371248
-0.000744197213
-0.000599181631
-0.000579940905
-0.000552159608
-0.000546159836
-0.00047797352
-0.000521194467
-0.000748612221
-0.000743098319
-0.00074283246
-0.00059023565
-0.000566720023
-0.000762102465
-0.000748584797
-0.000594261703
-0.000529448753
-0.00064062891
-0.000748702202
-0.00058699157
-0.000534309218
-0.00076367722
-0.000743392401
-0.000590469383
-0.000567934164
-0.000556530436
-0.000530579375
-0.000531306314
-0.000462111834
-0.000538427459
-0.000747040118
-0.000746552293
-0.00074080966
-0.000747072846
-0.000733508476
-0.000589993645
-0.000529653746
-0.000510124932
-0.000535246926
-0.000754130253
-0.000736023422
-0.000591024645
-0.000489737224
-0.000553508198
-0.000744241816
-0.000738232497
-0.000562666079
-0.000578053769
-0.000748329545
-0.000735754613
-0.000546776539
-0.000570961964
-0.000749519529
-0.000735900797
-0.000538380441
-0.000568037999
-0.000750165249
-0.000737064259
-0.000536993704
-0.000569905982
-0.000747662176
-0.000742457341
-0.000544924536
-0.000508166294
-0.000499124096
-0.000563625042
-0.000747018302
-0.00074841363
-0.000744276123
-0.000597094745
-0.000486858503
-0.000590657413
-0.000744696508
-0.000745177603
-0.000574996395
-0.000524155422
-0.000678418852
-0.000738150848
-0.000589573508
-0.000450292707
-0.00057174447
-0.000744504073
-0.000747711776
-0.000746121973
-0.000578813685
-0.000504145401
-0.000510609472
-0.000572917877
-0.000746941628
-0.000744155407
-0.000742316194
-0.000745273971
-0.000514738296
-0.000491023798
-0.000479994831
-0.000573617783
-0.000742446606
-0.000741185187
-0.000745048025
-0.000521112883
-0.000553306507
-0.000743084689
-0.000733889908
-0.000740158323
-0.000485656284
-0.000488630322
-0.000743153932
-0.000735912773
-0.00055028225
-0.000549173674
-0.000745875403
-0.000733741275
-0.000528816212
-0.000556775751
-0.000739754686
-0.000737717738
-0.000485363443
-0.000485743952
-0.000488591986
-0.0005383802
-0.000742792313
-0.00073183106
-0.000526694551
-0.000589591076
-0.000743664653
-0.000740345883
-0.000736657803
-0.000530397488
-0.000534460486
-0.000745500173
-0.000730642279
-0.000507141722
-0.000529962828
-0.000746900978
-0.00073467192
-0.00050542061
-0.000469687619
-0.000526849897
-0.000480814444
-0.000578484084
-0.000743622798
-0.00074143949
-0.00074264526
-0.000738110802
-0.000554929
-0.000506361478
-0.000594716058
-0.000743677706
-0.00074019639
-0.000553767065
-0.000576228653
-0.000748341102
-0.00074086569
-0.000554964845
-0.000498078335
-0.000595507247
-0.000745427274
-0.000745688512
-0.000745460481
-0.000555377123
-0.000549795232
-0.000751485127
-0.000742201415
-0.000542123042
-0.000491226215
-0.000571124266
-0.000743423012
-0.000752996909
-0.000540573972
-0.0005826008
-0.000744877341
-0.000608890119
-0.000506886653
-0.00053599235
-0.000511840596
-0.000537177518
-0.000745565353
-0.000747598868
-0.000575657075
-0.000556773602
-0.000747396238
-0.000746641355
-0.000553331842
-0.000543760385
-0.000745779961
-0.000745485052
-0.000539177773
-0.00052732793
-0.00074429307
-0.000743006382
-0.000525619834
-0.000498528391
-0.000745066235
-0.000739149391
-0.000549519814
-0.000413207255
-0.000495200921
-0.000736711786
-0.000746147215
-0.00073674151
-0.000748534236
-0.000537040493
-0.000497859026
-0.000735939207
-0.000746987186
-0.000552087783