/*--------------------------------*- C++ -*----------------------------------*\
| =========                 |                                                 |
| \\      /  F ield         | OpenFOAM: The Open Source CFD Toolbox           |
|  \\    /   O peration     | Version:  2306                                  |
|   \\  /    A nd           | Website:  www.openfoam.com                      |
|    \\/     M anipulation  |                                                 |
\*---------------------------------------------------------------------------*/
FoamFile
{
    version     2.0;
    format      ascii;
    arch        "LSB;label=32;scalar=64";
    class       volScalarField;
    location    "8e-05";
    object      prefDZ_H2O;
}
// * * * * * * * * * * * * * * * * * * * * * * * * * * * * * * * * * * * * * //

dimensions      [1 -1 -1 0 0 0 0];

internalField   nonuniform List<scalar> 
3810
(
-7.33504267e-07
-7.39003311e-07
-7.75693184e-07
-7.735272e-07
-7.37247608e-07
-7.34308867e-07
-7.7744908e-07
-7.76495386e-07
-7.37095673e-07
-7.79409034e-07
-7.73992264e-07
-7.36318867e-07
-7.34950976e-07
-7.79214145e-07
-7.7408585e-07
-7.38400434e-07
-7.37593585e-07
-7.78864006e-07
-7.43061891e-07
-7.35710404e-07
-7.34490918e-07
-7.34339816e-07
-7.79804248e-07
-7.73942064e-07
-7.74269969e-07
-7.39029302e-07
-7.72204729e-07
-7.7435286e-07
-7.39563961e-07
-7.35126217e-07
-7.64874169e-07
-7.75183154e-07
-7.44286853e-07
-7.37244098e-07
-7.64901792e-07
-7.51394632e-07
-7.35415571e-07
-7.35412874e-07
-7.35907728e-07
-7.35511506e-07
-7.36532554e-07
-7.73446621e-07
-7.74797441e-07
-7.75177161e-07
-7.74273492e-07
-7.60878359e-07
-7.36551918e-07
-7.43766928e-07
-7.79317966e-07
-7.74415954e-07
-7.7488331e-07
-7.61657568e-07
-7.35157061e-07
-7.39654643e-07
-7.7887932e-07
-7.63884836e-07
-7.37708689e-07
-7.34884149e-07
-7.34373779e-07
-7.45218403e-07
-7.77967666e-07
-7.73638634e-07
-7.71058838e-07
-7.37723711e-07
-7.35197902e-07
-7.50801022e-07
-7.75562316e-07
-7.70377077e-07
-7.38206207e-07
-7.36098227e-07
-7.52325044e-07
-7.74825482e-07
-7.66385851e-07
-7.38350065e-07
-7.46492771e-07
-7.744809e-07
-7.68206171e-07
-7.37688794e-07
-7.45449683e-07
-7.73954566e-07
-7.73296798e-07
-7.38436343e-07
-7.37385489e-07
-7.37809112e-07
-7.38052064e-07
-7.37634972e-07
-7.36933102e-07
-7.56161245e-07
-7.76239253e-07
-7.58362411e-07
-7.72906829e-07
-7.74470292e-07
-7.53022305e-07
-7.35733736e-07
-7.49729537e-07
-7.7536117e-07
-7.53528511e-07
-7.5623856e-07
-7.74157053e-07
-7.60065314e-07
-7.34904764e-07
-7.35061811e-07
-7.58465177e-07
-7.74937448e-07
-7.57073627e-07
-7.35703764e-07
-7.3517223e-07
-7.4735434e-07
-7.74829607e-07
-7.72303673e-07
-7.34603422e-07
-7.34755651e-07
-7.54082238e-07
-7.74142615e-07
-7.7379712e-07
-7.75525072e-07
-7.55540656e-07
-7.35159384e-07
-7.35214073e-07
-7.3488049e-07
-7.44609211e-07
-7.75018345e-07
-7.77966163e-07
-7.33789294e-07
-7.3511426e-07
-7.75661442e-07
-7.74220641e-07
-7.76880783e-07
-7.49803042e-07
-7.37086069e-07
-7.52255327e-07
-7.75319259e-07
-7.57509132e-07
-7.36425285e-07
-7.51095533e-07
-7.75749592e-07
-7.54532566e-07
-7.36492317e-07
-7.53788375e-07
-7.76292985e-07
-7.50544196e-07
-7.36361746e-07
-7.56986049e-07
-7.77063616e-07
-7.45638364e-07
-7.35857761e-07
-7.62827024e-07
-7.78739062e-07
-7.37448571e-07
-7.33827157e-07
-7.34859934e-07
-7.35215915e-07
-7.58123599e-07
-7.742606e-07
-7.75392003e-07
-7.74176918e-07
-7.79591307e-07
-7.3646865e-07
-7.35436961e-07
-7.7090784e-07
-7.7915933e-07
-7.35847842e-07
-7.33501662e-07
-7.35458211e-07
-7.36251238e-07
-7.63405974e-07
-7.74095598e-07
-7.75699418e-07
-7.74137077e-07
-7.78707383e-07
-7.36524389e-07
-7.36427698e-07
-7.77488545e-07
-7.77454327e-07
-7.38606804e-07
-7.33409142e-07
-7.37752346e-07
-7.77217333e-07
-7.77597592e-07
-7.37187791e-07
-7.37493595e-07
-7.75964538e-07
-7.77813491e-07
-7.36330755e-07
-7.36929618e-07
-7.7575093e-07
-7.76896627e-07
-7.35450453e-07
-7.33359127e-07
-7.38021063e-07
-7.70621992e-07
-7.73293692e-07
-7.76475574e-07
-7.73416051e-07
-7.77580304e-07
-7.3699518e-07
-7.33015629e-07
-7.38998724e-07
-7.75263494e-07
-7.76335558e-07
-7.36701449e-07
-7.37996999e-07
-7.74481502e-07
-7.76762811e-07
-7.36403733e-07
-7.37984311e-07
-7.74391698e-07
-7.76675236e-07
-7.35809834e-07
-7.37817764e-07
-7.74526532e-07
-7.75643927e-07
-7.34699082e-07
-7.34620461e-07
-7.35209944e-07
-7.38461092e-07
-7.74685269e-07
-7.75748631e-07
-7.35103899e-07
-7.34739132e-07
-7.35274884e-07
-7.38566995e-07
-7.75011135e-07
-7.73236091e-07
-7.76051409e-07
-7.7296895e-07
-7.76273585e-07
-7.43310302e-07
-7.34624424e-07
-7.3628669e-07
-7.37633832e-07
-7.56075712e-07
-7.74327344e-07
-7.65461765e-07
-7.33094965e-07
-7.3184875e-07
-7.39565751e-07
-7.76381483e-07
-7.72505879e-07
-7.76903249e-07
-7.40405783e-07
-7.32593684e-07
-7.37989322e-07
-7.74135859e-07
-7.74186739e-07
-7.39382914e-07
-7.33786249e-07
-7.3905639e-07
-7.74329356e-07
-7.74050997e-07
-7.35300537e-07
-7.36163721e-07
-7.73537326e-07
-7.74693165e-07
-7.37792435e-07
-7.34828832e-07
-7.46436319e-07
-7.74521526e-07
-7.74265447e-07
-7.35562078e-07
-7.38279013e-07
-7.7508601e-07
-7.73786645e-07
-7.76934872e-07
-7.35162184e-07
-7.35935262e-07
-7.7383588e-07
-7.75838812e-07
-7.37482044e-07
-7.340773e-07
-7.362399e-07
-7.65838185e-07
-7.74981741e-07
-7.51278477e-07
-7.33273649e-07
-7.33551548e-07
-7.41912671e-07
-7.7474323e-07
-7.74982854e-07
-7.7463492e-07
-7.78643878e-07
-7.36061022e-07
-7.38047882e-07
-7.7435877e-07
-7.78755268e-07
-7.35606103e-07
-7.38482542e-07
-7.74353308e-07
-7.77187418e-07
-7.3450191e-07
-7.33819073e-07
-7.43533963e-07
-7.74779758e-07
-7.79065754e-07
-7.35623056e-07
-7.38684005e-07
-7.74688077e-07
-7.78891871e-07
-7.33154462e-07
-7.33601225e-07
-7.3856519e-07
-7.70052734e-07
-7.73823981e-07
-7.76765048e-07
-7.7449193e-07
-7.79984444e-07
-7.32785583e-07
-7.33082874e-07
-7.35472782e-07
-7.34663973e-07
-7.38761322e-07
-7.7705336e-07
-7.76282138e-07
-7.76272102e-07
-7.77973536e-07
-7.35274959e-07
-7.38361925e-07
-7.74712466e-07
-7.80309836e-07
-7.3469718e-07
-7.3824902e-07
-7.74803336e-07
-7.79778817e-07
-7.35043965e-07
-7.38119843e-07
-7.74828003e-07
-7.77155323e-07
-7.35319747e-07
-7.35102048e-07
-7.40012464e-07
-7.65719986e-07
-7.73777325e-07
-7.79878903e-07
-7.349274e-07
-7.35229975e-07
-7.62751084e-07
-7.74428674e-07
-7.78766995e-07
-7.37223434e-07
-7.40387426e-07
-7.74283903e-07
-7.78755895e-07
-7.34876399e-07
-7.35014729e-07
-7.62165906e-07
-7.742278e-07
-7.78212598e-07
-7.36878825e-07
-7.40011024e-07
-7.73852881e-07
-7.77025989e-07
-7.35520387e-07
-7.35816751e-07
-7.37792322e-07
-7.36832509e-07
-7.37356285e-07
-7.36815937e-07
-7.47955349e-07
-7.74465657e-07
-7.73286613e-07
-7.77471951e-07
-7.36760789e-07
-7.39032495e-07
-7.74297495e-07
-7.74090403e-07
-7.75394624e-07
-7.58335782e-07
-7.33494395e-07
-7.34414002e-07
-7.36722442e-07
-7.43213158e-07
-7.74644774e-07
-7.76423155e-07
-7.33747255e-07
-7.3356286e-07
-7.35634167e-07
-7.40939193e-07
-7.74368438e-07
-7.73853744e-07
-7.74507537e-07
-7.74637631e-07
-7.57908608e-07
-7.33938863e-07
-7.34480094e-07
-7.37394577e-07
-7.45340984e-07
-7.73816612e-07
-7.74395612e-07
-7.3613859e-07
-7.4086056e-07
-7.75024539e-07
-7.73674296e-07
-7.75271332e-07
-7.35365686e-07
-7.4347692e-07
-7.74778353e-07
-7.3813998e-07
-7.37503151e-07
-7.7362028e-07
-7.75090177e-07
-7.3570533e-07
-7.36875377e-07
-7.74543826e-07
-7.75513442e-07
-7.31732184e-07
-7.31791329e-07
-7.35441463e-07
-7.34718803e-07
-7.45432575e-07
-7.74604456e-07
-7.7441385e-07
-7.75069318e-07
-7.75855764e-07
-7.75463764e-07
-7.76532659e-07
-7.30953927e-07
-7.30695662e-07
-7.34927777e-07
-7.35654282e-07
-7.36139381e-07
-7.42653589e-07
-7.74383934e-07
-7.73185634e-07
-7.75151792e-07
-7.73637089e-07
-7.75452304e-07
-7.35553801e-07
-7.35519775e-07
-7.7391546e-07
-7.75147738e-07
-7.36162914e-07
-7.37312506e-07
-7.74331939e-07
-7.74577132e-07
-7.33828202e-07
-7.40609968e-07
-7.74955272e-07
-7.37403578e-07
-7.36232962e-07
-7.73741382e-07
-7.75226949e-07
-7.35689473e-07
-7.36624788e-07
-7.74258229e-07
-7.7546866e-07
-7.32815411e-07
-7.32995986e-07
-7.34944864e-07
-7.35093708e-07
-7.36964848e-07
-7.3624224e-07
-7.44399924e-07
-7.73627787e-07
-7.73411872e-07
-7.73825351e-07
-7.74673812e-07
-7.3574816e-07
-7.37167426e-07
-7.74079795e-07
-7.74087029e-07
-7.74300445e-07
-7.75061159e-07
-7.33582195e-07
-7.33075643e-07
-7.36451588e-07
-7.63931831e-07
-7.73787726e-07
-7.75482835e-07
-7.35840735e-07
-7.35671979e-07
-7.36793769e-07
-7.38817326e-07
-7.73493746e-07
-7.74273608e-07
-7.37093976e-07
-7.37916986e-07
-7.73429507e-07
-7.74616405e-07
-7.3684935e-07
-7.37410743e-07
-7.73479612e-07
-7.7494217e-07
-7.36613504e-07
-7.37341987e-07
-7.73618387e-07
-7.75365842e-07
-7.35952748e-07
-7.36959199e-07
-7.73874228e-07
-7.75035573e-07
-7.34657081e-07
-7.3473884e-07
-7.35908457e-07
-7.36848739e-07
-7.36508997e-07
-7.46130566e-07
-7.73504262e-07
-7.73684293e-07
-7.73726812e-07
-7.76368009e-07
-7.35738163e-07
-7.36697654e-07
-7.73738706e-07
-7.76266784e-07
-7.35029978e-07
-7.33457471e-07
-7.39424145e-07
-7.74550461e-07
-7.77295281e-07
-7.35746255e-07
-7.37927578e-07
-7.74196005e-07
-7.77720545e-07
-7.35145385e-07
-7.35187856e-07
-7.35671012e-07
-7.46143602e-07
-7.74515105e-07
-7.75433806e-07
-7.74818905e-07
-7.80214417e-07
-7.33695053e-07
-7.3578489e-07
-7.74856383e-07
-7.80087506e-07
-7.33295528e-07
-7.33558298e-07
-7.35390628e-07
-7.47149267e-07
-7.73726497e-07
-7.7392728e-07
-7.73315674e-07
-7.76126728e-07
-7.39416256e-07
-7.36155641e-07
-7.37500443e-07
-7.36533339e-07
-7.42634555e-07
-7.73940143e-07
-7.78114405e-07
-7.36547592e-07
-7.39259225e-07
-7.74098907e-07
-7.77715901e-07
-7.33871411e-07
-7.34031793e-07
-7.52576974e-07
-7.73527822e-07
-7.73381791e-07
-7.75200567e-07
-7.53266222e-07
-7.3384195e-07
-7.33936456e-07
-7.40174494e-07
-7.74683224e-07
-7.77389699e-07
-7.34357414e-07
-7.370117e-07
-7.74642171e-07
-7.77399153e-07
-7.33170609e-07
-7.33329618e-07
-7.35009894e-07
-7.40072903e-07
-7.73699474e-07
-7.73969436e-07
-7.73155964e-07
-7.75067423e-07
-7.39914717e-07
-7.34962268e-07
-7.40371838e-07
-7.74560493e-07
-7.74292377e-07
-7.33948824e-07
-7.36313644e-07
-7.74597938e-07
-7.74761929e-07
-7.32534668e-07
-7.31835563e-07
-7.44852416e-07
-7.74967668e-07
-7.72803118e-07
-7.74415131e-07
-7.37920557e-07
-7.3775886e-07
-7.73525671e-07
-7.73644399e-07
-7.36998136e-07
-7.35977426e-07
-7.42261048e-07
-7.74439108e-07
-7.73193869e-07
-7.35898435e-07
-7.3549201e-07
-7.74803701e-07
-7.74153814e-07
-7.34701663e-07
-7.34396378e-07
-7.75364285e-07
-7.74982038e-07
-7.32952743e-07
-7.31682477e-07
-7.35645675e-07
-7.34861725e-07
-7.39061298e-07
-7.69816143e-07
-7.73136403e-07
-7.74364654e-07
-7.38529336e-07
-7.39792762e-07
-7.74304356e-07
-7.75533751e-07
-7.74306018e-07
-7.76539471e-07
-7.34863359e-07
-7.34788903e-07
-7.75629468e-07
-7.78787569e-07
-7.33584807e-07
-7.32417122e-07
-7.35794094e-07
-7.36787591e-07
-7.60357647e-07
-7.74037376e-07
-7.74331186e-07
-7.36887225e-07
-7.35902034e-07
-7.74761378e-07
-7.74044334e-07
-7.36226657e-07
-7.36201661e-07
-7.74198606e-07
-7.73955779e-07
-7.36466738e-07
-7.36724397e-07
-7.7392413e-07
-7.73816382e-07
-7.3649339e-07
-7.36992707e-07
-7.73993398e-07
-7.73420682e-07
-7.35209848e-07
-7.45371854e-07
-7.74344212e-07
-7.38249068e-07
-7.35371394e-07
-7.38253397e-07
-7.37856268e-07
-7.53051803e-07
-7.73382478e-07
-7.73984996e-07
-7.37075095e-07
-7.37323141e-07
-7.73671963e-07
-7.74476611e-07
-7.36052391e-07
-7.36835662e-07
-7.74047623e-07
-7.75035184e-07
-7.34576523e-07
-7.35771798e-07
-7.7486477e-07
-7.75769436e-07
-7.30865232e-07
-7.3079778e-07
-7.35425277e-07
-7.3528591e-07
-7.51987408e-07
-7.74343463e-07
-7.7494523e-07
-7.74224869e-07
-7.7581054e-07
-7.36203714e-07
-7.36703744e-07
-7.73824454e-07
-7.75141415e-07
-7.37044144e-07
-7.38077817e-07
-7.73881929e-07
-7.75277065e-07
-7.36257415e-07
-7.3689586e-07
-7.74667052e-07
-7.75820999e-07
-7.3269321e-07
-7.35771847e-07
-7.76162122e-07
-7.74351377e-07
-7.76699711e-07
-7.36079882e-07
-7.36046158e-07
-7.74364821e-07
-7.75952135e-07
-7.35180868e-07
-7.36581726e-07
-7.75053848e-07
-7.76186726e-07
-7.3084545e-07
-7.30818549e-07
-7.35143091e-07
-7.35896725e-07
-7.3697911e-07
-7.42621246e-07
-7.74092864e-07
-7.73574356e-07
-7.75262681e-07
-7.7428987e-07
-7.76313827e-07
-7.32568174e-07
-7.31069202e-07
-7.47683677e-07
-7.75337543e-07
-7.73425822e-07
-7.75700565e-07
-7.3545943e-07
-7.35468557e-07
-7.74045089e-07
-7.75325552e-07
-7.35609551e-07
-7.36868191e-07
-7.74289208e-07
-7.74565793e-07
-7.34048445e-07
-7.44073297e-07
-7.7530854e-07
-7.36105618e-07
-7.33483622e-07
-7.45096544e-07
-7.74852308e-07
-7.74800191e-07
-7.33657902e-07
-7.33642767e-07
-7.36243324e-07
-7.35847076e-07
-7.5745405e-07
-7.76010019e-07
-7.73929444e-07
-7.79355323e-07
-7.35971964e-07
-7.35781993e-07
-7.74068836e-07
-7.74810007e-07
-7.35090069e-07
-7.3591893e-07
-7.74083651e-07
-7.73961396e-07
-7.32826107e-07
-7.43707092e-07
-7.74721842e-07
-7.3508575e-07
-7.34115114e-07
-7.74199017e-07
-7.73371581e-07
-7.74885549e-07
-7.46144113e-07
-7.31858001e-07
-7.3535819e-07
-7.74102089e-07
-7.73861242e-07
-7.37769689e-07
-7.35398679e-07
-7.36603142e-07
-7.50372529e-07
-7.73642989e-07
-7.72735593e-07
-7.73793781e-07
-7.38659647e-07
-7.35689254e-07
-7.38097874e-07
-7.37013755e-07
-7.48401839e-07
-7.73531858e-07
-7.72646129e-07
-7.37578772e-07
-7.36837347e-07
-7.73781537e-07
-7.72912257e-07
-7.36569031e-07
-7.36455654e-07
-7.73945809e-07
-7.72663217e-07
-7.35013447e-07
-7.44766861e-07
-7.74277295e-07
-7.37527572e-07
-7.33788179e-07
-7.45319491e-07
-7.74410302e-07
-7.73131627e-07
-7.59189237e-07
-7.36721861e-07
-7.36636101e-07
-7.74590803e-07
-7.73704367e-07
-7.34793324e-07
-7.3426426e-07
-7.32847585e-07
-7.35675021e-07
-7.76047911e-07
-7.73090442e-07
-7.75437755e-07
-7.461807e-07
-7.34376036e-07
-7.38221863e-07
-7.74713605e-07
-7.73649249e-07
-7.35449511e-07
-7.32593889e-07
-7.37831001e-07
-7.7490701e-07
-7.72946365e-07
-7.34458987e-07
-7.36512338e-07
-7.74587602e-07
-7.73721944e-07
-7.74044707e-07
-7.74097362e-07
-7.36634612e-07
-7.33579454e-07
-7.37728288e-07
-7.74718201e-07
-7.73113597e-07
-7.36545197e-07
-7.36145937e-07
-7.36921592e-07
-7.38672895e-07
-7.74245867e-07
-7.72983372e-07
-7.37682953e-07
-7.36687361e-07
-7.74663234e-07
-7.73998334e-07
-7.36637618e-07
-7.34061228e-07
-7.46825928e-07
-7.74787615e-07
-7.73448156e-07
-7.3604271e-07
-7.34652446e-07
-7.75563072e-07
-7.75939056e-07
-7.34384709e-07
-7.76112909e-07
-7.74545686e-07
-7.34344833e-07
-7.34161361e-07
-7.75801896e-07
-7.75178609e-07
-7.34621009e-07
-7.30707804e-07
-7.33950043e-07
-7.76212826e-07
-7.7375489e-07
-7.75335838e-07
-7.73169156e-07
-7.35309253e-07
-7.38063948e-07
-7.74913332e-07
-7.42314773e-07
-7.34709872e-07
-7.38954883e-07
-7.74222099e-07
-7.72566619e-07
-7.38407221e-07
-7.37735636e-07
-7.73813456e-07
-7.72980033e-07
-7.37321432e-07
-7.37100513e-07
-7.73760703e-07
-7.73598336e-07
-7.35861998e-07
-7.35403159e-07
-7.36980161e-07
-7.36387822e-07
-7.44833464e-07
-7.73443205e-07
-7.73075805e-07
-7.3767382e-07
-7.3762757e-07
-7.37490396e-07
-7.38753996e-07
-7.73341049e-07
-7.73626457e-07
-7.36940079e-07
-7.37644968e-07
-7.73469015e-07
-7.74385976e-07
-7.36134747e-07
-7.36964154e-07
-7.7367634e-07
-7.75060806e-07
-7.35603059e-07
-7.36604722e-07
-7.73899071e-07
-7.75739524e-07
-7.34989989e-07
-7.3548142e-07
-7.34903492e-07
-7.39442681e-07
-7.74315311e-07
-7.7325484e-07
-7.76608679e-07
-7.36344013e-07
-7.37074822e-07
-7.73651565e-07
-7.76704371e-07
-7.36234982e-07
-7.38044193e-07
-7.73619535e-07
-7.76763311e-07
-7.36279624e-07
-7.39270353e-07
-7.74258653e-07
-7.58449126e-07
-7.35648863e-07
-7.36053323e-07
-7.50552682e-07
-7.74091524e-07
-7.7699329e-07
-7.35698602e-07
-7.45622802e-07
-7.76757754e-07
-7.35204814e-07
-7.34988861e-07
-7.36342588e-07
-7.40916824e-07
-7.72910685e-07
-7.72784173e-07
-7.75989629e-07
-7.38311528e-07
-7.35432575e-07
-7.45271858e-07
-7.74295107e-07
-7.78648549e-07
-7.36151549e-07
-7.3941234e-07
-7.74151034e-07
-7.79397187e-07
-7.35918434e-07
-7.39230837e-07
-7.74183861e-07
-7.79776839e-07
-7.35691372e-07
-7.39168176e-07
-7.74247702e-07
-7.8004647e-07
-7.35480684e-07
-7.39114819e-07
-7.74314005e-07
-7.80236248e-07
-7.35333636e-07
-7.39079819e-07
-7.74363088e-07
-7.80348893e-07
-7.35266689e-07
-7.39074693e-07
-7.74391876e-07
-7.8039459e-07
-7.35247595e-07
-7.39075973e-07
-7.74410166e-07
-7.80396643e-07
-7.35225582e-07
-7.39045088e-07
-7.74430585e-07
-7.80379494e-07
-7.35152389e-07
-7.38946983e-07
-7.74462875e-07
-7.80362715e-07
-7.34973033e-07
-7.38757883e-07
-7.74520844e-07
-7.80335358e-07
-7.34647623e-07
-7.38565176e-07
-7.74749003e-07
-7.80128389e-07
-7.33034838e-07
-7.33428961e-07
-7.35737845e-07
-7.43052224e-07
-7.74414626e-07
-7.78860292e-07
-7.3394857e-07
-7.34443047e-07
-7.44986221e-07
-7.74521283e-07
-7.7375161e-07
-7.78506826e-07
-7.33837477e-07
-7.34099047e-07
-7.4651624e-07
-7.7474659e-07
-7.78019475e-07
-7.3586569e-07
-7.3947406e-07
-7.74166761e-07
-7.74039863e-07
-7.77980552e-07
-7.33555024e-07
-7.33749002e-07
-7.45488515e-07
-7.74711908e-07
-7.77509567e-07
-7.35940472e-07
-7.39638699e-07
-7.74530209e-07
-7.77641698e-07
-7.34671206e-07
-7.51096103e-07
-7.77626522e-07
-7.38563394e-07
-7.39353572e-07
-7.73953343e-07
-7.77265002e-07
-7.34954162e-07
-7.48187303e-07
-7.77242873e-07
-7.38616872e-07
-7.39044799e-07
-7.73272555e-07
-7.76890715e-07
-7.37160169e-07
-7.38999202e-07
-7.73496953e-07
-7.76778088e-07
-7.3654739e-07
-7.38906236e-07
-7.74086747e-07
-7.76872315e-07
-7.33341329e-07
-7.33622833e-07
-7.35968948e-07
-7.36483345e-07
-7.37423666e-07
-7.38038799e-07
-7.53179049e-07
-7.73881971e-07
-7.73475284e-07
-7.75722684e-07
-7.7373182e-07
-7.77520445e-07
-7.36382702e-07
-7.37087233e-07
-7.74491445e-07
-7.766503e-07
-7.32285555e-07
-7.32433673e-07
-7.35363112e-07
-7.36252539e-07
-7.36390326e-07
-7.50100024e-07
-7.73636362e-07
-7.735006e-07
-7.7447137e-07
-7.58177505e-07
-7.34311189e-07
-7.37787411e-07
-7.7436105e-07
-7.74838577e-07
-7.35393063e-07
-7.36625177e-07
-7.74193575e-07
-7.74824591e-07
-7.3547161e-07
-7.3692981e-07
-7.74562427e-07
-7.74917995e-07
-7.32838423e-07
-7.32239375e-07
-7.40925622e-07
-7.75077437e-07
-7.73431919e-07
-7.35212901e-07
-7.35958142e-07
-7.74557168e-07
-7.74183428e-07
-7.35457092e-07
-7.35618072e-07
-7.74437059e-07
-7.75053649e-07
-7.35257934e-07
-7.36047933e-07
-7.74664771e-07
-7.75174505e-07
-7.35308146e-07
-7.36221531e-07
-7.74674539e-07
-7.74947769e-07
-7.3561303e-07
-7.36222935e-07
-7.74723474e-07
-7.74597742e-07
-7.36051814e-07
-7.36104146e-07
-7.74753464e-07
-7.73809344e-07
-7.36561499e-07
-7.37934385e-07
-7.74437568e-07
-7.71598751e-07
-7.35472936e-07
-7.37300745e-07
-7.74648464e-07
-7.73550861e-07
-7.37022878e-07
-7.36477389e-07
-7.75325102e-07
-7.74108793e-07
-7.35737112e-07
-7.33843036e-07
-7.36665295e-07
-7.36331705e-07
-7.43169547e-07
-7.74635981e-07
-7.72931591e-07
-7.37856641e-07
-7.36112701e-07
-7.75920314e-07
-7.73473962e-07
-7.37346961e-07
-7.36006552e-07
-7.76222776e-07
-7.73095402e-07
-7.35551019e-07
-7.44508017e-07
-7.74588829e-07
-7.40294383e-07
-7.36753129e-07
-7.75660182e-07
-7.73047194e-07
-7.36351423e-07
-7.45450846e-07
-7.74378768e-07
-7.40279234e-07
-7.36993224e-07
-7.748767e-07
-7.73540328e-07
-7.37692057e-07
-7.36539228e-07
-7.75021059e-07
-7.73693464e-07
-7.36605562e-07
-7.36518423e-07
-7.74903062e-07
-7.74271945e-07
-7.33665383e-07
-7.33599844e-07
-7.75196393e-07
-7.74728158e-07
-7.34270251e-07
-7.34091154e-07
-7.36215628e-07
-7.36895846e-07
-7.36624516e-07
-7.46234739e-07
-7.74034499e-07
-7.72948365e-07
-7.7428924e-07
-7.37576461e-07
-7.37693223e-07
-7.73565182e-07
-7.74379551e-07
-7.35102553e-07
-7.35269255e-07
-7.44502854e-07
-7.74248069e-07
-7.73225491e-07
-7.75343595e-07
-7.35302486e-07
-7.34231261e-07
-7.40842197e-07
-7.74559687e-07
-7.75650157e-07
-7.34797156e-07
-7.35117869e-07
-7.35383195e-07
-7.41686072e-07
-7.7431345e-07
-7.73165786e-07
-7.76655214e-07
-7.36556075e-07
-7.37519665e-07
-7.73831652e-07
-7.76307177e-07
-7.35157567e-07
-7.40540038e-07
-7.75859531e-07
-7.35903074e-07
-7.35401931e-07
-7.36730414e-07
-7.40569216e-07
-7.73813703e-07
-7.74727914e-07
-7.73916349e-07
-7.77443365e-07
-7.35327805e-07
-7.37551749e-07
-7.74001254e-07
-7.76704548e-07
-7.34941497e-07
-7.40396687e-07
-7.7674974e-07
-7.37562939e-07
-7.37917934e-07
-7.7349321e-07
-7.7626194e-07
-7.3603033e-07
-7.3619462e-07
-7.36380427e-07
-7.41851841e-07
-7.73478355e-07
-7.73759595e-07
-7.73557595e-07
-7.75331071e-07
-7.36110582e-07
-7.35694686e-07
-7.36301028e-07
-7.3609816e-07
-7.35376473e-07
-7.39351755e-07
-7.73773451e-07
-7.74175658e-07
-7.736944e-07
-7.76449257e-07
-7.36610227e-07
-7.37674409e-07
-7.73608075e-07
-7.75252187e-07
-7.35524008e-07
-7.34857258e-07
-7.34316041e-07
-7.37748163e-07
-7.74631048e-07
-7.73438325e-07
-7.75528555e-07
-7.37191948e-07
-7.37184564e-07
-7.7340011e-07
-7.76164796e-07
-7.36440087e-07
-7.37746416e-07
-7.73408689e-07
-7.7560466e-07
-7.36622958e-07
-7.40603482e-07
-7.74504333e-07
-7.41031038e-07
-7.37147834e-07
-7.72479124e-07
-7.75187782e-07
-7.38753428e-07
-7.34513186e-07
-7.35657156e-07
-7.3297884e-07
-7.35236245e-07
-7.74253308e-07
-7.76327758e-07
-7.35445182e-07
-7.36167306e-07
-7.73209923e-07
-7.75893551e-07
-7.38082674e-07
-7.32755491e-07
-7.36502237e-07
-7.73889979e-07
-7.73478061e-07
-7.75833736e-07
-7.37115906e-07
-7.37522714e-07
-7.72875578e-07
-7.75653274e-07
-7.40793652e-07
-7.34558698e-07
-7.37327267e-07
-7.74895406e-07
-7.7528832e-07
-7.75026881e-07
-7.78807026e-07
-7.32503851e-07
-7.34376915e-07
-7.74375009e-07
-7.78234069e-07
-7.35396022e-07
-7.37865369e-07
-7.73228058e-07
-7.75821489e-07
-7.40715461e-07
-7.35349901e-07
-7.35892799e-07
-7.32592668e-07
-7.36633026e-07
-7.74928746e-07
-7.74008419e-07
-7.78500324e-07
-7.36497625e-07
-7.37576655e-07
-7.73877318e-07
-7.78791106e-07
-7.3618216e-07
-7.3877475e-07
-7.73797046e-07
-7.78757171e-07
-7.36677211e-07
-7.39565705e-07
-7.73870441e-07
-7.79007778e-07
-7.36399479e-07
-7.3948375e-07
-7.74022567e-07
-7.79231939e-07
-7.36168532e-07
-7.39311662e-07
-7.74285915e-07
-7.79175091e-07
-7.34565095e-07
-7.34679754e-07
-7.34641227e-07
-7.42146197e-07
-7.74555142e-07
-7.73549893e-07
-7.77683423e-07
-7.35997417e-07
-7.35048179e-07
-7.35849781e-07
-7.39705384e-07
-7.74597035e-07
-7.79852799e-07
-7.34722802e-07
-7.3782477e-07
-7.74911004e-07
-7.74205909e-07
-7.8098838e-07
-7.36157466e-07
-7.38649724e-07
-7.73523141e-07
-7.76816345e-07
-7.37255232e-07
-7.35695092e-07
-7.42206e-07
-7.74185224e-07
-7.77604976e-07
-7.37164396e-07
-7.39291616e-07
-7.737473e-07
-7.77825704e-07
-7.36159715e-07
-7.38856104e-07
-7.74242104e-07
-7.77629846e-07
-7.33966527e-07
-7.34078839e-07
-7.34002243e-07
-7.39319783e-07
-7.7487109e-07
-7.73545019e-07
-7.77976305e-07
-7.36259049e-07
-7.37428108e-07
-7.73950745e-07
-7.76712344e-07
-7.35695669e-07
-7.41952016e-07
-7.75284526e-07
-7.38487583e-07
-7.38197867e-07
-7.73579384e-07
-7.765621e-07
-7.35714496e-07
-7.37205688e-07
-7.74018564e-07
-7.76799154e-07
-7.34669076e-07
-7.36254767e-07
-7.7437447e-07
-7.76789228e-07
-7.33288055e-07
-7.33392963e-07
-7.34252766e-07
-7.40093063e-07
-7.73876595e-07
-7.73251364e-07
-7.73370879e-07
-7.739154e-07
-7.48682796e-07
-7.3614762e-07
-7.36033124e-07
-7.42416935e-07
-7.73920198e-07
-7.78385939e-07
-7.35437388e-07
-7.42938937e-07
-7.73971319e-07
-7.58505831e-07
-7.35063375e-07
-7.35032188e-07
-7.53418154e-07
-7.74164718e-07
-7.56454745e-07
-7.3439146e-07
-7.35514354e-07
-7.57487735e-07
-7.73206908e-07
-7.73684104e-07
-7.38450707e-07
-7.36374871e-07
-7.73583266e-07
-7.73372383e-07
-7.37240035e-07
-7.37278156e-07
-7.68249979e-07
-7.55208753e-07
-7.36451795e-07
-7.45737356e-07
-7.73700427e-07
-7.73557115e-07
-7.39000915e-07
-7.3451185e-07
-7.36187047e-07
-7.33517979e-07
-7.35080698e-07
-7.76523113e-07
-7.73922722e-07
-7.75425146e-07
-7.73660227e-07
-7.74360733e-07
-7.38355029e-07
-7.3557852e-07
-7.76931928e-07
-7.73838841e-07
-7.37305899e-07
-7.37076347e-07
-7.77570346e-07
-7.4873631e-07
-7.34922036e-07
-7.77208306e-07
-7.74525341e-07
-7.38969128e-07
-7.34609839e-07
-7.33400858e-07
-7.33372715e-07
-7.78591841e-07
-7.74491996e-07
-7.748863e-07
-7.73988044e-07
-7.47326156e-07
-7.37250945e-07
-7.38845735e-07
-7.38783243e-07
-7.38483619e-07
-7.37194706e-07
-7.3684016e-07
-7.78224493e-07
-7.73446637e-07
-7.43211688e-07
-7.37798825e-07
-7.79558257e-07
-7.73589735e-07
-7.41654846e-07
-7.37156985e-07
-7.80285011e-07
-7.74000219e-07
-7.40356127e-07
-7.35698051e-07
-7.79418225e-07
-7.73707753e-07
-7.45746799e-07
-7.45219419e-07
-7.77250927e-07
-7.46229362e-07
-7.35805718e-07
-7.76989709e-07
-7.74878498e-07
-7.45879943e-07
-7.34883608e-07
-7.45424075e-07
-7.77005258e-07
-7.5120588e-07
-7.37821388e-07
-7.7476157e-07
-7.74832419e-07
-7.5121707e-07
-7.36516697e-07
-7.36383163e-07
-7.34926242e-07
-7.34632083e-07
-7.58791809e-07
-7.75047097e-07
-7.74662588e-07
-7.4653746e-07
-7.3571279e-07
-7.61279384e-07
-7.7605534e-07
-7.55619543e-07
-7.35191369e-07
-7.34790741e-07
-7.77110488e-07
-7.75049196e-07
-7.55246126e-07
-7.35038852e-07
-7.34710507e-07
-7.79160265e-07
-7.74659401e-07
-7.50468818e-07
-7.36081395e-07
-7.45976281e-07
-7.76172794e-07
-7.64684819e-07
-7.36485583e-07
-7.43024197e-07
-7.76078228e-07
-7.7044149e-07
-7.36782679e-07
-7.42017816e-07
-7.7584334e-07
-7.72342884e-07
-7.36868223e-07
-7.45373949e-07
-7.76206206e-07
-7.73603898e-07
-7.68641191e-07
-7.35942764e-07
-7.3514001e-07
-7.56255803e-07
-7.74922558e-07
-7.70197875e-07
-7.36601074e-07
-7.36813301e-07
-7.67794113e-07
-7.74222577e-07
-7.66518206e-07
-7.36354498e-07
-7.36244334e-07
-7.36947972e-07
-7.45449375e-07
-7.74489889e-07
-7.77457437e-07
-7.35126912e-07
-7.34663493e-07
-7.36481732e-07
-7.36845635e-07
-7.5985718e-07
-7.7419684e-07
-7.75906383e-07
-7.74657872e-07
-7.73859796e-07
-7.33766056e-07
-7.33712313e-07
-7.48748813e-07
-7.75189859e-07
-7.63339774e-07
-7.37363815e-07
-7.49347007e-07
-7.7471598e-07
-7.61803851e-07
-7.3771473e-07
-7.49852788e-07
-7.74483468e-07
-7.73798042e-07
-7.35415073e-07
-7.35471141e-07
-7.36277693e-07
-7.48741227e-07
-7.75050084e-07
-7.67050048e-07
-7.37905505e-07
-7.4677941e-07
-7.74566484e-07
-7.69749885e-07
-7.37559649e-07
-7.44413715e-07
-7.74388947e-07
-7.73559584e-07
-7.37140803e-07
-7.42372796e-07
-7.74313205e-07
-7.77307211e-07
-7.37020583e-07
-7.43280435e-07
-7.76944997e-07
-7.41591882e-07
-7.36323831e-07
-7.73802065e-07
-7.78107318e-07
-7.36102214e-07
-7.37066251e-07
-7.73976932e-07
-7.75346583e-07
-7.42205713e-07
-7.35508266e-07
-7.35735455e-07
-7.34944896e-07
-7.32825465e-07
-7.38539e-07
-7.75209357e-07
-7.7417934e-07
-7.74348046e-07
-7.75353262e-07
-7.42489373e-07
-7.32335873e-07
-7.32974547e-07
-7.75814768e-07
-7.74632744e-07
-7.39114224e-07
-7.37111454e-07
-7.75783717e-07
-7.74017542e-07
-7.38908768e-07
-7.38520818e-07
-7.76393424e-07
-7.57496851e-07
-7.3410916e-07
-7.76620316e-07
-7.74597628e-07
-7.37390628e-07
-7.37910952e-07
-7.76581135e-07
-7.54852675e-07
-7.33632819e-07
-7.75894213e-07
-7.74692192e-07
-7.37331227e-07
-7.36190436e-07
-7.75291035e-07
-7.73649137e-07
-7.53309106e-07
-7.38069384e-07
-7.370107e-07
-7.36533161e-07
-7.33571841e-07
-7.35398752e-07
-7.75144776e-07
-7.73433495e-07
-7.74457015e-07
-7.45397199e-07
-7.37417865e-07
-7.73419706e-07
-7.73710882e-07
-7.40119013e-07
-7.35596582e-07
-7.66320072e-07
-7.7410055e-07
-7.38253939e-07
-7.35906051e-07
-7.73319414e-07
-7.7388556e-07
-7.51609996e-07
-7.37639432e-07
-7.36953764e-07
-7.35988101e-07
-7.35820082e-07
-7.32872873e-07
-7.36059484e-07
-7.74893102e-07
-7.73587755e-07
-7.75199764e-07
-7.73135737e-07
-7.75354559e-07
-7.45475711e-07
-7.360296e-07
-7.34697978e-07
-7.36129917e-07
-7.73377653e-07
-7.75444727e-07
-7.41285213e-07
-7.34158842e-07
-7.36682373e-07
-7.74115802e-07
-7.7580772e-07
-7.37300527e-07
-7.3805008e-07
-7.7361975e-07
-7.76154565e-07
-7.36471789e-07
-7.3775145e-07
-7.73715073e-07
-7.76455357e-07
-7.36052675e-07
-7.37635328e-07
-7.73727902e-07
-7.76498603e-07
-7.35974226e-07
-7.37664728e-07
-7.73622964e-07
-7.75273533e-07
-7.36524853e-07
-7.34799873e-07
-7.34381531e-07
-7.37182003e-07
-7.73784951e-07
-7.73082916e-07
-7.75531481e-07
-7.39655944e-07
-7.33946487e-07
-7.38437712e-07
-7.73840705e-07
-7.74665642e-07
-7.38030692e-07
-7.35663961e-07
-7.73706154e-07
-7.75234846e-07
-7.45081048e-07
-7.32335147e-07
-7.37468278e-07
-7.74520994e-07
-7.73108499e-07
-7.75180332e-07
-7.38033785e-07
-7.34720785e-07
-7.34873753e-07
-7.37801385e-07
-7.74280012e-07
-7.74388296e-07
-7.74392536e-07
-7.75103343e-07
-7.35307347e-07
-7.34063874e-07
-7.33761229e-07
-7.3782323e-07
-7.75371926e-07
-7.73850718e-07
-7.75954655e-07
-7.35484048e-07
-7.37015312e-07
-7.75029188e-07
-7.74480174e-07
-7.76249073e-07
-7.3409258e-07
-7.33969829e-07
-7.7510903e-07
-7.75453849e-07
-7.37012928e-07
-7.36818598e-07
-7.747503e-07
-7.756934e-07
-7.35913939e-07
-7.37144052e-07
-7.74311593e-07
-7.75394956e-07
-7.33882313e-07
-7.33936843e-07
-7.33985167e-07
-7.36289557e-07
-7.74273839e-07
-7.76350154e-07
-7.35672886e-07
-7.38658227e-07
-7.74633178e-07
-7.73808928e-07
-7.7634948e-07
-7.35880169e-07
-7.36110569e-07
-7.73981726e-07
-7.76980659e-07
-7.34618082e-07
-7.3599322e-07
-7.73994467e-07
-7.76034729e-07
-7.34642484e-07
-7.33313638e-07
-7.35589406e-07
-7.33720814e-07
-7.37915808e-07
-7.74340007e-07
-7.74250372e-07
-7.73963566e-07
-7.75417676e-07
-7.36996223e-07
-7.34924647e-07
-7.38779754e-07
-7.74020103e-07
-7.75108106e-07
-7.36852429e-07
-7.38044808e-07
-7.73439105e-07
-7.74798203e-07
-7.36834565e-07
-7.34486177e-07
-7.41003771e-07
-7.74118356e-07
-7.73039553e-07
-7.74511152e-07
-7.36870154e-07
-7.36778306e-07
-7.73351128e-07
-7.74607813e-07
-7.36085214e-07
-7.34175214e-07
-7.37425764e-07
-7.74036092e-07
-7.73161189e-07
-7.36336222e-07
-7.38085858e-07
-7.74055595e-07
-7.58360505e-07
-7.34721807e-07
-7.35984123e-07
-7.3497647e-07
-7.36013738e-07
-7.73758614e-07
-7.73546565e-07
-7.37867971e-07
-7.36969779e-07
-7.73725769e-07
-7.73528829e-07
-7.36830251e-07
-7.36378898e-07
-7.74322275e-07
-7.73774279e-07
-7.3624063e-07
-7.35674411e-07
-7.74882589e-07
-7.74180681e-07
-7.3561103e-07
-7.34470081e-07
-7.75145962e-07
-7.75085113e-07
-7.36614346e-07
-7.30856436e-07
-7.34154465e-07
-7.76450199e-07
-7.74302271e-07
-7.75345745e-07
-7.74235082e-07
-7.36354939e-07
-7.34196348e-07
-7.76575424e-07
-7.74231554e-07