/*--------------------------------*- C++ -*----------------------------------*\
| =========                 |                                                 |
| \\      /  F ield         | OpenFOAM: The Open Source CFD Toolbox           |
|  \\    /   O peration     | Version:  2306                                  |
|   \\  /    A nd           | Website:  www.openfoam.com                      |
|    \\/     M anipulation  |                                                 |
\*---------------------------------------------------------------------------*/
FoamFile
{
    version     2.0;
    format      ascii;
    arch        "LSB;label=32;scalar=64";
    class       volScalarField;
    location    "8e-05";
    object      rho;
}
// * * * * * * * * * * * * * * * * * * * * * * * * * * * * * * * * * * * * * //

dimensions      [1 -3 0 0 0 0 0];

internalField   nonuniform List<scalar> 
3810
(
0.959790652
0.936754842
0.901086459
0.899738962
0.943669365
0.955138222
0.90067872
0.900896621
0.941872859
0.901458298
0.897747893
0.946336181
0.949491874
0.900362528
0.896720585
0.935145483
0.937040153
0.897617152
0.927703372
0.942606458
0.946848019
0.946147924
0.893049728
0.888115714
0.887429198
0.921718739
0.896912691
0.88239748
0.91577524
0.93117436
0.899866971
0.879568982
0.910859904
0.919047635
0.896647146
0.906949111
0.925497065
0.92505783
0.923659452
0.926832203
0.923598812
0.889579008
0.879388618
0.881418025
0.880971368
0.906107187
0.928462204
0.920705041
0.889012864
0.885944096
0.888703084
0.913463215
0.942050778
0.929784485
0.895625419
0.915920098
0.93681351
0.947492524
0.952821372
0.933497815
0.901899653
0.898007516
0.914340488
0.939997453
0.953680491
0.933983417
0.902565339
0.91738381
0.941403906
0.951732599
0.934632859
0.903775019
0.923107131
0.942904005
0.938153469
0.903769292
0.922095063
0.946080433
0.939093141
0.903900502
0.917175199
0.943348794
0.949362192
0.946277567
0.946414543
0.947287812
0.951412913
0.934417356
0.907464459
0.932819592
0.918531526
0.906238195
0.936950806
0.955527439
0.939271588
0.905715003
0.93710026
0.934953336
0.905342011
0.931944906
0.958748972
0.95892052
0.933582537
0.90721099
0.935006924
0.956912626
0.95924685
0.940899082
0.907494403
0.920731623
0.962220582
0.962371319
0.938191025
0.908331375
0.907459894
0.909465522
0.938188288
0.961438356
0.960635654
0.962698972
0.943399451
0.909386313
0.915872064
0.96845368
0.963613475
0.919936297
0.910872519
0.913365974
0.943900965
0.956020145
0.942540114
0.911911716
0.939516293
0.95888541
0.943975421
0.912830173
0.942550225
0.959533603
0.942887748
0.913940669
0.94580497
0.960777348
0.940809081
0.914684344
0.948262143
0.963122755
0.935391404
0.915250824
0.954658372
0.970808284
0.964254114
0.963514277
0.938989477
0.911271761
0.913100331
0.91098871
0.9147059
0.958967553
0.964015083
0.925405088
0.913339137
0.95997016
0.969645787
0.959500946
0.955965103
0.930842664
0.907786783
0.909773909
0.90750171
0.909731327
0.955356068
0.955542069
0.914228035
0.909002838
0.945204038
0.968512732
0.947341097
0.908147849
0.90817499
0.952818579
0.950058563
0.906680706
0.908648651
0.955209517
0.951975008
0.905583415
0.907278588
0.957216421
0.967487159
0.944985677
0.921054138
0.904390376
0.908383098
0.90443048
0.907374927
0.949294606
0.968368935
0.94143215
0.905726177
0.905219904
0.951913791
0.946581135
0.90497841
0.906016174
0.95237183
0.946850915
0.90459979
0.905494816
0.954276598
0.946697588
0.904397022
0.90483975
0.958950331
0.958944451
0.956624577
0.942741761
0.903798219
0.904185951
0.956878693
0.957562229
0.956483159
0.941218087
0.903496897
0.902313044
0.904519468
0.90165048
0.904788723
0.939222405
0.958449489
0.949308463
0.945593584
0.931596336
0.903270791
0.923360056
0.962442273
0.970215752
0.939385407
0.90407741
0.902146143
0.90479439
0.940001993
0.967541497
0.942671741
0.903409793
0.902924428
0.940084152
0.961826354
0.940845178
0.904250907
0.903459454
0.955802092
0.952337843
0.903852844
0.905372171
0.945963098
0.959964527
0.940866339
0.90725894
0.905409022
0.958350142
0.946023423
0.907726603
0.908065269
0.908784373
0.960038944
0.957922916
0.907224087
0.909988511
0.951129892
0.966918048
0.956096937
0.929387649
0.909433897
0.941499992
0.968837663
0.968016591
0.944927958
0.909308935
0.910789778
0.909851553
0.912258425
0.958324038
0.951100229
0.909014691
0.912285981
0.959571041
0.948988854
0.908733199
0.911191377
0.964448283
0.968290981
0.943658479
0.90970403
0.911345136
0.959405344
0.947568061
0.908261463
0.91162803
0.968711068
0.969403994
0.945914658
0.92424984
0.908151226
0.911520213
0.908493133
0.911759009
0.970138825
0.970708067
0.958741221
0.964360539
0.944895448
0.909176589
0.909700283
0.90995343
0.913525774
0.959769514
0.948263239
0.906935642
0.909949465
0.960748104
0.948541758
0.906397204
0.90987415
0.959338713
0.947950297
0.905778561
0.908503673
0.958108784
0.960882459
0.942004329
0.926308625
0.905900989
0.908277947
0.959385998
0.959528364
0.928883971
0.907207907
0.907769099
0.950175144
0.939229681
0.905923681
0.907199684
0.95921888
0.959306347
0.929146588
0.906088879
0.906318629
0.95038302
0.93970168
0.90470519
0.90574222
0.955084364
0.955246791
0.945579372
0.950483797
0.946844271
0.950290288
0.938143223
0.905161707
0.90392549
0.904324586
0.949446274
0.940624711
0.903414898
0.903317838
0.904100465
0.930853374
0.962942843
0.958505693
0.950222579
0.937929181
0.904263642
0.90318644
0.961683981
0.961917933
0.953893417
0.938349573
0.902816438
0.902776019
0.901683259
0.902806315
0.930376641
0.959428964
0.956783504
0.945769986
0.937180154
0.902786413
0.900938993
0.950797079
0.937882817
0.902233914
0.903045235
0.900700015
0.953775556
0.937543447
0.901457682
0.942197241
0.945071276
0.902091139
0.901584278
0.951632146
0.947637453
0.901931069
0.902017965
0.967422709
0.968390508
0.952558479
0.956702875
0.936006759
0.902789741
0.902355046
0.902685137
0.902086841
0.902877373
0.90165646
0.971604173
0.972052604
0.955540411
0.951713399
0.950527831
0.936515323
0.902258094
0.901157365
0.901315825
0.901129379
0.90052819
0.951335419
0.951702496
0.901336408
0.90121306
0.949139714
0.944481864
0.901474453
0.901132851
0.958313656
0.936249572
0.900180872
0.944136786
0.948472267
0.901199135
0.901327729
0.950432939
0.94724911
0.900597344
0.901614659
0.961495181
0.961834044
0.953032282
0.953355077
0.94489731
0.948662897
0.936438764
0.901046916
0.900380354
0.901099365
0.900715023
0.950491023
0.944297584
0.90098034
0.901128384
0.90119223
0.901638287
0.959317622
0.961931201
0.94794215
0.923814231
0.90213619
0.90248345
0.951119513
0.951637931
0.947606411
0.938955407
0.902315871
0.90285142
0.946605546
0.943137733
0.902705683
0.903503629
0.948148169
0.945954548
0.903370589
0.904574931
0.949876575
0.947328627
0.904154457
0.905874155
0.953325541
0.949852677
0.905018334
0.906349238
0.959724408
0.959898157
0.955248273
0.95161934
0.953339717
0.941697555
0.907073443
0.907705328
0.907540121
0.90961768
0.957536035
0.954239561
0.907870872
0.910104253
0.961018619
0.969210004
0.945736056
0.909768124
0.911435963
0.959677445
0.951006573
0.909970014
0.912317843
0.962713011
0.96281187
0.960928935
0.944635266
0.91088801
0.912223497
0.911156773
0.914334061
0.968987589
0.961852428
0.91050195
0.913363619
0.970187071
0.970553669
0.961183179
0.94395525
0.909382562
0.910757036
0.909112139
0.911350394
0.946370107
0.958494723
0.951426467
0.956272251
0.944757744
0.909031071
0.910848445
0.955245914
0.945127161
0.908201066
0.910725897
0.965468178
0.965445871
0.939574376
0.907980498
0.907477558
0.908410698
0.939164287
0.965544657
0.96483472
0.942898278
0.907682608
0.909082328
0.962988666
0.953172447
0.907485683
0.908557873
0.967297652
0.967449713
0.959804492
0.942801722
0.906484346
0.907596537
0.906430823
0.907758697
0.943882506
0.961149484
0.943982825
0.90760355
0.906055236
0.96434939
0.954293923
0.90690081
0.906878119
0.969234035
0.973223418
0.942849637
0.90737393
0.907146458
0.906686601
0.948123356
0.949487959
0.907263683
0.907689974
0.951617677
0.957425441
0.944530798
0.908717902
0.906140074
0.957579656
0.957969693
0.908650891
0.907041161
0.962201169
0.963307509
0.908607522
0.908133806
0.968840427
0.975811566
0.958256284
0.963949458
0.944629921
0.924537185
0.908729735
0.908616159
0.946993355
0.943209491
0.908679624
0.910229144
0.90890777
0.908608677
0.96195829
0.96510452
0.90951166
0.910887987
0.967150663
0.973649835
0.958817004
0.955038877
0.933898659
0.90940399
0.907528089
0.95373779
0.957240419
0.908938063
0.907369105
0.955827545
0.955883149
0.908049615
0.906973067
0.954288116
0.953283094
0.90742511
0.906210932
0.953713809
0.951264444
0.906796735
0.90512546
0.958114236
0.941795665
0.905520244
0.945793337
0.957291208
0.945655657
0.947056052
0.936960854
0.905710747
0.903945585
0.949426101
0.948384148
0.904758169
0.904037122
0.952882296
0.950336119
0.904366902
0.903908763
0.958485793
0.954313047
0.904077059
0.90372562
0.973125811
0.974101325
0.95479957
0.95575818
0.934502488
0.903961191
0.903351469
0.903555475
0.902242091
0.950743295
0.949174324
0.902824108
0.90257475
0.94687567
0.943454756
0.902504262
0.90228795
0.9499112
0.947615181
0.902614172
0.901562966
0.964406266
0.951308547
0.90238257
0.902531834
0.90151503
0.950299064
0.950754968
0.902071181
0.901866075
0.95338737
0.948007259
0.901502233
0.901266964
0.970447574
0.970445238
0.953332932
0.949673158
0.94600847
0.935075936
0.901404059
0.900518508
0.901105637
0.900355171
0.900853096
0.961953747
0.96946842
0.933466312
0.900739588
0.900298511
0.900010432
0.950556168
0.950611388
0.900089166
0.899862577
0.949820494
0.944677961
0.899913207
0.899652645
0.956053681
0.934465372
0.89981782
0.947369637
0.958845911
0.934124617
0.900329058
0.899796893
0.957894886
0.957889483
0.947683449
0.949677231
0.927057981
0.90225436
0.900588994
0.904708229
0.948315262
0.950128994
0.899710238
0.899744703
0.951323136
0.947580907
0.899098619
0.898948544
0.959806365
0.934427074
0.898397159
0.951065934
0.954188856
0.899449233
0.898484004
0.899536345
0.934042879
0.964278241
0.948676713
0.898814858
0.898089143
0.940199686
0.94924414
0.944683817
0.93182201
0.898678113
0.898663357
0.898513392
0.936032751
0.948657188
0.938009793
0.943608979
0.933585043
0.899637812
0.897519507
0.941562762
0.942646353
0.899393087
0.897717484
0.945314114
0.944393695
0.899027132
0.898093464
0.951164814
0.935281891
0.89889788
0.940596812
0.956621876
0.934601776
0.89962021
0.899951978
0.926131101
0.945565144
0.945269727
0.900555369
0.899350385
0.954057402
0.954309452
0.962451342
0.94880087
0.900593051
0.899599184
0.900957373
0.934503659
0.956161718
0.938568937
0.900016394
0.899189339
0.949564414
0.961354017
0.940019399
0.89914357
0.89907231
0.953908345
0.945251272
0.899181121
0.89918896
0.899108071
0.899258922
0.944519725
0.957971616
0.94032086
0.89975986
0.898809649
0.946153234
0.946465239
0.94523087
0.936591984
0.900570729
0.899110872
0.94196036
0.94499694
0.899834446
0.899822481
0.94493906
0.956466058
0.934477835
0.900734145
0.899685903
0.948877604
0.954411575
0.900793431
0.901934868
0.954984862
0.909282336
0.900947565
0.957321673
0.957051238
0.901683944
0.901865665
0.954565014
0.971872662
0.956971505
0.901916295
0.900283118
0.901963374
0.899957874
0.953019218
0.940227094
0.901516756
0.93787041
0.955740151
0.938945629
0.901851845
0.900092338
0.940784949
0.942045433
0.901627337
0.900857551
0.944979873
0.945396306
0.901347546
0.901782574
0.950413859
0.953069387
0.946069615
0.949531589
0.93841457
0.902714264
0.902034543
0.944689815
0.944160691
0.945603508
0.940197884
0.902854344
0.902918672
0.947732944
0.94471518
0.903002343
0.903476687
0.951144662
0.948020619
0.903331365
0.904101652
0.953644284
0.950055607
0.9037254
0.904668443
0.956449531
0.954834647
0.957298567
0.94090016
0.904381654
0.904286463
0.905575827
0.951442578
0.949606027
0.904378683
0.90613611
0.951942079
0.94624149
0.904338408
0.906457329
0.951902086
0.940765417
0.904575117
0.932214425
0.954385725
0.953630894
0.937577665
0.905609219
0.906264641
0.955485417
0.939655025
0.906231729
0.957046636
0.957671613
0.952018953
0.941799529
0.904649935
0.904266085
0.905481565
0.944237321
0.956746071
0.939636664
0.905488008
0.907157833
0.953343889
0.941529171
0.905181611
0.908029507
0.954103232
0.94280856
0.90508257
0.908433593
0.954931404
0.943327601
0.905031552
0.908649464
0.95574654
0.94370072
0.90501559
0.908767994
0.956320374
0.943918934
0.904990072
0.908793098
0.95654595
0.943942245
0.904930592
0.908734679
0.95654329
0.943883622
0.904838947
0.908613803
0.956521509
0.943917315
0.904720517
0.908447833
0.956673475
0.944193626
0.904566989
0.908241802
0.957206415
0.944793126
0.904374363
0.907949101
0.958336468
0.945246141
0.904300299
0.907454815
0.964869854
0.965599133
0.953739651
0.937675201
0.903723468
0.906239763
0.960377159
0.961045934
0.938627848
0.905803413
0.903808756
0.905912993
0.961097555
0.961591086
0.937285238
0.904407559
0.904158152
0.953222491
0.938624458
0.904194773
0.903940972
0.904491512
0.962058135
0.962462771
0.937334102
0.904160882
0.903909504
0.952698341
0.938056474
0.903788003
0.904006452
0.957986201
0.934826607
0.904411244
0.941705813
0.939320637
0.903310203
0.903612251
0.956241476
0.936215814
0.903644806
0.940670508
0.940021771
0.902100911
0.903395128
0.945807683
0.939971016
0.901798694
0.903225714
0.948169318
0.94018677
0.901807448
0.903137128
0.960995404
0.961400403
0.950506782
0.94952736
0.944682298
0.943118596
0.93290876
0.903248241
0.901984885
0.903267884
0.902200592
0.902993674
0.949130887
0.947515331
0.902309356
0.903146063
0.96551417
0.965782399
0.952959536
0.949662244
0.948356362
0.933781863
0.901118934
0.90062795
0.901007716
0.928181804
0.956024325
0.941172528
0.900558476
0.899546138
0.951243463
0.94612698
0.900392218
0.899716715
0.950684495
0.945103425
0.899916961
0.900147757
0.960307437
0.964268168
0.935407934
0.900684486
0.898206129
0.951870361
0.947328816
0.900158702
0.898507681
0.950091005
0.949679625
0.899588585
0.898752048
0.950357504
0.948737554
0.899524786
0.89893887
0.949979135
0.947963267
0.899426886
0.898750339
0.948668627
0.947436869
0.899370445
0.898340572
0.946839238
0.946951499
0.899295481
0.898089715
0.94482736
0.940400652
0.899034937
0.913221421
0.949279254
0.942660152
0.899150135
0.897950723
0.943258747
0.944937276
0.899594566
0.898742823
0.947923503
0.956247054
0.944247041
0.946879245
0.935043744
0.900199161
0.897473849
0.940677304
0.945754312
0.900773891
0.897866988
0.94302059
0.946600627
0.900858781
0.898269645
0.949470074
0.934954634
0.899121244
0.935426675
0.944583263
0.901270303
0.898726416
0.946795963
0.935112936
0.8996278
0.936080205
0.944202331
0.901049609
0.899274638
0.941870632
0.945923375
0.900981077
0.899604723
0.946274563
0.946574484
0.900793292
0.90001758
0.957828931
0.958275682
0.900504672
0.900134648
0.955378339
0.956331134
0.947719174
0.944799793
0.94584876
0.933917312
0.899478036
0.899536149
0.898609679
0.941198262
0.940831052
0.898813556
0.899280361
0.950402393
0.950961041
0.93431903
0.899792046
0.898801145
0.899554968
0.94948286
0.955144837
0.934575491
0.89912674
0.898565663
0.951776307
0.950129324
0.949357456
0.933930464
0.898428816
0.897865623
0.898416537
0.943528837
0.940645408
0.897470399
0.898517412
0.949100124
0.932602626
0.897313965
0.946132583
0.947419691
0.942497263
0.93310869
0.896615347
0.89742788
0.896449381
0.897841398
0.946908519
0.939182544
0.896084245
0.897379291
0.948830941
0.931829926
0.896900563
0.937910876
0.936853984
0.895742652
0.896754
0.94350763
0.943510825
0.942053898
0.93175083
0.895289764
0.895994254
0.895735589
0.896362318
0.943623584
0.945388228
0.942626006
0.943199561
0.946251601
0.932851235
0.895443176
0.896431276
0.895883436
0.897548171
0.941803005
0.938224265
0.896467204
0.897165108
0.946812976
0.9496322
0.95162685
0.937455535
0.89677824
0.897076752
0.897452306
0.941014099
0.941189464
0.897292154
0.898904126
0.943517093
0.939648713
0.897264158
0.899148612
0.943538634
0.934308888
0.898276121
0.934888025
0.942284077
0.898072748
0.899805173
0.936239979
0.954363983
0.948563141
0.960390963
0.950673075
0.900051437
0.901784717
0.950654696
0.948869422
0.900378326
0.902243967
0.94070393
0.963600738
0.946662456
0.901551548
0.901554116
0.903342167
0.946244196
0.945673352
0.902331709
0.904997693
0.939764467
0.959318428
0.945804478
0.904664386
0.905059978
0.904916083
0.907659215
0.967305409
0.96109121
0.904733952
0.90840189
0.955852225
0.947936113
0.905129823
0.908146379
0.942501931
0.958987666
0.955299718
0.969971792
0.952108454
0.90748207
0.907661046
0.910509319
0.954945187
0.951569808
0.908198716
0.911959356
0.956167975
0.947835737
0.908311722
0.912620436
0.954734195
0.945166829
0.908857458
0.912984357
0.956313456
0.945749207
0.909208717
0.913011584
0.95751994
0.946306645
0.909552872
0.912978591
0.964308549
0.964469431
0.963930939
0.945081333
0.909559878
0.909523244
0.910758772
0.959020696
0.96282356
0.9588516
0.943583455
0.908925255
0.911549304
0.962912356
0.951003442
0.909065597
0.908779174
0.910878895
0.956072705
0.948244558
0.907541945
0.910482726
0.951326459
0.959647715
0.943281612
0.908193212
0.908627012
0.951505331
0.944016966
0.906851613
0.908874686
0.954998802
0.945765229
0.907167611
0.909006245
0.964555093
0.964601896
0.96484016
0.943237074
0.907829117
0.90741367
0.908366887
0.955089262
0.951961487
0.907414499
0.908879117
0.957564093
0.942402396
0.907798542
0.947131626
0.948030514
0.907657766
0.908661269
0.957243626
0.952836401
0.907382474
0.909098804
0.961551467
0.956460509
0.9075339
0.908491517
0.967144301
0.967237352
0.963226024
0.944184274
0.906760878
0.907209538
0.906609822
0.907197375
0.94152261
0.955131729
0.955510321
0.942447302
0.907007862
0.907917284
0.957714686
0.941823353
0.906787892
0.934274603
0.958869037
0.959651196
0.938261799
0.907138309
0.935994332
0.961818224
0.956715254
0.935015128
0.906322694
0.906129781
0.944891688
0.953415932
0.905629495
0.90608005
0.950318704
0.949825222
0.924633643
0.936476848
0.953921681
0.941856388
0.906454445
0.9061962
0.943469304
0.962102302
0.954254032
0.966828318
0.959226735
0.907558952
0.907050834
0.907286547
0.906845253
0.906849993
0.946125604
0.957022535
0.907430165
0.906576814
0.951030379
0.95107064
0.907818235
0.940057103
0.960409258
0.906970226
0.906852564
0.942913064
0.96125203
0.96614638
0.966011688
0.908254874
0.905997584
0.906511867
0.905331391
0.94033426
0.949197006
0.942358862
0.943478706
0.943897037
0.950592543
0.950346217
0.908441343
0.904509286
0.938528489
0.945496603
0.907977938
0.90376444
0.937619201
0.947641162
0.907966043
0.903069772
0.937448893
0.952445483
0.908136294
0.901984111
0.937356599
0.938197985
0.904972946
0.937218673
0.95209831
0.910246818
0.902655609
0.937083045
0.95649613
0.937842388
0.904933067
0.934196651
0.944803668
0.912860992
0.903587248
0.934007461
0.950111476
0.950011889
0.956562464
0.957513633
0.929802779
0.903954438
0.903289384
0.937459231
0.953535725
0.927893937
0.904965183
0.93208516
0.95711376
0.957876315
0.911052845
0.9048564
0.932284779
0.95779177
0.958090912
0.908580838
0.903728374
0.93589854
0.952183553
0.939080946
0.905000008
0.925162368
0.950543469
0.939855356
0.90492316
0.919104082
0.948982461
0.939269965
0.904420402
0.916681157
0.9480261
0.937816121
0.904206137
0.902168362
0.919733619
0.950388264
0.95433547
0.930322931
0.902702776
0.91692562
0.947949867
0.946961325
0.91861464
0.901047843
0.919447939
0.946498924
0.947500751
0.943902159
0.932660066
0.899087762
0.905815833
0.949474296
0.952438494
0.943865528
0.941867956
0.922047538
0.896403613
0.89777635
0.89556054
0.906055531
0.950875336
0.951825373
0.925565027
0.892261475
0.913341734
0.932627437
0.921666751
0.887959723
0.910933971
0.926733259
0.916661388
0.884104653
0.894099654
0.932256697
0.930692466
0.92545391
0.910038828
0.876749137
0.893724479
0.913834394
0.905653397
0.872091199
0.886835308
0.911132237
0.903029478
0.869150137
0.8808116
0.911427848
0.902849777
0.869342444
0.87786949
0.914374433
0.906072686
0.874522882
0.909156938
0.921088531
0.875186178
0.881949199
0.925633354
0.923604982
0.879628283
0.883977559
0.918732399
0.934420326
0.934614911
0.938192904
0.948592983
0.925713446
0.888863777
0.890106507
0.891148147
0.892661766
0.927028022
0.957590266
0.95366605
0.894402698
0.895433442
0.933336894
0.940271312
0.8965898
0.898192084
0.936732067
0.937645418
0.899287928
0.927329435
0.957297847
0.899957342
0.902516498
0.946675589
0.944069621
0.902820515
0.932709815
0.962831541
0.902458791
0.905123852
0.948701974
0.953155706
0.903709574
0.905694617
0.936558635
0.946385483
0.952022335
0.953271138
0.96621311
0.958472108
0.906791947
0.908100231
0.908286216
0.94338407
0.95117002
0.905746448
0.908186959
0.945801306
0.958777381
0.929295725
0.908835014
0.948582271
0.958673052
0.906882727
0.910434902
0.943005132
0.953306353
0.955472307
0.960636167
0.960525676
0.973590785
0.959478053
0.911006073
0.911343456
0.912307415
0.911542615
0.913770232
0.94740028
0.96223163
0.965663638
0.961298881
0.91092785
0.913897263
0.949507792
0.970057509
0.957987993
0.912796479
0.913693697
0.956498928
0.9536493
0.912130864
0.914020047
0.959255772
0.954819244
0.911703167
0.913702363
0.96046012
0.95499647
0.91118422
0.913051317
0.960192946
0.954054445
0.911072932
0.911678803
0.958265207
0.964894401
0.966417364
0.95417923
0.910360431
0.910082844
0.910482247
0.947131182
0.968093866
0.948529583
0.910214057
0.909994311
0.951520066
0.960843808
0.921904592
0.91086005
0.945198669
0.974124072
0.951301329
0.909566947
0.909108179
0.909182551
0.950099007
0.964035083
0.96279171
0.951346002
0.909283587
0.909814813
0.910201805
0.909723736
0.962634326
0.967010788
0.969253855
0.951914506
0.910667428
0.911117613
0.91039698
0.962167205
0.956378727
0.911163414
0.912893763
0.911810345
0.969494697
0.968946476
0.911783972
0.913108439
0.958099046
0.958317746
0.911828346
0.913916535
0.962449072
0.957326085
0.913296126
0.913631522
0.970784534
0.970802395
0.970297524
0.961158495
0.913146754
0.914872357
0.9633807
0.951767328
0.913042224
0.913667272
0.914056913
0.962653899
0.961872258
0.912606948
0.914821414
0.966591619
0.962503903
0.912100617
0.913931723
0.966657611
0.973320005
0.962474116
0.971038683
0.952617394
0.912035684
0.91232797
0.912059503
0.912613641
0.956687372
0.96567091
0.94901043
0.911389741
0.911801446
0.956329809
0.952201692
0.910317586
0.911404669
0.95575034
0.966411149
0.947008403
0.910481101
0.910494923
0.910384105
0.955448992
0.956607274
0.909421735
0.9108859
0.957755341
0.967490026
0.95236079
0.910780039
0.909259099
0.958404425
0.950444309
0.91063971
0.938140966
0.964712839
0.959296066
0.963875642
0.959110542
0.910702678
0.910388771
0.95205393
0.955550837
0.910414313
0.910548578
0.956177299
0.957926245
0.910566875
0.910634399
0.958745821
0.960893141
0.910652284
0.910900088
0.961132974
0.9661816
0.910417831
0.911416611
0.956591852
0.98193064
0.966726642
0.911791494
0.910416019
0.911965047
0.910117886
0.959434708
0.966516545
0.912270011
0.910674524
0.956940073
0.965125031
0.968792563
0.959991394
0.912040759
0.9121946
0.91192532
0.947854043
0.961521429
0.912778542
0.912247771
0.956199105
0.955844313
0.912481723
0.947147325
0.964269337
0.913768173
0.91303552
0.956516988
0.963906434
0.914377321
0.912622803
0.962030307
0.968377102
0.914886201
0.912556136
0.957815701
0.964252314
0.915040697
0.91268569
0.954034463
0.956336507
0.914579282
0.913332001
0.913758995
0.950942464
0.962715459
0.954039444
0.95580483
0.949649522
0.914304931
0.913085419
0.957579743
0.975263246
0.962889445
0.967931868
0.951389783
0.914781794
0.912409809
0.913726688
0.954318525
0.975621795
0.951565437
0.914763254
0.911587727
0.952565253
0.958299373
0.91418299
0.911652269
0.956400758
0.958789502
0.913789493
0.910883845
0.956749407
0.949622003
0.912433134
0.945765864
0.97235721
0.959450328
0.960236142
0.947925744
0.91308109
0.910362333
0.911170165
0.950998227
0.971888685
0.949000503
0.912441187
0.909702848
0.94895147
0.956761324
0.911009879
0.90984142
0.953307467
0.948235918
0.910727422
0.929145902
0.96424027
0.962634796
0.952780012
0.943328574
0.910047786
0.908610295
0.952190145
0.951497707
0.908248916
0.907315319
0.950445474
0.941871223
0.908169103
0.945484865
0.965005979
0.943837275
0.907540764
0.907194341
0.943370536
0.95061258
0.90660535
0.908303258
0.961650422
0.961255264
0.936770498
0.90625077
0.906778079
0.948957512
0.96596346
0.941186852
0.904829108
0.905231375
0.950350393
0.968163022
0.953887905
0.946183055
0.938371406
0.902604229
0.903486288
0.937596855
0.943437314
0.926665651
0.900107564
0.903915266
0.938214917
0.957379591
0.934385689
0.898929304
0.900784736
0.93409691
0.955361187
0.933303804
0.898382946
0.897752261
0.927546437
0.940051844
0.926360051
0.896209343
0.92229657
0.943512912
0.920792557
0.89631649
0.944787621
0.952239077
0.940411415
0.925361036
0.890773535
0.89220676
0.891082997
0.893496772
0.935222885
0.941392063
0.919565433
0.889307723
0.902681779
0.93921124
0.922121391
0.888664359
0.900631
0.937996055
0.922176934
0.889659111
0.898595619
0.940776341
0.925554399
0.891994046
0.898925992
0.951834246
0.952744361
0.929578375
0.925989008
0.894828301
0.897963084
0.938253319
0.930159883
0.896208569
0.899354812
0.942484603
0.933582304
0.897651311
0.900542408
0.946159488
0.93752172
0.898925191
0.901362456
0.950983139
0.939913887
0.900009059
0.901859929
0.96525011
0.966045478
0.934432929
0.901913152
0.901440469
0.95809987
0.958293733
0.93830049
0.933552642
0.901366088
0.901629414
0.94311874
0.936091544
0.901593068
0.901782043
0.950914562
0.930698027
0.902339136
0.938799842
0.935455595
0.900868212
0.901958309
0.946613975
0.937092562
0.900558036
0.901743445
0.958567685
0.959005206
0.934668199
0.901415967
0.900847393
0.94723988
0.935569037
0.899850273
0.901299113
0.947502202
0.936769796
0.899014033
0.901052207
0.948965259
0.937988839
0.898472025
0.900315678
0.955647587
0.955915955
0.943390798
0.932164766
0.897389163
0.899029052
0.941244973
0.931574247
0.896786891
0.898592401
0.944329283
0.944298194
0.935917586
0.929683245
0.896014602
0.897330994
0.939105448
0.930611133
0.895918152
0.930498153
0.931701539
0.89514343
0.896684421
0.943013029
0.935236118
0.895324756
0.89724488
0.944485551
0.936864025
0.895528761
0.896982729
0.950140399
0.953980924
0.931430279
0.896348691
0.896763882
0.951759764
0.95190997
0.945250931
0.951428512
0.936993622
0.911286882
0.897048122
0.897993162
0.938342423
0.938450897
0.896705167
0.897059802
0.940992872
0.939591257
0.896442484
0.896967216
0.944106804
0.943039469
0.896525187
0.897087312
0.945348319
0.94311771
0.896296254
0.897082152
0.896319289
0.940009731
0.948979658
0.944416282
0.930285539
0.896768636
0.896760073
0.934145118
0.947405349
0.934802404
0.8966803
0.896906176
0.937101447
0.947551576
0.941516192
0.948479741
0.940754233
0.897931236
0.897070809
0.936070898
0.941603386
0.898333176
0.897076546
0.939679767
0.944879059
0.898850721
0.89743248
0.940730252
0.946327069
0.8993494
0.897881505
0.941207935
0.94717178
0.899858487
0.898413795
0.941635909
0.947788976
0.900315505
0.899029716
0.942303189
0.948930589
0.900487201
0.899721637
0.941257604
0.950007452
0.900125046
0.900593518
0.936013663
0.955045546
0.949947268
0.900730224
0.901687113
0.935117611
0.949404582
0.946779097
0.901649102
0.90142834
0.937507874
0.948506093
0.900954723
0.901522422
0.938382751
0.952204388
0.950300412
0.95006026
0.954381406
0.952561334
0.902665546
0.903819337
0.935383811
0.950616388
0.948429613
0.903366954
0.904203554
0.930961252
0.949906261
0.950005509
0.903404194
0.904062588
0.940355674
0.94126523
0.904705861
0.939513049
0.953875685
0.903780922
0.926945943
0.957523857
0.9056555
0.905837632
0.950363952
0.947213643
0.905729793
0.94037566
0.959188133
0.905667431
0.907526045
0.951871684
0.950136391
0.907256612
0.935581594
0.965089955
0.955532521
0.962795657
0.945713587
0.908077615
0.908138225
0.909471615
0.948956096
0.954477258
0.907939959
0.928950825
0.960059039
0.962661183
0.947292238
0.909670244
0.910403847
0.948126243
0.963090239
0.946611602
0.9107093
0.910165731
0.954374429
0.957489001
0.910202827
0.911352614
0.958474148
0.965154476
0.956824011
0.960878246
0.946141266
0.911013101
0.910388875
0.953461408
0.952988044
0.909650095
0.909932359
0.947474276
0.952620259
0.951716216
0.946371965
0.909447675
0.909034785
0.953414586
0.951362387
0.908953335
0.908429022
0.955590656
0.952950424
0.90863201
0.907824638
0.957616078
0.951498497
0.90807803
0.907156917
0.964742788
0.94437701
0.906586558
0.956784836
0.959188683
0.954996873
0.943415968
0.907454088
0.906872425
0.906012498
0.952046987
0.953984406
0.906952622
0.906418511
0.960052943
0.96554486
0.943286124
0.907667189
0.905562164
0.957930045
0.962958886
0.943061378
0.907905824
0.905719642
0.954805139
0.950904558
0.90780759
0.907020614
0.960956909
0.966641307
0.944061961
0.909333732
0.906955867
0.954431598
0.948884115
0.90957149
0.908779922
0.954731669
0.949359181
0.910032935
0.910419932
0.967413204
0.967709045
0.954078792
0.952181969
0.946992922
0.942822525
0.910375379
0.91129901
0.951880195
0.946112157
0.909940034
0.911898417
0.954507623
0.945975349
0.909549163
0.912089231
0.956061219
0.9456683
0.909084207
0.911979201
0.955589238
0.944273869
0.908854382
0.911977071
0.952878735
0.943298008
0.909197385
0.912049651
0.963659204
0.964122982
0.950273262
0.949565202
0.945829168
0.935248319
0.908153866
0.910543681
0.951560965
0.940945544
0.90923435
0.944090302
0.949526355
0.908921924
0.911573302
0.952481924
0.943397409
0.908147305
0.912184366
0.965542385
0.96559421
0.956401871
0.942130772
0.908079989
0.913879133
0.953400432
0.941739619
0.907755693
0.917676933
0.954545205
0.941344575
0.908472017
0.941194911
0.946840131
0.908936765
0.915798439
0.950651759
0.939772579
0.90605333
0.92032654
0.953331598
0.938946905
0.904261656
0.911555267
0.967087479
0.967065585
0.936354279
0.903162765
0.914061268
0.953568386
0.936111878
0.901262694
0.910703836
0.94920185
0.93457909
0.899879055
0.902517053
0.953106992
0.95787504
0.934271324
0.900383605
0.901806754
0.942227893
0.938780267
0.899776925
0.902676208
0.944878422
0.939022004
0.899856253
0.902656588
0.946909155
0.940781555
0.899915274
0.902455151
0.947762477
0.942148358
0.899981593
0.902256139
0.948424417
0.943296141
0.900369857
0.902439604
0.948608691
0.94408398
0.901148609
0.903113345
0.947806847
0.94384669
0.902196681
0.903131372
0.956628044
0.959029345
0.954173504
0.939164061
0.90308788
0.904314665