/*--------------------------------*- C++ -*----------------------------------*\
| =========                 |                                                 |
| \\      /  F ield         | OpenFOAM: The Open Source CFD Toolbox           |
|  \\    /   O peration     | Version:  2306                                  |
|   \\  /    A nd           | Website:  www.openfoam.com                      |
|    \\/     M anipulation  |                                                 |
\*---------------------------------------------------------------------------*/
FoamFile
{
    version     2.0;
    format      ascii;
    arch        "LSB;label=32;scalar=64";
    class       volScalarField;
    location    "8e-05";
    object      sourcePV;
}
// * * * * * * * * * * * * * * * * * * * * * * * * * * * * * * * * * * * * * //

dimensions      [1 -3 -1 0 0 0 0];

internalField   nonuniform List<scalar> 
3810
(
0.172003879
0.128034381
0.00499618727
0.00623624789
0.144153223
0.165515848
0.00397606339
0.00454222499
0.141877583
0.00285016087
0.00597066182
0.154084501
0.159814806
0.00298542991
0.00591984078
0.137514209
0.141969199
0.00319186566
0.113177829
0.157471669
0.166963107
0.167221302
0.00264611852
0.00600043922
0.00581579685
0.12721919
0.0241183982
0.00576366968
0.126893944
0.158857047
0.0435516475
0.00529463723
0.108959402
0.142895938
0.043488336
0.083791725
0.157908952
0.156722762
0.153647713
0.159151655
0.151986051
0.0198306452
0.00551248008
0.00530411764
0.00581086053
0.0544697162
0.148073671
0.109049792
0.00290804528
0.00572697087
0.00546025839
0.052496205
0.158342266
0.123906426
0.00315408512
0.0462827399
0.141022361
0.158184453
0.167229676
0.104036637
0.00371947943
0.00617322059
0.0251743313
0.135156446
0.161584407
0.0855555927
0.0050744845
0.0278040069
0.134391271
0.154033748
0.0807596054
0.00549554184
0.038879209
0.134871889
0.10055834
0.00569001593
0.0340123237
0.139112904
0.104380847
0.00599228345
0.0203552311
0.132571248
0.145009492
0.137880304
0.138810031
0.13946626
0.147810737
0.0687697218
0.00469028436
0.062081151
0.021426754
0.00569844201
0.0785937514
0.153736463
0.0892277063
0.00518102723
0.0769631856
0.0685545471
0.00587594012
0.0571410312
0.158640338
0.159101692
0.0618128004
0.00543091738
0.0660358499
0.15460033
0.158592838
0.0977078784
0.00549101036
0.023450399
0.162955972
0.163175242
0.0752335702
0.00588602982
0.00608236867
0.00509655577
0.0707766427
0.159772416
0.157652975
0.161334555
0.107851981
0.00538189885
0.00938649935
0.170409354
0.161594923
0.01334392
0.00584259695
0.00433669322
0.0890208752
0.145997448
0.0810775462
0.00521257315
0.0649111654
0.149614945
0.0848380687
0.0049662151
0.0738646244
0.149865087
0.0761585347
0.00465789372
0.0863895668
0.151667168
0.0662847784
0.00421913757
0.102825645
0.156530874
0.0491354907
0.00325252393
0.140484855
0.170538421
0.15808541
0.157230935
0.0627291201
0.00581677447
0.00517800973
0.00586471639
0.00275288835
0.151168989
0.161158702
0.0265343712
0.00300451696
0.155320672
0.173274598
0.155246134
0.149431103
0.0470512247
0.00591166849
0.00500683687
0.00588832645
0.00325362635
0.152538556
0.153243348
0.00903017297
0.00399254864
0.134332523
0.1768708
0.13754175
0.00412080566
0.00389809897
0.149993058
0.144229564
0.00483586305
0.00378295717
0.154061392
0.147907862
0.00495372594
0.00430056083
0.157298825
0.176018104
0.133426142
0.0266454746
0.00637116714
0.00457171481
0.00630059428
0.00391155471
0.143411561
0.178788687
0.128156759
0.00524399428
0.0046167094
0.149982295
0.140318327
0.00569111827
0.00437729662
0.150796578
0.14148189
0.00574211075
0.00442474809
0.154568949
0.141252497
0.00566483014
0.00502232261
0.163654696
0.163758662
0.159840167
0.133971926
0.00557295075
0.00495986276
0.160957655
0.162051748
0.160781388
0.131463934
0.00538576522
0.00640347944
0.00479289388
0.00655806078
0.00466901168
0.111309311
0.165389808
0.147566804
0.142064099
0.0690196536
0.00578073419
0.0416424594
0.172147099
0.186013678
0.125718138
0.00459909692
0.00681703495
0.00430191743
0.122149693
0.180619574
0.133514061
0.00588859624
0.00585885696
0.126707687
0.169094365
0.127615798
0.00577784035
0.0059370906
0.156599782
0.149684416
0.00623221456
0.00556912961
0.136048935
0.162642502
0.100411789
0.00567281115
0.00581367091
0.1580495
0.133714234
0.00534480827
0.00608984822
0.00427459062
0.158219515
0.15440762
0.00606074873
0.00491863016
0.140183472
0.169374532
0.148603285
0.0402505704
0.00540374541
0.0842147623
0.171391469
0.169949729
0.117393448
0.00553995456
0.00541203921
0.00560482921
0.00330177427
0.152812385
0.140319364
0.00576055744
0.00323807623
0.154892823
0.136328436
0.00576329892
0.00414088625
0.164119196
0.171312175
0.111776851
0.00552308298
0.00304042521
0.155676397
0.134695652
0.00557072139
0.00315810953
0.172997219
0.174785624
0.13074633
0.0280008096
0.0060673223
0.00441594527
0.00568716853
0.0025305933
0.176995385
0.178277316
0.15683563
0.167728747
0.131197823
0.00421778457
0.0046772287
0.00468890354
0.00898006299
0.160362485
0.140630098
0.00555867976
0.00231745839
0.162203612
0.141707096
0.0055051081
0.00264047266
0.160267896
0.140497167
0.00548962312
0.00416536973
0.158583965
0.164334124
0.124458327
0.0401107678
0.00609381635
0.00255181261
0.16150646
0.162254215
0.0487428958
0.00572910099
0.00320864504
0.145036995
0.125113557
0.00580499415
0.00320599554
0.161483178
0.162014718
0.0506173325
0.005838751
0.00351875383
0.145750088
0.125741657
0.00605036457
0.00421714198
0.154807268
0.156162643
0.137424619
0.147673318
0.139966564
0.147655491
0.0953396652
0.00570427757
0.0063730085
0.0039479911
0.146428492
0.130353019
0.00579544186
0.00591429294
0.00516576919
0.0623676394
0.172007274
0.164016839
0.149751355
0.112934747
0.00560190077
0.00456279721
0.170531887
0.170955272
0.156894575
0.121251603
0.00575523962
0.00605005905
0.00567398577
0.00560084088
0.0636947821
0.167127736
0.162231794
0.14246921
0.104658943
0.00607180231
0.00573928279
0.152060627
0.12150441
0.00537662593
0.00615380735
0.00523028999
0.157746349
0.111388092
0.0055174389
0.136245981
0.142009212
0.00618322034
0.00533725747
0.153949252
0.147154206
0.0056543002
0.00509401975
0.182649178
0.184493962
0.156116544
0.164237543
0.104603879
0.00562488529
0.00573171862
0.00535757339
0.00489762208
0.00513235538
0.00449883513
0.190635606
0.191504123
0.162825895
0.155611038
0.153961313
0.114689337
0.00575032355
0.00643033891
0.00530374361
0.00617361742
0.00512619867
0.15515025
0.156039707
0.0060152312
0.00530651522
0.151571436
0.142995843
0.0057778553
0.00563583999
0.168351175
0.122616568
0.00541494721
0.142644283
0.150449062
0.00611460688
0.00526228939
0.153920603
0.148389127
0.00581795313
0.00512415349
0.173785236
0.174638019
0.158304859
0.159327135
0.142963307
0.15060654
0.107731326
0.00617894429
0.00630270319
0.00606626054
0.00557840787
0.153508482
0.141443772
0.00592043541
0.00591640576
0.00579399111
0.00535710208
0.169014318
0.173712588
0.147816938
0.0460427258
0.00608830122
0.00511537035
0.153145143
0.153727907
0.146218844
0.12890381
0.00625528976
0.00581024848
0.142933723
0.135731448
0.00629208584
0.00561340861
0.144391175
0.139768757
0.00626360407
0.00542747911
0.146154411
0.141120064
0.00618441893
0.00518679516
0.151001879
0.144390278
0.00603813569
0.00537466506
0.161325893
0.161316821
0.152268644
0.145012612
0.147807315
0.101796091
0.00624929985
0.00614698341
0.00612241871
0.00461252026
0.152745627
0.146542245
0.00611582606
0.00466832777
0.15780804
0.172754405
0.126496102
0.00565256386
0.00407539306
0.154303257
0.138106796
0.00585456622
0.00383186749
0.15893865
0.159084105
0.155608448
0.101978016
0.00567361906
0.00515686222
0.00550047785
0.00239288174
0.169733358
0.157729703
0.00547548477
0.00244319542
0.171836941
0.172955224
0.155763558
0.0984825254
0.00612273588
0.00601060153
0.00635739222
0.00475246822
0.126393235
0.15269472
0.138727744
0.148802666
0.114634664
0.00600070081
0.00359093135
0.147336464
0.129537117
0.00590936484
0.00383145449
0.166722732
0.167185032
0.0800461199
0.00623586515
0.00631945303
0.00527790981
0.0777888383
0.168385928
0.167219943
0.12455503
0.0055749327
0.00401437529
0.164557165
0.147523117
0.00559873842
0.00400356552
0.172597819
0.173037662
0.159129973
0.124624318
0.00613823754
0.00598515776
0.00644825794
0.00535595917
0.124342736
0.162004679
0.122488555
0.00564642379
0.00579835776
0.167092982
0.148395721
0.00562222666
0.00552740559
0.175282176
0.182472684
0.106179902
0.00540944495
0.00664755906
0.00572731114
0.13607091
0.139158869
0.00623733199
0.00616945471
0.141906099
0.153732391
0.115286426
0.0057176374
0.00643249376
0.15346904
0.153309016
0.00550706692
0.00587818017
0.161420989
0.163309393
0.00518250583
0.00540128091
0.173056753
0.18548642
0.15403166
0.165315785
0.128785355
0.0294662941
0.00645805653
0.00575855032
0.133383732
0.127676469
0.00579328609
0.00509852072
0.00579293064
0.00449616845
0.160766771
0.167303356
0.0050357008
0.00320602354
0.170204943
0.181724133
0.155487157
0.148791557
0.0561924297
0.00594882188
0.0057757079
0.14596757
0.152181737
0.00553271011
0.00594075758
0.149869083
0.150089725
0.00585298074
0.00599173484
0.147503851
0.145940764
0.00600968732
0.00607258609
0.147244408
0.142672657
0.00596992234
0.00630233889
0.156234558
0.104372083
0.00576829873
0.134328387
0.156114301
0.134885885
0.137798677
0.0784930238
0.00631850867
0.00597655911
0.143247571
0.141700945
0.006153732
0.00569181865
0.150763826
0.146860953
0.00593900523
0.00536924845
0.162221791
0.155345287
0.00546979286
0.00494373806
0.189192789
0.191099398
0.157276704
0.159504601
0.0820424815
0.00577295219
0.00542460897
0.00583992018
0.00491765875
0.15140627
0.149167692
0.00606747095
0.00531068816
0.145107877
0.139659936
0.00603496955
0.00523290432
0.151668914
0.147913676
0.00558846134
0.0049146564
0.178393615
0.155090397
0.00472554337
0.00577159236
0.00440373954
0.154208972
0.155399458
0.00576294846
0.00484724566
0.160237792
0.150841433
0.00536562174
0.00470709107
0.19063602
0.190721391
0.160872194
0.154070491
0.147922263
0.115032976
0.00591805634
0.00620975506
0.00524582959
0.0058011696
0.00463372498
0.176528186
0.189837038
0.0965070909
0.00520116561
0.00629413918
0.00498558763
0.156403453
0.156610828
0.00594132324
0.00520320023
0.155209895
0.145685327
0.00580131626
0.00564166265
0.16670634
0.109381192
0.00521349247
0.15067741
0.171966782
0.105647175
0.00548037799
0.00550758047
0.170287595
0.170307936
0.152023703
0.15588873
0.0646959024
0.0048358477
0.00601015765
0.00488994435
0.153076825
0.157030656
0.00592769634
0.00550249766
0.158567037
0.151474626
0.00591823993
0.00598822184
0.173960307
0.110528677
0.00555003889
0.158308802
0.163731851
0.00585310599
0.00632567968
0.00545903839
0.101417718
0.182303164
0.153247594
0.00590757145
0.00604642886
0.13807672
0.154735345
0.146346785
0.0871723085
0.00617047486
0.00668640603
0.00608446919
0.129110838
0.15370609
0.13252401
0.144347304
0.0934846064
0.00623372544
0.00674546088
0.140388207
0.140687502
0.00609119674
0.00659311681
0.146914669
0.143975638
0.00599718066
0.00673278423
0.157364221
0.106129583
0.00580675679
0.136737077
0.167485471
0.104541017
0.00573091803
0.00646070637
0.0596949251
0.147419657
0.146375306
0.00563078324
0.00613531021
0.163170016
0.162805446
0.178038293
0.152617716
0.00478821347
0.00648451023
0.00514564543
0.101438413
0.166956772
0.133062565
0.00555723028
0.00616706717
0.153911479
0.175691117
0.135796028
0.00544298935
0.00656771599
0.162238005
0.145839702
0.0056278639
0.00612542285
0.00594048975
0.00591021618
0.144311974
0.169903366
0.136441201
0.00555387587
0.00647356519
0.148355665
0.147981003
0.14700754
0.129027867
0.00582814847
0.00654664007
0.140632411
0.145517344
0.0055854245
0.00596726949
0.14503817
0.166937634
0.0991252142
0.00551750505
0.00628138447
0.153137431
0.163077259
0.00506933973
0.0048630449
0.163658798
0.0131541215
0.00565615743
0.168287826
0.167387361
0.00493619286
0.00529753321
0.162236005
0.192686719
0.166125148
0.00469595819
0.00610654089
0.00520374098
0.00644225197
0.158726369
0.133230892
0.00544252078
0.114931067
0.162994981
0.127370881
0.00583995383
0.00678789209
0.13453313
0.135243948
0.00607289989
0.00655035006
0.141270634
0.141387684
0.00610375343
0.00619603306
0.150187802
0.155424206
0.141527912
0.148671435
0.105976019
0.00628405401
0.00649486594
0.138962381
0.137066733
0.14040101
0.128690144
0.00634259449
0.00617987021
0.143479976
0.137359218
0.00626996409
0.00574463853
0.14922745
0.143339204
0.00615145848
0.00535665175
0.153447349
0.146918244
0.00602391677
0.00496509029
0.158221502
0.155316927
0.159744534
0.126406185
0.00578549405
0.00639124361
0.00446303696
0.148265773
0.145557296
0.00616539746
0.00441195125
0.148801586
0.139348507
0.00618385595
0.00437989841
0.148454204
0.128179107
0.00581760078
0.061919304
0.152714024
0.151799823
0.0866830079
0.00591526377
0.00423899325
0.155213196
0.103819741
0.00437624779
0.157933029
0.1589167
0.148407652
0.120407194
0.00658699359
0.00666012973
0.00481865171
0.133935958
0.157760499
0.105114625
0.00579853321
0.00327690378
0.151304204
0.130551223
0.00588008532
0.00284961288
0.152471242
0.133320585
0.00586104164
0.00263326895
0.153966068
0.134541147
0.00582435655
0.00247840975
0.155487921
0.135402206
0.00578630552
0.00236891528
0.156616701
0.135979082
0.00575817386
0.00230396412
0.157188316
0.136248385
0.00574171225
0.00227780931
0.157411823
0.136413882
0.00573128286
0.00227682046
0.15764814
0.136779311
0.00571962047
0.00228661853
0.158230849
0.137603774
0.00570108061
0.00229544655
0.159517232
0.139008699
0.00566768929
0.00230848368
0.161922105
0.140068731
0.00553674018
0.0024247072
0.173956721
0.175823882
0.154176954
0.114352802
0.00572834257
0.00315911626
0.166343374
0.168556979
0.105882191
0.00568164628
0.00610859578
0.003366673
0.16846996
0.169829754
0.100786573
0.0055428758
0.0036286939
0.154824525
0.127838374
0.00587419761
0.00594548979
0.00365834301
0.170835831
0.171845898
0.104487201
0.00556285902
0.00393063222
0.154302995
0.127505455
0.00566517819
0.00385470241
0.164042718
0.0849858
0.00387071995
0.134064164
0.130459455
0.0059939525
0.00407438849
0.161146913
0.0947653739
0.00408938389
0.132053446
0.132046332
0.00638165699
0.00429569286
0.141711679
0.132284817
0.00625402521
0.00436202286
0.146607591
0.133057929
0.00591632128
0.00430767689
0.17046719
0.171731007
0.151521525
0.150480198
0.14078236
0.13868329
0.0781036732
0.00603781886
0.00626575944
0.00498216617
0.00611988015
0.00392758719
0.149705699
0.147638527
0.00568610696
0.004442667
0.179580533
0.180267346
0.157367602
0.151730543
0.149108429
0.0882439335
0.00617402894
0.00625163909
0.00569625607
0.0628175599
0.164757293
0.136959663
0.00576002836
0.00548262303
0.157167766
0.147958927
0.00585699295
0.00549217983
0.156923741
0.147066471
0.0056446768
0.00544136288
0.17439056
0.18168406
0.120838554
0.00535414614
0.00629314675
0.159849516
0.150686557
0.0056499385
0.00586086473
0.156472401
0.155932057
0.00571675381
0.00535836163
0.156962609
0.154884568
0.00558599862
0.0052891558
0.156350628
0.153610037
0.00558022608
0.00542011986
0.154043859
0.152545172
0.00555214224
0.00562192528
0.150780612
0.151230315
0.00553479158
0.00607583329
0.147177193
0.139788443
0.0057156878
0.0246017384
0.1555735
0.143828563
0.00559486644
0.00622414396
0.144480837
0.147198789
0.00520651381
0.00590378162
0.152660104
0.168203094
0.145657742
0.151373176
0.112049564
0.0056064023
0.00658165905
0.139423522
0.14731256
0.00486905974
0.00627044395
0.143391621
0.148553766
0.00469122028
0.00648617499
0.154148003
0.107481985
0.00562702841
0.123709398
0.14426976
0.00501798087
0.00651326692
0.148547649
0.104014826
0.00574835927
0.123458115
0.14329746
0.00546653169
0.00623019017
0.139148819
0.146296266
0.00538263247
0.00614186398
0.14744426
0.148020249
0.00544987421
0.00581023508
0.168808067
0.169775701
0.0052798584
0.00554858066
0.164809794
0.166737
0.151161478
0.145759115
0.147826874
0.101537762
0.00594644331
0.00656468767
0.00579997201
0.139148655
0.138710946
0.00621500169
0.00574865952
0.156556826
0.158404305
0.107472498
0.00582660483
0.00640790205
0.00519564589
0.155767836
0.16688149
0.121213046
0.00564695507
0.0050137055
0.161110654
0.158133378
0.157091909
0.117988332
0.00578754622
0.0064417392
0.0044297837
0.146726525
0.142346155
0.00606250397
0.00463828924
0.158019582
0.122942938
0.00489154234
0.153254791
0.15542988
0.146729576
0.121998967
0.00607275839
0.00555093081
0.00601402731
0.00397479448
0.155458342
0.142058922
0.00596537323
0.00440666113
0.159871768
0.123146157
0.00437656429
0.139557076
0.13800995
0.0062557869
0.00466192902
0.150225686
0.150645241
0.147432342
0.117231803
0.00626488229
0.00610376505
0.00621898732
0.00520123087
0.150727932
0.154022553
0.148545517
0.149341398
0.155072801
0.126341857
0.00609630841
0.00586604023
0.00614107898
0.0045574881
0.146096871
0.13965845
0.0061901648
0.00524734812
0.155093096
0.160168427
0.163551087
0.136324168
0.00560314897
0.00628683068
0.00508545023
0.143175626
0.143414728
0.00630874994
0.00472440373
0.146484099
0.139949948
0.00630483818
0.005047413
0.145702778
0.122142348
0.00567627168
0.120234347
0.142293484
0.00683379263
0.00528557367
0.12866566
0.163883123
0.152152367
0.173923938
0.155511281
0.00582098284
0.0046322154
0.154755082
0.151682294
0.00641726073
0.00488208746
0.134459933
0.176864849
0.144476205
0.00602913016
0.00626452444
0.00491592585
0.142801662
0.141969217
0.00660725632
0.00502920735
0.121034728
0.165626331
0.138778988
0.00545561837
0.00523059533
0.00537901968
0.00320765817
0.177160667
0.166100451
0.00575080628
0.00354576893
0.154689886
0.140984083
0.00640744773
0.00493495647
0.121596086
0.159478021
0.151474937
0.177939313
0.144298109
0.00543347097
0.00596204046
0.00338219834
0.149104489
0.143165339
0.00603664414
0.0032285781
0.149594419
0.135566135
0.00608229838
0.00325246081
0.146097247
0.129983147
0.00604033473
0.00310535624
0.148615879
0.130627749
0.00595344242
0.00296881362
0.150703007
0.131318134
0.00580336619
0.00300265937
0.163207967
0.163895045
0.162819811
0.116276239
0.00565005516
0.00622391082
0.00384369244
0.155073376
0.162016904
0.154853478
0.126722768
0.00562539355
0.00258202231
0.16249896
0.141601367
0.00544715788
0.00585039398
0.00197618505
0.150471268
0.138056767
0.00623863863
0.00436685877
0.142262115
0.158745549
0.11620843
0.00586256454
0.00387984234
0.14338791
0.130613234
0.00611075417
0.00375654857
0.14993739
0.134276854
0.00582778765
0.00387617424
0.167723131
0.167994493
0.168339943
0.127365513
0.00546857049
0.00622613634
0.00365780023
0.149944653
0.145196287
0.00599453108
0.00440693812
0.15415781
0.11796613
0.005227185
0.135200541
0.136550047
0.00620649948
0.00448944905
0.152919021
0.14591115
0.00595545429
0.00435567719
0.160802651
0.15228782
0.00575124594
0.00435412068
0.170876057
0.171231474
0.163885374
0.12395504
0.00603736198
0.00639363489
0.00632714858
0.00601456364
0.092739033
0.149567308
0.150432896
0.115827562
0.00601186074
0.00340959426
0.154916664
0.114154471
0.00598253754
0.0616639234
0.156873883
0.158683838
0.077316784
0.00587219896
0.0679446395
0.162737453
0.153146965
0.0648237062
0.00641911993
0.00614725992
0.131142228
0.14753449
0.00620609016
0.00632521492
0.142196677
0.140995705
0.0341521302
0.0717175967
0.149274836
0.10298003
0.00613747805
0.00621949465
0.127987909
0.164278602
0.149427128
0.172810894
0.158855528
0.00451144904
0.00601123166
0.00514831756
0.00616054871
0.00575996328
0.134634568
0.15463676
0.00426993017
0.0060584307
0.144381117
0.143803423
0.00389943947
0.0928317288
0.16142771
0.00410356855
0.0056660432
0.12847587
0.163152615
0.171949086
0.171739919
0.00330900614
0.00568371955
0.00545877626
0.00597302959
0.0974632841
0.141803755
0.128739149
0.132128209
0.13247783
0.146481287
0.145102956
0.00355567068
0.00628241423
0.113817494
0.136701643
0.00276632295
0.00620112069
0.120304626
0.142107697
0.00266980477
0.00596606213
0.125070377
0.152059042
0.00577699583
0.00613514824
0.103486137
0.104849295
0.00410146002
0.101510418
0.153528467
0.0122190072
0.0054617553
0.102723941
0.162332026
0.103925725
0.0042526779
0.084619515
0.141421426
0.0173231348
0.00549463536
0.0846509405
0.151000338
0.150307853
0.162347188
0.163804909
0.061170958
0.00537103226
0.00558761889
0.100269923
0.156046706
0.0542308574
0.00479700826
0.0703807178
0.162806646
0.163788673
0.0105551823
0.00537445457
0.071526971
0.163448066
0.163506032
0.00616368211
0.00558875133
0.0870115946
0.1520806
0.101828133
0.00472124872
0.0439709643
0.148937315
0.112531608
0.00477590336
0.0281724833
0.146151866
0.116753558
0.00490993931
0.0229702583
0.145159302
0.104411172
0.00470405601
0.0061926123
0.0328231161
0.151306932
0.159594317
0.0684766204
0.00544439229
0.028393001
0.150143559
0.148976401
0.034969756
0.0058424036
0.0384896394
0.149080703
0.151960876
0.145461813
0.104819976
0.00568704319
0.00979071173
0.157604845
0.164390162
0.14904374
0.146002588
0.0574747644
0.00585466447
0.00488751825
0.00559069062
0.0192740473
0.168389508
0.171974787
0.0926277337
0.00528488027
0.0481187824
0.142386132
0.090666509
0.00555476865
0.0523414686
0.138597436
0.089203882
0.00569007112
0.019272731
0.158983211
0.158692912
0.151025038
0.0927598167
0.00536389667
0.0377016184
0.137968123
0.0998786697
0.00564136736
0.0301487132
0.140003181
0.108463763
0.00574277255
0.0197614682
0.143119083
0.11615933
0.0057863082
0.00921145023
0.145525098
0.112260547
0.00427098137
0.11835994
0.148388999
0.00608299109
0.00363903062
0.149665557
0.14373495
0.00598343637
0.00520005454
0.116029708
0.156042075
0.154513297
0.159013656
0.176554815
0.131431557
0.00526838728
0.0058639462
0.00576816548
0.00519486543
0.115380091
0.182268757
0.173547352
0.00491829666
0.00560472653
0.13390939
0.144074544
0.0049341145
0.00595819031
0.135515805
0.134955056
0.00457983924
0.0645779014
0.167875913
0.00444026717
0.00562954788
0.146554406
0.14015829
0.00447019052
0.0727954945
0.1716427
0.00486555773
0.00557302894
0.144132786
0.151279039
0.00521878003
0.0061668644
0.0777181703
0.135962009
0.146706769
0.147768468
0.170937041
0.156275873
0.00530487106
0.00628966262
0.00570521868
0.10429186
0.140329016
0.0063108271
0.00613177466
0.123584322
0.152705897
0.0395340289
0.0059084093
0.132472816
0.151430594
0.00637113212
0.00603223541
0.0830359107
0.14087068
0.143905615
0.153761284
0.152686561
0.176072226
0.14984654
0.005451508
0.00620177261
0.00527872479
0.00645898257
0.00520018348
0.103994096
0.154386906
0.159279904
0.151909953
0.00632539426
0.00514366046
0.119032832
0.167253701
0.144218358
0.00590028039
0.00492955228
0.142140731
0.13705362
0.0061838043
0.00473203332
0.14710558
0.139674938
0.0061296233
0.00455614031
0.149840209
0.140785196
0.00612249218
0.00452849515
0.150247706
0.139816466
0.00618183057
0.00523427363
0.148422796
0.160626574
0.163617445
0.14085033
0.00608920691
0.00648950192
0.0050826968
0.125573462
0.167989067
0.131258836
0.00605751037
0.00558381248
0.138833253
0.155778854
0.0194120551
0.00526174756
0.105350488
0.179834658
0.13738369
0.00566749627
0.00647467303
0.00528542742
0.136463409
0.1622944
0.159678998
0.138761555
0.00580533907
0.0057439816
0.00574256897
0.00533062945
0.159141299
0.166440978
0.170491471
0.138455741
0.00517721164
0.00605304542
0.00483499577
0.156639078
0.146092311
0.00537519642
0.00570134123
0.00466905886
0.168837361
0.167265912
0.00532893542
0.00513857012
0.147734483
0.147451322
0.00553461035
0.00500391561
0.154371575
0.144767435
0.00579086739
0.00516978795
0.168484732
0.168449773
0.167322528
0.150926685
0.00581036727
0.00462665466
0.154514487
0.133539692
0.00560336149
0.00607730456
0.00461651624
0.153423177
0.152243773
0.00597672819
0.00426128337
0.160501737
0.154094506
0.00596927145
0.00480396115
0.161436052
0.173820085
0.154088229
0.170062565
0.13590215
0.00577197322
0.00582463373
0.00598797812
0.0051560607
0.145074557
0.161877797
0.130952661
0.00595525656
0.00533240796
0.145000896
0.138162954
0.0062868821
0.00551048858
0.144188774
0.164406123
0.12051978
0.0058984689
0.00651308417
0.00567273717
0.144137463
0.146912091
0.00633856543
0.00561895592
0.14782182
0.166642674
0.137512028
0.00594620747
0.00644804333
0.149948551
0.13429878
0.00593456968
0.0621865196
0.160987641
0.150857431
0.159430116
0.150333372
0.00610427447
0.00622541691
0.137438707
0.143847904
0.00612306724
0.00623537225
0.145139546
0.148374399
0.00578130718
0.00609533639
0.150278413
0.154189162
0.00545905553
0.00586363662
0.154825342
0.164155737
0.00530605709
0.00534691858
0.146242206
0.191545885
0.164775834
0.00455751864
0.00579270738
0.00519972974
0.00583104796
0.151901584
0.163639938
0.00448580253
0.00583319049
0.146614853
0.16075576
0.167494856
0.151325057
0.00473494706
0.00629416255
0.00545724819
0.127218211
0.152825407
0.00458740596
0.00613617712
0.142781798
0.142063485
0.00497679483
0.103689361
0.156661165
0.0045806482
0.00589694569
0.142471832
0.155098798
0.00411634682
0.00591669538
0.1519048
0.162336723
0.00400932279
0.00596626967
0.143861161
0.154239393
0.00428195203
0.0062435343
0.136380303
0.139267066
0.00444098149
0.00656849733
0.00605639355
0.120287275
0.151285985
0.134080462
0.138689161
0.101182889
0.00580881662
0.00612375326
0.140432617
0.173544526
0.150543935
0.161140983
0.124971361
0.00493095819
0.00673073354
0.00574461054
0.134152352
0.175233521
0.124331857
0.00524594538
0.00662644536
0.134578256
0.143772655
0.00506624534
0.00626530399
0.142044129
0.145633166
0.00515074741
0.00646876979
0.143294561
0.126158294
0.00532360177
0.0887614388
0.172195483
0.147833896
0.151185246
0.102983127
0.00529866702
0.00679869676
0.00572772637
0.131453206
0.171821248
0.112396037
0.0056973092
0.0065070819
0.130101652
0.144157989
0.00558914519
0.00616705798
0.139174698
0.130194426
0.0057754662
0.0348811439
0.160114212
0.157935847
0.139904788
0.0903530435
0.00624323804
0.00573476584
0.139519317
0.139306639
0.00613799238
0.00546455532
0.13765603
0.0865178268
0.00553612374
0.118622404
0.166090787
0.104823182
0.00606063435
0.00580884458
0.125313454
0.142472217
0.00527078365
0.0039421298
0.163351632
0.163204103
0.0770098121
0.00597386031
0.00460511819
0.141193643
0.173434644
0.111435973
0.00563466583
0.00443200305
0.146538031
0.179503183
0.153611823
0.141764283
0.10257626
0.00592714451
0.00527428185
0.102457009
0.138336407
0.0545525411
0.00633099285
0.00392529514
0.121641487
0.168903637
0.101187432
0.00570701415
0.00415790692
0.118254441
0.170488576
0.127964436
0.00463595281
0.00503276547
0.0824349346
0.146505555
0.0818617295
0.00489032973
0.0653637845
0.156083897
0.0646641966
0.00258248317
0.160757627
0.174843413
0.154069881
0.102428053
0.00513533636
0.00523164677
0.00528782174
0.00262803583
0.149296302
0.161307693
0.0822273606
0.00517595247
0.0281324504
0.158342034
0.118359302
0.00541436941
0.022249385
0.155476606
0.122293983
0.00557485764
0.0134424233
0.156664371
0.128180901
0.0054765161
0.00864706962
0.172877859
0.173657476
0.128924743
0.0910789928
0.00627405655
0.00336192278
0.141306282
0.124329991
0.00614615888
0.00347000649
0.145864307
0.12989169
0.00608252096
0.00356823969
0.150016454
0.134779222
0.00595994844
0.00360112347
0.156983726
0.13718322
0.005592168
0.00372590387
0.181300008
0.182648087
0.0971682352
0.00525762745
0.0040203086
0.167714316
0.168043396
0.130822562
0.0894150057
0.00635363665
0.00440328356
0.139390278
0.124941965
0.00604187105
0.00407483277
0.154178709
0.0716487916
0.00415346259
0.131457492
0.126165053
0.00629263332
0.00399971005
0.146017266
0.129930588
0.00589036552
0.0039714308
0.168822857
0.170268335
0.101670024
0.00566281874
0.00392223708
0.149350719
0.128834872
0.00597782737
0.00353963283
0.150443846
0.132531178
0.00596827177
0.00330591603
0.154224377
0.135829168
0.00580091804
0.00326052781
0.167691488
0.169138693
0.145738869
0.109856863
0.00617824294
0.00383335011
0.142877499
0.122440828
0.00617868179
0.00396292527
0.149917087
0.151290253
0.13448924
0.0975788168
0.00636889532
0.00422572586
0.141524534
0.106608135
0.00574170575
0.10285392
0.125428065
0.00638542315
0.00419023906
0.14966451
0.136217438
0.00608114669
0.00419947789
0.152638659
0.13933026
0.00598181942
0.00492420425
0.163133778
0.170481298
0.121984779
0.00558184095
0.00494496486
0.165973788
0.166302934
0.153687329
0.165375605
0.13782285
0.0269073464
0.00630382667
0.00484863539
0.140439796
0.140553261
0.00625984667
0.00567896723
0.144446164
0.141733065
0.00621977729
0.00586201024
0.149631448
0.147648562
0.00617437783
0.00601571248
0.151469657
0.147430415
0.00605043953
0.00626194348
0.0059988689
0.140990524
0.157639855
0.149051461
0.0877846126
0.00640934742
0.0063993773
0.127066145
0.154670926
0.130167435
0.00600299993
0.00639703101
0.134208603
0.154636002
0.142662486
0.156403041
0.141205877
0.00570007027
0.00647314059
0.132994227
0.142279875
0.00517979684
0.0063642039
0.139585838
0.148017312
0.00484475064
0.00624893134
0.141182661
0.150254084
0.00463102628
0.00618349223
0.141548167
0.15121735
0.00447257605
0.00613690989
0.141661788
0.151643911
0.00436278861
0.00608164549
0.141987207
0.152979965
0.00436293271
0.00600135677
0.138723309
0.154240639
0.00466981431
0.00581797237
0.114950229
0.162739474
0.153149198
0.00537396518
0.00599105047
0.0968024783
0.151429094
0.145857158
0.00544645481
0.00622985506
0.124426688
0.147857423
0.00501015763
0.00607145298
0.119927844
0.153960614
0.150218827
0.149682186
0.157421326
0.153991178
0.00550091828
0.00603900054
0.0841823915
0.149342233
0.144906598
0.0053995978
0.00623799419
0.0611490108
0.146405208
0.146200639
0.00552921367
0.00651011552
0.120244881
0.121759317
0.00536422861
0.0963827781
0.152131301
0.00541738907
0.0426736898
0.156649874
0.00464718518
0.00621666549
0.143602575
0.136615989
0.00541072302
0.091213742
0.157662262
0.00564762809
0.00607190699
0.14344103
0.139505101
0.00535818015
0.061918147
0.166012575
0.147491343
0.161097579
0.112403606
0.00599810323
0.00679449751
0.00606916486
0.133052028
0.144305027
0.00605855942
0.036067821
0.152675738
0.158210609
0.121475055
0.00625333358
0.00618653176
0.123111337
0.157521702
0.101264305
0.00619608004
0.0063584941
0.141058914
0.146211964
0.00618606008
0.00574667875
0.148003963
0.160740372
0.144841366
0.153017574
0.0981137727
0.00622997342
0.00613645406
0.139310266
0.138184271
0.00662563588
0.00624600775
0.117983779
0.138425869
0.136874674
0.10928878
0.00646254626
0.00620157457
0.141231474