/*--------------------------------*- C++ -*----------------------------------*\
| =========                 |                                                 |
| \\      /  F ield         | OpenFOAM: The Open Source CFD Toolbox           |
|  \\    /   O peration     | Version:  2306                                  |
|   \\  /    A nd           | Website:  www.openfoam.com                      |
|    \\/     M anipulation  |                                                 |
\*---------------------------------------------------------------------------*/
FoamFile
{
    version     2.0;
    format      ascii;
    arch        "LSB;label=32;scalar=64";
    class       volScalarField;
    location    "0.0013";
    object      prefDh_H;
}
// * * * * * * * * * * * * * * * * * * * * * * * * * * * * * * * * * * * * * //

dimensions      [1 1 -3 0 0 0 0];

internalField   nonuniform List<scalar> 
531
(
23949.5349
23252.9413
23155.9794
23978.4535
23951.6854
23375.5282
23062.5048
23081.2862
23971.7761
23955.4899
23373.8459
22991.6683
23057.191
23960.0235
23962.7279
23281.9231
23223.3358
23975.2526
23946.0003
23382.36
23312.9407
23205.8592
23169.0723
22910.1987
22916.2051
23972.345
23955.6669
23973.2673
23961.9093
23379.8178
23217.6634
23990.7954
23961.6775
23366.8836
23267.1172
23146.0806
23185.3914
23977.1275
23361.3625
23028.6315
24004.471
23960.6069
23382.4061
23110.5115
23135.387
23975.1846
23981.2209
23384.0637
23348.2835
23979.4716
23967.5216
23466.9663
23316.9257
23004.8031
23060.3058
23968.6071
23971.0386
23209.2573
23258.8517
23976.7009
23375.0374
23121.3645
23983.3321
23955.7484
23965.1414
23335.319
22990.9426
23090.0832
23002.5158
23980.155
23916.4248
23369.6444
22923.3244
23156.3009
23924.976
23432.1683
22927.9386
23366.0192
23938.671
23977.3418
23073.9827
23128.9544
23965.8613
23956.4091
23958.6409
23258.6524
23094.8854
23956.8888
23936.4279
23941.5575
23426.94
23003.3482
23080.9727
22825.5675
22859.3577
23938.2587
23926.0835
22975.6354
23020.7238
23947.155
23928.3773
23939.1008
23481.5686
22886.5794
23134.0448
23947.4059
23384.9011
23097.5834
23981.7463
23931.7089
23397.5212
23291.2337
23082.3656
23233.1825
23956.4579
23327.2221
22974.5676
23964.665
23929.7879
23952.1289
22883.0268
22893.3402
23949.1919
23931.872
23942.2949
23270.3413
23025.6141
23951.7343
23925.0938
23458.2623
22968.268
22987.0233
23959.2025
23939.068
23253.7926
22808.5359
22957.6812
23940.9173
23952.1397
23055.2968
23020.1957
23954.1278
23931.8075
23074.9164
23106.1479
23959.6053
23929.8103
23028.8308
23139.1235
23960.8331
23951.7068
23951.8358
23240.5392
23072.8767
23985.3464
23931.6714
23364.9056
23126.2321
23328.8592
23050.3997
23364.1933
23947.4061
23370.2732
23126.3171
23987.8196
23934.5092
23260.3091
23390.1582
23976.142
23407.549
23116.0728
23961.6918
23953.3682
23953.4429
23004.2109
22846.2694
23973.0549
23935.7268
23376.9863
22947.8716
23099.2901
23965.3697
23962.3677
23380.657
23137.5812
23375.3992
23967.1846
23962.7368
23378.0171
23053.3452
23382.7319
23955.3398
23313.2179
23060.1187
23966.5322
23929.3111
23953.0484
22915.1776
22823.6828
23929.5674
23921.1091
23572.9998
22873.4194
22918.0429
23946.242
23918.6671
23171.3352
23202.5911
23960.9656
23924.9349
23398.4453
23237.1621
23111.4403
23137.1175
23949.1462
23924.6495
22999.7977
23119.0833
23945.9788
23937.1017
23936.8841
23058.5169
22896.9712
23960.113
23927.2589
23394.8598
22958.1696
23099.9976
23953.0708
23942.0294
23381.4117
22905.8349
23079.5238
23953.4519
23949.2852
23132.3554
23098.4852
23979.7313
23945.1029
23373.9446
23027.4847
23144.2314
23977.9499
23970.7659
23367.4799
23262.3947
23182.4417
23382.092
23983.9204
23371.0064
23103.3392
23987.3563
23966.0072
23174.2151
23155.6843
23977.4518
23954.401
23154.6929
23176.8383
23964.2451
23954.1839
23112.5622
23131.0286
23955.9684
23959.8259
22996.9127
23214.3799
23944.9308
23970.0542
23934.8961
23349.1552
22908.2376
23206.642
23940.2188
23977.3015
22968.1859
23174.1114
23955.9785
23365.0518
22908.5612
23998.0639
23940.8588
23209.2608
23184.4847
24001.3176
23922.3086
23374.5485
23243.827
23309.296
23076.3952
23304.2603
23928.2982
23958.1235
23926.2094
23082.4501
22905.4995
23969.6976
23897.2981
23961.1854
23903.4122
23132.061
22750.9284
23031.7861
23923.7196
23935.6907
22862.1858
22864.6108
23948.926
23932.9133
23076.4867
23033.8879
23964.5896
23931.527
23380.6501
22987.9231
23124.1509
23962.6614
23946.0746
23379.3358
22941.6602
23092.0222
23957.7647
23953.7056
23185.4019
23219.6669
23984.2195
23942.1156
23367.9827
23290.0597
23178.0309
23180.0427
23988.342
23957.8612
23368.3005
23168.5353
23331.742
23974.1563
23955.2553
23372.2005
23073.9797
23189.2311
23942.5821
23958.9033
23528.3853
22989.6721
22960.8424
23973.2382
23912.162
23378.471
22821.4513
23092.5222
23920.2721
23947.912
23920.2418
22996.6669
22793.6371
23960.0247
23912.4567
23386.3591
22981.2275
23093.1242
23943.8928
23951.571
23387.7377
23005.4447
23073.4127
23963.7902
23950.1191
23377.6124
22918.1296
23034.5286
23961.6841
23955.141
23172.3798
23011.9466
23980.4471
23945.32
23374.1004
22990.5341
23198.6262
23965.8636
23960.6494
23973.162
23957.0468
23393.4812
23120.2643
23160.4841
23042.5171
23043.0014
23971.068
23967.1091
23302.3652
23143.0142
23985.0972
23955.7904
23260.8579
23104.8296
23989.4685
23949.8963
23367.349
22977.0302
23058.5272
23962.5983
23955.4482
23205.795
23037.596
23978.8497
23938.6717
23369.3308
22944.927
23049.5761
23948.7109
23957.7181
23159.9777
23071.2006
23964.533
23941.9404
23209.1487
23104.1041
23975.3523
23937.0924
23380.2109
23019.1491
23026.7868
23946.5316
23950.618
23291.0507
22707.1739
22948.2838
23941.9102
23937.7276
23941.3509
23129.9877
23045.6004
23940.645
23914.8224
23934.2905
23395.7657
22669.1468
22875.3398
23910.4984
23892.7881
23911.8542
23902.0277
22882.8396
22710.7232
23926.293
23888.9929
23286.5844
22783.1633
22959.941
23880.5587
23935.3223
23676.1333
22912.9726
22824.7363
23963.6412
23915.4876
23363.1665
23033.9297
23218.5656
23931.4513
23957.1054
23172.8659
23072.329
23952.2182
23943.5253
22923.7586
22965.5138
23958.8072
23938.5702
23951.4772
23156.8188
22864.9056
23945.372
23926.472
23038.2226
22971.0773
23934.7362
23918.6413
22925.4312
22954.3732
23949.3144
23918.2019
23937.5795
23923.0085
23246.1714
23000.0275
22918.9921
22902.0053
23952.0252
23927.5859
23070.3968
23092.2778
23968.9339
23927.2319
23380.2738
23255.6315
23091.667
23115.9698
23954.8654
23935.4039
23946.2709
23275.4792
23038.1621
23954.5245
23927.7402
23462.6677
22911.5065
22929.9453
23949.3983
23947.7982
23050.0849
23084.9374
23959.3766
23951.0548
23953.9655
23386.5026
23062.8394
23086.0907
22959.1945
23959.4589
23941.0974
23238.3184
22796.7228
22998.7029
23939.6267
23940.2145
23941.0852
23231.8943
23183.3264
)
;

boundaryField
{
    closed
    {
        type            calculated;
        value           nonuniform List<scalar> 0();
    }
    open
    {
        type            calculated;
        value           nonuniform List<scalar> 0();
    }
    sides
    {
        type            empty;
    }
    procBoundary1to0
    {
        type            processor;
        value           uniform 23971.8307;
    }
    procBoundary1to2
    {
        type            processor;
        value           uniform 23949.3357;
    }
}


// ************************************************************************* //
