/*--------------------------------*- C++ -*----------------------------------*\
| =========                 |                                                 |
| \\      /  F ield         | OpenFOAM: The Open Source CFD Toolbox           |
|  \\    /   O peration     | Version:  2306                                  |
|   \\  /    A nd           | Website:  www.openfoam.com                      |
|    \\/     M anipulation  |                                                 |
\*---------------------------------------------------------------------------*/
FoamFile
{
    version     2.0;
    format      ascii;
    arch        "LSB;label=32;scalar=64";
    class       volScalarField;
    location    "0.0013";
    object      PV;
}
// * * * * * * * * * * * * * * * * * * * * * * * * * * * * * * * * * * * * * //

dimensions      [0 0 0 0 0 0 0];

internalField   nonuniform List<scalar> 
531
(
-0.00693719413
-0.00715219575
-0.00716569325
-0.00693216418
-0.0069370181
-0.00710854388
-0.00717408928
-0.00716987876
-0.00693294271
-0.00693580875
-0.00711412861
-0.00718168595
-0.00717068508
-0.00693485568
-0.00693383895
-0.00714949502
-0.00715701298
-0.00693205572
-0.00693643252
-0.00708549166
-0.00714813344
-0.00715729884
-0.00716211768
-0.00718781011
-0.00718722107
-0.00693281727
-0.0069356791
-0.00693354174
-0.00693495465
-0.00713473606
-0.0071575294
-0.00693068817
-0.00693512529
-0.00710787431
-0.00715102951
-0.0071623123
-0.00715735916
-0.0069319258
-0.00710035605
-0.00717552832
-0.00692856666
-0.00693578717
-0.00706437985
-0.00716874288
-0.00716139316
-0.00693400087
-0.00693238123
-0.00713478189
-0.00714217984
-0.00693317429
-0.0069344517
-0.00702947287
-0.00714433932
-0.00717946355
-0.00717031244
-0.00693370468
-0.00693333055
-0.00715622362
-0.00715171964
-0.00693162995
-0.00711160894
-0.00716556504
-0.0069312677
-0.00693541309
-0.00693349867
-0.00714379138
-0.00718232252
-0.00716819949
-0.00718189648
-0.0069304393
-0.00694051498
-0.00711224575
-0.00719225398
-0.00715899119
-0.00693928238
-0.00704199769
-0.00719021786
-0.00710695069
-0.00693832963
-0.00693246013
-0.00717378058
-0.007165224
-0.00693426011
-0.00693697917
-0.00693544785
-0.00715469884
-0.00717217686
-0.00693605876
-0.0069388993
-0.00693807576
-0.00705433344
-0.00718169431
-0.00717245083
-0.0071993483
-0.00719407925
-0.00693735808
-0.00693885651
-0.00718317042
-0.00718019242
-0.00693617173
-0.006939805
-0.00693779668
-0.00702752766
-0.00719253167
-0.00716587294
-0.00693594444
-0.00712697738
-0.00717153916
-0.00693174046
-0.00693900686
-0.00706279745
-0.00715216567
-0.00717096848
-0.00715683048
-0.00693507188
-0.00714722264
-0.00718456359
-0.00693438426
-0.00694064397
-0.00693637248
-0.00719449336
-0.00719261787
-0.00693713505
-0.00694093961
-0.00693831623
-0.00715582592
-0.00718131277
-0.00693680323
-0.00694118527
-0.0070347649
-0.00718484203
-0.00718187285
-0.00693466779
-0.00693863243
-0.00715160047
-0.00720226396
-0.00718097771
-0.00693785026
-0.00693509497
-0.00717530279
-0.007177887
-0.00693559588
-0.00693885322
-0.00717187357
-0.0071709879
-0.00693482205
-0.00693973416
-0.00717613049
-0.00716735119
-0.00693449215
-0.00693742498
-0.0069358022
-0.00715416652
-0.00717375808
-0.00693104732
-0.00693881363
-0.00712504288
-0.00716965027
-0.00714005227
-0.0071760648
-0.00710097651
-0.00693576992
-0.007129193
-0.00716778525
-0.00693048166
-0.00693878583
-0.00714941977
-0.00714203212
-0.00693219008
-0.00713778167
-0.00716703505
-0.00693493253
-0.00693682208
-0.00693591212
-0.00717877491
-0.00719698922
-0.00693269601
-0.00693932697
-0.00712819512
-0.00718756746
-0.00716642905
-0.00693435815
-0.00693494126
-0.00713103443
-0.00716674586
-0.0071178534
-0.00693455787
-0.0069348077
-0.00710465099
-0.00717507925
-0.00711835112
-0.00693568081
-0.00714720358
-0.00717581374
-0.00693402449
-0.00694049792
-0.00693583296
-0.00719165693
-0.00719972577
-0.00693895228
-0.00694156793
-0.0069998423
-0.00719547684
-0.00719080315
-0.00693707084
-0.00694073649
-0.00716240634
-0.00716278501
-0.00693444352
-0.00693976365
-0.00713447913
-0.00715898232
-0.00716883127
-0.00716741583
-0.00693578875
-0.0069392704
-0.00717996367
-0.00716985617
-0.00693583088
-0.00693856519
-0.00693713754
-0.0071740287
-0.00719220814
-0.00693367701
-0.006939314
-0.00713374161
-0.00718678871
-0.00716796506
-0.00693470586
-0.00693678857
-0.00709562598
-0.00719056213
-0.00716900673
-0.00693506582
-0.00693524817
-0.00716409059
-0.00717033473
-0.00693069423
-0.00693673182
-0.00708003831
-0.00717631993
-0.00716034768
-0.00693143774
-0.00693267129
-0.00710520109
-0.00715053415
-0.00715726983
-0.00713544282
-0.00693030359
-0.00712073742
-0.00716617689
-0.00693126961
-0.00693392005
-0.00715890719
-0.0071634883
-0.00693290101
-0.00693634894
-0.00716287179
-0.00716247388
-0.00693502676
-0.00693672246
-0.00716875533
-0.00716681921
-0.00693619227
-0.00693613084
-0.00718167372
-0.00715720698
-0.0069378364
-0.00693494715
-0.00693952873
-0.00714073571
-0.0071940954
-0.00715449298
-0.00693833903
-0.00693251819
-0.00718402121
-0.00715797668
-0.00693460979
-0.00713444577
-0.00718942857
-0.00692977237
-0.00693763547
-0.007152548
-0.00716441539
-0.00692890897
-0.00694106458
-0.00707325131
-0.00716066052
-0.007144334
-0.00717820696
-0.00714616658
-0.00694002671
-0.00693625695
-0.00694024319
-0.00717081939
-0.0071961978
-0.00693401691
-0.0069454713
-0.00693517049
-0.00694415468
-0.00716531846
-0.00721096388
-0.00717527371
-0.00694031867
-0.00693706998
-0.00719490613
-0.00719398508
-0.00693551848
-0.00693805055
-0.00717050705
-0.0071787391
-0.00693277447
-0.00693876314
-0.00710768803
-0.00718257826
-0.0071653216
-0.00693337312
-0.00693643342
-0.00708292307
-0.00718662851
-0.00716704012
-0.00693475936
-0.00693472432
-0.00715834812
-0.00715777555
-0.00693064174
-0.00693688003
-0.00708611867
-0.00715031795
-0.00715695278
-0.0071600788
-0.00692974592
-0.00693473939
-0.00711054475
-0.00716215008
-0.00714222873
-0.00693238601
-0.00693504204
-0.00710043562
-0.00717347464
-0.00715746047
-0.00693663728
-0.00693477011
-0.00701150201
-0.0071785625
-0.00718683091
-0.00693185733
-0.00694147077
-0.00712064631
-0.00720326147
-0.00716794266
-0.00693961968
-0.00693623525
-0.00693936384
-0.00717897191
-0.00720454057
-0.00693328493
-0.00694137571
-0.0071220393
-0.00718563483
-0.00716800371
-0.00693604305
-0.00693508609
-0.00710438957
-0.00717894035
-0.00717092468
-0.00693287858
-0.00693576024
-0.00710755019
-0.00718863888
-0.00717320883
-0.00693418434
-0.00693456682
-0.00715909276
-0.00717942045
-0.0069310554
-0.0069373627
-0.00712572717
-0.00718280563
-0.00715655962
-0.00693459557
-0.0069352415
-0.00693356434
-0.00693574256
-0.00706514396
-0.0071669503
-0.00716031938
-0.00717440156
-0.00717229093
-0.00693339252
-0.0069334408
-0.00714577353
-0.00716472124
-0.00693139176
-0.00693572846
-0.00714840618
-0.00717041511
-0.00693019906
-0.00693726722
-0.00709888668
-0.00718350658
-0.00717114507
-0.00693493622
-0.0069354482
-0.00715642977
-0.00717809783
-0.00693163603
-0.00693890081
-0.00710676982
-0.00718855031
-0.00717171535
-0.00693718246
-0.00693486276
-0.00716349212
-0.00717370967
-0.00693443889
-0.00693782747
-0.00715633258
-0.00717225673
-0.00693238381
-0.00693900682
-0.00708200447
-0.00718022697
-0.00717574171
-0.00693671039
-0.00693661887
-0.00715002943
-0.0072117441
-0.00718544068
-0.00693754222
-0.00693908874
-0.00693768501
-0.00716936557
-0.00717892754
-0.00693861
-0.00694220054
-0.00693984265
-0.00714507477
-0.00721891835
-0.0071982606
-0.00694287091
-0.00694503034
-0.00694295138
-0.00694316892
-0.00719523585
-0.00721590209
-0.00693908925
-0.00694565486
-0.00715208004
-0.00720988676
-0.00718455107
-0.00694579762
-0.00693819897
-0.00697885452
-0.00718774705
-0.00720308835
-0.00693331299
-0.00694161417
-0.00713914503
-0.00718234906
-0.00715476662
-0.0069396649
-0.00693464974
-0.00716448836
-0.00717288744
-0.00693623856
-0.00693750396
-0.00718722603
-0.00718571032
-0.00693471107
-0.00693986977
-0.00693588143
-0.00716637983
-0.00719568809
-0.00693790457
-0.00693994939
-0.00717840865
-0.00718697404
-0.00693901885
-0.00694137028
-0.00718987323
-0.00718923362
-0.00693658596
-0.00694186758
-0.00693865578
-0.00694031566
-0.00715753086
-0.00718349067
-0.00718967293
-0.00719146438
-0.00693531253
-0.00693855085
-0.00717116252
-0.00717342839
-0.00693278478
-0.00693943967
-0.007115699
-0.00715736608
-0.00717009546
-0.00717039117
-0.00693549233
-0.00693915392
-0.00693703158
-0.00715319471
-0.00717943756
-0.0069355237
-0.00694055559
-0.00703217047
-0.00719118355
-0.00718664128
-0.0069366315
-0.00693650682
-0.0071744132
-0.00717216551
-0.0069344378
-0.00693670921
-0.0069351137
-0.00712117489
-0.00717411727
-0.0071696082
-0.0071840743
-0.00693375053
-0.0069372165
-0.00715357863
-0.0072029081
-0.00717922006
-0.00693765596
-0.00693787552
-0.00693771395
-0.00715765165
-0.00716434396
)
;

boundaryField
{
    closed
    {
        type            zeroGradient;
    }
    open
    {
        type            zeroGradient;
    }
    sides
    {
        type            empty;
    }
    procBoundary1to0
    {
        type            processor;
        value           uniform -0.00693364241;
    }
    procBoundary1to2
    {
        type            processor;
        value           uniform -0.00693632911;
    }
}


// ************************************************************************* //
