/*--------------------------------*- C++ -*----------------------------------*\
| =========                 |                                                 |
| \\      /  F ield         | OpenFOAM: The Open Source CFD Toolbox           |
|  \\    /   O peration     | Version:  2306                                  |
|   \\  /    A nd           | Website:  www.openfoam.com                      |
|    \\/     M anipulation  |                                                 |
\*---------------------------------------------------------------------------*/
FoamFile
{
    version     2.0;
    format      ascii;
    arch        "LSB;label=32;scalar=64";
    class       volScalarField;
    location    "0.0013";
    object      T;
}
// * * * * * * * * * * * * * * * * * * * * * * * * * * * * * * * * * * * * * //

dimensions      [0 0 0 1 0 0 0];

internalField   nonuniform List<scalar> 
531
(
339.926261
326.707005
325.005316
340.377717
339.965609
329.013246
323.338704
323.665484
340.279197
340.040765
328.94997
322.085426
323.231665
340.109731
340.147519
327.227111
326.197932
340.326775
339.840036
329.25426
327.792247
325.880479
325.237051
320.631566
320.743717
340.341027
340.055717
340.317336
340.137494
328.963077
326.091325
340.566112
340.103636
328.853311
326.961151
324.8072
325.499455
340.403038
328.78758
322.72952
340.804146
340.118215
329.3494
324.183144
324.604577
340.331666
340.42843
329.047396
328.396779
340.41879
340.172543
331.102922
327.836782
322.311346
323.281831
340.251584
340.280978
325.933151
326.813166
340.380185
328.992488
324.376426
340.494019
340.008289
340.222452
328.177037
322.087574
323.8195
322.300284
340.417462
339.416492
328.875121
320.903304
324.984405
339.568479
330.387647
320.972564
328.83982
339.776968
340.358078
323.550889
324.505073
340.240885
340.026953
340.120906
326.821662
323.924677
340.058639
339.696745
339.818696
330.247051
322.304255
323.680361
319.14841
319.745572
339.785141
339.587353
321.807814
322.616094
339.933645
339.59314
339.804867
331.391005
320.226308
324.607718
339.931778
329.100229
323.976323
340.415908
339.622554
329.647139
327.412848
323.689328
326.375163
340.079261
328.041319
321.791751
340.190035
339.641445
340.023459
320.165719
320.342806
339.982581
339.643597
339.870949
327.041733
322.705726
339.953095
339.551762
330.919329
321.673275
322.003457
340.086181
339.814422
326.728738
318.84722
321.468753
339.81954
340.013667
323.218692
322.592784
340.015616
339.675779
323.558627
324.125955
340.110538
339.634042
322.738191
324.704829
340.146519
339.95116
340.009244
326.488922
323.534631
340.474599
339.657573
328.723428
324.491344
328.036801
323.138995
328.832624
339.923208
328.80625
324.481047
340.515769
339.69171
326.830093
329.165178
340.377318
329.475581
324.283782
340.137907
340.006119
340.051372
322.29751
319.510256
340.292019
339.764108
328.93779
321.314868
323.975187
340.176264
340.1612
328.994874
324.672865
328.964479
340.187741
340.130241
329.084479
323.178591
329.104453
340.061659
327.783362
323.308408
340.226132
339.62204
340.048271
320.742654
319.112489
339.656757
339.512896
333.219156
319.997001
320.79667
339.89086
339.465474
325.272099
325.849981
340.084211
339.522493
329.312902
326.465192
324.213427
324.681686
339.939694
339.553891
322.233307
324.358763
339.917644
339.731557
339.786355
323.271704
320.420274
340.075526
339.620464
329.242991
321.508282
324.004658
339.970967
339.842115
329.183927
320.569257
323.635637
340.011824
339.949219
324.571678
323.986873
340.398717
339.876598
329.114687
322.714987
324.769053
340.375611
340.273483
328.872523
326.875442
325.450797
328.997682
340.508851
328.867935
324.049342
340.516265
340.211892
325.300328
324.988872
340.381345
340.022204
324.964645
325.368106
340.171189
340.021868
324.225898
324.551208
340.048798
340.110987
322.181581
326.02159
339.881331
340.227236
339.739434
328.405636
320.627663
325.872945
339.803002
340.395338
321.673111
325.291208
340.08791
328.685511
320.614424
340.685868
339.818324
325.907007
325.524257
340.749136
339.469356
329.161624
326.589804
327.69833
323.622225
327.615113
339.634374
340.04962
339.628444
323.683425
320.593539
340.26728
339.125792
340.124357
339.244461
324.572818
317.845248
322.795687
339.554929
339.752792
319.794529
319.837189
339.94252
339.704405
323.585241
322.850939
340.144447
339.667661
329.109642
322.028128
324.430965
340.130597
339.899996
329.204737
321.201164
323.852279
340.074457
340.014613
325.509148
326.136586
340.466337
339.784786
328.975721
327.384932
325.36551
325.424532
340.532455
340.067673
328.860578
325.219484
328.1042
340.300649
340.012945
328.987963
323.552596
325.575861
339.83526
340.088261
332.333755
322.03395
321.561877
340.296411
339.364639
329.001469
319.101055
323.865423
339.516034
339.917764
339.5246
322.168396
318.601514
340.074424
339.370237
329.142465
321.92573
323.879872
339.814603
339.983407
329.261829
322.329773
323.533718
340.140993
339.968269
329.0508
320.781142
322.834928
340.142968
340.043295
325.273883
322.450528
340.401691
339.886313
328.89404
322.070519
325.741174
340.215269
340.101206
340.309933
340.044351
329.559424
324.359708
325.064177
322.976255
322.980228
340.273814
340.224683
327.57722
324.766635
340.483556
340.032139
326.831647
324.096331
340.542883
339.951324
328.903278
321.824442
323.256639
340.151777
340.041513
325.867963
322.909299
340.374937
339.775436
328.901326
321.265907
323.096784
339.933111
340.0785
325.066871
323.501467
340.17254
339.809742
325.928994
324.094529
340.325682
339.733894
329.230695
322.580596
322.699475
339.874933
339.994611
327.400527
317.045403
321.317562
339.874383
339.750749
339.843056
324.548726
323.061551
339.831215
339.335135
339.751147
329.290692
316.390317
320.060117
339.359258
339.080825
339.368457
339.241788
320.172183
317.145405
339.557873
338.991563
327.334245
318.437469
321.531778
338.880477
339.725332
335.250955
320.681633
319.161866
340.165824
339.403524
328.664083
322.866947
326.10086
339.643116
340.047992
325.309863
323.518482
339.99955
339.845764
320.874927
321.627114
340.141086
339.758957
340.022182
325.020093
319.848283
339.874346
339.582187
322.919879
321.742534
339.72069
339.445207
320.920905
321.447612
339.982742
339.442983
339.762755
339.521127
326.618346
322.260453
320.804561
320.513298
340.00647
339.592286
323.475235
323.891205
340.230774
339.552745
329.06605
326.791842
323.855861
324.305687
340.054402
339.682578
339.909591
327.126559
322.927718
340.010313
339.591879
331.009766
320.669131
320.988699
339.95931
339.921802
323.118242
323.742826
340.119841
339.923598
340.026903
329.158424
323.356659
323.751902
321.515376
340.102248
339.830882
326.45885
318.638931
322.210614
339.820648
339.77681
339.81687
326.354994
325.501526
)
;

boundaryField
{
    closed
    {
        type            fixedValue;
        value           nonuniform List<scalar> 0();
    }
    open
    {
        type            zeroGradient;
    }
    sides
    {
        type            empty;
    }
    procBoundary1to0
    {
        type            processor;
        value           uniform 340.298893;
    }
    procBoundary1to2
    {
        type            processor;
        value           uniform 339.948989;
    }
}


// ************************************************************************* //
