/*--------------------------------*- C++ -*----------------------------------*\
| =========                 |                                                 |
| \\      /  F ield         | OpenFOAM: The Open Source CFD Toolbox           |
|  \\    /   O peration     | Version:  2306                                  |
|   \\  /    A nd           | Website:  www.openfoam.com                      |
|    \\/     M anipulation  |                                                 |
\*---------------------------------------------------------------------------*/
FoamFile
{
    version     2.0;
    format      ascii;
    arch        "LSB;label=32;scalar=64";
    class       volScalarField;
    location    "0.00104";
    object      prefDZ_H2;
}
// * * * * * * * * * * * * * * * * * * * * * * * * * * * * * * * * * * * * * //

dimensions      [1 -1 -1 0 0 0 0];

internalField   nonuniform List<scalar> 
530
(
6.41969564e-05
6.26082541e-05
6.23356527e-05
6.23309045e-05
6.23304734e-05
6.23304606e-05
6.23304598e-05
6.23304597e-05
6.23304597e-05
6.23304597e-05
6.23304597e-05
6.23304597e-05
6.23304597e-05
6.23304597e-05
6.23304597e-05
6.23304597e-05
6.23304597e-05
6.23304597e-05
6.23304597e-05
6.23304597e-05
6.23304597e-05
6.23304597e-05
6.23304597e-05
6.23304597e-05
6.23304597e-05
6.23304597e-05
6.23304597e-05
6.23304597e-05
6.23304597e-05
6.23304597e-05
6.23304597e-05
6.23304597e-05
6.23304597e-05
6.23304597e-05
6.23304597e-05
6.23304597e-05
6.23304597e-05
6.23304597e-05
6.23304597e-05
6.23304597e-05
6.23304597e-05
6.23304597e-05
6.23304597e-05
6.23304597e-05
6.23304597e-05
6.23304597e-05
6.23304597e-05
6.23304597e-05
6.23304597e-05
6.23304597e-05
6.23304597e-05
6.23304597e-05
6.23304597e-05
6.23304597e-05
6.23304597e-05
6.23304597e-05
6.23304597e-05
6.23304597e-05
6.23304597e-05
6.23304597e-05
6.23304597e-05
6.23304597e-05
6.23304597e-05
6.23304598e-05
6.23304598e-05
6.23304598e-05
6.23304598e-05
6.233046e-05
6.23304604e-05
6.23304614e-05
6.23304638e-05
6.2330468e-05
6.23304787e-05
6.23304984e-05
6.23305427e-05
6.23306129e-05
6.23307336e-05
6.23309394e-05
6.23312929e-05
6.23318172e-05
6.23322913e-05
6.23333212e-05
6.23344009e-05
6.23356721e-05
6.23395661e-05
6.23408686e-05
6.23326705e-05
6.23185479e-05
6.23195506e-05
6.24119379e-05
6.24504329e-05
6.23489258e-05
6.22823708e-05
6.22873604e-05
6.22927191e-05
6.25156088e-05
6.34617067e-05
6.35427148e-05
6.266507e-05
6.22780249e-05
6.1785857e-05
6.1670532e-05
6.20661808e-05
6.2887817e-05
6.35066423e-05
6.3481771e-05
6.35282311e-05
6.33686878e-05
6.2305068e-05
6.19617457e-05
6.19303788e-05
6.19111515e-05
6.1871085e-05
6.22596055e-05
6.32845803e-05
6.35875376e-05
6.32711757e-05
6.22726882e-05
6.18539022e-05
6.18784098e-05
6.22570963e-05
6.33558839e-05
6.35735962e-05
6.32254242e-05
6.22939369e-05
6.18181524e-05
6.18255716e-05
6.23043791e-05
6.32877075e-05
6.31768198e-05
6.2356716e-05
6.23439902e-05
6.32332628e-05
6.31931881e-05
6.23242244e-05
6.17373725e-05
6.22740811e-05
6.32371733e-05
6.30525577e-05
6.23615097e-05
6.23209587e-05
6.3224083e-05
6.29849737e-05
6.23717131e-05
6.23102007e-05
6.31683264e-05
6.29039193e-05
6.23710675e-05
6.22995591e-05
6.31575783e-05
6.28594589e-05
6.23766129e-05
6.22940802e-05
6.31552342e-05
6.28305468e-05
6.23899081e-05
6.22923031e-05
6.32535935e-05
6.29047235e-05
6.23362072e-05
6.22945445e-05
6.26583051e-05
6.25060113e-05
6.20251677e-05
6.16396833e-05
6.22484239e-05
6.33546914e-05
6.28452722e-05
6.24322096e-05
6.23098275e-05
6.33710121e-05
6.30345522e-05
6.20425735e-05
6.15194808e-05
6.2258002e-05
6.33365745e-05
6.28150024e-05
6.24412261e-05
6.23040497e-05
6.33719764e-05
6.28124076e-05
6.23509633e-05
6.22975527e-05
6.33148973e-05
6.27561191e-05
6.2318486e-05
6.2290295e-05
6.32948264e-05
6.27307182e-05
6.2287574e-05
6.22858597e-05
6.32773429e-05
6.27087294e-05
6.22427274e-05
6.22947034e-05
6.32961218e-05
6.2879411e-05
6.19043152e-05
6.15007428e-05
6.22699515e-05
6.33882802e-05
6.27729233e-05
6.23590968e-05
6.23027101e-05
6.3443334e-05
6.27809643e-05
6.22083052e-05
6.23098546e-05
6.34319473e-05
6.29714586e-05
6.18410849e-05
6.14633442e-05
6.22758423e-05
6.34480307e-05
6.27871586e-05
6.22596959e-05
6.2318087e-05
6.3501728e-05
6.30777245e-05
6.18362686e-05
6.14607872e-05
6.22848949e-05
6.34792175e-05
6.28151567e-05
6.22753391e-05
6.23069413e-05
6.35095808e-05
6.27994107e-05
6.21424426e-05
6.22979155e-05
6.34884585e-05
6.27491319e-05
6.20726617e-05
6.22873025e-05
6.34838389e-05
6.27127449e-05
6.20061336e-05
6.22982394e-05
6.35002332e-05
6.29837085e-05
6.16316588e-05
6.13845867e-05
6.22873078e-05
6.35048106e-05
6.28408885e-05
6.2166838e-05
6.23085934e-05
6.35428214e-05
6.28342059e-05
6.20472105e-05
6.23023546e-05
6.35386198e-05
6.27955035e-05
6.19798155e-05
6.23301358e-05
6.35662766e-05
6.3298497e-05
6.1617797e-05
6.13652233e-05
6.23172656e-05
6.35326766e-05
6.31652213e-05
6.21964059e-05
6.23663649e-05
6.35868844e-05
6.30995969e-05
6.20743359e-05
6.2365693e-05
6.360033e-05
6.33858755e-05
6.17038544e-05
6.14193487e-05
6.23256446e-05
6.35415533e-05
6.33392863e-05
6.20940503e-05
6.23658092e-05
6.36067665e-05
6.34304336e-05
6.16100201e-05
6.16012386e-05
6.19409282e-05
6.1925958e-05
6.23746421e-05
6.36058147e-05
6.34689148e-05
6.21615475e-05
6.18312636e-05
6.23285221e-05
6.35832939e-05
6.34049727e-05
6.23023849e-05
6.23792367e-05
6.36212447e-05
6.33919805e-05
6.20074153e-05
6.23782276e-05
6.36062389e-05
6.34848321e-05
6.16220469e-05
6.14197155e-05
6.16323633e-05
6.23071631e-05
6.36341483e-05
6.35462282e-05
6.22903773e-05
6.2125347e-05
6.23083143e-05
6.36534918e-05
6.35272194e-05
6.22827192e-05
6.17907653e-05
6.22605243e-05
6.36054699e-05
6.36047124e-05
6.24735106e-05
6.18317566e-05
6.17449226e-05
6.22885685e-05
6.36253725e-05
6.35591944e-05
6.20704162e-05
6.1625345e-05
6.22944776e-05
6.35987356e-05
6.35345461e-05
6.21484092e-05
6.23369391e-05
6.36573839e-05
6.35315718e-05
6.19126493e-05
6.14747468e-05
6.22921384e-05
6.35914318e-05
6.35643217e-05
6.20343333e-05
6.15985341e-05
6.22987531e-05
6.35986013e-05
6.35608359e-05
6.2020319e-05
6.15423397e-05
6.22845229e-05
6.3582256e-05
6.35966353e-05
6.19286057e-05
6.17183156e-05
6.19113065e-05
6.23148633e-05
6.36285666e-05
6.35647271e-05
6.21489779e-05
6.16938964e-05
6.22927126e-05
6.36019738e-05
6.35792497e-05
6.2130538e-05
6.1668402e-05
6.22999364e-05
6.35846788e-05
6.35687306e-05
6.21795766e-05
6.23448226e-05
6.36340451e-05
6.35437111e-05
6.1979655e-05
6.22692458e-05
6.36408638e-05
6.35366412e-05
6.18151264e-05
6.13399096e-05
6.23002987e-05
6.35741836e-05
6.35754332e-05
6.19596135e-05
6.15200019e-05
6.23045878e-05
6.35798173e-05
6.35736795e-05
6.20665384e-05
6.23448664e-05
6.36294315e-05
6.35417398e-05
6.1854626e-05
6.14244606e-05
6.23027038e-05
6.35655772e-05
6.35614247e-05
6.20193934e-05
6.23487319e-05
6.36218807e-05
6.35373709e-05
6.17490934e-05
6.13391513e-05
6.22989299e-05
6.35655954e-05
6.3562874e-05
6.17987453e-05
6.14618944e-05
6.23073775e-05
6.35719389e-05
6.3550273e-05
6.18315877e-05
6.15042329e-05
6.231249e-05
6.35688273e-05
6.35244267e-05
6.20526641e-05
6.23593817e-05
6.36141437e-05
6.34963735e-05
6.19017677e-05
6.2299456e-05
6.36139157e-05
6.34958369e-05
6.15916704e-05
6.12867996e-05
6.23117646e-05
6.35499509e-05
6.35025287e-05
6.1982075e-05
6.23550518e-05
6.36049302e-05
6.34827229e-05
6.18710304e-05
6.22922279e-05
6.36174913e-05
6.35131046e-05
6.14610453e-05
6.1283724e-05
6.22852965e-05
6.35991416e-05
6.35574547e-05
6.2312358e-05
6.22889641e-05
6.24677435e-05
6.22818108e-05
6.19172845e-05
6.22803271e-05
6.36212297e-05
6.35409696e-05
6.16882641e-05
6.20956548e-05
6.36271968e-05
6.35200476e-05
6.18572219e-05
6.14605621e-05
6.22996728e-05
6.35571047e-05
6.35532143e-05
6.18805809e-05
6.22092686e-05
6.36011779e-05
6.35403128e-05
6.18920435e-05
6.21619821e-05
6.36086083e-05
6.35556288e-05
6.18348889e-05
6.21618708e-05
6.35938821e-05
6.35629834e-05
6.1572812e-05
6.12555189e-05
6.23013723e-05
6.35217923e-05
6.36016392e-05
6.19293075e-05
6.16244047e-05
6.23017507e-05
6.3519136e-05
6.36033005e-05
6.20710956e-05
6.16821186e-05
6.22979898e-05
6.34805431e-05
6.35938508e-05
6.21143627e-05
6.14631178e-05
6.23239655e-05
6.33802797e-05
6.36226422e-05
6.22392274e-05
6.21534091e-05
6.30392289e-05
6.35681926e-05
6.2214411e-05
6.15907876e-05
6.21532672e-05
6.31169732e-05
6.35881477e-05
6.22386378e-05
6.20990354e-05
6.25510801e-05
6.34533373e-05
6.23049291e-05
6.16834762e-05
6.1650203e-05
6.26930071e-05
6.34786501e-05
6.24196426e-05
6.20467693e-05
6.22206549e-05
6.30094782e-05
6.3460112e-05
6.34841376e-05
6.25662275e-05
6.19991788e-05
6.17579657e-05
6.18537526e-05
6.18685272e-05
6.20090392e-05
6.27004876e-05
6.34603519e-05
6.28266839e-05
6.22932112e-05
6.22989214e-05
6.26424138e-05
6.34652234e-05
6.28540274e-05
6.22491518e-05
6.16778029e-05
6.19410197e-05
6.26723594e-05
6.34715532e-05
6.29732122e-05
6.22563468e-05
6.19099403e-05
6.23113094e-05
6.33717987e-05
)
;

boundaryField
{
    closed
    {
        type            calculated;
        value           uniform 8.14683854e-05;
    }
    open
    {
        type            calculated;
        value           nonuniform List<scalar> 0();
    }
    sides
    {
        type            empty;
    }
    procBoundary0to1
    {
        type            processor;
        value           uniform 6.3012507e-05;
    }
}


// ************************************************************************* //
