/*--------------------------------*- C++ -*----------------------------------*\
| =========                 |                                                 |
| \\      /  F ield         | OpenFOAM: The Open Source CFD Toolbox           |
|  \\    /   O peration     | Version:  2306                                  |
|   \\  /    A nd           | Website:  www.openfoam.com                      |
|    \\/     M anipulation  |                                                 |
\*---------------------------------------------------------------------------*/
FoamFile
{
    version     2.0;
    format      ascii;
    arch        "LSB;label=32;scalar=64";
    class       volScalarField;
    location    "0.00104";
    object      rho;
}
// * * * * * * * * * * * * * * * * * * * * * * * * * * * * * * * * * * * * * //

dimensions      [1 -3 0 0 0 0 0];

internalField   nonuniform List<scalar> 
530
(
0.894646792
0.92933312
0.936219494
0.936592272
0.935367535
0.935040654
0.936033844
0.936888782
0.936231018
0.935123702
0.936503355
0.93765979
0.935611543
0.936324236
0.938106539
0.935288706
0.934569917
0.9368602
0.935711383
0.932850578
0.931818664
0.930846864
0.930034369
0.93339811
0.938882115
0.94064013
0.939724018
0.93809761
0.937866675
0.938589154
0.936168659
0.933557169
0.935727379
0.938181976
0.936702411
0.934247625
0.934168462
0.935396173
0.935646808
0.934474303
0.933109764
0.931419763
0.928074981
0.924125497
0.92255587
0.92606476
0.934447424
0.943324614
0.946791867
0.946028868
0.945539664
0.945773429
0.94481029
0.943427757
0.941738349
0.940012072
0.93854352
0.937430309
0.936521916
0.935702148
0.934962783
0.934309111
0.933619012
0.932685428
0.931094875
0.928439786
0.924530964
0.919823329
0.915480666
0.912596472
0.911739874
0.912765505
0.914877257
0.917082793
0.918751864
0.919691834
0.919871183
0.919409345
0.918645147
0.918069895
0.918123017
0.919013637
0.92073008
0.923054109
0.925612196
0.928301479
0.93121895
0.93422046
0.936270573
0.93465503
0.934914055
0.939834343
0.945493431
0.947226566
0.947902824
0.937618759
0.913492827
0.912443442
0.934375501
0.950276382
0.962294
0.96528503
0.956099872
0.929083301
0.914458305
0.915094888
0.914329974
0.917108934
0.947413755
0.958879385
0.959481326
0.959752463
0.96050739
0.950071827
0.917434548
0.911931193
0.917197465
0.947066135
0.958912911
0.957896123
0.947333863
0.913612868
0.909499068
0.91547159
0.943826952
0.957051548
0.956615959
0.944596545
0.912635577
0.915467673
0.941861944
0.941880881
0.913612769
0.914607225
0.943014742
0.957589615
0.944242962
0.913295929
0.918273271
0.941691715
0.941977034
0.913547192
0.919987541
0.941853746
0.942383279
0.914887414
0.922047514
0.941866942
0.94246439
0.915033698
0.923150896
0.941775194
0.942486451
0.914999707
0.92385184
0.941513009
0.942415981
0.912222664
0.921630933
0.941906679
0.941844604
0.928430416
0.932947288
0.949725682
0.958708245
0.942974499
0.909416009
0.92270926
0.939756289
0.940816072
0.908794427
0.917221049
0.948715559
0.96091533
0.942127164
0.909301382
0.923106161
0.939136637
0.940303975
0.908517873
0.923063889
0.941218115
0.940551719
0.909349107
0.924485798
0.941818568
0.940589008
0.909670858
0.92505404
0.94238205
0.940550498
0.909991617
0.925538669
0.943300413
0.94037718
0.909374282
0.920625168
0.951075879
0.960467523
0.940745838
0.907577264
0.923420219
0.940278774
0.939401489
0.906466956
0.923102063
0.94373261
0.939651724
0.906577698
0.917795273
0.952297565
0.961124587
0.940327831
0.906450905
0.922949597
0.942576227
0.939382264
0.905516606
0.915010415
0.952548498
0.961350752
0.940149103
0.906177745
0.922405242
0.942474591
0.939625571
0.905731858
0.922975691
0.945702217
0.940145549
0.906128891
0.924443732
0.947370069
0.94044122
0.906176445
0.925440222
0.948867184
0.94035321
0.90575289
0.917769047
0.957448936
0.963153276
0.939991801
0.905590365
0.921410656
0.944602363
0.939255157
0.90460656
0.921286079
0.947071962
0.939308897
0.904316947
0.922044394
0.948323
0.938776535
0.903536006
0.908106842
0.956497192
0.962315737
0.938107327
0.904046394
0.911412037
0.942706392
0.937492294
0.902868804
0.913008869
0.945409663
0.937593114
0.902496774
0.906032873
0.953977766
0.960588415
0.937568345
0.903576552
0.90647751
0.94476626
0.937647192
0.902217836
0.905034727
0.956005718
0.956197391
0.948240962
0.948583119
0.934144234
0.902439037
0.904534687
0.943064278
0.950802119
0.936520047
0.90286006
0.905466044
0.939832998
0.937272576
0.902149488
0.905752051
0.946865553
0.938028488
0.9024598
0.904362516
0.956048348
0.960810544
0.955896612
0.939417546
0.902330624
0.90399865
0.938404677
0.944581924
0.937773176
0.902311218
0.904427844
0.940404203
0.952601812
0.939935206
0.903286852
0.903346792
0.931408035
0.951745982
0.953802048
0.939152645
0.903005638
0.903938559
0.946235146
0.956668116
0.939249912
0.903568876
0.904253992
0.944446815
0.939611282
0.902457196
0.904521654
0.949994241
0.960246737
0.939482722
0.903737407
0.9039819
0.947168605
0.957370069
0.939124851
0.903651152
0.904093267
0.947529161
0.958730987
0.939808243
0.904005602
0.903497552
0.949790468
0.954733948
0.950249002
0.938689144
0.903424865
0.904404268
0.944832625
0.955551978
0.93957527
0.904115831
0.904337579
0.94551097
0.956392009
0.939977794
0.904679103
0.904643719
0.94459693
0.940625691
0.90390315
0.9052292
0.949450723
0.942724761
0.903865719
0.90561694
0.953478692
0.964650377
0.941216143
0.905328289
0.905159922
0.950319251
0.960662404
0.941076242
0.905479175
0.905287133
0.948021771
0.941435788
0.904717837
0.906128495
0.953140292
0.963257274
0.941576927
0.906043718
0.905796007
0.949425709
0.941690284
0.905093945
0.90640988
0.955848291
0.965475068
0.94179258
0.906205843
0.906056772
0.954790751
0.962697015
0.941400381
0.906195053
0.906377312
0.954089721
0.961770163
0.941393632
0.906332424
0.906728349
0.948930293
0.941689815
0.905505898
0.907162718
0.952446729
0.943124203
0.905407058
0.907287835
0.959666321
0.966776564
0.941582022
0.906499293
0.906900187
0.950361077
0.941570926
0.905379672
0.907040791
0.952793926
0.942886844
0.904888236
0.906456322
0.962227079
0.966321966
0.941248275
0.905077252
0.905405705
0.941284425
0.94071878
0.933047376
0.940759453
0.950975056
0.940843802
0.904074403
0.904918133
0.956006774
0.946381243
0.90365481
0.905289676
0.951688368
0.960866007
0.939609921
0.904480259
0.904017572
0.950581835
0.942759313
0.903219796
0.903753075
0.949742879
0.943294148
0.902472242
0.902870134
0.95038842
0.942565583
0.901940201
0.902123942
0.955604975
0.962713349
0.937036179
0.90195007
0.900044431
0.945645125
0.952300454
0.933963478
0.89995479
0.897755183
0.939689323
0.948001086
0.930806438
0.897104495
0.893991776
0.934055515
0.947740667
0.926216628
0.89230965
0.886263928
0.922328837
0.923380339
0.893405794
0.8810374
0.916279267
0.930705809
0.917089492
0.886209987
0.876549651
0.911531573
0.917406192
0.901486417
0.879134586
0.909430977
0.927441114
0.928437637
0.898623988
0.880133593
0.907682505
0.921608581
0.9166372
0.893355457
0.884358893
0.884757531
0.908405043
0.928237376
0.934838612
0.933718846
0.934455955
0.932280121
0.91069658
0.893003143
0.908861341
0.928776865
0.929898416
0.91650519
0.89680782
0.912058625
0.933966172
0.948396448
0.943039292
0.920192258
0.901044854
0.913007089
0.937900939
0.94706066
0.93489646
0.90557484
)
;

boundaryField
{
    closed
    {
        type            calculated;
        value           uniform 0.578252955;
    }
    open
    {
        type            calculated;
        value           nonuniform List<scalar> 0();
    }
    sides
    {
        type            empty;
    }
    procBoundary0to1
    {
        type            processor;
        value           uniform 0.914718527;
    }
}


// ************************************************************************* //
