/*--------------------------------*- C++ -*----------------------------------*\
| =========                 |                                                 |
| \\      /  F ield         | OpenFOAM: The Open Source CFD Toolbox           |
|  \\    /   O peration     | Version:  2306                                  |
|   \\  /    A nd           | Website:  www.openfoam.com                      |
|    \\/     M anipulation  |                                                 |
\*---------------------------------------------------------------------------*/
FoamFile
{
    version     2.0;
    format      ascii;
    arch        "LSB;label=32;scalar=64";
    class       volScalarField;
    location    "0.00074";
    object      p;
}
// * * * * * * * * * * * * * * * * * * * * * * * * * * * * * * * * * * * * * //

dimensions      [1 -1 -2 0 0 0 0];

internalField   nonuniform List<scalar> 
530
(
101433.997
101436.496
101439.078
101441.708
101444.329
101447.033
101449.837
101452.428
101455.006
101458.024
101460.964
101463.77
101466.75
101469.969
101472.972
101475.911
101479.019
101482.195
101485.409
101488.665
101491.69
101494.965
101498.36
101502.011
101505.581
101509.137
101512.817
101516.484
101520.126
101523.828
101527.68
101531.614
101535.563
101539.202
101542.909
101546.706
101550.699
101554.718
101558.552
101562.379
101566.261
101570.24
101574.26
101578.27
101582.13
101585.967
101589.945
101593.98
101597.904
101601.898
101605.955
101609.936
101613.66
101617.455
101621.392
101625.336
101629.252
101633.016
101636.735
101640.509
101644.449
101648.406
101651.967
101655.62
101659.32
101663.124
101666.946
101670.366
101673.866
101677.399
101681.014
101684.643
101687.868
101691.184
101694.528
101697.876
101701.091
101704.347
101707.624
101710.562
101713.563
101716.566
101719.735
101722.79
101725.691
101728.621
101731.587
101734.514
101737.415
101739.193
101741.592
101743.934
101746.498
101749.008
101751.083
101753.215
101755.295
101757.325
101759.266
101761.283
101763.295
101765.237
101766.879
101768.561
101770.162
101771.664
101773.025
101774.397
101775.668
101776.843
101777.886
101778.966
101779.972
101780.936
101781.82
101781.356
101781.904
101782.4
101782.661
101782.904
101783.053
101783.123
101783.176
101783.126
101782.945
101782.731
101782.446
101782.193
101781.75
101781.209
101780.666
101780.144
101779.501
101778.745
101777.967
101777.2
101776.455
101775.516
101774.503
101773.552
101772.645
101771.63
101770.507
101769.436
101768.314
101767.036
101765.642
101764.328
101763.033
101761.522
101759.936
101758.495
101757.083
101755.478
101753.818
101752.284
101750.774
101749.155
101747.439
101745.668
101743.906
101742.229
101740.521
101738.698
101736.798
101734.9
101732.945
101730.98
101729.161
101727.396
101725.444
101723.461
101721.676
101719.937
101718.025
101716.084
101714.348
101712.661
101710.807
101708.946
101707.25
101705.58
101703.853
101702.059
101700.279
101698.601
101696.988
101695.38
101693.782
101692.074
101690.339
101688.643
101686.925
101685.196
101683.509
101681.881
101680.134
101678.337
101676.587
101674.921
101673.307
101671.55
101669.781
101668.196
101666.659
101664.884
101663.047
101661.336
101659.776
101658.21
101656.351
101654.482
101652.815
101650.991
101648.903
101646.91
101644.951
101642.868
101640.721
101638.597
101636.519
101634.368
101632.161
101629.985
101627.852
101625.824
101623.874
101621.848
101619.794
101617.801
101615.912
101614.123
101612.194
101610.284
101608.583
101606.958
101605.219
101603.415
101601.63
101599.894
101598.219
101596.464
101594.644
101592.819
101591.025
101589.332
101587.644
101585.832
101583.935
101582.139
101580.419
101578.588
101576.74
101575.016
101573.386
101571.824
101570.197
101568.57
101567.052
101565.607
101564.19
101562.801
101561.47
101560.191
101558.941
101557.632
101556.294
101554.976
101553.712
101552.5
101551.228
101549.894
101548.541
101547.239
101546.049
101544.875
101543.592
101542.296
101541.066
101539.939
101538.836
101537.69
101536.577
101535.545
101534.605
101533.608
101532.625
101531.683
101530.784
101529.952
101528.984
101528.024
101527.183
101526.159
101525.124
101524.112
101523.113
101522.168
101521.301
101520.383
101519.459
101518.581
101517.713
101516.851
101516.028
101515.275
101514.421
101513.559
101512.831
101512.17
101511.428
101510.688
101510.051
101509.482
101508.889
101508.307
101507.799
101507.383
101506.973
101506.543
101506.13
101505.729
101505.366
101505.053
101504.72
101504.396
101504.099
101503.818
101503.575
101503.378
101503.154
101502.959
101502.795
101502.651
101502.502
101502.382
101502.287
101502.241
101502.168
101502.105
101502.083
101502.066
101502.071
101502.081
101502.139
101502.196
101502.262
101502.345
101502.46
101502.607
101502.759
101502.931
101503.122
101503.327
101503.562
101503.826
101504.099
101504.416
101504.722
101505.06
101505.423
101505.797
101506.172
101506.57
101506.988
101507.435
101507.896
101508.331
101508.79
101509.294
101509.833
101510.376
101510.915
101511.486
101512.09
101512.716
101513.367
101514.017
101514.697
101515.462
101516.248
101517.057
101517.855
101518.682
101519.544
101520.421
101521.284
101522.12
101522.983
101523.89
101524.827
101525.766
101526.695
101527.667
101528.67
101529.597
101530.55
101531.535
101532.534
101533.514
101534.454
101535.422
101536.442
101537.486
101538.512
101539.485
101540.49
101541.531
101542.588
101543.618
101544.595
101545.604
101546.649
101547.707
101548.735
101549.704
101550.703
101551.728
101552.759
101553.762
101554.698
101555.659
101556.638
101557.616
101558.551
101559.417
101560.316
101561.3
101562.274
101563.144
101564.032
101564.936
101565.836
101566.693
101567.478
101568.297
101569.192
101570.076
101570.859
101571.664
101572.486
101573.306
101574.09
101574.804
101575.558
101576.385
101577.202
101577.923
101578.669
101579.434
101580.197
101580.929
101581.591
101582.294
101583.067
101583.826
101584.487
101585.172
101585.869
101586.559
101587.215
101587.796
101588.413
101589.084
101589.733
101590.281
101590.845
101591.414
101591.968
101592.483
101592.913
101593.38
101593.842
101594.317
101594.743
101595.092
101595.47
101595.797
101596.069
101596.383
101596.714
101597.007
101597.212
101597.437
101597.663
101597.872
101598.529
101599.106
101599.725
101600.352
101600.952
101601.511
101602.051
101602.605
101603.126
101603.529
101603.933
101604.33
101604.678
101604.997
101605.248
101605.461
101605.665
101605.815
101605.851
101605.904
101605.945
101605.912
101605.777
101605.656
101605.5
101605.248
101604.916
101604.576
101604.204
101603.775
101603.336
101602.879
101602.436
101601.951
101601.47
101600.94
101600.419
101599.978
101599.507
101599.012
101598.591
101598.134
101597.743
101597.421
)
;

boundaryField
{
    closed
    {
        type            zeroGradient;
    }
    open
    {
        type            waveTransmissive;
        gamma           1.25;
        fieldInf        101325;
        lInf            1;
        value           nonuniform List<scalar> 0();
    }
    sides
    {
        type            empty;
    }
    procBoundary2to1
    {
        type            processor;
        value           uniform 101431.556;
    }
    procBoundary2to3
    {
        type            processor;
        value           uniform 101597.132;
    }
}


// ************************************************************************* //
