/*--------------------------------*- C++ -*----------------------------------*\
| =========                 |                                                 |
| \\      /  F ield         | OpenFOAM: The Open Source CFD Toolbox           |
|  \\    /   O peration     | Version:  2306                                  |
|   \\  /    A nd           | Website:  www.openfoam.com                      |
|    \\/     M anipulation  |                                                 |
\*---------------------------------------------------------------------------*/
FoamFile
{
    version     2.0;
    format      ascii;
    arch        "LSB;label=32;scalar=64";
    class       volScalarField;
    location    "0.00074";
    object      prefDZ_T;
}
// * * * * * * * * * * * * * * * * * * * * * * * * * * * * * * * * * * * * * //

dimensions      [1 -1 -1 -1 0 0 0];

internalField   nonuniform List<scalar> 
530
(
-1.22568348e-09
-1.19477502e-09
-1.18895228e-09
-1.20514154e-09
-1.20268663e-09
-1.18833994e-09
-1.21736937e-09
-1.22705412e-09
-1.19046104e-09
-1.18715363e-09
-1.22975301e-09
-1.22665313e-09
-1.18800024e-09
-1.18900552e-09
-1.22729025e-09
-1.22704054e-09
-1.19356281e-09
-1.18694502e-09
-1.1913353e-09
-1.23096548e-09
-1.22534352e-09
-1.2303261e-09
-1.18861593e-09
-1.18700459e-09
-1.2044993e-09
-1.2065084e-09
-1.18883331e-09
-1.19965151e-09
-1.22629028e-09
-1.22654266e-09
-1.19365257e-09
-1.18647455e-09
-1.1894488e-09
-1.22809578e-09
-1.22694722e-09
-1.20579439e-09
-1.18666537e-09
-1.18732577e-09
-1.22933248e-09
-1.22605412e-09
-1.22831653e-09
-1.19112337e-09
-1.1856587e-09
-1.18887408e-09
-1.22797157e-09
-1.22622421e-09
-1.19080321e-09
-1.18832387e-09
-1.19942867e-09
-1.19418639e-09
-1.18832167e-09
-1.21992091e-09
-1.22582704e-09
-1.22798003e-09
-1.19059585e-09
-1.18631925e-09
-1.1900635e-09
-1.22782236e-09
-1.22632414e-09
-1.20697516e-09
-1.18728229e-09
-1.18797335e-09
-1.22806948e-09
-1.22744969e-09
-1.20186255e-09
-1.187574e-09
-1.18797802e-09
-1.22746775e-09
-1.22747612e-09
-1.20042224e-09
-1.18706939e-09
-1.18746194e-09
-1.22695623e-09
-1.2269628e-09
-1.19444609e-09
-1.18929993e-09
-1.20388213e-09
-1.19282342e-09
-1.18800515e-09
-1.22622918e-09
-1.22705033e-09
-1.18927003e-09
-1.18780376e-09
-1.2090175e-09
-1.22603581e-09
-1.22790917e-09
-1.19191156e-09
-1.18641501e-09
-1.18936865e-09
-1.22871536e-09
-1.22759969e-09
-1.22202608e-09
-1.18527779e-09
-1.186468e-09
-1.22929607e-09
-1.2301496e-09
-1.22886434e-09
-1.23138454e-09
-1.18835215e-09
-1.18730886e-09
-1.18610241e-09
-1.18754508e-09
-1.22767452e-09
-1.23044962e-09
-1.18872484e-09
-1.18998724e-09
-1.22710819e-09
-1.2303111e-09
-1.18747737e-09
-1.18869474e-09
-1.22649482e-09
-1.22910412e-09
-1.19978118e-09
-1.18601277e-09
-1.18857889e-09
-1.22835477e-09
-1.22648423e-09
-1.2309636e-09
-1.18903632e-09
-1.18737192e-09
-1.20320377e-09
-1.226747e-09
-1.22893783e-09
-1.19146509e-09
-1.18532322e-09
-1.18814061e-09
-1.2279967e-09
-1.23286765e-09
-1.18701721e-09
-1.18930655e-09
-1.22648891e-09
-1.22959072e-09
-1.19397462e-09
-1.18733008e-09
-1.19077302e-09
-1.22791579e-09
-1.23308749e-09
-1.18663925e-09
-1.18908178e-09
-1.22654343e-09
-1.22986427e-09
-1.19128965e-09
-1.18743461e-09
-1.20962226e-09
-1.23070178e-09
-1.18890562e-09
-1.18930167e-09
-1.2269244e-09
-1.23352207e-09
-1.18728813e-09
-1.18993238e-09
-1.22739702e-09
-1.23340628e-09
-1.18779596e-09
-1.19072175e-09
-1.22639811e-09
-1.22951444e-09
-1.19483422e-09
-1.18725671e-09
-1.19102909e-09
-1.22663332e-09
-1.22593642e-09
-1.22956174e-09
-1.20018704e-09
-1.18894505e-09
-1.18837831e-09
-1.18669532e-09
-1.19003462e-09
-1.22786121e-09
-1.23361987e-09
-1.18844301e-09
-1.19096525e-09
-1.22742722e-09
-1.23390127e-09
-1.18838719e-09
-1.19110581e-09
-1.22771635e-09
-1.23412692e-09
-1.18803182e-09
-1.19064556e-09
-1.22837944e-09
-1.22848376e-09
-1.21084936e-09
-1.18617539e-09
-1.18942597e-09
-1.22910563e-09
-1.22900461e-09
-1.22856428e-09
-1.23210338e-09
-1.18963621e-09
-1.18776145e-09
-1.18835945e-09
-1.18668682e-09
-1.19119645e-09
-1.22759346e-09
-1.23049805e-09
-1.18930222e-09
-1.18910284e-09
-1.20480128e-09
-1.22725319e-09
-1.23337544e-09
-1.1892332e-09
-1.19059268e-09
-1.22785011e-09
-1.23196954e-09
-1.18717073e-09
-1.18870212e-09
-1.23156602e-09
-1.22738603e-09
-1.23363454e-09
-1.18696906e-09
-1.18635076e-09
-1.22532601e-09
-1.23330964e-09
-1.18894853e-09
-1.19434804e-09
-1.23219157e-09
-1.19063671e-09
-1.19098717e-09
-1.22630849e-09
-1.22835158e-09
-1.20210401e-09
-1.18856229e-09
-1.18883438e-09
-1.20716523e-09
-1.2260994e-09
-1.23022404e-09
-1.19043887e-09
-1.18779045e-09
-1.19517755e-09
-1.22759318e-09
-1.23427014e-09
-1.18775925e-09
-1.1906594e-09
-1.22701227e-09
-1.23095131e-09
-1.18915532e-09
-1.18763665e-09
-1.19454824e-09
-1.22693753e-09
-1.22976939e-09
-1.19434904e-09
-1.18690816e-09
-1.19062556e-09
-1.22697646e-09
-1.2263114e-09
-1.23261367e-09
-1.18830704e-09
-1.18539608e-09
-1.19955285e-09
-1.23459059e-09
-1.18893706e-09
-1.19037669e-09
-1.22846538e-09
-1.22662855e-09
-1.23236976e-09
-1.18842723e-09
-1.18759645e-09
-1.20385652e-09
-1.202766e-09
-1.1891437e-09
-1.19715051e-09
-1.22683608e-09
-1.22598674e-09
-1.23177693e-09
-1.18831856e-09
-1.18614327e-09
-1.19155989e-09
-1.22732956e-09
-1.22900034e-09
-1.19956195e-09
-1.18676798e-09
-1.19104552e-09
-1.22769841e-09
-1.22646387e-09
-1.23193358e-09
-1.18870748e-09
-1.1862473e-09
-1.18710774e-09
-1.21422368e-09
-1.23275827e-09
-1.18963275e-09
-1.191936e-09
-1.22586074e-09
-1.22952504e-09
-1.18973555e-09
-1.18835457e-09
-1.19597653e-09
-1.22676689e-09
-1.22975461e-09
-1.1888023e-09
-1.18847264e-09
-1.22120815e-09
-1.22802133e-09
-1.20925191e-09
-1.18706754e-09
-1.19012234e-09
-1.22604806e-09
-1.22816442e-09
-1.19347315e-09
-1.19043841e-09
-1.19581317e-09
-1.19026969e-09
-1.19125671e-09
-1.2264929e-09
-1.23138858e-09
-1.18710019e-09
-1.18946785e-09
-1.22669369e-09
-1.23145463e-09
-1.18754366e-09
-1.1900037e-09
-1.22573642e-09
-1.22886194e-09
-1.19137398e-09
-1.18769262e-09
-1.19014994e-09
-1.2268005e-09
-1.22665123e-09
-1.21656959e-09
-1.18858842e-09
-1.19021156e-09
-1.22574972e-09
-1.22759469e-09
-1.19553836e-09
-1.18864567e-09
-1.18842805e-09
-1.19052177e-09
-1.22623851e-09
-1.22797817e-09
-1.188651e-09
-1.18662678e-09
-1.20561435e-09
-1.22829303e-09
-1.18943746e-09
-1.18865661e-09
-1.22619343e-09
-1.22856119e-09
-1.18706075e-09
-1.19169691e-09
-1.22755544e-09
-1.19009726e-09
-1.18876549e-09
-1.22489829e-09
-1.22751495e-09
-1.19210928e-09
-1.18827131e-09
-1.19237487e-09
-1.22596477e-09
-1.22720354e-09
-1.19507555e-09
-1.18602031e-09
-1.1890233e-09
-1.22856958e-09
-1.22704029e-09
-1.22932875e-09
-1.18575038e-09
-1.18563466e-09
-1.22732629e-09
-1.22859573e-09
-1.18709504e-09
-1.1886627e-09
-1.22609354e-09
-1.22780749e-09
-1.19113079e-09
-1.18673869e-09
-1.18870914e-09
-1.2273536e-09
-1.22672353e-09
-1.1878979e-09
-1.18855928e-09
-1.22595046e-09
-1.22671435e-09
-1.19181395e-09
-1.18783096e-09
-1.19127613e-09
-1.22682098e-09
-1.22616035e-09
-1.18993058e-09
-1.18792776e-09
-1.191577e-09
-1.2266104e-09
-1.22638087e-09
-1.19148903e-09
-1.18710112e-09
-1.18947985e-09
-1.22671764e-09
-1.22663477e-09
-1.19639392e-09
-1.18642939e-09
-1.19178005e-09
-1.22810133e-09
-1.19359754e-09
-1.18859295e-09
-1.22689779e-09
-1.22668991e-09
-1.19280979e-09
-1.18752804e-09
-1.18996009e-09
-1.22751832e-09
-1.22608528e-09
-1.20488255e-09
-1.18735465e-09
-1.18908071e-09
-1.22709573e-09
-1.2265395e-09
-1.19456067e-09
-1.18730443e-09
-1.18929787e-09
-1.22730917e-09
-1.22644263e-09
-1.19510767e-09
-1.18729452e-09
-1.18928532e-09
-1.22734175e-09
-1.22635754e-09
-1.19499898e-09
-1.18778138e-09
-1.18974543e-09
-1.2274605e-09
-1.2266581e-09
-1.19128606e-09
-1.18695155e-09
-1.18873812e-09
-1.22832768e-09
-1.22660578e-09
-1.18920931e-09
-1.18864279e-09
-1.22873624e-09
-1.22701014e-09
-1.19129897e-09
-1.18721841e-09
-1.18884987e-09
-1.22846558e-09
-1.22658324e-09
-1.1893701e-09
-1.1886936e-09
-1.22890438e-09
-1.22699599e-09
-1.19144515e-09
-1.18725223e-09
-1.18889519e-09
-1.2285298e-09
-1.22656615e-09
-1.18936071e-09
-1.18867164e-09
-1.22897941e-09
-1.2269924e-09
-1.19204113e-09
-1.18726845e-09
-1.18893349e-09
-1.22856847e-09
-1.22654992e-09
-1.18931179e-09
-1.18856912e-09
-1.22901645e-09
-1.22703905e-09
-1.19150501e-09
-1.18716911e-09
-1.18887887e-09
-1.22863019e-09
-1.22657555e-09
-1.18924476e-09
-1.18849992e-09
-1.22903372e-09
-1.22716217e-09
-1.19116561e-09
-1.18695277e-09
-1.18851501e-09
-1.22908631e-09
-1.2260739e-09
-1.18863211e-09
-1.1892862e-09
-1.22858775e-09
-1.21394471e-09
-1.18775028e-09
-1.19080431e-09
-1.22814159e-09
-1.22619827e-09
-1.18931228e-09
-1.18817601e-09
-1.22919901e-09
-1.22693108e-09
-1.19394144e-09
-1.18794959e-09
-1.19025834e-09
-1.22860047e-09
-1.22633077e-09
-1.18890705e-09
-1.18625741e-09
-1.21144067e-09
-1.22761703e-09
-1.1905003e-09
-1.18941985e-09
-1.22889961e-09
-1.2261666e-09
-1.20132701e-09
-1.18908066e-09
-1.18788339e-09
-1.19617885e-09
-1.22780365e-09
-1.19349391e-09
-1.18850825e-09
-1.2297185e-09
-1.22707483e-09
-1.1879709e-09
-1.18647435e-09
-1.23136405e-09
-1.22731773e-09
-1.18859096e-09
-1.18862036e-09
-1.2290634e-09
-1.22667718e-09
-1.21240711e-09
-1.18854443e-09
-1.18672593e-09
-1.20243693e-09
-1.22783756e-09
-1.19069898e-09
-1.18951757e-09
-1.23184907e-09
-1.22628523e-09
-1.22962372e-09
-1.18924487e-09
-1.1860413e-09
-1.19026764e-09
-1.22850936e-09
-1.2262307e-09
-1.19113259e-09
-1.18795646e-09
)
;

boundaryField
{
    closed
    {
        type            calculated;
        value           nonuniform List<scalar> 0();
    }
    open
    {
        type            calculated;
        value           nonuniform List<scalar> 0();
    }
    sides
    {
        type            empty;
    }
    procBoundary2to1
    {
        type            processor;
        value           uniform -1.22752721e-09;
    }
    procBoundary2to3
    {
        type            processor;
        value           uniform -1.19097695e-09;
    }
}


// ************************************************************************* //
