/*--------------------------------*- C++ -*----------------------------------*\
| =========                 |                                                 |
| \\      /  F ield         | OpenFOAM: The Open Source CFD Toolbox           |
|  \\    /   O peration     | Version:  2306                                  |
|   \\  /    A nd           | Website:  www.openfoam.com                      |
|    \\/     M anipulation  |                                                 |
\*---------------------------------------------------------------------------*/
FoamFile
{
    version     2.0;
    format      ascii;
    arch        "LSB;label=32;scalar=64";
    class       volScalarField;
    location    "0.00148";
    object      H;
}
// * * * * * * * * * * * * * * * * * * * * * * * * * * * * * * * * * * * * * //

dimensions      [0 0 0 0 0 0 0];

internalField   nonuniform List<scalar> 
530
(
1.24338881e-08
2.17822695e-08
2.22971747e-08
2.22528508e-08
2.22483514e-08
2.22482524e-08
2.22482495e-08
2.22482494e-08
2.22482494e-08
2.22482494e-08
2.22482494e-08
2.22482494e-08
2.22482494e-08
2.22482494e-08
2.22482494e-08
2.22482494e-08
2.22482494e-08
2.22482494e-08
2.22482494e-08
2.22482494e-08
2.22482494e-08
2.22482494e-08
2.22482494e-08
2.22482494e-08
2.22482494e-08
2.22482494e-08
2.22482494e-08
2.22482494e-08
2.22482494e-08
2.22482494e-08
2.22482494e-08
2.22482494e-08
2.22482494e-08
2.22482494e-08
2.22482494e-08
2.22482494e-08
2.22482494e-08
2.22482494e-08
2.22482494e-08
2.22482494e-08
2.22482494e-08
2.22482494e-08
2.22482494e-08
2.22482494e-08
2.22482494e-08
2.22482494e-08
2.22482494e-08
2.22482494e-08
2.22482494e-08
2.22482494e-08
2.22482494e-08
2.22482494e-08
2.22482494e-08
2.22482494e-08
2.22482494e-08
2.22482494e-08
2.22482494e-08
2.22482494e-08
2.22482494e-08
2.22482494e-08
2.22482494e-08
2.22482495e-08
2.22482496e-08
2.22482503e-08
2.22482505e-08
2.22482552e-08
2.22482572e-08
2.2248274e-08
2.22482626e-08
2.22484506e-08
2.22486529e-08
2.22476063e-08
2.22469012e-08
2.2254918e-08
2.22694433e-08
2.22406262e-08
2.20660755e-08
2.21265258e-08
2.32876824e-08
2.32780245e-08
1.94953168e-08
1.91794985e-08
2.58803219e-08
2.63281818e-08
1.97697615e-08
2.24329341e-08
2.94064648e-08
4.21221018e-08
3.63289792e-08
1.1520677e-09
1.45967138e-09
1.14381616e-09
3.64477447e-08
5.37666639e-08
4.10830816e-08
1.0032718e-09
1.30973804e-09
1.1165908e-09
4.4905301e-08
5.66322377e-08
4.26662096e-08
1.00378479e-09
1.24773536e-09
1.09110998e-09
1.20802682e-09
1.14377266e-09
4.79611891e-08
4.95507864e-08
4.95520366e-08
4.16438079e-08
1.15748621e-09
1.29177915e-09
1.25258794e-09
4.08065413e-08
4.14372277e-08
1.17871665e-09
1.32486439e-09
1.23451432e-09
3.84708799e-08
4.48494952e-08
4.05149233e-08
4.49247094e-08
4.06572254e-08
4.55202307e-08
3.81224014e-08
1.19903878e-09
1.37279551e-09
1.24347939e-09
1.37505264e-09
4.28125079e-08
3.78170816e-08
1.20171104e-09
1.30641621e-09
1.22274771e-09
4.46666677e-08
4.66623098e-08
4.51268024e-08
4.17780679e-08
1.23100133e-09
1.31719578e-09
4.37143938e-08
4.28849837e-08
1.26494297e-09
1.26945531e-09
4.28730666e-08
4.65095822e-08
3.52353318e-08
1.21269747e-09
1.34532822e-09
1.24593134e-09
1.29570824e-09
4.33352112e-08
4.39475764e-08
4.29161984e-08
3.88110514e-08
1.24352308e-09
1.2839442e-09
4.4632161e-08
4.64910836e-08
3.84991133e-08
1.21982015e-09
1.34922196e-09
4.23623821e-08
4.09071221e-08
1.25866875e-09
1.3065225e-09
4.30449335e-08
4.18960492e-08
1.23119187e-09
1.31876784e-09
4.65298997e-08
3.83251952e-08
1.15977951e-09
1.31343226e-09
1.17778741e-09
4.26029117e-08
4.43523351e-08
1.23360611e-09
1.19113152e-09
4.69971189e-08
4.71998468e-08
4.55531064e-08
4.02202877e-08
1.24971722e-09
1.24739988e-09
4.46119886e-08
4.28570903e-08
1.28257297e-09
1.21947758e-09
4.2668661e-08
4.06891678e-08
1.2788183e-09
1.17759928e-09
4.46534598e-08
4.78775466e-08
3.67069807e-08
1.16900845e-09
1.28894401e-09
4.64282748e-08
4.02631811e-08
1.16622133e-09
1.27970054e-09
1.11901744e-09
4.39276732e-08
4.42838123e-08
1.2413639e-09
1.1150819e-09
4.45952153e-08
4.44389726e-08
4.61603828e-08
3.03409263e-08
1.18581933e-09
4.12466998e-08
4.22254164e-08
1.27265091e-09
1.15526834e-09
4.3268033e-08
4.1875263e-08
1.238384e-09
1.18823286e-09
4.61085191e-08
3.6294706e-08
1.11135358e-09
1.28404004e-09
1.02268026e-09
4.66954599e-08
5.27363158e-08
3.62171908e-08
1.1271539e-09
1.28271409e-09
1.03935355e-09
4.81243507e-08
5.17580507e-08
3.69788314e-08
1.17067512e-09
1.17617075e-09
4.46196375e-08
4.04629972e-08
1.27324622e-09
1.14327703e-09
4.1528352e-08
3.81234955e-08
1.28419262e-09
1.16372775e-09
4.45211454e-08
4.66265109e-08
3.40378063e-08
1.23078947e-09
1.19464411e-09
4.32380328e-08
3.94122686e-08
1.29836656e-09
1.14287995e-09
4.16947982e-08
3.79709629e-08
1.28672578e-09
1.16808468e-09
4.56173772e-08
4.64681018e-08
3.36033458e-08
1.25780269e-09
1.21040508e-09
4.14490185e-08
3.62439977e-08
1.30733164e-09
1.20209043e-09
4.26585778e-08
4.48479306e-08
3.17138377e-08
1.2651784e-09
1.18155721e-09
4.07094824e-08
3.61233787e-08
1.28463317e-09
1.08632014e-09
4.31258702e-08
4.32924389e-08
4.10062528e-08
3.30996847e-08
1.23875559e-09
1.12335792e-09
4.81824508e-08
4.84904856e-08
3.49096945e-08
1.18410412e-09
1.27892036e-09
9.99386482e-10
4.90641661e-08
5.20829988e-08
3.28950551e-08
1.16716554e-09
1.17033279e-09
1.13498738e-09
9.67293909e-10
4.9940638e-08
5.25267217e-08
3.57265042e-08
1.11969935e-09
1.0025689e-09
4.74975378e-08
4.25867672e-08
1.20513852e-09
9.44685343e-10
4.51343658e-08
4.04809196e-08
1.20120853e-09
1.00566819e-09
4.8533211e-08
4.9008157e-08
3.39573831e-08
1.18455077e-09
1.08803442e-09
4.25514188e-08
3.67753459e-08
1.24757633e-09
1.08543761e-09
4.50157567e-08
4.52273192e-08
2.9065244e-08
1.27462573e-09
1.21603052e-09
3.99424862e-08
4.28567152e-08
2.77914252e-08
1.25467959e-09
1.16064678e-09
4.5696748e-08
4.57374527e-08
4.09172297e-08
4.44876761e-08
2.94656511e-08
1.23918162e-09
1.16806553e-09
1.22528624e-09
9.52612929e-10
4.46170327e-08
3.02654331e-08
1.02894552e-09
3.7632236e-08
3.80656787e-08
1.35563231e-09
1.00146098e-09
4.11556405e-08
3.78041383e-08
1.28996216e-09
1.04838864e-09
4.72670008e-08
4.77421502e-08
3.23507368e-08
1.2518976e-09
1.09840284e-09
4.04988549e-08
3.414884e-08
1.32056481e-09
1.06936062e-09
4.12447841e-08
4.15321194e-08
3.8558831e-08
3.11143334e-08
1.3454594e-09
1.08502002e-09
4.0422389e-08
2.97862989e-08
1.19824426e-09
1.34291542e-09
1.04591243e-09
4.24018261e-08
4.54225923e-08
4.16047269e-08
4.26140955e-08
4.3385692e-08
3.38305462e-08
1.2777075e-09
1.05590913e-09
4.30324254e-08
3.25580976e-08
1.34077385e-09
1.24785938e-09
1.38022754e-09
1.09000241e-09
3.54677061e-08
4.40620225e-08
4.16774738e-08
4.16741248e-08
4.81711113e-08
2.62454423e-08
9.36093851e-10
4.00638858e-08
3.66304037e-08
1.20589839e-09
1.34146301e-09
9.2695771e-10
3.9633985e-08
3.8766221e-08
1.33985048e-09
9.8695996e-10
3.92107758e-08
3.6056901e-08
1.30033135e-09
9.75813434e-10
4.45868288e-08
4.50349565e-08
4.22061497e-08
3.41708503e-08
1.29065532e-09
9.70885177e-10
4.36232524e-08
3.97480438e-08
1.28900652e-09
9.27750496e-10
4.31168719e-08
3.86743108e-08
1.24106176e-09
9.80232951e-10
4.90694489e-08
4.9518244e-08
3.25684073e-08
1.30912051e-09
1.42205819e-09
1.19809295e-09
1.43071273e-09
1.07128967e-09
3.05197295e-08
4.69228076e-08
4.29721175e-08
4.26423246e-08
4.36192172e-08
3.34425716e-08
1.30473158e-09
1.09858188e-09
3.97504601e-08
3.33357411e-08
1.35526893e-09
1.1898426e-09
4.00438982e-08
4.0583266e-08
3.85273184e-08
3.12765728e-08
1.3267132e-09
1.15240515e-09
4.50236111e-08
4.5950616e-08
3.22370395e-08
1.18984753e-09
1.41483664e-09
9.84327304e-10
3.95374003e-08
3.70401579e-08
1.36320518e-09
1.12289566e-09
4.14047487e-08
4.58580156e-08
3.07248123e-08
1.21241703e-09
1.14108969e-09
4.61527334e-08
4.64227773e-08
3.1990228e-08
1.22030553e-09
1.16046265e-09
4.54994255e-08
4.57439398e-08
3.20970585e-08
1.20884713e-09
1.04506456e-09
4.59853118e-08
4.59988905e-08
4.40593491e-08
3.43692743e-08
1.22663625e-09
1.37488698e-09
1.0361036e-09
4.0863097e-08
3.52326871e-08
1.30604027e-09
1.41347657e-09
1.17901012e-09
3.5649789e-08
4.19472955e-08
3.83351946e-08
3.91478233e-08
3.98492414e-08
3.27396981e-08
1.34169231e-09
1.11614492e-09
4.04929323e-08
3.76179536e-08
1.3505599e-09
1.07160649e-09
4.03264754e-08
3.71211872e-08
1.31697245e-09
1.12053579e-09
4.46364703e-08
4.73790586e-08
3.41649894e-08
1.2254862e-09
1.10453796e-09
4.36279086e-08
3.97491351e-08
1.29593359e-09
1.04331111e-09
4.20525614e-08
3.86927576e-08
1.28216658e-09
1.09880214e-09
4.55618355e-08
4.79756229e-08
3.47924689e-08
1.21119631e-09
1.09490715e-09
4.36748279e-08
3.98894784e-08
1.28742978e-09
1.03471538e-09
4.20680755e-08
3.90391058e-08
1.27928898e-09
1.08654943e-09
4.55504683e-08
4.84757813e-08
3.54248278e-08
1.19388648e-09
1.09188299e-09
4.43919357e-08
4.07080286e-08
1.2754348e-09
1.02489491e-09
4.26338203e-08
4.00405683e-08
)
;

boundaryField
{
    closed
    {
        type            calculated;
        value           uniform 3.20335567e-12;
    }
    open
    {
        type            calculated;
        value           nonuniform List<scalar> 0();
    }
    sides
    {
        type            empty;
    }
    procBoundary0to1
    {
        type            processor;
        value           uniform 1.31684843e-09;
    }
}


// ************************************************************************* //
