/*--------------------------------*- C++ -*----------------------------------*\
| =========                 |                                                 |
| \\      /  F ield         | OpenFOAM: The Open Source CFD Toolbox           |
|  \\    /   O peration     | Version:  2306                                  |
|   \\  /    A nd           | Website:  www.openfoam.com                      |
|    \\/     M anipulation  |                                                 |
\*---------------------------------------------------------------------------*/
FoamFile
{
    version     2.0;
    format      ascii;
    arch        "LSB;label=32;scalar=64";
    class       volScalarField;
    location    "0.00148";
    object      prefDZ_H2;
}
// * * * * * * * * * * * * * * * * * * * * * * * * * * * * * * * * * * * * * //

dimensions      [1 -1 -1 0 0 0 0];

internalField   nonuniform List<scalar> 
530
(
6.55692397e-05
6.28151315e-05
6.2342848e-05
6.23315178e-05
6.23305073e-05
6.2330463e-05
6.23304599e-05
6.23304598e-05
6.23304597e-05
6.23304597e-05
6.23304597e-05
6.23304597e-05
6.23304597e-05
6.23304597e-05
6.23304597e-05
6.23304597e-05
6.23304597e-05
6.23304597e-05
6.23304597e-05
6.23304597e-05
6.23304597e-05
6.23304597e-05
6.23304597e-05
6.23304597e-05
6.23304597e-05
6.23304597e-05
6.23304597e-05
6.23304597e-05
6.23304597e-05
6.23304597e-05
6.23304597e-05
6.23304597e-05
6.23304597e-05
6.23304597e-05
6.23304597e-05
6.23304597e-05
6.23304597e-05
6.23304597e-05
6.23304597e-05
6.23304597e-05
6.23304597e-05
6.23304597e-05
6.23304597e-05
6.23304597e-05
6.23304597e-05
6.23304597e-05
6.23304597e-05
6.23304597e-05
6.23304597e-05
6.23304597e-05
6.23304597e-05
6.23304597e-05
6.23304597e-05
6.23304597e-05
6.23304597e-05
6.23304597e-05
6.23304597e-05
6.23304597e-05
6.23304597e-05
6.23304598e-05
6.23304598e-05
6.23304598e-05
6.23304599e-05
6.23304606e-05
6.23304608e-05
6.23304653e-05
6.2330466e-05
6.2330488e-05
6.23304936e-05
6.23305685e-05
6.23306036e-05
6.23308207e-05
6.23310501e-05
6.23311936e-05
6.23315952e-05
6.23324521e-05
6.23374245e-05
6.23365931e-05
6.23183105e-05
6.23198938e-05
6.24008705e-05
6.2411901e-05
6.2290826e-05
6.23019975e-05
6.23942158e-05
6.23560853e-05
6.22558039e-05
6.18427073e-05
6.221652e-05
6.3533274e-05
6.36591042e-05
6.359832e-05
6.22090617e-05
6.09613824e-05
6.18940175e-05
6.34942237e-05
6.36070179e-05
6.35784096e-05
6.16203763e-05
6.07311475e-05
6.17963076e-05
6.34956433e-05
6.35634057e-05
6.35405503e-05
6.35629632e-05
6.35698559e-05
6.1402795e-05
6.1284605e-05
6.12843175e-05
6.1882754e-05
6.35894828e-05
6.35564099e-05
6.3615973e-05
6.1939112e-05
6.18860694e-05
6.35476887e-05
6.35734085e-05
6.35739172e-05
6.20989196e-05
6.16441404e-05
6.19511199e-05
6.16387532e-05
6.19361259e-05
6.1594906e-05
6.21133269e-05
6.35561547e-05
6.36450628e-05
6.35628377e-05
6.36551137e-05
6.17911156e-05
6.21443426e-05
6.35853637e-05
6.35729965e-05
6.36029775e-05
6.16496956e-05
6.14976905e-05
6.16191413e-05
6.18551809e-05
6.35759806e-05
6.36288143e-05
6.17159004e-05
6.17744391e-05
6.35964238e-05
6.36003772e-05
6.17701223e-05
6.15177114e-05
6.23070036e-05
6.35525914e-05
6.36160918e-05
6.35566904e-05
6.36253633e-05
6.17527519e-05
6.16999535e-05
6.17872883e-05
6.20789269e-05
6.3576982e-05
6.35884259e-05
6.16458644e-05
6.15199927e-05
6.20906408e-05
6.35577346e-05
6.3633943e-05
6.18276731e-05
6.19168662e-05
6.35630042e-05
6.36282936e-05
6.17748167e-05
6.1846628e-05
6.35629566e-05
6.36272769e-05
6.15149794e-05
6.2112036e-05
6.35902925e-05
6.35645144e-05
6.36091129e-05
6.18089392e-05
6.16775291e-05
6.35602026e-05
6.35784742e-05
6.14779407e-05
6.14665095e-05
6.15880564e-05
6.19840211e-05
6.35829929e-05
6.36004154e-05
6.16523968e-05
6.17887237e-05
6.35874183e-05
6.35832961e-05
6.17976881e-05
6.19605206e-05
6.35870841e-05
6.35330688e-05
6.1646237e-05
6.1425728e-05
6.22197738e-05
6.35261688e-05
6.36251937e-05
6.15317746e-05
6.19725978e-05
6.35459605e-05
6.35578637e-05
6.35798306e-05
6.17136885e-05
6.1689248e-05
6.35483149e-05
6.35520221e-05
6.16653854e-05
6.16807393e-05
6.1547555e-05
6.23374127e-05
6.35893594e-05
6.19160621e-05
6.18351792e-05
6.35580405e-05
6.3586046e-05
6.17613621e-05
6.18606913e-05
6.35581201e-05
6.3589193e-05
6.15516637e-05
6.22665068e-05
6.3550961e-05
6.3550737e-05
6.35494668e-05
6.150308e-05
6.10428042e-05
6.22724134e-05
6.35285377e-05
6.35615746e-05
6.35362908e-05
6.13920597e-05
6.11196351e-05
6.22087011e-05
6.35479439e-05
6.35942911e-05
6.16611602e-05
6.19627399e-05
6.35710896e-05
6.35765136e-05
6.1885515e-05
6.21414886e-05
6.35827263e-05
6.35516542e-05
6.1658043e-05
6.15149472e-05
6.23007484e-05
6.35669216e-05
6.36143457e-05
6.17578607e-05
6.20309448e-05
6.35932331e-05
6.35949694e-05
6.18663594e-05
6.21428283e-05
6.35976417e-05
6.35703065e-05
6.15734661e-05
6.15224002e-05
6.22874779e-05
6.35807401e-05
6.36255252e-05
6.18881975e-05
6.22544734e-05
6.35923242e-05
6.35868009e-05
6.1795105e-05
6.16445037e-05
6.22925974e-05
6.35675817e-05
6.35995156e-05
6.19500325e-05
6.22813558e-05
6.35710555e-05
6.35475652e-05
6.17697619e-05
6.17670486e-05
6.1931414e-05
6.23412219e-05
6.35624383e-05
6.35496037e-05
6.13894543e-05
6.13743702e-05
6.23402688e-05
6.35331254e-05
6.35591141e-05
6.35313044e-05
6.13235241e-05
6.10947815e-05
6.23364014e-05
6.35320405e-05
6.35345205e-05
6.35106328e-05
6.35170184e-05
6.12621378e-05
6.10608716e-05
6.23197045e-05
6.35245153e-05
6.35431547e-05
6.14473711e-05
6.18221033e-05
6.35494487e-05
6.35212605e-05
6.16239443e-05
6.1986004e-05
6.35508061e-05
6.35011955e-05
6.13643944e-05
6.13393576e-05
6.23292849e-05
6.35291949e-05
6.35743385e-05
6.18219235e-05
6.22386125e-05
6.35583284e-05
6.35495035e-05
6.16271543e-05
6.1621342e-05
6.22995014e-05
6.35557131e-05
6.35913227e-05
6.20054484e-05
6.17913945e-05
6.23066708e-05
6.35613948e-05
6.35786292e-05
6.15770579e-05
6.15761472e-05
6.19218231e-05
6.16690132e-05
6.22919166e-05
6.35733147e-05
6.35673116e-05
6.3554688e-05
6.35742156e-05
6.16668724e-05
6.23029867e-05
6.35570551e-05
6.21636414e-05
6.21495798e-05
6.36147924e-05
6.35693585e-05
6.18971519e-05
6.21620873e-05
6.36130311e-05
6.3553418e-05
6.14488628e-05
6.14272762e-05
6.22818244e-05
6.35797317e-05
6.36097364e-05
6.19570397e-05
6.23369158e-05
6.35912553e-05
6.35521874e-05
6.18998619e-05
6.1896272e-05
6.20932307e-05
6.23152569e-05
6.36069377e-05
6.35944005e-05
6.19609339e-05
6.2316036e-05
6.35523886e-05
6.35539856e-05
6.35567598e-05
6.18309051e-05
6.16030196e-05
6.18836317e-05
6.18034966e-05
6.17475748e-05
6.23073985e-05
6.36058559e-05
6.36062922e-05
6.17617189e-05
6.23273653e-05
6.3625354e-05
6.35406436e-05
6.3620875e-05
6.35364315e-05
6.23080596e-05
6.17079074e-05
6.18735273e-05
6.18699662e-05
6.13958984e-05
6.2297461e-05
6.35567093e-05
6.19860975e-05
6.22487792e-05
6.35614588e-05
6.35751774e-05
6.35577651e-05
6.20185614e-05
6.21089276e-05
6.35978873e-05
6.3531708e-05
6.20488949e-05
6.23152154e-05
6.35899964e-05
6.35139732e-05
6.16550932e-05
6.16434269e-05
6.1830805e-05
6.23658183e-05
6.3608619e-05
6.3548481e-05
6.17197119e-05
6.2038902e-05
6.36057771e-05
6.35239111e-05
6.17612263e-05
6.21185394e-05
6.35883992e-05
6.35173197e-05
6.13155425e-05
6.12930018e-05
6.22738066e-05
6.35724405e-05
6.365665e-05
6.35552249e-05
6.36670454e-05
6.3538369e-05
6.22518988e-05
6.14910062e-05
6.17632834e-05
6.18055337e-05
6.17254847e-05
6.23216096e-05
6.36032715e-05
6.35910923e-05
6.20044207e-05
6.23482293e-05
6.36032246e-05
6.35603018e-05
6.1984887e-05
6.19643232e-05
6.20912713e-05
6.23166691e-05
6.36093987e-05
6.35780581e-05
6.1615084e-05
6.15668358e-05
6.22701652e-05
6.35268505e-05
6.36373454e-05
6.35660684e-05
6.20064372e-05
6.22237479e-05
6.36259544e-05
6.35583994e-05
6.18783869e-05
6.15740121e-05
6.2277783e-05
6.35564316e-05
6.36076119e-05
6.15417663e-05
6.15261586e-05
6.23038999e-05
6.35560178e-05
6.35847117e-05
6.15946471e-05
6.15807664e-05
6.23221198e-05
6.35506503e-05
6.35757672e-05
6.15576969e-05
6.15551827e-05
6.17025993e-05
6.23074546e-05
6.35720754e-05
6.36156443e-05
6.3616967e-05
6.19221312e-05
6.23233462e-05
6.35939184e-05
6.36000558e-05
6.35955364e-05
6.22998237e-05
6.18570117e-05
6.21066902e-05
6.20556254e-05
6.19985832e-05
6.23107863e-05
6.36142169e-05
6.35965162e-05
6.19455422e-05
6.21815767e-05
6.36233656e-05
6.35668031e-05
6.19571033e-05
6.22194878e-05
6.36086056e-05
6.35542456e-05
6.16461244e-05
6.14572373e-05
6.23007894e-05
6.35717188e-05
6.36060005e-05
6.17264329e-05
6.20200433e-05
6.35990592e-05
6.35647382e-05
6.1838896e-05
6.21052688e-05
6.35898737e-05
6.35431684e-05
6.15819061e-05
6.14136321e-05
6.23179233e-05
6.35602633e-05
6.35880357e-05
6.17265862e-05
6.20139641e-05
6.35882937e-05
6.35485728e-05
6.18404917e-05
6.20840363e-05
6.35852742e-05
6.35299913e-05
6.1582785e-05
6.13768599e-05
6.23124791e-05
6.35525748e-05
6.35842347e-05
6.16752087e-05
6.19516019e-05
6.35843985e-05
6.35430924e-05
6.17968928e-05
6.20100952e-05
)
;

boundaryField
{
    closed
    {
        type            calculated;
        value           uniform 8.15859136e-05;
    }
    open
    {
        type            calculated;
        value           nonuniform List<scalar> 0();
    }
    sides
    {
        type            empty;
    }
    procBoundary0to1
    {
        type            processor;
        value           uniform 6.36017117e-05;
    }
}


// ************************************************************************* //
