/*--------------------------------*- C++ -*----------------------------------*\
| =========                 |                                                 |
| \\      /  F ield         | OpenFOAM: The Open Source CFD Toolbox           |
|  \\    /   O peration     | Version:  2306                                  |
|   \\  /    A nd           | Website:  www.openfoam.com                      |
|    \\/     M anipulation  |                                                 |
\*---------------------------------------------------------------------------*/
FoamFile
{
    version     2.0;
    format      ascii;
    arch        "LSB;label=32;scalar=64";
    class       volScalarField;
    location    "0.00148";
    object      prefDh_H2O;
}
// * * * * * * * * * * * * * * * * * * * * * * * * * * * * * * * * * * * * * //

dimensions      [1 1 -3 0 0 0 0];

internalField   nonuniform List<scalar> 
530
(
92.2582071
89.9660952
89.8129176
89.8189343
89.81956
89.8195743
89.8195748
89.8195748
89.8195748
89.8195748
89.8195748
89.8195748
89.8195748
89.8195748
89.8195748
89.8195748
89.8195748
89.8195748
89.8195748
89.8195748
89.8195748
89.8195748
89.8195748
89.8195748
89.8195748
89.8195748
89.8195748
89.8195748
89.8195748
89.8195748
89.8195748
89.8195748
89.8195748
89.8195748
89.8195748
89.8195748
89.8195748
89.8195748
89.8195748
89.8195748
89.8195748
89.8195748
89.8195748
89.8195748
89.8195748
89.8195748
89.8195748
89.8195748
89.8195748
89.8195748
89.8195748
89.8195748
89.8195748
89.8195748
89.8195748
89.8195748
89.8195748
89.8195748
89.8195748
89.8195748
89.8195748
89.8195748
89.8195748
89.8195746
89.8195746
89.8195739
89.8195736
89.8195708
89.8195722
89.8195452
89.8195172
89.819652
89.8197408
89.8186652
89.8167154
89.8205472
89.8437695
89.835698
89.6824591
89.6838211
90.1916257
90.2340867
89.351128
89.2987797
90.153746
89.7953531
88.9141458
87.9789648
88.1564026
92.4205422
92.1356456
92.4347619
88.1526238
87.4950956
87.9751885
92.5602494
92.2754369
92.4588431
87.8159488
87.3514106
87.9412402
92.5598556
92.330837
92.4797907
92.3692876
92.4319292
87.7074645
87.6451325
87.644282
88.0101674
92.4207224
92.2872099
92.331969
88.036479
87.9948344
92.3961347
92.2567416
92.344768
88.1206648
87.8676653
88.0311566
87.8649713
88.0158798
87.8408627
88.1174277
92.3773056
92.2188223
92.3349114
92.2179951
87.9470472
88.1464964
92.3777054
92.2747247
92.3593165
87.8553373
87.7575169
87.8443307
87.9675422
92.3483903
92.2708736
87.8875035
87.9189082
92.3177334
92.3138086
87.9081996
87.7892708
88.2550294
92.3637328
92.2418532
92.3318969
92.2913185
87.9246162
87.8800618
87.9510604
88.1138964
92.3363603
92.2983634
87.8411755
87.7927112
88.10843
92.357342
92.2403455
87.9741671
88.0026661
92.3201687
92.2811822
87.9387565
87.9624341
92.3468474
92.2691502
87.7848285
88.1316519
92.4186028
92.2669287
92.4033095
87.9614626
87.8803061
92.3442236
92.3871932
87.7584445
87.7614646
87.827508
88.0661982
92.3310037
92.3351905
87.8544111
87.9470852
92.2995829
92.3603218
87.9445313
88.0671986
92.3031968
92.3958638
87.8449805
87.7690579
88.1882731
92.4035554
92.2978614
87.8165596
88.0483338
92.4080371
92.2991485
92.4566573
87.9101092
87.8996874
92.3354905
92.457809
87.8845554
87.900708
87.8150052
88.8332854
92.3934517
88.0359649
87.974589
92.3060381
92.4224996
87.9359236
87.9894509
92.3393738
92.3911087
87.8178599
88.2345136
92.4612912
92.2941693
92.5459069
87.779162
87.5344768
88.2384493
92.4441395
92.2966038
92.5289351
87.7055136
87.5765692
88.1902582
92.4039239
92.4032626
87.8773852
88.048648
92.3068489
92.4330591
88.0033383
88.1666953
92.2974781
92.4109753
87.8557855
87.8023928
88.3899755
92.3476464
92.3876826
87.9241675
88.0793684
92.2848785
92.4353108
87.9816769
88.1563109
92.2967172
92.408582
87.7986071
87.7957241
88.4344197
92.3229113
92.3737955
88.0004037
88.2112257
92.2760383
92.3774918
87.9377509
87.8683699
88.6558666
92.3143217
92.3986393
88.048313
88.246139
92.2957567
92.4849865
87.9373015
87.9522961
88.0416778
88.5154934
92.3394559
92.4496426
87.7091069
87.726379
88.3073709
92.3895763
92.3000411
92.5666198
87.6740466
87.5675375
88.5370024
92.4058569
92.4030193
92.4351002
92.596064
87.6614671
87.5595823
88.2793532
92.4509747
92.5645232
87.7595461
87.988829
92.3707477
92.617805
87.8580813
88.0966604
92.3746841
92.5584386
87.6991846
87.724467
88.4116908
92.3887884
92.4857768
87.9840662
88.2246947
92.3304663
92.486001
87.8485453
87.8657337
88.9694427
92.3038701
92.3645181
88.0805518
87.9530087
89.1233681
92.3238792
92.416575
87.8204802
87.8245482
88.0133891
87.8781958
88.9194453
92.3401795
92.4083039
92.3517374
92.6144163
87.8915956
88.8292145
92.5405831
88.1648909
88.1761135
92.2316218
92.5677621
87.988399
88.1761451
92.2953922
92.5217444
87.7196625
87.7437353
88.577368
92.328533
92.4793853
88.0410696
88.3930642
92.2630046
92.5016141
88.0027815
88.02613
88.1179626
88.7346376
92.2405817
92.4905953
88.041184
88.8902256
92.3777063
92.236881
92.5243943
87.9859047
87.8472859
88.0077064
87.9508496
87.9190809
88.4167523
92.3064377
92.5195014
87.9081792
88.5720744
92.2474731
92.3284139
92.2083357
92.4805016
88.2424548
87.9145742
87.9946186
87.9868979
87.7294207
89.3077834
92.6285822
88.055208
88.2305233
92.3711958
92.240694
92.6372888
88.0764434
88.1646228
92.2449563
92.578464
88.0943772
88.2969705
92.28259
92.5877559
87.8575747
87.8947445
87.9630852
88.4033802
92.2941903
92.5950199
87.8849261
88.1260339
92.2954547
92.6340203
87.9170225
88.1739256
92.3399858
92.5837935
87.6450021
87.6717832
88.5487738
92.2720217
92.1722351
92.3781293
92.165255
92.4985882
88.7805668
87.7847872
87.904656
87.958639
87.8976332
88.4675959
92.2798621
92.4773196
88.0607154
88.4913677
92.230529
92.3866032
88.0510484
88.0638409
88.1118692
88.7163001
92.2591854
92.4244423
87.8191272
87.834189
88.5859112
92.3834484
92.1766086
92.5837251
88.0455887
88.2203871
92.2256525
92.450893
87.9760414
87.83876
88.7659058
92.3643842
92.4383563
87.7971342
87.7987322
88.6282234
92.3566996
92.4173707
87.8368265
87.8384939
88.6232347
92.3672727
92.5268955
87.8140417
87.809237
87.9012068
88.3547388
92.3522074
92.2128892
92.5393785
88.0086509
88.2627259
92.2774831
92.1729812
92.4006632
88.2419684
87.9897023
88.1230948
88.1011023
88.0588271
88.5441581
92.2451675
92.4610758
88.0183375
88.1947083
92.2376701
92.5007719
88.0247572
88.2196034
92.268583
92.4527758
87.8423922
87.7675945
88.375336
92.353284
92.4731425
87.9009159
88.0899307
92.2879269
92.5275724
87.9632047
88.1512234
92.300257
92.4726419
87.8124323
87.7480887
88.3107584
92.3659487
92.4805284
87.9072691
88.0917623
92.294957
92.5343694
87.9682482
88.1436538
92.3025352
92.4832738
87.8130236
87.7323161
88.2464838
92.3819396
92.4830462
87.8801006
88.0512881
92.306185
92.5432728
87.9387819
88.0991355
)
;

boundaryField
{
    closed
    {
        type            calculated;
        value           uniform 120.302216;
    }
    open
    {
        type            calculated;
        value           nonuniform List<scalar> 0();
    }
    sides
    {
        type            empty;
    }
    procBoundary0to1
    {
        type            processor;
        value           uniform 92.2678715;
    }
}


// ************************************************************************* //
