/*--------------------------------*- C++ -*----------------------------------*\
| =========                 |                                                 |
| \\      /  F ield         | OpenFOAM: The Open Source CFD Toolbox           |
|  \\    /   O peration     | Version:  2306                                  |
|   \\  /    A nd           | Website:  www.openfoam.com                      |
|    \\/     M anipulation  |                                                 |
\*---------------------------------------------------------------------------*/
FoamFile
{
    version     2.0;
    format      ascii;
    arch        "LSB;label=32;scalar=64";
    class       volScalarField;
    location    "0.00078";
    object      Z;
}
// * * * * * * * * * * * * * * * * * * * * * * * * * * * * * * * * * * * * * //

dimensions      [0 0 0 0 0 0 0];

internalField   nonuniform List<scalar> 
530
(
0.0140571826
0.014660942
0.014720769
0.0146387468
0.0147202682
0.0147037155
0.0140794812
0.0140581455
0.0147191581
0.0147605157
0.0140995461
0.0140655587
0.0147433932
0.0147700225
0.0140984887
0.0140771318
0.014743985
0.0148622981
0.01451546
0.0140976329
0.0140599311
0.0140720564
0.0147108146
0.0148252893
0.0146619389
0.0147769151
0.0147093332
0.0140894169
0.014059901
0.014066058
0.0147170543
0.0148368242
0.0146493648
0.0140842314
0.0140651287
0.0147149783
0.0148173917
0.0147008156
0.0140888489
0.014061485
0.0140696521
0.0147187413
0.0148472386
0.0147261424
0.0140833089
0.0140636959
0.0147093386
0.014765653
0.0147100733
0.0147704364
0.0146785743
0.0140813876
0.0140581721
0.0140670037
0.0147066567
0.0148255835
0.0146082055
0.0140779804
0.0140601106
0.0146941191
0.0147769258
0.0146654567
0.0140733558
0.0140629502
0.0146899142
0.0147811671
0.0146754374
0.0140738029
0.0140612883
0.0146924148
0.0147797008
0.0146945937
0.0140710249
0.01406093
0.0146480384
0.0147332095
0.0146598181
0.0147387613
0.014703718
0.0140782534
0.0140601006
0.0147661594
0.0147616406
0.0140833889
0.0140632322
0.014075047
0.014716201
0.0148586318
0.0147165535
0.0140828983
0.0140720781
0.0146921035
0.0148266115
0.0147464736
0.0140906197
0.0140875403
0.0140844035
0.0140906829
0.0148210628
0.014900376
0.0148438313
0.014827555
0.0140855344
0.0140797174
0.0147600327
0.014774872
0.0140854673
0.0140752791
0.0147578958
0.0147692016
0.0140809557
0.0140779992
0.0147345377
0.0148581278
0.0147359237
0.014089334
0.0140642343
0.0140765055
0.0147171583
0.0148417137
0.0145301456
0.0140811066
0.0140708574
0.0147418485
0.014869403
0.0147913723
0.0140834189
0.0140765549
0.0147705057
0.014781467
0.014080479
0.014079351
0.0147436362
0.0148483251
0.0147726362
0.0140868605
0.0140751879
0.0147859351
0.01479922
0.0140870358
0.0140791849
0.0148258921
0.0148364158
0.0140862865
0.014079599
0.0148201132
0.014822648
0.0140811352
0.0140765383
0.0147972718
0.0147966475
0.0140734656
0.0140741509
0.0147670161
0.0147654394
0.0140643326
0.0140760712
0.0147052953
0.0148147517
0.0146934344
0.0140803521
0.0140585107
0.0140788836
0.0146744637
0.0148032551
0.0147470364
0.014815132
0.0147722311
0.0140747436
0.0140671776
0.0147675234
0.0147725041
0.0140676352
0.014070015
0.0147779735
0.0147746645
0.0140647785
0.0140731833
0.0147589501
0.0147544318
0.0140584784
0.0140792941
0.0146645787
0.0148349663
0.014730285
0.0140750265
0.0140732151
0.0140716718
0.0140805989
0.014733206
0.014852652
0.0147824547
0.0148396444
0.0147894085
0.0140679276
0.0140843443
0.0146677209
0.0148099939
0.0147066962
0.0140756062
0.0140701351
0.0147677044
0.0147737118
0.0140786013
0.0140835359
0.0148647041
0.0148094496
0.0141012832
0.0140791085
0.0141073507
0.0148163831
0.0148844785
0.0140762919
0.0140905881
0.0148279001
0.0147368295
0.0140783241
0.014651585
0.0147716804
0.0140534595
0.0140781019
0.0146493752
0.0147524838
0.0147396627
0.0145125379
0.0140592558
0.0140733234
0.0146344946
0.0148146457
0.0147508401
0.0140691431
0.0140723819
0.0147484867
0.0147547149
0.0140599805
0.0140791897
0.0147092525
0.0148187518
0.0147533722
0.0140659057
0.0140851524
0.0146649264
0.014841492
0.0147528599
0.0140785428
0.0140628399
0.0140923169
0.014674265
0.0149054506
0.0146827769
0.0140830596
0.0146997003
0.0147735138
0.0140604864
0.0140650405
0.0140721144
0.014611642
0.014756643
0.0146971511
0.0146890679
0.0147394173
0.0146435912
0.0140676232
0.0140578258
0.014079667
0.0146384096
0.0148254275
0.0147823825
0.0140656236
0.0140849514
0.0146219908
0.0148410708
0.0147637653
0.0140804355
0.0140686691
0.0140961048
0.0147292787
0.01492168
0.0148585706
0.0140819809
0.0140837594
0.0147742076
0.0147760878
0.0140649075
0.0140853976
0.0146865468
0.0148218009
0.0147711385
0.0140725431
0.0140756304
0.0147313481
0.0147434922
0.0140578214
0.0140749622
0.0145995133
0.0147887232
0.0147371926
0.0140621937
0.0140714304
0.0145482631
0.0147318255
0.0147040456
0.0147717102
0.0147348397
0.0140674819
0.0140676311
0.0147402134
0.0147458733
0.0140660605
0.0140747559
0.0147593173
0.0147554141
0.0140623493
0.0140833154
0.0146835953
0.0148615749
0.0147823572
0.0140831835
0.0140726347
0.0140861757
0.0147106985
0.0147688921
0.0140613862
0.0140778623
0.01467345
0.0147614783
0.0147962997
0.0147751421
0.0140669386
0.0140825666
0.0146746924
0.0148346804
0.0145136126
0.0140796521
0.0146852613
0.014785689
0.0140658157
0.0140793053
0.0147671086
0.0147120029
0.0140811369
0.0146284509
0.0148051324
0.0140584732
0.0140878062
0.014630978
0.0148072172
0.0147639662
0.0140710565
0.0140863752
0.0146114495
0.0148631928
0.0147993361
0.0140866597
0.0140774474
0.0140903231
0.0147635039
0.0148332379
0.0140857292
0.014081731
0.014792971
0.0148006824
0.0140739298
0.0140887913
0.014686419
0.0148631959
0.0148128233
0.0140809674
0.0140777148
0.0147349375
0.0147580062
0.0140683524
0.0140794435
0.014636085
0.0148111849
0.01477661
0.0140707906
0.0140819792
0.0145981268
0.0148043962
0.0147696024
0.0140706071
0.014079522
0.0146045994
0.0148086496
0.0147755715
0.0140708706
0.01407765
0.0145564602
0.0148139456
0.0147319638
0.0140775742
0.0145978018
0.0147809597
0.0140617381
0.0140780386
0.0146094926
0.0148045558
0.0147765081
0.0140754848
0.014075567
0.0144580209
0.0147831532
0.0147662047
0.0140695325
0.0140754835
0.0145855856
0.014799707
0.0147790254
0.0140719758
0.0140754659
0.0145794003
0.0147970323
0.0147786801
0.0140732328
0.014076405
0.014579972
0.0148003293
0.0147842745
0.0140744557
0.0140791169
0.014616813
0.0148289013
0.0148040821
0.0140844701
0.0140714697
0.0147171346
0.0147664687
0.0140773888
0.0140778695
0.0146509085
0.0148366975
0.0148144612
0.0140887195
0.0140732739
0.0147140014
0.0147667543
0.0140818307
0.0140784804
0.0146460091
0.014836285
0.0148147228
0.0140921351
0.0140736569
0.014710307
0.0147662969
0.0140862525
0.0140786782
0.0146376658
0.0148354518
0.0148151928
0.0140955685
0.0140739621
0.0147081426
0.0147682677
0.0140912481
0.0140792624
0.014638105
0.0148392116
0.014820972
0.0140997141
0.0140753797
0.0147093053
0.014772885
0.0140969763
0.0140817446
0.0146416804
0.0148540551
0.0148354404
0.0141083323
0.0140773378
0.0147372602
0.0148020053
0.0141152858
0.0140741661
0.0147558392
0.0147992106
0.0141161983
0.0140745706
0.0147275723
0.014773307
0.0141067518
0.0140834098
0.0146048442
0.0148342139
0.0148155286
0.014115305
0.014076353
0.0147552415
0.0148116278
0.0141272584
0.0140733369
0.0147430302
0.0147658025
0.0141172399
0.0140701073
0.0145380165
0.0147048525
0.014775206
0.0147730477
0.0140989185
0.0145943389
0.0147949328
0.0141215008
0.0140749776
0.0147334001
0.0147999595
0.0141449284
0.0140761096
0.0147478852
0.014797649
0.0142123677
0.0140718895
0.0140872828
0.0145835121
0.0148968367
0.014812856
0.0141141637
0.0146287203
0.0147842066
0.0141286456
0.0140724455
0.0140901348
0.0145970858
0.0148469348
0.01483515
0.01411923
0.0140820583
0.0145824871
0.0148073135
)
;

boundaryField
{
    closed
    {
        type            zeroGradient;
    }
    open
    {
        type            zeroGradient;
    }
    sides
    {
        type            empty;
    }
    procBoundary2to1
    {
        type            processor;
        value           uniform 0.0140888461;
    }
    procBoundary2to3
    {
        type            processor;
        value           uniform 0.0147978832;
    }
}


// ************************************************************************* //
