/*--------------------------------*- C++ -*----------------------------------*\
| =========                 |                                                 |
| \\      /  F ield         | OpenFOAM: The Open Source CFD Toolbox           |
|  \\    /   O peration     | Version:  2306                                  |
|   \\  /    A nd           | Website:  www.openfoam.com                      |
|    \\/     M anipulation  |                                                 |
\*---------------------------------------------------------------------------*/
FoamFile
{
    version     2.0;
    format      ascii;
    arch        "LSB;label=32;scalar=64";
    class       volScalarField;
    location    "0.00038";
    object      prefDh_H2O;
}
// * * * * * * * * * * * * * * * * * * * * * * * * * * * * * * * * * * * * * //

dimensions      [1 1 -3 0 0 0 0];

internalField   nonuniform List<scalar> 
530
(
90.4843002
87.9661767
89.4243855
92.5542016
90.496611
88.0106145
89.3865084
92.5130996
92.3198273
88.0923402
87.7670469
89.2071102
92.5816253
90.756112
88.0331925
89.5107895
92.4785665
90.6075221
88.0827521
89.3433021
92.3925708
92.8801913
88.6039206
88.2821835
88.1509406
88.0659134
89.5117548
92.4679409
91.0568936
88.1338165
89.3456774
92.3982032
92.9239519
88.1309293
87.8186847
89.3992854
92.5294504
91.0512378
88.0349499
89.3625002
92.487592
90.6845214
87.9763671
89.0144924
92.4067044
92.555847
88.2178719
87.8549213
88.9709608
92.483617
92.7067283
88.1541705
87.8256611
88.9692625
92.4860435
92.6739481
88.1852399
87.8828282
89.3691612
92.5403948
91.2792742
88.0385367
88.8360597
92.3975681
92.5448154
88.3295285
87.8363433
88.8908998
92.5927413
91.5640295
87.995201
88.8175778
92.5447512
91.4042354
88.0003142
88.705571
92.460579
92.8924405
88.0741984
87.7737374
89.1229141
92.5531154
91.7450683
88.0634111
88.9009546
92.499525
91.4452401
87.9943459
88.6853487
92.4158408
92.6612723
88.1195675
87.767187
88.9258963
92.5460345
91.9333792
88.0433615
88.812943
92.4614982
91.6377463
88.0345775
88.6834444
92.3032665
92.3926788
88.7780656
88.1959385
88.1342358
88.015415
89.1169514
92.4042733
92.5326163
88.1687867
88.8108386
92.3176721
92.6734831
88.1128622
87.748445
88.9039588
92.4770987
92.4012341
88.0995784
88.6862826
92.3470391
92.7404606
88.0817899
87.6995972
88.7883086
92.4959839
92.2981145
88.0345889
88.6695747
92.4218361
91.9969987
87.939908
88.504263
92.4440826
92.0219935
87.9114377
88.4424627
92.446067
92.0774229
87.9738553
88.4666879
92.4088096
92.9296725
88.0751196
87.7057211
88.7968416
92.5153885
92.1118905
88.0361994
88.6427082
92.4762878
91.9144395
87.9392757
88.4710355
92.5221946
91.8996111
87.897288
88.3941266
92.541996
91.9369901
87.9292509
88.4430959
92.524605
92.1160007
88.0364927
88.562876
92.4897656
92.9415588
88.0990841
87.7881022
88.9928132
92.5230589
92.8317097
88.1292795
87.7955624
89.2962091
92.5190392
91.6245287
88.1325551
88.9908871
92.4795
92.6978413
88.0340338
87.7650574
89.3552854
92.5400717
91.200628
88.1090417
89.2146143
92.5129183
92.1166783
87.9843476
87.75515
89.6919532
92.5456081
90.6565054
88.0340871
89.4181898
92.5329688
90.6863128
87.9649251
89.2883669
92.5587874
90.6089114
87.9962589
89.3755288
92.5856122
91.4703619
87.8655781
87.7553364
90.8586206
92.4652639
89.8249514
88.1039127
90.3024823
92.5173265
90.9658007
87.8092771
87.7304541
92.8394383
92.3455018
89.3183689
88.1549877
90.461079
92.363311
92.0451907
88.2396824
88.1386057
88.0048367
87.9989771
92.8640765
92.3029738
88.952327
88.0925777
91.9344769
92.4222039
90.1464252
87.8082716
87.7634818
92.986585
92.3710323
88.4014371
87.9655224
93.018643
92.3786366
88.2960703
87.9164247
93.0612129
92.4061565
89.0836546
87.8986013
88.6326308
92.6509859
92.6944482
87.9929434
88.7513129
93.0173141
88.7306451
87.9928779
93.1077271
92.407621
89.316739
87.9549776
88.2529108
92.7456916
92.5245057
88.0883881
87.7602296
92.5461934
92.4517298
89.9111126
87.9887656
88.1213541
92.7342987
92.4069961
88.3720795
87.80689
90.2801392
92.565096
91.1499981
87.9874398
87.9619999
92.8760147
92.4145709
88.2796372
87.9026909
92.5784281
92.4490029
88.2708017
87.8856143
92.4494148
92.4521437
88.2895164
87.8805233
92.4152991
92.4437288
88.3234835
87.9218508
92.4572229
92.4215127
88.3769406
87.9534334
92.6158996
92.3684818
89.6785522
88.1331493
87.9483687
87.963633
92.8106487
92.338279
88.8919116
87.9879787
89.7694593
92.5659728
92.8660372
88.0117321
87.8327986
92.300377
92.4359818
88.4667971
87.9361687
92.2920867
92.4323494
88.4506838
87.9154336
92.1231106
92.4620411
88.3938668
87.8380664
91.9382771
92.4766499
88.447236
87.8921621
92.2455137
92.4660839
88.8624998
87.8930088
88.9569117
92.664856
92.6003952
88.1573707
87.8828232
92.1665625
92.4886001
89.6157997
87.8435684
87.8375627
92.9177463
92.3662667
88.7051286
88.019996
92.6491448
92.4370298
89.5411803
87.8316485
87.8344473
92.9001605
92.3726106
88.6523695
88.0144838
92.6821462
92.4292942
89.7279901
87.8559413
87.8420451
92.860251
92.3934398
89.844005
87.8707952
87.9106302
92.8169816
92.3841159
89.6905677
87.8644577
87.9730761
92.8214706
92.3858951
88.5068083
88.0060696
92.7968375
92.4430326
89.5812532
87.8288817
87.9791696
92.8063535
92.4147452
88.5314498
87.9774341
91.7029017
92.4833855
90.1524839
87.8664964
87.9800772
92.7704738
92.3805976
89.4348123
87.8501802
88.1821587
92.6956469
92.3615044
89.4487423
87.846414
87.8530937
92.8396945
92.4154436
89.7189967
87.8664256
88.1594109
92.7001213
92.4345157
88.6313682
87.9988695
90.35447
92.5536537
90.6517512
87.8422873
88.0629077
92.7412657
92.5014569
88.2848198
87.9876406
92.1130479
92.4847036
89.3429224
87.9925232
89.1046784
92.5807277
92.826614
88.0676032
87.8336602
89.9427842
92.568613
91.5511487
87.9370146
88.0192094
92.7389382
92.4944825
88.7075005
87.9745395
89.7935884
92.6025226
91.1073119
87.8933812
88.0724243
92.7408308
92.5265715
88.3287142
87.9733938
91.440652
92.5365542
89.1222826
88.0301401
90.2788049
92.5752985
90.4773121
87.8390532
88.0634834
92.7692026
92.5903099
88.2531921
88.0888838
92.9980821
92.4965946
89.0984164
87.8027938
88.1699538
92.7560499
92.8252343
88.2026913
88.3011395
92.6331377
92.5094417
88.6377149
87.7908301
88.1789119
92.7843794
92.9448327
88.2372208
88.3785226
92.6550863
92.5904592
88.5365098
87.796688
88.1902002
92.8426975
93.0481353
88.1837491
88.3145164
92.7732044
92.7999471
88.1311582
88.2596032
92.8188392
92.6041082
88.1529475
88.304272
92.7992329
92.752082
88.3535275
87.8141142
88.2244918
92.89673
92.6432841
88.3081493
88.6796638
92.7307809
92.7025665
88.5253623
87.9047124
88.3827696
92.8723923
92.6961254
88.679232
87.8981374
88.465566
92.8710794
92.2027472
88.2976408
88.8900438
92.7443557
92.9815052
88.3157889
87.8243862
88.3840987
92.9403683
91.9210807
88.1901072
88.7930485
)
;

boundaryField
{
    closed
    {
        type            calculated;
        value           nonuniform List<scalar> 0();
    }
    open
    {
        type            calculated;
        value           nonuniform List<scalar> 0();
    }
    sides
    {
        type            empty;
    }
    procBoundary2to1
    {
        type            processor;
        value           uniform 92.5522207;
    }
    procBoundary2to3
    {
        type            processor;
        value           uniform 92.8276916;
    }
}


// ************************************************************************* //
