/*--------------------------------*- C++ -*----------------------------------*\
| =========                 |                                                 |
| \\      /  F ield         | OpenFOAM: The Open Source CFD Toolbox           |
|  \\    /   O peration     | Version:  2306                                  |
|   \\  /    A nd           | Website:  www.openfoam.com                      |
|    \\/     M anipulation  |                                                 |
\*---------------------------------------------------------------------------*/
FoamFile
{
    version     2.0;
    format      ascii;
    arch        "LSB;label=32;scalar=64";
    class       volScalarField;
    location    "0.00038";
    object      T;
}
// * * * * * * * * * * * * * * * * * * * * * * * * * * * * * * * * * * * * * //

dimensions      [0 0 0 1 0 0 0];

internalField   nonuniform List<scalar> 
530
(
330.758563
324.914495
328.879545
339.686398
330.785992
325.398782
329.064269
339.722797
335.567063
326.996261
321.618864
328.89272
339.468557
331.371503
325.760631
329.105317
339.900927
331.031487
326.58313
329.145128
339.991184
338.736373
329.269788
328.567128
327.673937
326.028174
329.319107
339.70834
332.086225
327.183057
329.316418
340.101748
338.583518
327.598633
322.167838
329.105991
339.557047
332.050258
325.848784
328.991069
339.940812
331.160782
325.149808
328.850479
340.245323
339.789502
328.697616
322.903572
329.088855
339.813103
339.281773
327.619375
322.265138
329.10709
339.74095
339.397723
328.031944
323.138433
329.190208
339.467543
332.627594
325.825563
328.957157
340.318337
339.691489
329.024136
322.621184
328.885405
339.464259
333.397114
324.991159
328.960394
339.681316
332.958204
325.18502
329.313699
340.024366
338.771686
326.507318
321.388956
329.13173
339.396004
333.907633
326.044695
329.063541
339.838562
333.068958
325.277293
329.142449
340.230324
339.462141
327.229673
321.570983
329.015863
339.545769
334.465766
325.873336
329.081666
340.007701
333.606874
326.023863
328.906628
340.516193
340.176221
329.077209
327.974997
327.556914
325.47841
329.259027
339.889571
336.306738
327.797662
329.561078
340.437441
339.478459
327.384905
321.342463
329.01868
339.658284
335.900485
326.743189
329.621793
340.32436
339.293016
326.945418
320.522135
329.033142
339.587734
335.577583
325.757901
329.291552
339.978375
334.652241
324.592305
329.211548
339.997745
334.73227
324.158793
329.272343
339.930316
334.885354
324.980663
329.810777
340.038334
338.506598
326.807572
320.457661
329.145181
339.370345
334.975832
325.697514
329.310877
339.660532
334.394296
324.506757
329.199316
339.6313
334.357727
323.957676
329.173499
339.586168
334.468781
324.457024
329.205345
339.567771
334.994368
325.987058
329.59809
339.629071
338.44918
327.24663
321.89605
329.251527
339.326777
338.882634
327.718774
322.054642
329.060443
339.287448
333.557863
327.402451
329.243429
339.638036
336.782359
326.603626
321.907538
329.013613
339.291376
332.442382
327.043032
329.175286
339.474298
334.956552
325.779171
321.932804
329.35394
339.330571
331.178366
326.0366
329.051237
339.482575
331.211981
325.170017
328.858654
339.419482
331.04628
325.459322
329.060811
339.210057
333.139837
323.687151
322.207039
331.555291
339.602144
329.862936
326.870953
330.397905
339.279015
331.897067
322.399325
321.93492
337.417569
340.120694
329.618448
327.826019
330.74375
339.780516
334.739791
329.048878
327.10009
325.452932
325.439739
338.422893
340.089211
329.383692
326.860645
334.490249
339.713592
330.362136
322.699092
322.388769
338.181211
340.116763
329.667804
325.148803
337.93922
340.068065
329.149888
324.376162
338.154115
339.869934
329.266186
323.862183
329.121043
338.859591
336.811591
324.971293
329.192482
337.929431
328.872733
324.754246
338.288073
339.606789
329.435723
324.432645
328.707044
338.545564
339.978503
326.691763
321.885248
336.453151
339.4886
330.137968
324.988149
326.844445
338.861897
340.219474
328.779667
322.644604
330.286317
339.087094
332.342887
324.945083
324.608561
338.379117
340.130739
329.252149
324.064814
336.458058
339.828726
328.900173
323.772758
336.047877
339.785113
329.161001
323.738558
335.946323
339.835694
329.629646
324.35048
336.078457
339.883957
329.702961
324.837002
336.612065
339.88172
329.939315
327.356271
324.388269
324.71803
338.734281
340.06632
329.113145
325.236451
329.557791
339.076078
338.597589
325.436025
322.799578
335.590413
339.823136
329.647553
324.598236
335.568508
339.817909
329.67806
324.23113
335.044322
339.725872
329.55822
323.151154
334.491853
339.691414
329.533574
323.875543
335.455678
339.692337
329.087585
323.619311
329.01835
338.79286
339.592804
327.601084
323.362787
335.205546
339.393614
329.733597
322.740126
323.017019
338.464998
340.080824
329.604779
325.767675
336.787612
339.657344
329.685392
322.632347
323.008476
338.5615
340.124928
329.624858
325.672674
336.906311
339.653645
329.925031
323.086319
322.932935
338.967092
339.754596
329.974351
323.442656
324.017946
339.087736
339.853984
329.735307
323.215883
325.01381
338.717958
340.196885
329.725171
325.44483
337.30434
339.664422
329.688366
322.633799
325.082654
338.86132
340.181487
329.401585
324.939935
333.801956
339.442434
330.351046
323.219938
325.066856
339.266016
340.018939
329.385895
323.143999
328.149818
339.260842
340.045192
329.535643
322.797092
323.137006
339.164832
339.760802
329.736531
323.294097
327.781788
339.192637
340.190122
329.136938
325.023286
330.480754
339.320684
331.170908
322.910077
326.4018
339.140128
340.151629
329.228053
324.895876
335.022764
339.666165
329.328821
324.953758
329.116907
339.315705
337.187819
326.635312
322.586656
329.736327
339.290052
333.356136
324.268294
325.437543
339.288248
339.903848
329.114461
324.505796
329.602217
339.174661
332.210179
323.533098
326.37832
339.195328
340.007478
329.432735
324.565759
333.05681
339.548871
329.140881
325.385418
330.330296
339.359026
330.7986
322.705657
326.295951
338.996452
339.864607
328.380606
326.10351
338.718457
339.60907
329.270109
322.04976
327.649553
339.005837
339.137075
327.862209
329.117662
339.566414
339.77733
328.883565
321.777649
327.846511
338.884566
338.616475
328.298502
329.907748
339.370628
339.524035
328.960098
321.709363
327.956149
338.700466
338.138802
327.5269
329.445515
338.972291
337.156384
326.941334
328.89482
338.88603
336.524429
327.22724
329.443908
338.958749
339.088094
328.943853
322.010236
328.678287
338.454977
336.614485
329.367213
329.401447
338.971582
339.08439
328.886251
323.291152
329.093862
338.505256
339.210141
328.849191
323.318498
328.784315
338.458012
335.231216
329.32203
329.064984
338.925263
337.974238
328.815506
322.362996
328.706402
338.355176
334.399314
327.938191
328.722577
)
;

boundaryField
{
    closed
    {
        type            fixedValue;
        value           nonuniform List<scalar> 0();
    }
    open
    {
        type            zeroGradient;
    }
    sides
    {
        type            empty;
    }
    procBoundary2to1
    {
        type            processor;
        value           uniform 339.730327;
    }
    procBoundary2to3
    {
        type            processor;
        value           uniform 338.73488;
    }
}


// ************************************************************************* //
