/*--------------------------------*- C++ -*----------------------------------*\
| =========                 |                                                 |
| \\      /  F ield         | OpenFOAM: The Open Source CFD Toolbox           |
|  \\    /   O peration     | Version:  2306                                  |
|   \\  /    A nd           | Website:  www.openfoam.com                      |
|    \\/     M anipulation  |                                                 |
\*---------------------------------------------------------------------------*/
FoamFile
{
    version     2.0;
    format      ascii;
    arch        "LSB;label=32;scalar=64";
    class       volScalarField;
    location    "0.00162";
    object      prefDZ_H;
}
// * * * * * * * * * * * * * * * * * * * * * * * * * * * * * * * * * * * * * //

dimensions      [1 -1 -1 0 0 0 0];

internalField   nonuniform List<scalar> 
530
(
0.000115228006
0.00010895268
0.00010787067
0.000107842726
0.000107840225
0.000107840104
0.000107840096
0.000107840095
0.000107840095
0.000107840095
0.000107840095
0.000107840095
0.000107840095
0.000107840095
0.000107840095
0.000107840095
0.000107840095
0.000107840095
0.000107840095
0.000107840095
0.000107840095
0.000107840095
0.000107840095
0.000107840095
0.000107840095
0.000107840095
0.000107840095
0.000107840095
0.000107840095
0.000107840095
0.000107840095
0.000107840095
0.000107840095
0.000107840095
0.000107840095
0.000107840095
0.000107840095
0.000107840095
0.000107840095
0.000107840095
0.000107840095
0.000107840095
0.000107840095
0.000107840095
0.000107840095
0.000107840095
0.000107840095
0.000107840095
0.000107840095
0.000107840095
0.000107840095
0.000107840095
0.000107840095
0.000107840095
0.000107840095
0.000107840095
0.000107840095
0.000107840095
0.000107840095
0.000107840095
0.000107840095
0.000107840096
0.000107840096
0.000107840099
0.0001078401
0.000107840118
0.000107840123
0.000107840188
0.000107840241
0.000107840407
0.000107840602
0.000107841057
0.000107841973
0.000107842614
0.000107840836
0.000107841788
0.000107858445
0.000107880333
0.000107822792
0.000107766961
0.000107852748
0.000108376374
0.000108007145
0.000107752222
0.000107793603
0.000108008997
0.000107871404
0.000107710711
0.000106865806
0.000107682426
0.000110274532
0.000110543978
0.000110408819
0.000107643818
0.000105440298
0.000106765592
0.000110382587
0.000110472712
0.000110462223
0.000107446104
0.000106594311
0.000106577183
0.00010664807
0.000110418062
0.000110386651
0.000110461531
0.00011039879
0.000107754331
0.000106978615
0.000106927632
0.000106930952
0.000110422029
0.000110344617
0.000107713638
0.000106638656
0.000107071594
0.000110313673
0.000110394734
0.000110338082
0.000110390605
0.0001071872
0.000106226487
0.000106199102
0.000106214105
0.000105641346
0.000106045343
0.000110280183
0.000110283535
0.000110301357
0.000107342215
0.000106417864
0.000110279655
0.000110293762
0.0001103073
0.000110319427
0.000107617187
0.00010657006
0.000106462518
0.000106459819
0.000110283603
0.000110313151
0.000106789994
0.000106293906
0.000110330908
0.000110305579
0.000107326606
0.000105895571
0.000106434512
0.000110303279
0.000110356178
0.000110344233
0.000110371696
0.000107799277
0.000106933473
0.000107054774
0.000106817342
0.000110364671
0.000110337782
0.000107781125
0.000106199592
0.00010734258
0.00011033337
0.000107788019
0.00010636176
0.0001103507
0.000110325917
0.000107091947
0.000106689798
0.00011032342
0.000110318692
0.0001066376
0.000106704371
0.000110304049
0.000110312695
0.000110329486
0.00010708423
0.000106488734
0.000110312595
0.000110347096
0.000110330769
0.000107507668
0.000106282169
0.000106366199
0.000106626706
0.000110373602
0.000107823676
0.000106498778
0.000110363469
0.000110347649
0.000107768534
0.000106878166
0.000106884979
0.00011036666
0.000110370653
0.000107749438
0.000106537595
0.000107231159
0.000110354126
0.000107638183
0.00010664856
0.000110375873
0.000110318714
0.000110392327
0.000107212829
0.000106891074
0.000110334065
0.000110371558
0.000110345429
0.000107802527
0.000106446081
0.000107124005
0.000106790392
0.000106692704
0.000106726816
0.000110347527
0.000110299321
0.000107435837
0.00010687797
0.000110419429
0.000110283313
0.000107707224
0.000106353337
0.000107009868
0.000110291654
0.000110461025
0.000110323918
0.000107708695
0.000105978891
0.000106826289
0.000110302158
0.000110471693
0.000110332569
0.000107691065
0.000105987418
0.00010714663
0.00011033145
0.000107697062
0.000106348338
0.000110452594
0.000110356485
0.000107709933
0.00010682401
0.000106832853
0.000110363534
0.000110397094
0.000107775435
0.000106640463
0.000107273914
0.000110395933
0.000107757755
0.000106681954
0.000110425852
0.000110393094
0.000107713792
0.000106941905
0.000106944131
0.00011039326
0.000110408241
0.000107732775
0.000106736857
0.000106742429
0.000110380834
0.000110399292
0.000107589076
0.000106873518
0.000110401042
0.000110342032
0.000107742389
0.000106623151
0.000107252786
0.000110351983
0.000107737537
0.000106937869
0.000110324628
0.000110330679
0.000110325954
0.000107805268
0.000106395757
0.000106688583
0.000106260833
0.000110288722
0.000110262352
0.000107408942
0.000105606673
0.000106231649
0.000110236638
0.000110284585
0.000110285055
0.000107134531
0.000105547934
0.000105632372
0.000110246492
0.000110291944
0.000110285374
0.00011030507
0.000107504192
0.000106065195
0.00010611861
0.000110261368
0.000110321203
0.000107005026
0.000106383294
0.000110292253
0.00011030619
0.000106956928
0.000106327356
0.00011032076
0.000110294195
0.000107394105
0.000106109089
0.000106131168
0.000110276679
0.000110343969
0.000107448873
0.000106668727
0.000110331157
0.000110316884
0.000107806385
0.000106705333
0.000106715107
0.00011029821
0.000110353327
0.000107793326
0.000106851358
0.000106858412
0.000110332162
0.000110334053
0.000107761577
0.000106777253
0.000107151961
0.000106200059
0.000106335008
0.000110323981
0.000110378939
0.000110361381
0.000107755326
0.00010676883
0.000110386282
0.000110377272
0.000107417025
0.000106922753
0.000110413289
0.000110376669
0.000107344344
0.000106768874
0.000110432902
0.000110358404
0.000107722049
0.000106443658
0.000106461658
0.000110314719
0.000110440684
0.000107677071
0.000107038004
0.000110342393
0.000110385636
0.000107793137
0.000107185985
0.000106867952
0.000106865725
0.000110280311
0.000110327699
0.000107172797
0.00010716692
0.000110264901
0.000110204855
0.00011028833
0.000108434404
0.000106992702
0.000106628921
0.000106619516
0.000105862198
0.000105884267
0.000110226619
0.00011034051
0.000106389177
0.000106358405
0.000110281456
0.00011037077
0.000110345192
0.000110397388
0.000110379485
0.000107756211
0.000107253116
0.00010749926
0.000107253203
0.000107079186
0.000107067215
0.000106479968
0.00010653258
0.00011033731
0.000110342599
0.000110368556
0.000107778879
0.000106860376
0.000110345497
0.000110373844
0.000107682085
0.000107094153
0.000110351943
0.000110357836
0.00010779518
0.000107005141
0.00010655235
0.000106547183
0.000110279528
0.000110336357
0.000106933468
0.000106530897
0.000110279557
0.000110306011
0.000107006864
0.000106191296
0.000110274705
0.000110269205
0.000107333344
0.000105200052
0.000105489872
0.000110237003
0.00011030761
0.000110301524
0.000110327139
0.000110342752
0.000110343982
0.000107780508
0.000106569416
0.000106914018
0.000105942558
0.00010595697
0.000110237578
0.000110340679
0.000107398303
0.000106842631
0.000110287941
0.000110309189
0.000107798065
0.000107188075
0.000106910972
0.00010676337
0.000110293024
0.000110304954
0.000107792954
0.000106152403
0.000106501003
0.000110296456
0.000110364212
0.000110367063
0.000107805732
0.000106862057
0.000110344409
0.000110319386
0.00010774161
0.000106559923
0.00010657395
0.000110283274
0.000110381063
0.000107784793
0.000106441802
0.000106444195
0.000110319116
0.00011034236
0.000107765845
0.000106375
0.000106382671
0.000110281217
0.000110346252
0.000107828303
0.000106731619
0.000106203364
0.00010621321
0.000110218162
0.00011027931
0.00011026311
0.000107375722
0.000106319459
0.000110218577
0.000110244392
0.000110276931
0.000110257338
0.000107867001
0.000106274822
0.000106744682
0.000105619731
0.000105641805
0.00011015617
0.000110223939
0.000107102175
0.000110189192
0.000110318446
0.000107892753
0.000106661059
0.000106655496
0.000110271776
0.000110273977
0.000107770912
0.000106386713
0.000106403988
0.000110246893
0.000110379242
0.000107522638
0.000106768402
0.000110295095
0.000110351255
0.000107493302
0.000106671414
0.000110316177
0.000110308908
0.000107757489
0.000106123438
0.000106832805
0.000110286269
0.000107780928
0.000106182679
0.000110268889
0.000110335748
0.000106832105
0.000106769733
0.000110259131
0.000110354757
0.000110324356
0.000107802699
0.000105569326
0.000105730916
0.00011021559
0.000110340293
0.000107237405
0.000107218726
0.000110204108
0.000107815196
0.000106065337
)
;

boundaryField
{
    closed
    {
        type            calculated;
        value           uniform 0.000144149035;
    }
    open
    {
        type            calculated;
        value           nonuniform List<scalar> 0();
    }
    sides
    {
        type            empty;
    }
    procBoundary0to1
    {
        type            processor;
        value           uniform 0.000110220448;
    }
}


// ************************************************************************* //
