/*--------------------------------*- C++ -*----------------------------------*\
| =========                 |                                                 |
| \\      /  F ield         | OpenFOAM: The Open Source CFD Toolbox           |
|  \\    /   O peration     | Version:  2306                                  |
|   \\  /    A nd           | Website:  www.openfoam.com                      |
|    \\/     M anipulation  |                                                 |
\*---------------------------------------------------------------------------*/
FoamFile
{
    version     2.0;
    format      ascii;
    arch        "LSB;label=32;scalar=64";
    class       volScalarField;
    location    "0.00102";
    object      alpha;
}
// * * * * * * * * * * * * * * * * * * * * * * * * * * * * * * * * * * * * * //

dimensions      [1 -1 -1 0 0 0 0];

internalField   nonuniform List<scalar> 
530
(
3.67562091e-05
3.56918764e-05
3.532668e-05
3.57985894e-05
3.6843179e-05
3.67437494e-05
3.54869729e-05
3.52411494e-05
3.57812512e-05
3.68394231e-05
3.6755865e-05
3.56688248e-05
3.54271287e-05
3.59074333e-05
3.68227988e-05
3.66646869e-05
3.516739e-05
3.50814621e-05
3.56873303e-05
3.63759693e-05
3.68208501e-05
3.67957748e-05
3.67824574e-05
3.59053234e-05
3.525549e-05
3.54113451e-05
3.59531688e-05
3.68097045e-05
3.64089158e-05
3.51639222e-05
3.51518594e-05
3.55844821e-05
3.60791816e-05
3.68195724e-05
3.60260746e-05
3.53302143e-05
3.55248741e-05
3.62510891e-05
3.67973191e-05
3.58909401e-05
3.53081957e-05
3.56006408e-05
3.63268627e-05
3.67959614e-05
3.68156159e-05
3.6760846e-05
3.57792683e-05
3.52325251e-05
3.52854993e-05
3.56668453e-05
3.62057798e-05
3.68012974e-05
3.58320707e-05
3.52652436e-05
3.53343674e-05
3.5568467e-05
3.58271918e-05
3.68364265e-05
3.67711719e-05
3.56846491e-05
3.53720095e-05
3.5810829e-05
3.68177535e-05
3.68005732e-05
3.57146845e-05
3.56218479e-05
3.65347283e-05
3.67488628e-05
3.56386749e-05
3.52306753e-05
3.57455619e-05
3.67926772e-05
3.68305828e-05
3.5711592e-05
3.57242936e-05
3.62381007e-05
3.63109692e-05
3.57382127e-05
3.57558911e-05
3.67631899e-05
3.60824225e-05
3.53193748e-05
3.52836093e-05
3.61109739e-05
3.67757668e-05
3.59414957e-05
3.5618333e-05
3.57382412e-05
3.67114127e-05
3.64592279e-05
3.55556047e-05
3.52944258e-05
3.57748325e-05
3.67104962e-05
3.62608192e-05
3.57259076e-05
3.572558e-05
3.65402409e-05
3.66567195e-05
3.57305012e-05
3.57644099e-05
3.6145036e-05
3.67494902e-05
3.5793207e-05
3.54101986e-05
3.56010987e-05
3.63763155e-05
3.67376951e-05
3.5766121e-05
3.5418551e-05
3.55887469e-05
3.63517345e-05
3.67576654e-05
3.58256176e-05
3.5447619e-05
3.55201423e-05
3.63257653e-05
3.6758888e-05
3.58593116e-05
3.57425921e-05
3.58447175e-05
3.67457542e-05
3.61892328e-05
3.55734894e-05
3.53540448e-05
3.59276302e-05
3.67807429e-05
3.61534766e-05
3.55537639e-05
3.53520948e-05
3.59500563e-05
3.67899905e-05
3.62007678e-05
3.55611431e-05
3.5336452e-05
3.59318722e-05
3.67988886e-05
3.62027793e-05
3.55256692e-05
3.53390009e-05
3.60066188e-05
3.68070302e-05
3.60709023e-05
3.57309884e-05
3.57752544e-05
3.67784828e-05
3.63021411e-05
3.55037685e-05
3.53121081e-05
3.59201509e-05
3.67963029e-05
3.61981242e-05
3.54528837e-05
3.53968549e-05
3.60623166e-05
3.67942326e-05
3.59758536e-05
3.56824144e-05
3.58031475e-05
3.67876759e-05
3.6309837e-05
3.54352298e-05
3.53409052e-05
3.59306035e-05
3.67947016e-05
3.60944319e-05
3.55029086e-05
3.55591602e-05
3.62810671e-05
3.67725638e-05
3.5790666e-05
3.5547987e-05
3.58160898e-05
3.6805051e-05
3.65616982e-05
3.55263313e-05
3.53724621e-05
3.58573044e-05
3.68095556e-05
3.65744482e-05
3.55650737e-05
3.55056064e-05
3.59892057e-05
3.68096752e-05
3.64180385e-05
3.5556615e-05
3.54141767e-05
3.54291868e-05
3.53716521e-05
3.58002811e-05
3.68026341e-05
3.65883097e-05
3.57823576e-05
3.57660698e-05
3.6811398e-05
3.67583391e-05
3.57512753e-05
3.56133661e-05
3.61398632e-05
3.67819938e-05
3.57639543e-05
3.51698029e-05
3.56894472e-05
3.67884073e-05
3.62083867e-05
3.55131446e-05
3.57353147e-05
3.68054808e-05
3.61394209e-05
3.5591897e-05
3.57670779e-05
3.68289484e-05
3.6339102e-05
3.53497666e-05
3.50974524e-05
3.57880223e-05
3.68099282e-05
3.61119577e-05
3.55281554e-05
3.57752608e-05
3.68247747e-05
3.60716223e-05
3.55632535e-05
3.57802577e-05
3.68330505e-05
3.6255378e-05
3.53454365e-05
3.51425571e-05
3.58100257e-05
3.6818514e-05
3.61014609e-05
3.55300105e-05
3.57891529e-05
3.68355469e-05
3.60401546e-05
3.55648196e-05
3.57958011e-05
3.68402705e-05
3.6255163e-05
3.53441999e-05
3.51847288e-05
3.58772768e-05
3.68299142e-05
3.60396118e-05
3.56096382e-05
3.58240273e-05
3.68422146e-05
3.62816936e-05
3.53712626e-05
3.5267533e-05
3.59055533e-05
3.68280574e-05
3.62687377e-05
3.53451406e-05
3.52473656e-05
3.59890945e-05
3.68302813e-05
3.59359598e-05
3.56605774e-05
3.58835335e-05
3.68402039e-05
3.63044741e-05
3.53880837e-05
3.5322624e-05
3.59356164e-05
3.68285101e-05
3.64467584e-05
3.53966424e-05
3.52995035e-05
3.59106722e-05
3.6826847e-05
3.65590351e-05
3.53883174e-05
3.52689923e-05
3.58953588e-05
3.68257486e-05
3.66329716e-05
3.53665469e-05
3.52462737e-05
3.58887969e-05
3.68228911e-05
3.65908559e-05
3.52984977e-05
3.52280778e-05
3.60666898e-05
3.68209137e-05
3.58769036e-05
3.56495767e-05
3.589084e-05
3.683918e-05
3.64753222e-05
3.53264049e-05
3.53027486e-05
3.59481223e-05
3.68202534e-05
3.64795331e-05
3.53193492e-05
3.53116176e-05
3.59577667e-05
3.68177548e-05
3.64594816e-05
3.53224254e-05
3.53222969e-05
3.5964836e-05
3.68166539e-05
3.64749494e-05
3.53307406e-05
3.53307634e-05
3.59739104e-05
3.68149639e-05
3.64795905e-05
3.53266311e-05
3.53263887e-05
3.59758452e-05
3.6815043e-05
3.64762252e-05
3.53068669e-05
3.53065563e-05
3.59400817e-05
3.68211798e-05
3.65686531e-05
3.53437987e-05
3.51720499e-05
3.57594995e-05
3.68287732e-05
3.68277703e-05
3.59786678e-05
3.53750752e-05
3.53466486e-05
3.58726679e-05
3.68239867e-05
3.66447438e-05
3.52136627e-05
3.51589066e-05
3.58600857e-05
3.68106484e-05
3.67137165e-05
3.51995057e-05
3.51632124e-05
3.59108539e-05
3.68100058e-05
3.61838095e-05
3.56270226e-05
3.58131619e-05
3.68337225e-05
3.67419073e-05
3.52117705e-05
3.51723823e-05
3.5924252e-05
3.68090957e-05
3.62216429e-05
3.57055899e-05
3.583749e-05
3.68257778e-05
3.66302802e-05
3.52626298e-05
3.52491876e-05
3.54347131e-05
3.53944938e-05
3.59015668e-05
3.68152367e-05
3.61374035e-05
3.56134032e-05
3.58354492e-05
3.68261134e-05
3.63162612e-05
3.51553805e-05
3.51304931e-05
3.59062271e-05
3.68023591e-05
3.59852115e-05
3.54408397e-05
3.58290149e-05
3.68179046e-05
3.59346851e-05
3.53900015e-05
3.58204824e-05
3.68187104e-05
3.59155879e-05
3.53541803e-05
3.5809634e-05
3.68172241e-05
3.59196472e-05
3.53479848e-05
3.58016254e-05
3.68159553e-05
3.59455761e-05
3.53672772e-05
3.57951347e-05
3.68141703e-05
3.59928719e-05
3.53792871e-05
3.57758907e-05
3.68168301e-05
3.61782542e-05
3.51240937e-05
3.50663984e-05
3.58101262e-05
3.68082645e-05
3.61087606e-05
3.54040476e-05
3.57539379e-05
3.68111556e-05
3.6129774e-05
3.54380545e-05
3.57504303e-05
3.68087575e-05
3.6144952e-05
3.54517146e-05
3.57489816e-05
3.68065846e-05
3.6269752e-05
3.52124013e-05
3.50733968e-05
3.57767367e-05
3.67972133e-05
3.61611133e-05
3.54860501e-05
3.57411106e-05
3.680231e-05
3.61857669e-05
3.55336126e-05
3.57464582e-05
3.6804384e-05
3.62162923e-05
3.55762283e-05
3.574687e-05
3.67977954e-05
3.66174145e-05
3.54082388e-05
3.5204556e-05
3.57813541e-05
3.67888074e-05
3.68418798e-05
3.59326348e-05
3.54285325e-05
3.53887292e-05
3.54097692e-05
3.53940055e-05
3.58126682e-05
3.68111639e-05
3.68562508e-05
3.58327961e-05
3.57008046e-05
3.57754304e-05
3.68185131e-05
3.68628978e-05
3.54921299e-05
3.5057159e-05
3.57589146e-05
3.67920563e-05
3.67588815e-05
3.56526509e-05
3.57722926e-05
3.682004e-05
3.68445608e-05
3.55260366e-05
3.51493118e-05
3.57625742e-05
3.68006749e-05
3.68413945e-05
3.55243222e-05
3.52075244e-05
3.57863053e-05
3.68034428e-05
3.68185836e-05
3.54792755e-05
3.52374856e-05
3.58079314e-05
3.68019833e-05
3.67965903e-05
3.54190892e-05
3.52316555e-05
3.58136043e-05
3.68015685e-05
3.67770402e-05
3.5358293e-05
3.51999494e-05
3.58152614e-05
3.67915803e-05
3.6698474e-05
3.51663671e-05
3.52205457e-05
3.64768476e-05
3.67447232e-05
3.57537008e-05
3.55386491e-05
3.58725544e-05
3.68062923e-05
3.66267009e-05
3.50756813e-05
3.5160896e-05
3.65326665e-05
3.67102561e-05
3.57292026e-05
3.57000717e-05
3.68401727e-05
3.67561934e-05
3.57536575e-05
3.55703266e-05
3.59362551e-05
3.68115259e-05
3.64536268e-05
3.51737795e-05
3.52540239e-05
3.62615412e-05
3.67411547e-05
3.58166146e-05
3.51565987e-05
3.56505422e-05
3.68121292e-05
3.67322947e-05
3.5737694e-05
3.51710242e-05
3.56954465e-05
3.6851062e-05
3.67291362e-05
3.57254859e-05
3.52039231e-05
3.571638e-05
3.6851702e-05
3.6725596e-05
3.57237778e-05
3.52376657e-05
3.57287237e-05
3.68530186e-05
3.67219053e-05
3.57228706e-05
3.52456478e-05
3.57318981e-05
)
;

boundaryField
{
    closed
    {
        type            calculated;
        value           nonuniform List<scalar> 0();
    }
    open
    {
        type            calculated;
        value           nonuniform List<scalar> 0();
    }
    sides
    {
        type            empty;
    }
    procBoundary2to1
    {
        type            processor;
        value           uniform 3.68455931e-05;
    }
    procBoundary2to3
    {
        type            processor;
        value           uniform 3.6850573e-05;
    }
}


// ************************************************************************* //
