/*--------------------------------*- C++ -*----------------------------------*\
| =========                 |                                                 |
| \\      /  F ield         | OpenFOAM: The Open Source CFD Toolbox           |
|  \\    /   O peration     | Version:  2306                                  |
|   \\  /    A nd           | Website:  www.openfoam.com                      |
|    \\/     M anipulation  |                                                 |
\*---------------------------------------------------------------------------*/
FoamFile
{
    version     2.0;
    format      ascii;
    arch        "LSB;label=32;scalar=64";
    class       volScalarField;
    location    "0.00102";
    object      rho;
}
// * * * * * * * * * * * * * * * * * * * * * * * * * * * * * * * * * * * * * //

dimensions      [1 -3 0 0 0 0 0];

internalField   nonuniform List<scalar> 
530
(
0.9118549
0.945773191
0.958482067
0.942200051
0.908243711
0.912192776
0.952727783
0.961289126
0.942519922
0.908175274
0.911436013
0.946141725
0.954540938
0.938281027
0.908480683
0.914315454
0.963260719
0.966233706
0.944951888
0.923217843
0.908178966
0.909090053
0.909610786
0.937687399
0.959711161
0.954183668
0.935982469
0.908133792
0.921410643
0.962363663
0.962616245
0.947454883
0.931337294
0.907104535
0.932708438
0.95585776
0.948928854
0.925288599
0.907318498
0.936271892
0.955933535
0.945494236
0.922153483
0.906438459
0.905545411
0.907545652
0.938475942
0.957123675
0.954873983
0.941517979
0.924079402
0.904456973
0.935130316
0.954124549
0.951226364
0.942928446
0.933798857
0.900893434
0.903062261
0.936872698
0.947415319
0.931828242
0.899043982
0.89929434
0.933063803
0.935837882
0.906134794
0.898665115
0.932797752
0.946159167
0.927622337
0.893712345
0.891564946
0.926048662
0.924858799
0.90798679
0.904894978
0.921757196
0.920300514
0.888253111
0.908617487
0.932505665
0.932735706
0.905081807
0.883465807
0.908547681
0.918090411
0.913184285
0.882837015
0.889905386
0.91725312
0.925672668
0.909342692
0.8808213
0.894591171
0.91128239
0.911872253
0.887805561
0.885109328
0.914258597
0.914189771
0.903329793
0.885554921
0.915928246
0.929823071
0.924393736
0.900984889
0.890582207
0.921449221
0.934196867
0.92939249
0.906093662
0.894029514
0.923812486
0.937229602
0.935461798
0.910262805
0.897071401
0.925796155
0.930183232
0.92730578
0.899584342
0.917534141
0.937628263
0.94566557
0.926808052
0.900113303
0.920379421
0.939904385
0.947167492
0.927362232
0.900798614
0.919893087
0.940524867
0.948506718
0.928655968
0.901121929
0.920463473
0.94235944
0.948937321
0.926801256
0.901156866
0.924869703
0.935691716
0.934103249
0.902341256
0.917603709
0.943258958
0.949830454
0.929300011
0.901314044
0.92049877
0.944619939
0.946518419
0.924520399
0.901046084
0.9270879
0.936569226
0.932378271
0.901153352
0.916493626
0.944759948
0.947984403
0.928181707
0.900675881
0.923017529
0.942303686
0.940351624
0.917158402
0.901412263
0.932378442
0.940731088
0.931560713
0.900091738
0.908313175
0.941344304
0.946699652
0.93022054
0.899845138
0.907870097
0.93998733
0.94211003
0.926130286
0.899820644
0.912813378
0.940393415
0.945365486
0.944724367
0.946921389
0.93234065
0.900445956
0.90787948
0.933195816
0.933736951
0.900495848
0.902498004
0.934396708
0.939321811
0.92229193
0.901875608
0.934114782
0.95468427
0.936581531
0.901936552
0.92047263
0.943261661
0.935420211
0.901491757
0.922882446
0.94077758
0.934727676
0.900833855
0.917010694
0.949226777
0.958116785
0.934533888
0.902052527
0.924578332
0.943820464
0.935364175
0.901892368
0.926259591
0.943008062
0.935620699
0.901913327
0.920899445
0.950656138
0.957807273
0.935049512
0.902811611
0.92600144
0.944773527
0.935927691
0.902383733
0.928160212
0.943805298
0.936019013
0.902466558
0.921802515
0.951633613
0.957335959
0.933992058
0.903422971
0.929126997
0.943248554
0.936182957
0.903394221
0.922046962
0.951822885
0.955583495
0.934153082
0.904394296
0.922892986
0.953127401
0.95661438
0.931794326
0.904557578
0.933480987
0.942448706
0.935156697
0.904115215
0.921906938
0.951720868
0.95401098
0.933411755
0.904418674
0.917306142
0.951281922
0.954686389
0.934042027
0.904327335
0.913648517
0.951433647
0.955629528
0.934405969
0.904258615
0.911224053
0.952066893
0.956307047
0.934487448
0.904245813
0.912400035
0.954246108
0.956731434
0.928699603
0.904186067
0.934555313
0.941979355
0.934073268
0.903285814
0.915684925
0.9529488
0.95384819
0.932179406
0.903932609
0.915521786
0.953232246
0.953602608
0.931969632
0.904143174
0.91631492
0.953365306
0.953502149
0.93203841
0.904476029
0.916152729
0.953390645
0.953526323
0.932051112
0.904801161
0.916252428
0.953766564
0.953861756
0.932131355
0.904896069
0.916412641
0.95444185
0.954482454
0.933176968
0.904547924
0.91337067
0.952953915
0.958957486
0.938611576
0.904006525
0.903983297
0.93157356
0.951546151
0.952538939
0.934801974
0.90400822
0.910523775
0.956997858
0.958964511
0.935095805
0.904397881
0.908287413
0.957420632
0.958768107
0.933427666
0.904360083
0.9248079
0.942658345
0.936471138
0.903381367
0.907230995
0.956801181
0.958279465
0.932802579
0.904135214
0.923355705
0.939632868
0.935339454
0.903242055
0.910322048
0.954550837
0.955071194
0.94841588
0.949754131
0.932615183
0.902976549
0.924966177
0.941686714
0.934223584
0.902115298
0.918888767
0.956779385
0.957613776
0.931297016
0.902378569
0.928518167
0.946386132
0.933147831
0.901278588
0.929546283
0.947531655
0.932862724
0.900751949
0.929613248
0.948231505
0.932691853
0.900336379
0.929009382
0.94797551
0.932495964
0.899960281
0.927795731
0.946927642
0.932338074
0.89967668
0.926012249
0.946224492
0.932698973
0.899370955
0.920047996
0.954635624
0.956667715
0.931456535
0.899541723
0.922103411
0.945148818
0.933202405
0.899446724
0.921495279
0.944044936
0.933415761
0.899684111
0.921181709
0.943776252
0.933692232
0.9000566
0.917576913
0.952111832
0.957093965
0.933242511
0.90087169
0.9214563
0.943487812
0.934850211
0.901172804
0.921229253
0.942413743
0.935305827
0.901716006
0.92095062
0.941682155
0.936060613
0.902713938
0.909232422
0.948139667
0.955553415
0.936057509
0.904055186
0.902249011
0.932046219
0.948983991
0.950604779
0.950162773
0.950973849
0.937065575
0.905119737
0.903641808
0.937186008
0.941681937
0.93949002
0.906054898
0.90482601
0.949582339
0.965095869
0.941143244
0.908105029
0.909884097
0.945361916
0.941567528
0.90778076
0.907142736
0.950230432
0.963598062
0.942523749
0.909121586
0.907858145
0.950915976
0.962052601
0.94214884
0.909302632
0.908942737
0.952652741
0.961096709
0.941449514
0.909280605
0.909657814
0.954547584
0.961029867
0.94094142
0.908941404
0.90999768
0.956162522
0.961588612
0.940326405
0.90878579
0.912293667
0.962210771
0.960217973
0.918952887
0.910084308
0.94157633
0.949009777
0.937687725
0.907477382
0.913873821
0.964688615
0.961737425
0.916821769
0.91112155
0.942272495
0.942989102
0.906377057
0.909416902
0.941601651
0.94797344
0.935993947
0.907661426
0.919852571
0.962029733
0.959501914
0.926329498
0.910921194
0.940517198
0.963369696
0.946031093
0.908825398
0.911758027
0.943522774
0.963243484
0.944934425
0.90759902
0.912199509
0.944194345
0.962358571
0.944498182
0.907757856
0.912523655
0.944397705
0.961317579
0.944211268
0.907800601
0.912797068
0.944547548
0.96119161
0.944257038
)
;

boundaryField
{
    closed
    {
        type            calculated;
        value           nonuniform List<scalar> 0();
    }
    open
    {
        type            calculated;
        value           nonuniform List<scalar> 0();
    }
    sides
    {
        type            empty;
    }
    procBoundary2to1
    {
        type            processor;
        value           uniform 0.908436544;
    }
    procBoundary2to3
    {
        type            processor;
        value           uniform 0.908063482;
    }
}


// ************************************************************************* //
