/*--------------------------------*- C++ -*----------------------------------*\
| =========                 |                                                 |
| \\      /  F ield         | OpenFOAM: The Open Source CFD Toolbox           |
|  \\    /   O peration     | Version:  2306                                  |
|   \\  /    A nd           | Website:  www.openfoam.com                      |
|    \\/     M anipulation  |                                                 |
\*---------------------------------------------------------------------------*/
FoamFile
{
    version     2.0;
    format      ascii;
    arch        "LSB;label=32;scalar=64";
    class       volScalarField;
    location    "0.00058";
    object      prefDZ_T;
}
// * * * * * * * * * * * * * * * * * * * * * * * * * * * * * * * * * * * * * //

dimensions      [1 -1 -1 -1 0 0 0];

internalField   nonuniform List<scalar> 
531
(
-1.23061729e-09
-1.22646042e-09
-1.20282346e-09
-1.1911655e-09
-1.19096632e-09
-1.18958151e-09
-1.19299434e-09
-1.23001389e-09
-1.23346987e-09
-1.18970548e-09
-1.1902131e-09
-1.23121919e-09
-1.22720162e-09
-1.19727929e-09
-1.18804249e-09
-1.19558493e-09
-1.22973625e-09
-1.22730241e-09
-1.19894048e-09
-1.18747854e-09
-1.18976385e-09
-1.23260734e-09
-1.22560711e-09
-1.21951016e-09
-1.18999291e-09
-1.1872482e-09
-1.18902223e-09
-1.23145533e-09
-1.22758066e-09
-1.19638109e-09
-1.18700521e-09
-1.19084359e-09
-1.23351533e-09
-1.22554155e-09
-1.23185622e-09
-1.19174369e-09
-1.18756302e-09
-1.19016414e-09
-1.23086583e-09
-1.22766024e-09
-1.19876352e-09
-1.18653773e-09
-1.1860742e-09
-1.23079634e-09
-1.22981394e-09
-1.19022229e-09
-1.18969094e-09
-1.23291163e-09
-1.22711601e-09
-1.21328936e-09
-1.18757662e-09
-1.18653085e-09
-1.23204079e-09
-1.22929191e-09
-1.19028716e-09
-1.18964262e-09
-1.23215396e-09
-1.22607967e-09
-1.21485612e-09
-1.18956203e-09
-1.18781391e-09
-1.19191708e-09
-1.22917498e-09
-1.22711638e-09
-1.19473959e-09
-1.1873048e-09
-1.19227422e-09
-1.22999607e-09
-1.22555921e-09
-1.21121992e-09
-1.1893215e-09
-1.1875773e-09
-1.19106835e-09
-1.22931832e-09
-1.22804391e-09
-1.19113586e-09
-1.1871547e-09
-1.19502511e-09
-1.23003669e-09
-1.22857692e-09
-1.18904047e-09
-1.18602335e-09
-1.23479089e-09
-1.22952794e-09
-1.18926154e-09
-1.19012957e-09
-1.22977255e-09
-1.23180176e-09
-1.18895538e-09
-1.18957364e-09
-1.22969101e-09
-1.22811338e-09
-1.18961827e-09
-1.18751597e-09
-1.23283553e-09
-1.22783831e-09
-1.19029303e-09
-1.18768614e-09
-1.23255984e-09
-1.22791552e-09
-1.18989551e-09
-1.18812028e-09
-1.23154051e-09
-1.22962207e-09
-1.18881151e-09
-1.19072254e-09
-1.22866403e-09
-1.23205973e-09
-1.18913332e-09
-1.19069692e-09
-1.22796421e-09
-1.22715687e-09
-1.19974222e-09
-1.1860976e-09
-1.18589616e-09
-1.23221162e-09
-1.2294955e-09
-1.18878686e-09
-1.19139247e-09
-1.22858307e-09
-1.22717147e-09
-1.18937435e-09
-1.19109326e-09
-1.22789985e-09
-1.2268931e-09
-1.20065352e-09
-1.18623832e-09
-1.18620389e-09
-1.23091142e-09
-1.22818538e-09
-1.21070145e-09
-1.18708549e-09
-1.18686797e-09
-1.23168681e-09
-1.23117803e-09
-1.18821976e-09
-1.19371894e-09
-1.22829244e-09
-1.22059932e-09
-1.18917409e-09
-1.19191906e-09
-1.22764376e-09
-1.22664301e-09
-1.20089957e-09
-1.18640121e-09
-1.18664859e-09
-1.23045619e-09
-1.23075394e-09
-1.18887045e-09
-1.19105872e-09
-1.22781599e-09
-1.22679725e-09
-1.20043584e-09
-1.18642361e-09
-1.18699825e-09
-1.22958513e-09
-1.23150479e-09
-1.18880073e-09
-1.19126595e-09
-1.22774786e-09
-1.22676879e-09
-1.19981972e-09
-1.1864067e-09
-1.18737081e-09
-1.22959305e-09
-1.23268127e-09
-1.18870597e-09
-1.19143274e-09
-1.22773199e-09
-1.22671725e-09
-1.19836478e-09
-1.186515e-09
-1.18855386e-09
-1.2294862e-09
-1.23179238e-09
-1.18880994e-09
-1.19050691e-09
-1.22794242e-09
-1.22671229e-09
-1.19945488e-09
-1.18680653e-09
-1.18769243e-09
-1.22870152e-09
-1.22737606e-09
-1.20084453e-09
-1.18689128e-09
-1.18918469e-09
-1.22907843e-09
-1.23335579e-09
-1.18855786e-09
-1.1905583e-09
-1.22770169e-09
-1.22680004e-09
-1.1985952e-09
-1.18654953e-09
-1.18951964e-09
-1.22911277e-09
-1.22707033e-09
-1.18858242e-09
-1.19210493e-09
-1.22747292e-09
-1.22670544e-09
-1.19701402e-09
-1.18635645e-09
-1.18967234e-09
-1.22918701e-09
-1.22106946e-09
-1.18850255e-09
-1.19443982e-09
-1.22725706e-09
-1.22690547e-09
-1.19528576e-09
-1.18598255e-09
-1.18978073e-09
-1.22949544e-09
-1.20488325e-09
-1.18763665e-09
-1.22686897e-09
-1.22725136e-09
-1.19818807e-09
-1.18884404e-09
-1.19907795e-09
-1.22682096e-09
-1.22687488e-09
-1.19487537e-09
-1.1863674e-09
-1.18906881e-09
-1.22908791e-09
-1.2299322e-09
-1.18864767e-09
-1.18891456e-09
-1.22787715e-09
-1.22557714e-09
-1.20403616e-09
-1.19030709e-09
-1.19477607e-09
-1.19634762e-09
-1.18934767e-09
-1.1911315e-09
-1.22730732e-09
-1.22529363e-09
-1.22581298e-09
-1.2054065e-09
-1.19000835e-09
-1.18978413e-09
-1.1873741e-09
-1.18724421e-09
-1.22875838e-09
-1.2270594e-09
-1.19558818e-09
-1.18802224e-09
-1.20650582e-09
-1.2276506e-09
-1.20703832e-09
-1.18753474e-09
-1.20078534e-09
-1.22792707e-09
-1.20776486e-09
-1.18760047e-09
-1.20523501e-09
-1.22773141e-09
-1.20227385e-09
-1.18795941e-09
-1.20834604e-09
-1.22746788e-09
-1.21247825e-09
-1.18837828e-09
-1.18961201e-09
-1.22740068e-09
-1.22668722e-09
-1.19965034e-09
-1.18717673e-09
-1.18887208e-09
-1.22901996e-09
-1.22751567e-09
-1.18728876e-09
-1.18612565e-09
-1.23024961e-09
-1.22774031e-09
-1.20650913e-09
-1.18856122e-09
-1.18821807e-09
-1.22911555e-09
-1.22714452e-09
-1.18774865e-09
-1.18673591e-09
-1.23235048e-09
-1.22628079e-09
-1.22890256e-09
-1.1924958e-09
-1.18911005e-09
-1.19707768e-09
-1.19465491e-09
-1.19046833e-09
-1.19888092e-09
-1.22596959e-09
-1.2259562e-09
-1.19411731e-09
-1.18714121e-09
-1.19012793e-09
-1.22764426e-09
-1.22634479e-09
-1.19376658e-09
-1.18652415e-09
-1.19707108e-09
-1.22824904e-09
-1.2124923e-09
-1.18845026e-09
-1.1933068e-09
-1.22729326e-09
-1.22652683e-09
-1.19228541e-09
-1.18603102e-09
-1.1955753e-09
-1.22860185e-09
-1.21327283e-09
-1.18845153e-09
-1.19325232e-09
-1.2274528e-09
-1.22650089e-09
-1.19251149e-09
-1.18604785e-09
-1.19589005e-09
-1.22864446e-09
-1.2138107e-09
-1.188625e-09
-1.19297959e-09
-1.22757742e-09
-1.22650445e-09
-1.19266509e-09
-1.18609206e-09
-1.1961778e-09
-1.22871763e-09
-1.21370552e-09
-1.18865683e-09
-1.19322986e-09
-1.22768851e-09
-1.22646877e-09
-1.19293284e-09
-1.18626756e-09
-1.19558031e-09
-1.22882305e-09
-1.21426662e-09
-1.18889875e-09
-1.19339192e-09
-1.22783692e-09
-1.22654555e-09
-1.19370422e-09
-1.18663484e-09
-1.19016734e-09
-1.22875149e-09
-1.22678244e-09
-1.19282284e-09
-1.18607592e-09
-1.19260243e-09
-1.22956663e-09
-1.21681062e-09
-1.18788213e-09
-1.19877397e-09
-1.22862585e-09
-1.21037e-09
-1.18801958e-09
-1.20217543e-09
-1.22829816e-09
-1.20719482e-09
-1.18815725e-09
-1.20364852e-09
-1.22802831e-09
-1.20984693e-09
-1.18876955e-09
-1.19286572e-09
-1.22802659e-09
-1.22709369e-09
-1.19249556e-09
-1.18546343e-09
-1.19207217e-09
-1.23008903e-09
-1.21574216e-09
-1.18786527e-09
-1.19913291e-09
-1.22885833e-09
-1.20883961e-09
-1.18790629e-09
-1.20358068e-09
-1.2284099e-09
-1.20383016e-09
-1.18800685e-09
-1.20938314e-09
-1.22784899e-09
-1.20638533e-09
-1.18878321e-09
-1.19405063e-09
-1.2279779e-09
-1.22640557e-09
-1.19435923e-09
-1.18683102e-09
-1.19003314e-09
-1.22905461e-09
-1.22557006e-09
-1.20168697e-09
-1.18920533e-09
-1.18825521e-09
-1.19025487e-09
-1.22862053e-09
-1.22623625e-09
-1.19527618e-09
-1.18777075e-09
-1.19120807e-09
-1.2286686e-09
-1.22643217e-09
-1.19422302e-09
-1.1869664e-09
-1.19008775e-09
-1.22899957e-09
-1.22633317e-09
-1.19467998e-09
-1.18733709e-09
-1.19031315e-09
-1.22878918e-09
-1.22622166e-09
-1.19565128e-09
-1.18753425e-09
-1.19038192e-09
-1.22870488e-09
-1.22660133e-09
-1.19382827e-09
-1.18647937e-09
-1.19139607e-09
-1.22940297e-09
-1.23298975e-09
-1.18920422e-09
-1.19049752e-09
-1.22851918e-09
-1.22681174e-09
-1.19440725e-09
-1.1863775e-09
-1.19167198e-09
-1.22963231e-09
-1.22980857e-09
-1.18912414e-09
-1.19066439e-09
-1.22870391e-09
-1.22684717e-09
-1.19452531e-09
-1.18628064e-09
-1.19215177e-09
-1.22976554e-09
-1.22606202e-09
-1.18936724e-09
-1.19092676e-09
-1.22884412e-09
-1.22672862e-09
-1.19562067e-09
-1.18690671e-09
-1.18999495e-09
-1.22964553e-09
-1.2270026e-09
-1.1944431e-09
-1.18639705e-09
-1.19241246e-09
-1.22995752e-09
-1.2239052e-09
-1.18922879e-09
-1.19103352e-09
-1.2289082e-09
-1.22703996e-09
-1.1958595e-09
-1.18655741e-09
-1.18960989e-09
-1.23345861e-09
-1.22537799e-09
-1.23116737e-09
-1.19222113e-09
-1.18702432e-09
-1.19007036e-09
-1.23005173e-09
-1.22773159e-09
-1.19284061e-09
-1.18610051e-09
-1.19284801e-09
-1.23028545e-09
-1.2176208e-09
-1.18910135e-09
-1.19307559e-09
-1.22887798e-09
-1.22764682e-09
-1.19283557e-09
-1.18624472e-09
-1.19470865e-09
-1.23015471e-09
-1.2120443e-09
-1.18845507e-09
-1.2020362e-09
-1.22877599e-09
-1.20597065e-09
-1.18846651e-09
-1.2071488e-09
-1.22811845e-09
-1.2068425e-09
-1.18927915e-09
-1.19759296e-09
-1.22795938e-09
-1.2269047e-09
-1.19760005e-09
-1.18720543e-09
-1.18684036e-09
-1.20615975e-09
-1.22854852e-09
-1.19902789e-09
-1.18895953e-09
-1.21376498e-09
-1.22744994e-09
-1.22700228e-09
-1.18924334e-09
-1.18737038e-09
-1.19717086e-09
-1.22890404e-09
-1.22940128e-09
-1.1895491e-09
-1.18650535e-09
-1.20355041e-09
-1.22881648e-09
-1.20143756e-09
-1.18928114e-09
-1.20723176e-09
-1.22705189e-09
-1.22901364e-09
-1.19407867e-09
-1.18742537e-09
-1.18696304e-09
-1.20558686e-09
)
;

boundaryField
{
    closed
    {
        type            calculated;
        value           nonuniform List<scalar> 0();
    }
    open
    {
        type            calculated;
        value           nonuniform List<scalar> 0();
    }
    sides
    {
        type            empty;
    }
    procBoundary3to2
    {
        type            processor;
        value           uniform -1.19047211e-09;
    }
    procBoundary3to4
    {
        type            processor;
        value           uniform -1.22850823e-09;
    }
}


// ************************************************************************* //
