/*--------------------------------*- C++ -*----------------------------------*\
| =========                 |                                                 |
| \\      /  F ield         | OpenFOAM: The Open Source CFD Toolbox           |
|  \\    /   O peration     | Version:  2306                                  |
|   \\  /    A nd           | Website:  www.openfoam.com                      |
|    \\/     M anipulation  |                                                 |
\*---------------------------------------------------------------------------*/
FoamFile
{
    version     2.0;
    format      ascii;
    arch        "LSB;label=32;scalar=64";
    class       volScalarField;
    location    "0.00058";
    object      prefDZ_H;
}
// * * * * * * * * * * * * * * * * * * * * * * * * * * * * * * * * * * * * * //

dimensions      [1 -1 -1 0 0 0 0];

internalField   nonuniform List<scalar> 
531
(
0.000110027206
0.000110521257
0.000107838924
0.000107819234
0.000107771711
0.000107282528
0.000107763792
0.000110107181
0.000109886419
0.000107443957
0.000107488451
0.000110027079
0.000110450661
0.000107694804
0.000106611365
0.000107670928
0.00011008403
0.000110394785
0.00010772539
0.00010618865
0.000107594597
0.000109790658
0.00011050257
0.00010863842
0.000107678276
0.000106117572
0.000107041236
0.000110023981
0.000110338751
0.000107690289
0.000105944397
0.000107695047
0.000109672926
0.000110480967
0.000109493479
0.00010767768
0.00010607108
0.00010751819
0.000109950854
0.000110303612
0.000107845872
0.000105712176
0.000105660611
0.000109450861
0.000110229196
0.000107463968
0.000107145298
0.00010978574
0.000110223991
0.000108297502
0.000106286102
0.000105881517
0.000109562292
0.000110294725
0.000107461343
0.000107213089
0.000109852986
0.000110373003
0.000108372473
0.000107524549
0.000106430879
0.000107764298
0.000110178372
0.000110412035
0.000107697866
0.00010617843
0.00010769868
0.000110030435
0.000110481301
0.000108194743
0.000107400581
0.000106330184
0.00010784612
0.000110172377
0.000110343103
0.000107735058
0.000105976144
0.000107765657
0.000109952129
0.000110281153
0.000106820981
0.000105541021
0.000109793147
0.000110214679
0.000106949386
0.000107145087
0.000110064703
0.000110009561
0.000106891476
0.000107000142
0.000110106057
0.000110336719
0.000107140836
0.000106337946
0.000109931669
0.000110275038
0.000107281868
0.000106422747
0.000109981145
0.000110283746
0.00010717817
0.000106475243
0.000110021645
0.000110252464
0.000106863372
0.000107484179
0.000110215651
0.000109545686
0.000107080004
0.000107575007
0.000110282575
0.000110288966
0.000107850738
0.000105608731
0.00010563296
0.000110001318
0.000110280413
0.000106771636
0.000107874123
0.000110183935
0.000109170485
0.00010712238
0.000107830795
0.000110273432
0.0001103046
0.00010785918
0.000105726247
0.000105762395
0.000110195536
0.000110140502
0.000108178506
0.000105998678
0.000105868037
0.000110066378
0.000110125749
0.000106561322
0.000107862991
0.000110207402
0.00010871083
0.000107081237
0.000107830687
0.000110305762
0.000110362763
0.00010785437
0.00010587356
0.000105876042
0.000110120614
0.000110167156
0.000106915688
0.000107778257
0.000110278084
0.000110329876
0.000107848563
0.000105888959
0.000105986346
0.000110200051
0.000110093448
0.000106901661
0.000107878206
0.0001102835
0.000110340174
0.000107833577
0.000105876563
0.000106143256
0.000110191228
0.000109963166
0.000106874799
0.000107925114
0.000110296086
0.000110362142
0.000107796851
0.000105920246
0.000106672872
0.000110174029
0.000110066688
0.000106900182
0.000107492393
0.000110284889
0.000110334678
0.000107812552
0.000106124576
0.00010648773
0.000110311935
0.000110268925
0.000107839194
0.000106081839
0.00010691119
0.000110224277
0.00010988698
0.000106850011
0.000107520937
0.000110329892
0.000110337523
0.000107778246
0.000105958375
0.000107192384
0.00011021855
0.000109167593
0.000106842714
0.000107842676
0.000110326442
0.000110390365
0.00010775467
0.000105869336
0.000107322122
0.000110212727
0.00010874245
0.000106813328
0.000107762248
0.000110329333
0.000110405641
0.000107743074
0.000105677202
0.000107436043
0.00011020645
0.00010791581
0.000106457076
0.000109172143
0.000110299987
0.000107777499
0.000107001427
0.000107745986
0.000110352309
0.000110407367
0.000107770201
0.000105833651
0.000106961789
0.000110191167
0.000110287195
0.000106889919
0.000106928298
0.000110343804
0.000110434032
0.000107880056
0.000107713808
0.00010774703
0.000107690338
0.000107354828
0.000107718857
0.000110469389
0.000110477417
0.000110402517
0.000107911799
0.000107481987
0.000107421111
0.000106358551
0.000106356339
0.000110395816
0.000110334923
0.000107738072
0.000106663326
0.000107930247
0.000110292633
0.000107960303
0.000106457686
0.000107741017
0.00011028191
0.000107986909
0.000106488599
0.000107870174
0.000110284098
0.000107798961
0.000106618203
0.000108004043
0.000110271326
0.00010822718
0.000106807586
0.000107278941
0.000110352601
0.000110302261
0.000107807865
0.000106226258
0.000106999014
0.000110221638
0.000110362167
0.00010632024
0.000105800632
0.000110215565
0.000110172135
0.000107993694
0.000106670354
0.000106672919
0.000110139337
0.000110348262
0.000106338101
0.000106201481
0.000110102965
0.000110360935
0.000110231374
0.000107728807
0.000106930889
0.000107716232
0.000107842106
0.000107748827
0.000107756774
0.000110459889
0.000110466041
0.000107688021
0.000106349785
0.000107702274
0.00011034172
0.000110429146
0.00010773017
0.000106057109
0.000107720953
0.000110247938
0.00010822519
0.00010683139
0.000107743173
0.000110332149
0.000110446333
0.000107713227
0.000105821702
0.000107706514
0.000110210904
0.000108266437
0.000106814625
0.000107741069
0.000110313451
0.000110447491
0.000107712724
0.000105834882
0.000107706144
0.000110203441
0.000108296367
0.000106883359
0.000107749957
0.00011029869
0.000110444157
0.000107710254
0.000105852852
0.000107703343
0.000110193434
0.00010829071
0.000106896032
0.000107743474
0.000110285478
0.000110444246
0.00010771152
0.000105918079
0.000107710628
0.000110174199
0.000108323513
0.000106969476
0.000107757373
0.000110241304
0.000110435376
0.000107749486
0.000106045727
0.000107607282
0.000110225638
0.000110378382
0.000107732926
0.00010576492
0.000107744413
0.000110122077
0.000108469498
0.000106530913
0.000107712982
0.000110179573
0.000108113207
0.000106639162
0.000107769338
0.000110218795
0.000107972265
0.000106715861
0.000107820628
0.00011023247
0.000108100046
0.000106968412
0.000107780225
0.000110274486
0.000110413525
0.000107676941
0.000105458546
0.000107723565
0.000110059824
0.00010840518
0.000106490215
0.000107710421
0.000110161084
0.0001080414
0.000106590103
0.00010780689
0.00011022177
0.000107852645
0.000106669888
0.000108043124
0.000110259903
0.000107948954
0.00010698786
0.000107709409
0.000110258317
0.00011047103
0.000107708102
0.000106154164
0.000107647698
0.000110150665
0.000110462059
0.000107864162
0.000107330887
0.000106740377
0.000107677887
0.000110227066
0.0001104172
0.000107742287
0.000106550711
0.00010777927
0.000110217514
0.000110423973
0.000107735768
0.000106202231
0.000107621211
0.000110203943
0.000110427107
0.000107742948
0.000106379317
0.000107731141
0.000110218779
0.000110430827
0.000107749674
0.000106474439
0.000107739993
0.000110246292
0.00011042014
0.000107724208
0.000105974966
0.000107851943
0.000110139434
0.000109624613
0.000107165115
0.000107540898
0.000110245645
0.000110384844
0.000107704004
0.000105915046
0.000107804754
0.000110115553
0.0001093742
0.000107107215
0.000107670417
0.000110227517
0.000110403074
0.000107695482
0.000105866379
0.000107767964
0.000110093155
0.000109091582
0.000107169611
0.00010783132
0.00011018601
0.000110402232
0.00010773275
0.000106117518
0.000107536983
0.000110151647
0.000110400346
0.000107719689
0.000105871635
0.000107767085
0.000110071587
0.000108936565
0.000107092636
0.000107871731
0.000110201569
0.000110358608
0.000107702218
0.000105733856
0.000107465875
0.000109730421
0.000110463014
0.000109932418
0.000107673196
0.000105777873
0.000107526568
0.000110080349
0.000110366775
0.00010771637
0.000105644022
0.000107740243
0.000110031936
0.000108521137
0.000106952085
0.000107813564
0.000110189987
0.000110378438
0.000107683121
0.000105713725
0.000107679144
0.000110061371
0.000108199397
0.000106732574
0.000107764635
0.000110196434
0.000107928007
0.000106825664
0.000107942352
0.000110254765
0.000107970558
0.000107149268
0.000107731626
0.000110221895
0.000110415664
0.000107791882
0.000106294852
0.000106168057
0.000107927419
0.000110222448
0.000107789062
0.000106972809
0.000108286359
0.000110263811
0.00010914772
0.000107323972
0.000106098429
0.000107740963
0.000110151786
0.000110276488
0.00010747682
0.000105804983
0.000107817896
0.000110186091
0.000107811459
0.000107135614
0.000107974757
0.000110275149
0.000110280135
0.000107785147
0.000106209555
0.00010621204
0.000107911823
)
;

boundaryField
{
    closed
    {
        type            calculated;
        value           nonuniform List<scalar> 0();
    }
    open
    {
        type            calculated;
        value           nonuniform List<scalar> 0();
    }
    sides
    {
        type            empty;
    }
    procBoundary3to2
    {
        type            processor;
        value           uniform 0.000107698634;
    }
    procBoundary3to4
    {
        type            processor;
        value           uniform 0.000110255336;
    }
}


// ************************************************************************* //
