/*--------------------------------*- C++ -*----------------------------------*\
| =========                 |                                                 |
| \\      /  F ield         | OpenFOAM: The Open Source CFD Toolbox           |
|  \\    /   O peration     | Version:  2306                                  |
|   \\  /    A nd           | Website:  www.openfoam.com                      |
|    \\/     M anipulation  |                                                 |
\*---------------------------------------------------------------------------*/
FoamFile
{
    version     2.0;
    format      ascii;
    arch        "LSB;label=32;scalar=64";
    class       volScalarField;
    location    "0.002";
    object      prefDPV_H2;
}
// * * * * * * * * * * * * * * * * * * * * * * * * * * * * * * * * * * * * * //

dimensions      [1 -1 -1 0 0 0 0];

internalField   nonuniform List<scalar> 
531
(
-3.1523762e-05
-3.15306671e-05
-3.08898172e-05
-3.04294599e-05
-3.05504567e-05
-3.02897173e-05
-3.03449428e-05
-3.14889551e-05
-3.1522222e-05
-3.15206274e-05
-3.09193461e-05
-3.08561381e-05
-3.14958628e-05
-3.15488833e-05
-3.09434307e-05
-3.08948743e-05
-3.07320781e-05
-3.04961777e-05
-3.08300304e-05
-3.14839643e-05
-3.15595072e-05
-3.14913579e-05
-3.15288111e-05
-3.10849175e-05
-3.03566685e-05
-3.03392356e-05
-3.13082228e-05
-3.15204949e-05
-3.08587698e-05
-3.04937322e-05
-3.14448196e-05
-3.14957652e-05
-3.0947557e-05
-3.02943062e-05
-3.03087102e-05
-3.14321806e-05
-3.15327538e-05
-3.14761671e-05
-3.09079786e-05
-3.05441122e-05
-3.07303677e-05
-3.14528829e-05
-3.15483107e-05
-3.14690074e-05
-3.15493468e-05
-3.1073413e-05
-3.08033872e-05
-3.05877203e-05
-3.05617713e-05
-3.02240168e-05
-3.02080415e-05
-3.1072826e-05
-3.15037414e-05
-3.15142484e-05
-3.15207782e-05
-3.09346783e-05
-3.06687699e-05
-3.14582867e-05
-3.15375846e-05
-3.09559666e-05
-3.06888326e-05
-3.1466952e-05
-3.15226693e-05
-3.09365568e-05
-3.08227287e-05
-3.07992425e-05
-3.04935525e-05
-3.05890849e-05
-3.14653686e-05
-3.14910459e-05
-3.14959849e-05
-3.15093744e-05
-3.08989886e-05
-3.05192468e-05
-3.05897824e-05
-3.037212e-05
-3.03788139e-05
-3.14785567e-05
-3.15102241e-05
-3.09441265e-05
-3.06450888e-05
-3.0887611e-05
-3.15186541e-05
-3.15647568e-05
-3.15481478e-05
-3.0927319e-05
-3.05617561e-05
-3.14495245e-05
-3.15100077e-05
-3.09360604e-05
-3.03473933e-05
-3.03414921e-05
-3.1054786e-05
-3.15189067e-05
-3.09670251e-05
-3.06957986e-05
-3.04739538e-05
-3.09038908e-05
-3.1503887e-05
-3.15498137e-05
-3.15410651e-05
-3.09343845e-05
-3.08668156e-05
-3.14185702e-05
-3.10146796e-05
-3.03612009e-05
-3.12071542e-05
-3.14977962e-05
-3.09188372e-05
-3.07267954e-05
-3.036066e-05
-3.03292303e-05
-3.09950676e-05
-3.14954898e-05
-3.15212936e-05
-3.09367049e-05
-3.06132161e-05
-3.1333472e-05
-3.14898662e-05
-3.10013075e-05
-3.04871372e-05
-3.04303215e-05
-3.11129345e-05
-3.1488195e-05
-3.09680643e-05
-3.03944078e-05
-3.03171337e-05
-3.0936281e-05
-3.14746406e-05
-3.15207171e-05
-3.14726312e-05
-3.14766926e-05
-3.11352049e-05
-3.05414922e-05
-3.04389263e-05
-3.11499373e-05
-3.14822921e-05
-3.09681842e-05
-3.03635979e-05
-3.03719414e-05
-3.12558272e-05
-3.09190404e-05
-3.0335436e-05
-3.14294203e-05
-3.14935194e-05
-3.09204765e-05
-3.06364309e-05
-3.06573217e-05
-3.03569919e-05
-3.04091608e-05
-3.14423208e-05
-3.15172949e-05
-3.14626956e-05
-3.15225633e-05
-3.09446632e-05
-3.07017772e-05
-3.13047832e-05
-3.14985189e-05
-3.14794648e-05
-3.14870527e-05
-3.09395514e-05
-3.02301704e-05
-3.02177886e-05
-3.10669987e-05
-3.15054997e-05
-3.09470266e-05
-3.04718371e-05
-3.13913569e-05
-3.15133315e-05
-3.09368451e-05
-3.06988567e-05
-3.0375692e-05
-3.03098596e-05
-3.09529751e-05
-3.14823185e-05
-3.15194803e-05
-3.14927535e-05
-3.14734712e-05
-3.10340643e-05
-3.04177945e-05
-3.03981754e-05
-3.13015581e-05
-3.14991956e-05
-3.09348765e-05
-3.01698624e-05
-3.0109974e-05
-3.09261258e-05
-3.14837972e-05
-3.15498576e-05
-3.15214113e-05
-3.09310245e-05
-3.07325381e-05
-3.1447719e-05
-3.15087941e-05
-3.09618528e-05
-3.08240548e-05
-3.07929701e-05
-3.04437761e-05
-3.04518776e-05
-3.1256695e-05
-3.14835928e-05
-3.14357979e-05
-3.14887217e-05
-3.14814665e-05
-3.06727044e-05
-3.03989441e-05
-3.13983683e-05
-3.15010846e-05
-3.09483057e-05
-3.07616739e-05
-3.02904553e-05
-3.03046405e-05
-3.12655705e-05
-3.15097516e-05
-3.07906915e-05
-3.04763217e-05
-3.13585462e-05
-3.15171743e-05
-3.07595823e-05
-3.05875344e-05
-3.14114052e-05
-3.15085477e-05
-3.14923746e-05
-3.09103188e-05
-3.06267166e-05
-3.1434702e-05
-3.14794959e-05
-3.09947628e-05
-3.04171934e-05
-3.04290324e-05
-3.13985864e-05
-3.15163488e-05
-3.09610975e-05
-3.07132655e-05
-3.14322701e-05
-3.15139984e-05
-3.09488419e-05
-3.09395838e-05
-3.04554031e-05
-3.0462836e-05
-3.1426081e-05
-3.0929239e-05
-3.02609361e-05
-3.14197146e-05
-3.14956248e-05
-3.07831863e-05
-3.04903104e-05
-3.14085373e-05
-3.15119462e-05
-3.07055572e-05
-3.05649021e-05
-3.14319389e-05
-3.15042253e-05
-3.14980996e-05
-3.09058154e-05
-3.05892514e-05
-3.14297018e-05
-3.15175221e-05
-3.07984659e-05
-3.06658839e-05
-3.14252806e-05
-3.151188e-05
-3.14697982e-05
-3.09799855e-05
-3.08212508e-05
-3.03804865e-05
-3.02696721e-05
-3.09270203e-05
-3.1438685e-05
-3.15617956e-05
-3.15084133e-05
-3.05827948e-05
-3.01244885e-05
-3.08673782e-05
-3.14378223e-05
-3.15672613e-05
-3.1460023e-05
-3.15327039e-05
-3.1175282e-05
-3.09297052e-05
-3.0577512e-05
-3.05819751e-05
-3.03482361e-05
-3.0087706e-05
-3.08688082e-05
-3.14908316e-05
-3.1571554e-05
-3.15429379e-05
-3.09362927e-05
-3.06800931e-05
-3.14068495e-05
-3.15132165e-05
-3.12559525e-05
-3.06268316e-05
-3.03174998e-05
-3.08998617e-05
-3.14687074e-05
-3.15226976e-05
-3.15021192e-05
-3.12334352e-05
-3.0846059e-05
-3.06678629e-05
-3.05558737e-05
-3.05411166e-05
-3.01540133e-05
-3.0169107e-05
-3.13535042e-05
-3.15061839e-05
-3.14660538e-05
-3.15240369e-05
-3.09463181e-05
-3.04997661e-05
-3.14595695e-05
-3.15411908e-05
-3.06889829e-05
-3.05273332e-05
-3.14564457e-05
-3.15249238e-05
-3.15003119e-05
-3.08798714e-05
-3.05423298e-05
-3.1467302e-05
-3.15062444e-05
-3.09576994e-05
-3.02781298e-05
-3.02201656e-05
-3.0976971e-05
-3.15287953e-05
-3.15838208e-05
-3.15710979e-05
-3.08942966e-05
-3.03455456e-05
-3.15144537e-05
-3.15511641e-05
-3.09835713e-05
-3.01362201e-05
-3.01536308e-05
-3.15245994e-05
-3.16309321e-05
-3.05447057e-05
-3.03558414e-05
-3.15925476e-05
-3.16964408e-05
-3.16823691e-05
-3.05758643e-05
-3.02459426e-05
-3.16332623e-05
-3.17949741e-05
-3.03854238e-05
-3.01247853e-05
-3.15265006e-05
-3.17419011e-05
-3.17109003e-05
-3.02165515e-05
-2.99165356e-05
-3.12593653e-05
-3.15934623e-05
-3.14907931e-05
-3.15732752e-05
-3.15396764e-05
-3.15810843e-05
-3.15695593e-05
-3.15959968e-05
-3.15923578e-05
-3.16143054e-05
-3.16128636e-05
-3.16349349e-05
-3.16388708e-05
-3.16631721e-05
-3.16773077e-05
-3.17079296e-05
-3.17430531e-05
-3.17880692e-05
-3.18672467e-05
-3.19659398e-05
-3.21859626e-05
-3.2255732e-05
-3.21069094e-05
-3.19984e-05
-3.18692849e-05
-3.1777982e-05
-3.16741244e-05
-3.16049828e-05
-3.153297e-05
-3.14905061e-05
-3.14356082e-05
-3.13584904e-05
-3.13002048e-05
-3.13323635e-05
-3.12696752e-05
-3.12026549e-05
-3.11412849e-05
-3.11043111e-05
-3.10786809e-05
-3.1071867e-05
-3.10782012e-05
-3.09855576e-05
-3.08653574e-05
-3.07311038e-05
-3.06179603e-05
-3.04843756e-05
-3.05252531e-05
-3.23948946e-05
-3.2153604e-05
-3.19287623e-05
-3.16684426e-05
-3.14288628e-05
-3.11744495e-05
-3.09256499e-05
-3.06705349e-05
-3.04091913e-05
-3.01479586e-05
-2.99451485e-05
-2.99854252e-05
-3.06421666e-05
-3.04441181e-05
-3.01289791e-05
-3.01342904e-05
-3.08605266e-05
-3.35762376e-05
-3.35672976e-05
-3.37696265e-05
-3.50192168e-05
-3.99335768e-05
-4.09569958e-05
-4.17696481e-05
-4.28463797e-05
-4.39454756e-05
-4.5406498e-05
-4.7076331e-05
-4.9352984e-05
-5.17261714e-05
-5.4913599e-05
-5.88991528e-05
-6.09369888e-05
-6.2623615e-05
-6.45408885e-05
-6.68042457e-05
-6.82127455e-05
-6.96072058e-05
-7.06736095e-05
-7.19487709e-05
-7.28769419e-05
-7.40837191e-05
-7.49323467e-05
-7.60498158e-05
-7.67956756e-05
-7.7708754e-05
-7.82891306e-05
-7.90020668e-05
-7.95372991e-05
-8.01516747e-05
-8.06527359e-05
-8.12002685e-05
-8.16797944e-05
-8.21583804e-05
-8.26001016e-05
-8.30047394e-05
-8.34260703e-05
-8.37623223e-05
-8.41687438e-05
-8.44869405e-05
-8.48700526e-05
-8.5176962e-05
-8.55481917e-05
-8.58764181e-05
-8.62609407e-05
-8.66017114e-05
-8.68882203e-05
-8.71053785e-05
-8.73402074e-05
-8.75332092e-05
-8.77442607e-05
-8.79167687e-05
-8.81033769e-05
-8.82881023e-05
-8.8498404e-05
-8.86783949e-05
-8.88782221e-05
-8.90445673e-05
-8.92248503e-05
-8.94112085e-05
-8.95884325e-05
-8.9753409e-05
-8.99130935e-05
-9.00623667e-05
-9.02087244e-05
-9.03479067e-05
-9.04862187e-05
-9.06165069e-05
-9.07391829e-05
-9.08573623e-05
-9.09735602e-05
-9.10859568e-05
-9.12066489e-05
-9.13282903e-05
-9.14598516e-05
-9.15899789e-05
-9.17140784e-05
-9.18314093e-05
-9.19447738e-05
-9.20451191e-05
-9.21374115e-05
-9.22272301e-05
-9.23150648e-05
-9.2400203e-05
-9.24840286e-05
-9.2564977e-05
-9.26445436e-05
-9.2721006e-05
-9.2797427e-05
-9.28714227e-05
-9.29457134e-05
-9.30174652e-05
-9.30898333e-05
-9.31595567e-05
-9.32302054e-05
-9.32961799e-05
-9.33583432e-05
-9.34183537e-05
-9.34786268e-05
-9.35365491e-05
-9.3595035e-05
-9.36509994e-05
-9.3708134e-05
-9.37658016e-05
-9.38239283e-05
-9.38791539e-05
-9.39352184e-05
-9.39878245e-05
-9.40388735e-05
)
;

boundaryField
{
    closed
    {
        type            calculated;
        value           nonuniform List<scalar> 0();
    }
    open
    {
        type            calculated;
        value           nonuniform List<scalar> 0();
    }
    sides
    {
        type            empty;
    }
    procBoundary4to3
    {
        type            processor;
        value           uniform -3.15174591e-05;
    }
    procBoundary4to5
    {
        type            processor;
        value           uniform -9.40871242e-05;
    }
}


// ************************************************************************* //
