/*--------------------------------*- C++ -*----------------------------------*\
| =========                 |                                                 |
| \\      /  F ield         | OpenFOAM: The Open Source CFD Toolbox           |
|  \\    /   O peration     | Version:  2306                                  |
|   \\  /    A nd           | Website:  www.openfoam.com                      |
|    \\/     M anipulation  |                                                 |
\*---------------------------------------------------------------------------*/
FoamFile
{
    version     2.0;
    format      ascii;
    arch        "LSB;label=32;scalar=64";
    class       volScalarField;
    location    "0.002";
    object      rho;
}
// * * * * * * * * * * * * * * * * * * * * * * * * * * * * * * * * * * * * * //

dimensions      [1 -3 0 0 0 0 0];

internalField   nonuniform List<scalar> 
531
(
0.902053825
0.901629492
0.938532574
0.960694333
0.955008626
0.967244852
0.964663534
0.902782956
0.902360995
0.902343188
0.935136765
0.940638131
0.902463861
0.90141578
0.93234968
0.938827088
0.946479563
0.957604899
0.941869871
0.90317499
0.900892973
0.90336288
0.90199985
0.923435999
0.964175351
0.964998837
0.910991408
0.902143495
0.940628335
0.957773154
0.904189786
0.903197725
0.932816488
0.96714149
0.966497557
0.904548211
0.901952521
0.90411277
0.935521665
0.955502359
0.946738189
0.904472868
0.901528726
0.904418136
0.901521343
0.924349153
0.943373197
0.953575515
0.954800532
0.970662915
0.971432622
0.924288976
0.902999109
0.90274331
0.902556653
0.935467817
0.949880729
0.904060135
0.902039042
0.936433598
0.94898944
0.903735255
0.902758082
0.933919122
0.942747824
0.943855586
0.958247374
0.953776202
0.904245109
0.903877477
0.903696347
0.903069911
0.938170436
0.957108943
0.953785218
0.964010591
0.963712469
0.903817629
0.903293403
0.933160879
0.951214376
0.938052829
0.902592468
0.901409174
0.902045752
0.936862609
0.955151871
0.90438514
0.903143065
0.934580293
0.965234787
0.965515153
0.925676929
0.902768252
0.931562528
0.948841501
0.959295096
0.939035668
0.90303142
0.902073181
0.902422519
0.936221459
0.940860436
0.90572643
0.928347055
0.964681666
0.917171664
0.903774494
0.935805944
0.947546342
0.964746127
0.9662238
0.929260424
0.903982872
0.902876357
0.935843612
0.952926435
0.910339563
0.904213165
0.929591623
0.958870331
0.961542121
0.922527407
0.904135989
0.931816036
0.963248833
0.966877046
0.933212983
0.904648265
0.90295458
0.904954572
0.90484079
0.921346391
0.956383263
0.961199718
0.920493664
0.904458493
0.931885476
0.964738944
0.964356499
0.914646298
0.936391839
0.966073199
0.905392702
0.904106171
0.935816743
0.951951485
0.950949865
0.965060752
0.962619601
0.905342683
0.903317208
0.905358905
0.903178504
0.935272066
0.948888496
0.912034699
0.903946077
0.904578533
0.904353419
0.934339318
0.971080262
0.971682814
0.925334651
0.903549172
0.937370513
0.959807922
0.907499612
0.903530828
0.93618186
0.949183541
0.964377421
0.967475267
0.932292704
0.904627851
0.903224611
0.9044998
0.905271708
0.927723434
0.962480326
0.963411523
0.912452374
0.903987935
0.935839253
0.974158838
0.976965248
0.93409724
0.904490712
0.902308542
0.903438629
0.936399969
0.947772937
0.905333906
0.904111437
0.932822531
0.943497194
0.944955767
0.96138209
0.961017833
0.914955309
0.904949474
0.906439741
0.904794042
0.904916397
0.950664822
0.963533609
0.907421554
0.904317348
0.936080185
0.946515038
0.968652494
0.968007312
0.914598125
0.903863149
0.945201456
0.959976249
0.90960273
0.903716698
0.946700268
0.954777136
0.906829265
0.904265291
0.904900637
0.939618679
0.952977656
0.905947083
0.905307767
0.930630933
0.962833487
0.962292089
0.907526416
0.903872326
0.937305337
0.948949503
0.906251808
0.904213271
0.934890713
0.93831935
0.961114655
0.960787192
0.906410613
0.936979888
0.970256415
0.906504918
0.904645046
0.945764316
0.959524966
0.907116738
0.904128589
0.949437329
0.956041514
0.905954667
0.904619443
0.904714638
0.940025067
0.954922076
0.906340537
0.904033973
0.945119318
0.951337811
0.906393397
0.904412605
0.905847673
0.931712799
0.944067815
0.96478562
0.969977379
0.934562328
0.906690489
0.90214234
0.904243582
0.955246951
0.976770902
0.940359159
0.906675183
0.902166449
0.906166551
0.903569705
0.919846618
0.93889656
0.955501722
0.955284698
0.966262647
0.978461028
0.940895688
0.90446138
0.902095119
0.903218597
0.937446631
0.950595138
0.907170074
0.904135277
0.915196219
0.953046191
0.967586439
0.936490004
0.905504935
0.903555109
0.904489501
0.916421543
0.942665066
0.951070682
0.956316676
0.95699472
0.97512843
0.974437094
0.909877693
0.903993085
0.905485724
0.903345812
0.937204892
0.958830069
0.904807691
0.902683995
0.949913758
0.95749113
0.904701976
0.903455284
0.904308762
0.940865837
0.956750442
0.904570962
0.903931796
0.932923046
0.969126458
0.971838494
0.930724173
0.902700715
0.900797434
0.901293252
0.939935316
0.965916649
0.90240076
0.901954891
0.930558048
0.975729968
0.974929063
0.901729616
0.898758698
0.956493582
0.965380932
0.898931114
0.896309151
0.896674274
0.954918529
0.970550735
0.897762547
0.892243871
0.963884044
0.976259627
0.902722782
0.895183234
0.896380118
0.971768826
0.986179446
0.915839777
0.902589446
0.906469634
0.904186168
0.905500981
0.904707987
0.905313397
0.905015358
0.905410721
0.90524453
0.905650518
0.905399951
0.905676098
0.90524884
0.905179384
0.90439428
0.903491668
0.901987365
0.899147494
0.895241055
0.885981407
0.883310888
0.890674979
0.896083391
0.902573062
0.907210866
0.912565096
0.916203723
0.920104297
0.922542202
0.925806693
0.930434641
0.934105232
0.933359317
0.938141807
0.942958515
0.947312869
0.950195979
0.95242766
0.953521489
0.953825176
0.960030062
0.967822816
0.976779409
0.984284719
0.993610633
0.995059287
0.911103644
0.924691926
0.938140122
0.953181039
0.967629704
0.982747007
0.997923397
1.01346867
1.02958724
1.04572999
1.05932055
1.06100993
1.03578108
1.04764842
1.06737459
1.0685699
1.03782297
0.918142191
0.92601944
0.918354331
0.87850172
0.721951988
0.700426535
0.681855482
0.660243353
0.636848395
0.608257176
0.576418577
0.53781326
0.500784197
0.45668944
0.409894344
0.389098604
0.372942028
0.355866734
0.336549275
0.325434535
0.314553825
0.306821276
0.297492873
0.291182434
0.282878502
0.277433967
0.270160231
0.265627891
0.25999244
0.256660935
0.25247074
0.249528203
0.246067873
0.243414742
0.240454308
0.23800898
0.235524027
0.23337155
0.23138352
0.229405097
0.227830767
0.225991252
0.224557293
0.222907607
0.221569618
0.220035788
0.21865518
0.217129223
0.215742959
0.214659391
0.213793657
0.212931253
0.212175633
0.211422494
0.210758491
0.210109911
0.209427003
0.208721852
0.208063576
0.207398795
0.206801811
0.206214054
0.20554528
0.204972171
0.204392893
0.203884741
0.203363474
0.202908064
0.202429612
0.202000424
0.201556062
0.201184823
0.200787386
0.200436536
0.200060367
0.199696474
0.199295394
0.198896705
0.198469499
0.198093586
0.197708756
0.197366203
0.197039498
0.196768494
0.196477991
0.196219671
0.195944589
0.195697593
0.195436306
0.195203261
0.194959786
0.19473736
0.19450229
0.194285522
0.194058072
0.193846342
0.193625755
0.193418454
0.19321036
0.193029777
0.19284127
0.192665551
0.192483762
0.19231262
0.192137093
0.191969309
0.191789795
0.191619001
0.191447152
0.191281948
0.191118503
0.190969848
)
;

boundaryField
{
    closed
    {
        type            calculated;
        value           nonuniform List<scalar> 0();
    }
    open
    {
        type            calculated;
        value           nonuniform List<scalar> 0();
    }
    sides
    {
        type            empty;
    }
    procBoundary4to3
    {
        type            processor;
        value           uniform 0.902287711;
    }
    procBoundary4to5
    {
        type            processor;
        value           uniform 0.190821229;
    }
}


// ************************************************************************* //
