/*--------------------------------*- C++ -*----------------------------------*\
| =========                 |                                                 |
| \\      /  F ield         | OpenFOAM: The Open Source CFD Toolbox           |
|  \\    /   O peration     | Version:  2306                                  |
|   \\  /    A nd           | Website:  www.openfoam.com                      |
|    \\/     M anipulation  |                                                 |
\*---------------------------------------------------------------------------*/
FoamFile
{
    version     2.0;
    format      ascii;
    arch        "LSB;label=32;scalar=64";
    class       volScalarField;
    location    "0.0019";
    object      H;
}
// * * * * * * * * * * * * * * * * * * * * * * * * * * * * * * * * * * * * * //

dimensions      [0 0 0 0 0 0 0];

internalField   nonuniform List<scalar> 
531
(
1.32822111e-09
1.20417111e-09
2.50153147e-08
4.41177919e-08
3.76986788e-08
9.14091143e-10
1.2262598e-09
2.81130698e-08
4.30733147e-08
4.64500305e-08
3.7989944e-08
9.01388843e-10
1.20152348e-09
2.86817976e-08
4.68774252e-08
3.64766005e-08
8.75274614e-10
1.25464081e-09
2.59309379e-08
4.57667123e-08
3.66787636e-08
8.71440696e-10
1.24920453e-09
2.56751952e-08
4.57421324e-08
3.67953754e-08
8.60479928e-10
1.24241279e-09
2.56638186e-08
4.57376634e-08
3.68040781e-08
8.51651304e-10
1.23260061e-09
2.63475721e-08
4.5991835e-08
3.56189915e-08
8.74403867e-10
1.12201651e-09
3.02588798e-08
5.02686419e-08
4.3282495e-08
5.22090544e-10
1.17181115e-09
1.02123969e-09
1.18111653e-09
2.19073571e-08
4.31130211e-08
4.92345677e-08
3.79817186e-08
7.72692813e-10
8.67469849e-09
4.11156524e-08
3.19252396e-08
9.70811637e-10
1.05283153e-09
3.39139126e-08
4.8357294e-08
3.25088535e-08
8.43626161e-10
1.19519986e-08
3.85157105e-08
2.70539176e-08
1.0602355e-09
1.17533434e-09
3.1137506e-08
4.58946681e-08
2.82652751e-08
9.52967877e-10
1.16865594e-08
3.72836727e-08
2.94400452e-08
9.12711802e-10
1.37039318e-09
1.12972538e-08
3.65801962e-08
4.02349414e-08
4.34623228e-08
4.49589813e-08
2.26536829e-08
1.04580732e-09
1.01529986e-09
3.73327461e-08
4.78491692e-08
2.18038911e-08
1.02594844e-09
1.32654444e-08
3.8532894e-08
3.28652918e-08
6.54663064e-10
1.39250592e-09
1.06662671e-09
3.10610121e-08
4.03653309e-08
4.46108281e-08
4.61728465e-08
2.01110714e-08
1.0604735e-09
4.16759749e-09
3.97483356e-08
4.54766198e-08
1.80009566e-08
1.06964633e-09
6.50497578e-09
4.19278651e-08
4.47256095e-08
9.54212651e-09
1.07035822e-09
1.1485892e-09
7.03803165e-09
3.30795232e-08
4.67792622e-08
4.65094388e-08
1.45700678e-08
1.08176044e-09
1.11382544e-08
4.25876745e-08
4.57232551e-08
1.50659685e-08
1.07710504e-09
1.09291438e-08
4.29491607e-08
4.49692887e-08
1.18878766e-08
1.1785091e-09
2.7583691e-08
3.77310377e-08
1.95910141e-09
1.2190346e-09
1.77350219e-08
4.42772179e-08
4.4805991e-08
7.87868835e-09
1.11057419e-09
1.69099447e-08
4.58279104e-08
4.55960623e-08
5.05190834e-09
1.09570314e-09
2.01159302e-08
4.78665849e-08
4.6616094e-08
3.52461755e-09
1.17108261e-09
3.28432354e-08
4.03246704e-08
7.504841e-10
1.14907151e-09
2.57387134e-08
4.97114263e-08
4.76589479e-08
5.22469834e-10
1.1715862e-09
3.54395289e-08
4.13010498e-08
8.06561909e-10
1.21255047e-09
3.96360202e-08
4.42414378e-08
8.44047849e-10
1.19473472e-09
3.88424027e-08
4.0915421e-08
9.46535187e-10
1.16151547e-09
2.61970935e-08
4.67651769e-08
4.42626843e-08
1.02052468e-09
1.23342716e-09
3.38601866e-08
3.66587584e-08
1.11632491e-09
1.30143063e-09
2.32834677e-08
3.96353638e-08
4.00202383e-08
4.87655112e-08
4.64059904e-08
1.05492833e-09
1.1883657e-09
3.75801201e-08
3.9404475e-08
1.14139138e-09
1.17654972e-09
2.98603642e-08
4.7397295e-08
4.41274429e-08
1.10774069e-09
1.21197442e-09
3.54983241e-08
3.78794712e-08
1.13946736e-09
1.19421205e-09
2.9854622e-08
4.66299854e-08
4.34405049e-08
1.11142671e-09
1.22341507e-09
3.54598622e-08
3.76112851e-08
1.10078271e-09
1.20100292e-09
3.03944873e-08
4.62555076e-08
4.3345331e-08
1.10981705e-09
1.21969041e-09
3.48475247e-08
3.6982742e-08
1.06128958e-09
1.23693773e-09
2.95126879e-08
4.42973628e-08
4.1808326e-08
1.12946681e-09
1.21473672e-09
2.56538158e-08
4.31451514e-08
4.07444748e-08
1.12608902e-09
1.27634371e-09
2.58581688e-08
3.96445159e-08
4.31336477e-08
4.21472156e-08
1.10942872e-09
1.22245997e-09
3.04525343e-08
4.48786409e-08
4.23688836e-08
1.08816089e-09
1.24022198e-09
2.80655964e-08
4.38046907e-08
4.14951662e-08
1.0887249e-09
1.25268015e-09
2.7774358e-08
4.35128069e-08
4.13716426e-08
1.08696443e-09
1.25151746e-09
2.88079644e-08
4.42390973e-08
4.19967022e-08
1.04706395e-09
1.28113352e-09
3.36824307e-08
3.62562507e-08
9.29992151e-10
1.28979484e-09
2.9870625e-08
4.29495956e-08
4.08811603e-08
1.06743798e-09
1.27466705e-09
2.91745724e-08
4.36552343e-08
4.17425731e-08
1.07235441e-09
1.23913028e-09
3.05231355e-08
4.71880802e-08
4.12612299e-08
9.22721836e-10
1.38142819e-09
1.27805433e-09
3.32295201e-08
4.47072434e-08
4.63232005e-08
4.62074662e-08
9.45500915e-10
1.19448011e-09
3.86533403e-08
4.17905427e-08
8.01232062e-10
1.24253775e-09
3.61458542e-08
3.87474601e-08
8.79922644e-10
1.25772857e-09
3.30138912e-08
4.45071114e-08
4.23175005e-08
1.0554762e-09
1.24569943e-09
3.2162827e-08
4.57034315e-08
4.35557488e-08
1.02854087e-09
1.27125348e-09
3.48813566e-08
3.87130441e-08
8.86578787e-10
1.32106661e-09
3.42971607e-08
3.66332004e-08
9.47264016e-10
1.31120544e-09
3.22294991e-08
4.34591531e-08
4.14537575e-08
1.09216728e-09
1.28779992e-09
3.08802119e-08
4.40876379e-08
4.16273466e-08
1.09569103e-09
1.29208188e-09
3.14318261e-08
4.44010612e-08
4.20466417e-08
1.11848429e-09
1.28322658e-09
2.87299573e-08
4.62467631e-08
2.94559193e-08
1.09191544e-09
3.11877694e-08
3.97216834e-08
9.81076142e-10
1.26502025e-09
2.55243839e-08
4.49842805e-08
2.28371031e-08
8.65685577e-10
3.23637758e-08
3.97706175e-08
9.79446615e-10
1.32359625e-09
3.10872476e-08
4.00299515e-08
4.33060648e-08
2.95147149e-08
1.13665042e-09
3.23228261e-08
4.15350603e-08
9.02518117e-10
1.32140021e-09
3.73128528e-08
3.88030958e-08
8.21611421e-10
1.37936301e-09
1.22702622e-09
3.31790065e-08
4.45890905e-08
4.52074487e-08
4.33017656e-08
1.01408469e-09
2.36610809e-08
4.35837606e-08
8.52540084e-10
1.27933578e-09
3.88772834e-08
4.296062e-08
8.23713006e-10
1.31564045e-09
3.57129755e-08
3.84382157e-08
9.2627304e-10
1.31945644e-09
3.24712713e-08
4.30235017e-08
4.54587867e-08
2.12795727e-08
1.15211737e-09
3.23533683e-08
4.05397261e-08
9.31555013e-10
8.04270022e-10
3.78674738e-08
3.61275155e-08
1.18512382e-09
1.33663242e-09
3.09052203e-08
4.46721585e-08
4.39405573e-08
1.0404578e-09
1.37322112e-09
3.27404809e-08
3.57042989e-08
9.1894799e-10
1.36236736e-09
3.08182409e-08
4.10088385e-08
4.50509496e-08
4.47573834e-08
7.69840497e-10
1.32648789e-09
1.22922235e-09
3.4731721e-08
5.0020447e-08
4.23799363e-08
9.75757045e-10
1.28693953e-09
2.97175609e-08
4.40883213e-08
4.3583353e-08
1.04789561e-09
1.35480753e-09
3.32167083e-08
3.60727005e-08
9.33792186e-10
1.3555146e-09
3.09467648e-08
4.11190048e-08
3.91942852e-08
4.34917338e-08
4.23002372e-08
1.05194664e-09
1.39168512e-09
3.0628732e-08
3.69582052e-08
8.71457383e-10
1.41704152e-09
3.37799866e-08
3.73750557e-08
8.60224322e-10
1.37546299e-09
3.24751737e-08
3.99447314e-08
4.37470571e-08
3.73612377e-08
1.00901259e-09
2.66445929e-08
4.24533328e-08
7.76529392e-10
1.26602249e-09
3.63616867e-08
4.32854136e-08
7.3524822e-10
1.07753615e-09
3.85989537e-08
3.89974999e-08
9.65934116e-10
1.31343179e-09
2.9337528e-08
4.27880897e-08
3.77843573e-08
1.05965256e-09
1.35662896e-09
2.51589273e-08
4.26416404e-08
4.26033968e-08
9.97734481e-10
1.29621903e-09
2.65943214e-08
4.31716916e-08
4.25441318e-08
1.04590962e-09
1.30147829e-09
2.7629339e-08
4.34393133e-08
4.26025844e-08
1.05645379e-09
1.29628454e-09
2.90808891e-08
4.42010287e-08
4.23871138e-08
1.06382776e-09
1.29126748e-09
3.08738957e-08
4.47531725e-08
4.05012457e-08
1.06660069e-09
1.29712159e-09
3.24504687e-08
4.63943487e-08
4.56751919e-08
1.02944926e-09
1.32608904e-09
3.50974308e-08
3.82500199e-08
9.59500534e-10
1.29374e-09
3.18718688e-08
4.61787768e-08
3.67006155e-08
1.05251271e-09
1.44845602e-09
1.38781918e-09
3.17296146e-08
4.152342e-08
4.30818589e-08
4.23856552e-08
1.10604376e-09
1.24527516e-09
3.59525806e-08
4.84353239e-08
1.43070499e-08
5.81236078e-10
3.45221548e-08
3.90691399e-08
1.01720519e-09
1.23042291e-09
3.12553539e-08
5.01202833e-08
4.94165588e-08
9.66151474e-10
1.31839092e-09
3.65655203e-08
3.21941137e-08
1.18862318e-09
3.26595924e-08
3.78076615e-08
8.55876357e-10
1.39396694e-09
1.23553081e-09
2.90477347e-08
4.24052669e-08
4.15344804e-08
3.97871603e-08
1.18528313e-09
1.30711634e-09
2.9390996e-08
4.34277987e-08
3.48712832e-08
1.16833354e-09
1.3597498e-09
3.21293845e-08
4.54441559e-08
3.81984364e-08
1.1449921e-09
1.30003613e-09
3.28999147e-08
4.64888112e-08
3.85962526e-08
1.04277251e-09
1.3354322e-09
3.93507035e-08
4.52124639e-08
)
;

boundaryField
{
    closed
    {
        type            calculated;
        value           nonuniform List<scalar> 0();
    }
    open
    {
        type            calculated;
        value           nonuniform List<scalar> 0();
    }
    sides
    {
        type            empty;
    }
    procBoundary1to0
    {
        type            processor;
        value           uniform 6.51986284e-10;
    }
    procBoundary1to2
    {
        type            processor;
        value           uniform 9.1355967e-10;
    }
}


// ************************************************************************* //
