/*--------------------------------*- C++ -*----------------------------------*\
| =========                 |                                                 |
| \\      /  F ield         | OpenFOAM: The Open Source CFD Toolbox           |
|  \\    /   O peration     | Version:  2306                                  |
|   \\  /    A nd           | Website:  www.openfoam.com                      |
|    \\/     M anipulation  |                                                 |
\*---------------------------------------------------------------------------*/
FoamFile
{
    version     2.0;
    format      ascii;
    arch        "LSB;label=32;scalar=64";
    class       volScalarField;
    location    "0.00154";
    object      prefDPV_H2O;
}
// * * * * * * * * * * * * * * * * * * * * * * * * * * * * * * * * * * * * * //

dimensions      [1 -1 -1 0 0 0 0];

internalField   nonuniform List<scalar> 
531
(
-3.84298041e-07
-3.67381242e-07
-3.63355811e-07
-3.64622621e-07
-3.84557643e-07
-3.83613416e-07
-3.84119855e-07
-3.68084873e-07
-3.64912146e-07
-3.65577439e-07
-3.64382953e-07
-3.6442111e-07
-3.8434632e-07
-3.83928893e-07
-3.65391589e-07
-3.65599521e-07
-3.84365314e-07
-3.83594215e-07
-3.84298497e-07
-3.68110869e-07
-3.63949125e-07
-3.64772125e-07
-3.8435169e-07
-3.84089005e-07
-3.758561e-07
-3.64603381e-07
-3.64589008e-07
-3.63204658e-07
-3.63252582e-07
-3.84640775e-07
-3.84370948e-07
-3.63616848e-07
-3.63449321e-07
-3.84728142e-07
-3.8422827e-07
-3.84116264e-07
-3.84050468e-07
-3.65974524e-07
-3.65207356e-07
-3.83898698e-07
-3.83858025e-07
-3.6655365e-07
-3.65369977e-07
-3.64425283e-07
-3.64728648e-07
-3.84333641e-07
-3.83811168e-07
-3.84141407e-07
-3.6613625e-07
-3.64600081e-07
-3.84106263e-07
-3.83844855e-07
-3.65215206e-07
-3.65648604e-07
-3.84040762e-07
-3.66210026e-07
-3.64678392e-07
-3.84245156e-07
-3.83670115e-07
-3.84111858e-07
-3.67161702e-07
-3.64606456e-07
-3.6431967e-07
-3.64486339e-07
-3.84410612e-07
-3.83733227e-07
-3.84304233e-07
-3.67648003e-07
-3.64123566e-07
-3.64746852e-07
-3.83891759e-07
-3.84059814e-07
-3.67891277e-07
-3.63896452e-07
-3.65691441e-07
-3.84578413e-07
-3.68281678e-07
-3.63764066e-07
-3.8358199e-07
-3.84320941e-07
-3.6792716e-07
-3.63506627e-07
-3.64164813e-07
-3.8439942e-07
-3.84204644e-07
-3.83981313e-07
-3.84256259e-07
-3.66175748e-07
-3.63210528e-07
-3.64552477e-07
-3.84528174e-07
-3.83776421e-07
-3.84223226e-07
-3.66432505e-07
-3.64300742e-07
-3.64585977e-07
-3.83833146e-07
-3.84150737e-07
-3.67247765e-07
-3.63660238e-07
-3.65569416e-07
-3.84546156e-07
-3.67565506e-07
-3.63656077e-07
-3.83444135e-07
-3.84337736e-07
-3.6769491e-07
-3.64056118e-07
-3.64980647e-07
-3.84371933e-07
-3.83859241e-07
-3.84212554e-07
-3.65553545e-07
-3.64417285e-07
-3.63184189e-07
-3.63291637e-07
-3.84644256e-07
-3.84472975e-07
-3.84546626e-07
-3.84392001e-07
-3.63853084e-07
-3.63856509e-07
-3.84467778e-07
-3.84227285e-07
-3.84347598e-07
-3.84099091e-07
-3.76638233e-07
-3.65089005e-07
-3.63974788e-07
-3.63914629e-07
-3.84253073e-07
-3.84669595e-07
-3.64838708e-07
-3.61748485e-07
-3.63085438e-07
-3.84823203e-07
-3.84441586e-07
-3.84796217e-07
-3.64233249e-07
-3.63280751e-07
-3.84143963e-07
-3.84546259e-07
-3.84043052e-07
-3.84525275e-07
-3.65828076e-07
-3.64589611e-07
-3.63868245e-07
-3.64387357e-07
-3.84699229e-07
-3.84251233e-07
-3.85115858e-07
-3.65131967e-07
-3.61031648e-07
-3.63027307e-07
-3.84891198e-07
-3.84541564e-07
-3.84953366e-07
-3.84386015e-07
-3.85016819e-07
-3.64645858e-07
-3.63406964e-07
-3.62734994e-07
-3.63362206e-07
-3.84766802e-07
-3.84463296e-07
-3.84836492e-07
-3.84223592e-07
-3.84936413e-07
-3.65349465e-07
-3.63851772e-07
-3.63551463e-07
-3.63987304e-07
-3.84294574e-07
-3.84487989e-07
-3.84116569e-07
-3.84655232e-07
-3.65530241e-07
-3.64290203e-07
-3.63958889e-07
-3.64448731e-07
-3.84113383e-07
-3.84285522e-07
-3.83943762e-07
-3.84514819e-07
-3.65893107e-07
-3.64611121e-07
-3.64528599e-07
-3.64944024e-07
-3.84042938e-07
-3.8480347e-07
-3.64593201e-07
-3.65069432e-07
-3.83929242e-07
-3.84496249e-07
-3.65060225e-07
-3.65171482e-07
-3.83687422e-07
-3.84734226e-07
-3.65997338e-07
-3.63547999e-07
-3.65029297e-07
-3.84213251e-07
-3.83966779e-07
-3.84507709e-07
-3.83944465e-07
-3.84844187e-07
-3.65501485e-07
-3.64355599e-07
-3.64078145e-07
-3.64730409e-07
-3.84367505e-07
-3.8518742e-07
-3.64116498e-07
-3.65331391e-07
-3.84687725e-07
-3.8411841e-07
-3.85160284e-07
-3.65152424e-07
-3.63322e-07
-3.63092425e-07
-3.63909877e-07
-3.84627403e-07
-3.8485592e-07
-3.84496187e-07
-3.85347142e-07
-3.64681139e-07
-3.62213805e-07
-3.64039289e-07
-3.84711892e-07
-3.84713376e-07
-3.84548301e-07
-3.85293825e-07
-3.64387844e-07
-3.65267568e-07
-3.8489237e-07
-3.64790937e-07
-3.64695251e-07
-3.8446462e-07
-3.84056761e-07
-3.84899116e-07
-3.65493019e-07
-3.63915152e-07
-3.63888986e-07
-3.64729114e-07
-3.84333291e-07
-3.84385245e-07
-3.84182441e-07
-3.84704315e-07
-3.6567685e-07
-3.64495088e-07
-3.64198211e-07
-3.65165506e-07
-3.84591871e-07
-3.84089657e-07
-3.84981812e-07
-3.64771442e-07
-3.64759287e-07
-3.84193864e-07
-3.84431277e-07
-3.84110335e-07
-3.84773407e-07
-3.65640489e-07
-3.64299596e-07
-3.64912759e-07
-3.63855384e-07
-3.64633178e-07
-3.84331652e-07
-3.84843065e-07
-3.64727793e-07
-3.64954092e-07
-3.8425992e-07
-3.84783572e-07
-3.64228741e-07
-3.65202543e-07
-3.84667872e-07
-3.84052084e-07
-3.85016824e-07
-3.64532267e-07
-3.64659622e-07
-3.84213056e-07
-3.8439809e-07
-3.84111139e-07
-3.84646057e-07
-3.65610794e-07
-3.64215442e-07
-3.64892526e-07
-3.6390868e-07
-3.6457258e-07
-3.84212541e-07
-3.84452133e-07
-3.65177977e-07
-3.65632488e-07
-3.84186289e-07
-3.83566484e-07
-3.84518162e-07
-3.6665102e-07
-3.64414056e-07
-3.65219206e-07
-3.63883283e-07
-3.64521214e-07
-3.84241057e-07
-3.84138032e-07
-3.84100176e-07
-3.84164306e-07
-3.65426993e-07
-3.66102693e-07
-3.84128905e-07
-3.67588663e-07
-3.64782391e-07
-3.83416055e-07
-3.84164336e-07
-3.66260129e-07
-3.64821099e-07
-3.64462445e-07
-3.64991848e-07
-3.84264206e-07
-3.83942111e-07
-3.84264703e-07
-3.65041813e-07
-3.64993983e-07
-3.84155766e-07
-3.64970281e-07
-3.64468528e-07
-3.84265202e-07
-3.83906974e-07
-3.84313806e-07
-3.65544785e-07
-3.64443504e-07
-3.8372455e-07
-3.84196682e-07
-3.65999561e-07
-3.64191091e-07
-3.64976194e-07
-3.83995237e-07
-3.83877792e-07
-3.65501822e-07
-3.65119312e-07
-3.83647181e-07
-3.84001419e-07
-3.66632373e-07
-3.64461124e-07
-3.65041218e-07
-3.84095565e-07
-3.8382324e-07
-3.65180832e-07
-3.64938464e-07
-3.84168129e-07
-3.83864691e-07
-3.64675449e-07
-3.65138819e-07
-3.84358507e-07
-3.83681118e-07
-3.84397433e-07
-3.66356393e-07
-3.63681838e-07
-3.64466442e-07
-3.84243315e-07
-3.84271575e-07
-3.65283797e-07
-3.63493225e-07
-3.63937456e-07
-3.84457559e-07
-3.84138425e-07
-3.64931233e-07
-3.64362274e-07
-3.84480256e-07
-3.84025761e-07
-3.6493996e-07
-3.64728246e-07
-3.84463307e-07
-3.8388235e-07
-3.64899173e-07
-3.65424909e-07
-3.84302654e-07
-3.67831192e-07
-3.64021857e-07
-3.83837497e-07
-3.84079845e-07
-3.66799693e-07
-3.63984518e-07
-3.65274132e-07
-3.84272582e-07
-3.83595683e-07
-3.83735391e-07
-3.66459371e-07
-3.660807e-07
-3.83931454e-07
-3.8362942e-07
-3.71428222e-07
-3.6595261e-07
-3.6551288e-07
-3.65466087e-07
-3.84296579e-07
-3.83957992e-07
-3.66072136e-07
-3.6445603e-07
-3.64368963e-07
-3.84321398e-07
-3.84129857e-07
-3.65798795e-07
-3.63817642e-07
-3.63793617e-07
-3.84406891e-07
-3.84318229e-07
-3.65477492e-07
-3.63164237e-07
-3.63700866e-07
-3.84686966e-07
-3.8402161e-07
-3.84058518e-07
-3.83841723e-07
-3.66635987e-07
-3.65440667e-07
-3.84326894e-07
-3.83625992e-07
-3.66590469e-07
-3.66006191e-07
-3.8423961e-07
-3.83581961e-07
-3.70981034e-07
-3.65630203e-07
-3.65176247e-07
-3.65110432e-07
-3.84529089e-07
-3.83701169e-07
-3.66171437e-07
-3.65409867e-07
-3.84488088e-07
-3.83721724e-07
-3.6766261e-07
-3.65410355e-07
-3.65088103e-07
-3.65006105e-07
-3.84899954e-07
-3.83865341e-07
-3.65157356e-07
-3.65014451e-07
-3.85333606e-07
-3.83653948e-07
-3.84485448e-07
-3.67067021e-07
-3.63148624e-07
-3.65017641e-07
-3.8495503e-07
-3.66103003e-07
-3.64844325e-07
-3.85407682e-07
-3.83722062e-07
-3.84505521e-07
-3.68318033e-07
-3.6356957e-07
-3.65333834e-07
-3.84938183e-07
-3.66240274e-07
-3.64878119e-07
-3.85443033e-07
-3.83734836e-07
-3.84470276e-07
-3.67552299e-07
-3.63431526e-07
-3.65122055e-07
-3.85075567e-07
-3.66128053e-07
-3.64656059e-07
-3.85629464e-07
-3.84001002e-07
-3.84580873e-07
-3.66385237e-07
-3.64796454e-07
-3.85484083e-07
-3.8406862e-07
-3.65725814e-07
-3.6516395e-07
-3.85817181e-07
-3.83879979e-07
-3.8451091e-07
-3.66041505e-07
-3.63711647e-07
-3.63650782e-07
-3.63579647e-07
-3.85741152e-07
-3.84260025e-07
-3.65120225e-07
-3.6465782e-07
-3.86026977e-07
-3.83892443e-07
-3.84491278e-07
-3.66519271e-07
-3.64873074e-07
-3.85428175e-07
-3.83949781e-07
-3.66705019e-07
-3.6560568e-07
-3.85266035e-07
-3.83882822e-07
-3.67287142e-07
-3.65384823e-07
-3.6495183e-07
-3.64856742e-07
-3.85491816e-07
-3.84024011e-07
-3.65844272e-07
-3.64606809e-07
-3.85756965e-07
-3.84016263e-07
-3.66012461e-07
-3.64935712e-07
-3.85625817e-07
-3.83856656e-07
-3.667467e-07
-3.65824871e-07
-3.85282871e-07
-3.83765002e-07
-3.68337263e-07
-3.65624108e-07
-3.65208878e-07
-3.65120309e-07
-3.85379702e-07
-3.83871331e-07
-3.66380591e-07
-3.65222753e-07
-3.85426608e-07
-3.84026127e-07
-3.69361084e-07
-3.64751506e-07
-3.64746798e-07
-3.84991547e-07
-3.83911645e-07
-3.66357741e-07
-3.65090378e-07
-3.86153014e-07
)
;

boundaryField
{
    closed
    {
        type            calculated;
        value           nonuniform List<scalar> 0();
    }
    open
    {
        type            calculated;
        value           nonuniform List<scalar> 0();
    }
    sides
    {
        type            empty;
    }
    procBoundary3to2
    {
        type            processor;
        value           uniform -3.83642172e-07;
    }
    procBoundary3to4
    {
        type            processor;
        value           uniform -3.84166003e-07;
    }
}


// ************************************************************************* //
