/*--------------------------------*- C++ -*----------------------------------*\
| =========                 |                                                 |
| \\      /  F ield         | OpenFOAM: The Open Source CFD Toolbox           |
|  \\    /   O peration     | Version:  2306                                  |
|   \\  /    A nd           | Website:  www.openfoam.com                      |
|    \\/     M anipulation  |                                                 |
\*---------------------------------------------------------------------------*/
FoamFile
{
    version     2.0;
    format      ascii;
    arch        "LSB;label=32;scalar=64";
    class       volScalarField;
    location    "0.00176";
    object      alpha;
}
// * * * * * * * * * * * * * * * * * * * * * * * * * * * * * * * * * * * * * //

dimensions      [1 -1 -1 0 0 0 0];

internalField   nonuniform List<scalar> 
531
(
3.68097645e-05
3.67953281e-05
3.68096008e-05
3.67971168e-05
3.56826082e-05
3.52452798e-05
3.48506947e-05
3.48486732e-05
3.68090543e-05
3.68002184e-05
3.52799584e-05
3.50438739e-05
3.68039924e-05
3.67953415e-05
3.54780328e-05
3.51094921e-05
3.68076155e-05
3.67878439e-05
3.57399828e-05
3.48891605e-05
3.49105185e-05
3.67854221e-05
3.68077052e-05
3.53470509e-05
3.52134579e-05
3.68106987e-05
3.67978586e-05
3.68022981e-05
3.54737328e-05
3.52428574e-05
3.68261719e-05
3.67963719e-05
3.68091766e-05
3.57423178e-05
3.46628327e-05
3.47905626e-05
3.68128439e-05
3.68069953e-05
3.68094723e-05
3.5534961e-05
3.52510868e-05
3.68294541e-05
3.68001283e-05
3.68092059e-05
3.57454092e-05
3.50058611e-05
3.50107618e-05
3.68127385e-05
3.68086039e-05
3.57393111e-05
3.52179469e-05
3.48621618e-05
3.48651182e-05
3.68248779e-05
3.67969033e-05
3.68095278e-05
3.5695019e-05
3.50543356e-05
3.68128487e-05
3.68003962e-05
3.54654508e-05
3.52877658e-05
3.68106199e-05
3.68024609e-05
3.54280867e-05
3.54342483e-05
3.68202406e-05
3.57628048e-05
3.49347846e-05
3.68209911e-05
3.67989534e-05
3.5601111e-05
3.51462959e-05
3.68216502e-05
3.67941975e-05
3.5736828e-05
3.4951407e-05
3.50050064e-05
3.68072598e-05
3.68023316e-05
3.68019593e-05
3.5616587e-05
3.53145883e-05
3.68222796e-05
3.67888264e-05
3.57512637e-05
3.51445381e-05
3.52481129e-05
3.4600042e-05
3.46243198e-05
3.67999776e-05
3.68206546e-05
3.67896685e-05
3.68215993e-05
3.67830774e-05
3.57175625e-05
3.49989582e-05
3.50105909e-05
3.67954692e-05
3.68260594e-05
3.54710781e-05
3.52546687e-05
3.68093998e-05
3.68136229e-05
3.53795205e-05
3.53845971e-05
3.68278877e-05
3.5735976e-05
3.48840488e-05
3.68224134e-05
3.68081519e-05
3.54005778e-05
3.51701393e-05
3.6820817e-05
3.68078913e-05
3.52869393e-05
3.52895105e-05
3.68311472e-05
3.68041221e-05
3.68163911e-05
3.57566905e-05
3.50363885e-05
3.50364032e-05
3.68234934e-05
3.68087009e-05
3.57265567e-05
3.49964935e-05
3.50108107e-05
3.68057681e-05
3.68252602e-05
3.55764561e-05
3.52987462e-05
3.68138213e-05
3.68159472e-05
3.56062566e-05
3.54095379e-05
3.6816474e-05
3.68067205e-05
3.57426766e-05
3.54340501e-05
3.51208542e-05
3.51223973e-05
3.68112058e-05
3.68067495e-05
3.52237213e-05
3.52349734e-05
3.68207624e-05
3.68019187e-05
3.68133633e-05
3.5695382e-05
3.5123318e-05
3.68165114e-05
3.6804215e-05
3.54214052e-05
3.52556803e-05
3.68149697e-05
3.68038531e-05
3.53045851e-05
3.53181731e-05
3.68149856e-05
3.67964887e-05
3.68035357e-05
3.58060493e-05
3.52519585e-05
3.5053708e-05
3.50557258e-05
3.68009169e-05
3.68105821e-05
3.52124709e-05
3.51131259e-05
3.68026642e-05
3.68096233e-05
3.51649244e-05
3.51627051e-05
3.6813114e-05
3.68040796e-05
3.68048939e-05
3.5727849e-05
3.47937712e-05
3.48471279e-05
3.67840155e-05
3.68146403e-05
3.52902926e-05
3.5120238e-05
3.68061567e-05
3.68016663e-05
3.67988071e-05
3.67995174e-05
3.58564988e-05
3.5483799e-05
3.53628062e-05
3.5256738e-05
3.47242177e-05
3.47269871e-05
3.68071765e-05
3.67995103e-05
3.68064109e-05
3.67984668e-05
3.57478365e-05
3.52614077e-05
3.50110804e-05
3.50206288e-05
3.68162833e-05
3.6796275e-05
3.68119126e-05
3.55823811e-05
3.52695618e-05
3.68189996e-05
3.67947453e-05
3.68106896e-05
3.57619979e-05
3.50529248e-05
3.50560342e-05
3.68125071e-05
3.6806174e-05
3.57223709e-05
3.49147386e-05
3.49519589e-05
3.67942956e-05
3.68202095e-05
3.53168053e-05
3.53140028e-05
3.68092772e-05
3.68065435e-05
3.68019017e-05
3.57352372e-05
3.48317178e-05
3.49742467e-05
3.67966566e-05
3.68102971e-05
3.67951825e-05
3.54292486e-05
3.49915317e-05
3.68275813e-05
3.67896043e-05
3.5674848e-05
3.67931253e-05
3.68230915e-05
3.55742059e-05
3.53923413e-05
3.50116722e-05
3.50149823e-05
3.68029388e-05
3.67968866e-05
3.6795341e-05
3.57551642e-05
3.50853847e-05
3.52564924e-05
3.4656748e-05
3.46645047e-05
3.67918384e-05
3.67922423e-05
3.67933876e-05
3.52196396e-05
3.48808896e-05
3.68102321e-05
3.67925599e-05
3.68070985e-05
3.67972539e-05
3.56540959e-05
3.51200811e-05
3.68158251e-05
3.67866531e-05
3.57192465e-05
3.49110386e-05
3.4940438e-05
3.6778722e-05
3.68175993e-05
3.53532518e-05
3.53415343e-05
3.6793314e-05
3.68026917e-05
3.67826018e-05
3.58150853e-05
3.50715866e-05
3.52329042e-05
3.4618265e-05
3.46359647e-05
3.67899617e-05
3.68141875e-05
3.67887278e-05
3.68143621e-05
3.67881123e-05
3.5720112e-05
3.4996276e-05
3.5011935e-05
3.67791973e-05
3.68181362e-05
3.53707658e-05
3.53672086e-05
3.67978157e-05
3.679996e-05
3.67884467e-05
3.57808729e-05
3.50685361e-05
3.52527894e-05
3.46332401e-05
3.46449543e-05
3.67902045e-05
3.67929534e-05
3.67946063e-05
3.51861231e-05
3.48024408e-05
3.68022224e-05
3.67922884e-05
3.6795268e-05
3.67979765e-05
3.54086316e-05
3.51108725e-05
3.68037816e-05
3.67859958e-05
3.67994929e-05
3.67834115e-05
3.58342042e-05
3.52270345e-05
3.53300051e-05
3.48189911e-05
3.48265943e-05
3.67895487e-05
3.68059051e-05
3.50730443e-05
3.48869568e-05
3.68049954e-05
3.6806805e-05
3.68038146e-05
3.6811198e-05
3.56583096e-05
3.50533596e-05
3.47414645e-05
3.47465933e-05
3.68259932e-05
3.68146753e-05
3.68248529e-05
3.54429327e-05
3.50638779e-05
3.68388233e-05
3.68252485e-05
3.68391027e-05
3.56922111e-05
3.48783289e-05
3.49238084e-05
3.68368836e-05
3.68691377e-05
3.52970193e-05
3.52178939e-05
3.68663965e-05
3.68838604e-05
3.68721056e-05
3.58124706e-05
3.48327195e-05
3.49088323e-05
3.4239699e-05
3.42736295e-05
3.69057533e-05
3.69770777e-05
3.69396303e-05
3.70089583e-05
3.69922518e-05
3.70494105e-05
3.70361547e-05
3.44707371e-05
3.4244192e-05
3.70016732e-05
3.7121459e-05
3.70479814e-05
3.48091781e-05
3.44459923e-05
3.69064704e-05
3.69719565e-05
3.68889226e-05
3.69213565e-05
3.68606105e-05
3.68819847e-05
3.68339285e-05
3.45112534e-05
3.42656121e-05
3.66387222e-05
3.67082842e-05
3.66390669e-05
3.66709432e-05
3.66249236e-05
3.66394378e-05
3.66077238e-05
3.66152566e-05
3.65936525e-05
3.66046991e-05
3.65920946e-05
3.66191032e-05
3.66284824e-05
3.66922101e-05
3.67497566e-05
3.69388668e-05
3.71658338e-05
3.71237847e-05
3.69862435e-05
3.67729319e-05
3.66452886e-05
3.64582209e-05
3.63470172e-05
3.61883429e-05
3.60989452e-05
3.59724817e-05
3.5878688e-05
3.5708965e-05
3.56133218e-05
3.5559815e-05
3.56283689e-05
3.54518173e-05
3.5388313e-05
3.52289527e-05
3.51880052e-05
3.50508126e-05
3.50301607e-05
3.48903451e-05
3.47307026e-05
3.44148198e-05
3.42428485e-05
3.3937723e-05
3.37476369e-05
3.34558981e-05
3.32438916e-05
3.32171595e-05
3.57020948e-05
3.52822171e-05
3.49375821e-05
3.45113043e-05
3.41416072e-05
3.37048149e-05
3.33009467e-05
3.28439444e-05
3.23756758e-05
3.18869851e-05
3.13905901e-05
3.13263878e-05
3.1248802e-05
3.11791737e-05
3.10964325e-05
3.10217109e-05
3.09369311e-05
3.08559935e-05
3.08157086e-05
3.08139902e-05
3.06680481e-05
3.05252288e-05
3.13079328e-05
3.2653204e-05
3.43081462e-05
3.52730461e-05
3.6858422e-05
3.83389569e-05
4.01165437e-05
4.12625464e-05
4.29293078e-05
4.38403037e-05
4.51957407e-05
4.60556816e-05
4.74981488e-05
4.84068193e-05
4.99841741e-05
5.09001488e-05
5.25049495e-05
5.33581715e-05
5.49238109e-05
5.5692806e-05
5.71617561e-05
5.78254335e-05
5.91595547e-05
5.97380993e-05
6.09749499e-05
6.14813253e-05
6.26280198e-05
6.30762145e-05
6.41570549e-05
6.45279852e-05
6.54985849e-05
6.57968119e-05
6.66591856e-05
6.68992033e-05
6.76630355e-05
6.78693638e-05
6.85406748e-05
6.87529764e-05
6.93712021e-05
6.95747847e-05
7.01445176e-05
7.02650071e-05
7.07501914e-05
7.09437708e-05
7.1440761e-05
7.138491e-05
7.17994119e-05
7.20479367e-05
7.25775582e-05
7.24861253e-05
7.2782303e-05
7.311392e-05
7.39786179e-05
7.31074619e-05
7.33594853e-05
7.42277599e-05
7.4940608e-05
7.35906665e-05
7.39396495e-05
7.4303917e-05
7.50672956e-05
7.40464153e-05
7.42831823e-05
7.46969253e-05
7.53560879e-05
7.45483592e-05
7.48226953e-05
7.505909e-05
7.56476449e-05
7.50610482e-05
7.52323488e-05
7.53774388e-05
7.59115154e-05
7.54730868e-05
7.56028959e-05
7.56559915e-05
7.61258815e-05
7.57996058e-05
7.58882467e-05
7.5904073e-05
7.62961845e-05
7.60593134e-05
7.61153827e-05
7.61283105e-05
7.64381485e-05
7.62814468e-05
7.6308534e-05
)
;

boundaryField
{
    closed
    {
        type            calculated;
        value           nonuniform List<scalar> 0();
    }
    open
    {
        type            calculated;
        value           nonuniform List<scalar> 0();
    }
    sides
    {
        type            empty;
    }
    procBoundary4to3
    {
        type            processor;
        value           uniform 3.68018256e-05;
    }
    procBoundary4to5
    {
        type            processor;
        value           uniform 7.6328509e-05;
    }
}


// ************************************************************************* //
