/*--------------------------------*- C++ -*----------------------------------*\
| =========                 |                                                 |
| \\      /  F ield         | OpenFOAM: The Open Source CFD Toolbox           |
|  \\    /   O peration     | Version:  2306                                  |
|   \\  /    A nd           | Website:  www.openfoam.com                      |
|    \\/     M anipulation  |                                                 |
\*---------------------------------------------------------------------------*/
FoamFile
{
    version     2.0;
    format      ascii;
    arch        "LSB;label=32;scalar=64";
    class       volScalarField;
    location    "0.00176";
    object      prefDPV_H2O;
}
// * * * * * * * * * * * * * * * * * * * * * * * * * * * * * * * * * * * * * //

dimensions      [1 -1 -1 0 0 0 0];

internalField   nonuniform List<scalar> 
531
(
-3.8403653e-07
-3.84907719e-07
-3.83827447e-07
-3.84001308e-07
-3.66561292e-07
-3.64794343e-07
-3.63108191e-07
-3.63105965e-07
-3.85522593e-07
-3.84499743e-07
-3.64925933e-07
-3.63928278e-07
-3.85285461e-07
-3.84386735e-07
-3.65748569e-07
-3.64239977e-07
-3.84872565e-07
-3.84546007e-07
-3.6732568e-07
-3.63403095e-07
-3.63311714e-07
-3.85122962e-07
-3.84316343e-07
-3.65246899e-07
-3.6460557e-07
-3.85538506e-07
-3.84019969e-07
-3.84582114e-07
-3.65690213e-07
-3.64747415e-07
-3.85405482e-07
-3.83799682e-07
-3.84664042e-07
-3.67622425e-07
-3.62372196e-07
-3.62802385e-07
-3.85349967e-07
-3.84180638e-07
-3.84585501e-07
-3.65925846e-07
-3.64769259e-07
-3.85195109e-07
-3.83756987e-07
-3.84401034e-07
-3.68255088e-07
-3.63776988e-07
-3.6372212e-07
-3.84642346e-07
-3.84299871e-07
-3.6696928e-07
-3.64677924e-07
-3.63140433e-07
-3.63176203e-07
-3.85541748e-07
-3.84092413e-07
-3.84896105e-07
-3.66625964e-07
-3.63981315e-07
-3.84884247e-07
-3.84239348e-07
-3.65685352e-07
-3.64927369e-07
-3.85002038e-07
-3.83985488e-07
-3.65533233e-07
-3.65541653e-07
-3.84925811e-07
-3.69428704e-07
-3.63475937e-07
-3.84640514e-07
-3.84432023e-07
-3.66204522e-07
-3.64385832e-07
-3.84561304e-07
-3.84444236e-07
-3.67875384e-07
-3.63592699e-07
-3.6369636e-07
-3.84873215e-07
-3.84016897e-07
-3.84072568e-07
-3.66292173e-07
-3.65078202e-07
-3.84466771e-07
-3.84240166e-07
-3.6919348e-07
-3.64422188e-07
-3.64692449e-07
-3.62164088e-07
-3.62077037e-07
-3.85704248e-07
-3.84334369e-07
-3.85062481e-07
-3.8385924e-07
-3.84382372e-07
-3.67452692e-07
-3.63832657e-07
-3.63652616e-07
-3.84820969e-07
-3.84148802e-07
-3.65737221e-07
-3.64722195e-07
-3.84973085e-07
-3.83967289e-07
-3.65304067e-07
-3.653036e-07
-3.84905723e-07
-3.6790907e-07
-3.63230975e-07
-3.8474057e-07
-3.84371859e-07
-3.65364427e-07
-3.64414226e-07
-3.85001463e-07
-3.84101991e-07
-3.64888635e-07
-3.64907831e-07
-3.85002906e-07
-3.83691484e-07
-3.84374544e-07
-3.6916422e-07
-3.63863817e-07
-3.63832229e-07
-3.8440578e-07
-3.84406601e-07
-3.67868175e-07
-3.63746546e-07
-3.63665879e-07
-3.84620594e-07
-3.84140085e-07
-3.6613719e-07
-3.64913996e-07
-3.84654738e-07
-3.83939708e-07
-3.66248487e-07
-3.6540866e-07
-3.84447535e-07
-3.83901582e-07
-3.67636451e-07
-3.65549522e-07
-3.64229751e-07
-3.64206749e-07
-3.85079624e-07
-3.84169542e-07
-3.64639065e-07
-3.64683544e-07
-3.85249666e-07
-3.83856166e-07
-3.84709686e-07
-3.66601452e-07
-3.64250213e-07
-3.84689491e-07
-3.84187815e-07
-3.65464004e-07
-3.64780368e-07
-3.84919067e-07
-3.84056014e-07
-3.64976157e-07
-3.65044311e-07
-3.85053656e-07
-3.83722819e-07
-3.84507565e-07
-3.71097898e-07
-3.64785257e-07
-3.63968683e-07
-3.639221e-07
-3.85260515e-07
-3.84266222e-07
-3.64642633e-07
-3.6415271e-07
-3.85210603e-07
-3.84182094e-07
-3.64423704e-07
-3.64368067e-07
-3.85165438e-07
-3.83800929e-07
-3.84600302e-07
-3.66958882e-07
-3.62980223e-07
-3.63011759e-07
-3.84950267e-07
-3.84365706e-07
-3.64981839e-07
-3.64198508e-07
-3.8523482e-07
-3.84141497e-07
-3.84350034e-07
-3.83991602e-07
-3.72676755e-07
-3.65762485e-07
-3.65276674e-07
-3.64815367e-07
-3.62598513e-07
-3.62592638e-07
-3.85326152e-07
-3.84581479e-07
-3.84333995e-07
-3.84381607e-07
-3.68179495e-07
-3.64873092e-07
-3.63750958e-07
-3.63828223e-07
-3.85294353e-07
-3.84093909e-07
-3.84674186e-07
-3.66138017e-07
-3.64864039e-07
-3.84967396e-07
-3.83749755e-07
-3.84439433e-07
-3.69095375e-07
-3.6393943e-07
-3.63930603e-07
-3.84431646e-07
-3.84419048e-07
-3.67074302e-07
-3.63432611e-07
-3.63430641e-07
-3.84828985e-07
-3.84162473e-07
-3.65074258e-07
-3.64978521e-07
-3.85285315e-07
-3.8367254e-07
-3.84599929e-07
-3.67867814e-07
-3.63108785e-07
-3.6354692e-07
-3.84986378e-07
-3.84109596e-07
-3.84274716e-07
-3.6544951e-07
-3.63755031e-07
-3.84583757e-07
-3.84775001e-07
-3.66428061e-07
-3.85117327e-07
-3.8363661e-07
-3.66177135e-07
-3.65335371e-07
-3.63816257e-07
-3.63757837e-07
-3.8501933e-07
-3.83891876e-07
-3.84355576e-07
-3.68250891e-07
-3.64180845e-07
-3.64802553e-07
-3.62394515e-07
-3.62348555e-07
-3.85492146e-07
-3.84514873e-07
-3.84781879e-07
-3.64640078e-07
-3.63282655e-07
-3.85362616e-07
-3.84569627e-07
-3.84463601e-07
-3.84466103e-07
-3.66427934e-07
-3.64300548e-07
-3.8443912e-07
-3.84524139e-07
-3.66903236e-07
-3.63486567e-07
-3.63382217e-07
-3.84892273e-07
-3.84162878e-07
-3.6528005e-07
-3.65109162e-07
-3.85281748e-07
-3.8367041e-07
-3.84541678e-07
-3.71680923e-07
-3.64128595e-07
-3.64647999e-07
-3.62245618e-07
-3.62147734e-07
-3.85565898e-07
-3.84342476e-07
-3.84952662e-07
-3.8388799e-07
-3.84347123e-07
-3.66929306e-07
-3.63833353e-07
-3.63678802e-07
-3.84885147e-07
-3.8410324e-07
-3.65340218e-07
-3.65217451e-07
-3.85253195e-07
-3.83637913e-07
-3.84476149e-07
-3.70147269e-07
-3.64107492e-07
-3.6477214e-07
-3.62300911e-07
-3.62256898e-07
-3.8562068e-07
-3.8454206e-07
-3.84878786e-07
-3.64509095e-07
-3.62952629e-07
-3.85623638e-07
-3.84597805e-07
-3.84772293e-07
-3.84463011e-07
-3.65445025e-07
-3.64233773e-07
-3.85135532e-07
-3.84349726e-07
-3.8424299e-07
-3.84286184e-07
-3.72158192e-07
-3.64755836e-07
-3.65089387e-07
-3.63068097e-07
-3.62978186e-07
-3.85388411e-07
-3.8452482e-07
-3.64061698e-07
-3.63229431e-07
-3.85576518e-07
-3.84506776e-07
-3.84527163e-07
-3.84445721e-07
-3.66439679e-07
-3.63968322e-07
-3.62592752e-07
-3.62638731e-07
-3.85644548e-07
-3.84241e-07
-3.8490122e-07
-3.65474168e-07
-3.63914514e-07
-3.85172726e-07
-3.83796447e-07
-3.84319664e-07
-3.66618077e-07
-3.63129311e-07
-3.6317197e-07
-3.84715753e-07
-3.8397531e-07
-3.64799748e-07
-3.64342175e-07
-3.85144601e-07
-3.83569664e-07
-3.8428856e-07
-3.72976157e-07
-3.62686187e-07
-3.62852412e-07
-3.60178922e-07
-3.60067565e-07
-3.86112504e-07
-3.84506061e-07
-3.85608451e-07
-3.84348786e-07
-3.85073393e-07
-3.84095908e-07
-3.8435138e-07
-3.60312144e-07
-3.59355379e-07
-3.84775903e-07
-3.83185564e-07
-3.83333147e-07
-3.61320979e-07
-3.5943763e-07
-3.82671417e-07
-3.80749151e-07
-3.81185766e-07
-3.79519938e-07
-3.7972188e-07
-3.78189446e-07
-3.78254652e-07
-3.58349254e-07
-3.5691018e-07
-3.76576285e-07
-3.74999398e-07
-3.74647542e-07
-3.73262481e-07
-3.72695739e-07
-3.71411402e-07
-3.70710869e-07
-3.69469763e-07
-3.6868957e-07
-3.67469016e-07
-3.66612826e-07
-3.65474118e-07
-3.64595199e-07
-3.6361838e-07
-3.62902727e-07
-3.62347508e-07
-3.62437977e-07
-3.61551037e-07
-3.60552254e-07
-3.58831932e-07
-3.57656515e-07
-3.55743338e-07
-3.54396945e-07
-3.52264556e-07
-3.50747105e-07
-3.4837996e-07
-3.46676661e-07
-3.44276128e-07
-3.42805759e-07
-3.41593911e-07
-3.42113186e-07
-3.39899311e-07
-3.38663775e-07
-3.35475602e-07
-3.33869338e-07
-3.29936979e-07
-3.2798359e-07
-3.23373081e-07
-3.20545559e-07
-3.15186876e-07
-3.12099625e-07
-3.06866519e-07
-3.03408443e-07
-2.98325577e-07
-2.94446065e-07
-2.91009305e-07
-3.02020227e-07
-2.96305362e-07
-2.91482334e-07
-2.85647885e-07
-2.8051924e-07
-2.74538339e-07
-2.69007763e-07
-2.62810119e-07
-2.56555695e-07
-2.50117379e-07
-2.43234595e-07
-2.39235553e-07
-2.34419727e-07
-2.30106095e-07
-2.24990824e-07
-2.20371106e-07
-2.15104313e-07
-2.10093684e-07
-2.07618549e-07
-2.07419988e-07
-1.98386638e-07
-1.89596161e-07
-1.72313791e-07
-1.54964958e-07
-1.34064021e-07
-1.19228878e-07
-9.16956492e-08
-6.62400915e-08
-3.95401025e-08
-1.93311146e-08
7.90808295e-09
2.73266543e-08
5.33301244e-08
7.37323654e-08
1.03026867e-07
1.25793623e-07
1.59961904e-07
1.84762162e-07
2.23050548e-07
2.48708896e-07
2.90047708e-07
3.15651725e-07
3.58039139e-07
3.82003934e-07
4.22514294e-07
4.44404098e-07
4.82172796e-07
5.01367415e-07
5.347861e-07
5.51039235e-07
5.806068e-07
5.94632115e-07
6.21819942e-07
6.34051431e-07
6.58827914e-07
6.69607169e-07
6.92081304e-07
7.01869188e-07
7.22101535e-07
7.32146241e-07
7.51093428e-07
7.60127017e-07
7.77186948e-07
7.85981817e-07
8.0162592e-07
8.07799556e-07
8.21380894e-07
8.31577196e-07
8.46030849e-07
8.42249266e-07
8.51235188e-07
8.79224923e-07
8.9352735e-07
8.62997683e-07
8.69460807e-07
9.2765211e-07
9.52857664e-07
8.82659396e-07
8.89954764e-07
9.77311132e-07
9.94858471e-07
9.12023494e-07
9.15852754e-07
9.9976482e-07
1.00310456e-06
9.48992439e-07
9.37235108e-07
1.00683792e-06
1.01067505e-06
9.70465415e-07
9.57708831e-07
1.01400705e-06
1.01640058e-06
9.84924314e-07
9.72520928e-07
1.01975821e-06
1.02155693e-06
9.94631113e-07
9.83509229e-07
1.02428335e-06
1.0255111e-06
1.00137085e-06
9.92030965e-07
1.02763615e-06
1.02865768e-06
1.00611049e-06
9.98755485e-07
1.03088446e-06
1.03132836e-06
)
;

boundaryField
{
    closed
    {
        type            calculated;
        value           nonuniform List<scalar> 0();
    }
    open
    {
        type            calculated;
        value           nonuniform List<scalar> 0();
    }
    sides
    {
        type            empty;
    }
    procBoundary4to3
    {
        type            processor;
        value           uniform -3.8585359e-07;
    }
    procBoundary4to5
    {
        type            processor;
        value           uniform 1.01005163e-06;
    }
}


// ************************************************************************* //
