/*--------------------------------*- C++ -*----------------------------------*\
| =========                 |                                                 |
| \\      /  F ield         | OpenFOAM: The Open Source CFD Toolbox           |
|  \\    /   O peration     | Version:  2306                                  |
|   \\  /    A nd           | Website:  www.openfoam.com                      |
|    \\/     M anipulation  |                                                 |
\*---------------------------------------------------------------------------*/
FoamFile
{
    version     2.0;
    format      ascii;
    arch        "LSB;label=32;scalar=64";
    class       volScalarField;
    location    "0.0012";
    object      prefDh_H2;
}
// * * * * * * * * * * * * * * * * * * * * * * * * * * * * * * * * * * * * * //

dimensions      [1 1 -3 0 0 0 0];

internalField   nonuniform List<scalar> 
530
(
2967.55031
2974.51771
3017.8364
3015.76549
2984.59177
2991.71955
3031.09888
3029.56869
2999.3896
3008.58458
3044.55002
3043.80721
3012.84874
3022.49733
3057.4889
3056.58117
3028.10529
3034.22369
3070.17777
3069.19896
3042.46175
3046.9132
3083.81999
3081.60388
3055.35517
3059.97281
3096.15921
3094.24526
3068.02712
3072.77537
3108.14268
3106.61296
3080.30667
3085.25554
3118.68721
3118.72092
3092.6257
3097.21822
3129.06877
3130.36717
3104.90518
3108.71067
3140.1696
3141.79361
3116.7614
3119.91069
3151.91685
3152.31053
3126.90362
3130.80889
3161.29941
3161.68607
3136.8251
3140.07154
3170.38427
3170.76485
3146.80822
3149.47294
3179.66533
3179.81809
3156.58465
3159.59294
3189.61923
3189.17357
3165.97311
3169.60079
3198.82996
3198.70335
3175.37341
3179.79978
3207.99908
3208.26716
3184.42126
3189.5944
3216.79435
3218.06379
3194.42982
3199.53736
3226.48385
3228.00789
3205.06676
3210.15126
3236.47828
3238.04224
3215.64082
3220.6635
3246.98712
3248.33375
3226.60115
3231.36527
3257.57043
3258.72505
3237.38293
3242.18424
3268.21771
3269.39922
3248.33215
3253.11658
3278.85462
3280.31219
3259.32795
3264.3832
3289.54935
3291.49527
3270.49867
3275.74009
3300.50375
3302.83731
3282.13096
3287.36795
3311.85334
3314.26688
3294.0888
3299.14092
3323.46625
3325.83009
3306.15814
3311.03387
3335.30749
3337.62028
3318.38625
3323.18068
3347.26581
3349.69125
3330.66086
3335.53532
3359.38699
3361.96279
3343.01064
3348.04122
3371.988
3374.44708
3355.96321
3360.74013
3384.89504
3387.24127
3369.17035
3373.9249
3398.02908
3400.22862
3382.50601
3387.23544
3411.28557
3413.37699
3395.99712
3400.64149
3424.70224
3426.73844
3409.6527
3414.08658
3438.34374
3440.24904
3423.43957
3427.6151
3452.03149
3453.75505
3437.41566
3441.06908
3464.69171
3466.84694
3450.10345
3454.31932
3476.84534
3479.30941
3462.52513
3466.86057
3488.66008
3491.50346
3474.88675
3479.43431
3500.4646
3503.56823
3487.18897
3491.92438
3512.32393
3515.54186
3499.43837
3504.28132
3524.15468
3527.31992
3511.55281
3516.50353
3535.90442
3538.92958
3523.55501
3528.54057
3547.82711
3550.28369
3535.421
3540.32564
3559.75923
3561.86722
3547.80245
3552.25136
3571.75201
3573.45785
3560.01506
3564.24746
3583.65113
3584.94584
3572.02474
3575.97746
3595.42207
3596.27705
3583.84765
3587.4832
3606.93911
3607.49852
3595.37807
3598.86649
3617.97745
3618.6596
3606.5318
3610.16783
3628.6805
3629.61838
3617.03368
3621.16334
3638.96752
3640.16439
3627.5139
3631.53744
3649.08715
3650.2396
3637.9243
3641.57966
3659.03117
3660.01037
3648.24528
3651.46244
3668.63838
3669.67623
3658.12622
3661.28751
3677.96308
3679.19844
3667.73586
3670.93356
3687.11564
3688.36587
3677.16504
3680.47204
3696.2403
3697.14805
3686.39441
3689.67692
3705.24092
3705.80453
3695.31527
3699.17949
3714.14935
3714.28396
3703.30086
3708.21953
3722.05366
3722.51443
3710.93268
3716.69368
3729.34059
3730.34226
3718.13116
3724.15434
3736.00187
3737.64805
3725.50497
3731.54392
3742.78904
3744.5627
3732.59872
3738.78037
3749.37611
3751.17702
3739.39269
3745.70956
3755.717
3757.47159
3746.05017
3752.12922
3761.85597
3763.48567
3752.61512
3758.3007
3767.74694
3769.2295
3758.78309
3764.33413
3773.41523
3774.73134
3764.68108
3770.05827
3778.96629
3779.96931
3770.44909
3775.45417
3784.40526
3784.95022
3776.14012
3780.5911
3789.26995
3789.71173
3781.69653
3785.5691
3793.94402
3794.25984
3786.8705
3790.6036
3798.48217
3798.58021
3791.68013
3795.18821
3802.55086
3802.67328
3796.14875
3799.58414
3806.35836
3806.53943
3800.3501
3803.49249
3809.79191
3810.14958
3804.3
3807.31087
3813.17372
3813.54124
3808.08016
3810.91422
3816.38677
3816.74722
3811.68789
3814.3054
3819.42095
3819.76048
3815.08811
3817.49542
3822.26772
3822.59772
3818.27756
3820.51763
3824.931
3825.2571
3821.27124
3823.30046
3827.39731
3827.73365
3823.98807
3826.01421
3829.6448
3830.01732
3826.33716
3828.54236
3831.89772
3832.14653
3828.97806
3830.40863
3834.10965
3834.20661
3831.78601
3832.24185
3836.08758
3835.96005
3834.15356
3834.10879
3837.84555
3837.5922
3836.12504
3835.90323
3839.39222
3839.08845
3837.86644
3837.53546
3840.77767
3840.45181
3839.40828
3839.02448
3842.02202
3841.69227
3840.78125
3840.37905
3843.14239
3842.81778
3842.00963
3841.60839
3844.15127
3843.83778
3843.11087
3842.72172
3845.06
3844.76035
3844.10059
3843.72832
3845.87889
3845.59333
3844.9912
3844.63731
3846.61614
3846.34422
3845.79264
3845.4573
3847.27897
3847.02002
3846.51365
3846.19626
3847.87392
3847.62725
3847.1618
3846.86153
3848.40695
3848.17193
3847.74382
3847.4598
3848.88355
3848.65965
3848.26577
3847.99722
3849.30878
3849.09557
3848.73318
3848.4794
3849.68732
3849.48444
3849.15113
3848.91152
3850.02351
3849.83068
3849.52427
3849.29829
3850.32137
3850.13832
3849.85687
3849.64403
3850.58458
3850.41108
3850.15282
3849.95266
3850.81656
3850.65238
3850.41566
3850.2278
3851.02068
3850.86561
3850.64908
3850.47313
3851.20184
3851.05503
3850.85741
3850.69286
3851.37286
3851.23799
3851.06695
3850.91912
3851.61101
3851.47865
3851.28221
3851.16512
3851.60076
3851.65603
3851.59403
3851.55656
3851.67063
3851.67094
3851.7372
3851.73237
3851.80822
3851.80381
3851.8784
3851.87383
3851.94578
3851.94143
3852.00821
3852.00445
3852.06368
3852.06087
3852.1106
3852.10894
3852.14806
3852.14745
3852.17602
3852.17598
3852.19531
3852.19516
3852.20744
3852.20678
3852.21434
3852.21346
3852.21811
3852.21814
3852.22098
3852.22369
3852.21468
3852.20403
3852.19754
3852.19268
3852.18965
3852.18779
3852.18674
3852.18619
3852.18592
3852.18579
3852.18574
3852.18572
3852.18571
3852.18571
3852.18571
3852.18571
3852.18571
3852.18571
3852.18571
3852.18571
3852.18571
3852.18571
3852.18571
3852.18571
3852.18571
3852.18571
3852.18571
3852.18571
3852.18571
3852.18571
3852.18571
3852.18571
3852.18571
3852.18571
3852.18571
3852.18571
3852.18571
3852.18571
3852.18571
3852.18571
3852.18571
3852.18571
)
;

boundaryField
{
    closed
    {
        type            calculated;
        value           nonuniform List<scalar> 0();
    }
    open
    {
        type            calculated;
        value           uniform 3852.18571;
    }
    sides
    {
        type            empty;
    }
    procBoundary5to4
    {
        type            processor;
        value           uniform 2998.46114;
    }
}


// ************************************************************************* //
