/*--------------------------------*- C++ -*----------------------------------*\
| =========                 |                                                 |
| \\      /  F ield         | OpenFOAM: The Open Source CFD Toolbox           |
|  \\    /   O peration     | Version:  2306                                  |
|   \\  /    A nd           | Website:  www.openfoam.com                      |
|    \\/     M anipulation  |                                                 |
\*---------------------------------------------------------------------------*/
FoamFile
{
    version     2.0;
    format      ascii;
    arch        "LSB;label=32;scalar=64";
    class       volScalarField;
    location    "0.00094";
    object      H;
}
// * * * * * * * * * * * * * * * * * * * * * * * * * * * * * * * * * * * * * //

dimensions      [0 0 0 0 0 0 0];

internalField   nonuniform List<scalar> 
531
(
4.21774465e-08
1.89663951e-08
1.05931239e-09
4.87501323e-09
4.10433276e-08
4.31448247e-08
2.02275887e-08
1.04328224e-09
5.53120979e-09
4.17631566e-08
4.41754906e-08
2.20613226e-08
1.05628965e-09
6.06119249e-09
3.50556763e-08
2.72871526e-08
1.04024988e-09
7.32730968e-09
4.29986787e-08
4.33230729e-08
2.02798057e-08
1.07782487e-09
7.53460231e-09
3.46054839e-08
2.55176136e-08
1.04163974e-09
1.0452188e-08
4.38239261e-08
4.35787789e-08
1.84985006e-08
9.68727354e-10
1.30827137e-08
4.58522039e-08
4.55580677e-08
2.09542154e-08
9.39743697e-10
1.28440397e-08
4.33375821e-08
4.20356572e-08
1.63994546e-08
9.73818543e-10
1.57800368e-08
3.59452389e-08
1.90703103e-08
8.15048848e-10
2.36588084e-08
3.8086805e-08
1.75198868e-08
8.38751065e-10
2.13293423e-08
4.40676858e-08
3.93736766e-08
8.32430664e-09
7.02850499e-10
2.68729136e-08
3.78808753e-08
1.36286359e-08
5.46383785e-10
3.00078825e-08
4.24287723e-08
1.69770813e-08
4.97765588e-10
2.75921797e-08
4.21804645e-08
2.21231408e-08
6.45715553e-10
1.806296e-08
4.18740817e-08
3.52125254e-08
2.51458774e-09
7.84857716e-10
3.11544287e-08
3.60262259e-08
8.17682392e-09
1.7994163e-09
3.33695832e-08
3.6468309e-08
5.89370415e-09
2.56748587e-09
3.44311906e-08
3.55129986e-08
4.16426236e-09
3.68577707e-09
3.73688096e-08
4.42198277e-08
2.29026051e-08
5.1587649e-10
1.81466035e-08
3.65304867e-08
2.15080459e-08
6.30404341e-10
1.87859363e-08
3.91167694e-08
2.88055673e-08
5.95941742e-10
4.14403542e-09
3.73926756e-08
4.29738071e-08
2.24821841e-08
5.93833015e-10
1.54180447e-08
3.69029324e-08
2.8420268e-08
5.54931314e-10
4.69761868e-09
3.83700662e-08
4.24843309e-08
2.23819229e-08
6.48147542e-10
1.24805964e-08
3.46702029e-08
2.79639138e-08
6.07057934e-10
4.16814776e-09
3.80002235e-08
4.26398365e-08
2.47354815e-08
7.24086769e-10
3.73504311e-09
3.7394711e-08
4.26234536e-08
2.44015535e-08
7.65444151e-10
3.61841503e-09
3.77553583e-08
4.30918164e-08
2.4669812e-08
7.68040504e-10
3.55145607e-09
3.8400042e-08
4.3763556e-08
2.50621179e-08
7.67666109e-10
3.42844446e-09
3.88394181e-08
4.38559371e-08
2.39882205e-08
7.95434879e-10
7.05196528e-09
3.33187352e-08
2.82059633e-08
6.62905718e-10
4.04755613e-09
4.10745209e-08
4.37377835e-08
2.38821037e-08
8.4338255e-10
5.82549574e-09
3.27621518e-08
2.7982262e-08
7.14354422e-10
3.71734052e-09
4.08678804e-08
4.33315177e-08
2.35148129e-08
8.50310544e-10
3.22970588e-09
4.08857579e-08
4.46370861e-08
3.9465572e-08
2.31758253e-08
8.84991894e-10
2.90765615e-09
4.01713608e-08
4.30573094e-08
2.2607982e-08
8.98919813e-10
6.69267152e-09
3.39969778e-08
2.85362278e-08
7.138418e-10
4.54513621e-09
4.24687198e-08
4.32607452e-08
2.12663219e-08
8.86007341e-10
9.38817711e-09
3.59547387e-08
2.89167938e-08
7.64658144e-10
4.3764969e-09
4.28938186e-08
4.36807594e-08
2.08718879e-08
9.10117323e-10
9.84457509e-09
3.64677184e-08
2.91007983e-08
8.45086268e-10
3.37559976e-09
4.28139671e-08
4.45448536e-08
2.33439526e-08
9.40377646e-10
2.26833785e-09
4.15343419e-08
4.40490678e-08
2.37223929e-08
9.71404171e-10
4.74884785e-10
3.94387877e-08
4.16664476e-08
2.09343177e-08
1.00300158e-09
4.50341105e-10
4.05995557e-08
4.48645525e-08
4.01933183e-08
2.52720361e-08
1.01505076e-09
1.2124107e-09
7.59104138e-09
3.88240472e-08
4.32669742e-08
2.76396985e-08
6.99815173e-10
2.7757851e-09
3.54371033e-08
3.54792949e-08
1.6574358e-09
5.55929102e-10
3.44649073e-08
4.18703796e-08
1.63883039e-08
6.48950108e-10
1.77824432e-08
3.86663077e-08
3.7775715e-08
4.34948122e-09
8.63937059e-10
2.25217251e-08
4.18614974e-08
4.03350637e-08
6.51712757e-09
8.61430249e-10
1.81538597e-08
4.02929289e-08
4.13513134e-08
1.13409837e-08
8.18026881e-10
1.53438618e-08
3.93054602e-08
3.99315257e-08
9.7789228e-09
5.00069142e-10
2.50738882e-08
3.93990727e-08
2.46873079e-08
5.20064198e-10
7.48476278e-09
3.22999749e-08
3.34779607e-08
2.63645121e-08
2.70225803e-08
3.284313e-08
2.60830604e-08
1.05082531e-09
8.11245139e-09
3.41361465e-08
3.30304043e-08
4.98233057e-09
4.38030911e-09
3.16242896e-08
3.50917298e-08
1.33686316e-08
8.22612587e-10
2.1908945e-08
3.89399433e-08
3.00723855e-08
1.76906661e-09
5.02215511e-10
2.99558855e-08
4.29918151e-08
3.13629664e-08
1.61916783e-09
5.44265794e-10
3.01878754e-08
4.4679573e-08
3.36428838e-08
1.95212557e-09
1.21275429e-09
3.13427911e-08
3.26992827e-08
5.20743367e-09
1.59371072e-09
3.06046576e-08
4.57193441e-08
3.44085009e-08
7.39323578e-10
5.87743269e-10
3.12988284e-08
3.21867006e-08
3.18438543e-09
8.6564798e-10
3.06071465e-08
4.45257553e-08
3.25692433e-08
5.80941317e-10
5.71970095e-10
3.06700982e-08
4.36902824e-08
3.24818023e-08
5.46959889e-10
4.83770017e-10
3.17856152e-08
4.48583717e-08
3.36139848e-08
5.32255402e-10
9.92391454e-10
3.18024096e-08
3.22457965e-08
5.04165973e-09
3.92875919e-09
3.24858718e-08
4.50636418e-08
3.35034938e-08
5.27025197e-10
1.6096403e-09
3.13805393e-08
3.14257501e-08
4.72094906e-09
4.57266396e-09
3.28254032e-08
4.44303248e-08
3.29729357e-08
5.18083702e-10
2.41244377e-09
3.15292412e-08
3.11130151e-08
4.97697147e-09
5.5069908e-09
3.36280753e-08
4.45108909e-08
3.27520464e-08
5.20398317e-10
3.15444873e-09
3.14032242e-08
3.04154838e-08
3.59925832e-09
4.64676619e-09
3.37522836e-08
4.40240506e-08
3.18676078e-08
6.47642895e-10
2.23614126e-09
3.1690688e-08
3.02998627e-08
1.90548782e-09
3.57027253e-09
3.44469205e-08
4.4690586e-08
3.19084468e-08
7.30131912e-10
4.54340363e-10
3.43766895e-08
4.52484045e-08
3.22507731e-08
7.7535998e-10
9.24407399e-10
3.3207206e-08
3.15088112e-08
5.76052121e-10
1.0777841e-09
3.5746047e-08
4.66543305e-08
3.26439957e-08
8.59651169e-10
4.80165464e-10
3.386608e-08
3.1894659e-08
8.56517239e-10
6.33007779e-10
3.56435605e-08
4.65653185e-08
3.16012306e-08
9.93093478e-10
8.3245477e-10
3.40263413e-08
4.45798455e-08
3.03236349e-08
1.0777448e-09
9.42299891e-10
3.33850436e-08
4.34966145e-08
2.9404657e-08
1.12935881e-09
1.00547451e-09
3.38286082e-08
4.51232527e-08
3.10568364e-08
1.10172427e-09
1.05645699e-09
3.58173195e-08
4.30193293e-08
4.4533114e-08
3.11641347e-08
8.48941017e-10
1.42059339e-09
7.94889906e-10
3.37908666e-08
4.76616274e-08
3.3852026e-08
1.06864717e-09
1.06913103e-09
3.49008491e-08
4.80328217e-08
3.45223345e-08
9.67017712e-10
9.92145713e-10
3.61792184e-08
3.58258821e-08
1.01580627e-09
9.69833835e-10
3.65789548e-08
4.9228865e-08
3.60600577e-08
8.56779581e-10
9.15550794e-10
3.56343253e-08
3.58895206e-08
8.62841439e-10
8.31855837e-10
3.71825031e-08
3.70289498e-08
8.37553103e-10
9.59537689e-10
3.53667708e-08
4.86046917e-08
3.58017597e-08
7.79212474e-10
8.99710815e-10
3.42142033e-08
3.52527858e-08
7.24889113e-10
1.02343242e-09
3.41073023e-08
4.72703554e-08
3.46910606e-08
7.74384762e-10
9.26826357e-10
3.31979269e-08
3.4526124e-08
6.7382711e-10
1.06712786e-09
3.28570021e-08
4.53937837e-08
3.3147702e-08
8.42006118e-10
1.10090526e-09
3.19108768e-08
4.46226573e-08
3.23702676e-08
8.397902e-10
1.0844497e-09
3.40372771e-08
4.45764075e-08
4.47482277e-08
2.85946273e-08
8.88962035e-10
3.14029396e-09
3.73887361e-08
3.50608966e-08
8.57957856e-10
1.03428889e-09
3.83002949e-08
4.61200028e-08
1.74992691e-08
9.64841035e-10
2.23033685e-08
3.46149391e-08
1.9721829e-08
1.53827318e-08
3.21892735e-08
3.26118644e-08
1.02872216e-09
1.21312813e-09
3.40193208e-08
4.49610492e-08
2.61262821e-08
9.71799114e-10
1.02445905e-08
4.31768143e-08
3.872201e-08
1.12554206e-09
1.13794972e-09
3.47885251e-08
4.46399208e-08
2.17770156e-08
9.96113953e-10
1.64354271e-08
4.36623526e-08
3.04782117e-08
9.9795267e-10
8.453005e-09
4.29166735e-08
3.58087913e-08
1.24567743e-09
1.03706788e-09
3.53662988e-08
4.32809355e-08
2.66572343e-08
1.21652955e-09
9.99417902e-10
4.11116212e-08
4.52115782e-08
2.69646369e-08
1.20258882e-09
9.80964261e-10
4.06882312e-08
4.40510656e-08
2.55325284e-08
1.22502235e-09
9.59466777e-10
4.05309967e-08
4.5003423e-08
2.70049671e-08
1.21771833e-09
9.74553296e-10
3.98347822e-08
4.49642192e-08
2.77561472e-08
1.21861787e-09
9.82420183e-10
3.94332754e-08
4.51483924e-08
2.83537883e-08
1.20867721e-09
9.82545524e-10
4.00919812e-08
4.44707677e-08
2.1325976e-08
)
;

boundaryField
{
    closed
    {
        type            calculated;
        value           nonuniform List<scalar> 0();
    }
    open
    {
        type            calculated;
        value           nonuniform List<scalar> 0();
    }
    sides
    {
        type            empty;
    }
    procBoundary1to0
    {
        type            processor;
        value           uniform 4.06434114e-08;
    }
    procBoundary1to2
    {
        type            processor;
        value           uniform 1.06491693e-09;
    }
}


// ************************************************************************* //
