/*--------------------------------*- C++ -*----------------------------------*\
| =========                 |                                                 |
| \\      /  F ield         | OpenFOAM: The Open Source CFD Toolbox           |
|  \\    /   O peration     | Version:  2306                                  |
|   \\  /    A nd           | Website:  www.openfoam.com                      |
|    \\/     M anipulation  |                                                 |
\*---------------------------------------------------------------------------*/
FoamFile
{
    version     2.0;
    format      ascii;
    arch        "LSB;label=32;scalar=64";
    class       volScalarField;
    location    "0.00162";
    object      H2O;
}
// * * * * * * * * * * * * * * * * * * * * * * * * * * * * * * * * * * * * * //

dimensions      [0 0 0 0 0 0 0];

internalField   nonuniform List<scalar> 
530
(
0.0024680004
0.00453117861
0.00452563679
0.00450894712
0.00450719692
0.00450713892
0.00450713559
0.00450713544
0.00450713543
0.00450713542
0.00450713542
0.00450713542
0.00450713542
0.00450713542
0.00450713542
0.00450713542
0.00450713542
0.00450713542
0.00450713542
0.00450713542
0.00450713542
0.00450713542
0.00450713542
0.00450713542
0.00450713542
0.00450713542
0.00450713542
0.00450713542
0.00450713542
0.00450713542
0.00450713542
0.00450713542
0.00450713542
0.00450713542
0.00450713542
0.00450713542
0.00450713542
0.00450713542
0.00450713542
0.00450713542
0.00450713542
0.00450713542
0.00450713542
0.00450713542
0.00450713542
0.00450713542
0.00450713542
0.00450713542
0.00450713542
0.00450713542
0.00450713542
0.00450713542
0.00450713542
0.00450713542
0.00450713542
0.00450713542
0.00450713542
0.00450713543
0.00450713543
0.00450713543
0.00450713544
0.00450713548
0.00450713559
0.00450713585
0.00450713654
0.00450713799
0.00450714077
0.00450714849
0.00450715301
0.00450717074
0.0045072606
0.0045073177
0.00450719225
0.00450752821
0.00450840927
0.00450800046
0.00450748208
0.00450842183
0.00451142435
0.0045110318
0.00450999196
0.00450779448
0.00449199249
0.00449643239
0.00461188152
0.00475943304
0.00471460637
0.00386280308
0.00377221763
0.00462196477
0.00632733575
0.00673397325
0.00683528143
0.00597088843
0.000829763021
0.00100027091
0.0010194215
0.00102416939
0.00262816248
0.00678352317
0.00701956136
0.00703095731
0.00703254826
0.00712174569
0.00725251072
0.00531879103
0.000984157842
0.00102290591
0.000981682411
0.00102184571
0.00099288967
0.00328777076
0.00695827927
0.00705253481
0.00700564893
0.00700377896
0.00716149502
0.00630125934
0.0008606834
0.000993979546
0.000955646599
0.00095973429
0.000992208131
0.000936728835
0.00402611
0.00747991285
0.00748003271
0.00724151946
0.00717104418
0.00701247062
0.00363987797
0.00103357236
0.00102628934
0.00334457665
0.0070774769
0.00747049854
0.00645280862
0.000833004042
0.00104216288
0.000984113262
0.00308549668
0.00686346868
0.00711664962
0.00698656817
0.00245364133
0.000996877607
0.00282839593
0.00680504408
0.00686941624
0.00277556837
0.00100759855
0.00289785665
0.00632391665
0.00478441965
0.000933288716
0.00274312759
0.00693561343
0.00699445013
0.00247493998
0.000978032867
0.00345877863
0.0069953519
0.00699621773
0.00222705992
0.00102377675
0.00102531231
0.00329848732
0.00694404167
0.00694508708
0.0011933463
0.00101443385
0.00352594762
0.00692638441
0.00692488954
0.0019157168
0.00100040104
0.00345656616
0.00700689127
0.00705684272
0.00696161235
0.00709735203
0.00689324262
0.000911492106
0.00100956536
0.00406895951
0.00670128939
0.00534347366
0.00100900784
0.000969427458
0.00593877563
0.00710697087
0.00546375579
0.00101107892
0.000989672656
0.00439934241
0.00727268518
0.00734725971
0.00689999256
0.000883413738
0.00099513898
0.00423940232
0.00644194876
0.0040328331
0.000927856398
0.00425797469
0.00667995446
0.00352956534
0.000845035295
0.00542694216
0.00691685875
0.00348934282
0.000858062658
0.00510656172
0.00687096014
0.0037370193
0.000880460253
0.00467880291
0.00711739377
0.00672293527
0.00118267047
0.000855311263
0.00576295315
0.00677831386
0.00297207886
0.000819962296
0.00579572657
0.00743394809
0.00632101091
0.000874150639
0.000775939575
0.00669707118
0.00688378753
0.00201508353
0.000794448816
0.00623368361
0.00678211262
0.00193710534
0.000830567378
0.00598282353
0.00668555225
0.0018568552
0.000831103688
0.00612492809
0.00668287312
0.00158139784
0.000834699897
0.00622256927
0.0067071079
0.00159270139
0.00082372651
0.0063079323
0.00751548059
0.00665647391
0.000891366945
0.00087419223
0.00619097167
0.00659031137
0.00129419695
0.000886241787
0.00623412045
0.00664880017
0.000954829159
0.000859290867
0.00644710334
0.00752663079
0.00644844775
0.00093912066
0.000908894292
0.00642107615
0.00665138245
0.000749073992
0.000880873475
0.0065052664
0.00756102115
0.00640239332
0.000960994645
0.000933411374
0.00649884648
0.00663734242
0.000829074505
0.000946439551
0.00649915838
0.00669761376
0.000852349165
0.000914571277
0.00654885658
0.00754093153
0.00633683859
0.000995183646
0.000971759347
0.00649540348
0.00663724731
0.000885227938
0.000942595984
0.00655305765
0.0072790625
0.00699133977
0.00721273222
0.00617300787
0.00102471339
0.00100165355
0.00637033214
0.00648138724
0.000920786168
0.000965635678
0.0063422223
0.00727001771
0.00602976889
0.00102801144
0.000983048235
0.00636011372
0.0072417033
0.0059999799
0.00102496389
0.00098813987
0.00636975731
0.00723907953
0.00598038987
0.00102687738
0.000996697014
0.0062685555
0.00715449231
0.00579968565
0.00103829199
0.00100825726
0.00615209364
0.00706345601
0.00561135237
0.00105013128
0.0010009468
0.00624740355
0.00715562354
0.00703018483
0.006080406
0.00104298606
0.00102190067
0.00617254109
0.00630289778
0.000952787082
0.000995249886
0.00644557395
0.00727647872
0.00601209116
0.00103212472
0.000994332604
0.00645716945
0.00728653839
0.00600174302
0.00103408726
0.000996818758
0.00650802342
0.00731005751
0.00603187694
0.00103616829
0.000997894274
0.00653856748
0.00732771513
0.00605847732
0.00104026107
0.000996254883
0.00662002467
0.00727092815
0.00710753169
0.00632938289
0.00105982473
0.00101357402
0.00654331961
0.00653646261
0.0010181151
0.00100815064
0.00671622375
0.00739693771
0.00622318633
0.00106681103
0.00101513676
0.00657210611
0.00652883734
0.00104454567
0.000996394195
0.00676350844
0.00741193077
0.00624080271
0.00106462355
0.000983356103
0.00664406159
0.00654255912
0.00104437579
0.000975117191
0.00686871765
0.00747610217
0.00629206756
0.00106009105
0.000947813031
0.00668754955
0.00651997499
0.00104883138
0.000958384635
0.00694467366
0.00748473487
0.00625828739
0.00106165752
0.000923201187
0.00667280367
0.00643437689
0.00105855816
0.000949056594
0.00697271589
0.00747020832
0.00616297768
0.00105649687
0.000943124917
0.00690596584
0.0074607311
0.00611255734
0.00105515668
0.000936108211
0.006945061
0.00745121639
0.0060987172
0.00106147909
0.000876300373
0.00668096305
0.00632878647
0.00106701918
0.000860279992
0.00675229435
0.00630975195
0.00106245723
0.000923057602
0.00709680089
0.00744619574
0.00608939872
0.00106482369
0.000857016264
0.00664765083
0.0062344151
0.00108116463
0.000850586726
0.00667167647
0.00612198588
0.00108455552
0.000931258691
0.0069708538
0.00727783224
0.00571454867
0.00107485072
0.000940348128
0.00690482153
0.00713563393
0.00682128345
0.00701716336
0.00564163685
0.00108909965
0.000935288939
0.00678935752
0.00718293096
0.00548875894
0.0010749397
0.000920306199
0.00692802062
0.00723725327
0.00564892185
0.00107189965
0.000810214366
0.00658469424
0.00601766208
0.0010793686
0.000785031915
0.00670462548
0.00611465153
0.00107230014
0.000775077302
0.00676929167
0.00607876449
0.00106615275
0.000883224405
0.00723867904
0.00740385611
0.00567479206
0.00105075467
0.000883461336
0.00717275527
0.00736077834
0.0055681342
0.00105498524
0.000885486746
0.0071524673
0.00733139125
0.00551968256
0.00105764307
0.000886246746
0.00714904805
0.0073065591
0.00560204211
0.00106468946
0.000775589778
0.00667849589
0.0059793558
0.00107893295
0.000885543131
0.00721410594
0.00731794702
0.00563339634
0.00106542719
0.000778168146
0.00669886305
0.00598206665
0.00108019022
0.000887689748
0.0072341947
0.00732553066
0.00546112865
0.00105899899
0.000889589324
0.00720723214
0.00730571745
0.00518812273
0.00111343577
0.00111218242
0.000843233199
0.00723808841
0.00742140072
0.00695250484
0.00709616741
0.00536425967
0.00112426745
0.00112353405
0.0008715218
0.00696741543
0.00731096584
)
;

boundaryField
{
    closed
    {
        type            calculated;
        value           uniform 1.35591312e-06;
    }
    open
    {
        type            calculated;
        value           nonuniform List<scalar> 0();
    }
    sides
    {
        type            empty;
    }
    procBoundary0to1
    {
        type            processor;
        value           uniform 0.00508414862;
    }
}


// ************************************************************************* //
