/*--------------------------------*- C++ -*----------------------------------*\
| =========                 |                                                 |
| \\      /  F ield         | OpenFOAM: The Open Source CFD Toolbox           |
|  \\    /   O peration     | Version:  2306                                  |
|   \\  /    A nd           | Website:  www.openfoam.com                      |
|    \\/     M anipulation  |                                                 |
\*---------------------------------------------------------------------------*/
FoamFile
{
    version     2.0;
    format      ascii;
    arch        "LSB;label=32;scalar=64";
    class       volScalarField;
    location    "0.002";
    object      prefDh_H;
}
// * * * * * * * * * * * * * * * * * * * * * * * * * * * * * * * * * * * * * //

dimensions      [1 1 -3 0 0 0 0];

internalField   nonuniform List<scalar> 
530
(
25523.8487
23754.811
23404.4157
23394.1366
23393.1756
23393.1208
23393.1165
23393.1163
23393.1163
23393.1163
23393.1163
23393.1163
23393.1163
23393.1163
23393.1163
23393.1163
23393.1163
23393.1163
23393.1163
23393.1163
23393.1163
23393.1163
23393.1163
23393.1163
23393.1163
23393.1163
23393.1163
23393.1163
23393.1163
23393.1163
23393.1163
23393.1163
23393.1163
23393.1163
23393.1163
23393.1163
23393.1163
23393.1163
23393.1163
23393.1163
23393.1163
23393.1163
23393.1163
23393.1163
23393.1163
23393.1163
23393.1163
23393.1163
23393.1163
23393.1163
23393.1163
23393.1163
23393.1163
23393.1163
23393.1163
23393.1163
23393.1163
23393.1163
23393.1163
23393.1164
23393.1165
23393.1172
23393.1174
23393.1209
23393.122
23393.1369
23393.1448
23393.1832
23393.2346
23393.3554
23393.4783
23393.3481
23393.534
23395.5778
23399.7614
23391.749
23381.277
23392.2173
23465.3628
23457.4882
23330.7997
23322.2889
23574.0883
23991.227
23951.6878
23362.4314
23345.409
23372.1421
23386.3275
23384.5137
23194.801
23159.0947
23493.6936
23953.4639
23975.0138
23956.6237
23251.435
22992.8836
23363.2477
23941.0704
23984.1842
23546.1117
23095.4431
23054.6606
23057.3155
23196.9683
23998.8196
23974.3134
24001.3231
23979.8499
23327.9128
23243.1091
24004.5575
23964.1292
23344.0453
23071.5889
23261.9174
22988.6225
23248.7205
23951.326
23989.7816
23957.7091
23981.9812
23965.1089
23127.5193
22877.1498
23109.1048
22956.2954
23138.4996
23977.6916
23981.571
23365.7959
23019.242
23367.0373
23982.7723
23989.0668
23988.2868
23293.6405
23159.735
23985.798
23983.922
23240.7084
23209.8809
23991.6388
23970.7071
23358.8523
23195.9775
23223.4064
23220.5193
23092.1862
23308.2399
23974.9437
23954.3447
23978.5784
23237.323
23228.0718
23970.2584
23962.5668
23982.4703
23278.7865
23100.8021
23387.0479
23400.0978
23261.9845
23404.1405
23960.2039
23972.8072
23034.1053
23029.4895
23955.8831
23928.2953
22963.062
22927.4194
23951.7251
23944.5539
23955.1237
23951.7725
23030.521
22942.2547
23954.3904
23928.1129
23958.529
23939.9592
23274.7606
23062.0692
23245.8454
23057.6406
23213.4037
23956.975
23960.6131
23113.6432
22993.96
23176.4505
23945.9219
23978.9613
23154.2004
23149.1924
23952.6144
23975.8742
23094.1574
23186.2025
23974.3743
23966.3917
23385.9137
23181.6924
23150.2198
23206.4953
23960.7052
23978.336
23954.2305
23984.6508
23175.3307
23161.3835
23104.8244
23340.5814
23965.3834
23377.0745
23116.3035
23975.5589
23959.692
23374.7396
23076.6383
23254.4387
23057.6633
23171.0071
23964.2063
23948.169
23971.5731
23943.8441
23330.7232
22919.8519
23362.5782
23935.4763
23358.7906
22913.1819
23988.3098
23950.0592
23327.6446
23944.2308
23997.6964
23201.3369
23192.3315
23170.3787
23189.548
23963.3651
23986.1499
23205.9681
23177.7359
23968.4009
23978.0438
23264.5468
23237.0055
23977.1038
23971.9932
23120.5722
23005.4868
23131.6867
23970.4834
23985.3943
23252.2703
23179.8071
23986.6765
23976.2471
23356.8016
23166.2363
23357.1286
23973.1452
24004.8931
23337.7108
23288.4457
23985.8208
23991.0484
23360.9333
23194.4896
23258.7698
23216.1019
23986.1893
23985.8763
23300.3353
23213.7956
23977.5697
23975.0309
23329.114
23151.3917
23123.5852
23186.9688
23967.6434
23949.86
23962.4942
23072.7859
22967.2775
22895.0864
23049.9552
23964.5647
23941.99
23969.2311
23243.0523
23088.8318
23950.3681
23959.6429
23212.0494
23185.881
23970.973
23965.6473
23230.1592
23212.0033
23982.9214
23972.394
23367.2256
23264.8105
23201.2886
23370.2349
23978.1841
23372.2144
23107.4116
23981.9168
23964.7704
23366.6151
23027.301
23132.9061
23958.3978
23971.0765
23313.0634
22861.376
23170.5428
23946.6968
23976.5239
23948.4328
23377.7819
23086.7655
23229.1106
23118.7276
23158.7567
23959.2414
23970.2149
23291.8785
23190.9323
23978.029
23964.699
23234.8806
23161.8192
23993.7629
23962.0449
23356.2063
23176.5879
23306.1219
23963.365
23991.4875
23322.9554
23238.9671
23975.5433
23972.3693
23248.3039
23204.0931
23982.8215
23959.0169
23307.6352
23183.7845
23200.7876
23140.1911
23983.5139
23950.0173
23371.5117
23161.5149
23211.1729
23125.8284
23981.6819
23950.7609
23979.2609
23961.8151
23379.6909
23000.5685
23125.3464
23964.2972
23963.627
23377.5409
23051.359
23220.7676
22970.288
23050.9993
23965.1122
23949.0233
23972.7333
23945.3444
23974.9589
23945.8799
23371.7741
23006.3574
23150.0368
22901.1289
22946.9808
23950.9449
23959.5262
23093.4194
23064.7691
23964.3166
23951.9407
23237.9025
23215.8325
23981.8583
23949.5956
23360.5147
23223.7353
23367.887
23138.1135
23358.9986
23957.7716
23360.8151
23092.1905
23991.6056
23953.9434
23260.3677
23120.8532
23992.7932
23941.986
23356.2501
23040.0864
23187.7822
22873.7194
23003.477
23936.1077
23978.4928
23939.8484
23980.0594
23940.8687
23982.1769
23941.4722
23364.1858
22981.4701
23349.6072
23940.3857
23362.8999
23072.8541
23986.9745
23951.7644
23363.5732
23151.449
23180.0723
23089.3149
23978.237
23960.5295
23343.2358
23146.6351
23202.9537
23142.9312
23962.4034
23956.7134
23203.9266
23218.2937
23961.4244
23956.7428
23964.0826
23318.4927
23033.9992
23960.0468
23960.3253
23375.0183
23020.7416
23060.6728
23947.4077
23972.6664
23398.8358
23023.0488
23126.3665
23969.545
23932.1239
23369.6968
23117.5575
23298.6231
22954.6619
23206.7849
23896.8148
23966.4731
23899.9097
23283.6052
22608.8414
23099.9074
23874.8021
23973.9549
23891.8801
23977.869
23908.2343
23322.8665
22604.264
23186.5976
23910.1087
23379.2881
23919.1597
23986.0886
23249.7485
23040.1602
23051.6303
23955.8702
23958.4758
23274.8094
22889.7464
22984.4534
23954.1143
23956.2738
23189.8551
23043.0857
23966.9674
23934.459
23369.7725
23059.994
23375.4971
23871.9218
23975.8738
23885.1809
23369.769
23174.9379
23285.1042
23201.1447
23978.6903
23963.495
23363.8583
22995.0117
23132.3531
23970.4907
23983.3159
23978.366
23326.6904
23184.1157
23978.7173
23961.5967
23367.7808
23267.4948
23371.6345
23236.5985
23236.6577
)
;

boundaryField
{
    closed
    {
        type            calculated;
        value           uniform 31836.4898;
    }
    open
    {
        type            calculated;
        value           nonuniform List<scalar> 0();
    }
    sides
    {
        type            empty;
    }
    procBoundary0to1
    {
        type            processor;
        value           uniform 23964.8995;
    }
}


// ************************************************************************* //
