/*--------------------------------*- C++ -*----------------------------------*\
| =========                 |                                                 |
| \\      /  F ield         | OpenFOAM: The Open Source CFD Toolbox           |
|  \\    /   O peration     | Version:  2306                                  |
|   \\  /    A nd           | Website:  www.openfoam.com                      |
|    \\/     M anipulation  |                                                 |
\*---------------------------------------------------------------------------*/
FoamFile
{
    version     2.0;
    format      ascii;
    arch        "LSB;label=32;scalar=64";
    class       volScalarField;
    location    "0.002";
    object      prefDPV_T;
}
// * * * * * * * * * * * * * * * * * * * * * * * * * * * * * * * * * * * * * //

dimensions      [1 -1 -1 -1 0 0 0];

internalField   nonuniform List<scalar> 
530
(
6.21255746e-10
6.00029327e-10
5.97521503e-10
5.97545382e-10
5.97549731e-10
5.9754978e-10
5.97549775e-10
5.97549775e-10
5.97549775e-10
5.97549775e-10
5.97549775e-10
5.97549775e-10
5.97549775e-10
5.97549775e-10
5.97549775e-10
5.97549775e-10
5.97549775e-10
5.97549775e-10
5.97549775e-10
5.97549775e-10
5.97549775e-10
5.97549775e-10
5.97549775e-10
5.97549775e-10
5.97549775e-10
5.97549775e-10
5.97549775e-10
5.97549775e-10
5.97549775e-10
5.97549775e-10
5.97549775e-10
5.97549775e-10
5.97549775e-10
5.97549775e-10
5.97549775e-10
5.97549775e-10
5.97549775e-10
5.97549775e-10
5.97549775e-10
5.97549775e-10
5.97549775e-10
5.97549775e-10
5.97549775e-10
5.97549775e-10
5.97549775e-10
5.97549775e-10
5.97549775e-10
5.97549775e-10
5.97549775e-10
5.97549775e-10
5.97549775e-10
5.97549775e-10
5.97549775e-10
5.97549775e-10
5.97549775e-10
5.97549775e-10
5.97549775e-10
5.97549775e-10
5.97549775e-10
5.97549775e-10
5.97549775e-10
5.97549776e-10
5.97549776e-10
5.97549778e-10
5.97549782e-10
5.97549831e-10
5.97549767e-10
5.97549627e-10
5.97550181e-10
5.97552256e-10
5.97551442e-10
5.9753134e-10
5.97515489e-10
5.97646694e-10
5.97839471e-10
5.9732305e-10
5.96109778e-10
5.9725017e-10
6.01022812e-10
6.00782438e-10
5.90919028e-10
5.90578086e-10
6.0510798e-10
6.07821607e-10
6.09534022e-10
5.92381166e-10
5.91015059e-10
5.94773519e-10
5.93872326e-10
5.91310127e-10
5.90057385e-10
5.89831172e-10
6.02299778e-10
6.08768346e-10
6.0836818e-10
6.09004276e-10
5.90158594e-10
5.89151866e-10
5.94287564e-10
6.09083044e-10
6.08028127e-10
6.04172383e-10
5.8930862e-10
5.89344269e-10
5.89108454e-10
5.90020723e-10
6.0823694e-10
6.08361569e-10
6.07942179e-10
6.08291652e-10
5.90444009e-10
5.90323067e-10
6.07701373e-10
6.08497782e-10
5.91795539e-10
5.89515144e-10
5.90056148e-10
5.89094996e-10
5.90043395e-10
6.09022452e-10
6.08077276e-10
6.0906783e-10
6.08246301e-10
6.09063199e-10
5.89536983e-10
5.88459596e-10
5.89451456e-10
5.88815295e-10
5.89607768e-10
6.08342224e-10
6.08509108e-10
5.94958408e-10
5.89040215e-10
5.90773364e-10
6.08680741e-10
6.07825227e-10
6.08510199e-10
5.90373659e-10
5.89759337e-10
6.08123809e-10
6.08348298e-10
5.90060216e-10
5.90098307e-10
6.0793744e-10
6.08325484e-10
5.92253405e-10
5.90089361e-10
5.90050973e-10
5.90211414e-10
5.89446929e-10
5.90686966e-10
6.08675083e-10
6.08249522e-10
6.08532484e-10
5.90307129e-10
5.90211777e-10
6.08713237e-10
6.08245479e-10
6.08688096e-10
5.90460714e-10
5.89567057e-10
5.91054914e-10
5.91616453e-10
5.90440324e-10
5.9183229e-10
6.08564241e-10
6.09285064e-10
5.89186266e-10
5.89477105e-10
6.08982608e-10
6.09075256e-10
5.88834086e-10
5.88880369e-10
6.09004617e-10
6.09389159e-10
6.08842296e-10
6.09317337e-10
5.89189092e-10
5.88967148e-10
6.08665716e-10
6.09117204e-10
6.08354899e-10
6.08934168e-10
5.90450834e-10
5.89574762e-10
5.90308367e-10
5.89486501e-10
5.90149493e-10
6.08727929e-10
6.08620151e-10
5.89572384e-10
5.89133706e-10
5.89873191e-10
6.08832894e-10
6.08376218e-10
5.89942884e-10
5.89741094e-10
6.08719837e-10
6.08408263e-10
5.8951276e-10
5.89981121e-10
6.08287479e-10
6.083448e-10
5.9652715e-10
5.89928088e-10
5.89802711e-10
5.90028891e-10
6.08558527e-10
6.0836025e-10
6.08541521e-10
6.08377993e-10
5.90022453e-10
5.89770282e-10
5.89669483e-10
5.9071447e-10
6.08708812e-10
5.91466201e-10
5.89701997e-10
6.07828007e-10
6.0865684e-10
5.91768024e-10
5.89548354e-10
5.90312333e-10
5.89413586e-10
5.89961827e-10
6.08506416e-10
6.08806788e-10
6.08183647e-10
6.09023462e-10
5.90606674e-10
5.8893223e-10
5.92300145e-10
6.0929588e-10
5.92842988e-10
5.88782572e-10
6.0777432e-10
6.09011869e-10
5.90475568e-10
6.08905298e-10
6.07979544e-10
5.90169749e-10
5.89868241e-10
5.89984107e-10
5.8985531e-10
6.08439772e-10
6.08247522e-10
5.90073222e-10
5.8985583e-10
6.08307445e-10
6.08300431e-10
5.90334873e-10
5.90245675e-10
6.08334026e-10
6.08464823e-10
5.89494175e-10
5.89049592e-10
5.89549195e-10
6.08488583e-10
6.08330686e-10
5.90231363e-10
5.89891668e-10
6.07925083e-10
6.08364188e-10
5.91573975e-10
5.89906553e-10
5.90725717e-10
6.0822269e-10
6.07766185e-10
5.90690678e-10
5.90332392e-10
6.0784101e-10
6.080893e-10
5.92033724e-10
5.89911587e-10
5.90192292e-10
5.90009056e-10
6.08073557e-10
6.08195448e-10
5.90448511e-10
5.90071031e-10
6.08006684e-10
6.0835001e-10
5.90657141e-10
5.89863887e-10
5.89633251e-10
5.9007364e-10
6.08738595e-10
6.08596535e-10
6.08859136e-10
5.89472487e-10
5.88965317e-10
5.88524788e-10
5.89423925e-10
6.08993845e-10
6.08636895e-10
6.08824643e-10
5.90431444e-10
5.89529345e-10
6.08429558e-10
6.08571648e-10
5.90144138e-10
5.90064593e-10
6.0830469e-10
6.08398578e-10
5.9011493e-10
5.90154234e-10
6.07954988e-10
6.08244472e-10
5.92057252e-10
5.90364286e-10
5.89969514e-10
5.93533214e-10
6.08439491e-10
5.91843625e-10
5.89591187e-10
6.07728634e-10
6.08697223e-10
5.92050328e-10
5.89253115e-10
5.89597103e-10
6.08447642e-10
6.0881774e-10
5.90630428e-10
5.88428648e-10
5.89825218e-10
6.0906502e-10
6.08064559e-10
6.08833777e-10
5.95646746e-10
5.89606625e-10
5.90148929e-10
5.89752484e-10
5.89797434e-10
6.08394576e-10
6.08397269e-10
5.90515899e-10
5.90049134e-10
6.08146162e-10
6.08402522e-10
5.90060256e-10
5.89927137e-10
6.07887892e-10
6.08473072e-10
5.91494914e-10
5.90043254e-10
5.90383001e-10
6.08299868e-10
6.07982908e-10
5.90682809e-10
5.90185825e-10
6.08126818e-10
6.08252914e-10
5.90188273e-10
5.90128123e-10
6.08055336e-10
6.08424215e-10
5.904587e-10
5.9013603e-10
5.89912345e-10
5.89894075e-10
6.08029381e-10
6.08606875e-10
5.90887204e-10
5.90068019e-10
5.89981411e-10
5.89839013e-10
6.0816036e-10
6.08789547e-10
6.07956194e-10
6.08795395e-10
5.91214252e-10
5.89098898e-10
5.89636187e-10
6.08333258e-10
6.08608123e-10
5.92498682e-10
5.89380919e-10
5.90168716e-10
5.8892973e-10
5.89336635e-10
6.08748792e-10
6.08822117e-10
6.08434505e-10
6.08852562e-10
6.0808361e-10
6.08825018e-10
5.93766238e-10
5.89228034e-10
5.89764652e-10
5.88637746e-10
5.88734801e-10
6.08939714e-10
6.08803188e-10
5.89522342e-10
5.89439316e-10
6.08580792e-10
6.08589117e-10
5.90173441e-10
5.90295936e-10
6.08075283e-10
6.08358951e-10
5.93632119e-10
5.90333654e-10
5.90846567e-10
5.89862103e-10
5.92716091e-10
6.08712699e-10
5.91652214e-10
5.89606107e-10
6.07980474e-10
6.08590446e-10
5.90129001e-10
5.89834159e-10
6.07959589e-10
6.08731684e-10
5.92301142e-10
5.89480274e-10
5.89812659e-10
5.88602062e-10
5.88881023e-10
6.09404982e-10
6.08489964e-10
6.09313688e-10
6.0827009e-10
6.09221505e-10
6.07980608e-10
6.09059812e-10
5.91895699e-10
5.89217229e-10
5.9066319e-10
6.09060135e-10
5.94170279e-10
5.89561928e-10
6.0790559e-10
6.08583233e-10
5.9091538e-10
5.89969645e-10
5.89775305e-10
5.89576924e-10
6.08325805e-10
6.08504137e-10
5.90708912e-10
5.89900383e-10
5.90039854e-10
5.89844363e-10
6.08615687e-10
6.08463485e-10
5.90082995e-10
5.90243828e-10
6.08823846e-10
6.08263972e-10
6.08744677e-10
5.90695522e-10
5.8925607e-10
6.08299435e-10
6.08701261e-10
5.90933304e-10
5.89279125e-10
5.89264566e-10
6.08563973e-10
6.08688528e-10
5.91678991e-10
5.89153776e-10
5.89834204e-10
6.08392807e-10
6.08713663e-10
5.93004078e-10
5.90070184e-10
5.90499433e-10
5.89350981e-10
5.90039989e-10
6.10056089e-10
6.0813552e-10
6.10011608e-10
5.9038194e-10
5.87764969e-10
5.89414017e-10
6.10393202e-10
6.08254073e-10
6.10154829e-10
6.08068221e-10
6.09886765e-10
5.90518524e-10
5.87504681e-10
5.8979649e-10
6.09856015e-10
5.96601595e-10
6.09381011e-10
6.08225058e-10
5.90514706e-10
5.89207892e-10
5.89391864e-10
6.08835201e-10
6.0878638e-10
5.90468775e-10
5.88561331e-10
5.88960897e-10
6.08966481e-10
6.0883218e-10
5.8997946e-10
5.89398881e-10
6.08505015e-10
6.08774229e-10
5.92014408e-10
5.89828733e-10
5.91032339e-10
6.10418565e-10
6.07721748e-10
6.11147483e-10
5.9088578e-10
5.90459184e-10
5.90393742e-10
5.90254092e-10
6.08341543e-10
6.08467234e-10
5.91709357e-10
5.8901462e-10
5.89536883e-10
6.08882597e-10
6.08119755e-10
6.08344467e-10
5.90591989e-10
5.89988956e-10
6.08339281e-10
6.08306197e-10
5.94942744e-10
5.90457826e-10
5.91135486e-10
5.90293686e-10
5.90135876e-10
)
;

boundaryField
{
    closed
    {
        type            calculated;
        value           uniform 7.28492591e-10;
    }
    open
    {
        type            calculated;
        value           nonuniform List<scalar> 0();
    }
    sides
    {
        type            empty;
    }
    procBoundary0to1
    {
        type            processor;
        value           uniform 6.08504035e-10;
    }
}


// ************************************************************************* //
