/*--------------------------------*- C++ -*----------------------------------*\
| =========                 |                                                 |
| \\      /  F ield         | OpenFOAM: The Open Source CFD Toolbox           |
|  \\    /   O peration     | Version:  2306                                  |
|   \\  /    A nd           | Website:  www.openfoam.com                      |
|    \\/     M anipulation  |                                                 |
\*---------------------------------------------------------------------------*/
FoamFile
{
    version     2.0;
    format      ascii;
    arch        "LSB;label=32;scalar=64";
    class       volScalarField;
    location    "0.002";
    object      sourcePV;
}
// * * * * * * * * * * * * * * * * * * * * * * * * * * * * * * * * * * * * * //

dimensions      [1 -3 -1 0 0 0 0];

internalField   nonuniform List<scalar> 
530
(
0.0216237764
0.0774860856
0.0819548328
0.0815790719
0.0815318774
0.081530494
0.0815304454
0.081530443
0.0815304428
0.0815304428
0.0815304428
0.0815304428
0.0815304428
0.0815304428
0.0815304428
0.0815304428
0.0815304428
0.0815304428
0.0815304428
0.0815304428
0.0815304428
0.0815304428
0.0815304428
0.0815304428
0.0815304428
0.0815304428
0.0815304428
0.0815304428
0.0815304428
0.0815304428
0.0815304428
0.0815304428
0.0815304428
0.0815304428
0.0815304428
0.0815304428
0.0815304428
0.0815304428
0.0815304428
0.0815304428
0.0815304428
0.0815304428
0.0815304428
0.0815304428
0.0815304428
0.0815304428
0.0815304428
0.0815304428
0.0815304428
0.0815304428
0.0815304428
0.0815304428
0.0815304428
0.0815304428
0.0815304428
0.0815304428
0.0815304428
0.081530443
0.0815304431
0.0815304445
0.0815304451
0.0815304525
0.0815304556
0.0815305121
0.0815305034
0.0815304785
0.0815310438
0.0815327042
0.0815300904
0.0815189107
0.0815266069
0.0816552481
0.0817625333
0.0809463478
0.079771596
0.0829903197
0.0909321692
0.0834838964
0.0608517377
0.062311917
0.135276189
0.134569116
0.038707475
0.0067102296
0.00508437927
0.117039779
0.133965969
0.100025426
0.107181406
0.126169007
0.14769732
0.150977002
0.0539200469
0.00582076194
0.006195506
0.00559368372
0.141326684
0.167139155
0.103147333
0.00552539417
0.00651601399
0.0437908213
0.156450295
0.161092015
0.160137188
0.147297286
0.00631865995
0.00620188673
0.00659770834
0.0062673955
0.133081327
0.143097734
0.00682457766
0.00607481798
0.120461134
0.159717307
0.139486489
0.167468758
0.141096952
0.00557848953
0.00646959487
0.00553217445
0.00631013613
0.00553385092
0.153553194
0.17765818
0.15537094
0.170270174
0.152538384
0.00621972744
0.00606059562
0.0984586337
0.164138283
0.129271066
0.00589654843
0.00670672536
0.00605883771
0.137119002
0.150634513
0.00642572369
0.00621327578
0.142182301
0.146090978
0.00660142491
0.00623669734
0.11780874
0.147685438
0.144264921
0.14530304
0.157267547
0.136896129
0.0059033714
0.00631237759
0.00603875911
0.143717856
0.144409724
0.00586799418
0.0063140009
0.00588955657
0.139411307
0.156677989
0.128942612
0.12469208
0.141356482
0.123279612
0.00601279549
0.00531698703
0.1629013
0.1640312
0.00561478058
0.00554036817
0.169610054
0.173239393
0.00559542523
0.00522861563
0.00574947967
0.00529427555
0.163292062
0.171902093
0.00591822417
0.00550030475
0.00621172097
0.00566856525
0.139856861
0.160875804
0.14270523
0.161130891
0.145886307
0.0058580079
0.00595948802
0.155259184
0.166995343
0.149119963
0.00576237026
0.00618731117
0.151927046
0.15178908
0.00586735016
0.00615733537
0.157249573
0.148401718
0.00627205519
0.00621928969
0.0881997052
0.148721257
0.151892593
0.146203004
0.00601807504
0.0062025453
0.00603632468
0.00618500824
0.14981247
0.150483901
0.156541892
0.132980894
0.00587353761
0.124603717
0.155374975
0.00670424888
0.00592484435
0.122222437
0.159262512
0.141684967
0.160947572
0.150086375
0.00606659716
0.00578627542
0.00637058532
0.00558108811
0.133646064
0.174022985
0.11764686
0.0053239663
0.113457887
0.174506866
0.00675439631
0.00558921618
0.133300452
0.0056940092
0.00656212878
0.147375587
0.147217397
0.150239118
0.147496269
0.00613005933
0.00630869076
0.146450017
0.148900494
0.00625420776
0.00625928924
0.140556214
0.143489175
0.00622757888
0.00610430917
0.154202734
0.165625782
0.153114624
0.0060820413
0.00622987537
0.141571983
0.148798963
0.00661292633
0.00619910221
0.12274815
0.150431637
0.129100372
0.00633349234
0.00676381884
0.133216426
0.137560811
0.00669183409
0.00645825058
0.119540299
0.147141868
0.140579355
0.14496362
0.00647314044
0.00635800486
0.13666528
0.145510777
0.00653654804
0.00621273059
0.134129592
0.151973714
0.154337551
0.148667231
0.00584445048
0.00598571609
0.0057306961
0.159474691
0.169410096
0.175980383
0.161792588
0.00560075352
0.00595074817
0.00576167286
0.14356643
0.157885722
0.00614375939
0.00600592769
0.146023902
0.148758471
0.00625632838
0.00616853644
0.143733082
0.146070633
0.00658486166
0.00631302867
0.119681973
0.140663325
0.146573738
0.108929886
0.00612731723
0.121527677
0.156017914
0.00679696279
0.00588477747
0.119702671
0.163783436
0.153146922
0.00612399143
0.00576778808
0.136012396
0.179142481
0.149624785
0.00553980079
0.00648219239
0.0057603964
0.094044473
0.15832832
0.144011715
0.155262588
0.1508915
0.00617399245
0.00616878204
0.138067994
0.148115487
0.00640513879
0.00616502777
0.142903659
0.151010989
0.00664813988
0.00609883305
0.123306224
0.149744367
0.135572382
0.0062624677
0.00655861262
0.135045336
0.142984984
0.00642364519
0.00630505384
0.141855583
0.14689242
0.00649043446
0.0061459995
0.135791819
0.149259975
0.146389844
0.15333109
0.00651485586
0.0059758346
0.128655101
0.151527227
0.14543781
0.154745236
0.00639142462
0.0058016213
0.00658388029
0.00579191746
0.126633358
0.166245422
0.154147854
0.00623068599
0.0059700391
0.116916712
0.161538865
0.145095183
0.16904163
0.161466074
0.00583543006
0.00577127128
0.00613296221
0.0057438621
0.00646441818
0.00576990667
0.107296482
0.165906353
0.151777289
0.175516793
0.171083759
0.0056579821
0.00578524366
0.157360037
0.160251513
0.00599585976
0.00599196524
0.143057956
0.146189374
0.00647168619
0.00621074277
0.107768775
0.145422705
0.128766725
0.15345922
0.114401044
0.00587225167
0.122370868
0.157738702
0.006560909
0.00598996938
0.1400615
0.155275452
0.0065806262
0.00586066437
0.117327744
0.162951098
0.147527804
0.178103851
0.165449353
0.00521831068
0.00607926387
0.00530418278
0.0062877945
0.00539243
0.00656080111
0.00554746563
0.12073001
0.168398255
0.131520711
0.00554773739
0.103977002
0.159703215
0.00663124389
0.00599761898
0.128020958
0.152324041
0.148295364
0.157969165
0.00623522192
0.00606978621
0.132609213
0.152633181
0.146669035
0.152862127
0.00596319408
0.00610949895
0.146730636
0.145696752
0.00576483645
0.0062980632
0.00583967117
0.135669715
0.163082395
0.00626370527
0.00588229796
0.12979076
0.164525996
0.160221135
0.00601759433
0.00589102552
0.124153468
0.164003905
0.154671402
0.00617314799
0.00588285487
0.112791606
0.15627626
0.137145487
0.171151392
0.146215152
0.004618996
0.00641680038
0.00465919855
0.13842625
0.200676178
0.156293128
0.00431484194
0.00630371533
0.00452788868
0.00647862297
0.00477275067
0.134165868
0.20149571
0.147601516
0.00480095651
0.0875044228
0.00525315181
0.00632997012
0.143127939
0.162304061
0.161537042
0.00575597563
0.00580167642
0.139935676
0.176540153
0.167640727
0.00563097679
0.00575870969
0.147967753
0.162457528
0.00606722788
0.00582401616
0.120129699
0.161636587
0.127777236
0.00429367649
0.00680349431
0.00355618688
0.128572701
0.151276804
0.138298539
0.147715923
0.00622024344
0.0061039799
0.122100864
0.166650261
0.152991998
0.00570575968
0.0064296605
0.0062175115
0.13408232
0.14867514
0.00622238538
0.00625692093
0.0986462925
0.140772017
0.12679737
0.143746303
0.143037695
)
;

boundaryField
{
    closed
    {
        type            calculated;
        value           uniform 0;
    }
    open
    {
        type            calculated;
        value           nonuniform List<scalar> 0();
    }
    sides
    {
        type            empty;
    }
    procBoundary0to1
    {
        type            processor;
        value           uniform 0;
    }
}


// ************************************************************************* //
