/*--------------------------------*- C++ -*----------------------------------*\
| =========                 |                                                 |
| \\      /  F ield         | OpenFOAM: The Open Source CFD Toolbox           |
|  \\    /   O peration     | Version:  2306                                  |
|   \\  /    A nd           | Website:  www.openfoam.com                      |
|    \\/     M anipulation  |                                                 |
\*---------------------------------------------------------------------------*/
FoamFile
{
    version     2.0;
    format      ascii;
    arch        "LSB;label=32;scalar=64";
    class       volScalarField;
    location    "0.00106";
    object      Z;
}
// * * * * * * * * * * * * * * * * * * * * * * * * * * * * * * * * * * * * * //

dimensions      [0 0 0 0 0 0 0];

internalField   nonuniform List<scalar> 
530
(
0.0162100514
0.0162153855
0.016220226
0.0162251728
0.0162295683
0.0162342424
0.0162384685
0.0162429569
0.0162470154
0.016251324
0.0162552169
0.0162593502
0.0162630803
0.016267042
0.0162708503
0.0162749992
0.0162784551
0.0162821883
0.0162854571
0.0162890082
0.016292104
0.0162954748
0.0162984
0.0163015929
0.0163043494
0.0163073667
0.0163099562
0.0163128005
0.0163152245
0.0163178985
0.0163201584
0.0163226649
0.0163247616
0.0163271043
0.0163290372
0.0163310529
0.0163326652
0.0163345019
0.0163359532
0.0163376195
0.0163389089
0.016340408
0.0163415354
0.0163428694
0.0163438353
0.0163450059
0.0163458109
0.0163468198
0.0163474647
0.0163483128
0.0163487988
0.0163494868
0.016349815
0.0163503438
0.0163505145
0.0163508854
0.0163509008
0.0163511075
0.0163509643
0.0163510085
0.0163507135
0.0163506164
0.0163501719
0.0163498563
0.016349124
0.0163485763
0.0163476822
0.0163469907
0.0163459303
0.016345098
0.0163438698
0.0163428988
0.0163415014
0.0163403942
0.0163388261
0.0163375857
0.0163358447
0.0163344749
0.0163325583
0.0163310626
0.0163289713
0.0163273548
0.0163250988
0.0163233448
0.0163209825
0.0163189829
0.0163165717
0.0163143204
0.0163118613
0.0163093651
0.016306852
0.0163041201
0.0163015458
0.0162985873
0.0162959456
0.0162927685
0.016290054
0.0162866657
0.0162838739
0.0162802812
0.0162774082
0.0162736176
0.0162706601
0.0162666777
0.0162636329
0.0162594644
0.01625633
0.0162519811
0.0162487552
0.0162442312
0.0162409122
0.0162361852
0.0162326497
0.0162276763
0.0162240434
0.0162189034
0.016215172
0.0162098694
0.0162060387
0.016200577
0.0161966467
0.0161910293
0.0161869994
0.0161812293
0.0161771003
0.0161711805
0.0161669531
0.0161608863
0.0161565614
0.0161503504
0.0161459292
0.0161395765
0.0161350604
0.0161285688
0.0161239588
0.0161173313
0.0161126287
0.0161058683
0.016101074
0.0160941842
0.0160892989
0.0160822832
0.0160773075
0.0160701691
0.0160651041
0.0160578458
0.016052693
0.0160453184
0.0160400786
0.016032595
0.0160272643
0.0160196964
0.0160142455
0.0160066857
0.0160012285
0.015993467
0.0159878104
0.0159800668
0.0159742111
0.0159664814
0.0159604506
0.0159527194
0.0159465355
0.0159387906
0.0159324687
0.0159247033
0.0159182534
0.0159104643
0.0159038936
0.0158960796
0.0158893944
0.0158815553
0.0158747614
0.0158668973
0.0158600006
0.0158521118
0.0158451182
0.0158372053
0.0158301204
0.0158221839
0.0158150136
0.0158070543
0.015799804
0.015791823
0.0157844988
0.0157765066
0.0157691211
0.0157611102
0.0157536609
0.0157456329
0.0157381248
0.0157300813
0.0157225194
0.0157144622
0.0157068514
0.0156987825
0.0156911274
0.015683049
0.0156753542
0.0156672686
0.0156595386
0.015651448
0.0156436873
0.0156355942
0.0156278072
0.015619714
0.015611905
0.0156038144
0.0155959876
0.0155879023
0.0155800619
0.0155719845
0.0155641348
0.0155560681
0.0155482132
0.0155401598
0.0155323041
0.0155241687
0.0155162204
0.015508099
0.0155001549
0.0154920623
0.0154841336
0.0154760589
0.0154681375
0.0154600832
0.0154521727
0.0154441413
0.0154362448
0.0154282389
0.0154203599
0.015412382
0.0154045235
0.0153965761
0.0153887413
0.0153808269
0.015373019
0.0153651401
0.0153573619
0.0153495209
0.0153417754
0.0153339749
0.0153262649
0.0153185071
0.0153108355
0.0153031228
0.0152954922
0.015287827
0.0152802402
0.0152726245
0.0152650841
0.0152575202
0.0152500288
0.0152425187
0.015235085
0.01522764
0.0152202632
0.0152128776
0.0152055578
0.0151982333
0.0151909728
0.0151837113
0.0151765121
0.0151693154
0.0151621795
0.0151550493
0.0151479787
0.0151409167
0.0151339131
0.0151269209
0.0151199862
0.0151130654
0.0151062011
0.0150993532
0.015092561
0.0150857873
0.0150790688
0.0150723707
0.0150657272
0.0150591061
0.015052539
0.015045996
0.0150395066
0.0150330429
0.0150266324
0.0150202491
0.0150139187
0.0150076168
0.0150013674
0.0149951479
0.0149889806
0.0149828443
0.01497676
0.0149707077
0.0149647072
0.0149587397
0.0149528238
0.0149469418
0.0149411112
0.0149353152
0.0149295705
0.0149238611
0.0149182028
0.0149125805
0.0149070091
0.0149014743
0.0148959902
0.0148905433
0.0148851468
0.0148797881
0.0148744795
0.0148692092
0.0148639885
0.0148588114
0.0148536897
0.0148486067
0.0148435728
0.0148385776
0.0148336314
0.0148287241
0.0148238657
0.0148190461
0.0148142753
0.0148095435
0.0148048603
0.014800216
0.0147956201
0.0147910632
0.0147865543
0.0147820846
0.0147776625
0.0147732796
0.0147689439
0.0147646474
0.0147603978
0.0147561873
0.0147520234
0.0147478984
0.0147438196
0.0147397796
0.0147357855
0.0147318299
0.0147279198
0.0147240481
0.0147202214
0.0147164329
0.014712689
0.014708983
0.0147053211
0.0147016969
0.0146981164
0.0146945724
0.0146910709
0.0146876063
0.0146841846
0.0146807995
0.0146774568
0.0146741503
0.0146708857
0.0146676569
0.0146644694
0.0146613175
0.0146582062
0.0146551301
0.0146520941
0.0146490928
0.0146461311
0.0146432036
0.0146403152
0.0146374605
0.0146346443
0.0146318614
0.0146291164
0.0146264042
0.0146237293
0.0146210867
0.0146184809
0.0146159068
0.0146133689
0.0146108623
0.0146083913
0.014605951
0.0146035456
0.0146011705
0.0145988298
0.0145965187
0.0145942415
0.0145919934
0.0145897784
0.0145875921
0.0145854384
0.0145833128
0.0145812191
0.014579153
0.0145771182
0.0145751105
0.0145731335
0.014571183
0.0145692626
0.0145673683
0.0145655034
0.014563664
0.0145618535
0.014560068
0.0145583108
0.0145565779
0.0145548728
0.0145531916
0.0145515375
0.0145499067
0.0145483025
0.0145467211
0.0145451657
0.0145436327
0.0145421249
0.0145406391
0.014539178
0.0145377382
0.0145363227
0.014534928
0.0145335569
0.0145322062
0.0145308785
0.0145295708
0.0145282855
0.0145270196
0.0145257757
0.0145245507
0.0145233472
0.0145221621
0.0145209978
0.0145198516
0.0145187257
0.0145176173
0.0145165287
0.0145154572
0.0145144051
0.0145133695
0.0145123528
0.0145113522
0.01451037
0.0145094035
0.0145084548
0.0145075214
0.0145066054
0.0145057043
0.0145048199
0.0145039502
0.0145030967
0.0145022574
0.0145014339
0.0145006242
0.0144998291
0.0144990187
0.0144981682
0.0144972752
0.0144963409
0.014495363
0.0144943436
0.0144932807
0.0144921773
0.0144910322
0.014489849
0.0144886276
0.0144873727
0.0144860854
0.0144847717
0.0144834339
0.0144820792
0.0144807117
0.0144793397
0.014477969
0.0144766087
0.0144752664
0.0144739513
0.0144726725
0.0144714388
0.0144702601
0.0144691435
0.0144680989
0.0144671308
0.0144662475
0.0144654501
0.0144647441
0.0144641263
0.0144635987
0.0144631538
0.0144627899
0.0144624962
0.0144622678
0.0144620936
0.0144619641
0.0144618744
0.0144618132
0.0144617755
0.0144617414
0.014461724
0.0144617147
0.0144617102
0.0144617082
0.0144617075
0.0144617071
0.014461707
0.0144617069
0.0144617069
0.0144617069
0.0144617069
0.0144617069
0.0144617069
0.0144617069
0.0144617069
0.0144617069
0.0144617069
0.0144617069
0.0144617069
0.0144617069
0.0144617069
0.0144617069
0.0144617069
0.0144617069
0.0144617069
0.0144617069
0.0144617069
0.0144617069
0.0144617069
0.0144617069
0.0144617069
0.0144617069
0.0144617069
0.0144617069
)
;

boundaryField
{
    closed
    {
        type            zeroGradient;
    }
    open
    {
        type            zeroGradient;
    }
    sides
    {
        type            empty;
    }
    procBoundary5to4
    {
        type            processor;
        value           uniform 0.0162049986;
    }
}


// ************************************************************************* //
