/*--------------------------------*- C++ -*----------------------------------*\
| =========                 |                                                 |
| \\      /  F ield         | OpenFOAM: The Open Source CFD Toolbox           |
|  \\    /   O peration     | Version:  2306                                  |
|   \\  /    A nd           | Website:  www.openfoam.com                      |
|    \\/     M anipulation  |                                                 |
\*---------------------------------------------------------------------------*/
FoamFile
{
    version     2.0;
    format      ascii;
    arch        "LSB;label=32;scalar=64";
    class       volScalarField;
    location    "0.00088";
    object      Z;
}
// * * * * * * * * * * * * * * * * * * * * * * * * * * * * * * * * * * * * * //

dimensions      [0 0 0 0 0 0 0];

internalField   nonuniform List<scalar> 
530
(
0.0141216717
0.0139544068
0.0138861295
0.0140815364
0.0141174864
0.0140722345
0.0138902387
0.0139365004
0.0141079514
0.0140869331
0.0138875637
0.0138863595
0.0140918472
0.0140616145
0.0138867504
0.0138788362
0.0140813793
0.0140348155
0.0138809487
0.0138736005
0.0140641044
0.0140154596
0.0138740034
0.0138672814
0.0140441759
0.0139998375
0.0138661371
0.0138598648
0.0140241924
0.0139858052
0.0138562668
0.0138514877
0.0140049071
0.0139737116
0.0138445027
0.0138421755
0.0139882
0.0139599756
0.0138325412
0.0138318162
0.0139730935
0.0139469768
0.0138203327
0.013820937
0.0139592776
0.0139348008
0.013808945
0.0138107177
0.013946204
0.0139232274
0.0137990416
0.013801231
0.0139343267
0.0139124899
0.0137901558
0.0137928022
0.0139238936
0.0139026071
0.0137827726
0.0137853802
0.0139148353
0.0138938122
0.0137767093
0.0137794746
0.013907063
0.0138862627
0.0137720144
0.0137748674
0.0139005945
0.0138798363
0.0137685516
0.013771516
0.0138954639
0.0138747215
0.0137662561
0.0137693779
0.0138916145
0.0138709092
0.0137651382
0.0137684323
0.0138890053
0.013868379
0.0137654826
0.0137686857
0.0138878432
0.0138671606
0.0137675008
0.0137704203
0.0138879564
0.013867491
0.013770973
0.0137738555
0.0138892418
0.0138691245
0.0137756313
0.0137787777
0.0138918528
0.0138720159
0.0137814107
0.0137850156
0.0138957438
0.0138761078
0.0137883555
0.013792245
0.013900843
0.0138814126
0.013796347
0.0138006322
0.0139069797
0.0138879472
0.0138052672
0.0138099003
0.0139142022
0.0138955143
0.0138152731
0.013819945
0.0139224091
0.0139042068
0.0138265541
0.0138310093
0.0139313466
0.0139137156
0.0138393175
0.0138432781
0.0139406349
0.0139238094
0.0138535168
0.0138569562
0.0139494659
0.0139340475
0.0138696061
0.0138723549
0.0139565863
0.0139439422
0.0138882095
0.0138896136
0.0139589884
0.0139520709
0.0139171365
0.0139074579
0.0139555566
0.0139619414
0.0139668457
0.0139270053
0.0139407939
0.0139706752
0.0140088231
0.0139499611
0.0139278188
0.0139783819
0.0140339395
0.0139738413
0.0139346662
0.0139870023
0.0140502347
0.0139953504
0.013950002
0.0139972833
0.0140637348
0.0140154165
0.0139683744
0.0140104631
0.0140762479
0.0140323186
0.0139881137
0.0140277644
0.0140884617
0.0140456126
0.0140081383
0.0140483543
0.0141014269
0.0140571258
0.0140269002
0.0140702103
0.0141154135
0.0140685668
0.014045465
0.0140909822
0.0141297207
0.0140817507
0.0140636394
0.0141091998
0.0141441884
0.0140967482
0.0140815136
0.0141263298
0.0141586195
0.0141124598
0.0140992725
0.0141428032
0.0141728399
0.0141282748
0.0141166214
0.0141588924
0.0141869105
0.0141438447
0.0141336237
0.0141746793
0.014200919
0.0141589649
0.0141502623
0.014190268
0.0142148085
0.0141738127
0.0141664773
0.0142055295
0.0142286318
0.0141883994
0.0141820644
0.0142203862
0.0142425093
0.0142027202
0.0141967699
0.0142347859
0.0142562116
0.0142167356
0.014210857
0.014248706
0.0142694963
0.0142303945
0.0142245934
0.0142621418
0.0142822062
0.0142436546
0.014238059
0.0142750899
0.0142943182
0.0142564866
0.0142513073
0.0142875475
0.0143058198
0.0142688706
0.0142642162
0.0142995004
0.0143167472
0.0142807978
0.0142767344
0.014310935
0.0143271474
0.0142922655
0.0142888115
0.0143218366
0.0143370861
0.0143032725
0.0143004542
0.014332197
0.0143465637
0.0143138195
0.0143111736
0.0143419878
0.0143553922
0.0143238846
0.0143213867
0.0143512082
0.0143637041
0.0143334751
0.0143311644
0.0143598896
0.0143715195
0.0143426201
0.0143404925
0.0143680496
0.0143788684
0.0143513156
0.0143493584
0.0143757033
0.0143857728
0.0143595556
0.0143577573
0.0143828821
0.0143922515
0.0143673415
0.0143656901
0.0143896088
0.0143983177
0.0143746802
0.014373165
0.0143958971
0.0144039834
0.0143815878
0.014380194
0.0144017555
0.0144092621
0.0143880812
0.0143867903
0.014407196
0.0144141681
0.0143941793
0.0143929676
0.0144122359
0.0144187171
0.014399882
0.0143987399
0.0144169076
0.0144229258
0.0144051983
0.0144041223
0.0144212303
0.0144268101
0.0144101437
0.014409131
0.0144252216
0.0144303861
0.0144147344
0.0144137828
0.0144288988
0.01443367
0.0144189871
0.0144180944
0.0144322792
0.0144366777
0.0144229184
0.014422083
0.0144353799
0.014439425
0.0144265451
0.0144257657
0.0144382177
0.0144419273
0.0144298837
0.0144291598
0.0144408094
0.0144441996
0.0144329507
0.0144322822
0.0144431713
0.014446256
0.0144357621
0.0144351497
0.0144453201
0.01444811
0.0144383337
0.0144377787
0.0144472719
0.0144497745
0.0144406806
0.0144401852
0.0144490431
0.0144512607
0.0144428183
0.0144423839
0.0144506503
0.0144525788
0.0144447609
0.0144443892
0.0144521118
0.0144537357
0.0144465212
0.0144462151
0.0144534489
0.0144547349
0.0144481058
0.0144478788
0.0144546883
0.0144555714
0.0144495241
0.0144493915
0.0144558564
0.0144562522
0.0144507867
0.0144507158
0.0144569823
0.0144568561
0.0144518833
0.014451819
0.0144579635
0.0144575371
0.0144529324
0.0144528955
0.0144585986
0.0144582581
0.0144538679
0.0144538621
0.0144591417
0.0144588144
0.0144547645
0.0144547513
0.0144596355
0.01445929
0.0144555464
0.0144555509
0.0144600867
0.0144596921
0.014456243
0.0144562728
0.0144604738
0.0144600527
0.0144568691
0.0144569119
0.0144607853
0.0144603831
0.0144574424
0.0144574742
0.0144610225
0.0144606897
0.0144579605
0.0144579714
0.0144612112
0.0144609491
0.0144584215
0.0144584166
0.0144613827
0.0144611544
0.0144588261
0.0144588157
0.0144615386
0.0144613258
0.0144591762
0.0144591688
0.0144616732
0.0144614692
0.0144594845
0.0144594811
0.0144617848
0.0144615891
0.014459757
0.0144597554
0.0144618751
0.01446169
0.0144599966
0.0144599985
0.014461946
0.0144617687
0.014460211
0.0144602163
0.0144619976
0.0144618299
0.0144604018
0.0144604087
0.0144620338
0.0144618779
0.0144605713
0.0144605784
0.0144620566
0.0144619145
0.0144607219
0.014460728
0.0144620677
0.0144619407
0.0144608564
0.0144608608
0.0144620681
0.0144619565
0.0144609796
0.0144609824
0.0144620552
0.0144619577
0.0144611067
0.0144611106
0.0144619929
0.0144619103
0.0144613328
0.0144613161
0.0144618543
0.0144617776
0.0144616656
0.0144616197
0.0144617333
0.0144616909
0.0144617314
0.0144616999
0.014461743
0.0144617196
0.0144617516
0.0144617351
0.014461759
0.0144617476
0.0144617644
0.0144617566
0.0144617673
0.0144617617
0.0144617675
0.0144617627
0.0144617648
0.0144617601
0.0144617596
0.0144617544
0.0144617519
0.0144617468
0.0144617431
0.014461736
0.0144617295
0.0144617239
0.0144617192
0.0144617157
0.0144617127
0.0144617108
0.0144617092
0.0144617083
0.0144617077
0.0144617073
0.0144617071
0.014461707
0.0144617069
0.0144617069
0.0144617069
0.0144617069
0.0144617069
0.0144617069
0.0144617069
0.0144617069
0.0144617069
0.0144617069
0.0144617069
0.0144617069
0.0144617069
0.0144617069
0.0144617069
0.0144617069
0.0144617069
0.0144617069
0.0144617069
0.0144617069
0.0144617069
0.0144617069
0.0144617069
0.0144617069
0.0144617069
0.0144617069
0.0144617069
0.0144617069
0.0144617069
0.0144617069
0.0144617069
0.0144617069
0.0144617069
0.0144617069
0.0144617069
0.0144617069
0.0144617069
)
;

boundaryField
{
    closed
    {
        type            zeroGradient;
    }
    open
    {
        type            zeroGradient;
    }
    sides
    {
        type            empty;
    }
    procBoundary5to4
    {
        type            processor;
        value           uniform 0.0141587557;
    }
}


// ************************************************************************* //
