/*--------------------------------*- C++ -*----------------------------------*\
| =========                 |                                                 |
| \\      /  F ield         | OpenFOAM: The Open Source CFD Toolbox           |
|  \\    /   O peration     | Version:  2306                                  |
|   \\  /    A nd           | Website:  www.openfoam.com                      |
|    \\/     M anipulation  |                                                 |
\*---------------------------------------------------------------------------*/
FoamFile
{
    version     2.0;
    format      ascii;
    arch        "LSB;label=32;scalar=64";
    class       volScalarField;
    location    "0.00084";
    object      H2;
}
// * * * * * * * * * * * * * * * * * * * * * * * * * * * * * * * * * * * * * //

dimensions      [0 0 0 0 0 0 0];

internalField   nonuniform List<scalar> 
530
(
0.0109231084
0.0108145924
0.010803505
0.0108034657
0.0108034605
0.0108034603
0.0108034603
0.0108034603
0.0108034603
0.0108034603
0.0108034603
0.0108034603
0.0108034603
0.0108034603
0.0108034603
0.0108034603
0.0108034603
0.0108034603
0.0108034603
0.0108034603
0.0108034603
0.0108034603
0.0108034603
0.0108034603
0.0108034603
0.0108034603
0.0108034603
0.0108034603
0.0108034603
0.0108034603
0.0108034603
0.0108034603
0.0108034603
0.0108034603
0.0108034603
0.0108034603
0.0108034603
0.0108034603
0.0108034603
0.0108034603
0.0108034603
0.0108034603
0.0108034603
0.0108034603
0.0108034603
0.0108034603
0.0108034603
0.0108034603
0.0108034603
0.0108034603
0.0108034603
0.0108034603
0.0108034603
0.0108034603
0.0108034603
0.0108034603
0.0108034603
0.0108034603
0.0108034603
0.0108034603
0.0108034603
0.0108034603
0.0108034603
0.0108034603
0.0108034603
0.0108034603
0.0108034603
0.0108034603
0.0108034603
0.0108034603
0.0108034603
0.0108034603
0.0108034603
0.0108034604
0.0108034605
0.0108034606
0.0108034605
0.0108034615
0.0108034654
0.0108034665
0.0108034604
0.0108034697
0.0108035077
0.0108035289
0.010803583
0.010803569
0.0108033296
0.010802605
0.0108027163
0.0108077427
0.0108160787
0.0108116873
0.0107515511
0.0107108412
0.0107221887
0.0110582881
0.0110233387
0.0108354827
0.0106749782
0.0106681018
0.0106727753
0.01082034
0.0110233731
0.0110330827
0.0110201037
0.0110610444
0.0106702601
0.0106659478
0.0106721263
0.0106751968
0.0107718091
0.0110241804
0.010998119
0.0110580176
0.0106836195
0.0106668631
0.010675221
0.0107814022
0.0110201653
0.0109982589
0.0110537004
0.0106816858
0.0106702239
0.0106723393
0.0107483982
0.0110090095
0.0110502947
0.0106856707
0.0107155229
0.0110095599
0.0110461387
0.0106629506
0.0106512659
0.0107339474
0.0110197021
0.0110522598
0.0106794813
0.0107040529
0.0110124375
0.0110645739
0.0106741515
0.0107035338
0.0110139499
0.0110709287
0.0106721916
0.0107022896
0.0110147991
0.0110703067
0.0106717428
0.0107013871
0.011014843
0.011067106
0.0106716786
0.0107009583
0.0110146809
0.0110684236
0.0106705782
0.0107006372
0.0110148189
0.0110484477
0.0106601369
0.0106450816
0.0107162383
0.0110217519
0.0110434239
0.0106743218
0.0106987337
0.0110135739
0.0110437569
0.0106612647
0.010645354
0.0107153099
0.0110215118
0.0110397682
0.0106746809
0.010696887
0.0110127909
0.0110524263
0.0106711778
0.0106972563
0.0110128583
0.0110540294
0.0106701329
0.0106962553
0.0110129956
0.0110525322
0.0106696326
0.0106957372
0.0110127727
0.0110542898
0.0106681692
0.0106947669
0.0110122319
0.0110387978
0.0106628868
0.0106449344
0.0107105174
0.0110197517
0.0110291539
0.0106749334
0.0106933479
0.011009995
0.0110410888
0.010670816
0.0106939013
0.0110095572
0.0110326747
0.010665551
0.0106467715
0.0107118454
0.0110184383
0.0110267801
0.0106738048
0.0106917249
0.0110095603
0.0110304059
0.0106654991
0.0106456448
0.0107101683
0.0110191017
0.0110269374
0.0106739338
0.0106906497
0.0110104634
0.0110414629
0.0106700801
0.0106918785
0.0110107816
0.0110435042
0.0106687121
0.0106931358
0.0110115837
0.0110550826
0.0106659365
0.0106892635
0.0110113115
0.0110237402
0.0106646291
0.0106443188
0.0107082496
0.0110197687
0.0110266894
0.0106710828
0.010686878
0.0110117069
0.011038901
0.0106687161
0.0106997999
0.0110136589
0.0109830061
0.010663805
0.0106924699
0.0110119816
0.0110151098
0.010669917
0.0106474107
0.0107073552
0.0110163271
0.0110142271
0.010678187
0.0106859202
0.0110078567
0.011027299
0.0106720544
0.0106877269
0.0110078048
0.0110143294
0.0106724285
0.0106538243
0.0107179007
0.0110113156
0.011004137
0.0106877666
0.0106910644
0.011004974
0.0110095616
0.0106728154
0.0106639963
0.010676989
0.010669359
0.0107305017
0.0110098188
0.0110077555
0.0106763807
0.0106572933
0.0107282677
0.0110069597
0.0110045392
0.0106883942
0.0106906136
0.0109985416
0.0110063321
0.0106856106
0.0106953392
0.0110017545
0.0110072753
0.010673386
0.0106671891
0.0106776695
0.0106796165
0.01067856
0.010828124
0.0109986403
0.0110062582
0.0106972434
0.0106770896
0.010791281
0.0109993014
0.0110055031
0.0106895299
0.0106963501
0.0110010479
0.0110073502
0.010666126
0.0106509759
0.0107253885
0.0110139988
0.0110084487
0.0106686013
0.0106518624
0.0107193527
0.0110103311
0.0110061362
0.0106798963
0.0106908509
0.0110056057
0.0110106777
0.0106678107
0.0106558356
0.0107411995
0.0110126726
0.0110101513
0.0106725741
0.0106606587
0.0107544261
0.0110099927
0.0110116428
0.0106742414
0.0106645642
0.0107668093
0.0110104171
0.0110155298
0.0106734462
0.0106697675
0.0106749357
0.0107454454
0.0110066912
0.0110168939
0.0106667454
0.0106593043
0.0107538199
0.0110114796
0.0110193209
0.0106646743
0.0106579624
0.0107423657
0.0110072114
0.0110292047
0.0106799136
0.0106998979
0.0110000799
0.011034645
0.0106769267
0.0107041267
0.0110040617
0.0110288718
0.0106572227
0.0106552685
0.0107504055
0.0110142271
0.0110263383
0.0106587279
0.0106554894
0.0107410091
0.0110089499
0.0110381116
0.0106781525
0.0107084006
0.0110059362
0.0110311258
0.0106570168
0.0106560513
0.0107447225
0.0110095035
0.0110389341
0.0106804737
0.0107126503
0.0110059675
0.0110317036
0.0106573507
0.010657677
0.0107580126
0.0110148574
0.0110300856
0.0106575586
0.0106567519
0.0107558014
0.0110152063
0.0110325026
0.0106555788
0.0106548644
0.0107424294
0.0110117895
0.0110473665
0.0106768778
0.0107039203
0.0110047223
0.0110513919
0.0106741137
0.0107071831
0.0110093235
0.0110402398
0.0106490982
0.010651188
0.0107374295
0.0110144351
0.0110522995
0.0106755379
0.0107041288
0.0110061518
0.0110565682
0.0106736622
0.0107079795
0.0110098856
0.0110428897
0.0106493757
0.010652219
0.0107409643
0.0110142195
0.0110553757
0.01067706
0.010712366
0.0110106497
0.0110439586
0.0106497473
0.0106524577
0.010742209
0.011014494
0.011058558
0.0106761342
0.0107114499
0.0110113527
0.0110461564
0.0106473104
0.0106503978
0.0107386642
0.0110153293
0.0110614186
0.0106741342
0.0107044933
0.011007336
0.01106489
0.0106715087
0.0107039633
0.0110059802
0.0110630976
0.0106725522
0.010708592
0.0110087363
0.0110467436
0.0106532079
0.0106571519
0.0107640363
0.0110149094
0.0110392927
0.0106601959
0.0106602166
0.0107585613
0.0110109659
0.011058193
0.0106747816
0.0107080184
0.0110088866
0.0110457474
0.0106528992
0.0106563512
0.0107650308
0.0110139841
0.0110406331
0.0106619462
0.0106619086
0.0107663295
0.0110081461
0.0110556437
0.0106815674
0.0107183158
0.0110055828
0.0110444503
0.0106592563
0.0106624004
0.0107850035
0.0110123016
0.0110379611
0.0106612637
0.0106607611
0.0107757713
0.0110129683
0.0110407972
0.0106569081
0.0106558698
0.0107929585
0.0110153161
0.011022365
0.0110169317
0.011067101
0.0106521227
0.0106546118
0.0106740609
0.0106718704
0.0107693548
0.0110090059
0.0110547333
0.0106737224
0.0106745694
0.0108419623
0.0110069717
0.0110397201
0.0106689698
0.0106681691
0.0108000994
0.0110095384
0.0110393774
0.0106602374
0.010658505
0.0107700925
0.0110103163
0.0110480661
0.0106677733
0.0106678115
0.0108118798
)
;

boundaryField
{
    closed
    {
        type            calculated;
        value           uniform 0.0144406722;
    }
    open
    {
        type            calculated;
        value           nonuniform List<scalar> 0();
    }
    sides
    {
        type            empty;
    }
    procBoundary0to1
    {
        type            processor;
        value           uniform 0.0110074252;
    }
}


// ************************************************************************* //
