/*--------------------------------*- C++ -*----------------------------------*\
| =========                 |                                                 |
| \\      /  F ield         | OpenFOAM: The Open Source CFD Toolbox           |
|  \\    /   O peration     | Version:  2306                                  |
|   \\  /    A nd           | Website:  www.openfoam.com                      |
|    \\/     M anipulation  |                                                 |
\*---------------------------------------------------------------------------*/
FoamFile
{
    version     2.0;
    format      ascii;
    arch        "LSB;label=32;scalar=64";
    class       volScalarField;
    location    "0.00084";
    object      prefDZ_H2;
}
// * * * * * * * * * * * * * * * * * * * * * * * * * * * * * * * * * * * * * //

dimensions      [1 -1 -1 0 0 0 0];

internalField   nonuniform List<scalar> 
530
(
6.36897869e-05
6.25337768e-05
6.23335839e-05
6.23307347e-05
6.23304669e-05
6.23304602e-05
6.23304598e-05
6.23304597e-05
6.23304597e-05
6.23304597e-05
6.23304597e-05
6.23304597e-05
6.23304597e-05
6.23304597e-05
6.23304597e-05
6.23304597e-05
6.23304597e-05
6.23304597e-05
6.23304597e-05
6.23304597e-05
6.23304597e-05
6.23304597e-05
6.23304597e-05
6.23304597e-05
6.23304597e-05
6.23304597e-05
6.23304597e-05
6.23304597e-05
6.23304597e-05
6.23304597e-05
6.23304597e-05
6.23304597e-05
6.23304597e-05
6.23304597e-05
6.23304597e-05
6.23304597e-05
6.23304597e-05
6.23304597e-05
6.23304597e-05
6.23304597e-05
6.23304597e-05
6.23304597e-05
6.23304597e-05
6.23304597e-05
6.23304597e-05
6.23304597e-05
6.23304597e-05
6.23304597e-05
6.23304597e-05
6.23304597e-05
6.23304597e-05
6.23304597e-05
6.23304597e-05
6.23304597e-05
6.23304597e-05
6.23304597e-05
6.23304597e-05
6.23304597e-05
6.23304597e-05
6.23304597e-05
6.23304597e-05
6.23304597e-05
6.23304597e-05
6.23304597e-05
6.23304597e-05
6.23304597e-05
6.23304597e-05
6.23304598e-05
6.23304598e-05
6.23304598e-05
6.23304598e-05
6.233046e-05
6.23304604e-05
6.23304613e-05
6.23304637e-05
6.23304673e-05
6.23304761e-05
6.23304958e-05
6.23305366e-05
6.23306021e-05
6.23307026e-05
6.23309066e-05
6.23313133e-05
6.23318176e-05
6.23327254e-05
6.23338036e-05
6.23344607e-05
6.23350534e-05
6.23370142e-05
6.23487584e-05
6.23676977e-05
6.23633905e-05
6.22896939e-05
6.23544633e-05
6.22739926e-05
6.34252802e-05
6.35852769e-05
6.24084702e-05
6.18924356e-05
6.17951919e-05
6.18157766e-05
6.23897321e-05
6.35656755e-05
6.34721972e-05
6.3546484e-05
6.3432931e-05
6.17722124e-05
6.15317867e-05
6.18971606e-05
6.17551796e-05
6.22895586e-05
6.34851073e-05
6.36251271e-05
6.34304937e-05
6.20776508e-05
6.16205403e-05
6.18710098e-05
6.23198375e-05
6.35212637e-05
6.36223172e-05
6.34537859e-05
6.20608015e-05
6.16667594e-05
6.18799565e-05
6.23467904e-05
6.36163357e-05
6.34933966e-05
6.21663649e-05
6.2390554e-05
6.36329829e-05
6.34855767e-05
6.16650432e-05
6.12605894e-05
6.23177784e-05
6.35489522e-05
6.35094399e-05
6.19795028e-05
6.23886632e-05
6.36100334e-05
6.34350055e-05
6.18998588e-05
6.23310294e-05
6.36062629e-05
6.33953351e-05
6.18487915e-05
6.22977639e-05
6.35989283e-05
6.33963277e-05
6.18315664e-05
6.22734723e-05
6.35940398e-05
6.34113357e-05
6.18263731e-05
6.22574605e-05
6.35921491e-05
6.33970074e-05
6.18114221e-05
6.22590411e-05
6.35995195e-05
6.34676511e-05
6.15877409e-05
6.1090281e-05
6.2346595e-05
6.35228583e-05
6.35373554e-05
6.18522409e-05
6.22589458e-05
6.35945817e-05
6.34817478e-05
6.1616681e-05
6.11022239e-05
6.23453943e-05
6.35190453e-05
6.35515218e-05
6.18486863e-05
6.22088885e-05
6.3581772e-05
6.34714814e-05
6.1818575e-05
6.21747999e-05
6.35864599e-05
6.34618287e-05
6.17958964e-05
6.2154358e-05
6.35838121e-05
6.34685976e-05
6.17855824e-05
6.21404886e-05
6.35858327e-05
6.34563123e-05
6.17703039e-05
6.2138651e-05
6.35987502e-05
6.34998861e-05
6.16651341e-05
6.11122836e-05
6.23412749e-05
6.35199559e-05
6.35834448e-05
6.18640109e-05
6.21686782e-05
6.35863686e-05
6.35120664e-05
6.18399933e-05
6.21542165e-05
6.36056665e-05
6.35158052e-05
6.17328894e-05
6.11719915e-05
6.2335114e-05
6.35244316e-05
6.35913837e-05
6.18572396e-05
6.21637609e-05
6.35978541e-05
6.35255889e-05
6.17358127e-05
6.1154398e-05
6.23328612e-05
6.35206668e-05
6.3591954e-05
6.18477506e-05
6.21231418e-05
6.35806529e-05
6.3510648e-05
6.1813995e-05
6.20984711e-05
6.3587154e-05
6.35011572e-05
6.17866209e-05
6.21018197e-05
6.35890032e-05
6.34473035e-05
6.1745722e-05
6.20774701e-05
6.36038552e-05
6.35477449e-05
6.17242659e-05
6.11704153e-05
6.23292442e-05
6.35297337e-05
6.36033214e-05
6.17972615e-05
6.20679356e-05
6.35814722e-05
6.35507509e-05
6.17878678e-05
6.23482017e-05
6.35879192e-05
6.28932423e-05
6.1693068e-05
6.22594123e-05
6.36007384e-05
6.3599954e-05
6.18513064e-05
6.12909129e-05
6.23061093e-05
6.35585276e-05
6.36478703e-05
6.19919502e-05
6.21019836e-05
6.36108022e-05
6.35927143e-05
6.19080926e-05
6.21378372e-05
6.36209583e-05
6.35819522e-05
6.1932795e-05
6.14426083e-05
6.22778844e-05
6.35726618e-05
6.36735625e-05
6.22058e-05
6.23123203e-05
6.36148272e-05
6.36108596e-05
6.19272099e-05
6.16575113e-05
6.20058902e-05
6.17600921e-05
6.22836661e-05
6.35804559e-05
6.36317294e-05
6.20010136e-05
6.1573907e-05
6.22719001e-05
6.36035919e-05
6.36709436e-05
6.22825104e-05
6.22866795e-05
6.36539046e-05
6.36596274e-05
6.22618895e-05
6.2296161e-05
6.36412499e-05
6.36255827e-05
6.19630897e-05
6.17609019e-05
6.2022263e-05
6.20012846e-05
6.20504306e-05
6.24013056e-05
6.36068716e-05
6.36182625e-05
6.23039824e-05
6.20106739e-05
6.23214416e-05
6.36177683e-05
6.36702277e-05
6.22837106e-05
6.23005343e-05
6.36482056e-05
6.3637858e-05
6.18578339e-05
6.14251536e-05
6.22663519e-05
6.35703968e-05
6.36453033e-05
6.18365294e-05
6.14646175e-05
6.22804415e-05
6.35884804e-05
6.36800039e-05
6.20863226e-05
6.23102823e-05
6.36110689e-05
6.36220613e-05
6.18558402e-05
6.1510486e-05
6.22823806e-05
6.35570935e-05
6.36272426e-05
6.18954133e-05
6.16310607e-05
6.23013964e-05
6.35645023e-05
6.36114598e-05
6.19283918e-05
6.16936938e-05
6.23093094e-05
6.35492488e-05
6.35974917e-05
6.18710122e-05
6.18190569e-05
6.19162677e-05
6.23080515e-05
6.35840091e-05
6.35890771e-05
6.17756377e-05
6.15714755e-05
6.23028982e-05
6.35601331e-05
6.3585315e-05
6.16966227e-05
6.15541356e-05
6.23100142e-05
6.35866634e-05
6.35704248e-05
6.20673503e-05
6.23567111e-05
6.3631057e-05
6.35428521e-05
6.20418211e-05
6.23607218e-05
6.36194143e-05
6.35300196e-05
6.15878908e-05
6.14529724e-05
6.23009878e-05
6.35476882e-05
6.35576432e-05
6.15503758e-05
6.14893382e-05
6.23164161e-05
6.35821305e-05
6.35375891e-05
6.20171469e-05
6.23541233e-05
6.35967213e-05
6.35265086e-05
6.15565019e-05
6.14701417e-05
6.23125801e-05
6.35704058e-05
6.35374305e-05
6.20542787e-05
6.23603334e-05
6.35898146e-05
6.35216517e-05
6.15576877e-05
6.14858764e-05
6.23157878e-05
6.35353122e-05
6.35440765e-05
6.15097894e-05
6.14803738e-05
6.23258747e-05
6.35375506e-05
6.35332441e-05
6.14615953e-05
6.1433174e-05
6.23368013e-05
6.35628055e-05
6.35087249e-05
6.19735813e-05
6.2409098e-05
6.36098917e-05
6.34871939e-05
6.19503621e-05
6.24091178e-05
6.35897236e-05
6.34872424e-05
6.1366962e-05
6.13149307e-05
6.23323282e-05
6.35466758e-05
6.34924737e-05
6.19311664e-05
6.2398278e-05
6.36029133e-05
6.34626683e-05
6.19338056e-05
6.24134834e-05
6.35859314e-05
6.3474078e-05
6.13636062e-05
6.13324411e-05
6.23337798e-05
6.35453925e-05
6.34767059e-05
6.19564189e-05
6.23943033e-05
6.35708946e-05
6.34729092e-05
6.13586121e-05
6.13400403e-05
6.2336064e-05
6.35459034e-05
6.34631642e-05
6.1937877e-05
6.23967367e-05
6.3571421e-05
6.34658047e-05
6.13100378e-05
6.12959238e-05
6.23349542e-05
6.35462502e-05
6.34515773e-05
6.19036432e-05
6.23978499e-05
6.36016901e-05
6.34209145e-05
6.1897349e-05
6.2369638e-05
6.36170439e-05
6.34261187e-05
6.19252502e-05
6.24083398e-05
6.35945723e-05
6.34525139e-05
6.14649122e-05
6.14521068e-05
6.23229044e-05
6.35311036e-05
6.34997593e-05
6.15511132e-05
6.15513743e-05
6.23379373e-05
6.3569432e-05
6.34649801e-05
6.19425718e-05
6.23797423e-05
6.35945947e-05
6.34709504e-05
6.14653139e-05
6.14537299e-05
6.23200656e-05
6.35409648e-05
6.34967457e-05
6.16016436e-05
6.16010293e-05
6.23382113e-05
6.35791635e-05
6.34632856e-05
6.20956591e-05
6.23641315e-05
6.36011727e-05
6.3468801e-05
6.16013606e-05
6.15940027e-05
6.2338154e-05
6.35453607e-05
6.35071412e-05
6.15844811e-05
6.1579634e-05
6.23363175e-05
6.35524882e-05
6.3490712e-05
6.15009731e-05
6.14703507e-05
6.23498047e-05
6.35545716e-05
6.35044356e-05
6.35422573e-05
6.33880897e-05
6.13932778e-05
6.13843566e-05
6.18986427e-05
6.18089427e-05
6.2326768e-05
6.35524578e-05
6.34028366e-05
6.18721021e-05
6.1873407e-05
6.2443985e-05
6.35585875e-05
6.34725645e-05
6.17543317e-05
6.17486908e-05
6.23609113e-05
6.35668144e-05
6.34885397e-05
6.15947488e-05
6.15537151e-05
6.23187235e-05
6.35677717e-05
6.34348617e-05
6.17668177e-05
6.17675369e-05
6.23785425e-05
)
;

boundaryField
{
    closed
    {
        type            calculated;
        value           uniform 8.14110728e-05;
    }
    open
    {
        type            calculated;
        value           nonuniform List<scalar> 0();
    }
    sides
    {
        type            empty;
    }
    procBoundary0to1
    {
        type            processor;
        value           uniform 6.35767425e-05;
    }
}


// ************************************************************************* //
