/*--------------------------------*- C++ -*----------------------------------*\
| =========                 |                                                 |
| \\      /  F ield         | OpenFOAM: The Open Source CFD Toolbox           |
|  \\    /   O peration     | Version:  2306                                  |
|   \\  /    A nd           | Website:  www.openfoam.com                      |
|    \\/     M anipulation  |                                                 |
\*---------------------------------------------------------------------------*/
FoamFile
{
    version     2.0;
    format      ascii;
    arch        "LSB;label=32;scalar=64";
    class       volScalarField;
    location    "0.00084";
    object      rho;
}
// * * * * * * * * * * * * * * * * * * * * * * * * * * * * * * * * * * * * * //

dimensions      [1 -3 0 0 0 0 0];

internalField   nonuniform List<scalar> 
530
(
0.90658572
0.931662282
0.935762998
0.93418315
0.931852083
0.931883712
0.934836663
0.93737228
0.936564493
0.934894697
0.934532147
0.934627017
0.935327928
0.936348413
0.935901853
0.934917492
0.935643539
0.935578478
0.932391373
0.932858219
0.93946941
0.940675914
0.931602812
0.926575189
0.933561391
0.942250043
0.941325867
0.934971396
0.931635751
0.934075268
0.93589311
0.93186498
0.927273431
0.92837108
0.932578886
0.939880537
0.947424763
0.948253795
0.942776287
0.937607238
0.935581308
0.935283646
0.935739487
0.93628313
0.936093424
0.935541795
0.935143474
0.934845197
0.934532631
0.934230445
0.933943577
0.933523051
0.932621672
0.930673147
0.927047914
0.921938142
0.917407256
0.915936468
0.918936965
0.924909015
0.930185065
0.933511105
0.935174959
0.935922461
0.93630882
0.936492944
0.936566212
0.936586796
0.936576132
0.936546347
0.936506963
0.936466633
0.93642948
0.936394339
0.936358208
0.936320732
0.936285526
0.93625737
0.936236863
0.93621977
0.936201092
0.936177665
0.936149802
0.936123307
0.936089946
0.936055403
0.936035573
0.936034701
0.935978146
0.935564903
0.934900285
0.93512542
0.93862597
0.93887457
0.939919925
0.905902541
0.903283034
0.933314677
0.950110906
0.95235049
0.951857977
0.934127884
0.903560235
0.90530115
0.903997764
0.905454053
0.952731853
0.95833046
0.949748181
0.953080728
0.937500867
0.905067122
0.902673253
0.905426121
0.945438111
0.956118575
0.950248572
0.936507603
0.904294274
0.902634464
0.904933934
0.945722383
0.95493441
0.949910054
0.937092901
0.902409525
0.904059474
0.943125026
0.937374986
0.901969483
0.904247464
0.954779486
0.964192259
0.937957757
0.903431477
0.903511176
0.947343946
0.937792138
0.902231615
0.904742806
0.949130025
0.93908958
0.902216713
0.905380497
0.950264403
0.939809178
0.902297098
0.905319131
0.950613812
0.94032757
0.902355405
0.90503298
0.950697182
0.94066805
0.902367088
0.905275891
0.951012883
0.940598215
0.90217948
0.904205557
0.956209037
0.967779837
0.937716775
0.903623805
0.902819669
0.950020717
0.940547007
0.902275003
0.90397768
0.955496563
0.967466517
0.93773564
0.903676062
0.902568897
0.950071983
0.941687885
0.902537898
0.903975183
0.950766185
0.942495699
0.902439466
0.904146451
0.951299624
0.942976389
0.902496755
0.904041818
0.951546671
0.943308086
0.90246738
0.904272432
0.951913142
0.943361186
0.90222192
0.903719519
0.954389476
0.967273463
0.938028499
0.903757072
0.902205544
0.949801377
0.942718273
0.90261112
0.903490111
0.95039551
0.943109245
0.902256612
0.90364748
0.952943586
0.966032434
0.938237445
0.903831802
0.902231585
0.950103672
0.942970228
0.90251439
0.903581053
0.952965413
0.966529829
0.938418578
0.903970601
0.902285368
0.950395617
0.943986577
0.90291435
0.903698099
0.951193903
0.944594265
0.902788587
0.903874187
0.951858198
0.944548907
0.902759236
0.904783014
0.952843331
0.9451369
0.902482522
0.903397554
0.953375785
0.966303789
0.938691569
0.903898782
0.902186898
0.951719767
0.945418866
0.903014327
0.903055007
0.951966486
0.938900021
0.902871099
0.9184896
0.954227681
0.941007187
0.902691956
0.902653987
0.95059118
0.963706133
0.939360688
0.903590918
0.901767437
0.947433923
0.944903225
0.902779896
0.902747102
0.949497817
0.944176869
0.902671763
0.903375961
0.94902247
0.960524017
0.939852458
0.903742667
0.901787753
0.942770859
0.940266962
0.903083647
0.903083537
0.949374158
0.955717811
0.947569604
0.953354059
0.939524075
0.903809665
0.902773925
0.947726639
0.957727359
0.939833328
0.903385744
0.902003477
0.941090029
0.940856458
0.902465281
0.90215182
0.941499491
0.940454193
0.902598128
0.902790943
0.948460286
0.953197293
0.947061633
0.947564076
0.946391871
0.933706728
0.903355158
0.902952292
0.940213058
0.947391537
0.936585686
0.903221446
0.902003007
0.941022422
0.940524468
0.902710887
0.902839105
0.951311627
0.961517743
0.940405946
0.904347285
0.902941389
0.952132743
0.960900551
0.940661167
0.904327939
0.902526519
0.94654582
0.941347263
0.904158468
0.903861409
0.952168903
0.960329619
0.940334333
0.905406825
0.904017494
0.951512071
0.957751344
0.939742052
0.905512601
0.904504913
0.950916446
0.956442516
0.93927847
0.905922244
0.904780654
0.952312181
0.953512262
0.951219109
0.940024103
0.905189793
0.90482175
0.9543958
0.959137933
0.93963421
0.905385605
0.904618485
0.955988936
0.959255968
0.939618511
0.904620012
0.904403256
0.946946568
0.939983377
0.903560622
0.904577511
0.947234321
0.93946264
0.903430882
0.90469743
0.957583228
0.96067198
0.938566503
0.904401548
0.903861392
0.95815912
0.959531665
0.938360015
0.903555945
0.903803669
0.947027764
0.938688302
0.903201201
0.904100595
0.957717878
0.959727433
0.93808672
0.903624921
0.903654733
0.946057476
0.938357258
0.903312354
0.904185453
0.957715522
0.959416675
0.937635001
0.904350615
0.90383994
0.958947329
0.959661787
0.937654466
0.904417084
0.90413928
0.960204359
0.960892207
0.938053353
0.904066638
0.904421428
0.948330866
0.938195464
0.903296148
0.904850146
0.948924616
0.938099169
0.903662033
0.905137697
0.962595949
0.963807297
0.938439643
0.904447072
0.90472555
0.949367994
0.938458534
0.903386683
0.905198084
0.949221584
0.937865409
0.903577131
0.905177189
0.96245797
0.963157833
0.938031125
0.904211883
0.90470427
0.948458918
0.937808431
0.903621645
0.904907573
0.962273491
0.962664222
0.93762378
0.903873841
0.904590495
0.948543414
0.937449062
0.903259381
0.904672881
0.963052972
0.963341926
0.937435039
0.90353194
0.904461303
0.949022627
0.937479337
0.902419228
0.904918652
0.949044514
0.938038731
0.902028162
0.904757865
0.948300522
0.936838526
0.902368452
0.904504464
0.958987032
0.959280873
0.936356739
0.903506467
0.903606959
0.95692111
0.956908227
0.936231952
0.902737513
0.903871377
0.947734334
0.937225383
0.90222324
0.903997462
0.958869683
0.959130262
0.936266323
0.903221178
0.903550989
0.955660413
0.955670536
0.935870918
0.902521319
0.903892543
0.944075189
0.937076594
0.902091232
0.904010584
0.955603136
0.955779026
0.935140358
0.90308808
0.903306779
0.955966215
0.956067385
0.935459908
0.902869943
0.903534213
0.957846442
0.958542793
0.934516543
0.902693095
0.903576624
0.90287734
0.904982646
0.960192512
0.96037645
0.948346968
0.950417017
0.935542041
0.902628731
0.904724375
0.948786761
0.948715551
0.930583411
0.902340624
0.903376111
0.951345791
0.95141669
0.933399997
0.901903014
0.902841181
0.954812397
0.95572226
0.935022588
0.90166009
0.903584002
0.950598042
0.950547285
0.932256655
)
;

boundaryField
{
    closed
    {
        type            calculated;
        value           uniform 0.579408243;
    }
    open
    {
        type            calculated;
        value           nonuniform List<scalar> 0();
    }
    sides
    {
        type            empty;
    }
    procBoundary0to1
    {
        type            processor;
        value           uniform 0.901375309;
    }
}


// ************************************************************************* //
