/*--------------------------------*- C++ -*----------------------------------*\
| =========                 |                                                 |
| \\      /  F ield         | OpenFOAM: The Open Source CFD Toolbox           |
|  \\    /   O peration     | Version:  2306                                  |
|   \\  /    A nd           | Website:  www.openfoam.com                      |
|    \\/     M anipulation  |                                                 |
\*---------------------------------------------------------------------------*/
FoamFile
{
    version     2.0;
    format      ascii;
    arch        "LSB;label=32;scalar=64";
    class       volVectorField;
    location    "0.00084";
    object      U;
}
// * * * * * * * * * * * * * * * * * * * * * * * * * * * * * * * * * * * * * //

dimensions      [0 1 -1 0 0 0 0];

internalField   nonuniform List<vector> 
530
(
(0.207498416 0 0)
(0.221630181 0 0)
(0.107480333 0 0)
(0.505328169 0 0)
(1.15379094 0 0)
(1.07862509 0 0)
(0.0410478254 0 0)
(-0.775714433 0 0)
(-0.442720347 0 0)
(0.225513971 0 0)
(0.384380857 0 0)
(0.313517726 0 0)
(0.0488043738 0 0)
(-0.319729207 0 0)
(-0.206541966 0 0)
(0.161945836 0 0)
(-0.066354406 0 0)
(-0.0196203625 0 0)
(1.09471608 0 0)
(1.03427482 0 0)
(-1.18172439 0 0)
(-1.64063696 0 0)
(1.50196954 0 0)
(3.39994289 0 0)
(0.99499583 0 0)
(-2.02286604 0 0)
(-1.86071576 0 0)
(0.434010572 0 0)
(1.6118328 0 0)
(0.77012037 0 0)
(0.0384279167 0 0)
(1.33343087 0 0)
(2.93469507 0 0)
(2.69285874 0 0)
(1.02403834 0 0)
(-1.51348815 0 0)
(-4.06343103 0 0)
(-4.53699978 0 0)
(-2.7419927 0 0)
(-0.864256149 0 0)
(-0.102183648 0 0)
(-0.0344675826 0 0)
(-0.20204027 0 0)
(-0.394323188 0 0)
(-0.369416136 0 0)
(-0.178098266 0 0)
(-0.0406132189 0 0)
(0.0521694013 0 0)
(0.149325067 0 0)
(0.245258036 0 0)
(0.340301189 0 0)
(0.486531607 0 0)
(0.804866524 0 0)
(1.49260649 0 0)
(2.75162499 0 0)
(4.47558059 0 0)
(6.04293102 0 0)
(6.58120488 0 0)
(5.59950701 0 0)
(3.60172696 0 0)
(1.68794168 0 0)
(0.46270152 0 0)
(-0.140808878 0 0)
(-0.407650156 0 0)
(-0.539612057 0 0)
(-0.606689856 0 0)
(-0.632553457 0 0)
(-0.639449407 0 0)
(-0.636303279 0 0)
(-0.62695844 0 0)
(-0.61470553 0 0)
(-0.601961221 0 0)
(-0.590114807 0 0)
(-0.579097822 0 0)
(-0.567698931 0 0)
(-0.556360149 0 0)
(-0.545899886 0 0)
(-0.5379507 0 0)
(-0.532453622 0 0)
(-0.528354941 0 0)
(-0.523832291 0 0)
(-0.518567574 0 0)
(-0.513528632 0 0)
(-0.509000047 0 0)
(-0.504785001 0 0)
(-0.500066921 0 0)
(-0.495387698 0 0)
(-0.490250886 0 0)
(-0.485246828 0 0)
(-0.479642703 0 0)
(-0.473452022 0 0)
(-0.468621752 0 0)
(-0.462686823 0 0)
(-0.452065774 0 0)
(-0.468161743 0 0)
(-0.446735689 0 0)
(-0.41201173 0 0)
(-0.410378219 0 0)
(-0.414795141 0 0)
(-0.407661172 0 0)
(-0.396680024 0 0)
(-0.388271568 0 0)
(-0.383936589 0 0)
(-0.379025717 0 0)
(-0.369363973 0 0)
(-0.348084919 0 0)
(-0.340957195 0 0)
(-0.348037859 0 0)
(-0.344912656 0 0)
(-0.338726378 0 0)
(-0.333755161 0 0)
(-0.333795532 0 0)
(-0.335348496 0 0)
(-0.316077155 0 0)
(-0.308509533 0 0)
(-0.316225036 0 0)
(-0.313867654 0 0)
(-0.309863249 0 0)
(-0.309271594 0 0)
(-0.310129081 0 0)
(-0.291095774 0 0)
(-0.281919713 0 0)
(-0.285244558 0 0)
(-0.279038224 0 0)
(-0.272640959 0 0)
(-0.269531796 0 0)
(-0.249733194 0 0)
(-0.234767893 0 0)
(-0.235601794 0 0)
(-0.234891434 0 0)
(-0.216863574 0 0)
(-0.203297978 0 0)
(-0.205537692 0 0)
(-0.203074066 0 0)
(-0.20394098 0 0)
(-0.183947555 0 0)
(-0.170312612 0 0)
(-0.186864737 0 0)
(-0.201686389 0 0)
(-0.177920069 0 0)
(-0.160556629 0 0)
(-0.181231421 0 0)
(-0.199749617 0 0)
(-0.173238173 0 0)
(-0.152674465 0 0)
(-0.175301839 0 0)
(-0.195180359 0 0)
(-0.168377031 0 0)
(-0.146742109 0 0)
(-0.1688918 0 0)
(-0.187801799 0 0)
(-0.161466671 0 0)
(-0.140186316 0 0)
(-0.162266855 0 0)
(-0.182218186 0 0)
(-0.155557442 0 0)
(-0.133549701 0 0)
(-0.155319414 0 0)
(-0.172056441 0 0)
(-0.155850029 0 0)
(-0.143656189 0 0)
(-0.150227095 0 0)
(-0.151357266 0 0)
(-0.155610302 0 0)
(-0.137710095 0 0)
(-0.124066414 0 0)
(-0.140177354 0 0)
(-0.153352095 0 0)
(-0.138736919 0 0)
(-0.126227358 0 0)
(-0.130533502 0 0)
(-0.130185454 0 0)
(-0.133021911 0 0)
(-0.115318921 0 0)
(-0.101044234 0 0)
(-0.116746883 0 0)
(-0.131472144 0 0)
(-0.110889996 0 0)
(-0.0921193574 0 0)
(-0.111199114 0 0)
(-0.128954447 0 0)
(-0.109323206 0 0)
(-0.0919560814 0 0)
(-0.112730793 0 0)
(-0.132205468 0 0)
(-0.115424481 0 0)
(-0.0997951062 0 0)
(-0.120595758 0 0)
(-0.14164624 0 0)
(-0.124806244 0 0)
(-0.108404234 0 0)
(-0.129301699 0 0)
(-0.145068813 0 0)
(-0.137299715 0 0)
(-0.130792924 0 0)
(-0.137025291 0 0)
(-0.139928179 0 0)
(-0.147596163 0 0)
(-0.141794783 0 0)
(-0.13445836 0 0)
(-0.14738785 0 0)
(-0.163614411 0 0)
(-0.156127824 0 0)
(-0.144529364 0 0)
(-0.159342387 0 0)
(-0.172829117 0 0)
(-0.170186676 0 0)
(-0.165372506 0 0)
(-0.172543128 0 0)
(-0.174590644 0 0)
(-0.185590204 0 0)
(-0.184461004 0 0)
(-0.176375078 0 0)
(-0.189277267 0 0)
(-0.201291917 0 0)
(-0.200578897 0 0)
(-0.196045094 0 0)
(-0.202195726 0 0)
(-0.204444767 0 0)
(-0.21624297 0 0)
(-0.215327695 0 0)
(-0.205745323 0 0)
(-0.214118082 0 0)
(-0.229076825 0 0)
(-0.22268771 0 0)
(-0.206833797 0 0)
(-0.21750309 0 0)
(-0.232937777 0 0)
(-0.225572839 0 0)
(-0.209237566 0 0)
(-0.220349993 0 0)
(-0.239946132 0 0)
(-0.224366984 0 0)
(-0.200181803 0 0)
(-0.219618336 0 0)
(-0.225464489 0 0)
(-0.221433357 0 0)
(-0.217346401 0 0)
(-0.215029066 0 0)
(-0.21560563 0 0)
(-0.223448521 0 0)
(-0.218323271 0 0)
(-0.205098892 0 0)
(-0.213323743 0 0)
(-0.226748101 0 0)
(-0.213347661 0 0)
(-0.201931849 0 0)
(-0.213160271 0 0)
(-0.225168482 0 0)
(-0.205263034 0 0)
(-0.17880854 0 0)
(-0.197667681 0 0)
(-0.199579699 0 0)
(-0.191580412 0 0)
(-0.187470092 0 0)
(-0.182297335 0 0)
(-0.180497572 0 0)
(-0.181921572 0 0)
(-0.173663363 0 0)
(-0.164520163 0 0)
(-0.166154259 0 0)
(-0.170532512 0 0)
(-0.157224109 0 0)
(-0.140668308 0 0)
(-0.146896199 0 0)
(-0.144332153 0 0)
(-0.135068498 0 0)
(-0.127224339 0 0)
(-0.119156496 0 0)
(-0.112949531 0 0)
(-0.108990738 0 0)
(-0.100904608 0 0)
(-0.0954241564 0 0)
(-0.0953665292 0 0)
(-0.0931437152 0 0)
(-0.0879714055 0 0)
(-0.0850514356 0 0)
(-0.0853730454 0 0)
(-0.0828668176 0 0)
(-0.0819046093 0 0)
(-0.0860118662 0 0)
(-0.0921827836 0 0)
(-0.0967537278 0 0)
(-0.102659551 0 0)
(-0.109525842 0 0)
(-0.117654212 0 0)
(-0.130786505 0 0)
(-0.141880158 0 0)
(-0.152135667 0 0)
(-0.168622859 0 0)
(-0.187794227 0 0)
(-0.202142599 0 0)
(-0.212287222 0 0)
(-0.229573564 0 0)
(-0.250137108 0 0)
(-0.261708445 0 0)
(-0.270719701 0 0)
(-0.284556951 0 0)
(-0.291871448 0 0)
(-0.297863517 0 0)
(-0.299678299 0 0)
(-0.299604088 0 0)
(-0.304685644 0 0)
(-0.302508773 0 0)
(-0.288851381 0 0)
(-0.281008108 0 0)
(-0.272787996 0 0)
(-0.268932134 0 0)
(-0.258973368 0 0)
(-0.238504464 0 0)
(-0.22753743 0 0)
(-0.221005549 0 0)
(-0.203240423 0 0)
(-0.180381293 0 0)
(-0.16212592 0 0)
(-0.146436906 0 0)
(-0.131509888 0 0)
(-0.108717752 0 0)
(-0.0849079992 0 0)
(-0.0660458003 0 0)
(-0.0486091031 0 0)
(-0.0317542863 0 0)
(-0.00729805384 0 0)
(0.0127724402 0 0)
(0.0196904091 0 0)
(0.0296375835 0 0)
(0.0495911306 0 0)
(0.0733443093 0 0)
(0.095978774 0 0)
(0.112707961 0 0)
(0.128828093 0 0)
(0.143913153 0 0)
(0.162388075 0 0)
(0.184026844 0 0)
(0.1959332 0 0)
(0.207169736 0 0)
(0.214346817 0 0)
(0.225532192 0 0)
(0.242404152 0 0)
(0.246075404 0 0)
(0.247729162 0 0)
(0.246728902 0 0)
(0.246427643 0 0)
(0.254078453 0 0)
(0.245341091 0 0)
(0.23552659 0 0)
(0.226226265 0 0)
(0.209743046 0 0)
(0.20034262 0 0)
(0.197796364 0 0)
(0.180703588 0 0)
(0.160637594 0 0)
(0.14095995 0 0)
(0.124887733 0 0)
(0.111800181 0 0)
(0.0880874803 0 0)
(0.0601526565 0 0)
(0.0463472683 0 0)
(0.0284497228 0 0)
(0.00189689985 0 0)
(-0.024414898 0 0)
(-0.0449397596 0 0)
(-0.0646644417 0 0)
(-0.0891897248 0 0)
(-0.11756256 0 0)
(-0.140395213 0 0)
(-0.158853938 0 0)
(-0.18004477 0 0)
(-0.203641506 0 0)
(-0.232400953 0 0)
(-0.249484622 0 0)
(-0.261504682 0 0)
(-0.278918938 0 0)
(-0.296847864 0 0)
(-0.320727361 0 0)
(-0.329964733 0 0)
(-0.33042656 0 0)
(-0.343319608 0 0)
(-0.363016149 0 0)
(-0.365868267 0 0)
(-0.360823892 0 0)
(-0.367152647 0 0)
(-0.373100787 0 0)
(-0.386343131 0 0)
(-0.382952697 0 0)
(-0.369490355 0 0)
(-0.371641863 0 0)
(-0.381034621 0 0)
(-0.372606966 0 0)
(-0.356457513 0 0)
(-0.353487249 0 0)
(-0.349927942 0 0)
(-0.353216788 0 0)
(-0.340482471 0 0)
(-0.321539065 0 0)
(-0.315092212 0 0)
(-0.30851392 0 0)
(-0.308834404 0 0)
(-0.293469394 0 0)
(-0.272552001 0 0)
(-0.262331584 0 0)
(-0.253804768 0 0)
(-0.252436704 0 0)
(-0.23346917 0 0)
(-0.212365327 0 0)
(-0.214863463 0 0)
(-0.223543465 0 0)
(-0.206386351 0 0)
(-0.185487615 0 0)
(-0.177651834 0 0)
(-0.175564104 0 0)
(-0.162585866 0 0)
(-0.147925009 0 0)
(-0.141642557 0 0)
(-0.141367838 0 0)
(-0.148662695 0 0)
(-0.136884866 0 0)
(-0.125780663 0 0)
(-0.141751529 0 0)
(-0.162798432 0 0)
(-0.153800067 0 0)
(-0.146110322 0 0)
(-0.150407702 0 0)
(-0.159793448 0 0)
(-0.158337011 0 0)
(-0.154581066 0 0)
(-0.156472982 0 0)
(-0.163584196 0 0)
(-0.177751601 0 0)
(-0.172037244 0 0)
(-0.167065974 0 0)
(-0.175232483 0 0)
(-0.188233497 0 0)
(-0.189054528 0 0)
(-0.188136034 0 0)
(-0.194302026 0 0)
(-0.205327045 0 0)
(-0.223143422 0 0)
(-0.219755769 0 0)
(-0.216211373 0 0)
(-0.22701039 0 0)
(-0.241878164 0 0)
(-0.241179382 0 0)
(-0.239019364 0 0)
(-0.246351364 0 0)
(-0.256585569 0 0)
(-0.272713835 0 0)
(-0.266082905 0 0)
(-0.25796857 0 0)
(-0.275816052 0 0)
(-0.297706037 0 0)
(-0.289411212 0 0)
(-0.278988481 0 0)
(-0.293725234 0 0)
(-0.313045492 0 0)
(-0.303562892 0 0)
(-0.291696643 0 0)
(-0.295935999 0 0)
(-0.304574551 0 0)
(-0.296699195 0 0)
(-0.286548221 0 0)
(-0.287884337 0 0)
(-0.291468255 0 0)
(-0.300756843 0 0)
(-0.292388895 0 0)
(-0.282413916 0 0)
(-0.283055781 0 0)
(-0.285852249 0 0)
(-0.294546203 0 0)
(-0.281407173 0 0)
(-0.267015846 0 0)
(-0.269397687 0 0)
(-0.275641179 0 0)
(-0.268826653 0 0)
(-0.258549056 0 0)
(-0.258897713 0 0)
(-0.264777581 0 0)
(-0.274680506 0 0)
(-0.269661114 0 0)
(-0.261133071 0 0)
(-0.261668391 0 0)
(-0.268105265 0 0)
(-0.278633315 0 0)
(-0.269190544 0 0)
(-0.257844339 0 0)
(-0.261718118 0 0)
(-0.269974911 0 0)
(-0.26445521 0 0)
(-0.257483176 0 0)
(-0.261228043 0 0)
(-0.268238327 0 0)
(-0.279903246 0 0)
(-0.2780824 0 0)
(-0.275719092 0 0)
(-0.280850947 0 0)
(-0.289426532 0 0)
(-0.303546737 0 0)
(-0.304074651 0 0)
(-0.304613949 0 0)
(-0.313392215 0 0)
(-0.322944006 0 0)
(-0.337499198 0 0)
(-0.359557115 0 0)
(-0.371723245 0 0)
(-0.363233496 0 0)
(-0.367177443 0 0)
(-0.383655678 0 0)
(-0.398794582 0 0)
(-0.410453756 0 0)
(-0.421890119 0 0)
(-0.441329113 0 0)
(-0.449289613 0 0)
(-0.449232104 0 0)
(-0.460529843 0 0)
(-0.476783612 0 0)
(-0.494950413 0 0)
(-0.511109669 0 0)
(-0.516422081 0 0)
(-0.524557717 0 0)
(-0.54305735 0 0)
(-0.565904989 0 0)
(-0.571943598 0 0)
(-0.575153897 0 0)
(-0.591199701 0 0)
(-0.605158392 0 0)
(-0.627932336 0 0)
(-0.63840751 0 0)
(-0.631338785 0 0)
(-0.634960103 0 0)
(-0.645675966 0 0)
)
;

boundaryField
{
    closed
    {
        type            noSlip;
    }
    open
    {
        type            inletOutlet;
        inletValue      nonuniform List<vector> 0();
        value           nonuniform List<vector> 0();
    }
    sides
    {
        type            empty;
    }
    procBoundary0to1
    {
        type            processor;
        value           uniform (-0.662304724 0 0);
    }
}


// ************************************************************************* //
