/*--------------------------------*- C++ -*----------------------------------*\
| =========                 |                                                 |
| \\      /  F ield         | OpenFOAM: The Open Source CFD Toolbox           |
|  \\    /   O peration     | Version:  2306                                  |
|   \\  /    A nd           | Website:  www.openfoam.com                      |
|    \\/     M anipulation  |                                                 |
\*---------------------------------------------------------------------------*/
FoamFile
{
    version     2.0;
    format      ascii;
    arch        "LSB;label=32;scalar=64";
    class       volScalarField;
    location    "0.00084";
    object      Z;
}
// * * * * * * * * * * * * * * * * * * * * * * * * * * * * * * * * * * * * * //

dimensions      [0 0 0 0 0 0 0];

internalField   nonuniform List<scalar> 
530
(
0.0145711139
0.0144905212
0.0144623936
0.0144617644
0.0144617082
0.014461707
0.0144617069
0.0144617069
0.0144617069
0.0144617069
0.0144617069
0.0144617069
0.0144617069
0.0144617069
0.0144617069
0.0144617069
0.0144617069
0.0144617069
0.0144617069
0.0144617069
0.0144617069
0.0144617069
0.0144617069
0.0144617069
0.0144617069
0.0144617069
0.0144617069
0.0144617069
0.0144617069
0.0144617069
0.0144617069
0.0144617069
0.0144617069
0.0144617069
0.0144617069
0.0144617069
0.0144617069
0.0144617069
0.0144617069
0.0144617069
0.0144617069
0.0144617069
0.0144617069
0.0144617069
0.0144617069
0.0144617069
0.0144617069
0.0144617069
0.0144617069
0.0144617069
0.0144617069
0.0144617069
0.0144617069
0.0144617069
0.0144617069
0.0144617069
0.0144617069
0.0144617069
0.0144617069
0.0144617069
0.0144617069
0.0144617069
0.0144617069
0.0144617069
0.0144617069
0.0144617069
0.0144617069
0.0144617069
0.0144617069
0.0144617069
0.0144617069
0.0144617069
0.014461707
0.0144617072
0.0144617075
0.0144617082
0.0144617105
0.0144617134
0.0144617155
0.0144617296
0.0144617671
0.0144617988
0.0144618222
0.0144619042
0.0144620194
0.014462317
0.0144629728
0.0144646113
0.0144648728
0.0144574677
0.0144450776
0.0144530007
0.0145597728
0.014664404
0.0146180299
0.0141247108
0.0140853178
0.0144156383
0.0147727558
0.0147844871
0.0147874354
0.0144417638
0.0140870248
0.0141023799
0.0140862716
0.014125918
0.0147936072
0.014841927
0.0147665912
0.0148055474
0.0145170075
0.0140946838
0.0140631123
0.0141240325
0.0147426204
0.0148234208
0.0147783503
0.0145047864
0.0140885132
0.0140634495
0.0141188329
0.014743255
0.0148180413
0.0147711938
0.014581823
0.0140720782
0.0141128025
0.0147240523
0.0146642888
0.0140711105
0.0141105682
0.0148070067
0.0148805894
0.0146048187
0.0140857606
0.0141127331
0.0147594207
0.0147031279
0.0140751663
0.0141281739
0.0147695047
0.0147166695
0.0140766083
0.0141363188
0.0147785211
0.0147226046
0.0140778565
0.0141357962
0.0147819115
0.0147269344
0.0140783015
0.0141321596
0.014783052
0.0147300883
0.0140783406
0.0141344342
0.0147847806
0.0147291045
0.0140778214
0.0141138436
0.0148206089
0.0149084364
0.0146506403
0.0140895495
0.0141039912
0.0147813265
0.0147255765
0.014077311
0.0141092178
0.0148156505
0.0149063126
0.0146523039
0.014089706
0.0141001345
0.0147827849
0.0147345416
0.0140778093
0.0141163055
0.0147840771
0.014743553
0.0140774629
0.0141183216
0.0147877535
0.0147467176
0.0140777895
0.0141166448
0.0147893818
0.0147491491
0.014077452
0.014119014
0.0147905866
0.0147478666
0.0140759591
0.0141040249
0.0148068824
0.0149037384
0.0146614655
0.0140883205
0.014089716
0.0147795417
0.01473795
0.0140753266
0.0141045777
0.0147782859
0.0147425166
0.0140733782
0.0140981784
0.0147951677
0.0148935705
0.0146569165
0.0140869525
0.01408731
0.0147792453
0.014736173
0.0140740346
0.0140956631
0.0147943828
0.014895853
0.0146598985
0.0140877751
0.0140873758
0.014781745
0.0147442379
0.0140761608
0.0141049723
0.0147833157
0.0147524623
0.0140758505
0.0141072828
0.0147875866
0.0147538757
0.0140762952
0.0141204059
0.0147927397
0.0147529121
0.0140748431
0.0140888456
0.0147956978
0.0148908168
0.0146630239
0.0140874788
0.0140862261
0.0147890188
0.0147509718
0.0140770238
0.0140995821
0.0147872938
0.0147050872
0.014077937
0.014240628
0.0148017696
0.0147134378
0.0140756052
0.0140780009
0.0147739667
0.0148689232
0.0146585773
0.0140824293
0.0140733523
0.0147540159
0.0147408024
0.0140716733
0.0140875738
0.0147637603
0.0147351973
0.0140707907
0.0140789422
0.01475829
0.0148442628
0.0146282538
0.0140774775
0.0140637334
0.0147180054
0.0146952912
0.0140691672
0.014072948
0.0147603826
0.014810448
0.0147483383
0.0147949936
0.0146029155
0.0140756933
0.0140698631
0.0147484392
0.0148193827
0.0146044893
0.0140715992
0.0140642471
0.0146992522
0.0146891702
0.0140610924
0.0140665099
0.0146990009
0.0146816357
0.0140645593
0.0140700103
0.0147524487
0.0147911976
0.0147454806
0.0147542923
0.0147400261
0.0144287333
0.0140650119
0.0140698511
0.0146797035
0.014747322
0.0144845898
0.0140646188
0.0140650281
0.0146906785
0.014680671
0.0140634573
0.0140690543
0.0147656164
0.0148440353
0.0146091242
0.0140796782
0.0140692652
0.0147752874
0.0148363424
0.014625847
0.0140754008
0.0140647122
0.014733424
0.0146969499
0.0140699558
0.0140728504
0.0147691329
0.0148318157
0.0145797868
0.0140798224
0.0140720273
0.0147678153
0.0148113239
0.0145568037
0.0140771772
0.0140744543
0.0147626514
0.0148028589
0.0145327124
0.0140787994
0.0140785203
0.0147753002
0.0147815592
0.0147668684
0.0145776657
0.0140730371
0.014080244
0.0147869057
0.0148230811
0.0145584902
0.0140786674
0.0140823589
0.0148023457
0.0148250166
0.0145847529
0.0140732067
0.0140908751
0.0147382868
0.014688569
0.0140641215
0.0140972172
0.0147391295
0.0146805758
0.0140680984
0.0140941543
0.0148159951
0.0148440367
0.0145652244
0.0140817939
0.0140898921
0.0148270576
0.0148361302
0.0145893747
0.0140748985
0.0141001757
0.0147476625
0.0146695581
0.0140714008
0.014096106
0.0148230052
0.014841315
0.014580425
0.0140763073
0.0141007795
0.0147426395
0.0146621325
0.0140720027
0.0140969551
0.0148232484
0.0148401559
0.0145530406
0.014083334
0.0140938064
0.0148345687
0.0148400364
0.0145604304
0.0140834012
0.0140965124
0.0148425489
0.0148478902
0.0145918619
0.0140786719
0.014109347
0.0147562036
0.0146976361
0.0140693864
0.0141141403
0.0147569677
0.0146873898
0.0140745397
0.0141062001
0.0148544353
0.014868813
0.0146013303
0.0140820366
0.0141142987
0.0147642778
0.0147008236
0.0140710466
0.0141200252
0.0147602707
0.0146868828
0.0140752814
0.0141092945
0.0148555811
0.0148664046
0.0145941718
0.0140819859
0.0141178981
0.0147607752
0.0146721213
0.0140771277
0.0141101658
0.0148572207
0.014865075
0.0145921327
0.0140821472
0.0141213699
0.0147636877
0.0146747671
0.0140776107
0.0141123834
0.0148645794
0.0148718693
0.0145994046
0.0140827416
0.0141244364
0.0147685483
0.0147016528
0.0140720414
0.0141297198
0.0147654447
0.0147077846
0.0140697426
0.0141279859
0.0147603948
0.014684137
0.014073691
0.0141140222
0.0148382925
0.0148469567
0.0145421732
0.0140837377
0.0141043922
0.0148291213
0.014829093
0.0145577955
0.0140774894
0.0141209474
0.0147601116
0.0146774575
0.0140738021
0.0141116213
0.0148377395
0.0148454393
0.0145393154
0.0140821915
0.0141056257
0.0148202031
0.0148202867
0.0145413835
0.0140745435
0.0141193207
0.0147342293
0.0146510002
0.0140707622
0.014110892
0.0148160584
0.0148226637
0.0145019949
0.0140805508
0.0141027728
0.0148231042
0.0148234462
0.0145209256
0.0140804386
0.0141062872
0.0148356015
0.0148410012
0.0144883609
0.0140820156
0.0140916241
0.0140842817
0.0141343741
0.0148528696
0.0148583486
0.0147696429
0.0147875501
0.0145319499
0.0140774606
0.0141243257
0.0147755132
0.0147766566
0.0144109185
0.0140753998
0.0141071557
0.0147957177
0.0147957366
0.014476321
0.0140766385
0.0141054629
0.0148191403
0.014825948
0.0145282695
0.0140771425
0.0141165969
0.0147907587
0.0147906503
0.0144563672
)
;

boundaryField
{
    closed
    {
        type            zeroGradient;
    }
    open
    {
        type            zeroGradient;
    }
    sides
    {
        type            empty;
    }
    procBoundary0to1
    {
        type            processor;
        value           uniform 0.014074204;
    }
}


// ************************************************************************* //
