/*--------------------------------*- C++ -*----------------------------------*\
| =========                 |                                                 |
| \\      /  F ield         | OpenFOAM: The Open Source CFD Toolbox           |
|  \\    /   O peration     | Version:  2306                                  |
|   \\  /    A nd           | Website:  www.openfoam.com                      |
|    \\/     M anipulation  |                                                 |
\*---------------------------------------------------------------------------*/
FoamFile
{
    version     2.0;
    format      ascii;
    arch        "LSB;label=32;scalar=64";
    class       volScalarField;
    location    "0.00152";
    object      alpha;
}
// * * * * * * * * * * * * * * * * * * * * * * * * * * * * * * * * * * * * * //

dimensions      [1 -1 -1 0 0 0 0];

internalField   nonuniform List<scalar> 
531
(
3.68316044e-05
3.57195116e-05
3.48879507e-05
3.5164987e-05
3.68023978e-05
3.68274819e-05
3.68260853e-05
3.57168633e-05
3.52741652e-05
3.54683919e-05
3.52138442e-05
3.52056115e-05
3.67680768e-05
3.68130906e-05
3.55566511e-05
3.54946892e-05
3.67774954e-05
3.67947779e-05
3.68143295e-05
3.5746182e-05
3.50771503e-05
3.51780003e-05
3.67948911e-05
3.68013887e-05
3.59220099e-05
3.52301673e-05
3.5272567e-05
3.49405135e-05
3.4939112e-05
3.67872161e-05
3.68210837e-05
3.50379501e-05
3.4915411e-05
3.68006818e-05
3.6828249e-05
3.68291294e-05
3.68292242e-05
3.56209801e-05
3.53769631e-05
3.6803993e-05
3.6816596e-05
3.56998036e-05
3.54100133e-05
3.52071212e-05
3.5241914e-05
3.68281175e-05
3.68235189e-05
3.68452258e-05
3.56358968e-05
3.52038111e-05
3.68045411e-05
3.68270347e-05
3.54359004e-05
3.54562437e-05
3.68310525e-05
3.56378098e-05
3.52643456e-05
3.68012712e-05
3.68291545e-05
3.68306032e-05
3.57139604e-05
3.51747899e-05
3.51594797e-05
3.51685239e-05
3.68197226e-05
3.68091137e-05
3.68377463e-05
3.57390452e-05
3.51155129e-05
3.52283885e-05
3.68175509e-05
3.68217143e-05
3.57156744e-05
3.50162717e-05
3.54973541e-05
3.68046212e-05
3.57125633e-05
3.50029063e-05
3.68171354e-05
3.68161455e-05
3.57329566e-05
3.49447685e-05
3.51102515e-05
3.68076563e-05
3.6831674e-05
3.68130302e-05
3.68287677e-05
3.55094145e-05
3.48722784e-05
3.51927993e-05
3.68159746e-05
3.68100132e-05
3.68295367e-05
3.57061567e-05
3.51408969e-05
3.52140223e-05
3.68200974e-05
3.68248135e-05
3.57035273e-05
3.49464731e-05
3.54678682e-05
3.68165358e-05
3.56930692e-05
3.49714852e-05
3.6830417e-05
3.68084844e-05
3.5715598e-05
3.50700536e-05
3.53519518e-05
3.6802077e-05
3.68104422e-05
3.68088962e-05
3.5459915e-05
3.51821796e-05
3.48714445e-05
3.48760875e-05
3.68210094e-05
3.68094798e-05
3.68255893e-05
3.68113177e-05
3.49993258e-05
3.50143553e-05
3.68232597e-05
3.67962097e-05
3.6825226e-05
3.67894682e-05
3.59711845e-05
3.53647887e-05
3.51134377e-05
3.50732072e-05
3.67882644e-05
3.68071756e-05
3.52699461e-05
3.44453606e-05
3.48356305e-05
3.68019911e-05
3.68046574e-05
3.68049527e-05
3.51388326e-05
3.48221784e-05
3.68225948e-05
3.67831662e-05
3.68186483e-05
3.67844645e-05
3.5585091e-05
3.52025111e-05
3.50478928e-05
3.51291322e-05
3.68163392e-05
3.6767266e-05
3.68149033e-05
3.53284598e-05
3.42742479e-05
3.47914426e-05
3.67879486e-05
3.67869817e-05
3.67818581e-05
3.67781945e-05
3.67716119e-05
3.51420077e-05
3.49070262e-05
3.47651888e-05
3.48841295e-05
3.68019204e-05
3.6769318e-05
3.67966312e-05
3.67702138e-05
3.67877666e-05
3.53282734e-05
3.50356332e-05
3.49390127e-05
3.49728207e-05
3.68342482e-05
3.67896423e-05
3.68296519e-05
3.67952999e-05
3.55258252e-05
3.51481733e-05
3.50450337e-05
3.50508355e-05
3.68617927e-05
3.68134123e-05
3.68506171e-05
3.68160417e-05
3.56385408e-05
3.52072762e-05
3.52116433e-05
3.51873497e-05
3.68440047e-05
3.68073254e-05
3.52270008e-05
3.52409471e-05
3.68384967e-05
3.67991062e-05
3.5406695e-05
3.52622842e-05
3.68332525e-05
3.67942096e-05
3.57090381e-05
3.48767883e-05
3.52395999e-05
3.68121427e-05
3.68125418e-05
3.68056957e-05
3.67949653e-05
3.67932069e-05
3.54092809e-05
3.51240867e-05
3.507945e-05
3.51180487e-05
3.6805458e-05
3.67721264e-05
3.50930872e-05
3.52997204e-05
3.68055092e-05
3.6768166e-05
3.67968503e-05
3.53390226e-05
3.49179392e-05
3.48259745e-05
3.48451402e-05
3.6815285e-05
3.67767606e-05
3.68036479e-05
3.67800547e-05
3.53232511e-05
3.45970211e-05
3.49574128e-05
3.67967636e-05
3.67980749e-05
3.68016855e-05
3.67922312e-05
3.50499337e-05
3.52798913e-05
3.68175349e-05
3.52833319e-05
3.51051085e-05
3.68139658e-05
3.67961576e-05
3.68169407e-05
3.55824849e-05
3.5018935e-05
3.50288487e-05
3.5027682e-05
3.6847293e-05
3.67954718e-05
3.683678e-05
3.67920915e-05
3.56098399e-05
3.52105962e-05
3.51120464e-05
3.52069853e-05
3.68319414e-05
3.68020818e-05
3.68216964e-05
3.52736807e-05
3.50934401e-05
3.68292738e-05
3.67892133e-05
3.68247377e-05
3.67825279e-05
3.54563473e-05
3.51129104e-05
3.53232242e-05
3.50241593e-05
3.51838245e-05
3.67979861e-05
3.68013399e-05
3.52199181e-05
3.52631001e-05
3.68187857e-05
3.67947722e-05
3.51029085e-05
3.52870767e-05
3.68312695e-05
3.68135933e-05
3.68246061e-05
3.51669268e-05
3.51013218e-05
3.68439791e-05
3.68008044e-05
3.68375249e-05
3.67931147e-05
3.54720821e-05
3.50957287e-05
3.5323283e-05
3.50189494e-05
3.51988148e-05
3.68008576e-05
3.6813737e-05
3.52888632e-05
3.54666267e-05
3.68177662e-05
3.68117245e-05
3.68122092e-05
3.57239511e-05
3.51251665e-05
3.53864998e-05
3.49762455e-05
3.51818015e-05
3.68197465e-05
3.68321399e-05
3.68174326e-05
3.68287202e-05
3.53213001e-05
3.55799677e-05
3.68249829e-05
3.57090476e-05
3.51593973e-05
3.68514412e-05
3.68063693e-05
3.56846613e-05
3.527506e-05
3.51439788e-05
3.52484404e-05
3.68591472e-05
3.68091718e-05
3.68434709e-05
3.53035671e-05
3.53227578e-05
3.68389349e-05
3.53061001e-05
3.51317528e-05
3.68380414e-05
3.68300238e-05
3.68424107e-05
3.55005395e-05
3.51162497e-05
3.68354054e-05
3.68227859e-05
3.56883737e-05
3.50789057e-05
3.53203867e-05
3.68299279e-05
3.68362621e-05
3.54331018e-05
3.52985433e-05
3.68498778e-05
3.68139871e-05
3.56973262e-05
3.51265123e-05
3.53475494e-05
3.68205713e-05
3.68349073e-05
3.53181967e-05
3.53391474e-05
3.68335971e-05
3.68130238e-05
3.51912004e-05
3.54011984e-05
3.68433071e-05
3.68080457e-05
3.68404647e-05
3.57174632e-05
3.49606644e-05
3.51867231e-05
3.68140386e-05
3.68170059e-05
3.536879e-05
3.48837842e-05
3.51055969e-05
3.68015644e-05
3.68185218e-05
3.52355959e-05
3.51916397e-05
3.68100126e-05
3.68023603e-05
3.52382941e-05
3.52870366e-05
3.68206567e-05
3.681073e-05
3.5188315e-05
3.54750803e-05
3.68289087e-05
3.57242243e-05
3.49888728e-05
3.68408759e-05
3.68187859e-05
3.56922883e-05
3.4943172e-05
3.53594567e-05
3.68265102e-05
3.68336097e-05
3.68191616e-05
3.5704631e-05
3.55603243e-05
3.68431784e-05
3.67929898e-05
3.58205293e-05
3.55773941e-05
3.537503e-05
3.53771892e-05
3.68423898e-05
3.68238679e-05
3.56148084e-05
3.51137983e-05
3.52114296e-05
3.68207475e-05
3.68385708e-05
3.54903038e-05
3.49908864e-05
3.50967197e-05
3.68232001e-05
3.68340167e-05
3.53683555e-05
3.47565131e-05
3.50219483e-05
3.68399576e-05
3.68391664e-05
3.68356771e-05
3.68356034e-05
3.57025603e-05
3.54502825e-05
3.68457283e-05
3.68198902e-05
3.55513765e-05
3.5590153e-05
3.68628614e-05
3.68205833e-05
3.58053743e-05
3.54815794e-05
3.52580195e-05
3.52973679e-05
3.68562693e-05
3.6841553e-05
3.54215511e-05
3.5426787e-05
3.68560354e-05
3.68247652e-05
3.57123421e-05
3.54413314e-05
3.5282055e-05
3.52963765e-05
3.6843938e-05
3.68181533e-05
3.51605334e-05
3.53298555e-05
3.68363428e-05
3.68107468e-05
3.68296449e-05
3.57148258e-05
3.47810925e-05
3.54191918e-05
3.68202244e-05
3.53955013e-05
3.51834488e-05
3.68315061e-05
3.67980824e-05
3.68292865e-05
3.5763814e-05
3.48712742e-05
3.54296451e-05
3.68266193e-05
3.53854467e-05
3.51974529e-05
3.68282198e-05
3.68019467e-05
3.68276302e-05
3.57461768e-05
3.48392605e-05
3.53889951e-05
3.68248823e-05
3.53396241e-05
3.51233707e-05
3.6839702e-05
3.67982419e-05
3.68371861e-05
3.56292251e-05
3.51729608e-05
3.681562e-05
3.67939191e-05
3.5245294e-05
3.53532531e-05
3.68348574e-05
3.67903527e-05
3.68265864e-05
3.5436411e-05
3.49389399e-05
3.49834653e-05
3.49879941e-05
3.68342917e-05
3.67947965e-05
3.50369705e-05
3.52007615e-05
3.68458368e-05
3.68066103e-05
3.68429565e-05
3.55471548e-05
3.52098484e-05
3.68373526e-05
3.6815836e-05
3.5485359e-05
3.54368039e-05
3.68491525e-05
3.68093064e-05
3.56943462e-05
3.54348252e-05
3.52774738e-05
3.52851762e-05
3.68476635e-05
3.68246215e-05
3.51847226e-05
3.51926821e-05
3.68439179e-05
3.68247485e-05
3.52684844e-05
3.52847633e-05
3.68462876e-05
3.68192761e-05
3.54883603e-05
3.55096992e-05
3.6853496e-05
3.68122887e-05
3.57132287e-05
3.5466284e-05
3.52978112e-05
3.52997894e-05
3.68601868e-05
3.68257059e-05
3.53267636e-05
3.52615477e-05
3.68578357e-05
3.68147604e-05
3.57580326e-05
3.51885956e-05
3.53173278e-05
3.68242152e-05
3.68226953e-05
3.53289365e-05
3.52914288e-05
3.68383086e-05
)
;

boundaryField
{
    closed
    {
        type            calculated;
        value           nonuniform List<scalar> 0();
    }
    open
    {
        type            calculated;
        value           nonuniform List<scalar> 0();
    }
    sides
    {
        type            empty;
    }
    procBoundary3to2
    {
        type            processor;
        value           uniform 3.6820847e-05;
    }
    procBoundary3to4
    {
        type            processor;
        value           uniform 3.6802414e-05;
    }
}


// ************************************************************************* //
