/*--------------------------------*- C++ -*----------------------------------*\
| =========                 |                                                 |
| \\      /  F ield         | OpenFOAM: The Open Source CFD Toolbox           |
|  \\    /   O peration     | Version:  2306                                  |
|   \\  /    A nd           | Website:  www.openfoam.com                      |
|    \\/     M anipulation  |                                                 |
\*---------------------------------------------------------------------------*/
FoamFile
{
    version     2.0;
    format      ascii;
    arch        "LSB;label=32;scalar=64";
    class       volScalarField;
    location    "0.00152";
    object      PV;
}
// * * * * * * * * * * * * * * * * * * * * * * * * * * * * * * * * * * * * * //

dimensions      [0 0 0 0 0 0 0];

internalField   nonuniform List<scalar> 
531
(
-0.00691740827
-0.00710005994
-0.00717878095
-0.00715579566
-0.00692223931
-0.00691510163
-0.00691620233
-0.00709920523
-0.00715242191
-0.00713411633
-0.00715767671
-0.00715304449
-0.00692488673
-0.00691657753
-0.00713220922
-0.0071363296
-0.00692444388
-0.00691837329
-0.00691822236
-0.00709905955
-0.00716494325
-0.00715705885
-0.00691981037
-0.00691817925
-0.00702826584
-0.00715317291
-0.00714831003
-0.00717325028
-0.00717050357
-0.0069230202
-0.00691616647
-0.00716408709
-0.00717338376
-0.00692221828
-0.00691739011
-0.00691689968
-0.00691673159
-0.0071235356
-0.00714396105
-0.00692027833
-0.00691769088
-0.00710719671
-0.00714237403
-0.00715256052
-0.00715270622
-0.00691871538
-0.00691750637
-0.00691534406
-0.00712403153
-0.00715403669
-0.0069207679
-0.00691665946
-0.00713613454
-0.00713857909
-0.00691691284
-0.00712485138
-0.00714875821
-0.00692095193
-0.00691565027
-0.00691591758
-0.00710258075
-0.00715612493
-0.00715675278
-0.00715630146
-0.00691898095
-0.00691694889
-0.00691583464
-0.00710046149
-0.00716049961
-0.00715274961
-0.00691646774
-0.00691606944
-0.007096756
-0.00716985092
-0.00713034274
-0.00691933443
-0.0070931928
-0.00716999946
-0.00691579969
-0.00691799899
-0.00708092787
-0.00717445936
-0.00715837285
-0.0069194203
-0.00691697307
-0.00691770829
-0.00691761889
-0.00713234453
-0.00717956717
-0.00715431808
-0.00691932386
-0.00691676019
-0.00691685468
-0.00711874187
-0.0071596844
-0.00715290421
-0.00691569662
-0.00691573433
-0.00710555211
-0.0071734073
-0.00713128512
-0.00691740872
-0.00710256794
-0.00717155256
-0.00691328277
-0.00691863821
-0.00709100344
-0.00716730521
-0.00714213759
-0.0069198126
-0.00691775304
-0.00691831725
-0.00713820859
-0.00715919121
-0.00717815198
-0.00717852429
-0.00691950536
-0.00692048702
-0.00691934645
-0.00692015243
-0.00717011507
-0.00717127379
-0.00691924259
-0.00692254396
-0.00691870306
-0.00692239868
-0.00702105545
-0.00714776271
-0.00716491768
-0.00716639108
-0.00692149456
-0.00692097516
-0.00715269669
-0.00720906094
-0.00718108176
-0.00692150843
-0.00692087977
-0.00692075403
-0.00716073066
-0.00718496464
-0.00691759561
-0.00692382646
-0.00691785449
-0.00692282228
-0.00713020932
-0.0071610889
-0.00716755098
-0.00716451129
-0.00691973257
-0.00692345416
-0.00692091255
-0.00715079494
-0.00722071323
-0.00718502354
-0.00692334993
-0.0069229349
-0.00692422697
-0.0069237866
-0.0069247225
-0.00716363812
-0.00718169677
-0.00718775577
-0.00718183944
-0.00692090438
-0.0069249741
-0.00692203758
-0.00692444711
-0.00692255571
-0.00715061511
-0.00717152116
-0.00717398811
-0.00717394382
-0.00691597749
-0.00692202971
-0.00691618759
-0.00692099993
-0.00713139669
-0.00716182555
-0.00716289497
-0.00716588777
-0.00691223287
-0.00691866541
-0.00691319809
-0.0069180761
-0.00712206851
-0.00715574023
-0.00715199087
-0.00715556434
-0.00691415552
-0.00691874122
-0.00715085958
-0.00715425321
-0.00691439565
-0.00692043188
-0.00713874229
-0.00715531315
-0.00691396189
-0.00692255666
-0.00710816264
-0.00718199287
-0.00715095155
-0.00691996912
-0.00691917002
-0.00692101268
-0.00692105687
-0.00692187717
-0.00714434815
-0.007165086
-0.00716587163
-0.00716421452
-0.00691895207
-0.00692324217
-0.00716377366
-0.00715351257
-0.00691873262
-0.00692318629
-0.0069201253
-0.00714955546
-0.00717772635
-0.00718145704
-0.00718204617
-0.00691738466
-0.00692407739
-0.00691855395
-0.00692447132
-0.0071480467
-0.00720057455
-0.00717166093
-0.00692103359
-0.00692068274
-0.00692049324
-0.00692167385
-0.00716697716
-0.00715233129
-0.0069173111
-0.00715186591
-0.00716207778
-0.00691766864
-0.00691967681
-0.00691794385
-0.00713072578
-0.00716933726
-0.0071658403
-0.00716798909
-0.00691392182
-0.00692099148
-0.00691491916
-0.006921525
-0.00712610243
-0.00715848801
-0.00716062773
-0.00715642236
-0.00691653651
-0.0069201995
-0.00691837573
-0.00715169908
-0.00716495558
-0.00691593819
-0.00692255872
-0.00691617815
-0.00692333132
-0.00713680155
-0.00716652477
-0.00714552435
-0.00717109045
-0.00715458172
-0.00691988652
-0.00691965029
-0.00715531372
-0.00715277365
-0.00691735177
-0.00692157242
-0.00716133044
-0.0071514012
-0.00691656496
-0.00691958288
-0.00691806524
-0.00715776211
-0.00716348236
-0.00691465838
-0.00692146478
-0.0069148977
-0.00692235249
-0.00713449209
-0.00716689664
-0.00714435295
-0.00717078432
-0.00715246023
-0.00691933964
-0.00691810372
-0.00715049106
-0.00713696723
-0.00691702706
-0.00691688826
-0.00691870615
-0.0071048057
-0.00716265231
-0.00713970116
-0.00717186831
-0.00715293616
-0.00691761942
-0.00691655008
-0.0069181565
-0.00691744382
-0.00714798934
-0.00712681699
-0.00691667273
-0.00709346045
-0.00715821851
-0.00691197043
-0.00691942327
-0.00710391791
-0.00715282516
-0.00715519097
-0.00715280103
-0.00691341465
-0.00691922898
-0.00691593215
-0.00714900098
-0.00714629024
-0.00691550442
-0.00714848204
-0.00715830253
-0.00691605556
-0.00691723646
-0.00691634837
-0.00713410181
-0.00716156061
-0.00691419621
-0.00691946327
-0.00711711
-0.00716610169
-0.00714291987
-0.00691693921
-0.00691598853
-0.00713744475
-0.00714950533
-0.0069123049
-0.0069198998
-0.00709297746
-0.00716339361
-0.00713991752
-0.00691839647
-0.00691577853
-0.00714765404
-0.00714540504
-0.00691617443
-0.00691882124
-0.00715458879
-0.00714224263
-0.00691534566
-0.00691805574
-0.00691628671
-0.00711938025
-0.00717203564
-0.00715478422
-0.00691677302
-0.00691845142
-0.00714221686
-0.00717912459
-0.00715867631
-0.00691948013
-0.00691640174
-0.00715455666
-0.00715576195
-0.00691765029
-0.00691928502
-0.0071525842
-0.00715019991
-0.00691639813
-0.00691855305
-0.00715537845
-0.0071353135
-0.00691586842
-0.00709136221
-0.00716936224
-0.00691276517
-0.00691915114
-0.00710581044
-0.00717516373
-0.0071405331
-0.00691743633
-0.00691593866
-0.00691822511
-0.00711898698
-0.00713331469
-0.006914037
-0.00692024381
-0.00704862859
-0.00713137081
-0.0071410035
-0.00714297748
-0.00691326855
-0.0069174184
-0.00712297718
-0.00716196409
-0.00715033889
-0.00691613883
-0.00691548116
-0.00713377648
-0.00716921055
-0.00715971427
-0.00691614504
-0.00691725429
-0.0071421008
-0.0071858694
-0.00716451849
-0.00691675651
-0.00691659835
-0.00691707311
-0.00691709772
-0.00711886439
-0.00713874475
-0.00691494182
-0.00691856079
-0.00712879815
-0.00712908422
-0.00691268007
-0.00691730504
-0.00704963
-0.00713430703
-0.00714854194
-0.00714479267
-0.0069132477
-0.00691447857
-0.00713633124
-0.00713757548
-0.00691156024
-0.00691582397
-0.00708906785
-0.007137295
-0.00714659447
-0.00714592169
-0.00691389454
-0.00691677906
-0.00715570637
-0.00714533727
-0.006915142
-0.00691686838
-0.00691676092
-0.00711845676
-0.0071843248
-0.00713792709
-0.00691669055
-0.00714099019
-0.0071565706
-0.00691508682
-0.00691813723
-0.00691638012
-0.00708691661
-0.00717760408
-0.00713843733
-0.00691594773
-0.00714270837
-0.0071551589
-0.00691598065
-0.00691795966
-0.00691720427
-0.00709892027
-0.00718075305
-0.00714097348
-0.00691710343
-0.00714513473
-0.0071616803
-0.00691481798
-0.00692038067
-0.00691584425
-0.00712865787
-0.0071584416
-0.00691754058
-0.0069210733
-0.00715207328
-0.0071481431
-0.0069158501
-0.00692094979
-0.00691705634
-0.00714113328
-0.00717409197
-0.00716996768
-0.00717040403
-0.00691577991
-0.00692078901
-0.00716434881
-0.00715742361
-0.00691442981
-0.00691972391
-0.00691514693
-0.00713231506
-0.00715419804
-0.00691486395
-0.00691791717
-0.00713294574
-0.00714018031
-0.00691258579
-0.00691811181
-0.0071100765
-0.00713980066
-0.00714739666
-0.00714762557
-0.00691399086
-0.00691622509
-0.00715396947
-0.00715419581
-0.00691423672
-0.00691680995
-0.00714804747
-0.00714869989
-0.00691351345
-0.00691732986
-0.00713209094
-0.00713436066
-0.00691180439
-0.00691734066
-0.0070865187
-0.00713679591
-0.00714452076
-0.00714647799
-0.00691193144
-0.00691621381
-0.00714176371
-0.00715127373
-0.00691077445
-0.00691860553
-0.00706569014
-0.00715753785
-0.0071436038
-0.00691695416
-0.00691651665
-0.00714575783
-0.00715031595
-0.00691455724
)
;

boundaryField
{
    closed
    {
        type            zeroGradient;
    }
    open
    {
        type            zeroGradient;
    }
    sides
    {
        type            empty;
    }
    procBoundary3to2
    {
        type            processor;
        value           uniform -0.00691678392;
    }
    procBoundary3to4
    {
        type            processor;
        value           uniform -0.0069199448;
    }
}


// ************************************************************************* //
