/*--------------------------------*- C++ -*----------------------------------*\
| =========                 |                                                 |
| \\      /  F ield         | OpenFOAM: The Open Source CFD Toolbox           |
|  \\    /   O peration     | Version:  2306                                  |
|   \\  /    A nd           | Website:  www.openfoam.com                      |
|    \\/     M anipulation  |                                                 |
\*---------------------------------------------------------------------------*/
FoamFile
{
    version     2.0;
    format      ascii;
    arch        "LSB;label=32;scalar=64";
    class       volScalarField;
    location    "0.0002";
    object      prefDh_T;
}
// * * * * * * * * * * * * * * * * * * * * * * * * * * * * * * * * * * * * * //

dimensions      [1 1 -3 -1 0 0 0];

internalField   nonuniform List<scalar> 
530
(
-0.00062288733
-0.000597008175
-0.000591196789
-0.000591196579
-0.000591194502
-0.000591194502
-0.000591194501
-0.000591194501
-0.000591194501
-0.000591194501
-0.000591194501
-0.000591194501
-0.000591194501
-0.000591194501
-0.000591194501
-0.000591194501
-0.000591194501
-0.000591194501
-0.000591194501
-0.000591194501
-0.000591194501
-0.000591194501
-0.000591194501
-0.000591194501
-0.000591194501
-0.000591194501
-0.000591194501
-0.000591194501
-0.000591194501
-0.000591194501
-0.000591194501
-0.000591194501
-0.000591194501
-0.000591194501
-0.000591194501
-0.000591194501
-0.000591194501
-0.000591194501
-0.000591194501
-0.000591194501
-0.000591194501
-0.000591194501
-0.000591194501
-0.000591194501
-0.000591194501
-0.000591194501
-0.000591194501
-0.000591194501
-0.000591194501
-0.000591194501
-0.000591194501
-0.000591194501
-0.000591194501
-0.000591194501
-0.000591194501
-0.000591194501
-0.000591194501
-0.000591194501
-0.000591194501
-0.000591194501
-0.000591194501
-0.000591194501
-0.000591194501
-0.000591194501
-0.000591194501
-0.000591194501
-0.000591194501
-0.000591194501
-0.000591194501
-0.000591194501
-0.000591194501
-0.000591194501
-0.000591194501
-0.000591194501
-0.000591194501
-0.000591194501
-0.000591194501
-0.000591194501
-0.000591194501
-0.000591194501
-0.000591194501
-0.000591194501
-0.000591194501
-0.000591194501
-0.000591194501
-0.000591194501
-0.000591194501
-0.000591194501
-0.000591194501
-0.000591194501
-0.000591194501
-0.000591194501
-0.000591194501
-0.000591194499
-0.000591194497
-0.000591194514
-0.000591194526
-0.000591194443
-0.000591194386
-0.000591194686
-0.000591194896
-0.000591194104
-0.000591193526
-0.000591194991
-0.000591196106
-0.000591194322
-0.000591192819
-0.000591194302
-0.0005911958
-0.00059119487
-0.000591193668
-0.000591194132
-0.000591195014
-0.000591194902
-0.000591194121
-0.000591194009
-0.000591194683
-0.000591195318
-0.000591194657
-0.000591193144
-0.000591193715
-0.000591196495
-0.000591196264
-0.000591191963
-0.000591191784
-0.000591196939
-0.000591198177
-0.000591192878
-0.000591190056
-0.00059119453
-0.000591199292
-0.000591196704
-0.000591189882
-0.000591190432
-0.000591198021
-0.000591199342
-0.000591193148
-0.000591189246
-0.00059119353
-0.000591199967
-0.000591197845
-0.000591189013
-0.000591189422
-0.000591199166
-0.000591200498
-0.000591191614
-0.00059118802
-0.000591195308
-0.000591200961
-0.000591195763
-0.000591188568
-0.000591191567
-0.000591199475
-0.000591198478
-0.000591190703
-0.000591190802
-0.000591196608
-0.000591197304
-0.000591193718
-0.000591192829
-0.000591194657
-0.000591195084
-0.000591194318
-0.000591194555
-0.00059119536
-0.00059119424
-0.000591192871
-0.000591194509
-0.000591196618
-0.000591194905
-0.000591192315
-0.000591193892
-0.000591196522
-0.000591195003
-0.000591192488
-0.000591194223
-0.000591196862
-0.000591194779
-0.000591191616
-0.000591193728
-0.000591197727
-0.000591196208
-0.000591191438
-0.000591191881
-0.000591196769
-0.000591197116
-0.000591193896
-0.000591192388
-0.000591193463
-0.000591196018
-0.000591196026
-0.000591194048
-0.000591192958
-0.000591194239
-0.000591195968
-0.000591195031
-0.000591193096
-0.000591193949
-0.000591195911
-0.000591194987
-0.000591193016
-0.000591194128
-0.000591196121
-0.000591194712
-0.000591192652
-0.000591194462
-0.000591196733
-0.000591194456
-0.000591191736
-0.000591194395
-0.000591197884
-0.000591195159
-0.0005911905
-0.000591192843
-0.000591198961
-0.000591197603
-0.000591189845
-0.000591190113
-0.00059119863
-0.000591199673
-0.000591191726
-0.000591188801
-0.000591195599
-0.000591200445
-0.000591195202
-0.000591188612
-0.000591192082
-0.000591200059
-0.000591198341
-0.000591189545
-0.000591189914
-0.000591198482
-0.000591199043
-0.000591191867
-0.000591190283
-0.000591195941
-0.000591198206
-0.00059119406
-0.000591191426
-0.000591194144
-0.000591196907
-0.000591195496
-0.000591192743
-0.000591193072
-0.000591195602
-0.000591195932
-0.000591194322
-0.000591193058
-0.000591193835
-0.000591195985
-0.000591195801
-0.000591193152
-0.000591192943
-0.000591195376
-0.000591196
-0.000591194166
-0.00059119343
-0.000591194474
-0.000591194886
-0.00059119451
-0.000591194714
-0.000591195102
-0.000591193886
-0.000591193112
-0.000591195046
-0.000591196467
-0.000591194415
-0.000591192434
-0.000591194084
-0.000591196162
-0.000591195086
-0.000591193519
-0.00059119417
-0.000591195017
-0.000591194294
-0.000591193897
-0.000591195301
-0.000591195617
-0.000591193384
-0.000591192773
-0.000591195489
-0.000591196674
-0.000591194003
-0.000591192155
-0.000591194355
-0.000591196767
-0.00059119527
-0.000591192537
-0.000591193226
-0.000591195967
-0.000591195852
-0.0005911939
-0.000591193575
-0.000591193992
-0.000591194746
-0.000591195574
-0.000591195436
-0.000591193216
-0.000591192637
-0.000591195397
-0.000591196984
-0.000591194362
-0.000591191801
-0.000591193783
-0.000591197
-0.000591195901
-0.000591192525
-0.000591192815
-0.000591195831
-0.000591195827
-0.000591193897
-0.000591193662
-0.0005911948
-0.000591195005
-0.000591194124
-0.000591194014
-0.000591195124
-0.000591195249
-0.000591193699
-0.000591193377
-0.000591195315
-0.000591195975
-0.000591193797
-0.000591192739
-0.000591195053
-0.000591196544
-0.000591194142
-0.000591192135
-0.000591194548
-0.000591197208
-0.000591194953
-0.000591191531
-0.00059119338
-0.000591197579
-0.000591196392
-0.000591191476
-0.000591191866
-0.000591197295
-0.000591197486
-0.000591192497
-0.000591191165
-0.000591195392
-0.000591198197
-0.000591195183
-0.000591190596
-0.000591191693
-0.000591198317
-0.000591198544
-0.000591192535
-0.000591189705
-0.000591193491
-0.0005911993
-0.000591198466
-0.000591191166
-0.000591189296
-0.000591194214
-0.000591199948
-0.000591198577
-0.000591189784
-0.000591188706
-0.00059119653
-0.000591201062
-0.000591195468
-0.000591187838
-0.000591190764
-0.00059120079
-0.000591200112
-0.000591189331
-0.000591188349
-0.000591197637
-0.000591200699
-0.000591193394
-0.000591188663
-0.000591193832
-0.000591199653
-0.000591196475
-0.000591190295
-0.00059119183
-0.000591197686
-0.00059119729
-0.000591192191
-0.000591192206
-0.000591195974
-0.000591196377
-0.000591193527
-0.000591192795
-0.00059119503
-0.000591196234
-0.000591194652
-0.000591192759
-0.000591193336
-0.000591196121
-0.000591196189
-0.000591193719
-0.00059119253
-0.000591194323
-0.000591196611
-0.00059119549
-0.000591192321
-0.000591192904
-0.00059119673
-0.000591196603
-0.000591192237
-0.000591192073
-0.000591196561
-0.00059119721
-0.00059119282
-0.00059119164
-0.000591195636
-0.000591197309
-0.000591193971
-0.000591191955
-0.000591194493
-0.000591196673
-0.000591194901
-0.00059119271
-0.000591193827
-0.00059119598
-0.000591195405
-0.00059119327
-0.000591193418
-0.000591195442
-0.000591195588
-0.00059119407
-0.000591193504
-0.000591194332
-0.000591195204
-0.000591195128
-0.000591194458
-0.000591193815
-0.000591193819
-0.000591194733
-0.000591195549
-0.000591195207
-0.000591193485
-0.000591193193
-0.000591194464
-0.000591195987
-0.000591195844
-0.000591193658
-0.000591192359
-0.000591193625
-0.000591197066
-0.000591196905
-0.000591192524
-0.000591191256
-0.000591195005
-0.000591198012
-0.000591195583
-0.000591191289
-0.000591192311
-0.000591197035
-0.000591196854
-0.000591192857
-0.000591192655
-0.000591195558
-0.000591195717
-0.000591193373
-0.000591193534
-0.00059119638
-0.000591195923
-0.000591191521
-0.000591191762
-0.000591198472
-0.00059119883
-0.00059119062
-0.000591188484
-0.000591197021
-0.00059120189
-0.000591194604
-0.000591186501
-0.000591190998
-0.000591202117
-0.000591200893
-0.000591188509
-0.000591187463
-0.000591197231
-0.000591201171
-0.000591194678
-0.000591188805
-0.000591192385
-0.000591199074
-0.000591197526
-0.000591190885
-0.000591191258
-0.000591197474
-0.000591197609
-0.000591192102
-0.00059119125
-0.000591196346
-0.000591198162
-0.000591193659
-0.00059119046
-0.000591193702
-0.00059119851
-0.00059119736
-0.000591190942
-0.000591190942
-0.000591196344
-0.000591198098
-0.000591194171
-0.000591191126
-0.000591193992
-0.000591197827
-0.000591195419
-0.000591190687
-0.000591193017
-0.000591199302
-0.00059119719
-0.000591188642
-0.000591190001
-0.000591200994
-0.000591200658
-0.000591188179
-0.000591187565
-0.000591200057
-0.00059120191
-0.000591189384
-0.000591186139
-0.000591199277
-0.000591204955
-0.000591191321
-0.000591181307
-0.000591193551
-0.000591209664
-0.000591201777
-0.000591179627
-0.000591181657
-0.000591206078
-0.000591208475
)
;

boundaryField
{
    closed
    {
        type            calculated;
        value           uniform -0.00445005195;
    }
    open
    {
        type            calculated;
        value           nonuniform List<scalar> 0();
    }
    sides
    {
        type            empty;
    }
    procBoundary0to1
    {
        type            processor;
        value           uniform -0.000591189708;
    }
}


// ************************************************************************* //
