/*--------------------------------*- C++ -*----------------------------------*\
| =========                 |                                                 |
| \\      /  F ield         | OpenFOAM: The Open Source CFD Toolbox           |
|  \\    /   O peration     | Version:  2306                                  |
|   \\  /    A nd           | Website:  www.openfoam.com                      |
|    \\/     M anipulation  |                                                 |
\*---------------------------------------------------------------------------*/
FoamFile
{
    version     2.0;
    format      ascii;
    arch        "LSB;label=32;scalar=64";
    class       volScalarField;
    location    "0.0017";
    object      prefDPV_H2O;
}
// * * * * * * * * * * * * * * * * * * * * * * * * * * * * * * * * * * * * * //

dimensions      [1 -1 -1 0 0 0 0];

internalField   nonuniform List<scalar> 
530
(
-3.88019571e-07
-3.74323206e-07
-3.73035579e-07
-3.73063136e-07
-3.73066597e-07
-3.73066668e-07
-3.73066669e-07
-3.73066669e-07
-3.73066669e-07
-3.73066669e-07
-3.73066669e-07
-3.73066669e-07
-3.73066669e-07
-3.73066669e-07
-3.73066669e-07
-3.73066669e-07
-3.73066669e-07
-3.73066669e-07
-3.73066669e-07
-3.73066669e-07
-3.73066669e-07
-3.73066669e-07
-3.73066669e-07
-3.73066669e-07
-3.73066669e-07
-3.73066669e-07
-3.73066669e-07
-3.73066669e-07
-3.73066669e-07
-3.73066669e-07
-3.73066669e-07
-3.73066669e-07
-3.73066669e-07
-3.73066669e-07
-3.73066669e-07
-3.73066669e-07
-3.73066669e-07
-3.73066669e-07
-3.73066669e-07
-3.73066669e-07
-3.73066669e-07
-3.73066669e-07
-3.73066669e-07
-3.73066669e-07
-3.73066669e-07
-3.73066669e-07
-3.73066669e-07
-3.73066669e-07
-3.73066669e-07
-3.73066669e-07
-3.73066669e-07
-3.73066669e-07
-3.73066669e-07
-3.73066669e-07
-3.73066669e-07
-3.73066669e-07
-3.73066669e-07
-3.73066669e-07
-3.73066669e-07
-3.73066669e-07
-3.73066669e-07
-3.73066669e-07
-3.73066669e-07
-3.73066669e-07
-3.73066669e-07
-3.73066669e-07
-3.73066666e-07
-3.73066655e-07
-3.73066684e-07
-3.73066709e-07
-3.73066384e-07
-3.73066584e-07
-3.73067542e-07
-3.73066258e-07
-3.73064145e-07
-3.73067314e-07
-3.73071084e-07
-3.73068879e-07
-3.7305707e-07
-3.73060186e-07
-3.73059632e-07
-3.7311012e-07
-3.73253544e-07
-3.73216819e-07
-3.72315551e-07
-3.70996883e-07
-3.72286054e-07
-3.78671265e-07
-3.77551837e-07
-3.69923254e-07
-3.6621229e-07
-3.66028492e-07
-3.65525519e-07
-3.6791835e-07
-3.83884844e-07
-3.83591925e-07
-3.84743655e-07
-3.83811263e-07
-3.8529773e-07
-3.64586237e-07
-3.64070497e-07
-3.64835594e-07
-3.64742327e-07
-3.65199322e-07
-3.64621857e-07
-3.6850849e-07
-3.84237517e-07
-3.83909721e-07
-3.8421712e-07
-3.84588375e-07
-3.84195525e-07
-3.84885807e-07
-3.64951926e-07
-3.63881392e-07
-3.64862861e-07
-3.64667531e-07
-3.64048111e-07
-3.657235e-07
-3.84751133e-07
-3.84041715e-07
-3.85071839e-07
-3.84287628e-07
-3.85408351e-07
-3.84366505e-07
-3.85205541e-07
-3.63911328e-07
-3.63154644e-07
-3.64499467e-07
-3.64847696e-07
-3.64607985e-07
-3.67698166e-07
-3.84468283e-07
-3.8353866e-07
-3.84424518e-07
-3.65207757e-07
-3.63830584e-07
-3.65367751e-07
-3.81555308e-07
-3.84183168e-07
-3.84343681e-07
-3.84315615e-07
-3.65708736e-07
-3.6497141e-07
-3.65525625e-07
-3.68586801e-07
-3.83774103e-07
-3.83739081e-07
-3.65892416e-07
-3.65153473e-07
-3.68675354e-07
-3.83772212e-07
-3.83613348e-07
-3.66829432e-07
-3.67137245e-07
-3.83719645e-07
-3.8374148e-07
-3.65437199e-07
-3.64676872e-07
-3.68692073e-07
-3.84046394e-07
-3.83755186e-07
-3.65545565e-07
-3.64725485e-07
-3.6966573e-07
-3.84279589e-07
-3.83293164e-07
-3.83862556e-07
-3.66131961e-07
-3.64934533e-07
-3.69975449e-07
-3.84042466e-07
-3.83732831e-07
-3.66015933e-07
-3.64916939e-07
-3.69154597e-07
-3.84235151e-07
-3.83728539e-07
-3.65600967e-07
-3.64934063e-07
-3.65566714e-07
-3.65789322e-07
-3.65656136e-07
-3.67629019e-07
-3.84393603e-07
-3.83870365e-07
-3.65550565e-07
-3.65370442e-07
-3.86148591e-07
-3.84042092e-07
-3.86569931e-07
-3.64888994e-07
-3.65172046e-07
-3.85588935e-07
-3.8404553e-07
-3.84738943e-07
-3.65235213e-07
-3.64234685e-07
-3.65132834e-07
-3.66392469e-07
-3.84469651e-07
-3.83811982e-07
-3.66828549e-07
-3.66123284e-07
-3.85162931e-07
-3.83924386e-07
-3.66109038e-07
-3.65555069e-07
-3.85497076e-07
-3.84053357e-07
-3.65763061e-07
-3.65246195e-07
-3.85720149e-07
-3.84052931e-07
-3.65835137e-07
-3.65602809e-07
-3.85751406e-07
-3.84136662e-07
-3.65388776e-07
-3.63982652e-07
-3.65465637e-07
-3.85223654e-07
-3.83833194e-07
-3.66439972e-07
-3.65726825e-07
-3.86139952e-07
-3.84173814e-07
-3.65614287e-07
-3.63749126e-07
-3.64995894e-07
-3.85589904e-07
-3.8402528e-07
-3.66349934e-07
-3.65088374e-07
-3.86576224e-07
-3.84209338e-07
-3.66248061e-07
-3.65044316e-07
-3.86167673e-07
-3.84237407e-07
-3.66374916e-07
-3.65135969e-07
-3.85850372e-07
-3.84221124e-07
-3.66568418e-07
-3.6524062e-07
-3.85572175e-07
-3.84168554e-07
-3.66819752e-07
-3.65578627e-07
-3.85595506e-07
-3.84297039e-07
-3.66433132e-07
-3.639657e-07
-3.64571422e-07
-3.86308088e-07
-3.8398484e-07
-3.68043663e-07
-3.65582503e-07
-3.84828262e-07
-3.84048995e-07
-3.67936877e-07
-3.65846701e-07
-3.84872655e-07
-3.84245591e-07
-3.67568189e-07
-3.64220963e-07
-3.64474704e-07
-3.86649518e-07
-3.839333e-07
-3.68794244e-07
-3.65886959e-07
-3.83934885e-07
-3.84277291e-07
-3.68576602e-07
-3.64370307e-07
-3.64312582e-07
-3.86408411e-07
-3.83991449e-07
-3.69654765e-07
-3.65752635e-07
-3.82245941e-07
-3.84148884e-07
-3.69634101e-07
-3.66003816e-07
-3.82132106e-07
-3.84394152e-07
-3.6992178e-07
-3.64611196e-07
-3.64442178e-07
-3.83911898e-07
-3.84058625e-07
-3.70868422e-07
-3.66121734e-07
-3.80793173e-07
-3.84434733e-07
-3.70956571e-07
-3.6507653e-07
-3.65238482e-07
-3.65105333e-07
-3.65023889e-07
-3.8187051e-07
-3.84045425e-07
-3.72439325e-07
-3.66646409e-07
-3.80227866e-07
-3.84391657e-07
-3.72905833e-07
-3.65306482e-07
-3.65116882e-07
-3.83662763e-07
-3.84166171e-07
-3.73486047e-07
-3.65403298e-07
-3.6524463e-07
-3.84038433e-07
-3.84133244e-07
-3.73532394e-07
-3.65445167e-07
-3.65330253e-07
-3.84825307e-07
-3.8417057e-07
-3.73328556e-07
-3.65555165e-07
-3.65610534e-07
-3.86385623e-07
-3.84323501e-07
-3.72900195e-07
-3.65673234e-07
-3.6585529e-07
-3.86428774e-07
-3.84538064e-07
-3.7191372e-07
-3.6566689e-07
-3.65428321e-07
-3.65833239e-07
-3.8562136e-07
-3.85054156e-07
-3.70689131e-07
-3.67944172e-07
-3.85224536e-07
-3.85696326e-07
-3.69295018e-07
-3.65253367e-07
-3.66816746e-07
-3.85773069e-07
-3.85986364e-07
-3.68665249e-07
-3.6525106e-07
-3.67553948e-07
-3.85677844e-07
-3.86276303e-07
-3.68041154e-07
-3.65215646e-07
-3.68015443e-07
-3.85598439e-07
-3.86479269e-07
-3.6757053e-07
-3.65161729e-07
-3.68068188e-07
-3.85498066e-07
-3.864695e-07
-3.67654075e-07
-3.6495516e-07
-3.65119876e-07
-3.67779106e-07
-3.85639186e-07
-3.85879425e-07
-3.68215653e-07
-3.68763499e-07
-3.86234295e-07
-3.86708245e-07
-3.6655899e-07
-3.6493988e-07
-3.68199494e-07
-3.85327237e-07
-3.85687737e-07
-3.67897341e-07
-3.68750508e-07
-3.85881714e-07
-3.86677033e-07
-3.66303489e-07
-3.64821796e-07
-3.68423913e-07
-3.85172098e-07
-3.85426807e-07
-3.67506751e-07
-3.68638304e-07
-3.85658019e-07
-3.86657136e-07
-3.65986366e-07
-3.64616171e-07
-3.68448708e-07
-3.85061845e-07
-3.85260362e-07
-3.67168734e-07
-3.68516487e-07
-3.85447627e-07
-3.86553402e-07
-3.65811684e-07
-3.64506387e-07
-3.68537603e-07
-3.84925837e-07
-3.85300648e-07
-3.67002802e-07
-3.68461597e-07
-3.85199113e-07
-3.86382242e-07
-3.65704115e-07
-3.64389672e-07
-3.6885223e-07
-3.84788222e-07
-3.86296201e-07
-3.65771093e-07
-3.64421338e-07
-3.68926197e-07
-3.8471713e-07
-3.86163805e-07
-3.65761536e-07
-3.64443121e-07
-3.68519763e-07
-3.8464544e-07
-3.86950492e-07
-3.66890305e-07
-3.68103866e-07
-3.84845564e-07
-3.86637014e-07
-3.66554376e-07
-3.6801953e-07
-3.84850759e-07
-3.85506388e-07
-3.65703872e-07
-3.64319475e-07
-3.67758515e-07
-3.84802604e-07
-3.85905885e-07
-3.6713282e-07
-3.67541497e-07
-3.85141768e-07
-3.85664728e-07
-3.66983369e-07
-3.67412032e-07
-3.85530451e-07
-3.84815456e-07
-3.67311547e-07
-3.64712714e-07
-3.66636607e-07
-3.86315043e-07
-3.84836733e-07
-3.69424264e-07
-3.6527542e-07
-3.65417214e-07
-3.65278492e-07
-3.66038087e-07
-3.84797472e-07
-3.84825156e-07
-3.73433508e-07
-3.65514727e-07
-3.6564135e-07
-3.81581082e-07
-3.85147421e-07
-3.7558832e-07
-3.65653195e-07
-3.65338254e-07
-3.77223297e-07
-3.85667214e-07
-3.76782231e-07
-3.68202537e-07
-3.74643234e-07
-3.86371371e-07
-3.76709963e-07
-3.67722873e-07
-3.737252e-07
-3.86510629e-07
-3.76935617e-07
-3.67646369e-07
-3.7326602e-07
-3.86356489e-07
-3.78877082e-07
-3.65708254e-07
-3.64883691e-07
-3.72822676e-07
-3.86162724e-07
-3.80080314e-07
-3.65928047e-07
-3.64992721e-07
-3.72577427e-07
-3.86087119e-07
-3.80674376e-07
-3.66038563e-07
-3.65096545e-07
-3.72291691e-07
-3.86020941e-07
-3.80937997e-07
-3.66133502e-07
-3.64978605e-07
-3.71555349e-07
-3.861005e-07
-3.80276401e-07
-3.68200086e-07
-3.72390899e-07
-3.85896138e-07
-3.80191373e-07
-3.65965533e-07
-3.64852047e-07
-3.7148504e-07
-3.85865619e-07
-3.80148866e-07
-3.67949269e-07
-3.72453364e-07
-3.85589619e-07
-3.80030121e-07
-3.65796966e-07
-3.64934114e-07
-3.72453839e-07
-3.85431469e-07
-3.80846366e-07
-3.6600509e-07
-3.65107279e-07
-3.73094836e-07
-3.85175578e-07
-3.83950259e-07
-3.79492884e-07
-3.66035905e-07
-3.65215285e-07
-3.65090901e-07
-3.65048348e-07
-3.73420489e-07
-3.84978784e-07
-3.83912937e-07
-3.80404636e-07
)
;

boundaryField
{
    closed
    {
        type            calculated;
        value           uniform -5.13292117e-07;
    }
    open
    {
        type            calculated;
        value           nonuniform List<scalar> 0();
    }
    sides
    {
        type            empty;
    }
    procBoundary0to1
    {
        type            processor;
        value           uniform -3.66110785e-07;
    }
}


// ************************************************************************* //
