/*--------------------------------*- C++ -*----------------------------------*\
| =========                 |                                                 |
| \\      /  F ield         | OpenFOAM: The Open Source CFD Toolbox           |
|  \\    /   O peration     | Version:  2306                                  |
|   \\  /    A nd           | Website:  www.openfoam.com                      |
|    \\/     M anipulation  |                                                 |
\*---------------------------------------------------------------------------*/
FoamFile
{
    version     2.0;
    format      ascii;
    arch        "LSB;label=32;scalar=64";
    class       volScalarField;
    location    "0.00082";
    object      prefDZ_H2O;
}
// * * * * * * * * * * * * * * * * * * * * * * * * * * * * * * * * * * * * * //

dimensions      [1 -1 -1 0 0 0 0];

internalField   nonuniform List<scalar> 
530
(
-7.5954167e-07
-7.52419532e-07
-7.52071173e-07
-7.520794e-07
-7.52080015e-07
-7.52080021e-07
-7.52080022e-07
-7.52080022e-07
-7.52080022e-07
-7.52080022e-07
-7.52080022e-07
-7.52080022e-07
-7.52080022e-07
-7.52080022e-07
-7.52080022e-07
-7.52080022e-07
-7.52080022e-07
-7.52080022e-07
-7.52080022e-07
-7.52080022e-07
-7.52080022e-07
-7.52080022e-07
-7.52080022e-07
-7.52080022e-07
-7.52080022e-07
-7.52080022e-07
-7.52080022e-07
-7.52080022e-07
-7.52080022e-07
-7.52080022e-07
-7.52080022e-07
-7.52080022e-07
-7.52080022e-07
-7.52080022e-07
-7.52080022e-07
-7.52080022e-07
-7.52080022e-07
-7.52080022e-07
-7.52080022e-07
-7.52080022e-07
-7.52080022e-07
-7.52080022e-07
-7.52080022e-07
-7.52080022e-07
-7.52080022e-07
-7.52080022e-07
-7.52080022e-07
-7.52080022e-07
-7.52080022e-07
-7.52080022e-07
-7.52080022e-07
-7.52080022e-07
-7.52080022e-07
-7.52080022e-07
-7.52080022e-07
-7.52080022e-07
-7.52080022e-07
-7.52080022e-07
-7.52080022e-07
-7.52080022e-07
-7.52080022e-07
-7.52080022e-07
-7.52080022e-07
-7.52080022e-07
-7.52080022e-07
-7.52080022e-07
-7.52080022e-07
-7.52080022e-07
-7.52080022e-07
-7.52080022e-07
-7.52080022e-07
-7.52080021e-07
-7.52080021e-07
-7.52080021e-07
-7.52080022e-07
-7.52080021e-07
-7.52079988e-07
-7.52079986e-07
-7.52080205e-07
-7.52080132e-07
-7.52079199e-07
-7.52079103e-07
-7.52081424e-07
-7.52081552e-07
-7.52081187e-07
-7.52083544e-07
-7.52058345e-07
-7.520057e-07
-7.51973547e-07
-7.52127783e-07
-7.53140149e-07
-7.53156119e-07
-7.50042071e-07
-7.42604558e-07
-7.4223215e-07
-7.65588096e-07
-7.75781661e-07
-7.6293352e-07
-7.38061232e-07
-7.36045461e-07
-7.36176898e-07
-7.46513442e-07
-7.76904021e-07
-7.75921403e-07
-7.75232726e-07
-7.79732485e-07
-7.38303935e-07
-7.36630054e-07
-7.36389383e-07
-7.3624286e-07
-7.44944754e-07
-7.77111472e-07
-7.73363054e-07
-7.79755387e-07
-7.40286411e-07
-7.36431537e-07
-7.36713417e-07
-7.45683922e-07
-7.76392987e-07
-7.73364474e-07
-7.79666156e-07
-7.39553189e-07
-7.36637433e-07
-7.36631741e-07
-7.45763097e-07
-7.76180984e-07
-7.7284674e-07
-7.39393738e-07
-7.45689633e-07
-7.75776954e-07
-7.76787919e-07
-7.36230458e-07
-7.34696823e-07
-7.47361561e-07
-7.76957636e-07
-7.66857458e-07
-7.38535907e-07
-7.47600205e-07
-7.76890355e-07
-7.62319908e-07
-7.38168948e-07
-7.49019061e-07
-7.77539852e-07
-7.58544822e-07
-7.38116454e-07
-7.51133249e-07
-7.78205917e-07
-7.55282891e-07
-7.38316178e-07
-7.53810869e-07
-7.78922497e-07
-7.52302489e-07
-7.38631907e-07
-7.56789967e-07
-7.79742046e-07
-7.49485145e-07
-7.38907416e-07
-7.59290354e-07
-7.79852485e-07
-7.48638437e-07
-7.34771636e-07
-7.37225854e-07
-7.65825799e-07
-7.77496997e-07
-7.46143643e-07
-7.4004016e-07
-7.65507924e-07
-7.77765542e-07
-7.4363302e-07
-7.35007621e-07
-7.38345373e-07
-7.70886962e-07
-7.75446716e-07
-7.43508102e-07
-7.40810311e-07
-7.70167392e-07
-7.74919332e-07
-7.42057421e-07
-7.40795836e-07
-7.71522056e-07
-7.74079695e-07
-7.41296712e-07
-7.40992954e-07
-7.72799222e-07
-7.73008986e-07
-7.41036222e-07
-7.41448445e-07
-7.73191567e-07
-7.71780973e-07
-7.40773275e-07
-7.41638228e-07
-7.74084903e-07
-7.73021998e-07
-7.38427973e-07
-7.35506396e-07
-7.42713695e-07
-7.75637887e-07
-7.71986596e-07
-7.41447569e-07
-7.42972576e-07
-7.75433247e-07
-7.70788839e-07
-7.40734158e-07
-7.42869841e-07
-7.76196e-07
-7.73290922e-07
-7.38165734e-07
-7.35771331e-07
-7.44833853e-07
-7.7721695e-07
-7.70239187e-07
-7.40779859e-07
-7.43508722e-07
-7.77446848e-07
-7.73067479e-07
-7.37698276e-07
-7.35665727e-07
-7.45567653e-07
-7.77782425e-07
-7.68757238e-07
-7.40326833e-07
-7.44089455e-07
-7.77633762e-07
-7.67613561e-07
-7.39871617e-07
-7.44259967e-07
-7.77769635e-07
-7.66870482e-07
-7.39686251e-07
-7.44447874e-07
-7.78284531e-07
-7.65717588e-07
-7.39230346e-07
-7.43639158e-07
-7.80190814e-07
-7.72863531e-07
-7.37013215e-07
-7.35623561e-07
-7.47800261e-07
-7.80001355e-07
-7.65698694e-07
-7.39360164e-07
-7.45010827e-07
-7.79858265e-07
-7.65015773e-07
-7.39507781e-07
-7.46280769e-07
-7.78895847e-07
-7.60916924e-07
-7.38573308e-07
-7.44643014e-07
-7.78093865e-07
-7.74741962e-07
-7.36878215e-07
-7.35708708e-07
-7.48724776e-07
-7.77934404e-07
-7.68131392e-07
-7.39498386e-07
-7.45803259e-07
-7.7817081e-07
-7.6642266e-07
-7.38937945e-07
-7.4462678e-07
-7.76947028e-07
-7.78179847e-07
-7.37143036e-07
-7.36094984e-07
-7.49644787e-07
-7.76564275e-07
-7.72583618e-07
-7.40728152e-07
-7.45858272e-07
-7.76139479e-07
-7.80062513e-07
-7.37027086e-07
-7.36101915e-07
-7.37423443e-07
-7.37513217e-07
-7.47461674e-07
-7.75860618e-07
-7.79149451e-07
-7.37404383e-07
-7.35932039e-07
-7.49991958e-07
-7.75796312e-07
-7.74901882e-07
-7.40691256e-07
-7.46485562e-07
-7.75334788e-07
-7.74288381e-07
-7.40253388e-07
-7.45634575e-07
-7.75095349e-07
-7.77998225e-07
-7.37098694e-07
-7.36045352e-07
-7.37695261e-07
-7.38002231e-07
-7.38501284e-07
-7.53732779e-07
-7.73771141e-07
-7.75856696e-07
-7.42350742e-07
-7.38468256e-07
-7.5473127e-07
-7.74454592e-07
-7.77105339e-07
-7.40217289e-07
-7.44287116e-07
-7.75004661e-07
-7.78094683e-07
-7.36330255e-07
-7.34894218e-07
-7.47166444e-07
-7.75582887e-07
-7.78236027e-07
-7.36423691e-07
-7.34805238e-07
-7.49245427e-07
-7.75451718e-07
-7.72828226e-07
-7.38875518e-07
-7.43915892e-07
-7.74843197e-07
-7.77489546e-07
-7.36562085e-07
-7.35247426e-07
-7.4778125e-07
-7.75194379e-07
-7.76724639e-07
-7.37308505e-07
-7.35566846e-07
-7.4867048e-07
-7.74978754e-07
-7.7626804e-07
-7.37747072e-07
-7.35982097e-07
-7.49399482e-07
-7.74884794e-07
-7.76011921e-07
-7.37575829e-07
-7.35913204e-07
-7.37439824e-07
-7.46829597e-07
-7.74775585e-07
-7.7642368e-07
-7.3680699e-07
-7.35021554e-07
-7.47404901e-07
-7.75215524e-07
-7.7668808e-07
-7.36647961e-07
-7.34786405e-07
-7.4748156e-07
-7.75052909e-07
-7.79559347e-07
-7.38698566e-07
-7.42388746e-07
-7.74538694e-07
-7.79649347e-07
-7.38244597e-07
-7.41755131e-07
-7.74777058e-07
-7.76560873e-07
-7.36108574e-07
-7.34445078e-07
-7.46052258e-07
-7.75351174e-07
-7.76665847e-07
-7.36203549e-07
-7.34262346e-07
-7.45767416e-07
-7.75034626e-07
-7.77864053e-07
-7.38275035e-07
-7.40733934e-07
-7.74599374e-07
-7.76495662e-07
-7.3593682e-07
-7.3431698e-07
-7.45487496e-07
-7.74827922e-07
-7.76824445e-07
-7.38426981e-07
-7.40636009e-07
-7.74412389e-07
-7.76303331e-07
-7.36133844e-07
-7.34470909e-07
-7.4583942e-07
-7.75113417e-07
-7.76144362e-07
-7.36194367e-07
-7.34206053e-07
-7.45525646e-07
-7.75218513e-07
-7.76313201e-07
-7.35815994e-07
-7.33926045e-07
-7.44657477e-07
-7.75012232e-07
-7.77267564e-07
-7.37713151e-07
-7.39757125e-07
-7.74436119e-07
-7.7772768e-07
-7.37392056e-07
-7.39772865e-07
-7.74771836e-07
-7.76651307e-07
-7.35130971e-07
-7.3363019e-07
-7.43507273e-07
-7.75201717e-07
-7.77154951e-07
-7.37405974e-07
-7.39279563e-07
-7.74513064e-07
-7.77440762e-07
-7.37212787e-07
-7.39361608e-07
-7.74729386e-07
-7.76188029e-07
-7.35107872e-07
-7.33664181e-07
-7.43117711e-07
-7.75058734e-07
-7.76420042e-07
-7.37519539e-07
-7.39119264e-07
-7.74580341e-07
-7.75876629e-07
-7.35109416e-07
-7.33569267e-07
-7.42703829e-07
-7.74974935e-07
-7.75900039e-07
-7.372353e-07
-7.38757274e-07
-7.74523204e-07
-7.75702654e-07
-7.34856805e-07
-7.3323125e-07
-7.41847549e-07
-7.74979279e-07
-7.75505872e-07
-7.36804346e-07
-7.38051913e-07
-7.74210507e-07
-7.75701839e-07
-7.36514115e-07
-7.38070427e-07
-7.74088869e-07
-7.7553701e-07
-7.36666906e-07
-7.38603086e-07
-7.74253798e-07
-7.75163893e-07
-7.35419424e-07
-7.34110498e-07
-7.44314301e-07
-7.74838981e-07
-7.74882055e-07
-7.36481079e-07
-7.34735575e-07
-7.44724662e-07
-7.74782699e-07
-7.75747629e-07
-7.36606226e-07
-7.37895923e-07
-7.74706663e-07
-7.75129578e-07
-7.3564772e-07
-7.34147575e-07
-7.44156037e-07
-7.75074726e-07
-7.75005565e-07
-7.36733837e-07
-7.34989164e-07
-7.4473046e-07
-7.74807589e-07
-7.75667442e-07
-7.37917579e-07
-7.39030457e-07
-7.74742271e-07
-7.74816839e-07
-7.365185e-07
-7.3515317e-07
-7.45562688e-07
-7.75056378e-07
-7.75088225e-07
-7.37089528e-07
-7.34795859e-07
-7.44054367e-07
-7.75340426e-07
-7.75131699e-07
-7.36685946e-07
-7.34758909e-07
-7.43824802e-07
-7.75909446e-07
-7.75551431e-07
-7.74891288e-07
-7.7690463e-07
-7.36086791e-07
-7.34263289e-07
-7.36732248e-07
-7.36214536e-07
-7.41717929e-07
-7.74990894e-07
-7.74423952e-07
-7.39076761e-07
-7.36560999e-07
-7.47555423e-07
-7.74590544e-07
-7.74416281e-07
-7.39718107e-07
-7.35808155e-07
-7.44031314e-07
-7.75120009e-07
-7.74604826e-07
-7.38079129e-07
-7.34375385e-07
-7.3965479e-07
-7.75293067e-07
-7.74163249e-07
-7.40131857e-07
-7.35724558e-07
-7.43438341e-07
-7.74782653e-07
)
;

boundaryField
{
    closed
    {
        type            calculated;
        value           uniform -1.0329005e-06;
    }
    open
    {
        type            calculated;
        value           nonuniform List<scalar> 0();
    }
    sides
    {
        type            empty;
    }
    procBoundary0to1
    {
        type            processor;
        value           uniform -7.73967058e-07;
    }
}


// ************************************************************************* //
