/*--------------------------------*- C++ -*----------------------------------*\
| =========                 |                                                 |
| \\      /  F ield         | OpenFOAM: The Open Source CFD Toolbox           |
|  \\    /   O peration     | Version:  2306                                  |
|   \\  /    A nd           | Website:  www.openfoam.com                      |
|    \\/     M anipulation  |                                                 |
\*---------------------------------------------------------------------------*/
FoamFile
{
    version     2.0;
    format      ascii;
    arch        "LSB;label=32;scalar=64";
    class       volScalarField;
    location    "4e-05";
    object      p;
}
// * * * * * * * * * * * * * * * * * * * * * * * * * * * * * * * * * * * * * //

dimensions      [1 -1 -2 0 0 0 0];

internalField   nonuniform List<scalar> 
530
(
101319.775
101319.667
101319.558
101319.448
101319.335
101319.221
101319.105
101318.988
101318.869
101318.748
101318.625
101318.501
101318.375
101318.247
101318.117
101317.986
101317.853
101317.718
101317.582
101317.443
101317.303
101317.162
101317.018
101316.873
101316.726
101316.577
101316.427
101316.275
101316.121
101315.965
101315.808
101315.649
101315.489
101315.327
101315.163
101314.998
101314.831
101314.662
101314.492
101314.321
101314.148
101313.973
101313.798
101313.62
101313.442
101313.262
101313.08
101312.898
101312.714
101312.529
101312.343
101312.155
101311.967
101311.778
101311.587
101311.396
101311.204
101311.011
101310.817
101310.623
101310.428
101310.232
101310.036
101309.84
101309.643
101309.446
101309.248
101309.051
101308.853
101308.656
101308.458
101308.261
101308.064
101307.867
101307.671
101307.475
101307.28
101307.086
101306.893
101306.7
101306.509
101306.319
101306.13
101305.943
101305.757
101305.572
101305.39
101305.209
101305.031
101304.855
101304.681
101304.509
101304.34
101304.174
101304.01
101303.85
101303.693
101303.539
101303.389
101303.243
101303.1
101302.961
101302.827
101302.696
101302.571
101302.45
101302.333
101302.222
101302.117
101302.016
101301.921
101301.832
101301.75
101301.673
101301.603
101301.539
101301.482
101301.432
101301.39
101301.355
101301.327
101301.308
101301.297
101301.294
101301.299
101301.314
101301.337
101301.37
101301.412
101301.464
101301.526
101301.598
101301.68
101301.773
101301.877
101301.993
101302.119
101302.258
101302.408
101302.57
101302.745
101302.932
101303.133
101303.346
101303.573
101303.813
101304.068
101304.336
101304.619
101304.917
101305.229
101305.557
101305.9
101306.259
101306.633
101307.024
101307.431
101307.855
101308.296
101308.754
101309.229
101309.722
101310.232
101310.761
101311.308
101311.874
101312.458
101313.062
101313.684
101314.327
101314.988
101315.67
101316.372
101317.094
101317.836
101318.6
101319.384
101320.189
101321.016
101321.864
101322.734
101323.625
101324.539
101325.474
101326.432
101327.413
101328.416
101329.441
101330.49
101331.562
101332.657
101333.775
101334.916
101336.081
101337.27
101338.482
101339.718
101340.977
101342.261
101343.569
101344.9
101346.256
101347.635
101349.039
101350.467
101351.919
101353.395
101354.896
101356.42
101357.969
101359.541
101361.138
101362.759
101364.403
101366.072
101367.764
101369.48
101371.219
101372.982
101374.769
101376.578
101378.411
101380.267
101382.145
101384.046
101385.97
101387.916
101389.884
101391.874
101393.885
101395.918
101397.973
101400.048
101402.144
101404.26
101406.397
101408.553
101410.729
101412.925
101415.139
101417.372
101419.623
101421.893
101424.18
101426.484
101428.805
101431.143
101433.497
101435.866
101438.251
101440.651
101443.065
101445.494
101447.936
101450.391
101452.859
101455.339
101457.831
101460.335
101462.849
101465.374
101467.908
101470.452
101473.004
101475.565
101478.134
101480.71
101483.293
101485.882
101488.476
101491.076
101493.68
101496.289
101498.901
101501.515
101504.132
101506.751
101509.371
101511.991
101514.612
101517.232
101519.851
101522.468
101525.082
101527.694
101530.303
101532.907
101535.507
101538.102
101540.691
101543.273
101545.849
101548.417
101550.977
101553.528
101556.07
101558.603
101561.124
101563.635
101566.135
101568.622
101571.097
101573.559
101576.007
101578.441
101580.861
101583.265
101585.653
101588.025
101590.38
101592.718
101595.039
101597.341
101599.624
101601.889
101604.134
101606.358
101608.563
101610.746
101612.908
101615.048
101617.167
101619.262
101621.335
101623.385
101625.41
101627.412
101629.39
101631.343
101633.271
101635.174
101637.051
101638.902
101640.727
101642.526
101644.298
101646.044
101647.762
101649.453
101651.116
101652.752
101654.36
101655.94
101657.491
101659.015
101660.509
101661.976
101663.413
101664.822
101666.202
101667.553
101668.874
101670.167
101671.431
101672.666
101673.871
101675.047
101676.195
101677.313
101678.402
101679.462
101680.493
101681.496
101682.469
101683.414
101684.33
101685.218
101686.077
101686.908
101687.711
101688.486
101689.233
101689.953
101690.645
101691.31
101691.948
101692.558
101693.143
101693.701
101694.232
101694.738
101695.218
101695.672
101696.102
101696.506
101696.886
101697.241
101697.573
101697.88
101698.164
101698.425
101698.663
101698.879
101699.072
101699.243
101699.393
101699.521
101699.629
101699.716
101699.783
101699.829
101699.857
101699.865
101699.854
101699.825
101699.778
101699.713
101699.63
101699.531
101699.415
101699.282
101699.134
101698.97
101698.791
101698.597
101698.389
101698.166
101697.93
101697.681
101697.418
101697.143
101696.855
101696.556
101696.245
101695.923
101695.59
101695.247
101694.893
101694.53
101694.157
101693.775
101693.384
101692.985
101692.578
101692.163
101691.741
101691.311
101690.875
101690.432
101689.982
101689.527
101689.067
101688.601
101688.13
101687.654
101687.174
101686.69
101686.202
101685.71
101685.215
101684.717
101684.216
101683.712
101683.206
101682.698
101682.188
101681.676
101681.163
101680.649
101680.134
101679.618
101679.101
101678.584
101678.067
101677.55
101677.033
101676.516
101676
101675.485
101674.97
101674.456
101673.944
101673.433
101672.923
101672.415
101671.908
101671.404
101670.901
101670.4
101669.902
101669.406
101668.912
101668.421
101667.932
101667.446
101666.962
101666.482
101666.004
101665.529
101665.057
101664.589
101664.123
101663.661
101663.202
101662.746
101662.293
101661.844
101661.398
101660.955
101660.516
101660.081
101659.649
101659.22
101658.795
101658.373
101657.955
101657.54
101657.129
101656.721
101656.317
101655.916
101655.518
101655.124
101654.734
101654.346
101653.962
101653.582
101653.204
101652.83
101652.459
101652.092
101651.727
101651.366
101651.007
101650.652
101650.299
101649.95
101649.603
101649.259
101648.917
)
;

boundaryField
{
    closed
    {
        type            zeroGradient;
    }
    open
    {
        type            waveTransmissive;
        gamma           1.25;
        fieldInf        101325;
        lInf            1;
        value           nonuniform List<scalar> 0();
    }
    sides
    {
        type            empty;
    }
    procBoundary2to1
    {
        type            processor;
        value           uniform 101319.88;
    }
    procBoundary2to3
    {
        type            processor;
        value           uniform 101648.579;
    }
}


// ************************************************************************* //
