/*--------------------------------*- C++ -*----------------------------------*\
| =========                 |                                                 |
| \\      /  F ield         | OpenFOAM: The Open Source CFD Toolbox           |
|  \\    /   O peration     | Version:  2306                                  |
|   \\  /    A nd           | Website:  www.openfoam.com                      |
|    \\/     M anipulation  |                                                 |
\*---------------------------------------------------------------------------*/
FoamFile
{
    version     2.0;
    format      ascii;
    arch        "LSB;label=32;scalar=64";
    class       volScalarField;
    location    "0.00074";
    object      alpha;
}
// * * * * * * * * * * * * * * * * * * * * * * * * * * * * * * * * * * * * * //

dimensions      [1 -1 -1 0 0 0 0];

internalField   nonuniform List<scalar> 
530
(
8.62176799e-05
8.62663932e-05
8.63032703e-05
8.63475064e-05
8.63803419e-05
8.6422946e-05
8.64541044e-05
8.64951443e-05
8.65250588e-05
8.65689779e-05
8.65995746e-05
8.66416728e-05
8.66706087e-05
8.67099656e-05
8.67351396e-05
8.67710498e-05
8.67946377e-05
8.68289074e-05
8.68509613e-05
8.68836886e-05
8.69042629e-05
8.69355447e-05
8.69547093e-05
8.69828901e-05
8.7001588e-05
8.70283427e-05
8.70468174e-05
8.70715136e-05
8.7089235e-05
8.71093179e-05
8.71256704e-05
8.71436632e-05
8.7159603e-05
8.71757014e-05
8.71911271e-05
8.72055042e-05
8.72203311e-05
8.72331394e-05
8.72472975e-05
8.72586719e-05
8.72721046e-05
8.7282165e-05
8.72948298e-05
8.73036817e-05
8.73155516e-05
8.73232845e-05
8.73343519e-05
8.73410376e-05
8.73509129e-05
8.73553862e-05
8.73633015e-05
8.73667497e-05
8.73738118e-05
8.73762486e-05
8.73822255e-05
8.73836207e-05
8.73891813e-05
8.73893962e-05
8.73943659e-05
8.73934363e-05
8.73978159e-05
8.73957836e-05
8.73996685e-05
8.73968017e-05
8.7400131e-05
8.73962715e-05
8.7398973e-05
8.73941733e-05
8.73962391e-05
8.73905495e-05
8.73919765e-05
8.73854442e-05
8.73862343e-05
8.73789034e-05
8.73790634e-05
8.73709756e-05
8.73705165e-05
8.73617118e-05
8.73601469e-05
8.73498555e-05
8.73472541e-05
8.7336241e-05
8.73329613e-05
8.73212494e-05
8.73172975e-05
8.73049101e-05
8.73002927e-05
8.72872526e-05
8.72819773e-05
8.72683073e-05
8.7262382e-05
8.7248105e-05
8.7241538e-05
8.72266773e-05
8.72194771e-05
8.72040561e-05
8.71962315e-05
8.71802742e-05
8.71718342e-05
8.71553651e-05
8.71463185e-05
8.7129363e-05
8.71197185e-05
8.71023033e-05
8.70920693e-05
8.70742221e-05
8.70634062e-05
8.70451572e-05
8.70337661e-05
8.70151476e-05
8.70031867e-05
8.69842342e-05
8.69717073e-05
8.69524595e-05
8.69393684e-05
8.69198673e-05
8.69062123e-05
8.68865025e-05
8.68722827e-05
8.68524091e-05
8.68376225e-05
8.68176309e-05
8.68022735e-05
8.6782211e-05
8.67662817e-05
8.6746191e-05
8.67297176e-05
8.67100614e-05
8.66923829e-05
8.6672019e-05
8.66541594e-05
8.66333916e-05
8.66153051e-05
8.65944344e-05
8.65762242e-05
8.655514e-05
8.65365925e-05
8.65153545e-05
8.64964504e-05
8.64750975e-05
8.64558383e-05
8.64343945e-05
8.64147961e-05
8.63932748e-05
8.63733618e-05
8.63517698e-05
8.63315715e-05
8.63099122e-05
8.6289459e-05
8.62677348e-05
8.62470565e-05
8.62252699e-05
8.62043945e-05
8.61825491e-05
8.61615027e-05
8.61396036e-05
8.61184102e-05
8.60964636e-05
8.60751454e-05
8.6053159e-05
8.60317369e-05
8.60097192e-05
8.59882125e-05
8.59661731e-05
8.59446001e-05
8.59225518e-05
8.59009195e-05
8.58788341e-05
8.58571257e-05
8.58350068e-05
8.58132404e-05
8.57911013e-05
8.5769294e-05
8.57471483e-05
8.57253168e-05
8.57031781e-05
8.56813388e-05
8.56592206e-05
8.56373891e-05
8.5615305e-05
8.55934967e-05
8.55714601e-05
8.554969e-05
8.55277142e-05
8.55059968e-05
8.54840951e-05
8.54624446e-05
8.54406299e-05
8.54190601e-05
8.53973526e-05
8.53760451e-05
8.53546295e-05
8.53334628e-05
8.53122041e-05
8.52911884e-05
8.52700962e-05
8.52492416e-05
8.52283252e-05
8.52076416e-05
8.51869102e-05
8.51664073e-05
8.51458701e-05
8.51255575e-05
8.51052233e-05
8.50851103e-05
8.50649879e-05
8.50450837e-05
8.50251819e-05
8.50054955e-05
8.49858228e-05
8.49663631e-05
8.49469279e-05
8.49277037e-05
8.49085143e-05
8.48895342e-05
8.48705989e-05
8.48518716e-05
8.48331982e-05
8.48147324e-05
8.47963288e-05
8.47781333e-05
8.47600076e-05
8.4742127e-05
8.4724337e-05
8.47067382e-05
8.46892208e-05
8.46718854e-05
8.46546424e-05
8.46375744e-05
8.46206073e-05
8.460381e-05
8.45871206e-05
8.45705965e-05
8.45541863e-05
8.45379377e-05
8.45218081e-05
8.45058366e-05
8.44899889e-05
8.4474296e-05
8.44587311e-05
8.44433178e-05
8.44280366e-05
8.44129036e-05
8.43979068e-05
8.43830547e-05
8.43683424e-05
8.43537717e-05
8.43393438e-05
8.43250549e-05
8.43109111e-05
8.42969037e-05
8.42831332e-05
8.42694999e-05
8.425601e-05
8.4242644e-05
8.42294243e-05
8.42163264e-05
8.42033771e-05
8.41905477e-05
8.41778688e-05
8.41653081e-05
8.41528994e-05
8.41406072e-05
8.41284683e-05
8.41164442e-05
8.41045744e-05
8.40928177e-05
8.40812163e-05
8.40697262e-05
8.40583921e-05
8.40471674e-05
8.40360995e-05
8.4025139e-05
8.40143168e-05
8.4003531e-05
8.39929061e-05
8.39823899e-05
8.39720329e-05
8.39617839e-05
8.39516923e-05
8.39417078e-05
8.3931879e-05
8.39221561e-05
8.39125872e-05
8.39031232e-05
8.38938112e-05
8.38846031e-05
8.38755448e-05
8.38665896e-05
8.38577817e-05
8.38490763e-05
8.38405155e-05
8.38320565e-05
8.38237393e-05
8.38155234e-05
8.38074463e-05
8.379947e-05
8.37916293e-05
8.37838892e-05
8.37762811e-05
8.37687734e-05
8.37613944e-05
8.37541154e-05
8.37469614e-05
8.37399074e-05
8.37329746e-05
8.37261418e-05
8.37194263e-05
8.37128107e-05
8.37063084e-05
8.36999061e-05
8.3693613e-05
8.368742e-05
8.36813321e-05
8.36753443e-05
8.36694576e-05
8.36636709e-05
8.36579811e-05
8.36523915e-05
8.36468946e-05
8.36414978e-05
8.36361896e-05
8.36309815e-05
8.36258579e-05
8.36208343e-05
8.36158911e-05
8.36110478e-05
8.36062809e-05
8.36016137e-05
8.35970188e-05
8.35925234e-05
8.35880965e-05
8.35837687e-05
8.35795057e-05
8.35753412e-05
8.35712379e-05
8.35672326e-05
8.35632848e-05
8.35594344e-05
8.35556381e-05
8.35519384e-05
8.35482896e-05
8.35447365e-05
8.35412311e-05
8.35378203e-05
8.35344543e-05
8.35311818e-05
8.35279512e-05
8.35248128e-05
8.35217138e-05
8.35187055e-05
8.35157342e-05
8.35128519e-05
8.35100043e-05
8.35072442e-05
8.35045166e-05
8.35018746e-05
8.34992633e-05
8.34967356e-05
8.34942368e-05
8.34918196e-05
8.34894298e-05
8.34871193e-05
8.34848349e-05
8.34826274e-05
8.34804448e-05
8.34783367e-05
8.34762526e-05
8.34742404e-05
8.34722512e-05
8.34703314e-05
8.34684339e-05
8.3466603e-05
8.3464794e-05
8.34630487e-05
8.3461325e-05
8.3459662e-05
8.34580204e-05
8.34564367e-05
8.34548741e-05
8.34533665e-05
8.345188e-05
8.34504455e-05
8.34490322e-05
8.34476678e-05
8.34463248e-05
8.34450277e-05
8.34437523e-05
8.34425197e-05
8.34413092e-05
8.34401384e-05
8.34389901e-05
8.34378786e-05
8.34367899e-05
8.34357351e-05
8.34347035e-05
8.3433703e-05
8.34327262e-05
8.34317776e-05
8.34308531e-05
8.34299542e-05
8.34290797e-05
8.34282282e-05
8.34274016e-05
8.34265954e-05
8.34258145e-05
8.34250515e-05
8.34243141e-05
8.34235925e-05
8.34228967e-05
8.34222144e-05
8.34215582e-05
8.34209134e-05
8.34202949e-05
8.3419686e-05
8.34191033e-05
8.34185285e-05
8.34179798e-05
8.34174375e-05
8.34169212e-05
8.34164099e-05
8.34159242e-05
8.34154424e-05
8.34149858e-05
8.34145321e-05
8.3414103e-05
8.3413676e-05
8.3413273e-05
8.34128713e-05
8.3412493e-05
8.34121154e-05
8.34117603e-05
8.34114058e-05
8.34110726e-05
8.34107399e-05
8.34104275e-05
8.34101154e-05
8.34098225e-05
8.34095301e-05
8.34092556e-05
8.34089819e-05
8.34087246e-05
8.34084686e-05
8.34082276e-05
8.34079883e-05
8.34077626e-05
8.34075392e-05
8.34073278e-05
8.34071195e-05
8.34069215e-05
8.34067274e-05
8.34065421e-05
8.34063613e-05
8.34061812e-05
8.34059951e-05
8.34058031e-05
8.34056075e-05
8.34054052e-05
8.34052028e-05
8.34049922e-05
8.34047865e-05
8.34045705e-05
8.34043658e-05
8.34041481e-05
8.34039497e-05
8.34037346e-05
8.34035482e-05
8.34033409e-05
8.34031724e-05
8.34029783e-05
8.34028331e-05
8.34026577e-05
8.34025397e-05
8.34023892e-05
8.34022971e-05
8.3402182e-05
8.34021013e-05
8.34020396e-05
8.34019787e-05
8.3401946e-05
8.34019062e-05
8.34018851e-05
8.34018738e-05
8.34018711e-05
8.34018738e-05
8.34018799e-05
8.34017815e-05
8.34017127e-05
8.34016716e-05
8.34016479e-05
8.34016352e-05
8.34016287e-05
8.34016257e-05
8.34016245e-05
8.3401624e-05
8.34016237e-05
8.34016236e-05
8.34016236e-05
8.34016236e-05
8.34016236e-05
8.34016236e-05
8.34016236e-05
8.34016236e-05
8.34016236e-05
8.34016236e-05
8.34016236e-05
8.34016236e-05
8.34016236e-05
8.34016236e-05
8.34016236e-05
8.34016236e-05
8.34016236e-05
8.34016236e-05
8.34016236e-05
8.34016236e-05
8.34016236e-05
8.34016236e-05
8.34016236e-05
8.34016236e-05
8.34016236e-05
8.34016236e-05
8.34016236e-05
8.34016236e-05
8.34016236e-05
8.34016236e-05
8.34016236e-05
8.34016236e-05
8.34016236e-05
8.34016236e-05
8.34016236e-05
)
;

boundaryField
{
    closed
    {
        type            calculated;
        value           nonuniform List<scalar> 0();
    }
    open
    {
        type            calculated;
        value           uniform 8.34016236e-05;
    }
    sides
    {
        type            empty;
    }
    procBoundary5to4
    {
        type            processor;
        value           uniform 8.61788068e-05;
    }
}


// ************************************************************************* //
