/*--------------------------------*- C++ -*----------------------------------*\
| =========                 |                                                 |
| \\      /  F ield         | OpenFOAM: The Open Source CFD Toolbox           |
|  \\    /   O peration     | Version:  2306                                  |
|   \\  /    A nd           | Website:  www.openfoam.com                      |
|    \\/     M anipulation  |                                                 |
\*---------------------------------------------------------------------------*/
FoamFile
{
    version     2.0;
    format      ascii;
    arch        "LSB;label=32;scalar=64";
    class       surfaceScalarField;
    location    "0.00074";
    object      phi;
}
// * * * * * * * * * * * * * * * * * * * * * * * * * * * * * * * * * * * * * //

dimensions      [1 0 -1 0 0 0 0];

oriented        oriented;

internalField   nonuniform List<scalar> 
529
(
2.16778105e-06
2.16283488e-06
2.15796664e-06
2.15318059e-06
2.14850185e-06
2.14391773e-06
2.13945072e-06
2.13508903e-06
2.13084031e-06
2.12670417e-06
2.12269846e-06
2.11881029e-06
2.11505397e-06
2.11139669e-06
2.10786612e-06
2.10445435e-06
2.10116217e-06
2.09798381e-06
2.09491801e-06
2.09195857e-06
2.08910769e-06
2.0863551e-06
2.08372124e-06
2.08119327e-06
2.07871624e-06
2.07632943e-06
2.07399172e-06
2.07171082e-06
2.06948492e-06
2.06734207e-06
2.06522988e-06
2.06317825e-06
2.0611439e-06
2.0591567e-06
2.05717669e-06
2.05523256e-06
2.05328748e-06
2.05136836e-06
2.04944081e-06
2.04752963e-06
2.04560323e-06
2.043684e-06
2.04174457e-06
2.03980404e-06
2.03784133e-06
2.0358706e-06
2.03387892e-06
2.03187447e-06
2.02983863e-06
2.02778704e-06
2.02572222e-06
2.02364396e-06
2.02155566e-06
2.01945897e-06
2.01735362e-06
2.01524595e-06
2.01313677e-06
2.01103244e-06
2.00893206e-06
2.00684538e-06
2.00476828e-06
2.00271445e-06
2.00068076e-06
1.99867987e-06
1.99670209e-06
1.99476524e-06
1.99285911e-06
1.99100084e-06
1.98918064e-06
1.98741402e-06
1.98569195e-06
1.98402786e-06
1.98241347e-06
1.98086004e-06
1.97935994e-06
1.97792218e-06
1.97653971e-06
1.97521941e-06
1.97394229e-06
1.97272517e-06
1.97156155e-06
1.97045492e-06
1.96939831e-06
1.96839428e-06
1.96743551e-06
1.96652369e-06
1.96565127e-06
1.96481926e-06
1.96401993e-06
1.96325386e-06
1.96251318e-06
1.96179836e-06
1.96110139e-06
1.96042287e-06
1.95975477e-06
1.95909804e-06
1.9584447e-06
1.95779626e-06
1.95714481e-06
1.95649271e-06
1.95583207e-06
1.95516634e-06
1.95448761e-06
1.9538007e-06
1.95309753e-06
1.9523846e-06
1.95165343e-06
1.95091257e-06
1.95015287e-06
1.94938524e-06
1.9485996e-06
1.94780947e-06
1.94700363e-06
1.94619827e-06
1.94538106e-06
1.94457059e-06
1.94375362e-06
1.94295064e-06
1.94214779e-06
1.94136757e-06
1.94059567e-06
1.93985811e-06
1.93914159e-06
1.93847202e-06
1.9378358e-06
1.93736237e-06
1.93666316e-06
1.93631072e-06
1.93590974e-06
1.93560802e-06
1.93538731e-06
1.93529165e-06
1.93531404e-06
1.93548384e-06
1.93577853e-06
1.93623952e-06
1.93685728e-06
1.93766391e-06
1.93866131e-06
1.93987453e-06
1.94131418e-06
1.94300042e-06
1.94495028e-06
1.94718096e-06
1.94971396e-06
1.95256519e-06
1.95575892e-06
1.95931099e-06
1.96324713e-06
1.96758376e-06
1.9723471e-06
1.97755427e-06
1.9832312e-06
1.98939548e-06
1.99607204e-06
2.00327836e-06
2.01103769e-06
2.01936656e-06
2.02828574e-06
2.03780987e-06
2.04795635e-06
2.05873679e-06
2.07016422e-06
2.08224604e-06
2.09498982e-06
2.10840221e-06
2.12248057e-06
2.13722019e-06
2.15261439e-06
2.16865058e-06
2.18531331e-06
2.20258113e-06
2.22042892e-06
2.23882549e-06
2.2577354e-06
2.2771171e-06
2.29692444e-06
2.31710525e-06
2.3376026e-06
2.35835379e-06
2.37929144e-06
2.40034282e-06
2.42143082e-06
2.44247357e-06
2.46338541e-06
2.48407663e-06
2.50445455e-06
2.52442336e-06
2.54388523e-06
2.56277717e-06
2.5809609e-06
2.5983348e-06
2.61479761e-06
2.63024852e-06
2.6445884e-06
2.65771995e-06
2.66954882e-06
2.67998394e-06
2.68893842e-06
2.69633005e-06
2.70208197e-06
2.70612326e-06
2.70838951e-06
2.7088233e-06
2.70737471e-06
2.70400174e-06
2.69867068e-06
2.69135646e-06
2.68204283e-06
2.67072271e-06
2.65739813e-06
2.64208054e-06
2.62479058e-06
2.6055582e-06
2.58442244e-06
2.56143126e-06
2.53664135e-06
2.51011761e-06
2.4819332e-06
2.45216846e-06
2.42091109e-06
2.38825584e-06
2.35430179e-06
2.31915473e-06
2.28292437e-06
2.2457244e-06
2.2076723e-06
2.16888757e-06
2.1294919e-06
2.08960782e-06
2.04935835e-06
2.00886607e-06
1.96825252e-06
1.92763752e-06
1.88713843e-06
1.84686974e-06
1.80694219e-06
1.76746265e-06
1.7285332e-06
1.69025113e-06
1.6527082e-06
1.61599063e-06
1.58017861e-06
1.54534624e-06
1.5115614e-06
1.47888546e-06
1.44737367e-06
1.41707454e-06
1.3880308e-06
1.36027841e-06
1.33384805e-06
1.30876416e-06
1.28504595e-06
1.26270682e-06
1.2417558e-06
1.22219682e-06
1.20402989e-06
1.18725087e-06
1.17185219e-06
1.15782305e-06
1.14514982e-06
1.1338165e-06
1.12380489e-06
1.11509518e-06
1.10766603e-06
1.10149515e-06
1.0965593e-06
1.09283486e-06
1.0902978e-06
1.08892417e-06
1.08869e-06
1.08957173e-06
1.09154611e-06
1.09460818e-06
1.09871791e-06
1.10385383e-06
1.109995e-06
1.11712114e-06
1.12521237e-06
1.13424932e-06
1.1442128e-06
1.15508386e-06
1.16684346e-06
1.17947237e-06
1.19295093e-06
1.20725882e-06
1.22237485e-06
1.23827665e-06
1.25494055e-06
1.27234112e-06
1.29045115e-06
1.3092412e-06
1.32867952e-06
1.3487317e-06
1.36936058e-06
1.39052593e-06
1.41218446e-06
1.4342895e-06
1.45679106e-06
1.47963561e-06
1.50276624e-06
1.52612243e-06
1.54964032e-06
1.57325261e-06
1.59688887e-06
1.62047551e-06
1.6439362e-06
1.66719194e-06
1.69016154e-06
1.71276175e-06
1.73490788e-06
1.75651393e-06
1.7774933e-06
1.79775904e-06
1.81722452e-06
1.83580379e-06
1.85341225e-06
1.86996708e-06
1.8853879e-06
1.89959721e-06
1.91252107e-06
1.92408951e-06
1.93423721e-06
1.94290388e-06
1.95003488e-06
1.95558154e-06
1.95950178e-06
1.96176034e-06
1.96232928e-06
1.96118818e-06
1.95832452e-06
1.9537338e-06
1.94741982e-06
1.93939469e-06
1.92967896e-06
1.91830159e-06
1.90529991e-06
1.89071949e-06
1.874614e-06
1.85704492e-06
1.83808133e-06
1.81779952e-06
1.79628261e-06
1.77362014e-06
1.74990754e-06
1.72524566e-06
1.69974013e-06
1.67350087e-06
1.64664135e-06
1.61927807e-06
1.59152975e-06
1.5635168e-06
1.5353605e-06
1.50718244e-06
1.47910371e-06
1.45124433e-06
1.42372252e-06
1.3966541e-06
1.37015183e-06
1.34432489e-06
1.31927821e-06
1.29511209e-06
1.27192158e-06
1.24979614e-06
1.22881919e-06
1.20906781e-06
1.19061236e-06
1.17351637e-06
1.15783617e-06
1.14362091e-06
1.13091229e-06
1.11974471e-06
1.11014507e-06
1.10213298e-06
1.09572071e-06
1.09091348e-06
1.08770944e-06
1.08610008e-06
1.08607027e-06
1.08759873e-06
1.09065813e-06
1.09521559e-06
1.10123286e-06
1.10866683e-06
1.11746974e-06
1.12758968e-06
1.13897088e-06
1.15155418e-06
1.16527733e-06
1.18007542e-06
1.19588121e-06
1.21262554e-06
1.23023764e-06
1.24864548e-06
1.26777607e-06
1.28755583e-06
1.30791078e-06
1.3287669e-06
1.3500503e-06
1.37168751e-06
1.39360565e-06
1.41573263e-06
1.43799731e-06
1.46032967e-06
1.48266092e-06
1.50492361e-06
1.52705173e-06
1.54898082e-06
1.57064795e-06
1.59199189e-06
1.61295305e-06
1.63347355e-06
1.65349725e-06
1.67296974e-06
1.69183837e-06
1.71005224e-06
1.7275622e-06
1.74432086e-06
1.76028258e-06
1.77540346e-06
1.7896414e-06
1.802956e-06
1.81530871e-06
1.82666269e-06
1.83698299e-06
1.84623643e-06
1.85439177e-06
1.86141964e-06
1.86729265e-06
1.87198544e-06
1.87547473e-06
1.87773938e-06
1.8787605e-06
1.87852147e-06
1.87700811e-06
1.87420868e-06
1.87011402e-06
1.86471763e-06
1.85801577e-06
1.85000752e-06
1.84069494e-06
1.83008304e-06
1.81818001e-06
1.80499714e-06
1.79054901e-06
1.77485348e-06
1.75793176e-06
1.73980844e-06
1.72051153e-06
1.70007243e-06
1.67852598e-06
1.65591035e-06
1.63221621e-06
1.60573963e-06
1.57618723e-06
1.54325164e-06
1.50661816e-06
1.46597424e-06
1.42102364e-06
1.37150558e-06
1.31722124e-06
1.25806769e-06
1.19408165e-06
1.12549323e-06
1.05278979e-06
9.76787713e-07
8.98709209e-07
8.20253714e-07
7.43651971e-07
6.71682545e-07
6.07625323e-07
5.55118897e-07
5.1789518e-07
4.99370322e-07
5.02104634e-07
5.27175925e-07
5.73549828e-07
6.37588688e-07
7.12877887e-07
7.90634275e-07
8.61083069e-07
9.15510529e-07
9.48905966e-07
9.62826945e-07
9.6837943e-07
9.88054967e-07
1.05207899e-06
1.18953889e-06
1.41620876e-06
1.72166655e-06
2.06071774e-06
2.3818619e-06
2.70622178e-06
3.14888779e-06
3.82450533e-06
4.78355383e-06
5.73078352e-06
6.13170912e-06
5.9198876e-06
5.79903383e-06
6.11463059e-06
6.4832062e-06
6.32894401e-06
5.71126985e-06
5.05625167e-06
4.60283542e-06
4.39473346e-06
4.01726242e-06
3.29828258e-06
2.59738093e-06
2.3330998e-06
2.41432249e-06
2.49232668e-06
2.68119951e-06
3.25507448e-06
4.21158252e-06
5.23831288e-06
5.57639442e-06
5.01091751e-06
3.75647165e-06
2.20485087e-06
1.5736933e-06
2.89264415e-06
4.77182894e-06
4.67177812e-06
3.39367191e-06
3.41891439e-06
4.09589183e-06
4.07130948e-06
)
;

boundaryField
{
    closed
    {
        type            calculated;
        value           nonuniform List<scalar> 0();
    }
    open
    {
        type            calculated;
        value           uniform 3.88469741e-06;
    }
    sides
    {
        type            empty;
        value           nonuniform List<scalar> 0();
    }
    procBoundary5to4
    {
        type            processor;
        value           uniform -2.17279854e-06;
    }
}


// ************************************************************************* //
