/*--------------------------------*- C++ -*----------------------------------*\
| =========                 |                                                 |
| \\      /  F ield         | OpenFOAM: The Open Source CFD Toolbox           |
|  \\    /   O peration     | Version:  2306                                  |
|   \\  /    A nd           | Website:  www.openfoam.com                      |
|    \\/     M anipulation  |                                                 |
\*---------------------------------------------------------------------------*/
FoamFile
{
    version     2.0;
    format      ascii;
    arch        "LSB;label=32;scalar=64";
    class       volScalarField;
    location    "0.00034";
    object      H;
}
// * * * * * * * * * * * * * * * * * * * * * * * * * * * * * * * * * * * * * //

dimensions      [0 0 0 0 0 0 0];

internalField   nonuniform List<scalar> 
530
(
4.29600336e-08
4.40411518e-10
9.34347666e-10
3.90795277e-08
4.28197339e-08
4.9773726e-10
9.22277366e-10
3.57345177e-08
4.55007718e-08
1.91566242e-08
1.02127715e-09
1.58388748e-08
4.46292336e-08
3.7298303e-08
9.89040394e-10
1.0216434e-09
3.82871135e-08
4.29638777e-08
7.96995283e-10
8.47786509e-10
3.49181783e-08
3.44676534e-08
2.56974228e-08
3.11962653e-08
2.93540448e-08
9.310957e-10
2.2854042e-09
4.43493195e-08
4.11405956e-08
9.55058637e-10
9.74018617e-10
3.60474712e-08
4.42931363e-08
1.39941222e-08
1.08815752e-09
1.55918288e-08
4.32194447e-08
3.19880996e-08
9.45869803e-10
7.81250407e-09
4.61013269e-08
4.20243345e-08
2.3747218e-09
1.13669818e-09
1.89520756e-08
4.3634621e-08
3.53732178e-08
9.63347068e-10
9.34097198e-10
3.99305805e-08
4.60943817e-08
2.47463769e-08
1.09076319e-09
8.31608836e-10
4.28081738e-08
4.41019048e-08
1.10937714e-08
1.06524901e-09
1.79175668e-08
4.62661577e-08
4.05062234e-08
6.89302359e-09
1.12091459e-09
1.83287561e-08
4.38308974e-08
2.86182115e-08
8.80030509e-10
1.66931029e-08
4.48767353e-08
2.90722791e-08
9.8579067e-10
1.06182097e-08
4.34221808e-08
3.22120962e-08
9.4281905e-10
5.90292835e-09
4.56251041e-08
4.30997688e-08
1.05292469e-08
1.09813981e-09
1.56375611e-08
4.30354025e-08
3.01281526e-08
9.58615627e-10
9.80319327e-09
4.53017237e-08
3.95845807e-08
5.25016656e-10
9.25929147e-10
2.9866953e-08
4.5819127e-08
2.23085976e-08
1.07533216e-09
1.24462586e-08
4.24475203e-08
3.03796478e-08
9.94518654e-10
9.48148749e-09
4.35122706e-08
3.87830543e-08
4.87974722e-09
1.08277832e-09
1.92506136e-08
4.10195736e-08
3.97894086e-08
3.24069153e-08
1.7405294e-08
1.19937458e-09
1.03286758e-08
4.13047779e-08
3.31867798e-08
9.55025335e-10
5.30838178e-10
4.46674175e-08
4.45557156e-08
1.76434475e-08
1.09871027e-09
1.10899988e-08
4.08937761e-08
3.00956661e-08
1.02033045e-09
7.49573493e-09
4.58313549e-08
4.41878099e-08
1.75432385e-08
1.08498597e-09
1.09962675e-08
4.21776129e-08
3.09119001e-08
9.09056591e-10
1.06243292e-08
4.28127569e-08
3.14212998e-08
8.95554008e-10
1.13173753e-08
4.36113871e-08
3.1560414e-08
8.77586783e-10
1.07801505e-08
4.25387977e-08
3.11010107e-08
1.01794699e-09
3.45853481e-09
4.53877594e-08
4.43852029e-08
2.09910404e-08
1.09997012e-09
9.26913886e-09
4.24936208e-08
3.25586142e-08
8.55067177e-10
9.44625409e-09
4.28996673e-08
3.2637844e-08
9.98233077e-10
1.21565677e-08
4.59511556e-08
3.06921012e-08
1.02301622e-09
1.10632831e-08
4.61798781e-08
3.20603898e-08
1.11645528e-09
6.09623751e-09
4.17547329e-08
3.3787153e-08
1.04763974e-09
6.28643554e-10
4.01415543e-08
4.49023127e-08
2.68412459e-08
1.26360012e-09
6.82426651e-10
4.13373675e-08
4.49014944e-08
2.77789848e-08
1.23671644e-09
1.92706374e-09
4.02437963e-08
3.66961679e-08
9.6629983e-10
7.76314046e-10
3.64098101e-08
4.6862087e-08
3.13404434e-08
1.20841146e-09
6.07773077e-10
4.09012581e-08
3.80957411e-08
9.60568783e-10
8.56385155e-10
3.58441316e-08
4.71402679e-08
3.32230851e-08
1.22354284e-09
8.80022171e-10
4.06761337e-08
4.11861957e-08
8.09875194e-10
9.42115395e-10
4.13646191e-08
4.33673889e-08
6.73108156e-10
9.67737483e-10
3.99319127e-08
4.35014001e-08
5.56239276e-10
1.0109696e-09
3.18538843e-08
4.74970853e-08
3.72524021e-08
1.21498089e-09
1.15897186e-09
3.76373127e-08
4.22352347e-08
8.59775746e-10
1.11180673e-09
3.22474053e-08
4.67970131e-08
3.9101915e-08
1.2777966e-09
1.25694583e-09
3.5619096e-08
4.21223379e-08
1.0191294e-09
1.28003403e-09
3.41834117e-08
3.68405117e-08
2.47074256e-08
3.29736988e-08
3.60589163e-08
6.47958244e-10
1.3206553e-09
2.99125825e-08
4.23893663e-08
1.54684655e-08
1.16818037e-09
2.27089792e-08
4.73370357e-08
4.36991784e-08
1.13083349e-09
1.27381918e-09
2.89346824e-08
4.35215734e-08
1.66480855e-08
1.17208549e-09
2.49319495e-08
4.49438815e-08
1.89189701e-08
1.13199393e-09
2.42347059e-08
4.48796612e-08
2.12659049e-08
1.08684586e-09
1.75152292e-08
4.58274513e-08
2.68611612e-08
7.37275144e-10
3.53530629e-08
4.55813851e-08
7.78788115e-10
1.1946624e-09
2.68619942e-08
4.27630288e-08
2.3193414e-08
1.05723584e-09
1.64856595e-08
4.70048993e-08
4.61343197e-08
9.57144657e-10
1.24326929e-09
2.47414302e-08
4.27729648e-08
2.4663294e-08
1.03551529e-09
1.46243629e-08
4.68510152e-08
4.69761111e-08
9.28676631e-10
1.22368737e-09
2.45292302e-08
4.38051884e-08
2.64160817e-08
1.0311236e-09
1.68949469e-08
4.41408232e-08
2.68340601e-08
1.01098881e-09
1.67204968e-08
4.4292844e-08
2.75782754e-08
9.96907984e-10
1.60565071e-08
4.41547218e-08
2.82779866e-08
9.92029545e-10
1.51474867e-08
4.34618748e-08
2.74201333e-08
1.00434216e-09
1.39244554e-08
4.30631722e-08
3.6424936e-08
9.90981771e-10
1.12682996e-09
3.15014914e-08
3.91470327e-08
3.67926844e-08
2.92189909e-08
1.02897502e-09
1.08528521e-09
4.03607064e-08
4.73635547e-08
7.65596413e-09
1.11106637e-09
1.97398355e-08
4.31947019e-08
3.22216115e-08
9.1942569e-10
8.19445806e-09
4.23958598e-08
3.30836672e-08
9.08230479e-10
7.42484041e-09
4.18771747e-08
3.25493656e-08
8.60999117e-10
5.98939086e-09
4.44032104e-08
4.41313121e-08
6.73208292e-10
8.92735877e-10
3.86998768e-08
4.12299519e-08
5.10973474e-10
7.92728941e-10
4.17694593e-08
4.78102561e-08
8.60842346e-09
1.11401813e-09
1.54090933e-08
4.11184235e-08
3.54478972e-08
8.50608499e-10
5.87054296e-10
3.94407062e-08
4.59836147e-08
2.4554952e-08
9.99490234e-10
4.66589698e-09
3.91477256e-08
3.55044422e-08
8.57668069e-10
5.98340279e-10
3.86057529e-08
4.59770551e-08
2.62817454e-08
9.62694729e-10
3.3170653e-09
3.87457191e-08
3.67378017e-08
8.35418633e-10
8.19026487e-10
3.5826359e-08
4.49223341e-08
2.90108377e-08
9.15726433e-10
7.18557814e-10
3.57277512e-08
4.40081309e-08
2.72803046e-08
9.33126957e-10
1.09692312e-09
3.67871104e-08
4.42385159e-08
2.73390038e-08
9.30178501e-10
1.16313248e-09
3.78745263e-08
3.67125871e-08
7.7682063e-10
7.02829954e-10
3.73752846e-08
4.55715184e-08
2.92394372e-08
8.65838701e-10
5.32091385e-10
3.76740291e-08
3.71947833e-08
6.63026524e-10
7.48310588e-10
3.55032134e-08
4.48890933e-08
2.72017611e-08
8.86549588e-10
5.7354816e-10
3.59613384e-08
4.35871993e-08
2.54781216e-08
9.40405088e-10
5.63707501e-10
3.48472417e-08
4.33926562e-08
3.18985076e-08
7.95944875e-10
8.79737418e-10
3.36615446e-08
4.42063327e-08
3.1943456e-08
7.7388095e-10
7.57433453e-10
3.51291343e-08
3.70169086e-08
8.90905142e-10
7.41461645e-10
3.41054604e-08
4.54857846e-08
3.3456307e-08
6.92185e-10
7.99628918e-10
3.59664605e-08
3.85710948e-08
1.87459657e-09
5.80743154e-10
3.6665587e-08
4.03677013e-08
3.18892566e-09
1.02732832e-09
2.91521693e-08
4.49764598e-08
3.72614202e-08
6.08561243e-10
1.10755686e-09
2.79677624e-08
4.43708634e-08
3.71061779e-08
6.08183464e-10
8.59262604e-10
3.49637323e-08
3.97783027e-08
3.80962307e-09
9.12074799e-10
3.13530537e-08
4.51225509e-08
3.24311902e-08
7.05727215e-10
7.97626635e-10
3.67089564e-08
4.24518524e-08
4.4342473e-09
7.76714092e-10
3.49312202e-08
4.09373689e-08
3.90155546e-09
1.07294391e-09
2.88430276e-08
4.53674703e-08
3.95998922e-08
6.4058599e-10
1.02519144e-09
3.36704696e-08
3.98451693e-08
3.57591507e-09
1.09441947e-09
3.04136053e-08
4.56707711e-08
3.93974022e-08
7.11639175e-10
1.08974872e-09
3.3786341e-08
3.9551311e-08
1.96461248e-09
1.12629213e-09
3.18581084e-08
4.57862785e-08
3.97885888e-08
7.7822232e-10
1.12442607e-09
3.4947094e-08
4.00312892e-08
4.90039015e-10
1.16121747e-09
3.23488688e-08
4.55147859e-08
4.0264551e-08
8.3349634e-10
1.1321374e-09
3.63920902e-08
4.18179825e-08
5.44348205e-10
1.05727743e-09
3.97810096e-08
4.46436673e-08
5.58639059e-10
1.03799536e-09
4.10582236e-08
4.36609328e-08
7.27956886e-10
1.15370492e-09
3.57738538e-08
4.47551857e-08
3.84331354e-08
1.06028982e-09
1.23003087e-09
3.67781721e-08
3.87893032e-08
1.05213878e-09
1.25132578e-09
3.62214523e-08
4.48149107e-08
3.52461331e-08
1.20460762e-09
1.26982916e-09
3.51636135e-08
4.45021412e-08
3.62457288e-08
1.19739877e-09
1.18045211e-09
3.88778161e-08
3.7540451e-08
1.27513427e-09
1.13644236e-09
3.8991887e-08
4.74826252e-08
3.76625539e-08
1.19050863e-09
9.44168168e-10
4.06403098e-08
3.85326877e-08
1.19148081e-09
)
;

boundaryField
{
    closed
    {
        type            calculated;
        value           nonuniform List<scalar> 0();
    }
    open
    {
        type            calculated;
        value           nonuniform List<scalar> 0();
    }
    sides
    {
        type            empty;
    }
    procBoundary2to1
    {
        type            processor;
        value           uniform 3.93438865e-08;
    }
    procBoundary2to3
    {
        type            processor;
        value           uniform 7.63742528e-10;
    }
}


// ************************************************************************* //
