/*--------------------------------*- C++ -*----------------------------------*\
| =========                 |                                                 |
| \\      /  F ield         | OpenFOAM: The Open Source CFD Toolbox           |
|  \\    /   O peration     | Version:  2306                                  |
|   \\  /    A nd           | Website:  www.openfoam.com                      |
|    \\/     M anipulation  |                                                 |
\*---------------------------------------------------------------------------*/
FoamFile
{
    version     2.0;
    format      ascii;
    arch        "LSB;label=32;scalar=64";
    class       volScalarField;
    location    "0.00034";
    object      sourcePV;
}
// * * * * * * * * * * * * * * * * * * * * * * * * * * * * * * * * * * * * * //

dimensions      [1 -3 -1 0 0 0 0];

internalField   nonuniform List<scalar> 
530
(
0.152434544
0.00236978259
0.00447535582
0.140064672
0.151966683
0.00260425764
0.00443846916
0.129660855
0.160460986
0.0703919467
0.00490273364
0.0583756632
0.157695765
0.134609352
0.00471273089
0.00484221141
0.137668278
0.152414976
0.00385803022
0.00407635438
0.127005653
0.125390065
0.0939941027
0.113710149
0.10711337
0.00444733405
0.00907791231
0.156787574
0.146615243
0.00455942093
0.00464834372
0.130728262
0.156697376
0.0516859675
0.0051804813
0.057472416
0.153261191
0.116542214
0.00453171048
0.0292156047
0.162362792
0.149581101
0.00946939279
0.00539587154
0.069664107
0.154575475
0.128504806
0.00459606914
0.00445522966
0.142954174
0.162351176
0.0905710611
0.00519708255
0.0039927321
0.152007807
0.156033899
0.0412073422
0.00510158563
0.0658979647
0.16293225
0.144830286
0.0259488529
0.00532707262
0.067383085
0.155181696
0.104460404
0.00424771832
0.0614502365
0.158450876
0.106094277
0.00473086625
0.0394238541
0.153845118
0.11734323
0.00452438627
0.0222787826
0.160885725
0.152931084
0.0391848004
0.0052385602
0.0576264488
0.152687654
0.109881019
0.00459291804
0.0364641552
0.159763079
0.141790567
0.00275905893
0.00447039252
0.108934207
0.16158059
0.0817589456
0.00511725688
0.0460385133
0.150849878
0.110783131
0.00473980893
0.0352891312
0.154144765
0.139296604
0.0186662558
0.00517708571
0.0706796927
0.146373763
0.142509064
0.118039856
0.0641108376
0.00564751109
0.0383825738
0.147258072
0.120827167
0.00455135868
0.00276119672
0.15786923
0.157515924
0.0649650056
0.00523991184
0.0411030949
0.14596531
0.109765861
0.00484399771
0.0280668306
0.1616039
0.156386588
0.0646190126
0.00519339617
0.040761854
0.149996152
0.112687844
0.0043718936
0.0394429564
0.151947136
0.114512343
0.0043199917
0.0419615892
0.154470461
0.11501049
0.00424763714
0.040023089
0.151084827
0.113366673
0.00484579278
0.0134331718
0.1601359
0.156980778
0.0770653442
0.00526977415
0.0345240496
0.150977776
0.118583831
0.00414795847
0.0352007521
0.152229947
0.118867222
0.00478955415
0.0449783964
0.161997176
0.111903984
0.00493719768
0.0410076821
0.162768995
0.116800875
0.0052958264
0.023032633
0.148674155
0.122977646
0.00494133768
0.00325832702
0.143558035
0.158695032
0.0980914294
0.00593147746
0.00345794311
0.147446538
0.158737566
0.101455583
0.00582762016
0.00787740833
0.143905434
0.13289137
0.0045758603
0.00388289871
0.131800821
0.164912091
0.114222684
0.00569887998
0.00315905852
0.1459369
0.137291798
0.0045535464
0.00422593199
0.129985327
0.165790813
0.120961421
0.00575986637
0.00431017392
0.14519946
0.147067378
0.00391741841
0.00457169176
0.147258683
0.153919423
0.00334581242
0.00469068936
0.142725723
0.154295877
0.00284686152
0.00489071326
0.116061954
0.166926027
0.134642918
0.00571759459
0.00549808879
0.135579127
0.1503587
0.00408197393
0.00530114446
0.117469157
0.164731244
0.140461831
0.00598439549
0.00590253214
0.129251841
0.150081278
0.00474544551
0.0059999445
0.124388119
0.133197783
0.0904193266
0.120061721
0.130840966
0.00317287196
0.00618733944
0.109114586
0.150814728
0.0570182931
0.00553303891
0.0832217275
0.166466656
0.154982312
0.00530084423
0.00598320925
0.105601823
0.154413167
0.0612704369
0.00553694216
0.0912106298
0.158886832
0.0694803732
0.00537021295
0.0886965053
0.158635276
0.0779755555
0.00521303958
0.0644606625
0.161505968
0.0981659517
0.00361035463
0.128562059
0.160723953
0.00373249585
0.00568307017
0.0981695344
0.151890482
0.0849510011
0.00507314533
0.0607499389
0.165374037
0.162644259
0.00454602917
0.00586288437
0.0905410187
0.151963515
0.0902458066
0.00497855359
0.0540150323
0.164877551
0.165289934
0.00442709688
0.00577718196
0.0897746837
0.155253456
0.0965445657
0.00494256902
0.0621952759
0.156284695
0.098043747
0.0048605592
0.0615606449
0.156763396
0.100719149
0.00479726844
0.0591554197
0.156333188
0.103233863
0.0047739275
0.0558646932
0.154149668
0.100153458
0.00482557301
0.0514568976
0.152886731
0.1318616
0.00476391851
0.00527394899
0.114800179
0.140396231
0.132981736
0.10663268
0.00495750198
0.00511842013
0.144380581
0.166475408
0.0285483123
0.00530465357
0.0725238846
0.153267987
0.117377791
0.00445583878
0.0306183395
0.150762709
0.120461697
0.00440852804
0.0278261525
0.149088517
0.118550016
0.00422575125
0.0226548763
0.157034556
0.156096658
0.00340442837
0.00429090313
0.138967387
0.14683528
0.00274832234
0.00389524264
0.148701528
0.167820742
0.0320405034
0.00532295153
0.0568888747
0.146660564
0.128673062
0.00416038811
0.00301446935
0.141512009
0.16203386
0.0898519803
0.00482006785
0.0178193339
0.140468018
0.128820764
0.00418188928
0.00305896179
0.138910892
0.162023749
0.0960653198
0.00465472424
0.0129001905
0.139204867
0.132700341
0.00408449582
0.00397571242
0.130150689
0.158639348
0.105877049
0.00446441785
0.00357204052
0.129795756
0.15572156
0.0996648059
0.00453741605
0.00484457571
0.133162685
0.156496375
0.0998690341
0.00451652139
0.00504583712
0.136462852
0.132600398
0.00383008524
0.00349446676
0.135050821
0.160728285
0.1066925
0.00423991644
0.00277441989
0.135816333
0.134123479
0.00335920144
0.00368231939
0.129113683
0.158543329
0.0993781118
0.00434229258
0.00297769478
0.130535522
0.15441641
0.0931812862
0.00456820384
0.00294266205
0.126768934
0.153773814
0.116221675
0.00394871195
0.00424180753
0.122530798
0.156368577
0.116382469
0.00385670281
0.00371007808
0.127769374
0.133545727
0.00408665165
0.00366105571
0.124119194
0.160412833
0.121792509
0.00350930331
0.0038832462
0.130460181
0.138480129
0.00765743991
0.00297343037
0.132686678
0.144193492
0.0124337732
0.0048702116
0.10637658
0.158818244
0.134467824
0.00315911931
0.00522599902
0.102128817
0.156892624
0.133946882
0.00315607734
0.00414613504
0.127177014
0.142283014
0.0147023955
0.00439021324
0.114267044
0.159246262
0.118127152
0.00357646457
0.00387993795
0.132818499
0.150757657
0.0169643742
0.00380157289
0.127062218
0.145986303
0.0150253379
0.00509154566
0.105271443
0.160066005
0.141840098
0.00328468254
0.0048471257
0.122557842
0.142601391
0.0138275891
0.00517944691
0.110903206
0.16104283
0.141218747
0.00358574776
0.00512421759
0.122971168
0.141698819
0.00795910797
0.00532390919
0.11607699
0.161421666
0.142454965
0.00386351091
0.00527782818
0.127117984
0.143233591
0.00260766417
0.00549605114
0.117832693
0.160547114
0.143964366
0.00411844855
0.00532818176
0.131729956
0.148836599
0.00285806433
0.00502995867
0.142415762
0.157794746
0.00291277301
0.00491420967
0.146530018
0.154702074
0.00363848799
0.005486381
0.129875539
0.158165471
0.138233581
0.00508340709
0.00574968649
0.133099013
0.13938368
0.00500454806
0.00586121171
0.131395093
0.158494257
0.128189988
0.00567405902
0.00594482992
0.127897315
0.157463656
0.131374084
0.00564897768
0.00552601224
0.139733517
0.135360124
0.00593965942
0.00537412659
0.140089769
0.166856472
0.135804644
0.00562799516
0.00449871833
0.145194087
0.138404392
0.00558879961
)
;

boundaryField
{
    closed
    {
        type            calculated;
        value           nonuniform List<scalar> 0();
    }
    open
    {
        type            calculated;
        value           nonuniform List<scalar> 0();
    }
    sides
    {
        type            empty;
    }
    procBoundary2to1
    {
        type            processor;
        value           uniform 0;
    }
    procBoundary2to3
    {
        type            processor;
        value           uniform 0;
    }
}


// ************************************************************************* //
