/*--------------------------------*- C++ -*----------------------------------*\
| =========                 |                                                 |
| \\      /  F ield         | OpenFOAM: The Open Source CFD Toolbox           |
|  \\    /   O peration     | Version:  2306                                  |
|   \\  /    A nd           | Website:  www.openfoam.com                      |
|    \\/     M anipulation  |                                                 |
\*---------------------------------------------------------------------------*/
FoamFile
{
    version     2.0;
    format      ascii;
    arch        "LSB;label=32;scalar=64";
    class       volScalarField;
    location    "0.00172";
    object      alpha;
}
// * * * * * * * * * * * * * * * * * * * * * * * * * * * * * * * * * * * * * //

dimensions      [1 -1 -1 0 0 0 0];

internalField   nonuniform List<scalar> 
530
(
7.63425768e-05
7.65719727e-05
7.64772341e-05
7.64873068e-05
7.65270677e-05
7.66877958e-05
7.66500513e-05
7.6644753e-05
7.66929708e-05
7.67951812e-05
7.6793368e-05
7.67897038e-05
7.68468456e-05
7.68950056e-05
7.69182087e-05
7.69102861e-05
7.69845815e-05
7.69957767e-05
7.70256672e-05
7.70319276e-05
7.71100412e-05
7.70963708e-05
7.71447008e-05
7.71460881e-05
7.72295189e-05
7.71967494e-05
7.72632073e-05
7.72554862e-05
7.73388132e-05
7.72974001e-05
7.73769629e-05
7.73620253e-05
7.74431197e-05
7.74009509e-05
7.74845702e-05
7.74687917e-05
7.75435168e-05
7.75019453e-05
7.75880907e-05
7.75736759e-05
7.76406392e-05
7.76003565e-05
7.76805824e-05
7.76764255e-05
7.77348101e-05
7.76962019e-05
7.77672403e-05
7.77740493e-05
7.78271393e-05
7.77899229e-05
7.78550597e-05
7.78682558e-05
7.79166055e-05
7.78822779e-05
7.79445726e-05
7.79542242e-05
7.80031842e-05
7.79728378e-05
7.80286851e-05
7.80379868e-05
7.80777813e-05
7.80607451e-05
7.81010378e-05
7.81157584e-05
7.8151237e-05
7.81353696e-05
7.81709816e-05
7.81871656e-05
7.82228464e-05
7.82088931e-05
7.82404139e-05
7.82556132e-05
7.82927704e-05
7.82810909e-05
7.83092967e-05
7.8322824e-05
7.83612651e-05
7.8351992e-05
7.83773433e-05
7.8389506e-05
7.84286695e-05
7.84215589e-05
7.84441959e-05
7.84552745e-05
7.84950656e-05
7.84898186e-05
7.85093096e-05
7.85202444e-05
7.85605035e-05
7.85570099e-05
7.85782562e-05
7.85841629e-05
7.86250857e-05
7.86231761e-05
7.86481771e-05
7.8651971e-05
7.86955764e-05
7.86904204e-05
7.87198288e-05
7.87220566e-05
7.87658605e-05
7.87614971e-05
7.87920245e-05
7.87936919e-05
7.88353761e-05
7.88318546e-05
7.8862791e-05
7.88651241e-05
7.89046664e-05
7.89016229e-05
7.89326647e-05
7.89358454e-05
7.89740267e-05
7.89710753e-05
7.90025239e-05
7.90059831e-05
7.90435208e-05
7.90404218e-05
7.9072538e-05
7.90759661e-05
7.91130705e-05
7.91098796e-05
7.91428512e-05
7.91461055e-05
7.91827079e-05
7.91795882e-05
7.92125405e-05
7.92163015e-05
7.92525599e-05
7.92494321e-05
7.92816124e-05
7.92857749e-05
7.93214714e-05
7.93191398e-05
7.93505754e-05
7.93545445e-05
7.9390488e-05
7.93883593e-05
7.94190284e-05
7.94232188e-05
7.94598799e-05
7.9458123e-05
7.94889602e-05
7.94930211e-05
7.95298209e-05
7.95285022e-05
7.95594422e-05
7.9563533e-05
7.96002922e-05
7.95993583e-05
7.96298554e-05
7.96347676e-05
7.9671363e-05
7.96708068e-05
7.97001489e-05
7.97068544e-05
7.97427605e-05
7.97430368e-05
7.97705291e-05
7.97793784e-05
7.98148833e-05
7.98154462e-05
7.98453562e-05
7.98522175e-05
7.98885048e-05
7.98888813e-05
7.99237283e-05
7.9930304e-05
7.9967478e-05
7.99664352e-05
8.00038362e-05
8.00118122e-05
8.00471727e-05
8.00463167e-05
8.00863754e-05
8.00943932e-05
8.01276296e-05
8.01264523e-05
8.01685369e-05
8.01774303e-05
8.02086713e-05
8.02073197e-05
8.02521158e-05
8.0261001e-05
8.02903219e-05
8.02886303e-05
8.03352193e-05
8.03446186e-05
8.03723741e-05
8.03704542e-05
8.04189573e-05
8.04296179e-05
8.04549865e-05
8.04526871e-05
8.05025625e-05
8.05142499e-05
8.05378327e-05
8.05345501e-05
8.05781582e-05
8.05956884e-05
8.06143823e-05
8.06144862e-05
8.06505013e-05
8.06720169e-05
8.06886459e-05
8.06889454e-05
8.07206696e-05
8.07453484e-05
8.07625139e-05
8.07636272e-05
8.07908845e-05
8.0817227e-05
8.08358704e-05
8.08379345e-05
8.08617449e-05
8.0888656e-05
8.09087711e-05
8.09115927e-05
8.09332598e-05
8.09595362e-05
8.09810133e-05
8.09844653e-05
8.10052584e-05
8.10293708e-05
8.10525091e-05
8.10564788e-05
8.10775318e-05
8.10985423e-05
8.11232214e-05
8.11275965e-05
8.11491095e-05
8.11672412e-05
8.11929722e-05
8.11979294e-05
8.12204655e-05
8.12355425e-05
8.12621306e-05
8.12673326e-05
8.12918823e-05
8.13049724e-05
8.13322657e-05
8.13372394e-05
8.13630027e-05
8.13747299e-05
8.14013093e-05
8.14066874e-05
8.14333054e-05
8.14439215e-05
8.14692227e-05
8.14748572e-05
8.15027159e-05
8.15119361e-05
8.15363487e-05
8.15417682e-05
8.15705113e-05
8.15786412e-05
8.16020336e-05
8.16074544e-05
8.16365747e-05
8.16442826e-05
8.16667197e-05
8.16719503e-05
8.17015993e-05
8.17089917e-05
8.173026e-05
8.17352926e-05
8.1765175e-05
8.17728601e-05
8.17925557e-05
8.17974717e-05
8.18273895e-05
8.18355241e-05
8.1853466e-05
8.18585339e-05
8.1887401e-05
8.18977226e-05
8.19130787e-05
8.19184028e-05
8.19458239e-05
8.19593585e-05
8.1971387e-05
8.1977168e-05
8.20027815e-05
8.20206628e-05
8.20284451e-05
8.20350452e-05
8.20585365e-05
8.20799372e-05
8.20836533e-05
8.20932076e-05
8.21148378e-05
8.21362417e-05
8.21379184e-05
8.21476845e-05
8.21724209e-05
8.21901475e-05
8.21908965e-05
8.22017637e-05
8.22296102e-05
8.22423372e-05
8.2242468e-05
8.22537855e-05
8.22845691e-05
8.2292844e-05
8.22923939e-05
8.23041712e-05
8.23370058e-05
8.23414618e-05
8.23413283e-05
8.23532021e-05
8.23850185e-05
8.2388957e-05
8.23889196e-05
8.24011549e-05
8.24303459e-05
8.2435602e-05
8.24348602e-05
8.24480809e-05
8.24741134e-05
8.2481188e-05
8.24795473e-05
8.24934153e-05
8.25173088e-05
8.25254235e-05
8.25235236e-05
8.25373066e-05
8.25601531e-05
8.25687815e-05
8.25664702e-05
8.25801365e-05
8.26021213e-05
8.26095592e-05
8.26079651e-05
8.26220945e-05
8.26428504e-05
8.26493974e-05
8.26480051e-05
8.26627814e-05
8.26824939e-05
8.26879852e-05
8.26867681e-05
8.27019711e-05
8.27212076e-05
8.27252349e-05
8.27243209e-05
8.27396139e-05
8.27592313e-05
8.27613377e-05
8.27611224e-05
8.27758751e-05
8.2794591e-05
8.27961624e-05
8.27967974e-05
8.28105827e-05
8.28279252e-05
8.28295743e-05
8.28313516e-05
8.28450424e-05
8.2861255e-05
8.2861974e-05
8.2864455e-05
8.28766953e-05
8.28909487e-05
8.2893325e-05
8.28957051e-05
8.29084191e-05
8.29203625e-05
8.29234492e-05
8.29254361e-05
8.29385674e-05
8.29485078e-05
8.29522489e-05
8.29542014e-05
8.29672245e-05
8.29759574e-05
8.29797412e-05
8.29822408e-05
8.2994254e-05
8.30027218e-05
8.30058395e-05
8.3009507e-05
8.30197837e-05
8.30286118e-05
8.30308719e-05
8.30356703e-05
8.30443497e-05
8.30533227e-05
8.30549147e-05
8.30601694e-05
8.30678842e-05
8.30764971e-05
8.30778229e-05
8.30831059e-05
8.30903498e-05
8.30982713e-05
8.30996161e-05
8.31046866e-05
8.31116353e-05
8.31188064e-05
8.31202591e-05
8.31250522e-05
8.31317527e-05
8.31382413e-05
8.31397028e-05
8.31443257e-05
8.31506663e-05
8.31565853e-05
8.31580617e-05
8.31625601e-05
8.31685749e-05
8.31740354e-05
8.31755088e-05
8.31798568e-05
8.31854965e-05
8.31905401e-05
8.31919737e-05
8.31961615e-05
8.32014429e-05
8.32060895e-05
8.32074898e-05
8.3211488e-05
8.32164515e-05
8.32207079e-05
8.32220894e-05
8.32258734e-05
8.32305574e-05
8.32344324e-05
8.32358065e-05
8.32393593e-05
8.32437905e-05
8.32473096e-05
8.32486638e-05
8.32520029e-05
8.3256166e-05
8.32593998e-05
8.3260686e-05
8.32638662e-05
8.32677139e-05
8.32707601e-05
8.32719218e-05
8.32749966e-05
8.32784861e-05
8.32814544e-05
8.32824565e-05
8.32854251e-05
8.328857e-05
8.3291878e-05
8.32928021e-05
8.32955571e-05
8.32983892e-05
8.3303596e-05
8.33041602e-05
8.33052515e-05
8.33083616e-05
8.33158621e-05
8.3318189e-05
8.33178975e-05
8.3320848e-05
8.33236316e-05
8.33267622e-05
8.3328958e-05
8.33323276e-05
8.33348729e-05
8.33384254e-05
8.33412613e-05
8.33448415e-05
8.33479808e-05
8.33515103e-05
8.33549613e-05
8.33583235e-05
8.33617527e-05
8.33651024e-05
8.33685207e-05
8.33716828e-05
8.33750357e-05
8.3377814e-05
8.33812315e-05
8.33838489e-05
8.33867871e-05
8.33891153e-05
8.339152e-05
8.33934607e-05
8.3395309e-05
8.33968066e-05
8.33981162e-05
8.33991662e-05
8.33999992e-05
8.34006483e-05
8.34011057e-05
8.34014426e-05
8.34016455e-05
8.34017804e-05
8.3401845e-05
8.34018802e-05
8.34018611e-05
8.34017805e-05
8.34017228e-05
8.34016811e-05
8.34016553e-05
8.34016396e-05
8.34016313e-05
8.34016271e-05
8.34016249e-05
8.34016241e-05
8.34016238e-05
8.34016236e-05
8.34016236e-05
8.34016236e-05
8.34016236e-05
8.34016236e-05
8.34016236e-05
8.34016236e-05
8.34016236e-05
8.34016236e-05
8.34016236e-05
8.34016236e-05
8.34016236e-05
8.34016236e-05
8.34016236e-05
8.34016236e-05
8.34016236e-05
8.34016236e-05
8.34016236e-05
8.34016236e-05
8.34016236e-05
8.34016236e-05
8.34016236e-05
8.34016236e-05
8.34016236e-05
8.34016236e-05
)
;

boundaryField
{
    closed
    {
        type            calculated;
        value           nonuniform List<scalar> 0();
    }
    open
    {
        type            calculated;
        value           uniform 8.34016236e-05;
    }
    sides
    {
        type            empty;
    }
    procBoundary5to4
    {
        type            processor;
        value           uniform 7.63168405e-05;
    }
}


// ************************************************************************* //
