/*--------------------------------*- C++ -*----------------------------------*\
| =========                 |                                                 |
| \\      /  F ield         | OpenFOAM: The Open Source CFD Toolbox           |
|  \\    /   O peration     | Version:  2306                                  |
|   \\  /    A nd           | Website:  www.openfoam.com                      |
|    \\/     M anipulation  |                                                 |
\*---------------------------------------------------------------------------*/
FoamFile
{
    version     2.0;
    format      ascii;
    arch        "LSB;label=32;scalar=64";
    class       volScalarField;
    location    "0.00172";
    object      H2O;
}
// * * * * * * * * * * * * * * * * * * * * * * * * * * * * * * * * * * * * * //

dimensions      [0 0 0 0 0 0 0];

internalField   nonuniform List<scalar> 
530
(
0.124383503
0.124351919
0.125799427
0.125772436
0.124607266
0.124627489
0.125994338
0.125940652
0.124823073
0.124873701
0.126136173
0.126089229
0.124997588
0.125102034
0.126247435
0.126196594
0.125127855
0.125315108
0.126327479
0.126301424
0.125247477
0.125465425
0.126418996
0.126394837
0.125397205
0.125568353
0.126504287
0.126474515
0.12552884
0.125660018
0.126579417
0.126541706
0.125632709
0.125753989
0.126641099
0.12660287
0.12571744
0.125834085
0.126691677
0.126655334
0.125786981
0.125896706
0.126712949
0.126699603
0.125846081
0.125955773
0.126704697
0.126731822
0.125894671
0.12599766
0.126716956
0.126756488
0.125947069
0.126024841
0.126747438
0.126757188
0.125980243
0.126049386
0.126762365
0.126763525
0.125980403
0.126073122
0.126741181
0.126759923
0.12597703
0.126059738
0.126715165
0.126738931
0.125969724
0.126043642
0.126688482
0.126710848
0.125958255
0.126026835
0.126660447
0.126679181
0.125942259
0.126008146
0.126630415
0.126645637
0.125923185
0.125988285
0.126598045
0.126610461
0.125901189
0.125966484
0.126562708
0.126573733
0.125874224
0.125943144
0.126530412
0.126535042
0.125842677
0.125915427
0.126499272
0.126500126
0.125826964
0.12588946
0.126470489
0.126468716
0.125810502
0.125873885
0.126442714
0.126439309
0.125791683
0.125855731
0.126412563
0.126409479
0.125772392
0.125835659
0.126380851
0.126378811
0.125752711
0.125814348
0.12634888
0.126347605
0.125732907
0.125792192
0.126317456
0.126316611
0.125713452
0.125769784
0.126286976
0.12628609
0.125693993
0.125747704
0.126256474
0.126256277
0.125676322
0.125727119
0.126225957
0.126226523
0.125656811
0.125706721
0.126196186
0.126196301
0.125636564
0.1256849
0.126166689
0.12616735
0.125618216
0.125666016
0.126141116
0.126141745
0.125602434
0.125649719
0.126117856
0.126118788
0.125588241
0.125635874
0.126095936
0.12609875
0.125575164
0.125624826
0.126075286
0.126081308
0.125562857
0.12561632
0.12605663
0.126066247
0.125554418
0.125609031
0.126045056
0.12605333
0.125547162
0.125602878
0.126040509
0.126048151
0.125555574
0.125607598
0.126041022
0.126050256
0.125566587
0.125621538
0.126046985
0.126056118
0.125580488
0.125635418
0.126053757
0.126064408
0.125595812
0.125651803
0.126065051
0.126075908
0.125614652
0.125669871
0.126077378
0.126089317
0.125634758
0.125690779
0.12609306
0.126107803
0.125658883
0.125715997
0.126111074
0.126128715
0.125690636
0.125742382
0.12612045
0.126148503
0.125708572
0.125772103
0.126127726
0.126164603
0.125724108
0.125790632
0.126135313
0.126178652
0.125744238
0.125813518
0.126147112
0.12619334
0.125768316
0.125839779
0.126164274
0.126211144
0.125796778
0.125869108
0.126186827
0.126232038
0.125829185
0.125901226
0.126214497
0.126255358
0.125865094
0.125935869
0.126246764
0.126281636
0.125904062
0.125973071
0.126281872
0.126310981
0.12594598
0.126013155
0.126320048
0.1263435
0.125990112
0.126055032
0.126361542
0.126381031
0.126041566
0.126102781
0.126405898
0.126422832
0.12609387
0.126154096
0.126452179
0.126467375
0.126146808
0.126206073
0.126500279
0.126513504
0.126200997
0.126258577
0.126549252
0.126560955
0.126256797
0.126311943
0.126598924
0.126609954
0.126313596
0.126366274
0.126649913
0.126660602
0.126370879
0.126421601
0.126701369
0.126712983
0.126428288
0.12647792
0.126753376
0.126766399
0.126485027
0.126535894
0.126804416
0.126822069
0.126542496
0.126594802
0.126855568
0.126879974
0.126600842
0.126656061
0.126907171
0.126940371
0.126661663
0.126721495
0.126960237
0.12699988
0.126723974
0.126793123
0.127018183
0.127056815
0.126788725
0.126852062
0.127080937
0.127112498
0.126853918
0.1269168
0.127146329
0.127167446
0.126918339
0.126978294
0.127210134
0.127221817
0.126979988
0.127038732
0.127271333
0.127275355
0.127040184
0.127099345
0.127326248
0.12732929
0.127099737
0.127161091
0.127378373
0.127383907
0.12715876
0.127223479
0.12743007
0.127438844
0.127218502
0.12728491
0.127482882
0.127493798
0.127280228
0.127345968
0.127537159
0.127549178
0.12734302
0.127408096
0.127592135
0.127601615
0.127405646
0.127471297
0.127647114
0.12765408
0.127467626
0.12753416
0.127702074
0.127706268
0.127528905
0.127595812
0.127757047
0.12775801
0.127589332
0.127655951
0.12781229
0.127809569
0.127649804
0.127714918
0.127864028
0.127860484
0.127711533
0.127772383
0.127913615
0.127910475
0.127773486
0.127832999
0.127964702
0.12796006
0.127833392
0.127887055
0.128010036
0.128008943
0.127889757
0.12794486
0.128056509
0.128056835
0.127944022
0.128000369
0.128101883
0.128103638
0.127998116
0.128053483
0.128147263
0.128149314
0.128052796
0.128103751
0.128192576
0.128193713
0.12810773
0.128151651
0.128237307
0.128237278
0.128161501
0.128198908
0.128280944
0.128279903
0.128212008
0.128245364
0.128322676
0.128321336
0.128259472
0.128290767
0.128362615
0.12836153
0.128304549
0.128334485
0.128401022
0.128400339
0.128347692
0.128376415
0.128438113
0.128437669
0.128389258
0.128416386
0.128473853
0.128473702
0.128429304
0.128454999
0.12850854
0.128508665
0.128468078
0.128492209
0.128542027
0.128542323
0.128505315
0.128527911
0.128574247
0.128574678
0.128540954
0.128562156
0.128605177
0.128605756
0.128574998
0.128594965
0.128634827
0.128635557
0.128607504
0.128626318
0.128663243
0.128664084
0.128638574
0.128656186
0.128690478
0.128691357
0.128668312
0.128684563
0.128716593
0.128717432
0.128696781
0.128711492
0.128741721
0.128742494
0.128723891
0.128737053
0.128766643
0.128767579
0.128750844
0.128762309
0.128794614
0.128795444
0.128774887
0.128786854
0.128813216
0.128820343
0.12881444
0.128823861
0.12883152
0.128841187
0.128846226
0.128856516
0.128863014
0.128873932
0.128881501
0.128892658
0.128901446
0.128912658
0.12892277
0.128933736
0.128944408
0.12895556
0.128966803
0.128977732
0.128989371
0.128999563
0.129011967
0.129022195
0.129033651
0.129043491
0.12905372
0.129062746
0.129071503
0.129079335
0.129086452
0.129092809
0.129098231
0.129102991
0.129106801
0.129110031
0.129112455
0.129114406
0.129115777
0.129116807
0.129117436
0.129117716
0.12911787
0.129117949
0.129117983
0.129117996
0.129117999
0.129117999
0.129117998
0.129117997
0.129117996
0.129117996
0.129117996
0.129117996
0.129117996
0.129117996
0.129117996
0.129117996
0.129117996
0.129117996
0.129117996
0.129117996
0.129117996
0.129117996
0.129117996
0.129117996
0.129117996
0.129117996
0.129117996
0.129117996
0.129117996
0.129117996
0.129117996
0.129117996
0.129117996
0.129117996
)
;

boundaryField
{
    closed
    {
        type            calculated;
        value           nonuniform List<scalar> 0();
    }
    open
    {
        type            calculated;
        value           uniform 0.129117996;
    }
    sides
    {
        type            empty;
    }
    procBoundary5to4
    {
        type            processor;
        value           uniform 0.12558485;
    }
}


// ************************************************************************* //
