/*--------------------------------*- C++ -*----------------------------------*\
| =========                 |                                                 |
| \\      /  F ield         | OpenFOAM: The Open Source CFD Toolbox           |
|  \\    /   O peration     | Version:  2306                                  |
|   \\  /    A nd           | Website:  www.openfoam.com                      |
|    \\/     M anipulation  |                                                 |
\*---------------------------------------------------------------------------*/
FoamFile
{
    version     2.0;
    format      ascii;
    arch        "LSB;label=32;scalar=64";
    class       volScalarField;
    location    "0.0013";
    object      sourcePV;
}
// * * * * * * * * * * * * * * * * * * * * * * * * * * * * * * * * * * * * * //

dimensions      [1 -3 -1 0 0 0 0];

internalField   nonuniform List<scalar> 
530
(
0.0546248589
0.0808908075
0.0816648825
0.0815420311
0.0815306738
0.0815304522
0.0815304432
0.0815304428
0.0815304428
0.0815304428
0.0815304428
0.0815304428
0.0815304428
0.0815304428
0.0815304428
0.0815304428
0.0815304428
0.0815304428
0.0815304428
0.0815304428
0.0815304428
0.0815304428
0.0815304428
0.0815304428
0.0815304428
0.0815304428
0.0815304428
0.0815304428
0.0815304428
0.0815304428
0.0815304428
0.0815304428
0.0815304428
0.0815304428
0.0815304428
0.0815304428
0.0815304428
0.0815304428
0.0815304428
0.0815304428
0.0815304428
0.0815304428
0.0815304428
0.0815304428
0.0815304428
0.0815304428
0.0815304428
0.0815304428
0.0815304428
0.0815304428
0.0815304428
0.0815304428
0.0815304428
0.0815304428
0.0815304428
0.0815304428
0.0815304428
0.0815304428
0.0815304428
0.0815304428
0.0815304428
0.0815304429
0.081530443
0.0815304435
0.0815304444
0.0815304492
0.0815304512
0.0815304875
0.0815304782
0.0815307214
0.081530767
0.0815306784
0.0815328245
0.0815369222
0.0815304764
0.0814903211
0.0815017743
0.081942798
0.0821257409
0.0801727866
0.0784704334
0.0838413251
0.0910511903
0.0801297942
0.0719623054
0.0825948324
0.140124987
0.138506025
0.0172783924
0.0064338632
0.00887448341
0.119556108
0.168032519
0.164031379
0.00370473554
0.00585560662
0.0479059223
0.144626178
0.167764621
0.104613157
0.00517117413
0.00528965291
0.00582674107
0.00500083139
0.142706245
0.171159282
0.157825802
0.176186658
0.122188562
0.00529286917
0.00685956179
0.00644499477
0.111844882
0.141297315
0.00523192828
0.00643004831
0.0824253786
0.134605317
0.147453216
0.150273932
0.171320013
0.181565705
0.0860072978
0.00457586901
0.00578285823
0.00478087181
0.00549584936
0.00539826151
0.161740941
0.171886178
0.00428962443
0.00568609987
0.0724179182
0.141941913
0.143557907
0.173243907
0.172449757
0.00451259814
0.00579299041
0.136582789
0.147592364
0.00478470159
0.00603227931
0.141636957
0.150908336
0.00432203758
0.00568766254
0.00541165616
0.00559266039
0.112135812
0.159329782
0.147244145
0.173476053
0.172569891
0.00466065182
0.00570377183
0.142654878
0.148673534
0.00360643192
0.00574130762
0.00426275209
0.166613975
0.179402315
0.00435675007
0.005593513
0.146697685
0.153529237
0.00493045499
0.0059979158
0.138833842
0.148813398
0.00508703146
0.00586657188
0.0669844576
0.162909869
0.162689942
0.0052361713
0.00592732394
0.109584368
0.142364522
0.172746674
0.172384788
0.0046266842
0.00567743687
0.147981214
0.158031136
0.00499383811
0.00585372789
0.139387767
0.152801283
0.00536960979
0.00569839448
0.0884771934
0.169245839
0.168940489
0.00528832171
0.00572238282
0.136281647
0.152203709
0.00541893683
0.00581268585
0.0807643569
0.164363306
0.164130704
0.00556984481
0.00600062473
0.0972864108
0.137475456
0.156806911
0.155695964
0.00536449029
0.100528821
0.163349888
0.00551076789
0.00602644433
0.140691984
0.149636913
0.00542906451
0.00632155084
0.13877392
0.140289106
0.00553540832
0.00659542793
0.079116822
0.125007408
0.154494226
0.153853852
0.00554053886
0.00635038887
0.0702425424
0.129912428
0.163818151
0.16302275
0.00539704088
0.0059794424
0.135728169
0.14711542
0.00563619618
0.00606930454
0.133140349
0.149281589
0.00579161882
0.00573799926
0.0900311863
0.175882632
0.175222796
0.00530899576
0.00569006732
0.14781466
0.16030181
0.00540947979
0.00585564897
0.142452878
0.155870107
0.00574422418
0.00573584776
0.0955788053
0.17018427
0.169909731
0.00559836019
0.00570433618
0.139079988
0.156004419
0.00575355429
0.00572099349
0.0850008398
0.168001675
0.167453961
0.00560854434
0.005891522
0.137270502
0.147717298
0.00590473348
0.00615710793
0.113423093
0.141786182
0.164622955
0.164928256
0.00549118631
0.00574949869
0.127609199
0.155087462
0.095393834
0.00591334237
0.00610289605
0.0751375737
0.176442839
0.174815998
0.00489138732
0.00515528838
0.00541643335
0.0346670292
0.146798999
0.1744307
0.173839475
0.00568582445
0.00553303914
0.108512082
0.174354964
0.171164085
0.00552798694
0.00561245048
0.138779031
0.159212552
0.00589436146
0.00569836924
0.103032862
0.17208826
0.170521074
0.00558885255
0.00566939871
0.140118729
0.158935067
0.0059040305
0.00572152627
0.10377291
0.168389592
0.167018082
0.00567997954
0.00567216071
0.0765405749
0.164038073
0.163953227
0.00585008953
0.00586254448
0.112577339
0.144937599
0.173226264
0.173111746
0.00434591201
0.00537022143
0.00444103512
0.00540333855
0.00488821662
0.170290776
0.169468801
0.00479536266
0.115032448
0.178068279
0.00585994741
0.005658599
0.14080072
0.160255211
0.00602083949
0.00572219505
0.10491084
0.176180419
0.172886366
0.00552707366
0.00576288324
0.146264973
0.158007292
0.00593087626
0.00602669055
0.125371228
0.147927557
0.0886914204
0.0063863354
0.00638783493
0.109942065
0.153813954
0.103851399
0.0062267457
0.00657816513
0.106449807
0.145865779
0.14635635
0.151854385
0.171935362
0.169413629
0.0053529691
0.00609729042
0.0057452283
0.118926068
0.142927341
0.0057519251
0.00636849674
0.00587883481
0.0840342342
0.149897349
0.147321788
0.152724212
0.168963912
0.168800254
0.00547719167
0.00583233503
0.149872365
0.148026472
0.00548886184
0.00630198023
0.00557587244
0.133862467
0.164208509
0.00603339747
0.00591427205
0.144702113
0.152463486
0.00620174274
0.00613973277
0.118496423
0.144435113
0.159279487
0.159358127
0.00558654589
0.00603851555
0.148661785
0.147773667
0.00565604357
0.0803337341
0.171010011
0.00606598487
0.00546529768
0.0777507949
0.182687383
0.16919088
0.00500669666
0.00593613253
0.00521764257
0.00623427062
0.00556055353
0.130275837
0.158061214
0.152866264
0.159502528
0.179643017
0.175108953
0.00542578153
0.00600795596
0.00574025962
0.115255528
0.146280092
0.00646710202
0.0062613121
0.103227633
0.137665913
0.157397894
0.157439494
0.00561576657
0.00590467154
0.158250983
0.156075632
0.00554458012
0.00617330588
0.00549482344
0.081561002
0.17430783
0.169468342
0.00603333295
0.00574120042
0.103664324
0.165367795
0.162180843
0.00612452818
0.00585240599
0.11682216
0.166092686
0.163415134
0.00612072349
0.00589427893
0.111880464
0.165277373
0.160961457
0.00612637963
0.00600660593
0.121525488
0.149621928
0.162614588
0.161214951
0.00559832008
0.00628167561
0.00585197448
0.112059327
0.144468912
0.00650370191
0.0063503441
0.100464692
0.13460797
0.153061369
0.146661612
0.00582388625
0.108385242
0.164749343
0.00629900511
0.00600718716
0.14394527
0.154585294
0.00618632641
0.00594394305
0.140192775
0.155127873
0.00642615807
0.00581059381
0.116103724
0.173827621
0.16818117
0.0056852917
0.00578169507
0.150324274
0.159866048
0.00598291587
0.00583653627
0.142343382
0.155593588
0.00635742616
0.00578729515
0.116495828
0.170465734
0.165130223
0.00574779341
0.00580998748
0.147490674
0.158402981
0.00605756272
0.00584014092
0.141491797
0.155934753
0.00640532102
0.00573015923
0.118972419
0.173589453
0.16733988
0.00563541173
0.00581118842
0.152732052
0.160537132
0.00587438218
0.00592023938
0.14948938
0.153504743
0.00607265704
)
;

boundaryField
{
    closed
    {
        type            calculated;
        value           uniform 0;
    }
    open
    {
        type            calculated;
        value           nonuniform List<scalar> 0();
    }
    sides
    {
        type            empty;
    }
    procBoundary0to1
    {
        type            processor;
        value           uniform 0;
    }
}


// ************************************************************************* //
