/*--------------------------------*- C++ -*----------------------------------*\
| =========                 |                                                 |
| \\      /  F ield         | OpenFOAM: The Open Source CFD Toolbox           |
|  \\    /   O peration     | Version:  2306                                  |
|   \\  /    A nd           | Website:  www.openfoam.com                      |
|    \\/     M anipulation  |                                                 |
\*---------------------------------------------------------------------------*/
FoamFile
{
    version     2.0;
    format      ascii;
    arch        "LSB;label=32;scalar=64";
    class       volScalarField;
    location    "0.00116";
    object      rho;
}
// * * * * * * * * * * * * * * * * * * * * * * * * * * * * * * * * * * * * * //

dimensions      [1 -3 0 0 0 0 0];

internalField   nonuniform List<scalar> 
531
(
0.903107703
0.939367567
0.966338152
0.956984873
0.903202231
0.901944872
0.94406435
0.949730663
0.902526816
0.90213101
0.944415237
0.947640889
0.902212924
0.903008332
0.940982922
0.961800672
0.95476626
0.903061638
0.902121108
0.941011798
0.946063047
0.902557474
0.903001913
0.939761935
0.958256359
0.952339128
0.903212681
0.902162995
0.939416354
0.944235068
0.902848098
0.903099002
0.939876908
0.955956442
0.950043818
0.903720095
0.90243272
0.939294699
0.95181306
0.955190234
0.951751448
0.904254951
0.903464039
0.903966322
0.903152619
0.90362058
0.941108036
0.955445441
0.950004691
0.960790566
0.953847307
0.905889766
0.90419736
0.903957616
0.952260371
0.957410008
0.90424702
0.904948668
0.939775558
0.957889487
0.950115308
0.904783018
0.903151743
0.93954385
0.955407695
0.961588921
0.957139854
0.904500764
0.903545376
0.904166954
0.903287904
0.903637732
0.938787087
0.951832939
0.953567396
0.952647073
0.903952076
0.904075745
0.940240672
0.957876437
0.949948686
0.904324859
0.903483796
0.939524363
0.956347261
0.948375509
0.903943565
0.903657686
0.939443316
0.95508742
0.948443403
0.904372053
0.903282049
0.940014626
0.951929213
0.952272491
0.952366875
0.904815173
0.903186096
0.944354081
0.9488393
0.904665954
0.903157393
0.942855836
0.945138592
0.904488086
0.903847635
0.940392261
0.952906955
0.946178051
0.904283458
0.903422645
0.939325022
0.95337475
0.945780172
0.903939301
0.903596151
0.938931227
0.953034451
0.94698195
0.904363639
0.903294287
0.939957922
0.953522569
0.954888666
0.954988147
0.904956851
0.903211269
0.947892429
0.95171835
0.905157221
0.903331374
0.947695548
0.950699835
0.905067922
0.903340419
0.94680673
0.949245329
0.90489357
0.903349065
0.945102224
0.94692832
0.904762884
0.903924198
0.942324859
0.959696392
0.952284189
0.904912896
0.903507695
0.943378426
0.946320627
0.905363746
0.904906324
0.941903957
0.967676781
0.956745169
0.905657254
0.90449926
0.904233203
0.959847865
0.965579013
0.905601586
0.904551149
0.951798323
0.950740737
0.906099436
0.904738986
0.91267292
0.945040668
0.962208503
0.948883136
0.904340385
0.902531622
0.945366078
0.947666128
0.90277062
0.90292907
0.939004711
0.952195601
0.957928375
0.951222809
0.902414844
0.902873962
0.902530595
0.940196056
0.944541655
0.90226558
0.903022592
0.937270701
0.948561509
0.954415926
0.949132249
0.902239073
0.902421308
0.902689954
0.936909763
0.95324638
0.949160496
0.957932968
0.953215275
0.902102406
0.902515803
0.936275994
0.951964641
0.947631883
0.902660384
0.901620212
0.940400559
0.945157057
0.902850023
0.90196158
0.944132655
0.947537504
0.902932087
0.901970608
0.946185079
0.949613907
0.903080758
0.902491986
0.9383713
0.956995763
0.951200872
0.903302357
0.902564074
0.938685056
0.960055415
0.953606883
0.903718145
0.90247901
0.943801052
0.949532503
0.904297407
0.90339267
0.939377448
0.96093189
0.956170147
0.904636149
0.902618569
0.94538714
0.95225369
0.905224279
0.903087171
0.946051989
0.950616737
0.905191133
0.903237288
0.944464914
0.948881753
0.905242668
0.903638074
0.940413145
0.957340244
0.953400618
0.904911697
0.903029401
0.94155999
0.947453167
0.905621037
0.90358305
0.940133395
0.953402358
0.950472498
0.904839487
0.903555588
0.939988938
0.953362521
0.949638388
0.904998685
0.903864672
0.94095654
0.953693765
0.950065665
0.957301027
0.938650646
0.905298829
0.903784082
0.90467188
0.904269125
0.904750656
0.904687094
0.945330047
0.960276596
0.954620702
0.957040044
0.958696258
0.957458442
0.905990205
0.905260221
0.941827505
0.958290449
0.950810735
0.906173294
0.904670703
0.945121348
0.944080715
0.905006349
0.939860747
0.947000056
0.905856697
0.904495563
0.904216653
0.943122982
0.969844442
0.941386754
0.906536728
0.941577494
0.951279435
0.905836603
0.906126047
0.905010601
0.963008043
0.964693454
0.906080601
0.905122861
0.925675858
0.953198799
0.960562561
0.940038061
0.904372776
0.903833531
0.945342133
0.957070155
0.939607794
0.902992444
0.902970479
0.944506737
0.955748342
0.939125993
0.902340437
0.902536451
0.943625086
0.955491969
0.938789907
0.901946889
0.902231577
0.943850113
0.95657014
0.938246278
0.901504279
0.902370638
0.94665349
0.959835005
0.938103688
0.90247057
0.902179235
0.958443719
0.957671333
0.901992737
0.902764163
0.958057266
0.953195051
0.901827779
0.901707011
0.903257899
0.947511745
0.971156816
0.941783291
0.902107039
0.901742946
0.967917816
0.965184069
0.89896252
0.89847524
0.900267904
0.98119914
0.97959693
0.894418596
0.89519975
0.893300254
0.894729288
0.968709996
0.968789446
0.894108309
0.894286719
0.898452378
0.982256885
0.985570666
0.90245569
0.902342462
0.905617653
0.904038725
0.906199064
0.905258332
0.906538694
0.906007889
0.906796473
0.906287088
0.906593209
0.905787572
0.905220173
0.90361593
0.901063574
0.896391778
0.887133771
0.885237859
0.892810217
0.899534927
0.906739055
0.911518156
0.917225838
0.920065413
0.924346916
0.928846104
0.933773772
0.932482612
0.940623258
0.945031809
0.948984504
0.951690199
0.951385023
0.956934595
0.959867469
0.977139969
0.97593441
0.989254151
0.898463578
0.923669927
0.923795937
0.956047277
0.962757587
0.990180163
1.00179593
1.02601572
1.04044107
1.05820651
1.04194788
1.02985054
1.05596685
0.971592201
0.905509902
0.896416993
0.779809442
0.766117776
0.704146237
0.664974394
0.636834374
0.604071225
0.563437434
0.514697666
0.469947768
0.433239769
0.400260441
0.377768878
0.356095977
0.34075321
0.324226189
0.313980648
0.302146813
0.293139711
0.283519727
0.276875881
0.270269427
0.265359038
0.259981328
0.255863507
0.251453529
0.248012177
0.244384152
0.241386245
0.238361357
0.235764493
0.233304966
0.230975999
0.228867653
0.226665431
0.22494434
0.222960346
0.221353206
0.219601825
0.218151314
0.216632634
0.215524173
0.214389139
0.213372278
0.212239962
0.21117107
0.210116311
0.209060085
0.207911209
0.206743679
0.20597022
0.205281024
0.204645872
0.204035289
0.203476512
0.202941712
0.202422239
0.201872871
0.201351555
0.200828224
0.200315215
0.19985241
0.199410037
0.198914759
0.198391958
0.197897192
0.197416549
0.19696428
0.19651914
0.196099505
0.195711698
0.195355229
0.19499613
0.194656603
0.194313265
0.193994602
0.193672883
0.193365733
0.193051343
0.192750521
0.192439223
0.192116079
0.191819379
0.191543807
0.191262406
0.190999888
0.190732155
0.190481426
0.190225957
0.189985881
0.189747377
0.189525821
0.189301309
0.189090744
0.188877326
0.18867675
0.188473272
0.188281837
0.188087305
0.187904243
0.187725431
)
;

boundaryField
{
    closed
    {
        type            calculated;
        value           nonuniform List<scalar> 0();
    }
    open
    {
        type            calculated;
        value           nonuniform List<scalar> 0();
    }
    sides
    {
        type            empty;
    }
    procBoundary4to3
    {
        type            processor;
        value           uniform 0.903199024;
    }
    procBoundary4to5
    {
        type            processor;
        value           uniform 0.187562419;
    }
}


// ************************************************************************* //
