/*--------------------------------*- C++ -*----------------------------------*\
| =========                 |                                                 |
| \\      /  F ield         | OpenFOAM: The Open Source CFD Toolbox           |
|  \\    /   O peration     | Version:  2306                                  |
|   \\  /    A nd           | Website:  www.openfoam.com                      |
|    \\/     M anipulation  |                                                 |
\*---------------------------------------------------------------------------*/
FoamFile
{
    version     2.0;
    format      ascii;
    arch        "LSB;label=32;scalar=64";
    class       volScalarField;
    location    "0.00182";
    object      prefDh_H2;
}
// * * * * * * * * * * * * * * * * * * * * * * * * * * * * * * * * * * * * * //

dimensions      [1 1 -3 0 0 0 0];

internalField   nonuniform List<scalar> 
530
(
37.8224903
29.5446659
22.86013
22.8814188
37.8510059
37.7714086
29.8922695
23.1576847
23.1745255
37.9152998
37.8281534
29.804558
23.146593
23.16701
38.014672
37.8840302
29.573707
22.675758
22.696773
38.1720701
37.9367332
29.352893
21.3653503
21.5132488
38.0316598
38.214184
37.842699
30.259458
27.2648604
26.809312
23.817589
25.0338683
38.479236
38.4307813
38.4056289
29.0100387
28.8876188
38.4468443
38.7958153
29.2796342
28.585863
22.6796372
22.7241165
38.297185
38.1367384
29.0993572
21.6201428
21.7422602
38.5093251
38.3328613
29.0823514
26.2329239
26.5356794
22.9384649
22.9852813
37.9864624
38.581001
37.9256392
38.8016293
29.2083987
28.730799
38.4634272
38.904834
29.0962954
27.6774142
22.124253
22.1658358
38.3716503
38.1287009
29.0598198
21.3148506
21.4933336
38.3238218
37.9233068
29.164364
22.2151272
22.451843
38.115691
38.3720197
29.7306745
28.1463001
38.0770573
38.2360888
30.168016
28.172295
27.1306177
20.4405287
20.5123378
36.6199971
37.5088311
36.9492922
37.8344817
24.3761444
23.429687
37.4138055
29.425728
22.5125373
37.6151084
36.9826944
37.3395497
35.869414
22.3083788
22.274431
37.5080429
29.010697
23.7677293
38.1413867
38.4974055
29.4154354
27.7349251
38.0959648
38.5917575
29.2878903
28.8672643
23.5182032
23.5346184
37.792619
38.0867384
29.457007
22.8972757
22.9117211
37.4739374
38.0191363
31.4184928
24.4439435
24.4726568
37.5729157
30.4829496
26.7222898
37.7943318
38.4439396
29.1537834
28.6123276
23.6813985
23.6999325
37.6624035
38.1452483
29.5375815
23.4396255
23.450809
37.6977089
38.0353273
29.3719976
23.2489562
23.2502305
37.6352122
38.0750461
29.1708868
21.4424314
21.4652737
37.8605921
37.9887387
28.6391092
37.7256183
38.6772135
29.2456288
27.8171176
22.7418777
22.7101668
37.8076063
38.0305166
28.8379682
32.6252211
38.4671858
29.3486633
28.6278295
23.8440234
23.8653073
37.7016797
38.0165305
30.0408949
23.7583361
23.762777
37.8508526
38.3867567
29.4441452
27.0864627
38.1461664
38.2280114
29.0572427
22.8433979
22.850781
37.9734749
37.9933328
29.7309099
23.3151471
23.3163119
37.8259131
37.8378996
30.7241311
23.5818737
23.5902926
37.5623505
37.9655607
32.996804
27.8223914
24.9315321
20.8170011
20.8566006
37.9296325
38.2878598
27.750543
25.2907465
38.1058564
38.3500006
28.353536
25.5289324
38.3994024
38.0504474
28.9592305
20.0384492
20.347859
38.0401139
38.5225762
27.2597088
24.2720593
38.1231357
38.6760405
27.3878804
25.2710864
38.2080297
38.755739
27.9373752
26.1461598
38.2825111
38.6812257
28.5619974
27.873208
38.2236355
29.6542895
23.8008042
38.7373061
38.0595679
28.8526814
21.5904089
22.1085325
38.3967382
38.4992445
28.4816578
25.4593859
38.7069828
38.2097181
28.8925007
22.1367548
22.6582337
38.3646068
38.4637895
28.9404588
26.065047
38.5648347
38.1831983
29.063023
23.0092971
23.4205711
38.5076554
38.0829915
29.0566321
22.276092
22.8180117
38.2898719
38.2963034
29.0954553
25.8758893
38.4929367
37.9697064
29.0738856
21.4700531
22.1119412
37.8968472
37.9320104
37.3938202
31.0314365
22.9219261
23.2606498
38.0242908
38.2600024
29.5263809
26.4059547
22.3845881
22.5703898
37.9451133
38.3944709
26.4726341
24.1037253
37.8507532
38.4009751
25.3152679
24.4463457
37.8362671
38.2627713
37.3483862
29.7210891
21.5231219
22.0445342
38.0125131
38.3705526
28.740417
25.3210502
38.3302898
38.1728827
29.043171
22.8307704
23.2002293
38.2885132
38.1478486
29.1508919
23.1573735
23.4798293
38.2192143
38.1603145
29.2052054
23.2840988
23.527196
38.2980509
38.1648736
29.0611845
22.9526459
23.1894342
38.1705549
38.4676753
29.5517737
26.1715876
38.2195569
38.2634143
29.0402468
23.6390081
23.7405413
38.2286384
38.2985625
29.2603881
23.8421337
23.9131379
38.1757
38.4716971
29.0712286
27.4264052
24.4036846
24.4111848
38.094864
38.5076625
29.4644734
27.0179912
38.0657572
38.3324251
29.1733294
24.37652
24.3873004
38.1028416
38.3722653
28.9370305
23.2162449
23.2493846
38.0266356
38.528402
29.4004527
26.6032159
38.0943402
38.3507297
29.0420232
24.6002836
24.6018939
37.8969113
38.5397867
28.9375593
26.6712264
24.0227525
24.0314727
37.8842814
38.5754481
28.6996682
26.8370572
37.9609401
38.4458532
28.8628276
27.5606392
24.3657307
24.61997
38.2412515
28.9481583
23.1280456
37.8234694
38.5876187
27.6008608
25.1479716
37.8408348
38.6637452
27.3917266
25.4580263
37.802082
38.7200166
27.4191478
25.5792156
37.8315683
38.7174238
27.4886246
25.8261117
37.9580338
38.6775835
27.9038495
25.8340366
38.0624542
38.6651793
28.5598045
25.1144053
24.7940759
28.9108318
38.6269168
28.8089078
25.0288719
38.0170145
38.6909396
27.1028133
25.633994
38.1170262
38.6400102
27.3733477
25.7688074
38.1693644
38.6127134
28.5396555
24.6203408
24.5187956
29.471868
38.6881646
28.9651331
25.4160049
38.083832
38.7318827
27.2189984
26.2548185
38.2539328
38.654847
27.7304727
27.2599678
38.3911767
38.4576489
28.5378794
26.2996627
27.9843002
24.525024
28.9649363
38.3726363
38.6019391
38.538734
38.6455998
28.6289758
20.1514855
22.9423089
38.3531115
38.5282644
25.4906063
24.4435206
38.501473
38.4201669
28.9511561
21.226723
24.4952897
38.3730016
38.5647681
26.2824956
25.9441127
38.7217709
38.2697383
28.7907297
23.382689
26.1302831
38.5490609
38.4667674
28.8686919
23.1052423
26.1492106
38.6602666
38.347662
28.7719313
22.4485509
26.1165612
38.4809339
38.3679893
26.7105579
27.0365381
38.7957983
38.2943849
28.759886
23.1075611
26.1431784
38.7095677
38.4786295
28.817438
21.7953008
25.8045725
38.5672631
38.3832053
26.0855836
26.4856747
38.9157524
38.2661708
28.6331839
21.9301562
25.7906243
38.4813545
38.5602803
26.185453
27.0224322
38.7863447
38.3158583
27.0607034
28.0273495
38.91402
38.3563827
28.6250954
23.6642441
27.2312234
38.695501
38.5565898
28.6832535
23.3097214
27.0508115
38.6629794
38.5398518
28.7211789
23.2585989
26.9395897
38.6594484
38.5599196
28.7148513
23.2504795
26.827241
38.6741147
38.5857982
28.7064669
)
;

boundaryField
{
    closed
    {
        type            calculated;
        value           nonuniform List<scalar> 0();
    }
    open
    {
        type            calculated;
        value           nonuniform List<scalar> 0();
    }
    sides
    {
        type            empty;
    }
    procBoundary2to1
    {
        type            processor;
        value           uniform 37.7799646;
    }
    procBoundary2to3
    {
        type            processor;
        value           uniform 23.2596143;
    }
}


// ************************************************************************* //
