/*--------------------------------*- C++ -*----------------------------------*\
| =========                 |                                                 |
| \\      /  F ield         | OpenFOAM: The Open Source CFD Toolbox           |
|  \\    /   O peration     | Version:  2306                                  |
|   \\  /    A nd           | Website:  www.openfoam.com                      |
|    \\/     M anipulation  |                                                 |
\*---------------------------------------------------------------------------*/
FoamFile
{
    version     2.0;
    format      ascii;
    arch        "LSB;label=32;scalar=64";
    class       volScalarField;
    location    "0.00172";
    object      prefDZ_H;
}
// * * * * * * * * * * * * * * * * * * * * * * * * * * * * * * * * * * * * * //

dimensions      [1 -1 -1 0 0 0 0];

internalField   nonuniform List<scalar> 
530
(
0.000115869001
0.000109126443
0.000107876722
0.000107843186
0.000107840249
0.000107840107
0.000107840096
0.000107840095
0.000107840095
0.000107840095
0.000107840095
0.000107840095
0.000107840095
0.000107840095
0.000107840095
0.000107840095
0.000107840095
0.000107840095
0.000107840095
0.000107840095
0.000107840095
0.000107840095
0.000107840095
0.000107840095
0.000107840095
0.000107840095
0.000107840095
0.000107840095
0.000107840095
0.000107840095
0.000107840095
0.000107840095
0.000107840095
0.000107840095
0.000107840095
0.000107840095
0.000107840095
0.000107840095
0.000107840095
0.000107840095
0.000107840095
0.000107840095
0.000107840095
0.000107840095
0.000107840095
0.000107840095
0.000107840095
0.000107840095
0.000107840095
0.000107840095
0.000107840095
0.000107840095
0.000107840095
0.000107840095
0.000107840095
0.000107840095
0.000107840095
0.000107840095
0.000107840095
0.000107840095
0.000107840095
0.000107840096
0.000107840096
0.000107840098
0.000107840101
0.000107840108
0.000107840118
0.000107840152
0.000107840195
0.000107840318
0.000107840431
0.000107840777
0.000107841212
0.000107841766
0.000107842457
0.000107843843
0.000107845281
0.000107846805
0.000107848192
0.000107851338
0.000107853957
0.000107860118
0.00010787391
0.000107876005
0.000107831872
0.000107784133
0.000107802168
0.000108378549
0.000108395604
0.00010782081
0.000107711683
0.0001075167
0.000107228345
0.000107643861
0.00010887616
0.000110365445
0.000110132005
0.000110394557
0.00011022972
0.000107847638
0.000106567367
0.00010668209
0.000106671346
0.000106673496
0.000106894569
0.000106701189
0.000107795641
0.000110259124
0.000110254884
0.000110236914
0.000110038712
0.000110179679
0.000109849394
0.000106312326
0.000105822668
0.000106507107
0.00010661685
0.000106287253
0.000107821657
0.000110251317
0.00011037696
0.000110273837
0.000110318053
0.000110286244
0.000110265556
0.000108230339
0.000106259248
0.000106306771
0.000106513092
0.000106740747
0.000106523211
0.00010774018
0.000110088604
0.000110424448
0.000109290642
0.000106871823
0.000105569912
0.000107255245
0.000110122929
0.000110285705
0.000110111268
0.000110365021
0.000107097686
0.000106465237
0.000106974227
0.000107809524
0.000110325646
0.0001104622
0.00010734896
0.000106536556
0.000107759168
0.000110344389
0.000110597816
0.000107769616
0.000107787453
0.000110403148
0.000110466342
0.000107230707
0.000106289643
0.000107729197
0.000110282875
0.000110480597
0.000107335262
0.000106347458
0.000107740861
0.000110166309
0.000110448001
0.000110437663
0.000107727973
0.000106509398
0.000107728048
0.000110217847
0.000110492147
0.000107673667
0.000106480904
0.000107732122
0.000110184681
0.00011048911
0.000107522188
0.00010665606
0.000107087613
0.000107224328
0.000106841016
0.000107808917
0.000110180407
0.000110555792
0.00010757025
0.000107211873
0.000109976809
0.00011024998
0.000108567865
0.000106970326
0.000107219661
0.000110063836
0.000110334384
0.000110323678
0.000107541984
0.000106125677
0.000106405303
0.000107414559
0.000110136991
0.000110421989
0.000107836479
0.000107475396
0.000109965266
0.000110419957
0.000107717413
0.000107173713
0.000109944434
0.000110397489
0.000107493142
0.000106966291
0.000109941834
0.000110392836
0.000107477124
0.000107019633
0.00010998491
0.000110294615
0.000107616955
0.000105569204
0.000106934282
0.000110077753
0.000110433083
0.000107671629
0.000107099919
0.000110018046
0.000110295918
0.000107618344
0.000105453412
0.000106683086
0.000110086768
0.000110414953
0.000107433656
0.000106778881
0.000110003191
0.000110392372
0.000107301469
0.000106725199
0.000110033524
0.000110377832
0.000107277599
0.000106739038
0.000110060889
0.000110376767
0.000107326744
0.000106801842
0.000110098523
0.000110371111
0.000107364364
0.000106878997
0.000110184846
0.000110270826
0.000107681452
0.000105507894
0.000106645705
0.000110179016
0.000110417044
0.000107638983
0.000107067459
0.000110195536
0.000110415611
0.000107580559
0.000107066139
0.000110282193
0.000110297247
0.000107825093
0.000105663118
0.000106700588
0.000110229833
0.000110420077
0.000107736601
0.000107137267
0.000110306537
0.000110319716
0.0001078142
0.000105755821
0.000106676893
0.000110234682
0.000110440913
0.000107814144
0.000107170626
0.000110245181
0.000110445569
0.000107715243
0.000107149564
0.000110298045
0.000110315965
0.00010779521
0.000105833619
0.000106626286
0.00011023405
0.000110433258
0.000107901128
0.000107259976
0.000110279794
0.000110379744
0.00010779278
0.000106566548
0.000107075965
0.000106360105
0.000106649446
0.000110224669
0.000110418473
0.000107857945
0.000107544276
0.000110251766
0.000110377693
0.000107784941
0.000106364447
0.000106895569
0.00011027851
0.000110343616
0.000107790938
0.000106471041
0.000106954167
0.000110284973
0.000110346979
0.00010779638
0.000106536328
0.000106983257
0.000110278179
0.000110350492
0.000107812289
0.000106655883
0.000107075049
0.000110272487
0.000110345898
0.000107833249
0.000106733332
0.000107121626
0.000110246712
0.000110414275
0.00010783212
0.000107252129
0.000106723294
0.000106729713
0.000110121599
0.000110409043
0.000107855373
0.000107760108
0.000110179575
0.000110385863
0.000107824805
0.000106448687
0.000106552677
0.000110230057
0.000110297454
0.000107851878
0.000106468556
0.000106507589
0.000110232029
0.000110287895
0.000107856814
0.000106423529
0.000106430521
0.000110226535
0.000110270133
0.000107854871
0.00010635859
0.000106365733
0.000110197731
0.00011034252
0.000107846543
0.000107056963
0.000106380472
0.000106403171
0.000110020931
0.000110343674
0.000107930125
0.000107471203
0.000110145667
0.00011031637
0.000107843304
0.00010617064
0.000106191262
0.000110066757
0.00011033928
0.000107933054
0.000107421692
0.00011012898
0.000110306681
0.000107853472
0.000106109568
0.000106133791
0.000110037142
0.000110326436
0.000107950832
0.000107336361
0.000110125065
0.000110293793
0.000107854582
0.000105994345
0.000106025282
0.000110027523
0.000110319752
0.000107968476
0.000107265269
0.00011012497
0.000110283449
0.000107857161
0.000105954155
0.000105987463
0.000110032126
0.000110319322
0.000107981942
0.000107247521
0.000110117084
0.000110288657
0.000107873907
0.000105940151
0.000105958813
0.00011007355
0.000110203277
0.000107900029
0.000105978538
0.000105998069
0.000110086692
0.000110198189
0.00010789083
0.000106003596
0.000106046241
0.000110015138
0.000110357698
0.000108003812
0.000107359191
0.000110031202
0.000110419055
0.000108020866
0.000107204489
0.000110072635
0.000110273897
0.00010787423
0.000105985924
0.000106026387
0.000109960064
0.000110356908
0.000108006495
0.000107439273
0.00010998956
0.000110425636
0.000108012698
0.000107351878
0.00011002393
0.000110286752
0.000107924709
0.00010618818
0.000106211313
0.000109971247
0.00011027011
0.000107967094
0.000107117628
0.000107098828
0.00010616595
0.000106191229
0.000109934178
0.000110181349
0.00010806268
0.000106400958
0.000106420667
0.000109931609
0.000110195041
0.00010802427
0.000106297133
0.000106335316
0.000109893955
0.000110371886
0.000108000302
0.000107572497
0.000109963071
0.000110468301
0.000108023244
0.000107398431
0.000109953478
0.000110428174
0.000108014834
0.000107243919
0.000110017044
0.000110280399
0.000107908793
0.000105922916
0.000105948055
0.000109961098
0.000110191087
0.000107957427
0.000105976465
0.000106005004
0.000109973617
0.000110195685
0.000107965579
0.000106037971
0.000106060101
0.000110001576
0.000110187307
0.000107953552
0.000106060441
0.000106101213
0.000109972183
0.000110334298
0.000107966516
0.000107442801
0.000110103521
0.000110289581
0.00010787884
0.000106041046
0.000106074992
0.00010998737
0.000110333026
0.000107960634
0.000107419889
0.000110102796
0.000110305308
0.000107886706
0.000106040735
0.000106048562
0.00011004173
0.000110180268
0.000107978331
0.000106078238
0.000106153693
0.000110148238
0.000110351143
0.000110218982
0.000107789444
0.000106995189
0.000107033006
0.000106027082
0.000106095735
0.000110104895
0.000110309918
0.000110147251
)
;

boundaryField
{
    closed
    {
        type            calculated;
        value           uniform 0.000144187802;
    }
    open
    {
        type            calculated;
        value           nonuniform List<scalar> 0();
    }
    sides
    {
        type            empty;
    }
    procBoundary0to1
    {
        type            processor;
        value           uniform 0.000107888682;
    }
}


// ************************************************************************* //
