/*--------------------------------*- C++ -*----------------------------------*\
| =========                 |                                                 |
| \\      /  F ield         | OpenFOAM: The Open Source CFD Toolbox           |
|  \\    /   O peration     | Version:  2306                                  |
|   \\  /    A nd           | Website:  www.openfoam.com                      |
|    \\/     M anipulation  |                                                 |
\*---------------------------------------------------------------------------*/
FoamFile
{
    version     2.0;
    format      ascii;
    arch        "LSB;label=32;scalar=64";
    class       volScalarField;
    location    "0.00054";
    object      T;
}
// * * * * * * * * * * * * * * * * * * * * * * * * * * * * * * * * * * * * * //

dimensions      [0 0 0 1 0 0 0];

internalField   nonuniform List<scalar> 
531
(
339.721026
329.494348
322.887246
325.852042
339.097174
340.433833
326.763998
322.924449
338.519056
339.651568
331.266646
324.330282
324.105763
338.216671
340.211163
327.516627
324.306932
338.48906
339.804168
329.468047
322.593314
328.104671
339.231157
340.138337
339.724091
334.233854
329.227256
327.06334
327.247076
326.547052
323.07966
329.091641
338.906788
339.695928
339.69338
336.700127
328.96022
320.490135
320.694684
337.187188
339.852312
329.792641
325.410089
328.820606
339.312759
340.510876
328.582873
322.24912
328.341013
338.871884
340.404779
339.810989
332.366101
328.580506
326.633426
325.927691
323.312705
329.132246
337.977114
339.898151
336.193027
325.11663
322.598697
332.90287
339.83903
333.69216
329.082369
324.951578
326.42493
338.80407
340.101203
329.011804
329.506119
329.311758
330.573341
330.211953
329.486734
329.443771
329.359608
329.353112
330.423866
330.629873
329.067335
329.060318
330.145627
333.309549
330.076059
328.120009
329.447231
338.841744
339.056897
326.898419
324.298484
334.089942
339.838194
329.108556
324.445541
330.013212
339.251536
333.057038
325.947239
325.003196
335.734761
340.276812
329.346716
329.330344
329.754412
330.826653
329.544556
329.794177
338.055156
337.34668
325.468724
324.443825
336.668487
339.898649
329.112118
323.787718
330.742192
339.33048
330.042547
324.384084
328.673033
339.040159
329.719288
325.332525
330.421319
339.277981
335.521808
326.922185
322.689212
329.795942
339.298382
329.372987
324.921623
331.298917
339.539022
330.247193
325.660478
328.234886
338.7402
340.22757
329.266236
323.28946
328.719446
338.599245
340.060716
328.769397
322.141697
329.412893
339.169865
329.406082
326.050961
330.441553
339.388268
336.760706
327.267099
322.554942
329.334114
339.15481
338.470431
328.015092
323.132683
329.515268
339.184818
338.024157
328.743697
323.615322
328.613427
339.194421
336.534025
328.903926
329.510751
329.036157
330.205253
330.468366
330.040236
329.475141
329.287038
329.359524
329.739282
329.758964
329.856374
330.182263
329.746037
329.283309
329.191369
334.568685
334.682935
329.275288
325.694932
331.343602
339.494632
329.468627
323.918771
329.487502
339.218962
329.473959
325.279105
330.189586
339.264622
334.383606
326.883669
323.508065
329.924982
339.13198
334.155629
327.013424
324.480554
331.809806
339.338881
331.660416
325.342682
324.582125
335.683605
339.791226
330.136808
324.400852
328.385448
338.417111
339.964456
328.862339
322.709608
330.255262
339.121406
331.39218
324.50493
324.906254
338.212673
339.213864
328.637062
325.386182
335.408836
339.905996
329.2642
323.607945
329.604967
339.315646
331.697221
325.557391
325.962694
338.617963
340.146735
328.990773
322.808942
329.964171
339.374466
331.632365
325.06324
325.053002
338.89509
339.965023
329.546536
322.635248
328.688216
338.854531
339.851494
339.384906
336.875918
329.311274
328.005754
328.237174
328.078978
324.705093
324.608246
332.059323
339.538157
331.867895
327.503823
328.9957
339.230841
340.371038
329.164408
324.534925
329.32116
339.318139
333.950288
325.209468
324.704767
338.386894
340.071323
329.180775
324.08929
328.851979
338.98497
339.826114
327.851314
322.164246
331.606029
339.37722
330.010317
324.940419
329.168209
338.923467
340.104862
328.855164
322.356886
330.495605
339.19563
331.994757
324.881417
324.902209
339.207861
340.063628
329.166147
323.842087
329.016003
339.186701
340.265126
328.775467
322.980091
328.818379
339.259138
340.175932
328.723335
322.806626
328.834145
339.245481
340.146981
328.734121
322.693145
328.833903
339.236846
340.176675
328.748494
322.718743
328.841387
339.216168
340.17564
328.751119
322.755761
328.842475
339.132797
340.033847
328.844529
321.790864
330.235907
339.486448
329.028433
325.28493
329.897248
339.693884
339.523679
328.687605
322.480509
328.754623
339.4193
340.25686
328.721689
323.214889
328.696564
338.388339
340.425055
334.352856
329.101753
323.547862
322.313827
329.74386
339.719077
329.099043
325.116532
329.056886
339.861427
340.404238
328.556481
323.307107
328.452218
339.272677
340.727368
331.131739
329.054879
327.139404
323.743743
324.624119
340.003552
341.312823
328.414097
324.468056
332.536423
341.446299
341.399449
329.96364
321.084922
321.766805
343.144151
343.638756
324.040234
323.113485
341.957102
342.156779
319.519806
317.146131
338.120015
340.793828
339.786946
340.352536
340.212117
340.540646
340.587994
340.985931
341.192576
342.123246
342.774288
345.655788
349.15612
346.494056
343.967873
340.301608
338.389574
335.724833
334.613519
332.57674
331.249966
330.408497
328.166396
326.595797
325.623045
325.346053
323.395855
320.414148
317.043643
340.917947
340.453879
341.438847
354.557337
367.845222
381.771793
328.967281
316.701264
365.476758
363.548574
374.09221
398.401368
432.817887
463.695829
525.446197
571.41398
614.2914
661.583793
788.086098
825.25051
865.118552
903.625049
944.517941
985.651188
1023.61358
1058.71829
1093.04871
1126.54241
1158.24227
1187.63269
1216.25655
1241.96128
1266.6816
1287.18549
1305.87657
1322.60902
1339.0426
1354.11121
1368.59326
1382.21164
1394.87628
1407.67543
1419.73975
1433.40091
1443.71129
1456.52542
1466.51136
1477.91988
1487.16226
1497.04673
1506.67236
1516.6296
1525.18171
1532.53747
1539.1417
1545.39887
1551.34371
1557.21803
1563.03038
1568.55265
1573.97196
1579.10754
1584.59891
1590.15927
1596.35728
1602.1725
1607.06115
1611.97896
1616.35879
1620.60867
1624.43052
1628.45916
1631.92461
1635.52661
1638.66998
1642.11491
1645.25468
1649.0937
1652.83981
1657.18073
1660.49084
1664.4085
1667.05883
1670.23371
1672.58338
1675.59539
1677.77699
1680.64638
1682.66641
1685.35933
1687.20323
1689.72664
1691.42121
1693.78655
1695.35166
1697.37865
1698.78027
1700.58041
1701.89117
1703.64175
1704.92936
1706.65155
1708.07621
1709.71806
1711.07577
1712.47233
1713.75267
1715.01419
1716.25462
1717.39418
)
;

boundaryField
{
    closed
    {
        type            fixedValue;
        value           nonuniform List<scalar> 0();
    }
    open
    {
        type            zeroGradient;
    }
    sides
    {
        type            empty;
    }
    procBoundary4to3
    {
        type            processor;
        value           uniform 339.065956;
    }
    procBoundary4to5
    {
        type            processor;
        value           uniform 1718.59148;
    }
}


// ************************************************************************* //
