/*--------------------------------*- C++ -*----------------------------------*\
| =========                 |                                                 |
| \\      /  F ield         | OpenFOAM: The Open Source CFD Toolbox           |
|  \\    /   O peration     | Version:  2306                                  |
|   \\  /    A nd           | Website:  www.openfoam.com                      |
|    \\/     M anipulation  |                                                 |
\*---------------------------------------------------------------------------*/
FoamFile
{
    version     2.0;
    format      ascii;
    arch        "LSB;label=32;scalar=64";
    class       volScalarField;
    location    "0.00086";
    object      rho;
}
// * * * * * * * * * * * * * * * * * * * * * * * * * * * * * * * * * * * * * //

dimensions      [1 -3 0 0 0 0 0];

internalField   nonuniform List<scalar> 
530
(
0.904001337
0.9285903
0.93310026
0.93587395
0.938010334
0.936495012
0.934031227
0.934501245
0.936113657
0.935897387
0.934897002
0.934336534
0.934242002
0.934861594
0.935351714
0.935022943
0.934071782
0.933884826
0.936361833
0.937111604
0.930885513
0.929557743
0.938568061
0.943195827
0.940873039
0.939056387
0.934344699
0.929439292
0.931567131
0.932779146
0.928227464
0.927473467
0.933159589
0.938931382
0.940205596
0.937537573
0.934255438
0.934104967
0.936011426
0.936504277
0.935224864
0.935566192
0.936633585
0.936418526
0.936002213
0.936398955
0.936344311
0.935994642
0.936032808
0.935882992
0.935701946
0.935587378
0.935515408
0.93547214
0.935430529
0.935377681
0.935327031
0.935289097
0.935265816
0.935252688
0.935247974
0.935257113
0.935288346
0.93535108
0.935456266
0.935615189
0.935833003
0.936097937
0.93639957
0.93672015
0.937023032
0.937297223
0.937537244
0.937736545
0.937892647
0.938008068
0.938089907
0.938145313
0.938178587
0.938192352
0.938188817
0.938168766
0.938132975
0.938087341
0.938026778
0.937961212
0.937921076
0.937953754
0.937932242
0.937113178
0.935993981
0.937290207
0.941439061
0.94253462
0.94025404
0.90327488
0.90613309
0.942073924
0.953519395
0.950159965
0.950225243
0.932040708
0.904850847
0.906623884
0.905179733
0.909661796
0.962922054
0.963205675
0.951822794
0.95349631
0.936164379
0.905592668
0.905335487
0.908304799
0.957002553
0.95709361
0.949038506
0.935379174
0.905352303
0.905106013
0.907840176
0.955608829
0.955703765
0.947192712
0.938336048
0.90412913
0.907691418
0.946605651
0.938630047
0.90373972
0.907493287
0.960262954
0.960675869
0.938749224
0.904272795
0.906695907
0.950554846
0.938377525
0.903661894
0.906502336
0.950979142
0.940434856
0.903366351
0.906415015
0.952235196
0.941484777
0.903263259
0.906238529
0.952626523
0.942085711
0.903220916
0.905963541
0.952673124
0.9425097
0.903194546
0.905657711
0.953129027
0.941356042
0.903293012
0.905641906
0.963616607
0.96495136
0.938114017
0.904199635
0.904176515
0.953446312
0.939440786
0.903553798
0.904531371
0.962786466
0.964292249
0.937810639
0.903924587
0.90351587
0.95260336
0.942265779
0.903211173
0.903697147
0.951772287
0.944623836
0.902948678
0.903715344
0.952279519
0.945372873
0.902833486
0.90364168
0.952637716
0.945803088
0.902867447
0.903498655
0.953324889
0.9442378
0.902956429
0.903855135
0.961737115
0.964824938
0.937990519
0.904111107
0.902227728
0.951947842
0.943221852
0.903320129
0.902637429
0.95158977
0.943566435
0.903120186
0.90325903
0.960006688
0.9637096
0.938015189
0.90427733
0.902008212
0.952140807
0.942516502
0.903536428
0.902917077
0.959652711
0.963973315
0.93807445
0.904210348
0.901970895
0.951568648
0.94562176
0.903420795
0.902471687
0.951235896
0.947913677
0.903156163
0.902542933
0.95208613
0.948613408
0.903083476
0.902594836
0.953184085
0.946844193
0.903051913
0.90297233
0.959981551
0.965046093
0.938544506
0.90429695
0.901472396
0.952448318
0.946795596
0.903326925
0.902178334
0.952071279
0.949467824
0.902902083
0.901978201
0.953437006
0.947878803
0.902715835
0.902408692
0.95721235
0.96219856
0.938301701
0.903728438
0.900710326
0.948653637
0.944724102
0.902613781
0.901264903
0.948262096
0.944307384
0.902286166
0.901598749
0.95298412
0.958521288
0.937211963
0.903533027
0.900521612
0.944485122
0.940541444
0.902726752
0.901236603
0.953184203
0.958283842
0.946755846
0.947953466
0.935831691
0.902806894
0.90026601
0.948432076
0.955655855
0.936486156
0.902712254
0.900028839
0.939727852
0.939458081
0.902311863
0.900536892
0.939659202
0.939552099
0.902665126
0.90138948
0.950059239
0.958212857
0.947129041
0.956173609
0.938202595
0.905341002
0.902395642
0.90371785
0.946175856
0.951183955
0.925926873
0.903501205
0.901258603
0.93814387
0.941601622
0.903678376
0.901198273
0.9475071
0.959663
0.937948217
0.90337708
0.900162194
0.94670746
0.95907654
0.938208351
0.903612072
0.900416924
0.941006579
0.943290478
0.904077055
0.901496798
0.945352292
0.959017342
0.938102925
0.904316338
0.901172111
0.943743834
0.957761792
0.937777242
0.904631088
0.901832843
0.942906205
0.957306077
0.938065164
0.905100704
0.902088094
0.945324575
0.955281965
0.949402432
0.938575009
0.904701899
0.902851873
0.944777123
0.959986029
0.939750754
0.905344331
0.902714488
0.945940563
0.960271429
0.9404426
0.905457297
0.902826448
0.941534428
0.945256491
0.905509508
0.903780913
0.943684667
0.946057087
0.905067192
0.904523741
0.950207377
0.96367517
0.941026045
0.905441768
0.90371759
0.949517043
0.96237237
0.94097531
0.905265943
0.90402304
0.945225307
0.945885699
0.904594293
0.904662766
0.950488985
0.962013966
0.940665089
0.905195472
0.904078087
0.944604478
0.944424045
0.904326467
0.904499536
0.950809686
0.962451197
0.939630551
0.904781008
0.903530806
0.950619792
0.962632008
0.939212468
0.904177006
0.90315191
0.950501195
0.962035242
0.939284873
0.903684819
0.902645137
0.944427866
0.944400242
0.902737813
0.902720426
0.945947118
0.944758459
0.902127146
0.902197462
0.952127423
0.963091648
0.93826694
0.902845105
0.9011188
0.942914604
0.943819711
0.902212977
0.901097126
0.943444783
0.943661007
0.901507712
0.900346553
0.9483475
0.960675579
0.935931776
0.901526539
0.898975369
0.937885869
0.940750875
0.900848266
0.897628072
0.941015974
0.956734681
0.931909487
0.898225096
0.894051386
0.92937585
0.934763537
0.897803295
0.890800149
0.927503317
0.948638949
0.931332268
0.89264776
0.886268692
0.921550513
0.927136442
0.900191083
0.885245304
0.920214999
0.926419111
0.903634149
0.886157981
0.920436567
0.926757088
0.908194661
0.888980355
0.923040359
0.94319318
0.939837545
0.904153488
0.893118002
0.925932388
0.945811331
0.946636622
0.911964786
0.899328188
0.93233211
0.940358484
0.92799459
0.905558211
0.93929298
0.960995827
0.958879021
0.920558204
0.911547427
0.945123422
0.963542669
0.959838811
0.921414579
0.916244473
0.949000333
0.952090548
0.93394496
0.919043573
0.952221171
0.968175834
0.953347716
0.918505755
0.919297764
0.951220634
0.967059079
0.951727146
0.916568039
0.91863313
0.950208165
0.964825158
0.949395941
0.913644091
0.913766409
0.913526752
0.920177222
0.952260019
0.967184732
0.961715952
0.96001065
0.946843439
0.912632878
0.916669291
0.946101931
0.953166193
0.941393005
0.910412214
0.915698626
0.945003316
0.956853853
0.943135639
0.909569613
0.915328301
0.945168631
0.958247705
0.943130408
0.908488538
0.913915108
0.943866908
0.952947423
0.939690315
)
;

boundaryField
{
    closed
    {
        type            calculated;
        value           uniform 0.578366472;
    }
    open
    {
        type            calculated;
        value           nonuniform List<scalar> 0();
    }
    sides
    {
        type            empty;
    }
    procBoundary0to1
    {
        type            processor;
        value           uniform 0.907415807;
    }
}


// ************************************************************************* //
