/*--------------------------------*- C++ -*----------------------------------*\
| =========                 |                                                 |
| \\      /  F ield         | OpenFOAM: The Open Source CFD Toolbox           |
|  \\    /   O peration     | Version:  2306                                  |
|   \\  /    A nd           | Website:  www.openfoam.com                      |
|    \\/     M anipulation  |                                                 |
\*---------------------------------------------------------------------------*/
FoamFile
{
    version     2.0;
    format      ascii;
    arch        "LSB;label=32;scalar=64";
    class       volScalarField;
    location    "0.00142";
    object      PV;
}
// * * * * * * * * * * * * * * * * * * * * * * * * * * * * * * * * * * * * * //

dimensions      [0 0 0 0 0 0 0];

internalField   nonuniform List<scalar> 
530
(
0.00765983312
0.00766595642
0.00767166952
0.0076776061
0.00768314576
0.00768890452
0.00769427734
0.00769986862
0.00770507889
0.00771047115
0.00771548862
0.00772071305
0.00772558012
0.00773064318
0.00773536407
0.00774027378
0.00774485257
0.00774961579
0.00775405707
0.00775867967
0.00776298846
0.00776747557
0.00777165727
0.00777601374
0.00778007358
0.00778429665
0.00778819286
0.00779225372
0.00779603202
0.00779997567
0.00780363507
0.00780744004
0.00781091177
0.00781453918
0.00781790566
0.00782142318
0.00782468551
0.00782809747
0.00783125763
0.00783456752
0.00783762805
0.00784083898
0.00784380254
0.00784691746
0.00784978668
0.0078528084
0.00785558584
0.00785851702
0.00786120523
0.0078640482
0.00786664991
0.00786940605
0.00787190859
0.00787456197
0.00787697548
0.00787954759
0.00788187648
0.00788436801
0.00788661384
0.00788902572
0.00789118962
0.00789352286
0.00789560577
0.00789786139
0.00789986415
0.00790204315
0.00790396649
0.00790606984
0.00790791446
0.00790994306
0.00791170964
0.00791366435
0.00791535354
0.00791723517
0.00791884762
0.00792065693
0.0079221933
0.007923931
0.00792539198
0.00792705871
0.00792844503
0.00793004138
0.00793135379
0.00793288032
0.00793411962
0.00793557683
0.00793674387
0.0079381322
0.00793922791
0.00794054773
0.00794157313
0.00794282471
0.00794378093
0.00794496442
0.00794585277
0.00794696808
0.00794779023
0.00794883669
0.00794959138
0.00795056056
0.00795125524
0.00795214502
0.00795277596
0.00795359342
0.00795416622
0.00795491395
0.0079554265
0.00795609737
0.00795655556
0.00795714693
0.00795755277
0.0079580636
0.00795841794
0.00795884786
0.00795915119
0.00795950014
0.00795975277
0.00796002082
0.00796022305
0.00796041025
0.00796056252
0.0079606688
0.00796077181
0.00796079672
0.00796085186
0.00796079418
0.00796080539
0.00796066087
0.00796063177
0.00796039466
0.00796032961
0.00795999932
0.00795989884
0.00795947617
0.00795933967
0.00795882616
0.00795865253
0.00795805017
0.00795783793
0.00795714896
0.00795689653
0.0079561233
0.00795582904
0.00795497392
0.00795463625
0.00795370154
0.007953319
0.00795230694
0.00795187818
0.00795079091
0.00795031471
0.00794915425
0.00794862956
0.00794739781
0.00794682375
0.0079455225
0.0079448983
0.00794352923
0.00794285428
0.00794141896
0.00794069281
0.00793919272
0.007938415
0.00793685156
0.00793602204
0.00793439657
0.00793351513
0.0079318289
0.00793089552
0.00792914976
0.00792816449
0.0079263604
0.00792532337
0.00792346212
0.00792237354
0.00792045629
0.00791931641
0.00791734436
0.00791615345
0.00791412781
0.00791288615
0.00791080822
0.00790951607
0.00790738723
0.00790604478
0.00790386654
0.0079024739
0.00790024789
0.0078988051
0.00789653304
0.00789504008
0.00789272378
0.00789118063
0.00788882189
0.00788722863
0.00788482914
0.0078831862
0.00788074725
0.00787905584
0.00787657819
0.00787485331
0.00787233479
0.00787053956
0.00786800814
0.00786615027
0.00786361619
0.00786168843
0.00785914213
0.00785714634
0.00785458723
0.00785252583
0.007849953
0.00784782867
0.00784524109
0.0078430566
0.00784045324
0.00783821139
0.00783559123
0.0078332948
0.00783065694
0.00782830862
0.00782565225
0.00782325466
0.00782057909
0.00781813473
0.00781543941
0.00781295065
0.00781023519
0.00780770427
0.00780496838
0.00780239744
0.00779964098
0.00779703202
0.00779425497
0.00779160989
0.00778881234
0.00778613296
0.00778331509
0.00778060312
0.0077777638
0.00777501592
0.00777215323
0.00776937573
0.00776649377
0.00776368817
0.00776078747
0.00775795526
0.00775503641
0.00775217902
0.00774924266
0.00774636149
0.00774340831
0.00774050473
0.00773753545
0.00773461078
0.00773162619
0.00772868174
0.00772568263
0.00772271968
0.00771970688
0.00771672669
0.00771370106
0.00771070487
0.00770766728
0.00770465632
0.00770160767
0.00769858314
0.00769552433
0.00769248743
0.00768941939
0.00768637129
0.00768329496
0.00768023682
0.00767715314
0.00767408611
0.00767099604
0.00766792125
0.00766482575
0.00766174302
0.00765863876
0.00765554803
0.00765244105
0.00764934681
0.00764623808
0.0076431414
0.00764003188
0.00763693383
0.00763382448
0.00763072609
0.00762761785
0.00762452017
0.00762141398
0.00761831801
0.0076152148
0.00761212155
0.00760902225
0.00760593269
0.00760283821
0.00759975331
0.00759666456
0.00759358528
0.00759050314
0.00758743041
0.00758435576
0.00758129051
0.00757822422
0.00757516734
0.00757211026
0.00756906265
0.00756601562
0.00756297814
0.00755994199
0.0075569155
0.00755389105
0.00755087637
0.00754786442
0.00754486236
0.0075418637
0.00753887505
0.00753589048
0.00753291599
0.00752994628
0.00752698326
0.00752402386
0.00752107466
0.00751813107
0.00751519796
0.00751227095
0.00750935469
0.00750644502
0.00750354632
0.00750065472
0.00749777431
0.00749490148
0.00749204006
0.0074891867
0.00748634495
0.00748351171
0.0074806903
0.00747787784
0.00747507742
0.00747228636
0.00746950756
0.00746673851
0.00746398193
0.00746123549
0.00745850172
0.00745577844
0.00745306805
0.0074503685
0.00744768203
0.00744500673
0.00744234471
0.00743969416
0.0074370571
0.0074344318
0.00743182017
0.00742922059
0.00742663486
0.00742406145
0.00742150205
0.00741895523
0.00741642259
0.00741390276
0.00741139729
0.00740890484
0.0074064269
0.00740396219
0.00740151216
0.00739907553
0.00739665372
0.0073942455
0.00739185225
0.00738947272
0.00738710832
0.00738475776
0.00738242249
0.00738010116
0.00737779528
0.00737550341
0.00737322716
0.00737096478
0.00736871464
0.00736647886
0.00736425901
0.00736205372
0.00735986433
0.00735768966
0.00735553089
0.00735338698
0.00735125897
0.00734914593
0.00734704878
0.0073449667
0.00734290053
0.00734084949
0.00733881435
0.0073367944
0.00733479036
0.00733280155
0.00733082863
0.00732887098
0.00732692921
0.00732500272
0.0073230921
0.00732119676
0.00731931727
0.00731745305
0.00731560466
0.00731377152
0.00731195416
0.00731015204
0.00730836566
0.00730659448
0.00730483898
0.00730309866
0.00730137395
0.00729966437
0.00729797034
0.00729629138
0.0072946279
0.00729297944
0.00729134636
0.00728972823
0.00728812541
0.00728653746
0.00728496471
0.00728340678
0.00728186392
0.00728033582
0.00727882266
0.00727732418
0.00727584052
0.00727437151
0.00727291791
0.00727147877
0.00727005416
0.00726864386
0.00726724799
0.00726586631
0.00726449895
0.00726314563
0.00726180651
0.00726048131
0.00725917017
0.00725787282
0.00725658939
0.0072553196
0.0072540636
0.00725282111
0.00725159225
0.00725037675
0.00724917347
0.00724793977
0.00724663408
0.0072452533
0.00724379478
0.00724225563
0.00724063353
0.00723892602
0.00723713131
0.00723524763
0.00723327405
0.00723120983
0.00722905522
0.00722681093
0.00722447885
0.00722206164
0.00721956329
0.00721698893
0.00721434519
0.00721164019
0.00720888367
0.0072060872
0.00720326395
0.00720042914
0.0071975994
0.00719479343
0.00719203084
0.00718933295
0.00718672116
0.00718421777
0.00718184387
0.00717962011
0.00717756439
0.00717569236
0.00717401536
0.00717254056
0.00717126989
0.00717019959
0.00716932096
0.00716861938
0.00716807698
0.00716767174
0.00716738092
0.00716718118
0.00716705108
0.00716697065
0.0071669262
0.00716690975
0.00716690573
0.0071669043
0.00716690358
0.00716690324
0.00716690302
0.00716690293
0.00716690289
0.00716690287
0.00716690286
0.00716690286
0.00716690286
0.00716690286
0.00716690286
0.00716690286
0.00716690286
0.00716690286
0.00716690286
0.00716690286
0.00716690286
0.00716690286
0.00716690286
0.00716690286
0.00716690286
0.00716690286
0.00716690286
0.00716690286
0.00716690286
0.00716690286
0.00716690286
0.00716690286
)
;

boundaryField
{
    closed
    {
        type            zeroGradient;
    }
    open
    {
        type            zeroGradient;
    }
    sides
    {
        type            empty;
    }
    procBoundary5to4
    {
        type            processor;
        value           uniform 0.00765393466;
    }
}


// ************************************************************************* //
