/*--------------------------------*- C++ -*----------------------------------*\
| =========                 |                                                 |
| \\      /  F ield         | OpenFOAM: The Open Source CFD Toolbox           |
|  \\    /   O peration     | Version:  2306                                  |
|   \\  /    A nd           | Website:  www.openfoam.com                      |
|    \\/     M anipulation  |                                                 |
\*---------------------------------------------------------------------------*/
FoamFile
{
    version     2.0;
    format      ascii;
    arch        "LSB;label=32;scalar=64";
    class       volVectorField;
    location    "0.00142";
    object      U;
}
// * * * * * * * * * * * * * * * * * * * * * * * * * * * * * * * * * * * * * //

dimensions      [0 1 -1 0 0 0 0];

internalField   nonuniform List<vector> 
530
(
(2.02221782 0 0)
(1.78978579 0 0)
(1.55559018 0 0)
(1.31993385 0 0)
(1.0827934 0 0)
(0.844496684 0 0)
(0.605061421 0 0)
(0.364845739 0 0)
(0.123879154 0 0)
(-0.117523508 0 0)
(-0.359216062 0 0)
(-0.600780956 0 0)
(-0.842127466 0 0)
(-1.082856 0 0)
(-1.32284744 0 0)
(-1.56171262 0 0)
(-1.79931703 0 0)
(-2.03527599 0 0)
(-2.26944307 0 0)
(-2.50143211 0 0)
(-2.73107745 0 0)
(-2.95798037 0 0)
(-3.18194092 0 0)
(-3.40252629 0 0)
(-3.61949356 0 0)
(-3.83240747 0 0)
(-4.0409632 0 0)
(-4.24459526 0 0)
(-4.44292096 0 0)
(-4.63537915 0 0)
(-4.82150388 0 0)
(-5.00064088 0 0)
(-5.17228195 0 0)
(-5.33580583 0 0)
(-5.49065319 0 0)
(-5.63615896 0 0)
(-5.77177374 0 0)
(-5.89688068 0 0)
(-6.01096781 0 0)
(-6.11350262 0 0)
(-6.20405279 0 0)
(-6.28221213 0 0)
(-6.34766657 0 0)
(-6.40017099 0 0)
(-6.4395598 0 0)
(-6.4657729 0 0)
(-6.47881175 0 0)
(-6.47881221 0 0)
(-6.4659481 0 0)
(-6.4405482 0 0)
(-6.40294449 0 0)
(-6.35363251 0 0)
(-6.29312559 0 0)
(-6.22208179 0 0)
(-6.14106768 0 0)
(-6.05083481 0 0)
(-5.95206527 0 0)
(-5.84559015 0 0)
(-5.73212897 0 0)
(-5.61254532 0 0)
(-5.48756358 0 0)
(-5.3580434 0 0)
(-5.22468245 0 0)
(-5.08830389 0 0)
(-4.94955226 0 0)
(-4.80918847 0 0)
(-4.66778401 0 0)
(-4.52601909 0 0)
(-4.38437914 0 0)
(-4.24345241 0 0)
(-4.10363187 0 0)
(-3.96540908 0 0)
(-3.82908398 0 0)
(-3.69505229 0 0)
(-3.56352499 0 0)
(-3.43480719 0 0)
(-3.30902848 0 0)
(-3.18641163 0 0)
(-3.06701453 0 0)
(-2.95098775 0 0)
(-2.8383286 0 0)
(-2.72912621 0 0)
(-2.62332831 0 0)
(-2.52097361 0 0)
(-2.42197093 0 0)
(-2.32631858 0 0)
(-2.23389617 0 0)
(-2.14467082 0 0)
(-2.05850134 0 0)
(-1.97533166 0 0)
(-1.89500695 0 0)
(-1.81745469 0 0)
(-1.74251245 0 0)
(-1.67009698 0 0)
(-1.6000431 0 0)
(-1.53226153 0 0)
(-1.46658746 0 0)
(-1.40293179 0 0)
(-1.3411417 0 0)
(-1.28113008 0 0)
(-1.22271864 0 0)
(-1.16584879 0 0)
(-1.11039486 0 0)
(-1.05626746 0 0)
(-1.0033354 0 0)
(-0.951501267 0 0)
(-0.900680304 0 0)
(-0.850809032 0 0)
(-0.801804909 0 0)
(-0.753615959 0 0)
(-0.706177178 0 0)
(-0.659450594 0 0)
(-0.613391769 0 0)
(-0.567976907 0 0)
(-0.523182367 0 0)
(-0.478998447 0 0)
(-0.435421655 0 0)
(-0.392455808 0 0)
(-0.350115807 0 0)
(-0.308418016 0 0)
(-0.267393363 0 0)
(-0.227068624 0 0)
(-0.187488187 0 0)
(-0.148685508 0 0)
(-0.110717928 0 0)
(-0.0736259479 0 0)
(-0.0374616528 0 0)
(-0.00226858186 0 0)
(0.0318870891 0 0)
(0.0649636308 0 0)
(0.0969020427 0 0)
(0.127665605 0 0)
(0.157199828 0 0)
(0.18547473 0 0)
(0.212444315 0 0)
(0.238087753 0 0)
(0.262370263 0 0)
(0.28528185 0 0)
(0.306800887 0 0)
(0.326929277 0 0)
(0.345659708 0 0)
(0.363006393 0 0)
(0.378976701 0 0)
(0.393596925 0 0)
(0.406888733 0 0)
(0.418889687 0 0)
(0.429634691 0 0)
(0.439171263 0 0)
(0.447545914 0 0)
(0.454814408 0 0)
(0.46103281 0 0)
(0.466263139 0 0)
(0.470568676 0 0)
(0.474015555 0 0)
(0.476671799 0 0)
(0.478605497 0 0)
(0.479886936 0 0)
(0.480584081 0 0)
(0.480767139 0 0)
(0.480502056 0 0)
(0.479856839 0 0)
(0.47889377 0 0)
(0.477676839 0 0)
(0.476263333 0 0)
(0.474711761 0 0)
(0.473073409 0 0)
(0.471400216 0 0)
(0.469736805 0 0)
(0.468127831 0 0)
(0.466610917 0 0)
(0.46522307 0 0)
(0.463994872 0 0)
(0.462955642 0 0)
(0.462129133 0 0)
(0.461537207 0 0)
(0.461197209 0 0)
(0.461123995 0 0)
(0.46132908 0 0)
(0.46182093 0 0)
(0.462605923 0 0)
(0.463686859 0 0)
(0.465065729 0 0)
(0.466740464 0 0)
(0.468709442 0 0)
(0.470966546 0 0)
(0.473507294 0 0)
(0.476322336 0 0)
(0.479405042 0 0)
(0.48274361 0 0)
(0.486329903 0 0)
(0.490150384 0 0)
(0.494195955 0 0)
(0.498451963 0 0)
(0.502908773 0 0)
(0.507551081 0 0)
(0.512368794 0 0)
(0.51734637 0 0)
(0.522474274 0 0)
(0.527738773 0 0)
(0.533133384 0 0)
(0.538637381 0 0)
(0.544241538 0 0)
(0.549936004 0 0)
(0.555711473 0 0)
(0.561554777 0 0)
(0.567459899 0 0)
(0.573415975 0 0)
(0.579416475 0 0)
(0.585450926 0 0)
(0.591513746 0 0)
(0.59759554 0 0)
(0.603691514 0 0)
(0.609793363 0 0)
(0.615896955 0 0)
(0.621995048 0 0)
(0.628084111 0 0)
(0.634157894 0 0)
(0.640213414 0 0)
(0.646245328 0 0)
(0.652251153 0 0)
(0.658226361 0 0)
(0.664168922 0 0)
(0.670075038 0 0)
(0.675943083 0 0)
(0.681769909 0 0)
(0.687554246 0 0)
(0.693293518 0 0)
(0.698986772 0 0)
(0.704631931 0 0)
(0.710228318 0 0)
(0.715774293 0 0)
(0.721269421 0 0)
(0.726712441 0 0)
(0.732103126 0 0)
(0.737440552 0 0)
(0.742724685 0 0)
(0.747954883 0 0)
(0.753131176 0 0)
(0.758252952 0 0)
(0.763321024 0 0)
(0.768334603 0 0)
(0.773293349 0 0)
(0.778198239 0 0)
(0.783050058 0 0)
(0.78784898 0 0)
(0.792595598 0 0)
(0.797290261 0 0)
(0.801933704 0 0)
(0.806526426 0 0)
(0.811069254 0 0)
(0.815562815 0 0)
(0.820008023 0 0)
(0.824405623 0 0)
(0.828756607 0 0)
(0.833061828 0 0)
(0.837322348 0 0)
(0.841539113 0 0)
(0.845713251 0 0)
(0.849845786 0 0)
(0.8539379 0 0)
(0.857990683 0 0)
(0.862005358 0 0)
(0.865983067 0 0)
(0.86992506 0 0)
(0.873832512 0 0)
(0.877706687 0 0)
(0.881548776 0 0)
(0.885360038 0 0)
(0.889141661 0 0)
(0.892894881 0 0)
(0.896620864 0 0)
(0.900320805 0 0)
(0.903995825 0 0)
(0.90764706 0 0)
(0.91127557 0 0)
(0.914882408 0 0)
(0.91846853 0 0)
(0.92203487 0 0)
(0.925582481 0 0)
(0.929112097 0 0)
(0.932624267 0 0)
(0.936119859 0 0)
(0.939599551 0 0)
(0.943063928 0 0)
(0.946513477 0 0)
(0.949948636 0 0)
(0.953369752 0 0)
(0.956777113 0 0)
(0.960170919 0 0)
(0.963551307 0 0)
(0.966918326 0 0)
(0.970271966 0 0)
(0.973612132 0 0)
(0.976938673 0 0)
(0.980251356 0 0)
(0.983549898 0 0)
(0.986833943 0 0)
(0.990103085 0 0)
(0.993356858 0 0)
(0.996594752 0 0)
(0.999816204 0 0)
(1.00302062 0 0)
(1.00620735 0 0)
(1.00937574 0 0)
(1.01252509 0 0)
(1.01565467 0 0)
(1.01876375 0 0)
(1.02185158 0 0)
(1.02491741 0 0)
(1.02796047 0 0)
(1.03097999 0 0)
(1.03397524 0 0)
(1.03694546 0 0)
(1.03988991 0 0)
(1.0428079 0 0)
(1.04569871 0 0)
(1.04856169 0 0)
(1.0513962 0 0)
(1.05420167 0 0)
(1.0569775 0 0)
(1.05972271 0 0)
(1.06243585 0 0)
(1.06511937 0 0)
(1.06777372 0 0)
(1.07039576 0 0)
(1.07298519 0 0)
(1.07554192 0 0)
(1.07806576 0 0)
(1.0805565 0 0)
(1.08301393 0 0)
(1.08543794 0 0)
(1.08782843 0 0)
(1.09018535 0 0)
(1.09250869 0 0)
(1.0947985 0 0)
(1.09705483 0 0)
(1.0992778 0 0)
(1.10146755 0 0)
(1.10362426 0 0)
(1.10574814 0 0)
(1.10783944 0 0)
(1.10989843 0 0)
(1.11192541 0 0)
(1.11392071 0 0)
(1.11588469 0 0)
(1.11781771 0 0)
(1.11972017 0 0)
(1.12159251 0 0)
(1.12343514 0 0)
(1.12524852 0 0)
(1.12703313 0 0)
(1.12878944 0 0)
(1.13051794 0 0)
(1.13221915 0 0)
(1.13389357 0 0)
(1.13554173 0 0)
(1.13716416 0 0)
(1.1387614 0 0)
(1.14033398 0 0)
(1.14188246 0 0)
(1.14340738 0 0)
(1.14490929 0 0)
(1.14638876 0 0)
(1.14784634 0 0)
(1.14928258 0 0)
(1.15069805 0 0)
(1.15209331 0 0)
(1.15346891 0 0)
(1.15482542 0 0)
(1.1561634 0 0)
(1.15748341 0 0)
(1.15878601 0 0)
(1.16007177 0 0)
(1.16134124 0 0)
(1.162595 0 0)
(1.16383361 0 0)
(1.16505763 0 0)
(1.16626764 0 0)
(1.1674642 0 0)
(1.16864787 0 0)
(1.1698193 0 0)
(1.17097939 0 0)
(1.17212848 0 0)
(1.17326682 0 0)
(1.17439519 0 0)
(1.17551426 0 0)
(1.17662464 0 0)
(1.17772697 0 0)
(1.17882185 0 0)
(1.17990994 0 0)
(1.18099188 0 0)
(1.18206833 0 0)
(1.18313997 0 0)
(1.18420746 0 0)
(1.18527151 0 0)
(1.1863328 0 0)
(1.18739207 0 0)
(1.18845002 0 0)
(1.1895074 0 0)
(1.19056496 0 0)
(1.19162344 0 0)
(1.19268363 0 0)
(1.19374629 0 0)
(1.19481223 0 0)
(1.19588224 0 0)
(1.19695714 0 0)
(1.19803773 0 0)
(1.19912486 0 0)
(1.20021934 0 0)
(1.20132203 0 0)
(1.20243376 0 0)
(1.20355538 0 0)
(1.20468774 0 0)
(1.2058317 0 0)
(1.20698811 0 0)
(1.20815782 0 0)
(1.20934166 0 0)
(1.2105405 0 0)
(1.21175514 0 0)
(1.21298643 0 0)
(1.21423518 0 0)
(1.21550218 0 0)
(1.21678822 0 0)
(1.21809407 0 0)
(1.21942048 0 0)
(1.22076818 0 0)
(1.22213787 0 0)
(1.22353022 0 0)
(1.22494591 0 0)
(1.22638552 0 0)
(1.22784957 0 0)
(1.22933847 0 0)
(1.23085333 0 0)
(1.23239741 0 0)
(1.23396966 0 0)
(1.23556743 0 0)
(1.23719196 0 0)
(1.23884399 0 0)
(1.2405238 0 0)
(1.24223153 0 0)
(1.24396732 0 0)
(1.24573124 0 0)
(1.24752331 0 0)
(1.2493435 0 0)
(1.25119172 0 0)
(1.25306781 0 0)
(1.25497155 0 0)
(1.25690267 0 0)
(1.25886082 0 0)
(1.26084558 0 0)
(1.26285647 0 0)
(1.26489295 0 0)
(1.26695679 0 0)
(1.26912264 0 0)
(1.27147183 0 0)
(1.27401989 0 0)
(1.27678387 0 0)
(1.27978204 0 0)
(1.28303354 0 0)
(1.28655828 0 0)
(1.29037661 0 0)
(1.29450883 0 0)
(1.29897455 0 0)
(1.30379177 0 0)
(1.3089756 0 0)
(1.31453667 0 0)
(1.32047906 0 0)
(1.32679763 0 0)
(1.33347491 0 0)
(1.34047737 0 0)
(1.34775138 0 0)
(1.35521891 0 0)
(1.36277358 0 0)
(1.37027773 0 0)
(1.37756138 0 0)
(1.38442448 0 0)
(1.39064357 0 0)
(1.39598423 0 0)
(1.40022023 0 0)
(1.40315997 0 0)
(1.40467903 0 0)
(1.40475791 0 0)
(1.40352224 0 0)
(1.40123997 0 0)
(1.39843275 0 0)
(1.39561583 0 0)
(1.39345597 0 0)
(1.39236499 0 0)
(1.39237715 0 0)
(1.39280924 0 0)
(1.39230374 0 0)
(1.38895013 0 0)
(1.38087112 0 0)
(1.36789863 0 0)
(1.3527083 0 0)
(1.34233271 0 0)
(1.34500578 0 0)
(1.36573014 0 0)
(1.40272209 0 0)
(1.44627561 0 0)
(1.48974408 0 0)
(1.55289779 0 0)
(1.59865369 0 0)
(1.53129835 0 0)
(1.35021466 0 0)
(1.1800782 0 0)
(1.06160319 0 0)
(0.929338375 0 0)
(0.827032658 0 0)
(0.896210264 0 0)
(1.12115638 0 0)
(1.39016613 0 0)
(1.76010365 0 0)
(2.46532054 0 0)
(3.3837019 0 0)
(3.98123053 0 0)
(3.81856775 0 0)
(3.24076523 0 0)
(2.76872732 0 0)
(2.63633444 0 0)
(2.58791068 0 0)
(2.38409349 0 0)
(1.95186793 0 0)
(1.52470805 0 0)
(1.27556508 0 0)
(1.45993173 0 0)
(1.79024418 0 0)
(1.773256 0 0)
(1.48935719 0 0)
(1.48072677 0 0)
)
;

boundaryField
{
    closed
    {
        type            noSlip;
    }
    open
    {
        type            inletOutlet;
        inletValue      uniform (0 0 0);
        value           uniform (1.48072677 0 0);
    }
    sides
    {
        type            empty;
    }
    procBoundary5to4
    {
        type            processor;
        value           uniform (2.25295194 0 0);
    }
}


// ************************************************************************* //
