/*--------------------------------*- C++ -*----------------------------------*\
| =========                 |                                                 |
| \\      /  F ield         | OpenFOAM: The Open Source CFD Toolbox           |
|  \\    /   O peration     | Version:  2306                                  |
|   \\  /    A nd           | Website:  www.openfoam.com                      |
|    \\/     M anipulation  |                                                 |
\*---------------------------------------------------------------------------*/
FoamFile
{
    version     2.0;
    format      ascii;
    arch        "LSB;label=32;scalar=64";
    class       volScalarField;
    location    "0.00016";
    object      T;
}
// * * * * * * * * * * * * * * * * * * * * * * * * * * * * * * * * * * * * * //

dimensions      [0 0 0 1 0 0 0];

internalField   nonuniform List<scalar> 
3810
(
339.778608
339.146407
323.355091
326.441275
339.782113
338.933651
322.608387
325.395191
339.608878
338.785377
317.562374
320.868891
339.44827
338.862827
338.946195
338.656141
321.476773
321.116088
322.642631
329.227368
340.08561
339.653213
339.909625
339.429756
323.335379
321.356422
325.655271
324.128775
329.070389
340.024975
340.176208
328.933263
327.802853
336.645753
339.757827
329.579028
329.013397
340.113692
340.264526
339.933808
340.13669
339.525972
339.946536
339.226266
320.284097
319.56465
324.708719
322.466482
329.061518
339.798171
339.699081
322.920377
322.933488
325.026534
329.289669
339.985834
339.58908
324.596209
324.623139
326.375468
329.393933
340.018617
339.422496
324.379868
324.34295
329.203495
339.757472
339.637923
325.370515
329.569248
339.972536
339.420701
322.715174
322.659815
329.21642
339.837374
339.591103
323.930377
328.164767
340.06703
339.377228
323.29777
323.433576
332.229636
339.520701
339.796994
339.509617
339.862572
339.436589
323.384843
321.51298
326.258972
323.400787
329.035845
339.761132
339.780826
323.818758
328.012009
339.862229
339.531163
321.926921
321.882175
329.268023
339.820009
339.680016
322.689992
322.070696
329.254438
339.798303
339.829642
339.525143
324.388184
327.832127
339.719781
339.754655
339.459337
321.197882
318.008129
329.181289
339.714017
339.667845
339.700791
339.2931
317.696003
317.612157
326.09823
339.714718
339.465851
321.782637
322.692913
322.442758
329.310691
339.879718
339.939792
339.58987
325.405496
325.48679
340.01132
339.500927
325.082209
326.813471
340.071118
339.437795
323.03987
322.979681
326.180059
324.537981
329.131182
339.940172
339.979443
339.904045
339.842771
339.816183
339.741329
321.472443
321.485396
322.262801
327.551934
339.856999
339.760812
339.80126
339.638307
319.831153
317.85792
325.616643
339.779622
339.660135
320.39007
320.355763
324.100062
322.612789
328.304598
339.919507
340.064764
339.860978
340.02698
324.418413
328.47727
340.025078
340.02289
339.944411
327.020293
326.532834
329.13908
327.220412
329.316832
339.756212
340.014684
339.756259
339.843074
339.691881
339.58331
316.368298
316.331916
321.225142
321.254431
323.185434
323.592165
333.614019
339.367158
339.220634
339.310967
322.636212
323.259608
339.684616
339.313587
319.193532
319.015608
323.266481
321.500162
326.578854
335.920926
339.6747
338.968763
339.611
339.401972
339.578401
323.31519
323.297088
325.792991
329.543889
339.855806
339.878423
339.860819
339.689462
318.499169
318.392137
323.441771
321.466634
328.451514
339.768299
339.932797
339.61822
339.917997
321.576928
326.651679
339.676588
339.675683
339.749535
322.971383
322.912282
325.741505
329.417597
339.841772
339.904834
324.466825
324.223618
329.080229
339.770547
340.302503
325.087962
328.090253
339.946082
340.021545
323.330719
322.860759
329.082865
339.832666
340.337543
324.101045
327.45253
339.985996
340.000307
322.570131
321.949929
329.022506
339.758366
340.427573
323.099017
328.546251
340.010746
339.860042
340.193799
323.375532
326.308807
340.050408
339.672509
340.144059
320.641409
320.321415
322.9497
328.317629
339.603971
339.559237
339.83074
318.644086
318.10821
339.61024
339.85992
322.635157
324.233418
339.643666
339.979104
323.143351
323.281553
325.71829
329.026486
339.894212
340.5352
324.870708
329.012974
340.190031
340.135461
340.246465
324.026782
322.171001
329.582375
339.702378
340.068979
339.890523
340.059576
340.11
322.287992
321.490178
325.29279
326.043838
326.915019
329.384379
340.279669
340.290314
325.730239
325.665993
326.866734
327.666677
340.495359
340.264368
327.008251
340.155161
340.467829
319.208596
319.285248
323.510552
324.167979
325.371194
331.201269
339.834013
339.545197
340.072708
325.154854
328.322179
339.740431
339.765437
339.761419
322.162639
320.290846
329.263059
339.650268
340.135968
323.529182
327.203511
339.667124
340.068805
322.74607
329.232602
339.694671
339.746601
339.752639
319.995199
319.90903
324.293779
325.694987
325.883819
329.338675
339.902574
339.803847
324.278414
324.244979
329.16572
339.693632
339.994131
339.559549
339.859554
339.565481
321.969511
326.280017
339.615639
339.707693
339.319932
318.802467
318.677177
324.512699
322.416785
329.371156
339.644281
339.361904
339.62766
338.988826
319.770527
319.590426
328.922224
339.623022
339.21271
322.466806
322.504657
324.620907
329.264778
339.860154
339.936934
339.472457
339.783293
339.109997
321.469416
320.790716
329.380794
339.555611
339.216638
323.407239
329.29987
339.745564
339.849117
339.412478
321.392866
320.655386
329.027207
339.949713
339.9434
339.922107
339.429867
339.760838
338.81584
320.20198
320.152684
323.007484
322.901547
324.092847
325.746537
325.116923
329.303246
339.849232
339.414874
339.721183
339.012634
322.670087
322.663021
324.387311
324.705769
324.197629
329.036295
339.908201
339.70677
339.810347
339.238468
323.331175
323.290817
329.266571
340.206218
339.617385
328.902326
339.794101
340.253157
339.672853
340.045395
339.567313
322.337883
321.063425
323.792929
323.344857
323.516318
328.381954
340.146593
339.58745
323.36632
323.345896
324.257694
329.209781
340.126588
339.694367
340.034504
339.459079
323.662676
328.819319
339.947211
339.898638
339.803096
323.2253
322.924185
326.041399
328.525362
339.977889
339.693577
326.736988
328.428748
340.072664
339.541868
324.201095
324.213562
324.190133
328.668443
340.370329
340.077156
340.329433
339.90518
340.239859
339.775642
323.403726
321.127649
324.446005
322.597584
325.820793
323.636195
328.768471
340.112303
340.365914
340.05386
340.241417
339.98296
324.33033
323.180451
325.574238
327.398456
340.264433
339.817545
326.833467
324.179027
328.957062
339.842074
340.167684
324.604043
329.27122
340.062477
326.639277
324.90908
324.439233
329.449963
340.129789
339.723255
340.105323
324.217607
322.459997
339.67488
339.734692
321.03232
321.020759
320.151667
325.353437
339.744713
339.692567
339.703587
339.701058
339.633181
321.822891
322.465658
339.955861
339.496027
339.960174
321.795274
322.191648
339.699398
339.814357
339.672967
322.980735
319.670121
325.654371
322.605546
328.941534
339.642191
339.910169
324.564617
327.095516
340.00754
339.669054
340.066649
324.972424
321.967442
339.604286
339.790749
321.690229
320.322889
318.314934
322.050494
339.761021
339.51701
339.843307
339.54539
339.81823
323.068836
323.059978
339.922043
339.767447
340.025406
326.970751
319.254815
326.880574
339.957261
340.120898
326.434972
322.199779
325.830549
340.36102
339.813017
328.3971
322.888135
328.565477
339.661701
340.251274
324.424038
325.803289
340.08327
339.860355
340.093559
326.970794
323.312924
339.934332
339.80976
326.762554
325.324014
340.098625
340.026113
327.356835
324.122019
324.245346
324.563742
340.188799
339.978791
328.541088
324.398543
324.285408
324.687214
340.245571
339.687429
328.8861
320.210434
328.534557
340.03077
340.027953
340.018187
327.394246
322.927311
339.882287
339.952812
325.374875
324.076446
339.501011
334.711755
322.171993
321.860413
324.752245
321.859097
326.899008
339.82463
339.800372
339.807143
328.071986
324.024329
339.281527
339.851285
339.181421
339.96044
339.679387
339.994419
329.451591
324.604279
322.89509
323.301015
339.939775
339.62399
328.906411
322.014326
325.627974
339.149908
340.227316
330.188105
326.689034
338.61169
340.012497
328.534848
326.64661
338.532124
339.797326
339.597214
328.924776
319.99485
319.02141
320.16764
338.822387
339.360994
339.290527
329.849439
323.546587
337.985327
339.654006
328.093718
323.767184
337.673121
339.744189
326.951932
320.026153
322.450309
324.158201
321.815767
324.36696
338.949178
339.515746
339.471742
329.519897
327.931081
338.298576
339.816393
339.238079
340.296773
339.932323
340.587951
340.392181
329.636197
317.168034
317.746531
321.975957
319.711615
328.774258
339.114498
339.86339
339.480777
339.873508
321.763457
316.556831
324.400621
339.179039
339.956299
324.16281
323.197482
324.924872
329.590211
339.443095
339.858193
325.846857
323.735853
329.386472
339.343206
339.933539
339.443301
340.120387
323.417565
322.690346
339.424373
339.884698
322.628233
322.55021
324.106131
329.656584
339.70004
339.546644
339.695651
339.619121
319.824156
319.121016
327.656002
339.597715
339.837872
321.901793
325.607088
339.813152
339.596344
322.975312
322.995002
324.157518
329.364768
339.928192
339.549602
339.89202
339.257973
319.725126
319.587448
329.147074
339.715395
340.021684
339.304798
324.186854
326.82786
339.865462
339.160045
339.688366
338.605639
321.076436
320.976261
323.838125
329.377722
339.690861
338.629516
323.353908
328.005541
339.751086
338.410318
321.459556
328.217861
339.46622
339.657722
338.395884
321.119805
321.004332
323.313384
329.239389
339.742332
339.958809
338.555346
325.197822
329.503692
339.863095
338.941539
339.756616
337.911174
321.804245
321.716864
324.407574
329.455231
339.887312
338.53271
323.232243
323.154567
329.321861
339.706883
338.557257
323.34413
323.262903
329.271291
339.7467
338.819459
324.657075
324.626827
326.406877
329.46437
339.98693
339.114033
339.846347
338.35769
323.422224
323.412339
325.787445
329.494209
339.995531
338.900078
326.07819
329.623019
339.705076
339.829912
338.731717
326.687051
328.77322
340.06746
338.685583
325.312826
329.427045
339.970638
338.64408
321.721844
321.5397
329.329503
339.689289
339.248701
324.798212
329.266891
339.883915
338.962818
321.304892
321.15816
329.188428
339.632151
339.414059
339.599761
338.893056
320.364117
320.277165
324.49912
323.215907
329.284977
339.652642
339.27482
321.988679
321.90028
329.358293
339.526193
339.685318
339.266144
321.058097
321.078754
323.059733
329.287399
339.717826
339.552776
339.607446
339.010271
339.444578
338.681719
319.271746
319.182831
321.702873
328.739039
339.561959
339.769134
339.164034
324.974704
325.595325
339.802307
338.960858
324.431704
326.543255
339.868536
339.009941
323.779919
327.118483
339.852047
338.996521
320.610682
320.445695
328.216353
339.619516
339.513043
322.679428
326.406932
339.817
339.186674
320.413025
320.266922
327.447629
339.828788
339.947941
339.605759
339.788104
339.392374
320.756054
324.751345
339.613316
339.750895
339.277507
322.144144
323.354887
339.841846
339.199102
320.963405
320.824196
325.360011
323.449693
329.160652
339.755785
339.863709
339.77479
339.660675
323.76336
325.307766
339.841811
339.642564
323.752191
323.762038
325.943021
329.361753
339.906665
339.815568
326.822022
328.655118
339.958772
339.722206
326.473919
328.893767
340.017415
339.585716
323.680857
323.400566
329.24565
339.739779
339.785145
320.832399
320.567452
328.563993
339.788961
339.776424
339.75304
321.138517
324.4449
339.757136
339.661836
339.683062
317.687988
317.568696
321.955792
324.07026
323.771112
329.360838
339.809112
339.792814
339.78879
339.75325
339.739201
339.668645
320.965256
318.578959
329.106423
339.74898
339.68994
339.838526
322.628689
322.498861
323.923869
329.292787
339.890748
339.894782
339.959313
325.347381
325.220987
340.02844
339.854133
323.502631
323.463408
326.348777
327.681656
340.410004
339.874291
328.720252
339.961522
340.510543
320.099737
329.220852
340.035089
325.272204
325.140984
340.203662
339.892301
322.063812
321.988824
325.910005
324.985558
328.8805
339.908733
340.513243
326.51366
328.069253
340.112624
340.4753
326.543693
327.961234
340.138176
340.374144
326.042479
329.023502
340.033276
340.047337
340.006338
339.926689
339.98414
320.569885
320.228426
323.476409
323.580048
324.802763
326.201313
324.896985
329.824915
339.979938
339.851337
340.037448
324.462454
327.534914
339.918461
339.842163
339.852698
319.250764
319.069863
324.777092
323.220672
329.36308
339.789831
339.929625
339.794794
339.879893
323.744933
324.282531
339.86322
339.698232
324.034266
325.539198
339.932429
339.64505
323.034803
323.000021
326.338621
329.372527
339.986325
339.910612
326.623677
328.424249
340.128933
339.867818
326.310297
327.827182
340.209062
339.822554
325.998497
327.613763
340.235826
339.781229
325.82834
327.644847
340.209413
339.731009
325.328389
327.656676
340.160644
339.688417
322.593189
322.509931
326.538573
326.314277
329.494019
339.800303
340.02693
325.148222
327.615097
340.034787
339.814294
321.227534
321.118802
325.706921
325.685103
329.409462
339.58784
340.059651
339.455655
339.973164
339.412254
318.997994
318.298666
329.106873
339.477448
340.105651
320.133772
329.139002
339.576301
323.472638
321.281378
329.313911
339.641161
339.989944
323.833594
329.355477
339.883709
339.678388
339.86627
339.633329
318.648687
318.38264
329.222634
339.774898
339.925029
323.197227
327.608012
339.979883
339.758687
324.1122
324.086189
327.823223
329.368523
340.014217
339.842746
327.444653
329.401196
340.02658
339.676349
339.93113
339.619491
320.893992
320.831644
325.38986
326.535288
326.966124
329.507399
339.9992
339.819242
323.481297
323.449756
329.077837
339.909255
339.994357
324.289901
324.204263
325.958428
329.0251
339.92233
340.162505
323.49161
329.017848
340.026411
340.068005
340.044477
322.130478
321.989441
325.548581
329.146692
339.903261
340.070073
339.797859
340.041558
339.74547
339.971345
339.738645
339.859828
339.689621
313.929349
313.643397
320.550906
320.791904
325.506956
323.963392
329.267974
339.64852
340.113957
339.629532
340.140147
321.077096
320.831569
324.066049
324.38109
332.035382
339.643376
339.563327
339.750652
324.28516
322.164046
329.232399
339.570894
340.126134
339.618074
340.173503
321.325818
320.458781
324.222643
323.476128
330.251627
339.563678
339.850077
339.701792
339.808423
322.090846
319.004462
324.824546
339.5637
339.993246
323.131252
323.221157
323.264987
326.149268
339.689588
339.587489
323.563697
321.612863
324.571489
320.482209
325.953319
339.296131
339.785204
339.52206
339.955278
339.68879
324.979381
320.333488
329.095247
339.32299
340.056251
339.642876
339.979717
324.59957
320.646012
325.166882
339.593787
339.864081
323.898292
326.572886
339.896494
339.783002
340.031325
326.367099
323.505434
339.468449
339.868253
323.698397
324.123228
339.866534
339.839391
339.985776
325.169435
321.447689
322.559384
322.91608
339.719946
339.800471
326.802696
322.827803
324.706281
339.866177
339.742276
327.594923
322.870871
326.046166
339.793232
340.061634
339.959954
328.137978
321.448602
324.850802
339.652421
340.099697
325.681369
324.742374
339.471134
340.185991
325.838382
324.302779
339.544423
340.194627
325.335377
323.974296
339.598642
340.115018
325.201667
324.180938
339.689674
339.976314
324.408418
323.68661
339.971246
339.868766
340.054576
339.893174
327.592149
320.641743
324.590975
321.27813
324.229028
339.846067
339.999908
326.245306
326.575294
340.3036
340.001221
340.02925
329.277152
323.772771
323.86407
323.750535
340.310139
339.91291
326.891177
325.063417
340.631094
339.834528
328.790427
322.075709
324.114428
340.004344
340.223454
326.616464
325.922509
340.232003
340.111407
324.840903
325.420483
340.45259
340.197442
340.21419
340.182692
328.776743
323.052413
322.876405
323.061429
340.247897
339.88487
325.308054
327.051815
340.407146
340.057486
340.078655
329.165176
324.106784
323.810142
324.755615
340.295437
339.987863
340.036229
329.161238
323.299451
326.352674
340.476089
339.905293
328.897044
323.505245
326.005502
321.388598
324.821196
340.187385
340.193283
339.941053
340.224082
339.685291
328.787873
322.853561
325.267307
322.337089
323.997025
340.223263
339.792716
329.154054
323.176996
324.88236
340.117021
339.804345
326.709118
325.282282
340.477557
339.599727
327.974065
322.278417
324.559856
339.7842
339.775653
325.240257
325.553412
340.065093
339.908835
339.894807
339.910376
324.190314
322.564045
340.129023
339.758582
322.027079
321.664172
340.225113
339.521383
324.466719
320.593805
324.351956
320.397827
324.527827
339.746713
339.698182
339.629098
339.753736
339.597713
339.804668
339.617183
339.772825
322.550107
318.523594
321.65712
321.142484
322.626512
324.253995
323.080905
326.348736
339.774285
339.841964
339.657517
339.868689
339.553192
323.969898
320.782893
325.033747
321.215023
327.304
339.94962
339.986244
339.879557
339.947446
339.804934
324.097321
324.22608
340.106684
339.91317
340.07992
339.912417
322.414918
322.389904
323.887113
325.958417
340.118212
340.087823
326.113297
327.458382
340.18907
339.936089
325.54596
325.237037
327.690641
325.664845
328.978493
339.802189
340.211761
339.980627
340.125143
340.209484
321.847085
321.686501
323.679415
327.556669
340.117393
340.141235
323.763843
323.244374
329.064295
339.909126
340.419182
324.960363
325.058491
326.795919
329.251231
340.185561
340.301363
326.910881
326.549295
340.428383
339.909439
328.715861
339.743144
340.638625
322.35275
327.517061
339.757953
340.131454
321.922285
321.617553
329.25326
339.799454
340.148997
323.550443
323.593491
326.307691
329.298064
339.882432
340.02658
323.503426
323.358784
329.224438
339.66427
339.998706
324.467673
324.414144
327.58337
329.279054
339.811728
340.121215
326.18992
329.311107
339.660447
339.70196
339.71371
320.655441
320.123644
329.638807
339.549991
339.492877
339.561751
339.500406
317.644895
317.524316
324.016363
323.833886
330.025325
339.570963
339.513745
339.588076
339.169985
339.545648
338.900082
339.408305
338.945206
315.660301
315.449422
321.983429
322.242013
324.342222
325.741826
325.552747
329.559896
339.616923
339.628656
339.731478
322.757776
329.214763
339.330292
327.513159
328.048497
339.953194
339.327815
320.824871
320.711387
330.115001
339.487161
339.344515
339.632858
338.949567
339.667966
338.74741
323.034058
325.395993
339.785269
338.862141
318.755161
318.540024
323.379773
323.843004
326.134005
326.23577
329.205673
339.562212
340.091671
339.331738
323.130582
323.035333
329.825918
339.22778
339.91751
338.977315
339.833716
338.843595
320.61276
320.407827
326.124076
326.203458
329.404886
339.356191
339.989072
339.221998
322.066688
321.951326
326.514771
326.617182
329.445707
339.54305
340.015682
339.402308
321.849583
321.726722
329.268874
339.704241
339.681381
325.042026
329.487747
339.867258
339.354633
339.768972
339.162603
321.363754
321.279198
326.487757
329.568578
339.976849
339.42831
325.393621
328.359501
340.099407
339.290408
324.232576
327.428597
340.126488
339.245181
320.418465
320.255022
325.355047
325.679652
329.299842
339.601081
340.083214
339.420619
339.946354
339.262169
321.540589
321.375862
329.28021
339.631736
339.518565
322.194438
322.135658
326.222852
325.410254
329.195711
339.867837
339.745198
323.652697
323.638439
326.497579
329.533421
339.859536
339.919645
339.644442
322.341985
322.301619
329.221781
339.81405
339.649818
322.155602
322.137666
325.685701
326.042815
331.360231
339.853372
339.563294
339.851139
339.454266
339.808045
339.307636
320.777492
320.638885
329.264626
339.759521
339.690901
323.342955
323.345833
325.930731
329.185234
339.921229
340.013279
339.808795
339.919572
339.758705
320.455231
320.430621
323.655655
329.186865
339.925683
339.9882
339.796853
339.941483
321.38547
328.460336
339.833053
339.800238
339.831547
320.926814
320.745119
323.391164
327.559453
339.842341
339.929824
321.195451
321.189491
323.858655
325.575268
325.179873
329.217008
340.112906
340.155412
340.135874
340.172553
323.33112
322.347245
328.973322
340.013201
340.287436
340.112492
325.246216
322.499518
328.724267
339.901053
340.654107
325.764601
328.966916
339.988963
340.139995
340.104428
340.081448
340.203212
323.595365
322.579179
324.799124
325.00688
325.999742
327.351502
326.640296
328.91772
340.036332
340.408266
327.130053
328.30481
340.328924
340.172308
326.003189
323.286395
328.874804
340.152746
340.291879
340.246441
324.86166
322.546467
340.134282
340.051679
323.941345
322.00305
325.93259
323.602934
328.898143
340.028827
340.373643
340.164626
325.070738
322.87915
325.849929
324.755769
328.73746
339.926011
340.660794
328.152331
327.635739
340.028039
340.423947
327.888947
328.179748
340.287084
340.275349
340.339724
340.288351
326.385449
323.450486
326.664646
324.743884
328.7747
339.918762
340.524055
326.574399
326.044465
340.136966
340.406849
325.625963
324.961906
324.342669
327.256641
340.004459
340.034031
339.971112
340.111732
340.058796
340.141949
340.076554
323.085503
320.425998
321.933369
323.296246
340.091148
339.832485
324.201815
324.177245
323.763487
326.725255
340.117424
340.055985
340.021346
339.86524
324.402582
324.840631
340.144216
339.858486
323.804696
323.773779
324.912964
326.518601
325.422233
328.926455
340.154671
340.1192
340.127584
339.898441
323.33188
323.238561
324.651462
326.113341
325.749257
328.843468
340.334904
340.394801
340.054588
340.338562
339.826672
325.245271
322.786566
328.911573
340.184564
339.924945
323.973989
323.955741
325.199541
326.217885
326.513902
329.633657
340.2972
339.993117
340.251408
339.776415
326.589392
326.625202
327.502837
329.139264
340.355661
339.649188
326.657838
330.59562
339.801557
328.031515
329.2554
340.244729
339.692088
340.146877
339.47425
323.453461
323.426592
325.388806
326.156786
325.480206
329.168037
340.218429
339.589093
324.480863
327.498009
340.271591
339.352012
324.731336
327.691633
340.226439
339.308296
323.943626
323.887363
325.768522
329.267424
340.153633
339.587497
340.028107
339.138987
322.649436
322.515043
329.112992
339.808333
339.607165
322.617775
322.599354
325.142761
326.339918
326.37824
329.297652
340.021104
339.573457
339.930782
339.227464
325.316347
325.342469
327.78657
329.375975
340.207931
339.451192
327.219082
329.511542
340.170858
339.332137
340.054958
338.967756
322.931664
322.829327
326.449216
325.652509
329.111157
339.866433
340.086983
339.541163
323.476044
323.458225
326.047277
329.135336
339.928018
340.017544
339.507162
321.145296
321.079571
325.269278
323.83474
328.973325
339.898019
340.214955
339.811179
326.072287
329.308339
339.803166
339.837288
339.644325
321.543351
321.505534
325.841167
325.393223
330.304069
339.822809
339.460521
339.786303
339.176599
339.679574
339.256401
320.547435
320.466994
324.896239
329.504365
339.934389
339.77136
321.944183
321.899181
325.628053
329.639264
339.895875
339.440915
339.786857
339.386103
320.3128
320.171986
325.147253
324.358652
329.712477
339.725358
339.622968
339.728785
339.530096
322.507121
322.462332
326.842737
329.391375
340.083511
339.8434
326.460529
329.443505
340.161384
339.647406
323.521017
323.497274
326.889713
329.332478
340.380911
339.896571
327.156742
329.440154
340.412124
339.561917
340.293027
339.486267
327.297956
329.60386
340.152774
339.431532
323.058706
322.994606
326.453204
325.477547
329.096968
339.988284
339.955402
324.666165
327.094394
340.191047
339.641248
324.103594
327.477347
340.136468
339.393948
324.328787
324.275522
327.667489
329.480492
340.137455
339.642174
327.096206
329.61485
340.090039
339.388972
323.88649
323.877097
325.402066
325.857594
324.968308
329.268275
340.024437
339.533565
339.933004
339.174449
323.499565
325.97287
339.892045
339.041565
321.80756
321.704834
326.156236
325.864977
329.740022
339.639821
339.367853
324.68071
327.596051
339.833442
339.420538
317.979508
317.689122
328.265676
339.891492
339.853021
339.914061
339.392221
325.115603
329.40353
339.637109
339.675483
339.312803
326.120189
328.117195
340.053319
340.059364
339.6176
324.30406
321.240874
326.389272
323.432987
328.720652
340.236872
340.241441
340.235246
339.955685
325.190856
322.945562
328.97901
340.107699
339.81547
324.605124
324.726668
325.207168
329.043077
340.239883
339.942479
325.892178
326.050438
326.664648
329.048276
340.262055
340.095375
327.394062
327.414143
327.804825
329.013581
340.234013
340.200567
327.177527
329.085946
340.262757
340.11635
340.276067
325.677885
324.021927
324.851667
326.476236
340.269144
340.121722
340.185788
340.189514
324.335656
324.369492
340.013337
340.07773
323.982052
323.67217
323.324296
324.697124
339.993888
340.031317
340.109517
340.139727
326.235345
321.157989
324.436292
339.857336
339.956301
326.379712
322.801739
325.7836
322.470409
325.825691
339.625222
340.19912
340.184546
328.848647
324.307539
325.047943
325.066197
338.91974
339.76733
328.969516
323.697923
325.440435
338.812233
340.198287
339.603185
340.309043
340.185246
340.341467
328.874486
323.331909
323.852824
324.573551
322.608339
322.528117
337.20439
339.545786
339.577564
329.492923
327.161861
334.487388
339.751322
339.736733
329.27611
325.860152
332.406005
339.82461
339.6197
329.900212
321.616291
319.660219
330.164231
339.246218
330.09866
324.079367
323.70279
321.581357
320.133148
328.755223
338.837429
340.16509
339.517152
339.790337
330.866336
326.873636
329.043094
339.341795
340.421037
332.275563
326.769761
324.272023
324.336251
323.037602
321.913379
329.264303
338.633451
340.152884
335.257938
327.556529
322.345373
329.059012
339.567606
330.782019
327.241137
329.49086
339.444048
340.432832
333.414375
326.00237
321.102448
328.8582
339.77729
333.409023
327.002808
324.669598
322.827789
328.83969
339.897017
340.463436
339.756619
331.127614
324.818217
329.394025
340.119744
331.423263
324.142961
323.824657
323.455541
321.495662
329.146063
339.544679
335.674025
324.237179
328.666944
339.879031
340.166783
339.679178
340.254906
339.604036
340.129322
339.627002
330.535563
323.093789
322.766957
322.580391
321.961653
323.976877
321.107416
326.447265
339.549153
339.701459
339.157628
339.63855
334.861387
323.272122
320.185909
321.483165
322.176963
319.368328
324.129827
339.713119
339.768149
339.727604
339.883606
339.785175
322.944126
323.800463
340.469282
325.485922
323.604331
324.983399
328.960764
339.87658
340.308323
340.192213
340.3245
340.40225
327.301071
328.251944
340.478894
340.171887
340.372448
340.279428
326.477443
324.066992
326.240207
325.107333
326.472585
325.037568
329.249848
339.880259
337.230234
324.87851
329.866872
340.268245
326.954285
322.565081
325.009164
329.112757
340.334492
340.348211
326.521309
322.050525
328.780735
339.28058
340.384191
339.188569
340.264929
339.378888
340.039914
339.84392
324.258319
319.91448
323.585188
322.697091
322.975948
323.862527
322.326954
327.393917
340.09177
339.852678
340.152613
340.073276
329.33777
321.731044
323.158766
328.545649
339.874585
339.574698
339.756405
339.803418
329.222086
322.642435
323.995658
328.281717
338.543408
339.614979
329.147423
320.849889
327.873506
337.813985
340.124063
338.289658
340.46239
338.95261
328.630159
320.695199
323.175784
324.068065
326.061938
332.673356
340.256157
339.622569
329.644294
326.901951
329.856543
339.954729
330.914611
327.238377
327.784577
328.903472
328.0874
328.632318
333.379883
340.141653
339.661267
340.056419
339.446894
330.305689
322.390894
322.952539
325.894409
326.851233
331.673431
339.900906
339.261352
339.691463
334.09192
325.863218
325.887298
328.089414
328.122086
330.397529
339.973032
334.811368
326.954135
329.408605
340.291036
335.413642
325.06762
329.33099
340.490688
337.559215
326.81665
326.924341
328.845404
325.427811
323.384069
328.518752
340.319495
340.289712
339.559725
330.479197
322.13658
322.258209
328.010506
340.301204
339.490544
328.832232
324.055299
328.64606
340.146829
339.38882
328.522082
329.310107
340.387578
339.265671
327.287042
329.225328
340.289117
340.149611
339.897996
329.506938
325.161819
326.087406
324.09118
326.064732
340.122837
339.686306
326.552432
327.119762
340.370804
339.74447
325.307136
325.464733
340.41789
339.894966
325.695895
321.059753
323.464866
340.054354
339.899425
326.564019
323.454709
322.90197
323.806565
340.501178
339.737603
340.427782
339.619381
329.033314
322.192464
325.59386
321.215022
323.9539
340.081144
340.094004
340.075812
340.050154
326.062399
326.936247
340.342246
340.06822
340.26796
327.827235
323.108319
324.457493
323.904512
340.445413
339.841231
328.781516
325.843938
326.46955
325.931018
340.555248
339.778282
328.724876
325.22212
327.116912
340.025092
340.529907
328.324109
326.911651
340.35155
340.505869
326.421324
326.344374
340.515912
340.395949
325.54253
327.139861
340.553367
329.099156
323.426512
323.676439
324.490157
340.19038
340.155497
340.123845
340.288824
340.048523
340.324379
340.051546
327.332674
320.362278
323.661345
340.204173
339.962559
327.760597
322.572763
325.956238
321.525054
326.055185
339.930889
339.843178
339.917052
329.215082
323.499544
340.324911
339.843879
326.735328
322.522981
322.185603
322.150712
339.959357
339.798811
327.34355
322.094583
323.432329
323.775664
321.633379
323.395001
339.404619
339.642236
339.257368
339.839394
339.39483
340.035605
339.72488
340.21185
340.019994
340.286585
340.097547
328.761418
321.61979
323.46812
322.689188
322.857971
323.791438
319.900214
319.979606
338.988623
339.365969
338.94741
339.666884
326.798371
320.699726
339.285277
339.82356
326.795
321.163217
321.450494
329.718233
339.181268
339.626684
339.596109
339.627732
328.42679
317.456821
321.402364
332.476777
339.251815
339.079451
339.771924
339.701804
328.445105
319.864681
327.352475
339.005304
340.053454
329.112436
320.638515
325.949363
338.842224
340.331028
329.967842
325.165415
337.241799
340.546276
328.608706
328.954664
339.430905
328.789109
322.473411
323.346199
329.587937
338.793987
339.809663
339.784372
329.554829
326.358392
337.409726
340.029792
328.478816
319.944931
322.574405
324.198603
323.776355
325.470246
338.449338
339.872082
339.424721
340.125988
340.091609
329.059736
323.145449
338.618698
339.653435
329.056874
322.44666
325.546754
323.323372
326.362891
338.634533
340.077268
339.549878
340.228563
340.243014
325.963189
319.609938
323.484406
323.691297
330.621682
339.455026