/*--------------------------------*- C++ -*----------------------------------*\
| =========                 |                                                 |
| \\      /  F ield         | OpenFOAM: The Open Source CFD Toolbox           |
|  \\    /   O peration     | Version:  2306                                  |
|   \\  /    A nd           | Website:  www.openfoam.com                      |
|    \\/     M anipulation  |                                                 |
\*---------------------------------------------------------------------------*/
FoamFile
{
    version     2.0;
    format      ascii;
    arch        "LSB;label=32;scalar=64";
    class       volScalarField;
    location    "8e-05";
    object      rho;
}
// * * * * * * * * * * * * * * * * * * * * * * * * * * * * * * * * * * * * * //

dimensions      [1 -3 0 0 0 0 0];

internalField   nonuniform List<scalar> 
531
(
0.937183411
0.937129855
0.937070095
0.937004088
0.936931924
0.936853767
0.936769841
0.936680476
0.93658609
0.936487187
0.936384356
0.936278269
0.936169676
0.936059399
0.935948322
0.935837387
0.93572758
0.935619924
0.935515461
0.93541525
0.935320343
0.935231777
0.93515056
0.935077654
0.935013965
0.934960323
0.934917475
0.934886068
0.93486664
0.934859609
0.934865261
0.934883748
0.934915079
0.934959117
0.935015574
0.935084018
0.935163872
0.93525442
0.93535482
0.935464114
0.935581242
0.935705063
0.935834369
0.93596791
0.936104414
0.936242606
0.936381236
0.936519095
0.936655035
0.936787986
0.936916974
0.93704113
0.937159698
0.937272048
0.937377673
0.937476191
0.937567345
0.937650995
0.937727112
0.93779577
0.937857134
0.937911447
0.93795902
0.938000215
0.938035438
0.93806512
0.938089709
0.938109657
0.938125411
0.938137404
0.938146047
0.938151725
0.938154791
0.938155563
0.938154323
0.938151317
0.938146758
0.938140821
0.938133654
0.938125378
0.938116087
0.938105861
0.938094761
0.938082839
0.938070143
0.938056714
0.938042597
0.938027841
0.938012498
0.93799663
0.937980307
0.937963608
0.937946621
0.93792944
0.937912167
0.937894907
0.937877768
0.937860857
0.937844276
0.937828123
0.937812483
0.937797432
0.937783029
0.937769316
0.937756314
0.937744025
0.937732426
0.937721475
0.937711103
0.937701222
0.937691721
0.937682471
0.937673325
0.937664123
0.937654692
0.937644852
0.937634418
0.937623204
0.937611026
0.937597705
0.937583071
0.937566965
0.93754924
0.937529764
0.937508423
0.937485117
0.937459764
0.937432297
0.937402667
0.937370838
0.937336789
0.937300509
0.937262002
0.937221281
0.937178368
0.937133298
0.937086115
0.937036876
0.936985654
0.936932535
0.936877629
0.936821068
0.936763013
0.936703655
0.936643224
0.936581988
0.936520261
0.936458403
0.936396825
0.936335983
0.936276382
0.936218569
0.936163131
0.936110685
0.93606187
0.936017337
0.935977732
0.935943688
0.935915805
0.935894635
0.935880669
0.935874315
0.93587589
0.935885601
0.93590354
0.935929669
0.93596382
0.936005691
0.936054848
0.93611073
0.936172661
0.936239862
0.936311466
0.936386541
0.936464105
0.936543156
0.93662269
0.936701725
0.936779321
0.936854598
0.936926757
0.936995082
0.93705896
0.937117874
0.937171412
0.93721926
0.937261192
0.937297066
0.937326808
0.937350398
0.937367859
0.937379245
0.937384624
0.937384074
0.937377671
0.937365488
0.937347591
0.937324043
0.93729491
0.937260268
0.937220212
0.937174871
0.937124421
0.937069093
0.937009193
0.936945106
0.936877309
0.936806377
0.936732986
0.936657918
0.936582051
0.936506361
0.936431905
0.936359817
0.936291292
0.936227565
0.936169904
0.936119582
0.936077865
0.936045991
0.936025151
0.93601647
0.936020994
0.936039664
0.936073305
0.936122611
0.936188124
0.93627022
0.936369097
0.936484762
0.936617014
0.93676544
0.936929402
0.937108031
0.937300228
0.937504664
0.937719783
0.93794382
0.93817481
0.938410617
0.938648956
0.938887427
0.939123554
0.939354825
0.939578733
0.939792823
0.939994736
0.940182252
0.940353327
0.940506136
0.940639096
0.940750897
0.940840518
0.940907238
0.940950642
0.940970617
0.94096734
0.94094127
0.940893118
0.94082383
0.940734553
0.940626612
0.940501472
0.940360712
0.940205994
0.940039035
0.939861581
0.939675387
0.939482198
0.939283733
0.939081678
0.938877675
0.938673321
0.938470165
0.938269706
0.938073399
0.937882651
0.937698823
0.937523225
0.937357111
0.937201665
0.93705799
0.936927083
0.936809809
0.936706874
0.936618786
0.936545818
0.936487974
0.936444954
0.936416122
0.936400492
0.936396718
0.936403106
0.936417644
0.936438048
0.936461837
0.93648642
0.93650921
0.936527735
0.936539772
0.936543467
0.936537442
0.936520887
0.936493625
0.936456139
0.93640956
0.93635562
0.936296558
0.936234999
0.936173795
0.936115849
0.93606393
0.936020487
0.935987487
0.935966269
0.935957446
0.935960842
0.935975486
0.935999651
0.936030955
0.936066491
0.936103011
0.936137126
0.936165525
0.936185196
0.93619362
0.936188949
0.936170132
0.936137
0.936090291
0.936031623
0.935963409
0.93588872
0.935811111
0.935734407
0.935662478
0.935599004
0.935547263
0.935509949
0.935489033
0.935485679
0.935500219
0.935532184
0.935580394
0.935643087
0.93571808
0.935802946
0.935895191
0.935992407
0.936092399
0.93619327
0.936293464
0.936391765
0.936487258
0.936579274
0.936667304
0.93675092
0.936829701
0.936903166
0.936970737
0.937031713
0.937085274
0.93713051
0.937166464
0.937192192
0.937206835
0.9372097
0.937200332
0.937178587
0.93714468
0.937099223
0.937043228
0.936978088
0.936905519
0.936827482
0.936746075
0.93666341
0.93658148
0.93650203
0.936426433
0.936355592
0.936289867
0.936229027
0.936172246
0.936118116
0.936064708
0.936009644
0.935950216
0.935883512
0.935806581
0.935716614
0.935611146
0.935488282
0.935346929
0.935187036
0.935009806
0.934817885
0.934615475
0.934408359
0.93420383
0.934009991
0.933836536
0.933692783
0.93358789
0.933529895
0.933525002
0.933577004
0.933686843
0.933852405
0.934068561
0.934327546
0.934618744
0.934932569
0.935256713
0.935581862
0.935899231
0.936226701
0.936503075
0.936697118
0.936991609
0.938129841
0.938385701
0.934714754
0.934363188
0.945243701
0.949717954
0.936999794
0.901046732
0.905989093
0.909410542
0.899675308
0.899154189
0.897324405
0.896023051
0.894092745
0.892458783
0.889926268
0.993296321
0.913560494
0.946092034
0.940368727
0.880268925
0.864756208
0.821444678
0.86101546
0.797742819
0.792280877
0.788514064
0.820731673
0.798867893
0.82825277
0.700234466
0.807410724
0.744044839
0.725279299
0.621943035
0.597108035
0.59218729
0.564909769
0.562693588
0.557409222
0.535079478
0.512689274
0.490207133
0.459321526
0.444671562
0.425233414
0.412977879
0.393593851
0.381219673
0.368055198
0.357408661
0.346815526
0.336697569
0.327493965
0.318772383
0.311100545
0.303621088
0.297090392
0.290502553
0.284738564
0.278477515
0.273172401
0.267819581
0.263325434
0.258806054
0.254938302
0.251026572
0.247644808
0.244247506
0.241309608
0.238416678
0.236011074
0.233402101
0.23106249
0.228781545
0.226821619
0.22497838
0.223334588
0.221816598
0.220402951
0.21916794
0.217929652
0.216933985
0.215840614
0.215002426
0.214033257
0.213330028
0.21244389
0.211832341
0.211081204
0.210551312
0.209840427
0.209357784
0.208739693
0.208315361
0.207799349
0.207429787
0.206988764
0.20667974
0.206291402
0.206013331
0.205666242
0.205412052
0.205099599
0.204873451
0.204596835
0.204392043
0.204140352
0.203949783
0.203718257
)
;

boundaryField
{
    closed
    {
        type            calculated;
        value           nonuniform List<scalar> 0();
    }
    open
    {
        type            calculated;
        value           nonuniform List<scalar> 0();
    }
    sides
    {
        type            empty;
    }
    procBoundary4to3
    {
        type            processor;
        value           uniform 0.93723086;
    }
    procBoundary4to5
    {
        type            processor;
        value           uniform 0.203537375;
    }
}


// ************************************************************************* //
