/*--------------------------------*- C++ -*----------------------------------*\
| =========                 |                                                 |
| \\      /  F ield         | OpenFOAM: The Open Source CFD Toolbox           |
|  \\    /   O peration     | Version:  2306                                  |
|   \\  /    A nd           | Website:  www.openfoam.com                      |
|    \\/     M anipulation  |                                                 |
\*---------------------------------------------------------------------------*/
FoamFile
{
    version     2.0;
    format      ascii;
    arch        "LSB;label=32;scalar=64";
    class       volScalarField;
    location    "0.00182";
    object      PV;
}
// * * * * * * * * * * * * * * * * * * * * * * * * * * * * * * * * * * * * * //

dimensions      [0 0 0 0 0 0 0];

internalField   nonuniform List<scalar> 
531
(
-0.00689242776
-0.00689005514
-0.00711482915
-0.00711585423
-0.0068922024
-0.00689063031
-0.00689071749
-0.00708338928
-0.00713058739
-0.00712718881
-0.00689232983
-0.00689067722
-0.00708974426
-0.0071420177
-0.00712248014
-0.00689129194
-0.00710842107
-0.00713949019
-0.00689284166
-0.00689188593
-0.00689212111
-0.00689071434
-0.00689066608
-0.00708531128
-0.00712677732
-0.0071142452
-0.00714262223
-0.00713776341
-0.00689418608
-0.0068901587
-0.00712514128
-0.00712509176
-0.00689319244
-0.00689205739
-0.00689173076
-0.00707343784
-0.00712953084
-0.00712864575
-0.00712889134
-0.00689506992
-0.00689061624
-0.00713012148
-0.00713307001
-0.00689530022
-0.00689139029
-0.00713325024
-0.0071363472
-0.0068954552
-0.00689218349
-0.00713813124
-0.00713931315
-0.00689573162
-0.00689321872
-0.00689480171
-0.00689221188
-0.00711160581
-0.00712339896
-0.00689393336
-0.00689254025
-0.00711373204
-0.00711371862
-0.00689170772
-0.00710093093
-0.00712425137
-0.00689314278
-0.00689102219
-0.00689107768
-0.0070722551
-0.00712826745
-0.00712085317
-0.0071340258
-0.00689055194
-0.00689197082
-0.0071106463
-0.00715445468
-0.00714732409
-0.00689422677
-0.00688855307
-0.00712846181
-0.0071400423
-0.00689414937
-0.00689069609
-0.00713703843
-0.00713680641
-0.00689406598
-0.00689213409
-0.00689200329
-0.00710986718
-0.00713978104
-0.0068929693
-0.00689286675
-0.00689146978
-0.00689184173
-0.0070563702
-0.00711456852
-0.00711188306
-0.00712123673
-0.00689098368
-0.00689101505
-0.00709290381
-0.00713963407
-0.00711518749
-0.00689100848
-0.00709870226
-0.00713717321
-0.00689161213
-0.00689107907
-0.00711806633
-0.00711837694
-0.00689194058
-0.00689121468
-0.00689066446
-0.00707333509
-0.00712904295
-0.00712514216
-0.00712724358
-0.00689243071
-0.00688965975
-0.00712648532
-0.0071265594
-0.00689142261
-0.00711344308
-0.00714176448
-0.00689283751
-0.00689249461
-0.00689168546
-0.00711385818
-0.00712238296
-0.00689352159
-0.00689235723
-0.00689222894
-0.00708439944
-0.00712461496
-0.00689212978
-0.00689247818
-0.00709523869
-0.00712006821
-0.00712541222
-0.00712526171
-0.0068912181
-0.00711570707
-0.00714029125
-0.00689365533
-0.00689228194
-0.00689224506
-0.0071204638
-0.00713396715
-0.00689294532
-0.0071233803
-0.00715013106
-0.00689368718
-0.00689443712
-0.00689230024
-0.00712496084
-0.00713481617
-0.00689585331
-0.006892626
-0.00689474762
-0.00689143114
-0.00689256283
-0.00708189519
-0.00713081944
-0.00710848311
-0.00714253067
-0.00712417972
-0.00689193007
-0.00710761949
-0.00714609883
-0.00689247408
-0.00689289019
-0.00711710932
-0.00714163855
-0.00689198442
-0.00689497301
-0.00711091228
-0.00715989502
-0.00714125958
-0.00689696926
-0.00689225308
-0.00689581414
-0.00689216123
-0.00711550828
-0.00714055673
-0.00689395509
-0.00689476601
-0.00711194046
-0.00715846891
-0.00714058557
-0.00689664505
-0.00689206303
-0.00689539879
-0.00689113488
-0.007100224
-0.00712930187
-0.00713171949
-0.00712826793
-0.00689632498
-0.00689079428
-0.00712930569
-0.00713166342
-0.00689574034
-0.00689131185
-0.00712997885
-0.00713120947
-0.00689504138
-0.00689266193
-0.00713062067
-0.00713064536
-0.00689515829
-0.0068937454
-0.0068937015
-0.00689214877
-0.0068922128
-0.00709143507
-0.00712959364
-0.00712305889
-0.00713252297
-0.00715154483
-0.00714526301
-0.0068902323
-0.00689245095
-0.00688978241
-0.00712293245
-0.00713293522
-0.00689248128
-0.00689140822
-0.00689140115
-0.00710719553
-0.00713461745
-0.00688988022
-0.0068922497
-0.00710167741
-0.00714217556
-0.0071235633
-0.00689256131
-0.00688746261
-0.00711190888
-0.00712053726
-0.00689034038
-0.00688883621
-0.00709971732
-0.00712942609
-0.00712229417
-0.00688821484
-0.00688945445
-0.00709648941
-0.00713563608
-0.00711548586
-0.00688974144
-0.00688731245
-0.00711231317
-0.00710662628
-0.00688638823
-0.00708668606
-0.00712477779
-0.00689045698
-0.0068879157
-0.00710653566
-0.00711908679
-0.00689100627
-0.0068892003
-0.00710898284
-0.0071144244
-0.00689042286
-0.00689067544
-0.0071093483
-0.0071199922
-0.00713196994
-0.00712335248
-0.0068895325
-0.00689315909
-0.00688911168
-0.00710475187
-0.00712703454
-0.0068936748
-0.00688967299
-0.00711558766
-0.00712307861
-0.00689360888
-0.00689016224
-0.00712035508
-0.00712202779
-0.00689249919
-0.00689183136
-0.0071220908
-0.00712190108
-0.00689008601
-0.00689284928
-0.00688993551
-0.00710345553
-0.00713327649
-0.00713703639
-0.00713015213
-0.00689212716
-0.00689225015
-0.00689221205
-0.00711133512
-0.00716110474
-0.0071329202
-0.00689465487
-0.006893791
-0.00689391422
-0.00712837574
-0.00714693289
-0.00689271336
-0.00689810887
-0.0071122585
-0.00689895814
-0.00689002917
-0.007132819
-0.00712782912
-0.00689639083
-0.00689169277
-0.00711975911
-0.00712801154
-0.00714291172
-0.00712923815
-0.00689112733
-0.00689243989
-0.00689021414
-0.0071190891
-0.0071282228
-0.00689104822
-0.00711951999
-0.00714411477
-0.00689234798
-0.00689181371
-0.00689110662
-0.00689113134
-0.00710284882
-0.0071464878
-0.00712090782
-0.00689190417
-0.00688963098
-0.00711033229
-0.00713722176
-0.007127446
-0.00688984887
-0.00689125974
-0.00710892493
-0.00714965268
-0.00712240985
-0.00689172352
-0.00689070631
-0.00689078929
-0.0071059311
-0.00712924858
-0.0068899526
-0.00689225211
-0.00710361716
-0.00714494513
-0.00711761439
-0.00689162005
-0.00688994007
-0.00688982153
-0.00710518732
-0.007120978
-0.00688877795
-0.00689104164
-0.00709841469
-0.00713157329
-0.00711410338
-0.00689020413
-0.00688759154
-0.00710271741
-0.00712899485
-0.00711895362
-0.00688729619
-0.00688957547
-0.0071013374
-0.00713692251
-0.00711611682
-0.00689172861
-0.00688584889
-0.00711520929
-0.00711560895
-0.00689187384
-0.00688726108
-0.00711939955
-0.00712764141
-0.00714054999
-0.00712819783
-0.00689184894
-0.00689019486
-0.00689139039
-0.00688908994
-0.0068903529
-0.00710087047
-0.00714316051
-0.00711500357
-0.00689347293
-0.00688779939
-0.00711717424
-0.00711789308
-0.00689355037
-0.00688901077
-0.00711145783
-0.00711983603
-0.00689065837
-0.00689189763
-0.00710282692
-0.00713860463
-0.00711630636
-0.00689371643
-0.00688720635
-0.00711555186
-0.00711905926
-0.00689248062
-0.00688917246
-0.007108472
-0.00713355564
-0.00712606175
-0.00689029984
-0.00689184883
-0.00709450776
-0.00689283324
-0.0068887127
-0.00710995288
-0.00712412137
-0.0071190786
-0.00689008886
-0.00689090334
-0.00710528193
-0.00713769466
-0.0071238442
-0.0068913798
-0.00688990409
-0.00711466165
-0.00715364528
-0.00712734173
-0.00689140793
-0.00689153958
-0.00689040697
-0.00711541537
-0.00711974048
-0.00689285941
-0.00689059327
-0.00689081453
-0.00709091982
-0.00714752982
-0.00710776461
-0.00689247781
-0.0068909712
-0.00689094687
-0.00709360354
-0.0071121691
-0.0068919702
-0.00688955958
-0.00709663878
-0.00711403599
-0.00711528695
-0.00711301257
-0.00689301649
-0.00688840721
-0.00710787909
-0.00711303779
-0.00689212137
-0.00688939958
-0.0071110114
-0.00712344139
-0.00712897801
-0.00712803664
-0.00689175179
-0.00688913679
-0.00712437012
-0.007129283
-0.00689418425
-0.00689082948
-0.00713032346
-0.00712948163
-0.00689146346
-0.0068942251
-0.00689085027
-0.00711630605
-0.00713405486
-0.0068975653
-0.00689170485
-0.007125672
-0.00713744155
-0.00689619515
-0.00689420779
-0.00712445007
-0.00716999783
-0.00713985752
-0.0068979756
-0.00689304677
-0.00689544054
-0.00689209049
-0.00689217496
-0.00711701687
-0.00711890928
-0.00689278267
-0.00710556942
-0.00712024648
-0.00689675817
-0.00689149942
-0.00689252361
-0.00710171633
-0.0071413151
-0.00711952599
-0.0071496281
-0.00713031693
-0.00689498182
-0.00688966225
-0.00713556794
-0.00713178934
-0.00689280208
-0.00689337775
-0.00689122839
-0.00711399597
-0.00713024007
-0.00689768297
-0.00689093546
-0.00711659295
-0.00711608102
-0.00689484679
-0.00689188809
-0.00689196816
-0.00706168816
-0.00712649805
-0.00711881331
-0.00712276122
-0.00689403284
-0.00689177385
-0.00711377711
-0.00715715309
-0.00712343835
-0.00689523109
-0.00688879353
-0.006892262
-0.00710488011
)
;

boundaryField
{
    closed
    {
        type            zeroGradient;
    }
    open
    {
        type            zeroGradient;
    }
    sides
    {
        type            empty;
    }
    procBoundary1to0
    {
        type            processor;
        value           uniform -0.0071348547;
    }
    procBoundary1to2
    {
        type            processor;
        value           uniform -0.00715554807;
    }
}


// ************************************************************************* //
