/*--------------------------------*- C++ -*----------------------------------*\
| =========                 |                                                 |
| \\      /  F ield         | OpenFOAM: The Open Source CFD Toolbox           |
|  \\    /   O peration     | Version:  2306                                  |
|   \\  /    A nd           | Website:  www.openfoam.com                      |
|    \\/     M anipulation  |                                                 |
\*---------------------------------------------------------------------------*/
FoamFile
{
    version     2.0;
    format      ascii;
    arch        "LSB;label=32;scalar=64";
    class       volScalarField;
    location    "0.0006";
    object      prefDh_H;
}
// * * * * * * * * * * * * * * * * * * * * * * * * * * * * * * * * * * * * * //

dimensions      [1 1 -3 0 0 0 0];

internalField   nonuniform List<scalar> 
531
(
23242.5424
22947.7549
23373.6799
23921.1396
23395.7673
23123.3916
23410.5098
23934.3578
23386.0932
23147.8297
23397.8116
23944.2542
23790.4585
23192.5995
22872.4999
23349.3403
23925.9901
23926.4113
23931.22
23849.0498
23389.6693
22945.0835
23036.9072
23572.7141
23430.9523
23110.6807
23366.2171
23956.3445
23963.8018
23360.1406
23019.3372
23348.6986
23906.9245
23987.9874
23528.9836
23208.7894
22949.4809
23370.3427
23937.9742
23881.2163
23289.4213
22984.9042
23375.326
23933.0897
23941.3333
23311.251
22935.6849
23358.1211
23909.0889
23945.5092
23925.4997
23692.1208
23333.0844
23174.8245
23057.3126
22944.0158
23366.8585
23867.3662
23977.3613
23714.5032
23313.7884
22987.1851
23370.6809
23929.9854
23421.324
23214.7603
23378.5592
23948.7269
23963.3635
23376.9826
23106.4551
23105.7978
23408.4314
23932.5392
23833.6553
23319.4592
23062.1695
23416.6611
23907.901
23593.4958
23176.3472
23108.1091
23587.0222
23956.6499
23434.3482
23354.4617
23385.216
23463.3598
23482.0972
23381.9388
23376.8233
23399.7691
23413.7564
23399.0186
23390.1007
23392.3684
23395.4509
23394.8761
23393.4636
23393.3475
23393.4222
23393.3676
23393.2735
23393.2444
23393.2125
23393.1802
23393.1576
23393.1498
23393.1454
23393.1386
23393.1324
23393.1212
23393.1138
23393.1263
23393.145
23393.1251
23393.0701
23393.0846
23393.1986
23393.2017
23393.0069
23392.9672
23393.2169
23393.3547
23393.0801
23392.787
23393.012
23393.528
23393.4253
23392.6834
23392.6393
23393.4293
23393.6858
23393.0542
23392.5509
23392.9106
23393.6125
23393.5129
23392.7701
23392.7076
23393.2304
23393.4567
23393.1792
23392.8867
23392.9751
23393.243
23393.2489
23393.0745
23393.0322
23393.1055
23393.1593
23393.1384
23393.1
23393.1015
23393.1188
23393.1201
23393.1184
23393.1204
23393.1179
23393.1061
23393.1072
23393.1295
23393.1321
23393.1064
23393.0947
23393.1176
23393.1413
23393.1268
23393.0916
23393.0947
23393.1357
23393.1407
23393.1095
23393.0938
23393.1116
23393.1333
23393.1272
23393.1059
23393.1053
23393.1198
23393.124
23393.1174
23393.1119
23393.1138
23393.1182
23393.1183
23393.1158
23393.1152
23393.1161
23393.1167
23393.1165
23393.1161
23393.1161
23393.1163
23393.1163
23393.1163
23393.1163
23393.1163
23393.1163
23393.1163
23393.1163
23393.1163
23393.1163
23393.1163
23393.1163
23393.1163
23393.1163
23393.1163
23393.1163
23393.1163
23393.1163
23393.1163
23393.1163
23393.1163
23393.1163
23393.1163
23393.1163
23393.1163
23393.1163
23393.1163
23393.1163
23393.1163
23393.1163
23393.1163
23393.1163
23393.1163
23393.1163
23393.1163
23393.1163
23393.1163
23393.1163
23393.1163
23393.1163
23393.1163
23393.1163
23393.1163
23393.1163
23393.1163
23393.1163
23393.1163
23393.1163
23393.1163
23393.1163
23393.1163
23393.1163
23393.1163
23393.1163
23393.1163
23393.1163
23393.1162
23393.1162
23393.1164
23393.1164
23393.1162
23393.116
23393.1164
23393.1169
23393.1164
23393.1152
23393.1156
23393.118
23393.118
23393.1141
23393.1133
23393.118
23393.1206
23393.1161
23393.1108
23393.1137
23393.1221
23393.1217
23393.1115
23393.1097
23393.1178
23393.1227
23393.1181
23393.1111
23393.1124
23393.1194
23393.12
23393.1156
23393.1135
23393.1155
23393.1179
23393.1176
23393.1155
23393.1152
23393.1163
23393.1172
23393.1167
23393.1154
23393.1154
23393.1173
23393.1176
23393.1155
23393.1143
23393.1163
23393.1189
23393.1175
23393.1135
23393.1135
23393.1187
23393.1194
23393.1156
23393.1133
23393.1155
23393.1186
23393.118
23393.1149
23393.1147
23393.1166
23393.1173
23393.1166
23393.1157
23393.1159
23393.1165
23393.1165
23393.1163
23393.1162
23393.1162
23393.1163
23393.1163
23393.1163
23393.1163
23393.1163
23393.1163
23393.1163
23393.1163
23393.1163
23393.1163
23393.1163
23393.1163
23393.1163
23393.1163
23393.1163
23393.1163
23393.1163
23393.1163
23393.1163
23393.1163
23393.1163
23393.1163
23393.1163
23393.1163
23393.1162
23393.1162
23393.1164
23393.1164
23393.116
23393.116
23393.1166
23393.1169
23393.1161
23393.1151
23393.1161
23393.1181
23393.1175
23393.1137
23393.1136
23393.1189
23393.1202
23393.1151
23393.1113
23393.1151
23393.1215
23393.1201
23393.1118
23393.1112
23393.1184
23393.1212
23393.117
23393.1124
23393.1138
23393.1188
23393.1193
23393.1154
23393.1127
23393.1157
23393.1222
23393.1198
23393.1034
23393.1039
23393.1449
23393.1489
23393.0633
23393.0366
23393.1997
23393.2973
23393.0186
23392.7366
23393.1505
23393.8682
23393.3651
23391.7862
23392.1369
23395.3849
23395.5034
23390.1575
23389.1266
23396.1816
23400.3011
23391.7038
23384.0916
23390.804
23408.2465
23402.7134
23379.5654
23379.1721
23410.7846
23419.9724
23385.9694
23373.659
23389.8933
23427.8067
23410.3783
23374.3892
23374.4419
23414.1458
23424.4044
23388.5776
23376.5021
23388.0819
23408.1146
23402.2388
23393.024
23393.1044
23382.9718
23380.9931
23420.5126
23451.4454
23383.5135
23390.5333
23393.35
23624.5569
23404.2888
23212.675
23377.6242
23943.7049
23947.4969
23148.8475
23020.4772
23685.2995
23923.1161
23385.9073
23086.8204
23491.2473
23930.0656
23368.099
23086.974
23510.4578
23936.7722
23369.0659
23154.3432
23480.9881
23929.8775
23565.9257
23081.9288
23009.3758
23640.8066
23935.6036
23413.7317
23130.1416
23742.5959
23942.0764
23417.3821
23118.984
23713.4995
23948.4909
23374.9856
23148.2447
23381.1284
23966.7206
23948.2641
23359.8877
22895.8016
23299.9776
23894.2516
23992.9602
23895.5504
23371.0685
23280.1588
23213.1396
22989.7413
23250.1519
23942.5309
23955.7851
23387.9605
23136.1925
23387.8668
23944.1886
23975.0357
23377.0971
23187.3098
23371.524
23955.4109
23966.4162
23362.1552
22985.0533
23371.659
23931.2506
23968.3824
23368.555
23030.7081
23380.2325
23923.7592
23965.0212
23369.8382
23088.9852
23379.709
23913.9295
23957.607
23395.1682
23026.8043
23235.9262
23742.6444
23982.1478
23933.9786
23383.9591
23134.4617
23019.4125
23376.1022
23691.7928
23365.3282
23248.593
23494.7871
23932.2327
23701.9418
23204.8077
23176.831
23819.1157
23885.0693
)
;

boundaryField
{
    closed
    {
        type            calculated;
        value           nonuniform List<scalar> 0();
    }
    open
    {
        type            calculated;
        value           nonuniform List<scalar> 0();
    }
    sides
    {
        type            empty;
    }
    procBoundary3to2
    {
        type            processor;
        value           uniform 23851.2955;
    }
    procBoundary3to4
    {
        type            processor;
        value           uniform 23311.2536;
    }
}


// ************************************************************************* //
