/*--------------------------------*- C++ -*----------------------------------*\
| =========                 |                                                 |
| \\      /  F ield         | OpenFOAM: The Open Source CFD Toolbox           |
|  \\    /   O peration     | Version:  2306                                  |
|   \\  /    A nd           | Website:  www.openfoam.com                      |
|    \\/     M anipulation  |                                                 |
\*---------------------------------------------------------------------------*/
FoamFile
{
    version     2.0;
    format      ascii;
    arch        "LSB;label=32;scalar=64";
    class       volScalarField;
    location    "0.00032";
    object      p;
}
// * * * * * * * * * * * * * * * * * * * * * * * * * * * * * * * * * * * * * //

dimensions      [1 -1 -2 0 0 0 0];

internalField   nonuniform List<scalar> 
531
(
101564.077
101562.928
101561.502
101560.151
101558.905
101557.632
101556.238
101554.831
101553.459
101552.288
101550.783
101549.415
101548.186
101546.885
101545.631
101544.508
101543.318
101542.108
101540.957
101539.912
101538.896
101537.891
101536.944
101536.053
101535.213
101534.414
101533.666
101532.977
101532.36
101531.834
101531.425
101531.155
101531.03
101531.042
101531.162
101531.35
101531.562
101531.757
101531.902
101531.977
101531.972
101531.887
101531.726
101531.497
101531.207
101530.864
101530.473
101530.037
101529.557
101529.033
101528.464
101527.85
101527.187
101526.475
101525.711
101524.893
101524.022
101523.095
101522.112
101521.074
101519.98
101518.832
101517.632
101516.381
101515.084
101513.743
101512.365
101510.954
101509.517
101508.062
101506.595
101505.125
101503.659
101502.205
101500.771
101499.362
101497.985
101496.645
101495.346
101494.095
101492.896
101491.754
101490.676
101489.669
101488.741
101487.899
101487.153
101486.513
101485.988
101485.589
101485.325
101485.205
101485.239
101485.432
101485.792
101486.323
101487.028
101487.909
101488.965
101490.195
101491.596
101493.164
101494.891
101496.772
101498.799
101500.963
101503.255
101505.665
101508.183
101510.798
101513.499
101516.275
101519.113
101522.002
101524.929
101527.88
101530.842
101533.801
101536.743
101539.653
101542.517
101545.319
101548.046
101550.682
101553.212
101555.624
101557.903
101560.037
101562.013
101563.82
101565.449
101566.89
101568.135
101569.18
101570.018
101570.646
101571.062
101571.267
101571.26
101571.044
101570.623
101570.002
101569.187
101568.185
101567.005
101565.655
101564.147
101562.49
101560.698
101558.781
101556.753
101554.628
101552.42
101550.143
101547.813
101545.446
101543.057
101540.663
101538.281
101535.927
101533.619
101531.372
101529.205
101527.134
101525.175
101523.343
101521.654
101520.123
101518.762
101517.583
101516.599
101515.82
101515.252
101514.905
101514.782
101514.889
101515.226
101515.795
101516.594
101517.62
101518.866
101520.328
101521.995
101523.858
101525.904
101528.12
101530.49
101532.999
101535.628
101538.359
101541.171
101544.045
101546.958
101549.889
101552.817
101555.718
101558.572
101561.356
101564.05
101566.633
101569.086
101571.391
101573.531
101575.49
101577.256
101578.816
101580.161
101581.281
101582.173
101582.83
101583.252
101583.438
101583.391
101583.115
101582.616
101581.9
101580.977
101579.856
101578.55
101577.071
101575.432
101573.646
101571.728
101569.692
101567.553
101565.325
101563.023
101560.66
101558.249
101555.804
101553.336
101550.856
101548.376
101545.904
101543.45
101541.021
101538.625
101536.268
101533.956
101531.693
101529.483
101527.33
101525.237
101523.205
101521.238
101519.336
101517.5
101515.732
101514.032
101512.4
101510.836
101509.341
101507.915
101506.557
101505.269
101504.049
101502.899
101501.819
101500.809
101499.871
101499.004
101498.21
101497.491
101496.848
101496.282
101495.797
101495.393
101495.074
101494.842
101494.699
101494.649
101494.693
101494.836
101495.078
101495.424
101495.875
101496.434
101497.102
101497.88
101498.77
101499.772
101500.885
101502.11
101503.445
101504.888
101506.436
101508.086
101509.832
101511.672
101513.597
101515.603
101517.681
101519.824
101522.022
101524.265
101526.544
101528.848
101531.164
101533.481
101535.785
101538.064
101540.304
101542.492
101544.612
101546.653
101548.598
101550.435
101552.149
101553.727
101555.156
101556.424
101557.518
101558.427
101559.14
101559.649
101559.945
101560.02
101559.868
101559.484
101558.864
101558.006
101556.908
101555.571
101553.997
101552.189
101550.152
101547.893
101545.418
101542.738
101539.863
101536.807
101533.582
101530.205
101526.692
101523.062
101519.334
101515.528
101511.667
101507.773
101503.87
101499.982
101496.133
101492.35
101488.657
101485.079
101481.642
101478.37
101475.287
101472.416
101469.779
101467.397
101465.288
101463.469
101461.957
101460.764
101459.9
101459.375
101459.193
101459.357
101459.868
101460.723
101461.917
101463.44
101465.283
101467.431
101469.869
101472.578
101475.537
101478.725
101482.117
101485.688
101489.412
101493.263
101497.212
101501.233
101505.298
101509.38
101513.453
101517.491
101521.471
101525.369
101529.165
101532.838
101536.37
101539.746
101542.95
101545.972
101548.8
101551.427
101553.846
101556.053
101558.045
101559.822
101561.385
101562.736
101563.879
101564.819
101565.561
101566.113
101566.481
101566.674
101566.7
101566.568
101566.287
101565.865
101565.312
101564.638
101563.851
101562.962
101561.98
101560.915
101559.778
101558.579
101557.328
101556.036
101554.715
101553.375
101552.029
101550.687
101549.363
101548.067
101546.812
101545.61
101544.473
101543.413
101542.439
101541.561
101540.79
101540.132
101539.594
101539.18
101538.894
101538.737
101538.707
101538.802
101539.017
101539.345
101539.776
101540.3
101540.903
101541.573
101542.293
101543.047
101543.819
101544.591
101545.345
101546.064
101546.732
101547.331
101547.845
101548.261
101548.563
101548.74
101548.781
101548.675
101548.415
101547.997
101547.417
101546.676
101545.776
101544.724
101543.529
101542.202
101540.758
101539.213
101537.585
101535.897
101534.17
101532.429
101530.7
101529.009
101527.384
101525.85
101524.437
101523.167
101522.063
101521.148
101520.446
101519.976
101519.735
101519.732
101520
101520.559
101521.361
101522.38
101523.716
101525.336
101527.139
101529.015
101532.376
101534.743
101537.782
101541.037
101544.772
101547.101
101551.719
101555.943
101559.871
101564.237
101568.548
101573.449
101578.328
101583.074
101587.884
101592.559
101597.406
101602.516
101607.524
101611.872
101616.548
101621.757
101625.206
101632.491
101636.297
101642.14
101640.82
101647.786
101652.357
101655.998
101659.308
101662.336
101665.091
101667.329
101669.477
101671.185
101672.497
101673.428
101673.888
101674.069
101673.538
101672.581
)
;

boundaryField
{
    closed
    {
        type            zeroGradient;
    }
    open
    {
        type            waveTransmissive;
        gamma           1.25;
        fieldInf        101325;
        lInf            1;
        value           nonuniform List<scalar> 0();
    }
    sides
    {
        type            empty;
    }
    procBoundary3to2
    {
        type            processor;
        value           uniform 101565.348;
    }
    procBoundary3to4
    {
        type            processor;
        value           uniform 101671.119;
    }
}


// ************************************************************************* //
