/*--------------------------------*- C++ -*----------------------------------*\
| =========                 |                                                 |
| \\      /  F ield         | OpenFOAM: The Open Source CFD Toolbox           |
|  \\    /   O peration     | Version:  2306                                  |
|   \\  /    A nd           | Website:  www.openfoam.com                      |
|    \\/     M anipulation  |                                                 |
\*---------------------------------------------------------------------------*/
FoamFile
{
    version     2.0;
    format      ascii;
    arch        "LSB;label=32;scalar=64";
    class       volVectorField;
    location    "0.00188";
    object      U;
}
// * * * * * * * * * * * * * * * * * * * * * * * * * * * * * * * * * * * * * //

dimensions      [0 1 -1 0 0 0 0];

internalField   nonuniform List<vector> 
531
(
(0.367967169 0 0)
(0.374430118 0 0)
(0.387350199 0 0)
(0.386274341 0 0)
(0.378124385 0 0)
(0.376702635 0 0)
(0.379509385 0 0)
(0.392096766 0 0)
(0.394847125 0 0)
(0.385975721 0 0)
(0.383393829 0 0)
(0.38732483 0 0)
(0.400349457 0 0)
(0.400600366 0 0)
(0.390421016 0 0)
(0.387622229 0 0)
(0.391701437 0 0)
(0.404784107 0 0)
(0.404438269 0 0)
(0.396990385 0 0)
(0.398622931 0 0)
(0.410973164 0 0)
(0.414530284 0 0)
(0.407729089 0 0)
(0.408997057 0 0)
(0.420741865 0 0)
(0.422854938 0 0)
(0.411815438 0 0)
(0.408121299 0 0)
(0.404804564 0 0)
(0.415069067 0 0)
(0.426514056 0 0)
(0.42007483 0 0)
(0.409248044 0 0)
(0.407240664 0 0)
(0.409144897 0 0)
(0.414688604 0 0)
(0.422363828 0 0)
(0.423974723 0 0)
(0.425389152 0 0)
(0.428008198 0 0)
(0.427285368 0 0)
(0.425785562 0 0)
(0.42390736 0 0)
(0.414597387 0 0)
(0.407480491 0 0)
(0.405162705 0 0)
(0.416732773 0 0)
(0.419362649 0 0)
(0.397869651 0 0)
(0.38406811 0 0)
(0.373873363 0 0)
(0.378668066 0 0)
(0.38620622 0 0)
(0.370294277 0 0)
(0.353400241 0 0)
(0.345229035 0 0)
(0.349248184 0 0)
(0.345419312 0 0)
(0.326665566 0 0)
(0.316818045 0 0)
(0.315833668 0 0)
(0.31467636 0 0)
(0.313016727 0 0)
(0.308989185 0 0)
(0.29329953 0 0)
(0.280737787 0 0)
(0.269798552 0 0)
(0.256447735 0 0)
(0.245758018 0 0)
(0.24902496 0 0)
(0.26005285 0 0)
(0.252342892 0 0)
(0.237478898 0 0)
(0.228838441 0 0)
(0.225140228 0 0)
(0.229645832 0 0)
(0.23160915 0 0)
(0.220797128 0 0)
(0.213852915 0 0)
(0.207596305 0 0)
(0.216194346 0 0)
(0.223823869 0 0)
(0.213926486 0 0)
(0.209352581 0 0)
(0.205912493 0 0)
(0.217645516 0 0)
(0.2278926 0 0)
(0.219628808 0 0)
(0.218075052 0 0)
(0.220732648 0 0)
(0.23278274 0 0)
(0.248496765 0 0)
(0.244423832 0 0)
(0.241580052 0 0)
(0.245643452 0 0)
(0.259566235 0 0)
(0.268090913 0 0)
(0.265249939 0 0)
(0.267648945 0 0)
(0.270417658 0 0)
(0.27179373 0 0)
(0.286930192 0 0)
(0.296421452 0 0)
(0.289574465 0 0)
(0.291454274 0 0)
(0.305703181 0 0)
(0.312102355 0 0)
(0.305136275 0 0)
(0.304071279 0 0)
(0.305369621 0 0)
(0.320698412 0 0)
(0.327934414 0 0)
(0.318516497 0 0)
(0.315524494 0 0)
(0.316547918 0 0)
(0.331458891 0 0)
(0.336071417 0 0)
(0.32388751 0 0)
(0.318505415 0 0)
(0.317090025 0 0)
(0.329573051 0 0)
(0.339838372 0 0)
(0.337843624 0 0)
(0.33214852 0 0)
(0.325711071 0 0)
(0.321080115 0 0)
(0.321081707 0 0)
(0.331938393 0 0)
(0.328722938 0 0)
(0.316263127 0 0)
(0.313234835 0 0)
(0.319681808 0 0)
(0.316308077 0 0)
(0.302108425 0 0)
(0.29360121 0 0)
(0.289550322 0 0)
(0.295370593 0 0)
(0.291331598 0 0)
(0.276110453 0 0)
(0.267128051 0 0)
(0.261674479 0 0)
(0.265644153 0 0)
(0.261410043 0 0)
(0.245050909 0 0)
(0.234509479 0 0)
(0.228651214 0 0)
(0.230209838 0 0)
(0.230503393 0 0)
(0.21846611 0 0)
(0.204973141 0 0)
(0.195811549 0 0)
(0.188784148 0 0)
(0.189647217 0 0)
(0.185624159 0 0)
(0.17029913 0 0)
(0.161908123 0 0)
(0.162153425 0 0)
(0.158343854 0 0)
(0.147234582 0 0)
(0.140450766 0 0)
(0.137033432 0 0)
(0.138423502 0 0)
(0.136395218 0 0)
(0.127079605 0 0)
(0.121864911 0 0)
(0.120619817 0 0)
(0.124487817 0 0)
(0.124181033 0 0)
(0.114514502 0 0)
(0.109768154 0 0)
(0.11364366 0 0)
(0.114117463 0 0)
(0.109060783 0 0)
(0.106167973 0 0)
(0.105981213 0 0)
(0.108540964 0 0)
(0.114413515 0 0)
(0.11673672 0 0)
(0.112043824 0 0)
(0.110031734 0 0)
(0.114323634 0 0)
(0.12313601 0 0)
(0.128687468 0 0)
(0.127845282 0 0)
(0.123035988 0 0)
(0.120950033 0 0)
(0.126565313 0 0)
(0.118358261 0 0)
(0.107814197 0 0)
(0.118150633 0 0)
(0.1222862 0 0)
(0.124762153 0 0)
(0.128172662 0 0)
(0.11725807 0 0)
(0.11033791 0 0)
(0.115034977 0 0)
(0.10970281 0 0)
(0.104056954 0 0)
(0.107851983 0 0)
(0.106967649 0 0)
(0.107863847 0 0)
(0.106328463 0 0)
(0.0994322205 0 0)
(0.097224064 0 0)
(0.10101036 0 0)
(0.0992153867 0 0)
(0.0912769253 0 0)
(0.0821466886 0 0)
(0.083347612 0 0)
(0.0898854104 0 0)
(0.0872609464 0 0)
(0.0844785968 0 0)
(0.0751686846 0 0)
(0.064663891 0 0)
(0.0643127038 0 0)
(0.059062157 0 0)
(0.0510499618 0 0)
(0.0510975089 0 0)
(0.0480759495 0 0)
(0.0462948758 0 0)
(0.0451404006 0 0)
(0.0360903758 0 0)
(0.0335752974 0 0)
(0.0348518119 0 0)
(0.0312706955 0 0)
(0.0243553023 0 0)
(0.0183631453 0 0)
(0.0176280597 0 0)
(0.0175305502 0 0)
(0.0185108838 0 0)
(-0.000421517998 0 0)
(-0.0233283055 0 0)
(-0.0208496173 0 0)
(-0.0111410568 0 0)
(-0.0115073054 0 0)
(-0.0150093725 0 0)
(-0.0140235654 0 0)
(-0.0191154488 0 0)
(-0.0226054932 0 0)
(-0.0277500989 0 0)
(-0.0308737585 0 0)
(-0.0369167165 0 0)
(-0.0404144228 0 0)
(-0.0348665952 0 0)
(-0.0362260122 0 0)
(-0.0339122716 0 0)
(-0.0485596957 0 0)
(-0.0660719815 0 0)
(-0.0583027211 0 0)
(-0.0570304136 0 0)
(-0.0573154891 0 0)
(-0.0535936029 0 0)
(-0.0649266097 0 0)
(-0.0608675919 0 0)
(-0.0468425202 0 0)
(-0.0624188868 0 0)
(-0.0743710797 0 0)
(-0.0681321826 0 0)
(-0.0656099907 0 0)
(-0.0759721919 0 0)
(-0.0828569268 0 0)
(-0.0773267355 0 0)
(-0.0762570966 0 0)
(-0.0727478997 0 0)
(-0.0671331348 0 0)
(-0.0737315541 0 0)
(-0.0678186212 0 0)
(-0.0580797988 0 0)
(-0.0572975474 0 0)
(-0.0535573129 0 0)
(-0.0491980804 0 0)
(-0.0516718535 0 0)
(-0.0505721712 0 0)
(-0.0505288522 0 0)
(-0.058282436 0 0)
(-0.0381699336 0 0)
(-0.0237207008 0 0)
(-0.0263619211 0 0)
(-0.0183112375 0 0)
(-0.0165545073 0 0)
(-0.0158876996 0 0)
(-0.0181521651 0 0)
(-0.0124900899 0 0)
(-0.00426531018 0 0)
(-0.00474260324 0 0)
(-0.00440827419 0 0)
(-0.00065938013 0 0)
(0.00593096826 0 0)
(0.0120640201 0 0)
(0.0229682519 0 0)
(0.0156902433 0 0)
(0.00476527195 0 0)
(0.0171343278 0 0)
(0.023912208 0 0)
(0.0244695042 0 0)
(0.0226382445 0 0)
(0.0298200405 0 0)
(0.0396871311 0 0)
(0.04791919 0 0)
(0.0402381937 0 0)
(0.0277469849 0 0)
(0.0406121282 0 0)
(0.0458305789 0 0)
(0.043598786 0 0)
(0.0423476468 0 0)
(0.045682848 0 0)
(0.0578083194 0 0)
(0.0654272352 0 0)
(0.0551616104 0 0)
(0.0465652407 0 0)
(0.0567734601 0 0)
(0.0634620415 0 0)
(0.0682099489 0 0)
(0.0662754038 0 0)
(0.057533272 0 0)
(0.0646774857 0 0)
(0.0725071777 0 0)
(0.0755436649 0 0)
(0.0788180326 0 0)
(0.0768156206 0 0)
(0.0770160554 0 0)
(0.0881327336 0 0)
(0.0968116235 0 0)
(0.0880299683 0 0)
(0.0792680935 0 0)
(0.0887493085 0 0)
(0.0980444838 0 0)
(0.0890551925 0 0)
(0.0805531518 0 0)
(0.0890379318 0 0)
(0.0984597424 0 0)
(0.0962759308 0 0)
(0.09412366 0 0)
(0.0945251001 0 0)
(0.0926786182 0 0)
(0.101001327 0 0)
(0.109328181 0 0)
(0.0977419336 0 0)
(0.0874184458 0 0)
(0.0965948473 0 0)
(0.105361055 0 0)
(0.0923938415 0 0)
(0.0808825159 0 0)
(0.0886489277 0 0)
(0.101489389 0 0)
(0.103356731 0 0)
(0.104320161 0 0)
(0.104515818 0 0)
(0.101560504 0 0)
(0.0998500341 0 0)
(0.0958339303 0 0)
(0.104246738 0 0)
(0.115693206 0 0)
(0.110284327 0 0)
(0.107562641 0 0)
(0.105379483 0 0)
(0.117649173 0 0)
(0.128172222 0 0)
(0.114714905 0 0)
(0.103791846 0 0)
(0.116145676 0 0)
(0.128279774 0 0)
(0.114733245 0 0)
(0.104388527 0 0)
(0.115497778 0 0)
(0.133275274 0 0)
(0.129088678 0 0)
(0.12000643 0 0)
(0.111428145 0 0)
(0.123788188 0 0)
(0.137821259 0 0)
(0.123963868 0 0)
(0.112319096 0 0)
(0.124939826 0 0)
(0.139416416 0 0)
(0.134103456 0 0)
(0.131135944 0 0)
(0.127925591 0 0)
(0.140846215 0 0)
(0.154215104 0 0)
(0.139943789 0 0)
(0.128468479 0 0)
(0.141338418 0 0)
(0.155644077 0 0)
(0.149742634 0 0)
(0.146312397 0 0)
(0.142539227 0 0)
(0.155624228 0 0)
(0.169338717 0 0)
(0.155131054 0 0)
(0.144116862 0 0)
(0.157652143 0 0)
(0.172030749 0 0)
(0.165601269 0 0)
(0.161985736 0 0)
(0.157580709 0 0)
(0.171624678 0 0)
(0.185402362 0 0)
(0.171139782 0 0)
(0.160663753 0 0)
(0.172930063 0 0)
(0.18545494 0 0)
(0.171476681 0 0)
(0.159897563 0 0)
(0.17137263 0 0)
(0.183562731 0 0)
(0.16848059 0 0)
(0.155277031 0 0)
(0.168133094 0 0)
(0.181176156 0 0)
(0.172906724 0 0)
(0.167547671 0 0)
(0.160707469 0 0)
(0.174526123 0 0)
(0.188708866 0 0)
(0.172251221 0 0)
(0.160189596 0 0)
(0.173200703 0 0)
(0.186793758 0 0)
(0.171864913 0 0)
(0.160135884 0 0)
(0.173012905 0 0)
(0.194400111 0 0)
(0.185908648 0 0)
(0.182502629 0 0)
(0.18245965 0 0)
(0.19951837 0 0)
(0.216632919 0 0)
(0.210631836 0 0)
(0.208147484 0 0)
(0.205070624 0 0)
(0.222456025 0 0)
(0.241360121 0 0)
(0.239714835 0 0)
(0.242642927 0 0)
(0.260439092 0 0)
(0.27829837 0 0)
(0.280194205 0 0)
(0.285426907 0 0)
(0.290392902 0 0)
(0.293010499 0 0)
(0.31408936 0 0)
(0.334338071 0 0)
(0.336651803 0 0)
(0.344814302 0 0)
(0.353584131 0 0)
(0.36466882 0 0)
(0.383738929 0 0)
(0.39797912 0 0)
(0.398195206 0 0)
(0.42629718 0 0)
(0.451531992 0 0)
(0.451510356 0 0)
(0.458465552 0 0)
(0.489670211 0 0)
(0.514628286 0 0)
(0.512471642 0 0)
(0.514488123 0 0)
(0.523917001 0 0)
(0.553653241 0 0)
(0.580255058 0 0)
(0.591714672 0 0)
(0.60274254 0 0)
(0.603702202 0 0)
(0.599212185 0 0)
(0.607662059 0 0)
(0.615496879 0 0)
(0.647649585 0 0)
(0.66935381 0 0)
(0.661851163 0 0)
(0.665058557 0 0)
(0.672916705 0 0)
(0.689840731 0 0)
(0.692013913 0 0)
(0.686268054 0 0)
(0.716476584 0 0)
(0.732519376 0 0)
(0.726680951 0 0)
(0.737332397 0 0)
(0.754946311 0 0)
(0.765402951 0 0)
(0.765909233 0 0)
(0.756907026 0 0)
(0.743388937 0 0)
(0.741322006 0 0)
(0.764676686 0 0)
(0.771916894 0 0)
(0.753771494 0 0)
(0.745580454 0 0)
(0.735150993 0 0)
(0.74699934 0 0)
(0.764851657 0 0)
(0.754128911 0 0)
(0.734463634 0 0)
(0.73053082 0 0)
(0.725203815 0 0)
(0.718163027 0 0)
(0.734077686 0 0)
(0.74824664 0 0)
(0.734706654 0 0)
(0.716375318 0 0)
(0.716050743 0 0)
(0.737718265 0 0)
(0.743024731 0 0)
(0.730049467 0 0)
(0.733505923 0 0)
(0.749444991 0 0)
(0.747750463 0 0)
(0.733827845 0 0)
(0.736489085 0 0)
(0.733947552 0 0)
(0.734922024 0 0)
(0.751648627 0 0)
(0.746332849 0 0)
(0.729939856 0 0)
(0.726780037 0 0)
(0.735099029 0 0)
(0.752085744 0 0)
(0.742677398 0 0)
(0.72666483 0 0)
(0.726071615 0 0)
(0.737931997 0 0)
(0.755232298 0 0)
(0.741032108 0 0)
(0.71992376 0 0)
(0.716948869 0 0)
(0.713652143 0 0)
(0.722498745 0 0)
(0.729932832 0 0)
(0.716210907 0 0)
)
;

boundaryField
{
    closed
    {
        type            noSlip;
    }
    open
    {
        type            inletOutlet;
        inletValue      nonuniform List<vector> 0();
        value           nonuniform List<vector> 0();
    }
    sides
    {
        type            empty;
    }
    procBoundary3to2
    {
        type            processor;
        value           uniform (0.370792507 0 0);
    }
    procBoundary3to4
    {
        type            processor;
        value           uniform (0.691740741 0 0);
    }
}


// ************************************************************************* //
