/*--------------------------------*- C++ -*----------------------------------*\
| =========                 |                                                 |
| \\      /  F ield         | OpenFOAM: The Open Source CFD Toolbox           |
|  \\    /   O peration     | Version:  2306                                  |
|   \\  /    A nd           | Website:  www.openfoam.com                      |
|    \\/     M anipulation  |                                                 |
\*---------------------------------------------------------------------------*/
FoamFile
{
    version     2.0;
    format      ascii;
    arch        "LSB;label=32;scalar=64";
    class       surfaceScalarField;
    location    "0.00106";
    object      phi;
}
// * * * * * * * * * * * * * * * * * * * * * * * * * * * * * * * * * * * * * //

dimensions      [1 0 -1 0 0 0 0];

oriented        oriented;

internalField   nonuniform List<scalar> 
530
(
2.13180437e-06
2.12695412e-06
2.1232564e-06
2.10761592e-06
2.13787387e-06
2.11025421e-06
2.11062126e-06
2.11635905e-06
2.09859671e-06
2.01522935e-06
2.07079992e-06
2.0663872e-06
2.02442776e-06
2.01254199e-06
2.01482993e-06
2.00605775e-06
2.00475151e-06
1.99031249e-06
1.97184642e-06
1.95619896e-06
1.98642643e-06
1.9533776e-06
1.94623806e-06
1.93823815e-06
1.93563739e-06
1.96448478e-06
1.95467521e-06
1.95047323e-06
1.96084235e-06
1.96103605e-06
1.94455503e-06
1.92113906e-06
1.87229109e-06
1.89549744e-06
1.88747091e-06
1.84340508e-06
1.82176084e-06
1.83034871e-06
1.81534221e-06
1.80020344e-06
1.75859331e-06
1.67959849e-06
1.6945372e-06
1.70222696e-06
1.70018555e-06
1.7804396e-06
1.75292857e-06
1.76581999e-06
1.75830359e-06
1.73413336e-06
1.70633441e-06
1.66533769e-06
1.68603155e-06
1.67684367e-06
1.62111988e-06
1.59940597e-06
1.60696869e-06
1.59568867e-06
1.54069024e-06
1.53019099e-06
1.53702115e-06
1.52360843e-06
1.49963965e-06
1.47168667e-06
1.46804113e-06
1.48949597e-06
1.47743191e-06
1.46927523e-06
1.44421912e-06
1.41495692e-06
1.37797476e-06
1.40060044e-06
1.38836745e-06
1.31524003e-06
1.28872695e-06
1.29767841e-06
1.27983608e-06
1.18930181e-06
1.14143849e-06
1.15280005e-06
1.1593065e-06
1.1639324e-06
1.16615761e-06
1.15543732e-06
1.1340481e-06
1.15696277e-06
1.14198293e-06
1.10625364e-06
1.06027348e-06
1.03875758e-06
1.01452949e-06
9.99970644e-07
1.01108556e-06
9.956465e-07
9.84177393e-07
9.02202755e-07
8.59719107e-07
8.76510668e-07
8.61537353e-07
8.26456008e-07
7.91911786e-07
7.72250747e-07
7.94071814e-07
7.77177462e-07
6.72284328e-07
6.35276341e-07
6.60684418e-07
6.45785568e-07
6.01282116e-07
5.64452959e-07
5.70644202e-07
5.82855598e-07
5.65531231e-07
4.47558993e-07
4.14887071e-07
4.37804364e-07
4.1331787e-07
2.72914667e-07
2.22408091e-07
2.46571e-07
2.02619461e-07
1.99520655e-07
3.40377822e-07
2.5862806e-07
1.71062163e-07
2.04926738e-07
1.80495012e-07
1.30983405e-07
8.54947921e-08
1.13012792e-07
1.24175712e-07
1.04344361e-07
4.40592667e-08
-9.68300291e-09
2.3865896e-08
2.91335697e-08
7.2396717e-09
-1.38840798e-07
-1.71934407e-07
-1.49547173e-07
-1.80427912e-07
-3.26198835e-07
-3.32071912e-07
-3.209376e-07
-3.5500607e-07
-5.01244012e-07
-4.95487469e-07
-4.87950884e-07
-5.16591839e-07
-5.91074929e-07
-6.251627e-07
-5.43143812e-07
-5.50126804e-07
-5.83734682e-07
-6.39652574e-07
-7.28647074e-07
-7.29434428e-07
-6.54829295e-07
-6.60638543e-07
-7.12292048e-07
-8.375343e-07
-8.23484651e-07
-8.3024343e-07
-9.03318398e-07
-8.65948605e-07
-8.68083948e-07
-9.02267625e-07
-1.0475762e-06
-1.00077829e-06
-1.00469312e-06
-1.03123423e-06
-1.10422571e-06
-1.12779063e-06
-1.00603829e-06
-1.01387667e-06
-1.03265253e-06
-1.10985631e-06
-1.13763935e-06
-1.01417978e-06
-1.0265436e-06
-1.05059046e-06
-1.18520394e-06
-1.12540972e-06
-1.12926095e-06
-1.14627973e-06
-1.21468259e-06
-1.22815558e-06
-1.09715489e-06
-1.10752008e-06
-1.1242782e-06
-1.24573867e-06
-1.17871962e-06
-1.18078031e-06
-1.19250584e-06
-1.24808082e-06
-1.25204261e-06
-1.11436941e-06
-1.11605962e-06
-1.11608662e-06
-1.17772686e-06
-1.18521872e-06
-1.05845288e-06
-1.06261149e-06
-1.09048811e-06
-1.14058946e-06
-1.07724841e-06
-1.07732412e-06
-1.0835875e-06
-1.11063432e-06
-1.16479972e-06
-1.12584255e-06
-1.01399869e-06
-1.01089793e-06
-1.00539519e-06
-1.09004656e-06
-1.03215378e-06
-1.02687772e-06
-1.01697611e-06
-1.05015202e-06
-1.03332426e-06
-9.16344789e-07
-9.11623356e-07
-8.92226017e-07
-9.17028454e-07
-9.01942014e-07
-7.89439516e-07
-7.82016176e-07
-7.5935175e-07
-7.81633836e-07
-7.69696915e-07
-6.67964167e-07
-6.61809527e-07
-6.37471496e-07
-6.89716494e-07
-6.57328701e-07
-6.49717868e-07
-6.25992625e-07
-6.36443138e-07
-6.0952829e-07
-5.23409791e-07
-5.14661949e-07
-4.84089003e-07
-4.9215954e-07
-4.7387305e-07
-3.95607535e-07
-3.87247944e-07
-3.56430991e-07
-3.79703021e-07
-3.77260094e-07
-3.65514243e-07
-3.31727267e-07
-3.46250711e-07
-3.47552955e-07
-3.33793955e-07
-2.97268828e-07
-3.10279331e-07
-3.16100991e-07
-3.02124191e-07
-2.62949375e-07
-2.7480503e-07
-2.81941955e-07
-2.68021293e-07
-2.35125905e-07
-2.36583822e-07
-2.44916691e-07
-2.36106343e-07
-2.03051268e-07
-2.0217563e-07
-1.71173687e-07
-1.29862741e-07
-1.23138153e-07
-8.71555873e-08
-8.70993285e-08
-7.02820254e-08
-3.69379816e-08
-2.91604086e-08
1.39431897e-08
-5.73512587e-09
-3.33566713e-08
-2.42928083e-08
8.03554254e-09
5.40633932e-09
-2.26252831e-08
-1.58440849e-08
1.04296341e-08
7.48233711e-09
1.87956336e-08
7.00453895e-08
6.23700743e-08
7.86006242e-08
1.06958911e-07
1.04191929e-07
1.024554e-07
1.45012028e-07
1.41083825e-07
1.5259413e-07
1.75870249e-07
1.70447794e-07
1.49129043e-07
1.95368007e-07
1.91665159e-07
1.91192423e-07
2.09106447e-07
2.14727243e-07
1.8606223e-07
1.77422026e-07
1.98280688e-07
1.93596279e-07
2.17858658e-07
2.2724498e-07
2.20184295e-07
2.42336066e-07
2.36271269e-07
2.51034786e-07
2.62220954e-07
2.57063632e-07
2.69186237e-07
2.71654002e-07
2.48945337e-07
2.35271339e-07
2.51100995e-07
2.44944276e-07
2.66583598e-07
2.71287e-07
2.61890976e-07
2.79357761e-07
2.70913397e-07
2.8890439e-07
2.93180163e-07
2.84107593e-07
2.99407566e-07
2.90124582e-07
3.07019394e-07
3.10606364e-07
3.01213809e-07
3.14609063e-07
3.04824439e-07
3.21281658e-07
3.24053916e-07
3.14406477e-07
3.26147304e-07
3.16003021e-07
3.32315814e-07
3.35575256e-07
3.25964198e-07
3.36264e-07
3.25928469e-07
3.42211118e-07
3.4581622e-07
3.36339839e-07
3.45255356e-07
3.34925033e-07
3.51530858e-07
3.56368174e-07
3.47240332e-07
3.54797566e-07
3.44746338e-07
3.61825288e-07
3.67953764e-07
3.59165743e-07
3.6558757e-07
3.5625012e-07
3.72926221e-07
3.81087165e-07
3.73709208e-07
3.78656808e-07
3.69110563e-07
3.80919553e-07
3.88002668e-07
3.83959342e-07
3.84066599e-07
3.80065362e-07
3.70267754e-07
3.6349778e-07
3.63017853e-07
3.55329194e-07
3.62768744e-07
3.8317073e-07
3.803837e-07
3.79915913e-07
3.78127669e-07
3.70876885e-07
3.54047085e-07
3.55089266e-07
3.58632411e-07
3.69818244e-07
3.66959313e-07
3.67670379e-07
3.65436653e-07
3.61018476e-07
3.471632e-07
3.46756623e-07
3.45416966e-07
3.45065879e-07
3.42622376e-07
3.43369541e-07
3.40994619e-07
3.35999902e-07
3.52834267e-07
3.67872656e-07
3.68785593e-07
3.70180983e-07
3.60365361e-07
3.55544235e-07
3.59183024e-07
3.58975422e-07
3.54676873e-07
3.6876097e-07
3.83747417e-07
3.8617379e-07
3.86494551e-07
3.72163515e-07
3.64466554e-07
3.70937851e-07
3.7105308e-07
3.62229304e-07
3.56979373e-07
3.63885225e-07
3.70391092e-07
3.67341507e-07
3.845881e-07
3.99605747e-07
4.02729683e-07
4.04312002e-07
4.02356925e-07
3.9338626e-07
4.03852772e-07
4.06267435e-07
4.17195249e-07
4.19159398e-07
4.20444615e-07
4.22018292e-07
4.14876536e-07
4.23407734e-07
4.26425107e-07
4.24866747e-07
4.35948958e-07
4.57658563e-07
4.63766146e-07
4.6762363e-07
4.67256683e-07
4.65659543e-07
4.61187852e-07
4.78796066e-07
4.86814984e-07
4.96809435e-07
5.00594e-07
5.0024565e-07
5.12243869e-07
5.19613034e-07
5.24013901e-07
5.39269091e-07
5.37305409e-07
5.47075334e-07
5.55186056e-07
5.60821199e-07
5.65013674e-07
5.63339876e-07
5.61654094e-07
5.70528998e-07
5.74720473e-07
5.77069078e-07
5.90358081e-07
5.98664469e-07
6.04153606e-07
6.08882327e-07
6.10896191e-07
6.10934448e-07
6.19961015e-07
6.24709954e-07
6.27746514e-07
6.40389391e-07
6.48400268e-07
6.54512475e-07
6.59736128e-07
6.60416173e-07
6.61137601e-07
6.68880383e-07
6.7385662e-07
6.80240167e-07
6.85783591e-07
6.9378923e-07
6.98835711e-07
7.05233374e-07
7.13703526e-07
7.21436716e-07
7.27047862e-07
7.31139027e-07
7.12959286e-07
7.38227904e-07
7.44658719e-07
7.52664079e-07
7.53367764e-07
7.59101033e-07
7.6446521e-07
7.727347e-07
7.83745673e-07
7.85758091e-07
7.93509584e-07
8.00134562e-07
8.0699014e-07
8.1270615e-07
8.33228072e-07
8.31765966e-07
8.37722215e-07
8.44012093e-07
8.51647126e-07
8.64624181e-07
8.6312785e-07
8.68453071e-07
8.75347738e-07
8.95071514e-07
9.01337606e-07
9.05691748e-07
9.13034374e-07
9.24068636e-07
9.37109594e-07
9.44769524e-07
9.49280547e-07
9.32666402e-07
9.51884395e-07
9.59426569e-07
9.67955792e-07
9.71815767e-07
9.74975906e-07
9.81806016e-07
9.88575773e-07
9.98605744e-07
1.01923103e-06
1.01173163e-06
)
;

boundaryField
{
    closed
    {
        type            calculated;
        value           nonuniform List<scalar> 0();
    }
    open
    {
        type            calculated;
        value           nonuniform List<scalar> 0();
    }
    sides
    {
        type            empty;
        value           nonuniform List<scalar> 0();
    }
    procBoundary1to0
    {
        type            processor;
        value           uniform -2.12843894e-06;
    }
    procBoundary1to2
    {
        type            processor;
        value           uniform 1.01570214e-06;
    }
}


// ************************************************************************* //
