/*--------------------------------*- C++ -*----------------------------------*\
| =========                 |                                                 |
| \\      /  F ield         | OpenFOAM: The Open Source CFD Toolbox           |
|  \\    /   O peration     | Version:  2306                                  |
|   \\  /    A nd           | Website:  www.openfoam.com                      |
|    \\/     M anipulation  |                                                 |
\*---------------------------------------------------------------------------*/
FoamFile
{
    version     2.0;
    format      ascii;
    arch        "LSB;label=32;scalar=64";
    class       volScalarField;
    location    "0.00106";
    object      prefDPV_T;
}
// * * * * * * * * * * * * * * * * * * * * * * * * * * * * * * * * * * * * * //

dimensions      [1 -1 -1 -1 0 0 0];

internalField   nonuniform List<scalar> 
531
(
6.11112292e-10
6.09161851e-10
5.99384629e-10
5.89055926e-10
5.89075978e-10
6.11430462e-10
6.09547816e-10
6.01151811e-10
5.89162344e-10
5.88980978e-10
6.11364116e-10
6.09076022e-10
5.91320585e-10
5.90308531e-10
6.10813887e-10
6.08704517e-10
5.97499612e-10
5.90833656e-10
5.90564319e-10
5.88664182e-10
5.88487064e-10
6.1220381e-10
6.09483576e-10
6.10714916e-10
6.09395154e-10
6.09526976e-10
5.89239854e-10
5.88431756e-10
6.11521867e-10
6.09893864e-10
5.95728041e-10
5.88404986e-10
5.88159207e-10
6.1113926e-10
6.09197227e-10
5.91102146e-10
5.89887952e-10
6.11076319e-10
6.08860723e-10
5.91200205e-10
5.90223069e-10
6.05158221e-10
6.10004987e-10
6.09877025e-10
6.10178005e-10
5.8863545e-10
5.88258702e-10
6.11650182e-10
6.0979901e-10
5.96293246e-10
5.88621059e-10
5.88405946e-10
6.10861906e-10
6.09067084e-10
5.91196184e-10
5.89986583e-10
6.10737722e-10
6.08585879e-10
5.91335546e-10
5.90404233e-10
6.10353661e-10
6.08342222e-10
5.95802972e-10
5.91320885e-10
5.88999998e-10
5.88964181e-10
6.10842486e-10
6.09480473e-10
5.9847397e-10
5.88878756e-10
5.88689445e-10
6.10789724e-10
6.08979478e-10
5.91227624e-10
5.90155518e-10
6.10810042e-10
6.08713799e-10
5.9095319e-10
5.90297891e-10
6.11697936e-10
6.09744041e-10
6.10679546e-10
6.10131875e-10
5.88982219e-10
5.88367257e-10
6.11213401e-10
6.09220593e-10
5.96972491e-10
5.90486981e-10
5.90466437e-10
5.88484857e-10
5.88474549e-10
6.10839083e-10
6.08902687e-10
6.09232227e-10
5.91467987e-10
5.90364344e-10
6.10099543e-10
6.09150308e-10
5.99557726e-10
5.88832966e-10
5.88765203e-10
6.10427225e-10
6.09148586e-10
5.90854824e-10
5.89859187e-10
6.10013113e-10
6.09283143e-10
5.97617749e-10
5.88687321e-10
5.88548704e-10
6.1033837e-10
6.09002198e-10
5.90828237e-10
5.898907e-10
6.10398029e-10
6.08680307e-10
5.90531249e-10
5.90226507e-10
6.11118539e-10
6.09622464e-10
6.10495194e-10
6.10081625e-10
5.88432599e-10
5.88399555e-10
6.10429479e-10
6.09584495e-10
5.94979722e-10
5.88508302e-10
5.88640595e-10
6.09704198e-10
6.09550177e-10
5.96698345e-10
5.88553412e-10
5.88494685e-10
6.09906513e-10
6.08970767e-10
5.90790445e-10
5.89895472e-10
6.09640326e-10
6.08576175e-10
5.90843922e-10
5.90138438e-10
6.09423885e-10
6.08598518e-10
5.9080073e-10
5.901383e-10
6.09148727e-10
6.08941098e-10
5.97273216e-10
5.88887023e-10
5.89059567e-10
6.09184517e-10
6.08738496e-10
5.94616447e-10
5.90816414e-10
5.89191728e-10
5.89209387e-10
6.09498506e-10
6.08872479e-10
5.90806691e-10
5.90868553e-10
6.09504314e-10
6.00507927e-10
5.89281364e-10
6.09312199e-10
6.09039305e-10
5.90450835e-10
5.90202292e-10
6.08868167e-10
6.09080713e-10
5.96554324e-10
5.88906623e-10
5.89242635e-10
6.09097188e-10
6.09310444e-10
5.97229265e-10
5.88886337e-10
5.89179788e-10
6.09129196e-10
6.09082274e-10
5.90557303e-10
5.90255131e-10
6.08663894e-10
6.09069361e-10
5.96852556e-10
5.88938057e-10
5.89248288e-10
6.09037501e-10
6.090703e-10
5.90452923e-10
5.90227664e-10
6.08545068e-10
6.09068043e-10
5.95942693e-10
5.88893169e-10
5.89421712e-10
6.08875239e-10
6.09292053e-10
5.97127114e-10
5.88984206e-10
5.89324937e-10
6.08920565e-10
6.08987417e-10
5.90599346e-10
5.9058683e-10
6.0836132e-10
6.08440266e-10
5.94268151e-10
5.90832635e-10
5.89398213e-10
5.89651701e-10
6.08832711e-10
6.089897e-10
5.90511972e-10
5.90521511e-10
6.08364376e-10
6.09042613e-10
5.95717328e-10
5.89075182e-10
5.89650663e-10
6.08630757e-10
6.0931641e-10
5.94906479e-10
5.88910058e-10
5.89576256e-10
6.08648065e-10
6.09359426e-10
5.95124259e-10
5.88959105e-10
5.89515459e-10
6.08877633e-10
6.09093444e-10
5.90389594e-10
5.90357661e-10
6.08255269e-10
6.09155835e-10
5.94023287e-10
5.88864446e-10
5.89552193e-10
6.08540653e-10
6.09455317e-10
5.93597276e-10
5.88676469e-10
5.89204293e-10
6.09026003e-10
6.09170614e-10
5.90150113e-10
5.90026919e-10
6.08695393e-10
6.09101572e-10
5.90086308e-10
5.90099312e-10
6.0868038e-10
6.09107198e-10
5.89996058e-10
5.90080207e-10
6.0866813e-10
6.09129584e-10
5.89937198e-10
5.90145145e-10
6.08612972e-10
6.09056384e-10
5.8991682e-10
5.90141451e-10
6.08233788e-10
6.0921789e-10
5.92272888e-10
5.88637252e-10
5.8951346e-10
6.08512811e-10
6.09423639e-10
5.92866896e-10
5.88729025e-10
5.89474321e-10
6.08959173e-10
6.09084416e-10
5.90173369e-10
5.90314246e-10
6.08511977e-10
6.08942857e-10
5.90078745e-10
5.90364526e-10
6.08123994e-10
6.09235412e-10
5.92650054e-10
5.88552621e-10
5.89425171e-10
6.09341944e-10
6.08306211e-10
6.09652495e-10
5.94236539e-10
5.88416027e-10
5.89605745e-10
6.09284166e-10
6.08278552e-10
6.0917165e-10
5.9318842e-10
5.90119024e-10
5.89124645e-10
5.89521446e-10
6.0871087e-10
6.08967887e-10
5.89918344e-10
5.90181345e-10
6.0815197e-10
6.08963011e-10
5.9285484e-10
5.88986976e-10
5.89697135e-10
6.08411443e-10
6.09022025e-10
5.93688792e-10
5.89057313e-10
5.89709685e-10
6.08693577e-10
6.08671081e-10
5.90339903e-10
5.90397074e-10
6.08073787e-10
6.08779481e-10
5.93752408e-10
5.89248434e-10
5.89843899e-10
6.08387177e-10
6.08823586e-10
5.94473838e-10
5.89241442e-10
5.89866883e-10
6.08406395e-10
6.08784439e-10
5.94823629e-10
5.89322929e-10
5.89889604e-10
6.08399771e-10
6.08745005e-10
5.95071377e-10
5.89360667e-10
5.8989129e-10
6.083909e-10
6.08710029e-10
5.95020155e-10
5.89377366e-10
5.89858946e-10
6.08382557e-10
6.08687206e-10
5.94911799e-10
5.8937706e-10
5.89822262e-10
6.0837795e-10
6.08666421e-10
5.94607901e-10
5.89352236e-10
5.89761062e-10
6.08377154e-10
6.08662894e-10
5.94195137e-10
5.89318078e-10
5.89687584e-10
6.0840227e-10
6.08643049e-10
5.93759926e-10
5.89286114e-10
5.89669092e-10
6.08404296e-10
6.08667995e-10
5.93987852e-10
5.89342974e-10
5.89656141e-10
6.08599156e-10
6.08569189e-10
5.90577601e-10
5.90141892e-10
6.08186191e-10
6.08641933e-10
5.93090115e-10
5.89068992e-10
5.89542992e-10
6.09110977e-10
6.08149524e-10
6.08759424e-10
5.93722969e-10
5.89791586e-10
5.90201377e-10
5.88896897e-10
5.89246769e-10
6.09215064e-10
6.08352657e-10
6.08923314e-10
5.91182756e-10
5.89884998e-10
6.08383467e-10
6.08627868e-10
5.90206792e-10
5.89795916e-10
6.08329478e-10
6.0865562e-10
5.91407339e-10
5.8891318e-10
5.89128611e-10
6.0881997e-10
6.08718024e-10
5.90318465e-10
5.89730578e-10
6.08438748e-10
6.08668144e-10
5.91749812e-10
5.89138998e-10
5.89256014e-10
6.08874788e-10
6.08553175e-10
5.90424872e-10
5.89984878e-10
6.08705519e-10
6.08501779e-10
5.90357506e-10
5.89957506e-10
6.08472984e-10
6.08631196e-10
5.91663044e-10
5.89182925e-10
5.89349551e-10
6.0860659e-10
6.08582313e-10
5.9183562e-10
5.90176019e-10
5.89495375e-10
5.89661854e-10
6.0912865e-10
6.08279906e-10
6.08850382e-10
5.91653671e-10
5.89898193e-10
6.0837911e-10
6.08565715e-10
5.92611198e-10
5.89182677e-10
5.89565879e-10
6.09038035e-10
6.08147883e-10
6.08467672e-10
5.92747377e-10
5.90191891e-10
5.8971654e-10
5.89651867e-10
6.08843308e-10
6.08707058e-10
5.92278636e-10
5.89461095e-10
5.89538615e-10
6.08564489e-10
6.08613531e-10
5.93279035e-10
5.89456898e-10
5.89561149e-10
6.08705065e-10
6.08513021e-10
5.90712966e-10
5.90000282e-10
6.08556286e-10
6.08600019e-10
5.92256122e-10
5.8935168e-10
5.89363807e-10
6.08743589e-10
6.08526956e-10
5.90589756e-10
5.8988613e-10
6.08588457e-10
6.08606673e-10
5.92269332e-10
5.89481239e-10
5.89386498e-10
6.08764595e-10
6.0831625e-10
5.90819273e-10
5.90209557e-10
6.08762984e-10
6.08162603e-10
5.90709096e-10
5.90386566e-10
6.08614811e-10
6.08148465e-10
5.93298859e-10
5.9050535e-10
5.90564987e-10
5.903706e-10
5.90004298e-10
5.89976291e-10
6.08773675e-10
6.08321662e-10
5.91860332e-10
5.90416592e-10
6.08527091e-10
6.08428091e-10
5.93884609e-10
5.89527622e-10
5.89880123e-10
6.0898771e-10
6.08010395e-10
6.08404469e-10
5.92509997e-10
5.89389038e-10
5.89393738e-10
6.08585264e-10
6.08594692e-10
5.92228825e-10
5.89383825e-10
5.89417009e-10
6.08736288e-10
6.08429767e-10
5.90690372e-10
5.90027797e-10
6.08692289e-10
6.08411247e-10
5.92745407e-10
5.90058284e-10
5.90247408e-10
5.89805882e-10
5.8959049e-10
6.0897362e-10
6.08180265e-10
5.90892435e-10
5.90688006e-10
6.09155049e-10
6.07846674e-10
6.08424931e-10
5.93934479e-10
5.89498519e-10
5.89580573e-10
6.08576672e-10
)
;

boundaryField
{
    closed
    {
        type            calculated;
        value           nonuniform List<scalar> 0();
    }
    open
    {
        type            calculated;
        value           nonuniform List<scalar> 0();
    }
    sides
    {
        type            empty;
    }
    procBoundary1to0
    {
        type            processor;
        value           uniform 5.90097797e-10;
    }
    procBoundary1to2
    {
        type            processor;
        value           uniform 6.08422158e-10;
    }
}


// ************************************************************************* //
