/*--------------------------------*- C++ -*----------------------------------*\
| =========                 |                                                 |
| \\      /  F ield         | OpenFOAM: The Open Source CFD Toolbox           |
|  \\    /   O peration     | Version:  2306                                  |
|   \\  /    A nd           | Website:  www.openfoam.com                      |
|    \\/     M anipulation  |                                                 |
\*---------------------------------------------------------------------------*/
FoamFile
{
    version     2.0;
    format      ascii;
    arch        "LSB;label=32;scalar=64";
    class       volScalarField;
    location    "0.00056";
    object      prefDZ_T;
}
// * * * * * * * * * * * * * * * * * * * * * * * * * * * * * * * * * * * * * //

dimensions      [1 -1 -1 -1 0 0 0];

internalField   nonuniform List<scalar> 
531
(
-1.1918386e-09
-1.23135355e-09
-1.21985751e-09
-1.18946945e-09
-1.19503947e-09
-1.22968815e-09
-1.22860186e-09
-1.1927771e-09
-1.18729626e-09
-1.1934419e-09
-1.23125378e-09
-1.21770812e-09
-1.18939767e-09
-1.19546274e-09
-1.22984731e-09
-1.22826631e-09
-1.19397562e-09
-1.18733818e-09
-1.19233923e-09
-1.23109133e-09
-1.22938874e-09
-1.19255712e-09
-1.18766163e-09
-1.19537759e-09
-1.23111361e-09
-1.23009593e-09
-1.18994303e-09
-1.18876152e-09
-1.22123016e-09
-1.22839057e-09
-1.20726133e-09
-1.18798998e-09
-1.19288217e-09
-1.23107905e-09
-1.22905153e-09
-1.19340439e-09
-1.18754737e-09
-1.19502579e-09
-1.23136743e-09
-1.22761767e-09
-1.19010504e-09
-1.18913067e-09
-1.22022607e-09
-1.22834908e-09
-1.21527235e-09
-1.18862038e-09
-1.18797595e-09
-1.22814986e-09
-1.22854841e-09
-1.20149356e-09
-1.18760944e-09
-1.19501188e-09
-1.23120805e-09
-1.23246487e-09
-1.19021856e-09
-1.18861787e-09
-1.20605738e-09
-1.22942249e-09
-1.22511543e-09
-1.18979566e-09
-1.188473e-09
-1.21104934e-09
-1.2292188e-09
-1.21793707e-09
-1.18893623e-09
-1.18774538e-09
-1.21814403e-09
-1.22873377e-09
-1.2042388e-09
-1.18816722e-09
-1.20126128e-09
-1.2304956e-09
-1.22297777e-09
-1.18963715e-09
-1.1882533e-09
-1.21217895e-09
-1.22912996e-09
-1.21261112e-09
-1.18845457e-09
-1.19072041e-09
-1.23302273e-09
-1.20941781e-09
-1.18894672e-09
-1.20997981e-09
-1.22933544e-09
-1.21791678e-09
-1.18971184e-09
-1.18861985e-09
-1.21523001e-09
-1.22881959e-09
-1.21329457e-09
-1.18892061e-09
-1.18875733e-09
-1.23205978e-09
-1.22860711e-09
-1.1962303e-09
-1.18750452e-09
-1.20757721e-09
-1.22994424e-09
-1.21189042e-09
-1.18881379e-09
-1.18957655e-09
-1.23352088e-09
-1.23054937e-09
-1.19119047e-09
-1.18884211e-09
-1.22116985e-09
-1.22925496e-09
-1.19680389e-09
-1.18836255e-09
-1.21213992e-09
-1.22909662e-09
-1.21297717e-09
-1.18910641e-09
-1.18892347e-09
-1.23347288e-09
-1.2281484e-09
-1.19736713e-09
-1.18879913e-09
-1.20892368e-09
-1.2284388e-09
-1.23072996e-09
-1.19409441e-09
-1.19063846e-09
-1.18804977e-09
-1.18798033e-09
-1.22872328e-09
-1.22939776e-09
-1.19457068e-09
-1.18819807e-09
-1.21283119e-09
-1.22893377e-09
-1.20201007e-09
-1.18880576e-09
-1.21448784e-09
-1.22889283e-09
-1.21284396e-09
-1.18917434e-09
-1.18819383e-09
-1.22149394e-09
-1.22813163e-09
-1.19941608e-09
-1.18803936e-09
-1.21628217e-09
-1.22879179e-09
-1.20966497e-09
-1.18889808e-09
-1.18836689e-09
-1.22403836e-09
-1.22811924e-09
-1.21226566e-09
-1.18887798e-09
-1.18784304e-09
-1.22257922e-09
-1.22839738e-09
-1.19667471e-09
-1.18668449e-09
-1.21368349e-09
-1.22917362e-09
-1.19551505e-09
-1.18783845e-09
-1.21816089e-09
-1.22840392e-09
-1.19586934e-09
-1.18917389e-09
-1.223848e-09
-1.22813062e-09
-1.2117804e-09
-1.18847447e-09
-1.18744751e-09
-1.21984644e-09
-1.22820891e-09
-1.19507828e-09
-1.18897035e-09
-1.22720266e-09
-1.22804601e-09
-1.20702709e-09
-1.18771697e-09
-1.18683654e-09
-1.22325051e-09
-1.22815407e-09
-1.19404873e-09
-1.18890135e-09
-1.22840419e-09
-1.22793228e-09
-1.20633701e-09
-1.18781123e-09
-1.18706808e-09
-1.22606642e-09
-1.22801844e-09
-1.19349711e-09
-1.18909496e-09
-1.22965959e-09
-1.22772065e-09
-1.20655296e-09
-1.18793653e-09
-1.18718703e-09
-1.22848589e-09
-1.22789302e-09
-1.19321528e-09
-1.189146e-09
-1.2297034e-09
-1.22732719e-09
-1.21059372e-09
-1.18904109e-09
-1.18825691e-09
-1.23072114e-09
-1.22692663e-09
-1.20701076e-09
-1.18978516e-09
-1.18770563e-09
-1.18722448e-09
-1.22762983e-09
-1.22839775e-09
-1.19225607e-09
-1.1891487e-09
-1.22985579e-09
-1.22743198e-09
-1.20986348e-09
-1.18853084e-09
-1.18819097e-09
-1.2316616e-09
-1.22761659e-09
-1.20637121e-09
-1.18782493e-09
-1.18735839e-09
-1.23147891e-09
-1.22815728e-09
-1.19203045e-09
-1.18925478e-09
-1.2310298e-09
-1.22744715e-09
-1.20638003e-09
-1.18790849e-09
-1.18766637e-09
-1.23281265e-09
-1.22776371e-09
-1.20445035e-09
-1.1871726e-09
-1.18677779e-09
-1.2319276e-09
-1.22842829e-09
-1.19102372e-09
-1.18881092e-09
-1.23010342e-09
-1.22906372e-09
-1.19109263e-09
-1.18966625e-09
-1.23156573e-09
-1.22933355e-09
-1.19114169e-09
-1.18947724e-09
-1.23259471e-09
-1.22764257e-09
-1.20412679e-09
-1.18707186e-09
-1.18672161e-09
-1.23266218e-09
-1.22898318e-09
-1.19070389e-09
-1.18891704e-09
-1.23073981e-09
-1.22952008e-09
-1.19079779e-09
-1.18921475e-09
-1.23250834e-09
-1.22764933e-09
-1.20562053e-09
-1.18723142e-09
-1.18693985e-09
-1.23325052e-09
-1.22920008e-09
-1.19055041e-09
-1.18873628e-09
-1.23114014e-09
-1.22938728e-09
-1.19092967e-09
-1.18900638e-09
-1.23005637e-09
-1.22771615e-09
-1.21668089e-09
-1.18800484e-09
-1.1873378e-09
-1.21814761e-09
-1.22765182e-09
-1.22759162e-09
-1.20253359e-09
-1.19062111e-09
-1.18722006e-09
-1.18702329e-09
-1.1991939e-09
-1.22974113e-09
-1.22830777e-09
-1.19189378e-09
-1.1880012e-09
-1.2048394e-09
-1.22949305e-09
-1.23055332e-09
-1.18905246e-09
-1.18755622e-09
-1.2120078e-09
-1.22915189e-09
-1.22216594e-09
-1.18900216e-09
-1.18798063e-09
-1.22208367e-09
-1.22846197e-09
-1.19534436e-09
-1.18785969e-09
-1.20677239e-09
-1.22915238e-09
-1.2327281e-09
-1.18931161e-09
-1.18802582e-09
-1.22534224e-09
-1.22831681e-09
-1.1982204e-09
-1.18802988e-09
-1.19551556e-09
-1.22964139e-09
-1.22773141e-09
-1.19388463e-09
-1.18772589e-09
-1.19702781e-09
-1.22951964e-09
-1.22951589e-09
-1.19055862e-09
-1.187432e-09
-1.19264594e-09
-1.23033889e-09
-1.22851966e-09
-1.19261662e-09
-1.18761889e-09
-1.19449676e-09
-1.22997812e-09
-1.22807178e-09
-1.19406231e-09
-1.18811658e-09
-1.19526057e-09
-1.22983388e-09
-1.2279045e-09
-1.19484752e-09
-1.18833241e-09
-1.19800153e-09
-1.22908276e-09
-1.23381244e-09
-1.19594213e-09
-1.18755763e-09
-1.1871061e-09
-1.20884323e-09
-1.22898408e-09
-1.20762193e-09
-1.1889423e-09
-1.19129727e-09
-1.23044478e-09
-1.22701638e-09
-1.19856268e-09
-1.18817064e-09
-1.19709493e-09
-1.22986159e-09
-1.22973721e-09
-1.19024156e-09
-1.18769887e-09
-1.2096581e-09
-1.22907791e-09
-1.19843381e-09
-1.18845936e-09
-1.21275657e-09
-1.22852714e-09
-1.2241717e-09
-1.18889522e-09
-1.18750556e-09
-1.22184159e-09
-1.23264903e-09
-1.19032457e-09
-1.1902206e-09
-1.23174449e-09
-1.22717713e-09
-1.20750023e-09
-1.18764052e-09
-1.18723722e-09
-1.23310308e-09
-1.2326974e-09
-1.18994748e-09
-1.1908604e-09
-1.23009943e-09
-1.22721191e-09
-1.20221765e-09
-1.18723793e-09
-1.18841123e-09
-1.23190238e-09
-1.22957731e-09
-1.18959649e-09
-1.19200896e-09
-1.22952189e-09
-1.22767136e-09
-1.20045625e-09
-1.18743153e-09
-1.18710609e-09
-1.2343924e-09
-1.23370529e-09
-1.18893841e-09
-1.19510381e-09
-1.22987755e-09
-1.21375864e-09
-1.18901328e-09
-1.19752027e-09
-1.22933372e-09
-1.23095659e-09
-1.18966861e-09
-1.18785664e-09
-1.21769917e-09
-1.22872489e-09
-1.19566391e-09
-1.18822843e-09
-1.21879258e-09
-1.22867133e-09
-1.19220979e-09
-1.18925969e-09
-1.23292045e-09
-1.22834745e-09
-1.18892476e-09
-1.19375418e-09
-1.22909964e-09
-1.22766954e-09
-1.19427771e-09
-1.18763413e-09
-1.19207411e-09
-1.23030495e-09
-1.22796187e-09
-1.19063425e-09
-1.18755251e-09
-1.21423435e-09
-1.21933494e-09
-1.1890077e-09
-1.19744543e-09
-1.22933959e-09
-1.21238497e-09
-1.18886885e-09
-1.19630243e-09
-1.22893517e-09
-1.22853815e-09
-1.19053862e-09
-1.1874696e-09
-1.2019655e-09
-1.2293922e-09
-1.2105031e-09
-1.18877385e-09
-1.19718627e-09
-1.22897219e-09
-1.23017346e-09
-1.18940972e-09
-1.18708728e-09
-1.19993526e-09
-1.22952254e-09
-1.2075897e-09
-1.18900259e-09
-1.20331317e-09
-1.22812999e-09
-1.23262847e-09
-1.18962349e-09
-1.18700023e-09
-1.19320535e-09
-1.23036304e-09
-1.21005428e-09
-1.18856225e-09
-1.20592803e-09
-1.22858082e-09
-1.2030733e-09
-1.18890438e-09
-1.20952847e-09
-1.22801089e-09
-1.22478471e-09
-1.18896149e-09
-1.18716675e-09
-1.20090961e-09
-1.22926877e-09
-1.20427678e-09
-1.18816014e-09
-1.20903103e-09
-1.22819514e-09
-1.19990198e-09
-1.18858316e-09
-1.21695068e-09
-1.22743857e-09
-1.19819859e-09
-1.18954484e-09
-1.2203784e-09
-1.2266667e-09
-1.2171478e-09
-1.19280707e-09
-1.18827428e-09
-1.18784223e-09
-1.20562177e-09
-1.22843819e-09
-1.22172988e-09
-1.18845074e-09
-1.18724849e-09
-1.20625393e-09
-1.22864327e-09
-1.19903396e-09
-1.18879961e-09
-1.22034327e-09
-1.22768327e-09
-1.2153717e-09
-1.18858636e-09
-1.18741882e-09
-1.20702704e-09
-1.22857546e-09
-1.19900421e-09
-1.18810925e-09
-1.21746435e-09
-1.22784164e-09
-1.19626915e-09
-1.18824962e-09
-1.22078977e-09
-1.22768537e-09
-1.1947342e-09
-1.18867305e-09
-1.22981564e-09
-1.2276773e-09
-1.20704724e-09
-1.18776503e-09
-1.18715271e-09
-1.21117793e-09
-1.22838346e-09
-1.19662598e-09
-1.18758567e-09
-1.21772843e-09
-1.22804008e-09
-1.19549427e-09
)
;

boundaryField
{
    closed
    {
        type            calculated;
        value           nonuniform List<scalar> 0();
    }
    open
    {
        type            calculated;
        value           nonuniform List<scalar> 0();
    }
    sides
    {
        type            empty;
    }
    procBoundary1to0
    {
        type            processor;
        value           uniform -1.18702767e-09;
    }
    procBoundary1to2
    {
        type            processor;
        value           uniform -1.18747853e-09;
    }
}


// ************************************************************************* //
