/*--------------------------------*- C++ -*----------------------------------*\
| =========                 |                                                 |
| \\      /  F ield         | OpenFOAM: The Open Source CFD Toolbox           |
|  \\    /   O peration     | Version:  2306                                  |
|   \\  /    A nd           | Website:  www.openfoam.com                      |
|    \\/     M anipulation  |                                                 |
\*---------------------------------------------------------------------------*/
FoamFile
{
    version     2.0;
    format      ascii;
    arch        "LSB;label=32;scalar=64";
    class       volScalarField;
    location    "0.00056";
    object      T;
}
// * * * * * * * * * * * * * * * * * * * * * * * * * * * * * * * * * * * * * //

dimensions      [0 0 0 1 0 0 0];

internalField   nonuniform List<scalar> 
531
(
328.748127
338.803206
333.33533
326.086373
328.927311
339.373275
339.946778
328.700097
321.943273
328.672987
338.774597
332.724811
325.99309
328.857953
339.348539
339.986896
328.706204
322.112949
328.862676
338.9244
339.728659
328.779488
322.464739
328.755367
338.59334
336.519535
326.707028
324.677765
333.749893
339.545834
330.343744
323.891202
328.701392
339.075615
339.89549
328.671073
322.419319
328.627363
338.576567
335.70492
327.067181
325.38378
333.445094
339.432318
332.134529
324.63234
323.671905
335.986041
339.798284
329.40019
323.167088
328.579026
338.783883
337.32984
328.092919
324.362569
329.896014
339.066066
334.87177
327.36874
324.370304
330.920403
339.182033
332.809743
325.46554
323.431321
332.825966
339.586938
329.817355
324.347674
328.923352
338.921443
334.242937
326.716645
324.137818
331.203507
339.276812
331.466486
324.641259
329.060604
338.470135
330.668675
325.455685
330.554803
339.252504
332.800846
326.861455
324.844744
332.003935
339.26006
331.660619
325.10081
324.90529
337.261694
339.977441
328.936373
323.1453
330.022062
339.056629
331.285927
324.826237
326.128546
338.134426
339.400572
329.328615
324.716288
333.726727
339.661142
329.029532
324.539431
331.162922
339.242368
331.563199
325.496774
325.251095
338.338741
340.188205
329.103107
325.416589
330.451231
339.253106
336.683132
329.302727
327.803595
323.491954
323.341089
336.128847
339.686429
329.097619
324.099121
331.379181
339.322323
329.639579
325.509275
331.765197
339.384547
331.538101
325.574374
324.331731
333.828962
339.623552
329.496859
324.43546
332.260784
339.538097
330.855111
325.147355
324.472534
334.620277
339.3045
331.471162
325.034194
323.722241
334.165162
339.653421
329.274737
322.203063
331.536276
339.631014
329.051605
323.998452
332.82785
339.694024
329.388681
325.985684
334.576039
339.406926
331.362122
324.517104
323.31401
333.331277
339.826272
329.42206
325.832348
335.680546
339.535467
330.470208
323.151586
322.372153
334.380969
339.927692
329.455651
325.725154
336.077946
339.544763
330.368835
323.248792
322.714086
335.278219
340.034514
329.474921
326.068763
336.490266
339.584704
330.399001
323.490153
322.899888
336.066106
340.136316
329.47742
326.233238
336.495182
339.65841
331.101231
325.490747
324.747948
336.79596
339.984414
330.490695
327.554385
322.980172
322.867295
335.77358
339.973046
329.405266
325.946807
336.525876
339.5935
330.967998
324.808196
324.415947
337.138422
339.660079
330.331109
323.443031
322.973866
337.050852
340.101486
329.379519
326.198691
336.913571
339.641987
330.350592
323.790447
323.556878
337.530198
339.68302
330.026528
322.370047
322.002283
337.210069
340.016812
329.341012
325.150439
336.570956
339.846551
329.348029
326.222749
337.041508
339.775127
329.346775
326.164917
337.44263
339.61287
329.984882
322.119224
321.762257
337.45708
339.952568
328.71984
325.053461
336.778782
339.733938
328.868011
325.692835
337.418742
339.615094
330.204645
322.433035
322.038834
337.667148
339.909548
328.426276
324.751547
336.922032
339.77166
328.895815
325.286295
336.596369
339.391944
332.495612
324.079795
322.905964
332.815401
339.606288
339.474798
329.697474
327.855943
323.512373
321.88941
328.828103
338.994452
340.031283
328.873799
323.24475
329.671373
338.863881
339.139982
326.244765
322.318439
331.126968
338.99989
333.993281
325.245106
323.71769
334.019305
339.63698
329.098231
323.570688
330.006179
339.067469
337.394184
325.833351
323.448375
335.0729
339.613872
329.210416
323.818414
328.815336
339.278157
340.231268
328.766018
323.150957
328.852878
339.28196
339.727937
328.728427
322.157285
328.84891
339.133779
340.090965
328.687772
322.742651
328.702783
339.162854
340.141177
328.770501
323.554171
328.6878
339.134463
340.232971
328.8647
324.184841
328.97842
339.208965
337.85191
329.349217
322.694313
322.704352
330.358897
339.516199
330.338417
325.226043
329.058578
339.241283
340.290235
329.084424
324.046318
328.799467
339.042164
339.612685
328.251291
322.880124
330.607988
339.420898
329.116967
324.665681
331.337845
339.434591
334.587187
325.410336
321.966661
333.934445
338.777203
328.107952
327.275774
338.890257
339.898085
330.490876
322.860399
322.042028
337.641747
338.713119
326.791531
328.523496
339.368069
340.082474
329.570189
322.274175
324.416095
338.911883
336.392768
326.242667
329.353087
339.382516
340.041781
329.493967
321.984503
321.890737
338.092382
337.81905
324.951092
328.897873
339.247595
331.66794
325.5348
328.878997
339.282078
339.295838
326.867155
323.017818
332.706912
339.52692
329.234387
324.210975
333.022178
339.789181
329.597219
325.57685
337.600082
335.971424
324.958185
329.064693
339.540968
340.224214
328.813651
322.69167
328.999189
339.037378
340.118608
328.877751
322.89581
331.765082
333.184679
326.154591
328.795932
339.432809
331.328418
325.294046
328.846174
339.523938
340.103305
328.787051
322.519443
329.188347
339.177236
330.925062
325.093966
329.029354
339.514683
339.586354
327.506827
321.673943
328.967439
339.1969
330.324466
325.648011
329.532265
339.734757
337.388161
328.011755
321.405556
328.743408
339.160898
330.795938
325.007585
329.806599
339.576977
329.565769
325.647558
330.605479
339.684658
334.799473
326.664646
322.263345
329.05858
339.446152
329.707137
324.633507
330.455224
339.838872
329.257413
325.539931
332.48665
339.963113
329.386659
327.057661
333.491041
339.883595
332.602363
329.273939
324.393698
323.985485
329.900226
339.533888
333.875385
325.481013
322.65032
329.944682
339.502495
329.277534
325.432513
333.481302
339.66732
332.143496
325.631496
323.063451
330.0983
339.59593
329.223181
324.55498
332.632361
339.859098
329.240318
324.833632
333.616308
339.82176
329.531899
325.266057
336.575889
339.668787
330.431343
323.955482
322.918774
330.988828
339.730337
329.09042
323.727084
332.705134
339.866807
329.092512
)
;

boundaryField
{
    closed
    {
        type            fixedValue;
        value           nonuniform List<scalar> 0();
    }
    open
    {
        type            zeroGradient;
    }
    sides
    {
        type            empty;
    }
    procBoundary1to0
    {
        type            processor;
        value           uniform 321.589377;
    }
    procBoundary1to2
    {
        type            processor;
        value           uniform 323.616357;
    }
}


// ************************************************************************* //
