/*--------------------------------*- C++ -*----------------------------------*\
| =========                 |                                                 |
| \\      /  F ield         | OpenFOAM: The Open Source CFD Toolbox           |
|  \\    /   O peration     | Version:  2306                                  |
|   \\  /    A nd           | Website:  www.openfoam.com                      |
|    \\/     M anipulation  |                                                 |
\*---------------------------------------------------------------------------*/
FoamFile
{
    version     2.0;
    format      ascii;
    arch        "LSB;label=32;scalar=64";
    class       volScalarField;
    location    "0.00132";
    object      H2;
}
// * * * * * * * * * * * * * * * * * * * * * * * * * * * * * * * * * * * * * //

dimensions      [0 0 0 0 0 0 0];

internalField   nonuniform List<scalar> 
530
(
0.0110682951
0.0108297261
0.0108035623
0.0108034671
0.0108034612
0.0108034604
0.0108034603
0.0108034603
0.0108034603
0.0108034603
0.0108034603
0.0108034603
0.0108034603
0.0108034603
0.0108034603
0.0108034603
0.0108034603
0.0108034603
0.0108034603
0.0108034603
0.0108034603
0.0108034603
0.0108034603
0.0108034603
0.0108034603
0.0108034603
0.0108034603
0.0108034603
0.0108034603
0.0108034603
0.0108034603
0.0108034603
0.0108034603
0.0108034603
0.0108034603
0.0108034603
0.0108034603
0.0108034603
0.0108034603
0.0108034603
0.0108034603
0.0108034603
0.0108034603
0.0108034603
0.0108034603
0.0108034603
0.0108034603
0.0108034603
0.0108034603
0.0108034603
0.0108034603
0.0108034603
0.0108034603
0.0108034603
0.0108034603
0.0108034603
0.0108034603
0.0108034603
0.0108034603
0.0108034603
0.0108034603
0.0108034603
0.0108034603
0.0108034603
0.0108034603
0.0108034604
0.0108034604
0.0108034607
0.0108034607
0.010803462
0.0108034624
0.0108034703
0.0108034664
0.0108034703
0.0108034936
0.0108037073
0.0108037169
0.0108022704
0.0108014527
0.0108080111
0.0108147619
0.0107974664
0.0107746216
0.0108065005
0.0108318957
0.0108049301
0.0106815752
0.010675898
0.0110612115
0.0109955197
0.011048007
0.0106982772
0.0106466967
0.0106546068
0.0110233329
0.0110045998
0.0109192952
0.010674257
0.0106532917
0.0106913166
0.0110078737
0.0110040889
0.0110021973
0.0110118594
0.0106722591
0.0106477259
0.0106680706
0.0106481125
0.010677775
0.0110085781
0.0109923456
0.0110028337
0.0106944682
0.010685086
0.0109951139
0.0110006547
0.0107851804
0.0106783391
0.0106669438
0.0106664009
0.0106640174
0.0106479705
0.0106935867
0.0110170244
0.010995441
0.0110192252
0.0110009144
0.0110184507
0.0106537941
0.0106618933
0.0110041212
0.0110107898
0.0107663892
0.0106677197
0.0106693713
0.0106550527
0.0106602812
0.011012095
0.0110121285
0.0106689805
0.0106724535
0.0110104329
0.0110096242
0.0106645189
0.0106749172
0.011007254
0.0110114084
0.011000038
0.0110122785
0.01068714
0.0106613339
0.0106723828
0.0106532271
0.0106606688
0.0110176434
0.011013516
0.0106605558
0.0106708057
0.0110205074
0.0110112624
0.0110202933
0.0106534609
0.0106435667
0.0110167112
0.0110176246
0.0106626128
0.0106673067
0.0110108256
0.0110100298
0.0106685907
0.0106769405
0.0110043336
0.0110070404
0.010790502
0.0106624357
0.0106696551
0.0110064521
0.0110068539
0.0106810529
0.010667139
0.010658548
0.0106634686
0.0110098512
0.0110095994
0.0106599894
0.0106654928
0.0110098962
0.0110092526
0.0106700864
0.0106722779
0.0110015623
0.0110088218
0.0107092068
0.0106569787
0.0106692436
0.011010396
0.0110045984
0.0106731012
0.0106704572
0.0110017758
0.0110045768
0.0107361932
0.0106615166
0.0106730096
0.0110021819
0.0110006366
0.0107032127
0.0106734826
0.010666948
0.0106816537
0.0110067688
0.0107029334
0.0106596696
0.0110010545
0.0110045426
0.0106713346
0.010668887
0.0110039598
0.011000925
0.0106728729
0.0106815551
0.0109969914
0.0109983699
0.0107607334
0.0106829141
0.0106718446
0.0106806872
0.0109990734
0.0109998864
0.0107847156
0.0106743285
0.0106651228
0.0106684712
0.011005232
0.0110040272
0.0106739675
0.010673842
0.0110056802
0.0110034181
0.0106759849
0.0106738683
0.0109999704
0.0110066561
0.0107045891
0.0106498241
0.0106611772
0.0110134899
0.0110050198
0.0106628196
0.0106596173
0.0110107644
0.0110065691
0.0106695869
0.010666091
0.0110029744
0.0110066431
0.0106962077
0.0106550034
0.0106667923
0.0110106599
0.0110034845
0.0106717318
0.0106661869
0.0110030048
0.0110055819
0.0107218502
0.0106571747
0.0106671801
0.0110098737
0.0110016425
0.0106772799
0.0106733968
0.0110055191
0.011003368
0.0106833569
0.0106726044
0.0106670839
0.0106698252
0.0110070368
0.0110059798
0.010682073
0.0106724672
0.0107284544
0.0110032349
0.0110018305
0.0107389166
0.0106510815
0.0106622984
0.0110183096
0.0110195531
0.0110144112
0.0110225469
0.0106611202
0.0106357215
0.0106544641
0.0110180447
0.011015008
0.0106879557
0.0106532922
0.0106682518
0.0110148127
0.0110074914
0.0106754771
0.010665285
0.0110082488
0.0110094308
0.0106897429
0.0106559357
0.0106660321
0.011013346
0.0110044633
0.0106747896
0.0106637154
0.0110077212
0.0110082211
0.0106920368
0.010660381
0.0106688245
0.0110049558
0.0110057855
0.010747396
0.0106628274
0.0106710885
0.0110090679
0.0110062734
0.0106841326
0.0106678876
0.0106536003
0.0106590791
0.0110211483
0.0110144828
0.0110192183
0.0110150074
0.0110152557
0.0106504112
0.0106552222
0.011018687
0.0106831032
0.0106506732
0.0110096372
0.0110118645
0.0106764323
0.0106620145
0.0110054529
0.0110084422
0.0106849521
0.010650878
0.0106600328
0.0110136271
0.0110027465
0.0106690505
0.0106613444
0.0110074728
0.0110025514
0.0106844161
0.0106726265
0.0107632606
0.0109984396
0.0109951609
0.0107214083
0.010673484
0.0107274174
0.0109989645
0.0109954219
0.0107059739
0.0106736319
0.0106725894
0.0106669282
0.0106541348
0.0106639045
0.0110120746
0.0110022716
0.0110054601
0.0106886845
0.0106801395
0.0110102906
0.0109960003
0.0110063748
0.0107588886
0.010667986
0.0106751046
0.0106644727
0.0106584952
0.0106582299
0.0110136914
0.0110069939
0.0106638326
0.0106700663
0.011011294
0.0110031015
0.0110085673
0.0106796449
0.0106574075
0.0110090511
0.0110056858
0.01067517
0.0106681914
0.0110067052
0.0110037079
0.0106820201
0.0106703214
0.0106675666
0.0106670576
0.0110125369
0.0110011167
0.0106674871
0.0106744045
0.0110115945
0.0107666673
0.0106540724
0.0109993845
0.0110118759
0.0107553292
0.0106394657
0.0106619313
0.011021611
0.0110030039
0.0110159037
0.0110027224
0.0110098745
0.010675561
0.0106591825
0.0106625945
0.0106607195
0.0106471844
0.0106621361
0.0110147582
0.0110030135
0.0110084757
0.0107001001
0.0106741989
0.0110011167
0.0110032571
0.0107100606
0.0106775218
0.0106724338
0.0106712625
0.0110135135
0.0110040138
0.0106595507
0.010669191
0.0110132559
0.0109978604
0.0110113138
0.0107389377
0.0106524729
0.0106651706
0.0110051952
0.0110062692
0.0106927451
0.010661674
0.0106671819
0.0110062358
0.0110047657
0.0106836195
0.0106617615
0.0106644626
0.011004252
0.0110059691
0.0106879829
0.0106611368
0.0106686465
0.0110063129
0.0110031823
0.0106794158
0.0106673146
0.0106628709
0.0106670836
0.0110069435
0.0109980619
0.0110027358
0.0107094261
0.0106737893
0.0109973485
0.0109967028
0.010717975
0.0106815021
0.0106705778
0.0106813794
0.0110056117
0.0107052614
0.0106576881
0.0110020522
0.0110051566
0.0106739724
0.0106648931
0.0110052119
0.0110058267
0.0106745412
0.0106645818
0.0110032721
0.0110067936
0.0106805367
0.0106530585
0.0106605378
0.0110134301
0.0110047049
0.0106664981
0.0106601799
0.0110109445
0.0110072288
0.0106753251
0.0106644345
0.0110056105
0.0110070699
0.0106827231
0.0106570266
0.0106638445
0.0110127586
0.0110048181
0.0106697232
0.0106627384
0.011010369
0.0110074175
0.0106760015
0.0106647036
0.0110058721
0.011008186
0.0106799556
0.0106540507
0.010660699
0.0110149895
0.0110051579
0.0106654081
0.0106589949
0.0110135867
0.0110061927
0.0106701166
0.0106663574
0.0110092802
)
;

boundaryField
{
    closed
    {
        type            calculated;
        value           uniform 0.0144394338;
    }
    open
    {
        type            calculated;
        value           nonuniform List<scalar> 0();
    }
    sides
    {
        type            empty;
    }
    procBoundary0to1
    {
        type            processor;
        value           uniform 0.0110052928;
    }
}


// ************************************************************************* //
