/*--------------------------------*- C++ -*----------------------------------*\
| =========                 |                                                 |
| \\      /  F ield         | OpenFOAM: The Open Source CFD Toolbox           |
|  \\    /   O peration     | Version:  2306                                  |
|   \\  /    A nd           | Website:  www.openfoam.com                      |
|    \\/     M anipulation  |                                                 |
\*---------------------------------------------------------------------------*/
FoamFile
{
    version     2.0;
    format      ascii;
    arch        "LSB;label=32;scalar=64";
    class       volScalarField;
    location    "0.00132";
    object      p;
}
// * * * * * * * * * * * * * * * * * * * * * * * * * * * * * * * * * * * * * //

dimensions      [1 -1 -2 0 0 0 0];

internalField   nonuniform List<scalar> 
530
(
101201.551
101245.821
101322.828
101372.671
101378.841
101370.562
101378.244
101410.166
101443.22
101445.54
101418.915
101373.213
101339.012
101330.526
101342.077
101355.314
101354.701
101344.436
101327.501
101315.24
101316.019
101329.64
101349.94
101370.382
101389.124
101406.998
101423.901
101439.427
101453.617
101466.38
101477.278
101485.882
101492.058
101496.05
101498.382
101499.637
101500.233
101500.387
101500.241
101499.946
101499.654
101499.462
101499.399
101499.464
101499.653
101499.987
101500.511
101501.311
101502.507
101504.242
101506.656
101509.849
101513.859
101518.634
101524.037
101529.851
101535.812
101541.638
101547.061
101551.856
101555.857
101558.961
101561.127
101562.376
101562.734
101562.27
101561.087
101559.293
101556.992
101554.284
101551.261
101548.008
101544.598
101541.094
101537.552
101534.016
101530.523
101527.102
101523.777
101520.567
101517.487
101514.543
101511.738
101509.083
101506.589
101504.249
101502.024
101499.916
101498.037
101496.305
101494.715
101493.192
101491.776
101490.441
101489.266
101488.203
101487.219
101486.255
101485.331
101484.475
101483.676
101482.945
101482.261
101481.624
101481.044
101480.419
101479.792
101479.182
101478.57
101478.013
101477.452
101476.899
101476.36
101475.828
101475.289
101474.767
101474.335
101473.851
101473.366
101472.887
101472.421
101471.963
101471.512
101471.067
101470.627
101470.2
101469.777
101469.364
101468.975
101468.58
101468.175
101467.776
101467.387
101467.01
101466.629
101466.253
101465.881
101465.541
101465.197
101464.883
101464.548
101464.212
101463.878
101463.571
101463.232
101462.89
101462.553
101462.21
101461.88
101461.558
101461.231
101460.896
101460.57
101460.246
101459.947
101459.644
101459.367
101459.058
101458.786
101458.507
101458.231
101457.989
101457.717
101457.444
101457.171
101456.923
101456.664
101456.405
101456.147
101455.91
101455.653
101455.394
101455.135
101454.891
101454.651
101454.403
101454.177
101453.945
101453.733
101453.509
101453.29
101453.073
101452.871
101452.667
101452.643
101452.399
101452.152
101451.909
101451.687
101451.457
101451.229
101451.002
101450.786
101450.581
101450.367
101450.168
101449.965
101449.784
101449.59
101449.393
101449.194
101449.006
101448.83
101448.643
101448.469
101448.291
101448.126
101447.972
101447.814
101447.655
101447.509
101447.369
101447.237
101447.099
101446.958
101446.834
101446.704
101446.569
101446.431
101446.305
101446.168
101446.023
101445.873
101445.732
101445.595
101445.459
101445.319
101445.197
101445.069
101444.951
101444.839
101444.727
101444.612
101444.51
101444.403
101444.311
101444.215
101444.118
101444.019
101443.931
101443.841
101443.75
101443.655
101443.569
101443.496
101443.414
101443.337
101443.254
101443.189
101443.124
101443.055
101442.981
101442.92
101442.86
101442.798
101442.73
101442.671
101442.624
101442.57
101442.519
101442.463
101442.423
101442.384
101442.34
101442.289
101442.248
101442.22
101442.184
101442.149
101442.108
101442.082
101442.058
101442.033
101441.999
101441.972
101441.95
101441.929
101441.911
101441.891
101441.863
101441.85
101441.834
101441.816
101441.8
101441.776
101441.76
101441.758
101441.748
101441.739
101441.725
101441.707
101441.694
101441.844
101441.805
101441.766
101441.748
101441.717
101441.701
101441.7
101441.698
101441.697
101441.685
101441.688
101441.697
101441.702
101441.691
101441.688
101441.695
101441.698
101441.698
101441.686
101441.689
101441.695
101441.695
101441.681
101441.675
101441.677
101441.672
101441.665
101441.646
101441.635
101441.632
101441.624
101441.612
101441.587
101441.571
101441.559
101441.544
101441.525
101441.511
101441.486
101441.461
101441.437
101441.41
101441.397
101441.369
101441.339
101441.305
101441.283
101441.255
101441.213
101441.182
101441.155
101441.12
101441.072
101441.031
101441.008
101440.972
101440.934
101440.885
101440.852
101440.818
101440.778
101440.727
101440.689
101440.646
101440.603
101440.56
101440.51
101440.467
101440.429
101440.385
101440.339
101440.284
101440.238
101440.198
101440.152
101440.105
101440.059
101440.012
101439.97
101439.919
101439.867
101439.824
101439.782
101439.735
101439.673
101439.61
101439.567
101439.524
101439.472
101439.417
101439.364
101439.311
101439.244
101439.169
101439.108
101439.035
101438.971
101438.895
101438.819
101438.753
101438.683
101438.606
101438.522
101438.45
101438.379
101438.304
101438.22
101438.145
101438.068
101437.989
101437.919
101437.841
101437.754
101437.681
101437.602
101437.523
101437.441
101437.37
101437.289
101437.196
101437.11
101437.036
101436.952
101436.87
101436.78
101436.695
101436.61
101436.52
101436.436
101436.35
101436.255
101436.161
101436.068
101435.973
101435.885
101435.788
101435.691
101435.6
101435.512
101435.418
101435.313
101435.214
101435.116
101435.016
101434.919
101434.815
101434.704
101434.607
101434.497
101434.393
101434.281
101434.166
101434.058
101433.956
101433.845
101433.736
101433.616
101433.505
101433.4
101433.288
101433.179
101433.059
101432.95
101432.835
101432.715
101432.6
101432.474
101432.357
101432.236
101432.111
101431.991
101431.862
101431.743
101431.615
101431.485
101431.355
101431.231
101431.103
101430.973
101430.852
101430.733
101430.606
101430.472
101430.342
101430.214
101430.082
101429.947
101429.816
101429.688
101429.568
101429.439
101429.306
101429.185
101429.057
101428.925
101428.791
101428.667
101428.539
101428.402
101428.26
101428.123
101427.996
101427.858
101427.725
101427.585
101427.459
101427.325
101427.184
101427.04
101426.906
101426.769
101426.624
101426.474
101426.328
101426.192
101426.047
101425.908
101425.764
101425.633
101425.495
101425.352
101425.207
101425.073
101424.938
101424.795
101424.649
101424.508
101424.379
101424.241
101424.11
101423.974
101423.853
101423.726
101423.593
101423.458
101423.335
101423.209
101423.078
)
;

boundaryField
{
    closed
    {
        type            zeroGradient;
    }
    open
    {
        type            waveTransmissive;
        gamma           1.25;
        fieldInf        101325;
        lInf            1;
        value           nonuniform List<scalar> 0();
    }
    sides
    {
        type            empty;
    }
    procBoundary0to1
    {
        type            processor;
        value           uniform 101422.944;
    }
}


// ************************************************************************* //
