/*--------------------------------*- C++ -*----------------------------------*\
| =========                 |                                                 |
| \\      /  F ield         | OpenFOAM: The Open Source CFD Toolbox           |
|  \\    /   O peration     | Version:  2306                                  |
|   \\  /    A nd           | Website:  www.openfoam.com                      |
|    \\/     M anipulation  |                                                 |
\*---------------------------------------------------------------------------*/
FoamFile
{
    version     2.0;
    format      ascii;
    arch        "LSB;label=32;scalar=64";
    class       volScalarField;
    location    "0.00132";
    object      prefDZ_H2O;
}
// * * * * * * * * * * * * * * * * * * * * * * * * * * * * * * * * * * * * * //

dimensions      [1 -1 -1 0 0 0 0];

internalField   nonuniform List<scalar> 
530
(
-7.70837876e-07
-7.53310301e-07
-7.52047542e-07
-7.52077057e-07
-7.52079972e-07
-7.52080021e-07
-7.52080021e-07
-7.52080022e-07
-7.52080022e-07
-7.52080022e-07
-7.52080022e-07
-7.52080022e-07
-7.52080022e-07
-7.52080022e-07
-7.52080022e-07
-7.52080022e-07
-7.52080022e-07
-7.52080022e-07
-7.52080022e-07
-7.52080022e-07
-7.52080022e-07
-7.52080022e-07
-7.52080022e-07
-7.52080022e-07
-7.52080022e-07
-7.52080022e-07
-7.52080022e-07
-7.52080022e-07
-7.52080022e-07
-7.52080022e-07
-7.52080022e-07
-7.52080022e-07
-7.52080022e-07
-7.52080022e-07
-7.52080022e-07
-7.52080022e-07
-7.52080022e-07
-7.52080022e-07
-7.52080022e-07
-7.52080022e-07
-7.52080022e-07
-7.52080022e-07
-7.52080022e-07
-7.52080022e-07
-7.52080022e-07
-7.52080022e-07
-7.52080022e-07
-7.52080022e-07
-7.52080022e-07
-7.52080022e-07
-7.52080022e-07
-7.52080022e-07
-7.52080022e-07
-7.52080022e-07
-7.52080022e-07
-7.52080022e-07
-7.52080022e-07
-7.52080022e-07
-7.52080022e-07
-7.52080022e-07
-7.52080022e-07
-7.52080022e-07
-7.52080021e-07
-7.52080021e-07
-7.52080021e-07
-7.52080021e-07
-7.52080021e-07
-7.52080017e-07
-7.52080021e-07
-7.5207998e-07
-7.52079983e-07
-7.52080204e-07
-7.52079542e-07
-7.52078175e-07
-7.5208009e-07
-7.52099597e-07
-7.52098856e-07
-7.51934619e-07
-7.51839627e-07
-7.52551306e-07
-7.53274098e-07
-7.51385582e-07
-7.48799613e-07
-7.52371506e-07
-7.55054686e-07
-7.52199761e-07
-7.37159377e-07
-7.37207763e-07
-7.78419135e-07
-7.72926345e-07
-7.77479752e-07
-7.39922652e-07
-7.32851917e-07
-7.34537818e-07
-7.75338563e-07
-7.73712747e-07
-7.64234769e-07
-7.36959894e-07
-7.34002e-07
-7.39079291e-07
-7.73995922e-07
-7.73667437e-07
-7.73503646e-07
-7.74339657e-07
-7.36734641e-07
-7.33546576e-07
-7.36263911e-07
-7.33607122e-07
-7.37483502e-07
-7.74057014e-07
-7.72650348e-07
-7.73557985e-07
-7.39551842e-07
-7.38090693e-07
-7.72887224e-07
-7.73373569e-07
-7.50125606e-07
-7.37186334e-07
-7.36225879e-07
-7.35726358e-07
-7.35870341e-07
-7.33501373e-07
-7.39500556e-07
-7.74790616e-07
-7.72916565e-07
-7.74981544e-07
-7.7339033e-07
-7.74913688e-07
-7.34586381e-07
-7.35043098e-07
-7.73669003e-07
-7.74252006e-07
-7.47944792e-07
-7.35767903e-07
-7.36286835e-07
-7.34295774e-07
-7.35074797e-07
-7.7436407e-07
-7.74365421e-07
-7.36137651e-07
-7.36374621e-07
-7.74219199e-07
-7.74149549e-07
-7.35723203e-07
-7.36637279e-07
-7.73941834e-07
-7.74305911e-07
-7.73317761e-07
-7.74380157e-07
-7.38409158e-07
-7.34886077e-07
-7.36500455e-07
-7.33933246e-07
-7.35025058e-07
-7.74846269e-07
-7.74486391e-07
-7.34945576e-07
-7.36137582e-07
-7.75092665e-07
-7.74293204e-07
-7.75073132e-07
-7.34175832e-07
-7.32918423e-07
-7.74764441e-07
-7.74842702e-07
-7.35389732e-07
-7.35684154e-07
-7.74253118e-07
-7.74185096e-07
-7.36213046e-07
-7.36898366e-07
-7.73689222e-07
-7.73926708e-07
-7.50625512e-07
-7.3525854e-07
-7.36327812e-07
-7.73875217e-07
-7.73907974e-07
-7.3766251e-07
-7.35774546e-07
-7.34920803e-07
-7.35345885e-07
-7.74167429e-07
-7.74145962e-07
-7.35149417e-07
-7.35573996e-07
-7.74172001e-07
-7.74117209e-07
-7.36408729e-07
-7.36365028e-07
-7.73450208e-07
-7.74079977e-07
-7.41239825e-07
-7.34524096e-07
-7.36333953e-07
-7.74216543e-07
-7.73710722e-07
-7.36706786e-07
-7.36319195e-07
-7.73468705e-07
-7.73710769e-07
-7.44452305e-07
-7.35228952e-07
-7.36834483e-07
-7.73503727e-07
-7.73367396e-07
-7.405098e-07
-7.3677967e-07
-7.36069095e-07
-7.37812992e-07
-7.73896505e-07
-7.40470649e-07
-7.35183127e-07
-7.73405066e-07
-7.73704539e-07
-7.36692307e-07
-7.36240142e-07
-7.73654859e-07
-7.73393019e-07
-7.36918326e-07
-7.37690015e-07
-7.7305063e-07
-7.73175076e-07
-7.47335521e-07
-7.37866072e-07
-7.3670813e-07
-7.37595584e-07
-7.7323206e-07
-7.73305825e-07
-7.49988146e-07
-7.36830046e-07
-7.3579262e-07
-7.36121404e-07
-7.73767116e-07
-7.73662498e-07
-7.36862389e-07
-7.36723758e-07
-7.7380633e-07
-7.73611357e-07
-7.37170897e-07
-7.36676744e-07
-7.73310963e-07
-7.73891154e-07
-7.40764153e-07
-7.33739789e-07
-7.35448442e-07
-7.74483642e-07
-7.73745624e-07
-7.35450777e-07
-7.3508983e-07
-7.74246901e-07
-7.73882942e-07
-7.36358125e-07
-7.35769234e-07
-7.73571773e-07
-7.73889723e-07
-7.39691842e-07
-7.34358133e-07
-7.36068971e-07
-7.7423856e-07
-7.7361425e-07
-7.36565658e-07
-7.35831942e-07
-7.73574605e-07
-7.73798051e-07
-7.42777609e-07
-7.34627357e-07
-7.36144983e-07
-7.74170891e-07
-7.73454356e-07
-7.37178362e-07
-7.36713647e-07
-7.73793417e-07
-7.73607446e-07
-7.38050242e-07
-7.36472827e-07
-7.36031733e-07
-7.36181133e-07
-7.73923474e-07
-7.73833786e-07
-7.37940787e-07
-7.36384792e-07
-7.4349938e-07
-7.73599016e-07
-7.73473195e-07
-7.44470588e-07
-7.33891192e-07
-7.35141342e-07
-7.74902605e-07
-7.75010172e-07
-7.74565227e-07
-7.75269534e-07
-7.35088066e-07
-7.31804042e-07
-7.34236035e-07
-7.74881776e-07
-7.74616653e-07
-7.38217812e-07
-7.33985828e-07
-7.35920649e-07
-7.74600379e-07
-7.73964841e-07
-7.36831507e-07
-7.35610445e-07
-7.7403139e-07
-7.7413263e-07
-7.38745286e-07
-7.34375471e-07
-7.35886748e-07
-7.74472679e-07
-7.73700106e-07
-7.3679003e-07
-7.35526252e-07
-7.73985357e-07
-7.74026798e-07
-7.39028986e-07
-7.35002468e-07
-7.36180783e-07
-7.73745239e-07
-7.73816053e-07
-7.45641791e-07
-7.35298262e-07
-7.3641392e-07
-7.74102451e-07
-7.73859301e-07
-7.37912017e-07
-7.35813411e-07
-7.34183229e-07
-7.34729243e-07
-7.75147417e-07
-7.74571824e-07
-7.74979065e-07
-7.74616646e-07
-7.74635287e-07
-7.338272e-07
-7.34424376e-07
-7.74933991e-07
-7.37809101e-07
-7.33811994e-07
-7.74151571e-07
-7.74343711e-07
-7.37098462e-07
-7.35187383e-07
-7.73787265e-07
-7.74046374e-07
-7.3830103e-07
-7.33820791e-07
-7.35299064e-07
-7.74495886e-07
-7.73548667e-07
-7.36196904e-07
-7.35395348e-07
-7.73961594e-07
-7.73533685e-07
-7.38267972e-07
-7.36648838e-07
-7.47611286e-07
-7.73180414e-07
-7.72892977e-07
-7.42658829e-07
-7.3681786e-07
-7.43396346e-07
-7.73225247e-07
-7.72917589e-07
-7.40784437e-07
-7.36758271e-07
-7.36661648e-07
-7.3591503e-07
-7.34385577e-07
-7.3551384e-07
-7.74359541e-07
-7.7351356e-07
-7.73786635e-07
-7.38496976e-07
-7.37495706e-07
-7.74207663e-07
-7.7297165e-07
-7.73868405e-07
-7.46930037e-07
-7.35964839e-07
-7.36862724e-07
-7.35541215e-07
-7.34818476e-07
-7.34803077e-07
-7.74501672e-07
-7.73921426e-07
-7.35568842e-07
-7.36189939e-07
-7.74291314e-07
-7.73585527e-07
-7.74054424e-07
-7.37453938e-07
-7.34820402e-07
-7.74099519e-07
-7.73806311e-07
-7.36971961e-07
-7.36069842e-07
-7.7389562e-07
-7.73636288e-07
-7.37857481e-07
-7.36289966e-07
-7.3600911e-07
-7.35977733e-07
-7.74401223e-07
-7.73410392e-07
-7.35971533e-07
-7.3692164e-07
-7.74318958e-07
-7.47919757e-07
-7.34318613e-07
-7.73261199e-07
-7.74343664e-07
-7.46679907e-07
-7.32457848e-07
-7.35482982e-07
-7.75188359e-07
-7.73574484e-07
-7.74693411e-07
-7.7355134e-07
-7.74170786e-07
-7.36971156e-07
-7.34770149e-07
-7.35355566e-07
-7.3495497e-07
-7.3348949e-07
-7.35152307e-07
-7.74592855e-07
-7.7357912e-07
-7.74048511e-07
-7.39858222e-07
-7.36710269e-07
-7.73414725e-07
-7.73599104e-07
-7.41177084e-07
-7.37063106e-07
-7.36541633e-07
-7.36375447e-07
-7.74485916e-07
-7.73663434e-07
-7.35036824e-07
-7.36150172e-07
-7.74461936e-07
-7.73131485e-07
-7.74293534e-07
-7.44678761e-07
-7.34152357e-07
-7.35776235e-07
-7.73764824e-07
-7.73856763e-07
-7.39185971e-07
-7.35203242e-07
-7.36049216e-07
-7.73855713e-07
-7.73726124e-07
-7.38015177e-07
-7.35262263e-07
-7.35685023e-07
-7.73683587e-07
-7.73830511e-07
-7.38577095e-07
-7.35169351e-07
-7.36206243e-07
-7.73861686e-07
-7.73589517e-07
-7.37537455e-07
-7.3595945e-07
-7.35518366e-07
-7.35947474e-07
-7.73913614e-07
-7.73148007e-07
-7.73549113e-07
-7.41179351e-07
-7.36849457e-07
-7.73085358e-07
-7.73029289e-07
-7.42299423e-07
-7.37748102e-07
-7.36530026e-07
-7.37750089e-07
-7.73796654e-07
-7.40704049e-07
-7.34921007e-07
-7.7349192e-07
-7.73759945e-07
-7.36941186e-07
-7.35678664e-07
-7.7376428e-07
-7.73819694e-07
-7.37022456e-07
-7.35578619e-07
-7.73596989e-07
-7.73903382e-07
-7.37757594e-07
-7.34096578e-07
-7.35297905e-07
-7.74479117e-07
-7.73720626e-07
-7.35814599e-07
-7.35122089e-07
-7.74263539e-07
-7.73941319e-07
-7.36947962e-07
-7.35523966e-07
-7.7380144e-07
-7.73928149e-07
-7.37920383e-07
-7.34528295e-07
-7.35626479e-07
-7.744215e-07
-7.73731443e-07
-7.36176361e-07
-7.35389327e-07
-7.74213974e-07
-7.7395819e-07
-7.37021142e-07
-7.3552642e-07
-7.73824032e-07
-7.74025169e-07
-7.3759642e-07
-7.34142414e-07
-7.352704e-07
-7.7461507e-07
-7.73760162e-07
-7.35609685e-07
-7.34996209e-07
-7.74493061e-07
-7.73851165e-07
-7.36255356e-07
-7.35803613e-07
-7.74119197e-07
)
;

boundaryField
{
    closed
    {
        type            calculated;
        value           uniform -1.03393817e-06;
    }
    open
    {
        type            calculated;
        value           nonuniform List<scalar> 0();
    }
    sides
    {
        type            empty;
    }
    procBoundary0to1
    {
        type            processor;
        value           uniform -7.73774096e-07;
    }
}


// ************************************************************************* //
