/*--------------------------------*- C++ -*----------------------------------*\
| =========                 |                                                 |
| \\      /  F ield         | OpenFOAM: The Open Source CFD Toolbox           |
|  \\    /   O peration     | Version:  2306                                  |
|   \\  /    A nd           | Website:  www.openfoam.com                      |
|    \\/     M anipulation  |                                                 |
\*---------------------------------------------------------------------------*/
FoamFile
{
    version     2.0;
    format      ascii;
    arch        "LSB;label=32;scalar=64";
    class       volScalarField;
    location    "0.0006";
    object      prefDh_H2O;
}
// * * * * * * * * * * * * * * * * * * * * * * * * * * * * * * * * * * * * * //

dimensions      [1 1 -3 0 0 0 0];

internalField   nonuniform List<scalar> 
531
(
88.1972032
88.1312778
93.0625161
92.3971528
90.3439492
87.9280511
87.9569491
92.984088
92.5375101
89.1361697
87.9063856
88.2722893
92.8601314
92.7656048
88.2421756
88.1703954
93.0755454
92.9191407
88.175314
88.1011162
92.9093801
92.4320829
90.2971412
88.0323127
87.8552436
88.9879664
92.8180317
92.4869339
92.4313146
92.4705939
88.9279504
88.028944
87.9828341
87.8397511
87.7352466
88.6683889
92.9848643
92.3423586
92.4437143
90.6439345
87.9098148
87.8415988
91.4914602
92.5624671
90.6650768
87.9699446
87.9438712
91.9819759
92.4966549
90.9892656
88.0286666
87.8745893
89.9218793
92.7021958
92.5120444
92.4323782
92.5517412
88.4082489
88.0240177
87.8232913
87.7901224
89.6142437
92.6455861
92.4088992
89.842249
87.9887
88.0393043
92.5903241
92.5220807
90.2769646
88.0329011
87.9905169
91.5652925
92.4579513
92.537765
88.4306059
87.8975213
88.1803448
92.8242739
92.6687102
90.085952
88.2412281
88.019404
88.3560812
92.9185439
92.5001905
88.2561111
88.3327688
92.8995793
92.2514203
88.261102
88.4352156
92.9324947
92.7146827
89.2668397
87.9347566
88.1500302
92.6739716
92.0379109
88.2864112
88.6416315
93.0375959
92.6803291
89.3194346
88.0079387
88.1670907
92.4651632
92.4978737
91.1115774
88.7142511
88.1105908
88.0017708
88.5021722
92.8649718
92.6345126
89.4583991
88.0077988
88.4189742
92.868905
91.6466622
88.1848275
88.7434055
93.0257406
91.4216931
88.1344528
88.7553415
93.0175995
91.2171295
88.1662061
88.9229169
92.937269
92.7972655
88.6543222
87.8733762
88.5146876
92.9822118
91.0031348
88.1522207
89.2724612
92.83555
92.8425803
88.2982872
87.9146913
89.0896924
92.8773647
90.7259788
88.160689
89.376415
92.7667905
92.6544383
88.5956054
87.8574205
88.9848385
92.8834873
90.4419554
88.0922538
89.4914866
92.7112607
92.6912369
88.407738
87.8777856
88.868357
92.838559
92.5732001
88.7465855
87.859579
88.85739
92.8366707
92.5397564
88.765304
87.7928721
88.7379793
92.8707549
92.3579493
91.1199657
87.8333893
87.5619887
89.1419548
92.7922028
92.323901
91.4283252
88.453806
88.3735821
88.2143743
88.1732633
90.4675274
92.5275799
91.6292835
88.1393287
87.9141148
90.2352448
92.5728476
89.7739696
87.9725909
90.3306614
92.5546422
89.5146829
87.9354699
90.4073785
92.5427457
89.4567367
87.9910162
90.3627548
92.5140577
92.3868966
88.0695978
87.8118374
89.6346764
92.5850999
92.7327367
88.1246507
87.8174997
89.7415776
92.5805491
92.9938506
88.1074344
87.8276959
89.8798051
92.5702565
92.5594717
88.1015082
87.849348
90.3617281
92.535255
89.4295152
87.9953337
90.9638908
92.473625
91.4064103
87.9808547
87.7756698
90.3693286
92.5258357
89.2193267
87.9236492
91.2184983
92.4497713
88.9531621
87.9704798
91.3485414
92.4394851
91.3486481
87.9714389
87.8227522
91.2103942
92.4406411
88.8330916
87.9784205
91.954452
92.4060267
90.9702843
87.9346727
87.8594104
91.6864659
92.4581513
90.8639974
87.8458722
87.7546247
90.9300662
92.4492574
92.6374865
92.329406
92.6093137
88.5737541
88.0094175
88.0255327
87.9411274
87.7896831
88.5561749
92.5982361
92.475979
88.1433766
87.8650779
92.5220103
92.3674726
88.4767621
88.0958543
92.9469495
92.3289349
90.4152454
87.9573681
87.9413194
92.8437483
92.3722372
89.7733047
87.8580291
87.8229753
92.8388566
92.3444065
88.3315634
88.0009573
92.866187
92.3722696
89.5489135
87.8143125
87.7799309
92.8521506
92.3583963
88.2825556
87.9788554
92.8679988
92.3496295
89.8031197
87.8720796
87.8647522
92.7734922
92.3618255
89.8532982
87.870023
87.86633
92.7440836
92.3577465
89.9210025
87.8798574
87.8773149
92.7394691
92.3519969
89.966964
87.8812194
87.8811775
92.7217763
92.350462
89.9060633
87.8692665
87.8725534
92.7006037
92.3507464
89.8559884
87.8573217
87.8659448
92.6663019
92.3483446
89.7974009
87.8559843
87.8706178
92.6315216
92.3590571
89.6105587
87.8484294
87.8468728
92.5956416
92.3297761
88.1367636
87.9457688
92.7291999
92.3548633
89.5399854
87.8255681
87.8856649
92.5190558
92.3899311
89.9727342
87.7598946
87.9227603
92.6374222
92.2301932
92.359169
89.4178707
88.0237806
87.7700442
87.7827608
92.6747073
92.4107332
87.9620293
87.9008416
92.5967123
92.4002875
89.8445742
87.7319074
87.9162855
92.5874657
92.1923114
92.3734811
89.2335178
87.8322926
87.5745961
87.5743655
92.467024
92.2692594
87.6610889
87.632504
92.3909635
91.9653618
92.1813551
87.5937024
87.5085497
91.8870915
91.7103068
87.2112658
87.1479511
91.2678508
91.0611977
86.7646814
86.8137676
90.4107009
90.1170496
89.8720706
89.5600527
89.2760256
88.9069253
88.5788041
88.1807448
87.8346043
87.4534462
87.1856378
87.025722
86.6236615
86.0633373
85.5846653
84.8228554
84.2987914
83.2958273
82.7762098
81.9651269
81.9194046
80.940251
80.4099792
78.9080157
78.092132
76.2002895
74.9749983
73.2073408
72.3715006
73.1699077
71.413697
64.901822
61.333365
65.0754285
62.2177626
60.2200607
50.3612289
53.8451418
39.6865574
41.1216181
37.5664106
30.650675
23.3111196
12.4919838
-1.9522804
-11.775264
-22.0160161
-45.479131
-57.7136252
-67.1906314
-75.1423646
-83.9445464
-91.7034153
-99.1831582
-105.468153
-111.843595
-117.549865
-123.113896
-127.906158
-132.644071
-136.608197
-140.468336
-143.565957
-146.348679
-148.70034
-151.015572
-152.985667
-154.903104
-156.545694
-158.225448
-159.73379
-161.358175
-162.820697
-164.449203
-165.877125
-167.335613
-168.646444
-169.929669
-171.133371
-172.409915
-173.606514
-174.820221
-175.739404
-176.611889
-177.420141
-178.204864
-178.968239
-179.712664
-180.42757
-181.118164
-181.798349
-182.501344
-183.190553
-183.91798
-184.585935
-185.212223
-185.806733
-186.377251
-186.921371
-187.443135
-187.942455
-188.409308
-188.865816
-189.311935
-189.750298
-190.197546
-190.639411
-191.071201
-191.57463
-192.02346
-192.463089
-192.839459
-193.231097
-193.581029
-193.950884
-194.277088
-194.626915
-194.928805
-195.257001
-195.537402
-195.847659
-196.108947
-196.403438
-196.64762
-196.916252
-197.136468
-197.395407
-197.604177
-197.854558
-198.052674
-198.29486
-198.483102
-198.722505
-198.9088
-199.134563
-199.31333
-199.529962
)
;

boundaryField
{
    closed
    {
        type            calculated;
        value           nonuniform List<scalar> 0();
    }
    open
    {
        type            calculated;
        value           nonuniform List<scalar> 0();
    }
    sides
    {
        type            empty;
    }
    procBoundary4to3
    {
        type            processor;
        value           uniform 92.8528539;
    }
    procBoundary4to5
    {
        type            processor;
        value           uniform -199.70348;
    }
}


// ************************************************************************* //
