/*--------------------------------*- C++ -*----------------------------------*\
| =========                 |                                                 |
| \\      /  F ield         | OpenFOAM: The Open Source CFD Toolbox           |
|  \\    /   O peration     | Version:  2306                                  |
|   \\  /    A nd           | Website:  www.openfoam.com                      |
|    \\/     M anipulation  |                                                 |
\*---------------------------------------------------------------------------*/
FoamFile
{
    version     2.0;
    format      ascii;
    arch        "LSB;label=32;scalar=64";
    class       volScalarField;
    location    "0.0006";
    object      prefDPV_T;
}
// * * * * * * * * * * * * * * * * * * * * * * * * * * * * * * * * * * * * * //

dimensions      [1 -1 -1 -1 0 0 0];

internalField   nonuniform List<scalar> 
531
(
5.90989023e-10
5.90749531e-10
6.12319947e-10
6.09033e-10
5.99879094e-10
5.89946395e-10
5.90027541e-10
6.11942865e-10
6.09741913e-10
5.94657363e-10
5.89903501e-10
5.91153858e-10
6.11313729e-10
6.10865009e-10
5.91103532e-10
5.90897712e-10
6.12383728e-10
6.11622059e-10
5.90866295e-10
5.9058905e-10
6.11616126e-10
6.09219079e-10
5.99676742e-10
5.90218939e-10
5.8964954e-10
5.93999839e-10
6.11110193e-10
6.09474894e-10
6.09193619e-10
6.09395044e-10
5.93785842e-10
5.90323055e-10
5.90103201e-10
5.89489141e-10
5.89249205e-10
5.92642557e-10
6.11925146e-10
6.0876875e-10
6.09243826e-10
6.01204396e-10
5.89840658e-10
5.89563535e-10
6.05037183e-10
6.09856672e-10
6.01297031e-10
5.90094102e-10
5.89966308e-10
6.07291828e-10
6.09530093e-10
6.0275315e-10
5.90231138e-10
5.89725889e-10
5.97992792e-10
6.10539809e-10
6.09593497e-10
6.09202686e-10
6.0990889e-10
5.91689941e-10
5.9028394e-10
5.89448979e-10
5.89390028e-10
5.96654018e-10
6.1025234e-10
6.09084336e-10
5.97671736e-10
5.90219985e-10
5.90324373e-10
6.10112107e-10
6.09655509e-10
5.99580766e-10
5.90355932e-10
5.90141117e-10
6.05368581e-10
6.09334546e-10
6.09825019e-10
5.91730995e-10
5.89899706e-10
5.90850249e-10
6.1118136e-10
6.10365831e-10
5.98768159e-10
5.91144094e-10
5.90337507e-10
5.91474955e-10
6.11625844e-10
6.09672936e-10
5.91172553e-10
5.91364404e-10
6.11547557e-10
6.08527641e-10
5.9118209e-10
5.91757379e-10
6.11697795e-10
6.10598961e-10
5.95184788e-10
5.90005576e-10
5.90595891e-10
6.10492953e-10
6.07538581e-10
5.91263135e-10
5.92557159e-10
6.12185321e-10
6.10428554e-10
5.95409773e-10
5.90290816e-10
5.90653716e-10
6.0950671e-10
6.09536391e-10
6.03304277e-10
5.93023993e-10
5.90576296e-10
5.90271083e-10
5.91997704e-10
6.11364206e-10
6.1019785e-10
5.96020093e-10
5.90290581e-10
5.91635004e-10
6.11396382e-10
6.05737911e-10
5.90869204e-10
5.92935502e-10
6.12128022e-10
6.04712049e-10
5.9066205e-10
5.9296617e-10
6.12086064e-10
6.03781762e-10
5.90808794e-10
5.93686604e-10
6.11686562e-10
6.1099635e-10
5.92612767e-10
5.89756183e-10
5.91976702e-10
6.11923783e-10
6.02813761e-10
5.9075603e-10
5.95143815e-10
6.1118477e-10
6.1124811e-10
5.91202943e-10
5.898969e-10
5.94368153e-10
6.11389579e-10
6.01571923e-10
5.90781675e-10
5.95602853e-10
6.10846978e-10
6.10301444e-10
5.92351777e-10
5.89676178e-10
5.9391018e-10
6.11423632e-10
6.00301873e-10
5.90522106e-10
5.96098668e-10
6.10573275e-10
6.10477968e-10
5.91603909e-10
5.89791756e-10
5.9347726e-10
6.11197453e-10
6.09906373e-10
5.92983946e-10
5.89726319e-10
5.93422874e-10
6.1118724e-10
6.09746679e-10
5.93055104e-10
5.8943962e-10
5.9289501e-10
6.11352143e-10
6.08840083e-10
6.03342574e-10
5.89433744e-10
5.88482765e-10
5.94569872e-10
6.10967692e-10
6.08668748e-10
6.04735582e-10
5.91943025e-10
5.9165511e-10
5.9105785e-10
5.90885345e-10
6.00407519e-10
6.09657296e-10
6.05646772e-10
5.90683546e-10
5.8987357e-10
5.99366237e-10
6.09892839e-10
5.97391088e-10
5.9003471e-10
5.99777296e-10
6.09813174e-10
5.96255959e-10
5.89887635e-10
6.00118876e-10
6.09750768e-10
5.96013644e-10
5.90134605e-10
5.99930941e-10
6.09602333e-10
6.09134617e-10
5.90340213e-10
5.89512619e-10
5.9674696e-10
6.09950161e-10
6.10688324e-10
5.90545845e-10
5.89566537e-10
5.97210929e-10
6.09925429e-10
6.11960964e-10
5.9049469e-10
5.89599415e-10
5.9780684e-10
6.09874159e-10
6.09942218e-10
5.90505095e-10
5.89639264e-10
5.99925858e-10
6.09708315e-10
5.95913016e-10
5.90152579e-10
6.02631382e-10
6.09403705e-10
6.04638223e-10
5.90036285e-10
5.89297293e-10
5.99958218e-10
6.09669374e-10
5.95017747e-10
5.89845287e-10
6.03789808e-10
6.09293453e-10
5.93918468e-10
5.90041257e-10
6.04383877e-10
6.09233854e-10
6.04376306e-10
5.90039179e-10
5.8946993e-10
6.03752507e-10
6.09248908e-10
5.93447124e-10
5.90058746e-10
6.07174736e-10
6.09069805e-10
6.02669488e-10
5.89914573e-10
5.89638249e-10
6.05934136e-10
6.09323783e-10
6.0219326e-10
5.89565428e-10
5.89208951e-10
6.02479988e-10
6.09286339e-10
6.10211023e-10
6.08689842e-10
6.10074807e-10
5.9235965e-10
5.90323423e-10
5.90262044e-10
5.89940913e-10
5.89400594e-10
5.92308524e-10
6.10017464e-10
6.09439125e-10
5.90786049e-10
5.89659683e-10
6.09800335e-10
6.08885904e-10
5.92124018e-10
5.90506563e-10
6.11770001e-10
6.08682122e-10
6.00207842e-10
5.90051415e-10
5.89945572e-10
6.11260705e-10
6.08897129e-10
5.97416475e-10
5.89675281e-10
5.89440796e-10
6.11230329e-10
6.08781358e-10
5.91515546e-10
5.9012731e-10
6.11375196e-10
6.08899585e-10
5.9646175e-10
5.895071e-10
5.8927587e-10
6.11292247e-10
6.08851677e-10
5.91310424e-10
5.90038136e-10
6.11381982e-10
6.0878916e-10
5.97543447e-10
5.89682132e-10
5.89632607e-10
6.10904439e-10
6.08848423e-10
5.9775124e-10
5.89660068e-10
5.8963711e-10
6.10756606e-10
6.08827216e-10
5.98041476e-10
5.89693411e-10
5.89677223e-10
6.10732078e-10
6.08799322e-10
5.98238041e-10
5.89687149e-10
5.89688002e-10
6.10644015e-10
6.08793123e-10
5.97971459e-10
5.89630951e-10
5.89648735e-10
6.10538051e-10
6.08796477e-10
5.97752188e-10
5.8957383e-10
5.8962089e-10
6.10368819e-10
6.08785495e-10
5.97496312e-10
5.89563328e-10
5.89641116e-10
6.10195948e-10
6.08836484e-10
5.96691383e-10
5.89571174e-10
5.89531688e-10
6.10018233e-10
6.08707572e-10
5.90625359e-10
5.89911603e-10
6.10681776e-10
6.08816553e-10
5.96401096e-10
5.89453579e-10
5.89730298e-10
6.09647482e-10
6.08984744e-10
5.98242983e-10
5.89242481e-10
5.89811994e-10
6.10235187e-10
6.08195266e-10
6.08840313e-10
5.95875278e-10
5.90289277e-10
5.89253763e-10
5.89320667e-10
6.10409454e-10
6.0910654e-10
5.89948942e-10
5.89774958e-10
6.10037462e-10
6.09036612e-10
5.97674019e-10
5.89118441e-10
5.89721691e-10
6.09997452e-10
6.08025349e-10
6.08930394e-10
5.95029742e-10
5.89423441e-10
5.88316365e-10
5.88316545e-10
6.09427672e-10
6.0847991e-10
5.88511068e-10
5.88273176e-10
6.09107245e-10
6.07011747e-10
6.08105577e-10
5.87666513e-10
5.87455201e-10
6.06690251e-10
6.05821516e-10
5.8563647e-10
5.8537656e-10
6.03622489e-10
6.02602489e-10
5.83120861e-10
5.83215781e-10
5.99372612e-10
5.9792706e-10
5.96710946e-10
5.95175365e-10
5.93773896e-10
5.91958091e-10
5.90344187e-10
5.88388932e-10
5.8669331e-10
5.84833212e-10
5.8354579e-10
5.82711429e-10
5.8033727e-10
5.77128353e-10
5.74454652e-10
5.70288427e-10
5.67505172e-10
5.62232128e-10
5.59565929e-10
5.55214797e-10
5.54778278e-10
5.49400685e-10
5.46584066e-10
5.38657539e-10
5.34423236e-10
5.24502255e-10
5.17966672e-10
5.08591173e-10
5.04269042e-10
5.07844704e-10
4.98088495e-10
4.77473386e-10
4.6254237e-10
4.63277831e-10
4.4737264e-10
4.36502137e-10
4.16517713e-10
4.25032121e-10
3.81021514e-10
3.81620827e-10
3.6367205e-10
3.46603693e-10
3.25936536e-10
3.01149744e-10
2.72030234e-10
2.52847077e-10
2.34991285e-10
1.99158637e-10
1.81364716e-10
1.66481088e-10
1.54389975e-10
1.39909418e-10
1.26561983e-10
1.1273595e-10
1.00780989e-10
8.84214023e-11
7.70413698e-11
6.59374774e-11
5.61702106e-11
4.64930531e-11
3.83187539e-11
3.05350098e-11
2.43030622e-11
1.88901221e-11
1.4329037e-11
9.97141646e-12
6.28398735e-12
2.81470044e-12
-1.23700013e-13
-2.93171516e-12
-5.36066213e-12
-7.76889647e-12
-9.86563234e-12
-1.20177419e-11
-1.38252606e-11
-1.55081541e-11
-1.69660508e-11
-1.82511933e-11
-1.94003206e-11
-2.05233001e-11
-2.1501816e-11
-2.24399985e-11
-2.31583156e-11
-2.37928325e-11
-2.43470372e-11
-2.48720946e-11
-2.5359563e-11
-2.58332229e-11
-2.62654381e-11
-2.66822718e-11
-2.70807133e-11
-2.7480665e-11
-2.78661918e-11
-2.82753362e-11
-2.86536914e-11
-2.90094949e-11
-2.93397763e-11
-2.965556e-11
-2.99482666e-11
-3.02330765e-11
-3.0499204e-11
-3.07662208e-11
-3.10204375e-11
-3.12722048e-11
-3.15141344e-11
-3.17816101e-11
-3.20400603e-11
-3.22962086e-11
-3.25805488e-11
-3.28396606e-11
-3.30891396e-11
-3.33119003e-11
-3.35382585e-11
-3.37458515e-11
-3.39602294e-11
-3.41539368e-11
-3.43623451e-11
-3.45537236e-11
-3.47573583e-11
-3.49342619e-11
-3.51257509e-11
-3.52897109e-11
-3.54703951e-11
-3.5622703e-11
-3.57964769e-11
-3.59415265e-11
-3.6108965e-11
-3.62458415e-11
-3.64071041e-11
-3.65363172e-11
-3.66916514e-11
-3.6813682e-11
-3.69721215e-11
-3.70986957e-11
-3.7251797e-11
-3.73728758e-11
-3.75194392e-11
)
;

boundaryField
{
    closed
    {
        type            calculated;
        value           nonuniform List<scalar> 0();
    }
    open
    {
        type            calculated;
        value           nonuniform List<scalar> 0();
    }
    sides
    {
        type            empty;
    }
    procBoundary4to3
    {
        type            processor;
        value           uniform 6.11296776e-10;
    }
    procBoundary4to5
    {
        type            processor;
        value           uniform -3.76362849e-11;
    }
}


// ************************************************************************* //
