/*--------------------------------*- C++ -*----------------------------------*\
| =========                 |                                                 |
| \\      /  F ield         | OpenFOAM: The Open Source CFD Toolbox           |
|  \\    /   O peration     | Version:  2306                                  |
|   \\  /    A nd           | Website:  www.openfoam.com                      |
|    \\/     M anipulation  |                                                 |
\*---------------------------------------------------------------------------*/
FoamFile
{
    version     2.0;
    format      ascii;
    arch        "LSB;label=32;scalar=64";
    class       volScalarField;
    location    "0.0006";
    object      T;
}
// * * * * * * * * * * * * * * * * * * * * * * * * * * * * * * * * * * * * * //

dimensions      [0 0 0 1 0 0 0];

internalField   nonuniform List<scalar> 
531
(
327.782689
326.808533
338.221177
339.904377
330.648907
324.08838
324.656014
338.693153
339.903911
329.061417
323.551686
329.25265
338.558554
339.258969
328.658734
327.358784
338.172574
338.850591
327.66436
326.612215
337.592186
340.118162
330.594502
326.182788
323.156325
328.75357
338.781388
339.63619
339.63098
339.698254
328.951212
325.558555
325.13988
323.500417
321.054163
328.461744
338.107447
340.186896
339.342058
331.188489
324.028822
323.1552
333.19523
339.64499
331.217497
324.748592
324.532362
334.60601
339.776588
331.963917
326.008215
323.418551
329.706127
339.121849
339.44427
339.715366
336.266102
329.136353
325.593857
323.146125
322.285384
329.256834
339.07515
339.722873
329.762626
324.720028
325.89687
336.486241
339.708105
330.506707
325.521915
325.202846
333.395728
339.775471
336.143504
328.834002
323.245927
327.894475
337.151764
338.996506
330.365295
328.448577
325.155512
329.125627
337.47892
336.11906
328.77862
329.034128
337.461492
335.383475
328.888161
328.879328
337.554454
339.027286
329.004718
323.995677
328.087811
336.718505
334.734812
329.297822
328.608924
337.885452
339.097965
329.060603
325.008345
328.344268
335.995222
339.779848
332.256672
329.637408
326.97704
324.899795
328.677302
337.253395
339.109233
329.308215
325.004734
328.542441
337.326445
333.613587
327.94722
328.373722
338.027881
333.010851
327.328076
328.261714
338.000065
332.485701
327.64452
328.466357
338.136481
338.543613
328.63113
323.199749
328.240077
337.690574
331.965758
327.450219
328.598839
338.423968
337.129811
328.911164
323.88962
328.446646
338.266303
331.372324
327.596908
328.797347
338.654342
339.183757
328.505907
323.081477
328.276322
338.352563
330.749925
326.65018
328.937067
338.816097
338.959027
328.631984
323.153251
328.555371
338.358059
339.54017
328.590489
322.864769
328.497342
338.339516
339.752798
328.556662
322.088682
328.261804
338.154395
340.021967
332.306964
323.577524
319.187628
328.364144
338.461576
340.040792
333.033606
329.53738
329.774878
328.00438
327.510044
330.737346
339.095015
333.544515
327.381363
323.999038
330.208414
339.260943
329.770687
325.147603
330.299148
339.551416
329.335642
324.659617
330.451754
339.496407
329.310694
325.253058
330.446306
339.412915
335.717134
326.786592
322.360806
329.31349
339.151547
338.985543
327.548837
322.24547
329.463198
339.10906
337.842876
327.252554
322.431764
329.626398
339.126145
336.279609
327.02261
323.000986
330.440287
339.387357
329.38272
325.305575
331.793449
339.544728
332.97663
325.411602
322.299876
330.444232
339.589843
329.18097
324.480593
332.441618
339.780855
329.1315
325.043764
332.798358
339.606587
332.83069
325.086488
323.010123
332.430242
339.816923
329.25563
325.219392
334.553885
339.722655
331.945314
324.491554
323.370257
333.749911
339.504681
331.711052
323.296722
322.046154
331.735343
339.677668
339.06429
339.891539
339.209831
329.094807
324.881766
325.754578
324.573004
322.205681
329.219929
339.175351
340.081391
327.024656
323.451804
336.292933
339.970274
330.058865
326.83852
339.056856
339.772565
330.885482
324.542246
324.554937
339.311116
339.681495
329.955732
323.108952
323.180162
339.16791
340.236136
329.566326
325.617866
339.349248
339.733309
329.752299
322.486765
322.577218
339.041332
340.227343
328.976013
325.337102
339.291179
339.825077
329.982764
323.574842
323.590267
339.251297
339.770705
329.988584
323.624267
323.620817
339.260244
339.757763
330.060509
323.785773
323.785244
339.229005
339.784459
330.105464
323.866983
323.86093
339.256554
339.819509
330.004655
323.756377
323.774202
339.275629
339.862344
329.920995
323.65121
323.695666
339.366482
339.888348
329.827304
323.661522
323.7483
339.428124
339.817038
329.598524
323.355193
323.517128
339.507147
340.240184
327.565316
324.881195
339.264875
339.845683
329.599067
323.200711
323.787226
339.874649
339.639045
329.976717
322.042266
324.62279
339.6531
340.057244
339.890012
329.446951
325.558636
322.347819
322.42257
339.324032
340.014074
325.229234
324.07289
339.830935
339.627597
329.713546
321.74351
324.861734
339.983792
340.523663
340.281442
328.890447
323.594514
320.700395
320.691193
340.821949
341.860648
322.578522
322.801193
342.126963
343.132486
343.189038
324.068445
322.651947
343.824374
344.037463
321.364933
320.720953
342.64864
342.547613
318.060221
317.393672
340.747128
340.896568
340.237738
340.421923
340.307125
340.571199
340.823961
341.324538
342.100178
343.469566
345.873046
349.61977
346.475775
342.947383
340.552077
337.589356
336.218062
334.241973
333.256916
331.213433
331.20589
327.956507
327.171147
325.446078
325.237889
323.28596
320.576949
317.235354
319.088316
340.827095
337.444907
339.280538
339.857583
318.749057
310.427101
304.825655
366.740953
358.047448
405.85652
400.064885
404.036951
434.29583
463.869118
515.610819
588.55412
634.331401
681.227158
788.67106
844.428242
883.042199
919.136957
957.729784
997.42957
1035.00084
1069.9254
1103.87888
1136.79107
1167.89355
1196.5848
1224.68991
1249.72373
1273.79281
1294.11464
1311.80861
1327.83629
1343.63355
1358.20932
1372.47043
1385.65854
1398.47164
1410.36695
1422.28447
1433.57859
1445.81351
1457.26485
1468.13392
1478.73332
1488.14388
1497.91442
1507.52928
1517.05569
1526.65372
1533.7574
1540.13545
1546.24038
1552.06373
1557.86143
1563.41948
1568.86337
1574.08619
1579.26532
1584.65499
1590.01242
1595.74296
1601.19595
1606.13719
1610.97448
1615.31383
1619.5347
1623.36643
1627.26775
1630.64695
1634.218
1637.43273
1640.8861
1644.26146
1647.93485
1651.22797
1655.6068
1659.15791
1662.8616
1665.59571
1668.76254
1671.30989
1674.30203
1676.68342
1679.52842
1681.75688
1684.41989
1686.47082
1688.96113
1690.85489
1693.19443
1694.94806
1696.98292
1698.47712
1700.41659
1701.82357
1703.68208
1705.00793
1706.78793
1708.03976
1709.79066
1711.07299
1712.68806
1713.89948
1715.44362
)
;

boundaryField
{
    closed
    {
        type            fixedValue;
        value           nonuniform List<scalar> 0();
    }
    open
    {
        type            zeroGradient;
    }
    sides
    {
        type            empty;
    }
    procBoundary4to3
    {
        type            processor;
        value           uniform 339.066325;
    }
    procBoundary4to5
    {
        type            processor;
        value           uniform 1716.61486;
    }
}


// ************************************************************************* //
