/*--------------------------------*- C++ -*----------------------------------*\
| =========                 |                                                 |
| \\      /  F ield         | OpenFOAM: The Open Source CFD Toolbox           |
|  \\    /   O peration     | Version:  2306                                  |
|   \\  /    A nd           | Website:  www.openfoam.com                      |
|    \\/     M anipulation  |                                                 |
\*---------------------------------------------------------------------------*/
FoamFile
{
    version     2.0;
    format      ascii;
    arch        "LSB;label=32;scalar=64";
    class       volScalarField;
    location    "0.0015";
    object      H2O;
}
// * * * * * * * * * * * * * * * * * * * * * * * * * * * * * * * * * * * * * //

dimensions      [0 0 0 0 0 0 0];

internalField   nonuniform List<scalar> 
530
(
0.00537260865
0.00718861035
0.00699488619
0.00100894455
0.00107226887
0.00538100946
0.00718169681
0.00697949443
0.00101741593
0.00107404061
0.00538199143
0.00716989077
0.00696031972
0.00102658673
0.00107616143
0.00535822668
0.00715497868
0.00692700931
0.00103533208
0.00108125036
0.0052019845
0.00710684244
0.00683934172
0.00104357898
0.00109852921
0.00486310734
0.00695745402
0.00687678832
0.00741090392
0.00718904559
0.000987804975
0.00106896864
0.00107071884
0.00108757245
0.00619408107
0.00650078778
0.00106257912
0.00110596348
0.00591600898
0.00698242283
0.00713388697
0.00707368513
0.00105378296
0.00106303241
0.00615862812
0.00732803603
0.00695338048
0.00105697671
0.00106748057
0.00606523537
0.007090707
0.0073170763
0.00713114719
0.000989409456
0.00105538835
0.00106416426
0.00106043201
0.00516543095
0.00725378491
0.00686987
0.0010555196
0.0010714856
0.00608794832
0.00707031457
0.00714159977
0.00705877365
0.00105614675
0.00105917473
0.00618096013
0.0073291841
0.00688125821
0.00105629337
0.00106832566
0.00573184276
0.00718256063
0.0067830543
0.00107146504
0.00108545896
0.00639296449
0.00636685629
0.00109925502
0.00111315429
0.00537859785
0.00693182541
0.00683230147
0.00733064596
0.00693956133
0.0010349488
0.00112728722
0.0010217018
0.00593157983
0.00742331502
0.00688240187
0.00106476577
0.00104949503
0.00689741822
0.00684381674
0.00111019552
0.0010509872
0.00632988993
0.00729487895
0.00623976681
0.00105181444
0.000944648096
0.00713361071
0.00682085845
0.00106518633
0.00100549756
0.00707596613
0.00692490541
0.00109163913
0.00103192184
0.00595316364
0.00735272633
0.00665403738
0.00107849233
0.00103306541
0.00619041437
0.00744680315
0.00672870011
0.00107128774
0.00103041008
0.00621307772
0.00741191685
0.00671102113
0.00106528981
0.0010113548
0.00690966332
0.00678128484
0.00107977429
0.00103432865
0.00588727756
0.00739109629
0.00671576089
0.00108128809
0.00103858357
0.00598917653
0.00738131279
0.00668295358
0.00108364339
0.00104189533
0.00609272003
0.00736631931
0.00668037366
0.00108620687
0.00104334363
0.00638860251
0.00735557392
0.00667425076
0.00106169097
0.00103327012
0.00693409813
0.00680388945
0.00111042337
0.00104319787
0.00654261767
0.00731367695
0.00614773502
0.00105962177
0.00104165927
0.00699152008
0.00684540444
0.00111029869
0.001043021
0.00647943597
0.00727765943
0.00597499907
0.00107679494
0.00106144558
0.00683268948
0.0073170841
0.00625558205
0.00106220817
0.00104690137
0.00692096396
0.00650741494
0.0010982976
0.00105942546
0.00682279292
0.00729342958
0.00605280108
0.00109262421
0.00106846506
0.00646058756
0.00718435233
0.00595038835
0.00109932353
0.00107514457
0.00638468536
0.00710348783
0.00575630559
0.0011088349
0.00109068139
0.00625946554
0.00700672484
0.00681786501
0.00729448324
0.00664934588
0.00104958172
0.00101005158
0.00713989059
0.00690438878
0.00107556811
0.00100521029
0.00695665012
0.0067100696
0.00108088862
0.00102134393
0.00707706732
0.00758832345
0.00640197367
0.00103534181
0.00100742377
0.00715251976
0.00691950596
0.00106211609
0.000978042687
0.00712063032
0.00696979939
0.00106147896
0.000977575284
0.00712418362
0.00696715486
0.00106168304
0.000979940365
0.00708259701
0.00692343585
0.00106592924
0.000989667031
0.00699490908
0.00673671831
0.00105719122
0.00101565404
0.00719857551
0.00762055915
0.00619442268
0.00102867859
0.000998168638
0.00694556322
0.0066531093
0.00104691187
0.001013542
0.00711874761
0.0074693248
0.00555697551
0.00103865803
0.000847763977
0.00683362909
0.00643453902
0.00104042589
0.00101929768
0.00699166089
0.00745553924
0.005365036
0.00101203641
0.00100493761
0.00707111046
0.00750424731
0.00433540414
0.00101847282
0.00419232853
0.00677221276
0.00458430336
0.0010576123
0.000910465646
0.00688152138
0.00746400539
0.0050371768
0.00103218832
0.00102956552
0.00668998666
0.00729991923
0.00581765895
0.00104031965
0.00107742984
0.00492061681
0.00714464416
0.00722654908
0.00584851468
0.000987168568
0.000998984145
0.00705406058
0.00755531004
0.0036932776
0.00101426823
0.00581074078
0.00676766801
0.000814884534
0.00108757047
0.00357077576
0.00694906524
0.00709887384
0.0049812804
0.00103456022
0.00101397215
0.00675278462
0.00740641411
0.00498604384
0.00102152242
0.00100323615
0.00676617046
0.0074382413
0.00493878231
0.00101994566
0.000967333061
0.00679794005
0.00747289366
0.00474698623
0.00102228517
0.000925263318
0.00690056799
0.00744664398
0.00439468485
0.00103012527
0.000846434603
0.00705089601
0.00739458134
0.0035487564
0.00103785161
0.00167993374
0.00721534199
0.00732145582
0.00178053821
0.00104451049
0.00344736291
0.00734328829
0.00731735301
0.000861062699
0.0010395171
0.00487150361
0.00747236068
0.00732045263
0.000889277485
0.00101916711
0.00534745505
0.00782307467
0.00737850998
0.000712837581
0.00109288952
0.00100393006
0.00641594785
0.00693804368
0.000954730868
0.00104686217
0.00561310793
0.00756736692
0.0073251514
0.000948785661
0.0010336794
0.00530188182
0.00750507926
0.00724548307
0.000973509673
0.0010718528
0.00653536295
0.00673130429
0.000998276713
0.00108509687
0.00486714995
0.00722851165
0.00706493871
0.00102220156
0.00108533374
0.005438556
0.00682575409
0.00743409551
0.00737825265
0.000966773175
0.00103948259
0.00686942987
0.00709495455
0.00101795061
0.00102893039
0.00598042149
0.00778224401
0.00746841713
0.000967869403
0.00101778334
0.00694634272
0.00706359563
0.000998673849
0.0010160661
0.00693810817
0.00696702268
0.0009967929
0.00099854008
0.00693181809
0.00692418354
0.000995647152
0.00097976299
0.00692327624
0.00687800527
0.000993879984
0.000962679317
0.00690210094
0.00680301507
0.000993214099
0.00095827736
0.00687234196
0.00674632508
0.0010095707
0.00098953575
0.00618224961
0.00758889584
0.00724143583
0.00145397341
0.00093190774
0.00681674393
0.00686229015
0.000958224997
0.00090085979
0.00690020912
0.00675225472
0.000956839876
0.000898827913
0.00682936535
0.00661724744
0.000985258455
0.000972283836
0.00616930568
0.00749390211
0.00715582065
0.00167357527
0.000923721035
0.00667383832
0.00675621019
0.000930378648
0.00090594521
0.00674022379
0.00664478317
0.000937005475
0.000916511785
0.00665668546
0.00653231752
0.000959708134
0.000987294647
0.00581655991
0.00740544704
0.00716919569
0.00285437649
0.00105118295
0.0010506037
0.00100166
0.00430369337
0.00710309578
0.00712057803
0.00745145196
0.00734124112
0.00276359472
0.000945807554
0.00645568776
0.00666663833
0.000911876614
0.0010162029
0.00538113107
0.00720595235
0.00687845597
0.00114101311
0.00100601938
0.00634094137
0.0064888441
0.000940511458
0.0010547248
0.00485128677
0.00711621248
0.00688877091
0.00127112364
0.00103445727
0.00451268166
0.00723433086
0.00701665529
0.00130311245
0.00102284223
0.00480020287
0.00730903111
0.00707518548
0.00134985479
0.00101814642
0.0064144148
0.00674535256
0.000913310715
0.00104892195
0.00524221753
0.00728525247
0.00707662222
0.00132453719
0.00103057967
0.00497937414
0.00741977446
0.00718896702
0.00137475297
0.00103731976
0.00647384987
0.00689952322
0.000913941549
0.0010560117
0.00539366053
0.00738610222
0.00718805557
0.00154113084
0.00105679032
0.00643460312
0.00691955576
0.000909108956
0.00108923931
0.006536205
0.00683286225
0.000925822649
0.00108468851
0.00482381462
0.00731985115
0.00712028427
0.000748872678
0.00106455718
0.00460591793
0.00738383835
0.00719922698
0.000797304088
0.00106111757
0.00461480173
0.00738358385
0.00722849027
0.000840656661
0.00106011713
0.00460107925
0.00736707513
0.00725637253
0.000874736591
0.00105884988
0.00458120018
)
;

boundaryField
{
    closed
    {
        type            calculated;
        value           nonuniform List<scalar> 0();
    }
    open
    {
        type            calculated;
        value           nonuniform List<scalar> 0();
    }
    sides
    {
        type            empty;
    }
    procBoundary2to1
    {
        type            processor;
        value           uniform 0.00107097807;
    }
    procBoundary2to3
    {
        type            processor;
        value           uniform 0.00735154301;
    }
}


// ************************************************************************* //
