/*--------------------------------*- C++ -*----------------------------------*\
| =========                 |                                                 |
| \\      /  F ield         | OpenFOAM: The Open Source CFD Toolbox           |
|  \\    /   O peration     | Version:  2306                                  |
|   \\  /    A nd           | Website:  www.openfoam.com                      |
|    \\/     M anipulation  |                                                 |
\*---------------------------------------------------------------------------*/
FoamFile
{
    version     2.0;
    format      ascii;
    arch        "LSB;label=32;scalar=64";
    class       volScalarField;
    location    "0.0015";
    object      p;
}
// * * * * * * * * * * * * * * * * * * * * * * * * * * * * * * * * * * * * * //

dimensions      [1 -1 -2 0 0 0 0];

internalField   nonuniform List<scalar> 
530
(
101493.712
101496.226
101498.656
101500.907
101502.767
101504.505
101506.144
101507.675
101509.065
101510.088
101510.961
101511.691
101512.27
101512.731
101512.829
101512.753
101512.475
101511.993
101511.418
101510.507
101509.421
101508.096
101506.547
101504.968
101503.127
101501.147
101498.927
101496.494
101493.912
101491.144
101488.48
101485.656
101482.744
101479.763
101476.803
101473.741
101470.614
101467.507
101464.446
101461.279
101458.054
101454.845
101451.897
101449.017
101446.336
101443.698
101441.109
101438.851
101436.753
101434.935
101433.278
101431.803
101430.559
101429.687
101429.052
101428.673
101428.57
101428.793
101429.279
101429.974
101430.9
101431.934
101433.226
101434.689
101436.413
101438.459
101440.72
101443.012
101445.559
101448.229
101451.164
101454.205
101457.242
101460.37
101463.461
101466.498
101469.317
101471.981
101474.655
101477.208
101479.628
101481.848
101484.026
101486.092
101488.066
101489.929
101491.645
101493.101
101494.344
101495.376
101496.23
101496.877
101497.342
101497.515
101497.491
101497.196
101496.65
101495.877
101494.883
101493.575
101491.981
101490.109
101488.007
101485.717
101483.054
101480.134
101477.229
101474.255
101470.901
101467.36
101463.922
101460.503
101456.867
101453.086
101449.267
101445.613
101442.013
101438.23
101434.384
101430.573
101426.994
101423.531
101419.942
101416.363
101412.893
101409.699
101406.653
101403.415
101400.272
101397.435
101394.786
101392.111
101389.542
101387.156
101385.016
101383.087
101381.165
101379.384
101377.796
101376.41
101375.232
101374.089
101373.1
101372.292
101371.628
101371.143
101370.694
101370.358
101370.128
101369.938
101369.81
101369.664
101369.706
101369.985
101370.513
101371.107
101371.903
101372.741
101373.798
101375.068
101376.469
101377.903
101379.187
101380.433
101381.622
101382.82
101384.014
101385.249
101386.529
101387.846
101389.318
101390.732
101392.102
101393.41
101394.708
101395.935
101397.005
101397.975
101398.844
101399.694
101400.366
101401.061
101401.652
101402.163
101402.683
101403.143
101403.53
101403.722
101403.727
101403.577
101403.255
101402.793
101402.128
101401.22
101400.114
101398.763
101397.155
101395.246
101393.237
101390.997
101388.544
101385.577
101382.7
101379.71
101376.35
101372.479
101368.535
101364.342
101359.776
101354.8
101349.669
101344.411
101339.152
101333.9
101327.945
101322.295
101316.661
101311.088
101304.809
101298.984
101293.292
101287.377
101281.151
101275.262
101269.507
101263.603
101257.523
101252.05
101247.147
101242.314
101236.904
101231.55
101226.328
101221.24
101216.18
101211.414
101206.927
101202.723
101198.945
101194.906
101191.426
101188.082
101185.003
101181.432
101177.886
101173.948
101169.527
101165.436
101162.908
101162.122
101163.182
101164.516
101165.178
101165.546
101165.749
101165.792
101166.125
101166.331
101166.794
101167.449
101168.292
101169.261
101170.438
101171.759
101173.119
101174.839
101176.612
101178.605
101180.713
101182.879
101185.258
101187.698
101190.377
101193.129
101195.815
101198.756
101201.747
101204.788
101207.915
101211.021
101213.962
101217.147
101220.372
101223.604
101226.614
101229.66
101232.562
101235.317
101237.735
101240.187
101242.562
101244.815
101246.936
101248.838
101250.503
101252.214
101253.724
101255.083
101256.25
101257.186
101258.164
101258.897
101259.443
101259.809
101259.965
101260.14
101260.036
101259.717
101259.257
101258.675
101258.159
101257.49
101256.773
101256.047
101255.239
101254.433
101253.679
101252.949
101252.298
101251.848
101250.949
101250.466
101250.362
101250.034
101250.078
101250.321
101250.681
101251.245
101251.63
101252.573
101253.897
101255.636
101257.488
101259.708
101262.416
101265.449
101268.692
101272.101
101275.714
101279.699
101284.046
101288.666
101293.187
101298.144
101303.667
101309.583
101315.805
101321.475
101327.386
101333.492
101339.574
101345.268
101350.099
101354.845
101359.827
101365.065
101369.583
101374.014
101378.38
101382.697
101386.917
101390.484
101394.043
101397.513
101400.849
101404.242
101407.584
101410.451
101413.457
101416.511
101419.845
101422.706
101425.732
101428.82
101431.997
101435.455
101438.572
101441.737
101444.615
101447.706
101450.296
101452.636
101454.826
101456.864
101458.647
101460.396
101462.23
101463.959
101465.45
101467.012
101468.54
101469.943
101471.068
101472.172
101473.096
101473.825
101474.314
101474.79
101475.083
101475.25
101475.279
101475.419
101475.476
101475.429
101475.51
101475.813
101475.524
101475.338
101475.076
101474.706
101474.438
101473.968
101473.357
101472.657
101471.988
101470.991
101469.709
101468.196
101466.62
101464.696
101462.49
101460.241
101458.114
101455.403
101452.425
101449.254
101446.173
101443.12
101439.688
101436.184
101432.938
101429.812
101426.412
101423.016
101419.817
101416.714
101413.399
101410.026
101406.935
101404.165
101400.77
101398.145
101395.499
101392.582
101389.434
101385.982
101382.044
101377.872
101374.321
101371.873
101370.035
101367.862
101366.43
101366.033
101365.712
101364.804
101363.403
101362.167
101360.493
101358.901
101357.701
101356.849
101356
101354.893
101353.563
101352.292
101351.332
101349.673
101348.219
101346.778
101345.442
101344.385
101342.482
101340.424
101337.732
101334.358
101330.895
101327.511
101325.472
101323.348
101322.657
101322.795
101322.818
101322.46
101321.964
101321.693
101320.644
101319.93
101319.201
101318.575
101318.26
101317.345
101316.621
101316.244
101315.924
101315.863
101315.942
101316.02
101316.1
101316.362
101316.094
101315.974
101316.452
101316.98
101317.892
101319.039
101320.454
101321.822
101323.276
101324.92
101326.662
101328.315
101329.942
101331.198
101332.589
101333.679
101334.627
101335.439
101336.026
101336.693
101337.289
101337.876
101338.539
101339.163
101339.902
101340.627
101341.26
101341.793
101342.127
101342.413
)
;

boundaryField
{
    closed
    {
        type            zeroGradient;
    }
    open
    {
        type            waveTransmissive;
        gamma           1.25;
        fieldInf        101325;
        lInf            1;
        value           nonuniform List<scalar> 0();
    }
    sides
    {
        type            empty;
    }
    procBoundary2to1
    {
        type            processor;
        value           uniform 101491.128;
    }
    procBoundary2to3
    {
        type            processor;
        value           uniform 101342.604;
    }
}


// ************************************************************************* //
