/*--------------------------------*- C++ -*----------------------------------*\
| =========                 |                                                 |
| \\      /  F ield         | OpenFOAM: The Open Source CFD Toolbox           |
|  \\    /   O peration     | Version:  2306                                  |
|   \\  /    A nd           | Website:  www.openfoam.com                      |
|    \\/     M anipulation  |                                                 |
\*---------------------------------------------------------------------------*/
FoamFile
{
    version     2.0;
    format      ascii;
    arch        "LSB;label=32;scalar=64";
    class       volScalarField;
    location    "0.0015";
    object      prefDZ_H2;
}
// * * * * * * * * * * * * * * * * * * * * * * * * * * * * * * * * * * * * * //

dimensions      [1 -1 -1 0 0 0 0];

internalField   nonuniform List<scalar> 
530
(
6.22928429e-05
6.16798333e-05
6.18597103e-05
6.35667643e-05
6.36009188e-05
6.22903443e-05
6.16864859e-05
6.18739915e-05
6.35736327e-05
6.36045154e-05
6.22879573e-05
6.16976989e-05
6.18917258e-05
6.35811213e-05
6.36073858e-05
6.22867512e-05
6.17117234e-05
6.19224133e-05
6.35873641e-05
6.36050179e-05
6.22932241e-05
6.17562495e-05
6.20030335e-05
6.35875926e-05
6.3590169e-05
6.23148604e-05
6.18940312e-05
6.19685897e-05
6.14722002e-05
6.16807196e-05
6.35792492e-05
6.36271535e-05
6.36171538e-05
6.36474702e-05
6.22847999e-05
6.22998768e-05
6.35921196e-05
6.36248818e-05
6.227056e-05
6.18713053e-05
6.1732495e-05
6.17866762e-05
6.36248199e-05
6.36062931e-05
6.22661733e-05
6.15492847e-05
6.18982973e-05
6.35690059e-05
6.36086106e-05
6.23018714e-05
6.17707454e-05
6.15611871e-05
6.17330455e-05
6.35967792e-05
6.35760862e-05
6.3627746e-05
6.35990931e-05
6.22892348e-05
6.16190909e-05
6.1974936e-05
6.35847712e-05
6.36083511e-05
6.22827488e-05
6.17896875e-05
6.1725205e-05
6.18005216e-05
6.36180869e-05
6.36138838e-05
6.22717412e-05
6.15492931e-05
6.19644669e-05
6.36048673e-05
6.36117956e-05
6.22625494e-05
6.16861006e-05
6.20539732e-05
6.36105348e-05
6.36342655e-05
6.22775582e-05
6.23152975e-05
6.36451264e-05
6.35932456e-05
6.22655705e-05
6.19176354e-05
6.20091338e-05
6.15465501e-05
6.19110278e-05
6.35756294e-05
6.36245222e-05
6.35710673e-05
6.22685063e-05
6.14588608e-05
6.19632145e-05
6.36016526e-05
6.36237795e-05
6.1949636e-05
6.1998842e-05
6.36658888e-05
6.35762917e-05
6.22722778e-05
6.15792499e-05
6.22830897e-05
6.35764434e-05
6.36213444e-05
6.17307742e-05
6.20200859e-05
6.35993271e-05
6.35090856e-05
6.17855061e-05
6.19241616e-05
6.36520187e-05
6.35411922e-05
6.22674083e-05
6.15264731e-05
6.21713941e-05
6.36293975e-05
6.35712941e-05
6.22821632e-05
6.14401249e-05
6.21036036e-05
6.36423739e-05
6.35609165e-05
6.22689057e-05
6.14702955e-05
6.21192787e-05
6.35924568e-05
6.35327236e-05
6.19384052e-05
6.20563624e-05
6.36623666e-05
6.35438319e-05
6.22703504e-05
6.14907818e-05
6.21156172e-05
6.36276087e-05
6.35686656e-05
6.22759948e-05
6.15007058e-05
6.21452703e-05
6.36321254e-05
6.35852224e-05
6.22764882e-05
6.15152254e-05
6.21477327e-05
6.36326158e-05
6.35799094e-05
6.22840932e-05
6.15229846e-05
6.21528055e-05
6.35975426e-05
6.35969372e-05
6.19159852e-05
6.20356393e-05
6.36504662e-05
6.3562592e-05
6.22717698e-05
6.15609683e-05
6.22623562e-05
6.35892139e-05
6.36336249e-05
6.18631349e-05
6.19974279e-05
6.36454835e-05
6.35802498e-05
6.22756162e-05
6.15955426e-05
6.22646045e-05
6.35877851e-05
6.36255399e-05
6.20091315e-05
6.1560268e-05
6.22862601e-05
6.35997311e-05
6.36633367e-05
6.19279494e-05
6.23061911e-05
6.3615974e-05
6.35973861e-05
6.20179766e-05
6.1582193e-05
6.2277837e-05
6.36173504e-05
6.36321865e-05
6.2291167e-05
6.16851765e-05
6.22722105e-05
6.36345405e-05
6.36354239e-05
6.22830261e-05
6.17597926e-05
6.22806121e-05
6.36214287e-05
6.3604761e-05
6.22902492e-05
6.18478798e-05
6.20225769e-05
6.15793432e-05
6.21767376e-05
6.3574489e-05
6.36210908e-05
6.17252452e-05
6.19429997e-05
6.35885548e-05
6.35949747e-05
6.18950405e-05
6.2122534e-05
6.35942686e-05
6.35516305e-05
6.17840448e-05
6.12982802e-05
6.23120427e-05
6.35432287e-05
6.36254838e-05
6.17127031e-05
6.19289191e-05
6.35790737e-05
6.3591042e-05
6.17436586e-05
6.18815413e-05
6.35963742e-05
6.35862708e-05
6.17407057e-05
6.18837755e-05
6.36001448e-05
6.35918138e-05
6.17792172e-05
6.19246276e-05
6.36012068e-05
6.36061272e-05
6.18600154e-05
6.209793e-05
6.35906344e-05
6.35859969e-05
6.16718359e-05
6.12689157e-05
6.22982234e-05
6.35348038e-05
6.36664828e-05
6.19050543e-05
6.21745226e-05
6.35585419e-05
6.35943343e-05
6.17453814e-05
6.14135643e-05
6.23258835e-05
6.35189317e-05
6.35671313e-05
6.20083223e-05
6.23771141e-05
6.35355346e-05
6.3594685e-05
6.18631305e-05
6.14267739e-05
6.22905692e-05
6.34984864e-05
6.36275829e-05
6.17894513e-05
6.13823491e-05
6.23706545e-05
6.35117269e-05
6.23967041e-05
6.20650113e-05
6.23506163e-05
6.35264475e-05
6.36047641e-05
6.19641156e-05
6.14138866e-05
6.23037772e-05
6.34781901e-05
6.3611428e-05
6.21390916e-05
6.15747721e-05
6.2280822e-05
6.35150412e-05
6.3626345e-05
6.23244657e-05
6.17221077e-05
6.1644323e-05
6.22800858e-05
6.35030444e-05
6.36485876e-05
6.18055462e-05
6.13341351e-05
6.24718984e-05
6.35138135e-05
6.23311173e-05
6.20692613e-05
6.34591784e-05
6.35649046e-05
6.25029218e-05
6.19020434e-05
6.17616465e-05
6.23033417e-05
6.35080343e-05
6.36339346e-05
6.20820227e-05
6.14722384e-05
6.23055449e-05
6.34805219e-05
6.36293433e-05
6.20701732e-05
6.14410747e-05
6.23178742e-05
6.34767752e-05
6.36172202e-05
6.20410419e-05
6.14053951e-05
6.23363228e-05
6.3464081e-05
6.35795216e-05
6.19466237e-05
6.14279482e-05
6.23748307e-05
6.34595814e-05
6.34673829e-05
6.18064932e-05
6.14752094e-05
6.25004457e-05
6.34576235e-05
6.29802566e-05
6.16489806e-05
6.15475434e-05
6.29556696e-05
6.34718123e-05
6.25318496e-05
6.15264768e-05
6.15536737e-05
6.35245041e-05
6.35003179e-05
6.23567048e-05
6.14050924e-05
6.15522008e-05
6.35635454e-05
6.35087761e-05
6.23200384e-05
6.10634303e-05
6.15020454e-05
6.338663e-05
6.35680338e-05
6.34810217e-05
6.23319852e-05
6.19106132e-05
6.35825688e-05
6.35220596e-05
6.23047914e-05
6.13176309e-05
6.1549998e-05
6.35799611e-05
6.35178293e-05
6.23197531e-05
6.13763342e-05
6.16257035e-05
6.35650851e-05
6.3557965e-05
6.22832662e-05
6.21029066e-05
6.35823847e-05
6.35256213e-05
6.23372538e-05
6.1639908e-05
6.17941431e-05
6.35906372e-05
6.35517038e-05
6.23314751e-05
6.20155515e-05
6.14461125e-05
6.15019148e-05
6.3581549e-05
6.35362232e-05
6.19752218e-05
6.1764833e-05
6.36399064e-05
6.34864684e-05
6.23014417e-05
6.11090199e-05
6.14201539e-05
6.35662337e-05
6.35441814e-05
6.19023604e-05
6.17961221e-05
6.35834652e-05
6.35196314e-05
6.19105886e-05
6.18855556e-05
6.35922912e-05
6.35067912e-05
6.19165028e-05
6.19250271e-05
6.35953521e-05
6.34883912e-05
6.19244956e-05
6.19674866e-05
6.36002151e-05
6.34672387e-05
6.19443606e-05
6.20363861e-05
6.36109786e-05
6.34501455e-05
6.19723972e-05
6.20885361e-05
6.36634247e-05
6.34779273e-05
6.23044991e-05
6.12947278e-05
6.16322529e-05
6.30535342e-05
6.34692272e-05
6.20231966e-05
6.19819282e-05
6.36109469e-05
6.34067658e-05
6.19457391e-05
6.20830122e-05
6.36000226e-05
6.33939175e-05
6.20120365e-05
6.22062737e-05
6.36620111e-05
6.34704021e-05
6.23107749e-05
6.13865711e-05
6.17113492e-05
6.29837736e-05
6.34582362e-05
6.21564276e-05
6.20791527e-05
6.35921418e-05
6.33963742e-05
6.20945747e-05
6.21813112e-05
6.35724848e-05
6.33870544e-05
6.21723806e-05
6.22836479e-05
6.36209736e-05
6.34759632e-05
6.23265736e-05
6.14743026e-05
6.16979432e-05
6.26530376e-05
6.35569527e-05
6.35722367e-05
6.34755428e-05
6.23806327e-05
6.17569735e-05
6.17417288e-05
6.14323709e-05
6.15364364e-05
6.26770997e-05
6.34707911e-05
6.23570866e-05
6.21617582e-05
6.36124608e-05
6.34627758e-05
6.23149758e-05
6.16563816e-05
6.19670625e-05
6.31529657e-05
6.34931955e-05
6.24335064e-05
6.23239578e-05
6.36062974e-05
6.35000154e-05
6.23418162e-05
6.17427308e-05
6.19574414e-05
6.31162241e-05
6.35021215e-05
6.23653154e-05
6.16319412e-05
6.18392524e-05
6.31079017e-05
6.35062639e-05
6.23330018e-05
6.15613551e-05
6.17858881e-05
6.30894713e-05
6.35458011e-05
6.23966944e-05
6.20894395e-05
6.36171178e-05
6.35305753e-05
6.23203299e-05
6.15845099e-05
6.17839006e-05
6.31032287e-05
6.35314797e-05
6.23239322e-05
6.14570584e-05
6.16808179e-05
6.30839084e-05
6.35756275e-05
6.23416185e-05
6.19475592e-05
6.36410605e-05
6.354497e-05
6.2307073e-05
6.14890546e-05
6.1681818e-05
6.30294772e-05
6.36071281e-05
6.23783712e-05
6.19292733e-05
6.35876432e-05
6.36029828e-05
6.22843869e-05
6.2009041e-05
6.36191497e-05
6.35419906e-05
6.23490782e-05
6.15484459e-05
6.17422993e-05
6.33962981e-05
6.35219642e-05
6.23773898e-05
6.14873673e-05
6.16680026e-05
6.34795948e-05
6.35138069e-05
6.23785272e-05
6.14881896e-05
6.16398994e-05
6.35327628e-05
6.35106577e-05
6.23792454e-05
6.15050083e-05
6.16131132e-05
6.35624375e-05
6.35107596e-05
6.23788149e-05
)
;

boundaryField
{
    closed
    {
        type            calculated;
        value           nonuniform List<scalar> 0();
    }
    open
    {
        type            calculated;
        value           nonuniform List<scalar> 0();
    }
    sides
    {
        type            empty;
    }
    procBoundary2to1
    {
        type            processor;
        value           uniform 6.3598017e-05;
    }
    procBoundary2to3
    {
        type            processor;
        value           uniform 6.15208425e-05;
    }
}


// ************************************************************************* //
