/*--------------------------------*- C++ -*----------------------------------*\
| =========                 |                                                 |
| \\      /  F ield         | OpenFOAM: The Open Source CFD Toolbox           |
|  \\    /   O peration     | Version:  2306                                  |
|   \\  /    A nd           | Website:  www.openfoam.com                      |
|    \\/     M anipulation  |                                                 |
\*---------------------------------------------------------------------------*/
FoamFile
{
    version     2.0;
    format      ascii;
    arch        "LSB;label=32;scalar=64";
    class       volScalarField;
    location    "0.00044";
    object      prefDh_H2O;
}
// * * * * * * * * * * * * * * * * * * * * * * * * * * * * * * * * * * * * * //

dimensions      [1 1 -3 0 0 0 0];

internalField   nonuniform List<scalar> 
530
(
90.0298752
89.8160821
89.8193232
89.8195564
89.8195747
89.8195748
89.8195748
89.8195748
89.8195748
89.8195748
89.8195748
89.8195748
89.8195748
89.8195748
89.8195748
89.8195748
89.8195748
89.8195748
89.8195748
89.8195748
89.8195748
89.8195748
89.8195748
89.8195748
89.8195748
89.8195748
89.8195748
89.8195748
89.8195748
89.8195748
89.8195748
89.8195748
89.8195748
89.8195748
89.8195748
89.8195748
89.8195748
89.8195748
89.8195748
89.8195748
89.8195748
89.8195748
89.8195748
89.8195748
89.8195748
89.8195748
89.8195748
89.8195748
89.8195748
89.8195748
89.8195748
89.8195748
89.8195748
89.8195748
89.8195748
89.8195748
89.8195748
89.8195748
89.8195748
89.8195748
89.8195748
89.8195748
89.8195748
89.8195748
89.8195748
89.8195748
89.8195748
89.8195748
89.8195748
89.8195748
89.8195748
89.8195748
89.8195748
89.8195748
89.8195748
89.8195748
89.8195748
89.8195748
89.8195748
89.8195748
89.8195748
89.8195747
89.8195747
89.8195739
89.8195706
89.8195792
89.8195974
89.8194318
89.8191597
89.8204984
89.8237598
89.8140995
89.7838656
89.832251
89.9895267
89.8621523
89.1414264
89.4018946
91.0316341
90.7398401
88.0816699
88.0521999
92.5533813
92.2788294
88.2185059
87.9571794
92.4991977
92.3571403
88.6721448
87.7658374
87.7696309
92.5118061
92.3297467
88.2079984
87.9124371
92.6209503
92.3186211
88.06005
87.8386676
92.6633844
92.338086
88.0198656
87.8127798
92.6676513
92.3441723
88.0121919
87.8167711
92.6482491
92.3380718
88.0313736
87.8599418
92.5982774
92.3316926
88.0918046
87.9239999
92.4901681
92.3775884
88.5405282
87.7578862
87.7708877
92.4425557
92.33696
88.2517442
88.0182976
92.4144372
92.3620313
88.6230418
87.784327
87.7698949
92.4654998
92.3384316
88.1850322
87.9237
92.5303474
92.327357
87.9958311
87.808578
92.5738037
92.3498488
87.9460965
87.7903187
92.5632995
92.3480236
87.9821342
87.8553767
92.5084548
92.3402756
88.0621437
87.9247544
92.3998251
92.3860415
88.4395018
87.7400312
87.7534032
92.4249138
92.333027
88.1501898
87.9446011
92.404571
92.3017087
88.0827578
87.9483693
92.3430806
92.3540743
88.4781143
87.7576435
87.7891817
92.3713274
92.3326105
88.1958083
87.9971621
92.3035912
92.3607661
88.5306672
87.7688415
87.7718375
92.4078284
92.3329649
88.1100951
87.8953296
92.4164858
92.3155197
87.9622909
87.845216
92.4319179
92.3247468
87.9335185
87.8531192
92.4006981
92.3365119
87.9968051
87.9062473
92.3070868
92.3913607
88.3320025
87.7423393
87.7742007
92.3895072
92.3457611
88.0865391
87.9088132
92.3652441
92.3300687
87.9414662
87.8762863
92.3570124
92.3496537
87.9481524
87.8858058
92.2696898
92.3985068
88.3426905
87.7471946
87.808278
92.3327773
92.3459746
88.0713194
87.9613933
92.2815381
92.3348978
88.0027638
87.9784676
92.2181169
92.3809361
88.3228952
87.7680974
87.8651813
92.2809791
92.330174
88.1328882
88.1378843
92.1879985
92.2671472
89.1472485
88.2061486
88.2999078
88.0976048
88.1819044
92.2011557
92.376898
88.8384857
87.8414234
87.9591874
92.293761
92.4822173
88.0200608
88.0473513
92.2545057
92.5642291
87.9561086
88.053411
92.197337
92.5190791
88.474373
87.7208653
88.3978462
92.5962184
88.076641
87.9942443
92.3410204
92.3362796
92.777952
87.8815413
87.8915679
92.3059765
92.9863722
87.8658552
88.1106795
92.2322508
92.6631784
88.1836486
87.8436336
88.1868928
92.2594137
92.6590366
88.2845869
87.8147137
88.2140526
92.3090255
92.9663992
88.0808502
88.3789015
92.1957659
92.6935127
88.1399025
87.858003
88.3746584
92.2490559
92.667715
88.3596397
87.8891422
88.5117469
92.239899
92.6477841
88.526451
87.9203883
88.6419281
92.246837
92.5561205
88.946409
88.072721
88.0480833
88.6972305
92.2200396
92.6553697
88.5463512
87.9124431
88.6170736
92.2438971
92.7506411
88.1635515
87.8222862
88.486089
92.3529316
92.8256456
87.999856
88.4218144
92.2955524
92.7440571
87.982888
88.4886541
92.2472028
92.7853602
87.974787
87.8223443
88.6037353
92.2719583
92.7096499
88.1687914
87.9028014
88.6703534
92.3050004
93.0700591
88.0991301
88.5496209
92.2222044
92.7494793
87.9778249
87.7891067
88.4842456
92.3436631
93.0942415
88.0472278
88.4982395
92.2285157
92.6743737
88.0951886
87.8760515
88.6441533
92.2764716
92.6002102
88.2316952
87.8992747
88.6504145
92.2872424
92.6020812
88.1679631
87.8517721
88.4319205
92.3926995
92.9418297
87.9602591
88.2403788
92.3454828
92.9388895
87.9633603
88.2865331
92.3136339
92.551846
88.0127592
87.7670813
88.2369274
92.4340049
92.7071514
88.0174651
88.2197781
92.3690213
92.6839168
88.0022232
88.2407506
92.349275
92.420914
88.0641335
87.7705015
88.1945943
92.4634096
92.5639793
88.1033143
88.2360944
92.4163005
92.3988299
88.1705388
87.7959049
88.1689219
92.5089112
92.5242688
88.135116
88.2199104
92.5346035
92.3990626
88.2251979
87.7842163
88.084824
92.5984041
92.5546246
88.0960862
88.0828345
92.7830407
92.5753969
88.0347198
88.0535753
92.8445533
92.5153218
88.0943127
88.0986015
92.8714633
92.4042989
88.4335646
87.7811344
87.9602561
92.7780745
92.4424849
88.4582926
88.1702114
92.7066466
92.3815171
89.1001247
87.8936113
87.9348812
93.0025136
92.3745614
89.8404421
87.9250059
87.8885368
92.0934474
92.4643796
89.246809
88.1705981
91.2335301
92.5322082
90.1354897
87.9758954
87.8450415
90.9097954
92.5919813
89.8353009
88.1850529
90.4361699
92.6668605
90.8112024
88.1174011
87.904578
90.1354936
92.7042844
90.1222388
88.2884713
90.5784414
90.4161116
88.2206059
89.8231111
92.7822246
92.0280498
88.1720164
87.9479083
90.4345852
90.6118346
88.2427366
89.6458017
92.7986659
90.6090592
88.2121973
89.6109984
92.7498872
92.1996229
88.2731456
87.9363379
89.4691971
92.7062043
92.5186355
88.6996386
87.9809861
87.8584323
89.1488938
92.8273337
90.624763
88.1428882
89.2557573
92.7816763
92.3549784
90.8451963
88.1357959
89.2864366
92.7444844
91.5379078
88.0967481
87.7748098
89.0132469
92.7244931
92.8247007
88.2251571
87.7675392
88.9543501
92.7957116
90.6613811
88.058047
88.998648
92.7493104
92.3469326
90.8683912
88.0156773
)
;

boundaryField
{
    closed
    {
        type            calculated;
        value           uniform 120.138541;
    }
    open
    {
        type            calculated;
        value           nonuniform List<scalar> 0();
    }
    sides
    {
        type            empty;
    }
    procBoundary0to1
    {
        type            processor;
        value           uniform 89.000065;
    }
}


// ************************************************************************* //
