/*--------------------------------*- C++ -*----------------------------------*\
| =========                 |                                                 |
| \\      /  F ield         | OpenFOAM: The Open Source CFD Toolbox           |
|  \\    /   O peration     | Version:  2306                                  |
|   \\  /    A nd           | Website:  www.openfoam.com                      |
|    \\/     M anipulation  |                                                 |
\*---------------------------------------------------------------------------*/
FoamFile
{
    version     2.0;
    format      ascii;
    arch        "LSB;label=32;scalar=64";
    class       volScalarField;
    location    "0.00036";
    object      alpha;
}
// * * * * * * * * * * * * * * * * * * * * * * * * * * * * * * * * * * * * * //

dimensions      [1 -1 -1 0 0 0 0];

internalField   nonuniform List<scalar> 
530
(
3.52478846e-05
3.68023274e-05
3.68347656e-05
3.53899951e-05
3.53325331e-05
3.68150733e-05
3.68124885e-05
3.56489367e-05
3.51797332e-05
3.56479326e-05
3.67966215e-05
3.68548195e-05
3.540293e-05
3.52684284e-05
3.6802668e-05
3.68440098e-05
3.5473536e-05
3.54329532e-05
3.68219629e-05
3.6829786e-05
3.57038756e-05
3.563022e-05
3.57250598e-05
3.56905693e-05
3.57059052e-05
3.68216998e-05
3.68579453e-05
3.54935978e-05
3.54257206e-05
3.68320992e-05
3.68340792e-05
3.56202272e-05
3.52439244e-05
3.571885e-05
3.67974585e-05
3.68601584e-05
3.53827958e-05
3.52619333e-05
3.68017973e-05
3.6846965e-05
3.52537223e-05
3.52672576e-05
3.68295793e-05
3.68208004e-05
3.57494669e-05
3.5295202e-05
3.55403421e-05
3.68266317e-05
3.68441439e-05
3.56565769e-05
3.52263622e-05
3.56999497e-05
3.68116918e-05
3.68410721e-05
3.55999008e-05
3.52631855e-05
3.57663935e-05
3.68051934e-05
3.68693435e-05
3.51518028e-05
3.51131076e-05
3.6809742e-05
3.67943577e-05
3.58012247e-05
3.52435113e-05
3.54613722e-05
3.67950174e-05
3.68410993e-05
3.52999203e-05
3.52485346e-05
3.67918159e-05
3.68285464e-05
3.53185062e-05
3.5320804e-05
3.68085591e-05
3.681668e-05
3.54244426e-05
3.5145322e-05
3.57403795e-05
3.6789373e-05
3.68555435e-05
3.5336712e-05
3.52677131e-05
3.68004304e-05
3.68400265e-05
3.52563356e-05
3.52658109e-05
3.68242431e-05
3.68234208e-05
3.56871813e-05
3.51950631e-05
3.56817834e-05
3.67961537e-05
3.68657232e-05
3.53886569e-05
3.53191253e-05
3.68074096e-05
3.68561991e-05
3.52722103e-05
3.53312008e-05
3.68414653e-05
3.68227813e-05
3.57690283e-05
3.55244138e-05
3.56308791e-05
3.55611103e-05
3.57218657e-05
3.68171868e-05
3.6870074e-05
3.55452766e-05
3.5487155e-05
3.68222281e-05
3.68430536e-05
3.5530272e-05
3.51877493e-05
3.56915531e-05
3.68054007e-05
3.68755819e-05
3.55359656e-05
3.54706111e-05
3.68055433e-05
3.68382559e-05
3.5497016e-05
3.51216746e-05
3.56603992e-05
3.67853785e-05
3.68622643e-05
3.55262646e-05
3.53613702e-05
3.6768655e-05
3.68444785e-05
3.53935836e-05
3.52778301e-05
3.6758703e-05
3.68357798e-05
3.53681491e-05
3.52646449e-05
3.67527413e-05
3.68383374e-05
3.54507185e-05
3.53966096e-05
3.67569188e-05
3.68117602e-05
3.55975071e-05
3.51270273e-05
3.559053e-05
3.67509208e-05
3.68478927e-05
3.56063762e-05
3.53657305e-05
3.6708075e-05
3.68312489e-05
3.54897256e-05
3.52761096e-05
3.66770524e-05
3.68219723e-05
3.54640774e-05
3.52486695e-05
3.66368841e-05
3.68247454e-05
3.55257937e-05
3.52824408e-05
3.66260415e-05
3.68353269e-05
3.56938074e-05
3.54810409e-05
3.66378566e-05
3.68232894e-05
3.56975387e-05
3.52097279e-05
3.55369754e-05
3.6726338e-05
3.68375833e-05
3.57290676e-05
3.52376763e-05
3.54043561e-05
3.67121472e-05
3.68641075e-05
3.57153817e-05
3.55720129e-05
3.65001071e-05
3.68235152e-05
3.57192215e-05
3.5186924e-05
3.52442263e-05
3.66642842e-05
3.68501345e-05
3.57314309e-05
3.55717569e-05
3.63789907e-05
3.68105542e-05
3.57422743e-05
3.51981985e-05
3.51520761e-05
3.65751896e-05
3.68297949e-05
3.57445767e-05
3.54570833e-05
3.61943241e-05
3.68133998e-05
3.5713829e-05
3.53623928e-05
3.61179127e-05
3.68071194e-05
3.57223871e-05
3.54757115e-05
3.61328265e-05
3.67843953e-05
3.5802129e-05
3.52621612e-05
3.5153881e-05
3.63257615e-05
3.682268e-05
3.57998338e-05
3.5634534e-05
3.61373984e-05
3.67995321e-05
3.58360495e-05
3.53183844e-05
3.52386766e-05
3.62089259e-05
3.68301289e-05
3.58310363e-05
3.56912583e-05
3.61229204e-05
3.68169134e-05
3.59260474e-05
3.57038096e-05
3.57049147e-05
3.56738477e-05
3.56091514e-05
3.62233991e-05
3.6827336e-05
3.58488268e-05
3.56114666e-05
3.60127228e-05
3.67982789e-05
3.59552698e-05
3.54006228e-05
3.52134964e-05
3.60731333e-05
3.68012124e-05
3.58485175e-05
3.5507883e-05
3.59371535e-05
3.67963091e-05
3.58080799e-05
3.54068599e-05
3.5897395e-05
3.6775598e-05
3.58931204e-05
3.53831386e-05
3.56997185e-05
3.67167065e-05
3.66020295e-05
3.54739486e-05
3.54018571e-05
3.64863826e-05
3.5942561e-05
3.55189339e-05
3.59176008e-05
3.6771222e-05
3.60338737e-05
3.54755881e-05
3.56046046e-05
3.67121809e-05
3.67528968e-05
3.56898059e-05
3.52088781e-05
3.58558929e-05
3.67675893e-05
3.62320415e-05
3.55727458e-05
3.5457799e-05
3.63836148e-05
3.68083007e-05
3.57204185e-05
3.52373441e-05
3.57756371e-05
3.67634584e-05
3.63129605e-05
3.5587732e-05
3.53746514e-05
3.61330873e-05
3.68089002e-05
3.57913814e-05
3.53968724e-05
3.5867596e-05
3.678763e-05
3.58205358e-05
3.53381671e-05
3.5827467e-05
3.6786519e-05
3.58563429e-05
3.53361674e-05
3.58009084e-05
3.67905188e-05
3.58833509e-05
3.53669966e-05
3.58096139e-05
3.68045115e-05
3.58979126e-05
3.53880364e-05
3.57968354e-05
3.68019835e-05
3.61332665e-05
3.57315937e-05
3.55047094e-05
3.54605397e-05
3.59652275e-05
3.6810111e-05
3.59430398e-05
3.5419604e-05
3.57765225e-05
3.68255365e-05
3.65572512e-05
3.56103179e-05
3.52203501e-05
3.584314e-05
3.68067146e-05
3.59709989e-05
3.53866069e-05
3.57857383e-05
3.68179383e-05
3.59446539e-05
3.53361047e-05
3.57737921e-05
3.68071026e-05
3.59092415e-05
3.52299707e-05
3.57405915e-05
3.68014201e-05
3.59492354e-05
3.5322314e-05
3.57686153e-05
3.67982004e-05
3.5904472e-05
3.51979125e-05
3.57019509e-05
3.68273367e-05
3.6825853e-05
3.57169898e-05
3.52857234e-05
3.58432545e-05
3.67986478e-05
3.62079514e-05
3.53693245e-05
3.52307348e-05
3.59580225e-05
3.68109352e-05
3.59867663e-05
3.55356181e-05
3.58200876e-05
3.68283031e-05
3.61806176e-05
3.53158379e-05
3.52088824e-05
3.59675041e-05
3.68099725e-05
3.59591953e-05
3.55444598e-05
3.58315689e-05
3.68274024e-05
3.62436744e-05
3.53352928e-05
3.5263909e-05
3.59646798e-05
3.68048865e-05
3.62837681e-05
3.53869274e-05
3.53338205e-05
3.60066085e-05
3.68020043e-05
3.62251249e-05
3.53353218e-05
3.5292156e-05
3.60814277e-05
3.67999481e-05
3.58976232e-05
3.55586563e-05
3.58655991e-05
3.68221375e-05
3.61414658e-05
3.52478488e-05
3.52509785e-05
3.60806724e-05
3.67981072e-05
3.58685531e-05
3.55440046e-05
3.58664784e-05
3.68214653e-05
3.61964234e-05
3.52909833e-05
3.5333263e-05
3.60722612e-05
3.67997326e-05
3.61818398e-05
3.53434682e-05
3.54031465e-05
3.61642408e-05
3.67974656e-05
3.61520912e-05
3.53185864e-05
3.53530075e-05
3.60350248e-05
3.67988907e-05
3.6194417e-05
3.52993271e-05
3.53455947e-05
3.61358953e-05
3.67877512e-05
3.58500473e-05
3.55779103e-05
3.58941864e-05
3.68144413e-05
3.60799886e-05
3.52077094e-05
3.52756065e-05
3.61632989e-05
3.67826084e-05
3.57967926e-05
3.55058341e-05
3.59584808e-05
3.68000167e-05
3.57936546e-05
3.54477173e-05
3.58632094e-05
3.68138549e-05
3.61903197e-05
3.52689479e-05
3.53247924e-05
3.60609598e-05
3.67927196e-05
3.61465686e-05
3.52944766e-05
3.53588096e-05
3.61721598e-05
3.6779604e-05
3.57870727e-05
3.5552295e-05
3.59377007e-05
3.68014118e-05
3.59665223e-05
3.52411176e-05
3.53761323e-05
3.63235661e-05
3.67774086e-05
3.57442916e-05
3.54438702e-05
3.60163211e-05
3.68000429e-05
3.57510435e-05
3.54849238e-05
3.60192161e-05
3.6795575e-05
3.58893466e-05
3.52160589e-05
3.53634268e-05
3.62979259e-05
3.67988301e-05
3.57579834e-05
3.55958755e-05
3.61479089e-05
3.67981334e-05
3.57944707e-05
3.5220572e-05
3.54209045e-05
3.64172738e-05
3.68097597e-05
3.57479064e-05
3.5609365e-05
3.63317041e-05
3.67953433e-05
3.57480185e-05
3.51655365e-05
3.54277622e-05
3.66658926e-05
3.68168914e-05
3.57711588e-05
3.55785383e-05
3.66286377e-05
3.67894672e-05
3.5743925e-05
3.5136198e-05
3.54109248e-05
3.6785561e-05
3.68235502e-05
3.56804578e-05
3.54438547e-05
3.67640939e-05
3.6821891e-05
3.55093762e-05
3.53192555e-05
3.67945032e-05
3.68213381e-05
3.54224936e-05
3.53781908e-05
3.68528484e-05
3.67925119e-05
3.57229662e-05
3.50962918e-05
3.54574741e-05
3.68232342e-05
3.68360589e-05
3.56117394e-05
3.55959981e-05
3.68565184e-05
3.68209695e-05
3.57073031e-05
3.51920028e-05
3.54997081e-05
3.68520347e-05
3.6822167e-05
3.57137416e-05
3.52074961e-05
3.54510607e-05
3.68329856e-05
3.68416562e-05
3.56052806e-05
3.55472013e-05
3.68349595e-05
3.68239874e-05
3.56906364e-05
3.51100369e-05
3.52597031e-05
3.68048742e-05
3.68451635e-05
3.55434951e-05
3.5400922e-05
3.67868609e-05
)
;

boundaryField
{
    closed
    {
        type            calculated;
        value           nonuniform List<scalar> 0();
    }
    open
    {
        type            calculated;
        value           nonuniform List<scalar> 0();
    }
    sides
    {
        type            empty;
    }
    procBoundary2to1
    {
        type            processor;
        value           uniform 3.53537347e-05;
    }
    procBoundary2to3
    {
        type            processor;
        value           uniform 3.68427338e-05;
    }
}


// ************************************************************************* //
