/*--------------------------------*- C++ -*----------------------------------*\
| =========                 |                                                 |
| \\      /  F ield         | OpenFOAM: The Open Source CFD Toolbox           |
|  \\    /   O peration     | Version:  2306                                  |
|   \\  /    A nd           | Website:  www.openfoam.com                      |
|    \\/     M anipulation  |                                                 |
\*---------------------------------------------------------------------------*/
FoamFile
{
    version     2.0;
    format      ascii;
    arch        "LSB;label=32;scalar=64";
    class       volVectorField;
    location    "0.00036";
    object      U;
}
// * * * * * * * * * * * * * * * * * * * * * * * * * * * * * * * * * * * * * //

dimensions      [0 1 -1 0 0 0 0];

internalField   nonuniform List<vector> 
530
(
(0.47049145 0 0)
(0.482828603 0 0)
(0.477517776 0 0)
(0.470053894 0 0)
(0.478198522 0 0)
(0.487863805 0 0)
(0.481143283 0 0)
(0.478168351 0 0)
(0.48460942 0 0)
(0.477254171 0 0)
(0.472092474 0 0)
(0.468074497 0 0)
(0.46189147 0 0)
(0.470715388 0 0)
(0.481355509 0 0)
(0.475710219 0 0)
(0.468465159 0 0)
(0.475107149 0 0)
(0.481949241 0 0)
(0.472876763 0 0)
(0.456637685 0 0)
(0.451792211 0 0)
(0.450120508 0 0)
(0.447078343 0 0)
(0.445981838 0 0)
(0.454764009 0 0)
(0.451924406 0 0)
(0.4470277 0 0)
(0.454792022 0 0)
(0.461311325 0 0)
(0.453395123 0 0)
(0.44975842 0 0)
(0.456611868 0 0)
(0.459395507 0 0)
(0.4661195 0 0)
(0.463448861 0 0)
(0.457141641 0 0)
(0.463590151 0 0)
(0.471317563 0 0)
(0.464735279 0 0)
(0.457134655 0 0)
(0.465800753 0 0)
(0.472467448 0 0)
(0.461548495 0 0)
(0.446665704 0 0)
(0.44084302 0 0)
(0.433852754 0 0)
(0.432160334 0 0)
(0.42676051 0 0)
(0.423790856 0 0)
(0.430946737 0 0)
(0.436400787 0 0)
(0.444956028 0 0)
(0.44061255 0 0)
(0.438318184 0 0)
(0.447006093 0 0)
(0.447181446 0 0)
(0.451385169 0 0)
(0.449292971 0 0)
(0.444157816 0 0)
(0.456511478 0 0)
(0.46626549 0 0)
(0.455953662 0 0)
(0.442466057 0 0)
(0.43647983 0 0)
(0.428831022 0 0)
(0.427602212 0 0)
(0.423545426 0 0)
(0.417703386 0 0)
(0.426066132 0 0)
(0.432860952 0 0)
(0.42466659 0 0)
(0.417953532 0 0)
(0.426430638 0 0)
(0.432181755 0 0)
(0.422313585 0 0)
(0.420061147 0 0)
(0.432263303 0 0)
(0.436774008 0 0)
(0.443205582 0 0)
(0.44117976 0 0)
(0.437161014 0 0)
(0.44838342 0 0)
(0.457116081 0 0)
(0.449388503 0 0)
(0.44488451 0 0)
(0.458324385 0 0)
(0.467655889 0 0)
(0.457157369 0 0)
(0.441347547 0 0)
(0.437041585 0 0)
(0.441391925 0 0)
(0.448561291 0 0)
(0.447863197 0 0)
(0.445305846 0 0)
(0.457520588 0 0)
(0.467442008 0 0)
(0.461722231 0 0)
(0.459670322 0 0)
(0.476679948 0 0)
(0.485734862 0 0)
(0.476756068 0 0)
(0.468180283 0 0)
(0.472056114 0 0)
(0.479339754 0 0)
(0.481992278 0 0)
(0.486298411 0 0)
(0.500255549 0 0)
(0.503339232 0 0)
(0.505678882 0 0)
(0.52377502 0 0)
(0.538722562 0 0)
(0.536685323 0 0)
(0.542642827 0 0)
(0.565353783 0 0)
(0.583572597 0 0)
(0.605701517 0 0)
(0.61236391 0 0)
(0.617120175 0 0)
(0.641728245 0 0)
(0.663393985 0 0)
(0.664115877 0 0)
(0.674795947 0 0)
(0.705754379 0 0)
(0.710617925 0 0)
(0.717894949 0 0)
(0.728929892 0 0)
(0.738288886 0 0)
(0.769764052 0 0)
(0.802026524 0 0)
(0.809896832 0 0)
(0.819417601 0 0)
(0.856969303 0 0)
(0.89558105 0 0)
(0.90535897 0 0)
(0.917052764 0 0)
(0.961253377 0 0)
(1.00609531 0 0)
(1.01797006 0 0)
(1.03292169 0 0)
(1.0853027 0 0)
(1.13385038 0 0)
(1.14632292 0 0)
(1.17509063 0 0)
(1.2338826 0 0)
(1.25582972 0 0)
(1.28404605 0 0)
(1.31411831 0 0)
(1.34343493 0 0)
(1.41322246 0 0)
(1.48441835 0 0)
(1.5107867 0 0)
(1.5406927 0 0)
(1.6230742 0 0)
(1.70157996 0 0)
(1.72652827 0 0)
(1.76336881 0 0)
(1.86076563 0 0)
(1.93754657 0 0)
(1.95256981 0 0)
(1.99603935 0 0)
(2.1069256 0 0)
(2.19099698 0 0)
(2.20361416 0 0)
(2.24531862 0 0)
(2.35688169 0 0)
(2.44309358 0 0)
(2.45359672 0 0)
(2.43617817 0 0)
(2.47165681 0 0)
(2.51766712 0 0)
(2.5796423 0 0)
(2.6298017 0 0)
(2.61752814 0 0)
(2.65289423 0 0)
(2.69648125 0 0)
(2.76784666 0 0)
(2.81898882 0 0)
(2.79504139 0 0)
(2.84657207 0 0)
(2.9134552 0 0)
(2.90457154 0 0)
(2.8769608 0 0)
(2.9000497 0 0)
(2.93227711 0 0)
(2.99374418 0 0)
(3.02937594 0 0)
(2.9953611 0 0)
(3.03479636 0 0)
(3.08835521 0 0)
(3.068186 0 0)
(3.02875077 0 0)
(3.04006383 0 0)
(3.05357707 0 0)
(3.07696849 0 0)
(3.07872322 0 0)
(3.02880836 0 0)
(3.04327317 0 0)
(3.08542278 0 0)
(3.06047064 0 0)
(2.9984439 0 0)
(3.00212765 0 0)
(3.04128264 0 0)
(3.0131291 0 0)
(2.95120147 0 0)
(2.9545355 0 0)
(2.98011952 0 0)
(2.94393044 0 0)
(2.89431751 0 0)
(2.89025117 0 0)
(2.93898017 0 0)
(2.94053607 0 0)
(2.86388713 0 0)
(2.80670389 0 0)
(2.80469382 0 0)
(2.81117428 0 0)
(2.76506287 0 0)
(2.71360668 0 0)
(2.70361126 0 0)
(2.73064192 0 0)
(2.72136416 0 0)
(2.64950807 0 0)
(2.59398519 0 0)
(2.5820418 0 0)
(2.57316857 0 0)
(2.51829785 0 0)
(2.47486623 0 0)
(2.45750974 0 0)
(2.43910625 0 0)
(2.41582208 0 0)
(2.39288376 0 0)
(2.35950078 0 0)
(2.2902261 0 0)
(2.23422406 0 0)
(2.20926211 0 0)
(2.19474379 0 0)
(2.13851568 0 0)
(2.09529033 0 0)
(2.07271443 0 0)
(2.07056689 0 0)
(2.04295056 0 0)
(1.97451584 0 0)
(1.92026456 0 0)
(1.8880333 0 0)
(1.87123653 0 0)
(1.81777456 0 0)
(1.76616137 0 0)
(1.73177946 0 0)
(1.71332577 0 0)
(1.66180501 0 0)
(1.62072468 0 0)
(1.58945618 0 0)
(1.58408153 0 0)
(1.57796389 0 0)
(1.59348859 0 0)
(1.60397568 0 0)
(1.58423957 0 0)
(1.51941187 0 0)
(1.45716402 0 0)
(1.42181424 0 0)
(1.39285463 0 0)
(1.34027776 0 0)
(1.31101928 0 0)
(1.28184834 0 0)
(1.22937614 0 0)
(1.18864236 0 0)
(1.16887796 0 0)
(1.13112273 0 0)
(1.08692298 0 0)
(1.04977953 0 0)
(1.00277329 0 0)
(0.989356823 0 0)
(0.975227913 0 0)
(0.952728497 0 0)
(0.91210193 0 0)
(0.867320854 0 0)
(0.840434478 0 0)
(0.812794018 0 0)
(0.790310541 0 0)
(0.757135531 0 0)
(0.757302626 0 0)
(0.752552929 0 0)
(0.732404764 0 0)
(0.694946571 0 0)
(0.652449498 0 0)
(0.634922659 0 0)
(0.609376265 0 0)
(0.583653522 0 0)
(0.544737694 0 0)
(0.533417025 0 0)
(0.510913675 0 0)
(0.484496196 0 0)
(0.447630254 0 0)
(0.438483551 0 0)
(0.41690149 0 0)
(0.390641292 0 0)
(0.355203071 0 0)
(0.348209807 0 0)
(0.326668073 0 0)
(0.29960203 0 0)
(0.264185406 0 0)
(0.258435938 0 0)
(0.237588342 0 0)
(0.210892371 0 0)
(0.178629135 0 0)
(0.17746626 0 0)
(0.161158432 0 0)
(0.138931942 0 0)
(0.11735198 0 0)
(0.0936778808 0 0)
(0.0610904635 0 0)
(0.0532969454 0 0)
(0.03184878 0 0)
(0.00408154595 0 0)
(-0.0262497732 0 0)
(-0.0139044398 0 0)
(-0.0101735743 0 0)
(-0.0433158308 0 0)
(-0.0771722791 0 0)
(-0.107368763 0 0)
(-0.114893609 0 0)
(-0.138469233 0 0)
(-0.165686981 0 0)
(-0.19673091 0 0)
(-0.203358387 0 0)
(-0.223873468 0 0)
(-0.251725994 0 0)
(-0.285083255 0 0)
(-0.292191828 0 0)
(-0.309831281 0 0)
(-0.338843563 0 0)
(-0.373679961 0 0)
(-0.380399766 0 0)
(-0.398634925 0 0)
(-0.42700145 0 0)
(-0.463403122 0 0)
(-0.472101626 0 0)
(-0.486501434 0 0)
(-0.514098157 0 0)
(-0.549979361 0 0)
(-0.567176576 0 0)
(-0.561278511 0 0)
(-0.568512357 0 0)
(-0.593481954 0 0)
(-0.627674903 0 0)
(-0.635382576 0 0)
(-0.653907872 0 0)
(-0.675371696 0 0)
(-0.695534745 0 0)
(-0.725465132 0 0)
(-0.736255705 0 0)
(-0.753295236 0 0)
(-0.772267572 0 0)
(-0.807526852 0 0)
(-0.815373395 0 0)
(-0.833488598 0 0)
(-0.851581675 0 0)
(-0.868607068 0 0)
(-0.896226618 0 0)
(-0.905043239 0 0)
(-0.919833496 0 0)
(-0.935791956 0 0)
(-0.970582347 0 0)
(-0.977630509 0 0)
(-0.991588211 0 0)
(-1.00839953 0 0)
(-1.02513391 0 0)
(-1.05367949 0 0)
(-1.06176435 0 0)
(-1.07655797 0 0)
(-1.09448072 0 0)
(-1.10681117 0 0)
(-1.12994454 0 0)
(-1.13800784 0 0)
(-1.15495293 0 0)
(-1.16936453 0 0)
(-1.17453074 0 0)
(-1.18936547 0 0)
(-1.19173197 0 0)
(-1.20001092 0 0)
(-1.20780474 0 0)
(-1.23723806 0 0)
(-1.25802662 0 0)
(-1.26591106 0 0)
(-1.25885081 0 0)
(-1.2618188 0 0)
(-1.27417347 0 0)
(-1.27261631 0 0)
(-1.27588975 0 0)
(-1.28225555 0 0)
(-1.31199665 0 0)
(-1.33504873 0 0)
(-1.34082851 0 0)
(-1.33136405 0 0)
(-1.33147414 0 0)
(-1.34608068 0 0)
(-1.36797358 0 0)
(-1.37617629 0 0)
(-1.36547179 0 0)
(-1.35903794 0 0)
(-1.36466146 0 0)
(-1.38479756 0 0)
(-1.39250517 0 0)
(-1.37907903 0 0)
(-1.37722999 0 0)
(-1.39141792 0 0)
(-1.41345583 0 0)
(-1.41869453 0 0)
(-1.40434551 0 0)
(-1.39361455 0 0)
(-1.39120499 0 0)
(-1.38154503 0 0)
(-1.37661222 0 0)
(-1.3732296 0 0)
(-1.39003929 0 0)
(-1.40391269 0 0)
(-1.40117134 0 0)
(-1.38196643 0 0)
(-1.36568983 0 0)
(-1.35453475 0 0)
(-1.33777511 0 0)
(-1.32615449 0 0)
(-1.31491034 0 0)
(-1.31465966 0 0)
(-1.2982297 0 0)
(-1.28227816 0 0)
(-1.27642618 0 0)
(-1.28591161 0 0)
(-1.29663222 0 0)
(-1.28876068 0 0)
(-1.2656698 0 0)
(-1.25185695 0 0)
(-1.24760562 0 0)
(-1.25399986 0 0)
(-1.24927716 0 0)
(-1.22750589 0 0)
(-1.20274887 0 0)
(-1.18012976 0 0)
(-1.15683858 0 0)
(-1.13810091 0 0)
(-1.12141895 0 0)
(-1.11303328 0 0)
(-1.10722455 0 0)
(-1.096388 0 0)
(-1.07567469 0 0)
(-1.03945055 0 0)
(-1.00133897 0 0)
(-0.971717791 0 0)
(-0.949317933 0 0)
(-0.926776802 0 0)
(-0.901695468 0 0)
(-0.877803349 0 0)
(-0.856315647 0 0)
(-0.833776867 0 0)
(-0.811177532 0 0)
(-0.797426947 0 0)
(-0.783325652 0 0)
(-0.762919409 0 0)
(-0.726619585 0 0)
(-0.686374246 0 0)
(-0.661296402 0 0)
(-0.642221254 0 0)
(-0.614691255 0 0)
(-0.580782613 0 0)
(-0.562352692 0 0)
(-0.548800285 0 0)
(-0.532681728 0 0)
(-0.491176958 0 0)
(-0.444366944 0 0)
(-0.420297582 0 0)
(-0.402947531 0 0)
(-0.368927084 0 0)
(-0.32540252 0 0)
(-0.306687268 0 0)
(-0.29919682 0 0)
(-0.290080746 0 0)
(-0.23858558 0 0)
(-0.18239772 0 0)
(-0.158415187 0 0)
(-0.143970251 0 0)
(-0.0966034484 0 0)
(-0.0406349807 0 0)
(-0.0243173503 0 0)
(-0.0187653465 0 0)
(-0.0117966505 0 0)
(0.0179925151 0 0)
(0.0517702941 0 0)
(0.0483873806 0 0)
(0.0296370924 0 0)
(0.0599329543 0 0)
(0.0987087542 0 0)
(0.0932033592 0 0)
(0.0783766588 0 0)
(0.106466513 0 0)
(0.136710322 0 0)
(0.136472181 0 0)
(0.131963712 0 0)
(0.153233118 0 0)
(0.172037202 0 0)
(0.18104294 0 0)
(0.186883692 0 0)
(0.195596286 0 0)
(0.214515223 0 0)
(0.233807618 0 0)
(0.243687228 0 0)
(0.252689546 0 0)
(0.269718385 0 0)
(0.282537376 0 0)
(0.288040702 0 0)
(0.296855916 0 0)
(0.307592821 0 0)
(0.325868472 0 0)
(0.340213798 0 0)
(0.344710029 0 0)
(0.353556786 0 0)
(0.363954855 0 0)
(0.382519844 0 0)
(0.397458963 0 0)
(0.408430565 0 0)
(0.427562604 0 0)
(0.449227903 0 0)
(0.458523588 0 0)
(0.458941942 0 0)
(0.465728559 0 0)
(0.475586576 0 0)
(0.497502902 0 0)
(0.511971338 0 0)
(0.521308445 0 0)
(0.543948934 0 0)
(0.570317091 0 0)
)
;

boundaryField
{
    closed
    {
        type            noSlip;
    }
    open
    {
        type            inletOutlet;
        inletValue      nonuniform List<vector> 0();
        value           nonuniform List<vector> 0();
    }
    sides
    {
        type            empty;
    }
    procBoundary2to1
    {
        type            processor;
        value           uniform (0.462168931 0 0);
    }
    procBoundary2to3
    {
        type            processor;
        value           uniform (0.580877962 0 0);
    }
}


// ************************************************************************* //
