/*--------------------------------*- C++ -*----------------------------------*\
| =========                 |                                                 |
| \\      /  F ield         | OpenFOAM: The Open Source CFD Toolbox           |
|  \\    /   O peration     | Version:  2306                                  |
|   \\  /    A nd           | Website:  www.openfoam.com                      |
|    \\/     M anipulation  |                                                 |
\*---------------------------------------------------------------------------*/
FoamFile
{
    version     2.0;
    format      ascii;
    arch        "LSB;label=32;scalar=64";
    class       volScalarField;
    location    "0.00114";
    object      prefDh_H2;
}
// * * * * * * * * * * * * * * * * * * * * * * * * * * * * * * * * * * * * * //

dimensions      [1 1 -3 0 0 0 0];

internalField   nonuniform List<scalar> 
531
(
22.1380847
25.4773803
38.5197057
38.6352661
28.7378728
22.6155443
25.934263
38.3248186
38.7036178
26.9558704
26.6339653
38.4247489
38.4775297
28.7142249
24.6336021
27.0094274
38.4173149
38.5279637
28.859311
25.9515246
25.7713769
25.4597094
38.434931
38.5359809
28.9758655
22.2511544
24.7555762
38.0021752
38.6210154
24.4466048
23.0350771
34.077663
38.2023705
37.9574948
38.462346
28.9520289
21.4818745
23.917532
38.5708462
38.836319
28.5334557
24.7629234
28.5880618
38.4208623
38.8008143
28.9319099
26.3806776
24.3926965
24.3571635
38.4502328
38.7283072
25.6923374
25.226793
38.4641546
38.5836918
25.9562438
25.1207409
38.590872
38.5799384
28.6341424
24.6522851
28.8715443
38.4666494
38.7134151
29.0726304
26.8218648
24.5724764
24.4849703
38.4566643
38.8457706
28.7652295
22.4805819
24.3618861
38.6949919
38.8653261
28.5253291
25.5592261
28.3790416
38.5988798
39.1550396
28.8295335
27.6677159
38.6461051
39.0669136
28.4710027
26.944356
26.7420303
28.5322548
38.7681186
38.8681014
28.8928912
26.6195127
24.918328
24.8436777
38.3407042
38.7365846
28.8348951
25.2593525
25.4784799
25.095958
38.2372169
38.7267531
27.2415697
26.4402701
38.3239817
38.6896462
28.2417122
27.313635
38.4517651
38.6069585
28.6658515
25.5294186
25.2738828
23.3902954
29.7750606
38.541007
38.7092202
38.6992624
27.8188425
27.1838223
38.1686845
38.5121118
38.4966787
29.0187292
24.6301152
25.5416713
22.2802616
22.2589875
38.1275135
38.425397
29.0599819
20.3213844
24.0455632
38.0276147
38.1721038
38.2471759
32.1382312
24.847054
24.3843598
38.1124922
38.3997072
28.6441499
26.6032668
28.4157749
26.04002
28.5744349
38.448989
39.0063607
28.9828573
28.0279311
25.4599907
27.3844916
38.3645681
38.817381
38.5479975
38.8365931
27.6933716
23.0226477
23.6989439
24.1236863
38.2695303
38.3034465
38.5373245
38.4907887
28.6110083
22.9494242
26.1888386
22.4286878
24.8922955
38.1136635
38.3868966
38.4087259
38.4051621
29.0693753
23.3698838
26.5810384
22.6280542
25.1569357
37.6678482
38.1303281
37.8705591
38.3396603
26.3441281
20.8027546
19.2409059
20.3817609
37.9792273
38.0168437
38.2283536
26.2067911
23.0843205
37.8897528
38.2281126
38.2639291
29.2779159
24.3782746
38.0292452
38.5129667
27.9741516
25.7925916
38.0716801
38.4459407
29.1843203
25.5997425
24.5727652
24.5783597
37.8037189
38.3062315
26.0941995
24.7044513
37.8679699
38.253257
25.4585286
22.4974267
38.0144172
38.0414315
29.0951825
20.7723721
25.1444451
38.0367827
38.3899136
38.3677568
29.0909318
25.1001824
22.7639428
22.7469483
38.0332012
38.3639953
38.2703594
28.9396414
21.9502332
23.4307177
38.0331655
38.7376762
27.3669619
25.3807157
38.0502397
38.7010796
29.1606088
26.3801878
25.2023141
25.8353524
38.1812504
38.3341515
38.3353162
38.7024856
28.2779402
23.6276138
23.1168678
25.5096293
38.3491371
38.4745392
38.4091808
28.8800962
23.631084
23.6032399
38.2251807
38.4813631
28.9916962
20.8115659
21.4960487
38.2649599
38.9214082
26.6536377
28.7202364
38.4495727
28.6969261
24.9895481
38.6738941
38.4014805
28.6350317
25.9763089
28.8114764
38.3730037
38.7402484
28.9598441
23.2078203
23.327563
38.4503492
38.1728243
28.8965743
22.7065334
27.2097561
38.1280811
29.0824628
24.5451601
31.4412465
38.2612612
38.3223692
29.0712237
20.8012291
22.9652879
38.1131521
38.070161
29.1822785
20.5143207
22.4481247
38.0308621
38.308798
38.1000601
38.4108058
29.0921954
25.9337407
21.7685297
21.8233757
38.0680912
38.5058054
26.1165643
24.5198383
38.1310282
38.623883
29.4403293
26.9992551
38.2552633
38.7845765
29.9505382
28.869564
23.4900294
26.6393754
38.4119475
28.7723806
24.1160942
38.4500432
38.6300188
30.8394221
28.9849012
23.0214516
27.305707
38.2794305
28.9328121
24.6063129
38.1814449
38.5197701
31.7776362
28.9907495
22.9394901
27.7933846
38.1498439
29.0344723
24.861315
37.9147245
38.4856962
33.2082973
28.9067003
22.4424842
28.5894217
37.9965999
29.0104509
25.1667734
38.0335766
38.3353404
32.3720434
29.2137425
23.3373865
24.4523697
38.2747313
38.2605733
28.9506732
22.8124781
24.3022229
38.5111816
38.2485141
28.8270585
22.0482697
27.0935852
38.2284759
28.9602851
23.8144905
38.3298295
38.4151126
27.3859704
24.4247038
38.2246451
38.6014857
26.9798628
25.0217619
38.0818904
38.7139335
29.3660823
26.9397892
38.0100562
38.737029
30.9516729
28.8789637
23.9936561
24.1017587
38.0602686
38.4825565
29.2872805
27.630803
21.4130804
21.5434187
38.0351075
38.5586227
27.5822744
25.1703728
38.0038133
38.6118502
30.1736698
28.3737136
24.2132117
24.3821133
37.9527222
38.4067236
29.6515844
25.0207205
38.2052099
38.2157295
38.1137352
37.990894
29.0733164
20.2162964
23.1617805
37.5862285
38.0145588
23.768464
19.5795177
37.7876322
37.7138552
29.4065787
20.4865262
20.5612941
37.6993606
37.5783328
30.2009092
21.1019289
21.1264873
37.6514444
37.6057151
30.0297085
21.0938073
21.1408771
37.6068115
37.6147497
30.406161
21.1988637
21.3010842
37.5293118
37.9248953
27.8979336
24.6199399
37.5487844
37.709116
30.6774851
21.7507765
21.8111654
37.520533
37.9879485
27.819038
24.5134663
37.5957595
37.7767665
30.4021301
21.7320235
21.7762853
37.5166268
38.0366595
28.1213136
24.6472661
37.5805157
37.8383755
30.0689235
21.8350018
21.791578
37.6346023
37.818441
29.8554859
21.1957514
21.2969859
37.5505547
38.2512985
28.6050033
25.9131438
37.8390461
38.1845166
29.112429
28.4596427
21.0655604
21.1104628
37.6225906
38.1242261
38.0680669
29.5709036
24.6257113
37.7102115
37.8703417
29.7810223
21.0396749
21.051761
37.4859028
38.121746
28.0571802
23.7966564
37.6899248
37.9053938
29.3692369
20.8890551
20.9292524
37.4020613
38.2660863
28.1805977
24.7131451
37.5474107
38.1853909
29.0277902
25.4244868
37.5344522
37.9473881
29.673609
22.1011482
22.0679297
37.3504635
37.8671083
29.4305302
21.3390295
21.261548
37.3945934
37.7726493
29.75395
21.5126375
21.5436425
37.2194978
38.0091584
28.9342445
24.800106
37.494859
37.8642533
29.5199163
21.9135759
21.925676
37.3895006
)
;

boundaryField
{
    closed
    {
        type            calculated;
        value           nonuniform List<scalar> 0();
    }
    open
    {
        type            calculated;
        value           nonuniform List<scalar> 0();
    }
    sides
    {
        type            empty;
    }
    procBoundary3to2
    {
        type            processor;
        value           uniform 28.7901007;
    }
    procBoundary3to4
    {
        type            processor;
        value           uniform 38.1099381;
    }
}


// ************************************************************************* //
