/*--------------------------------*- C++ -*----------------------------------*\
| =========                 |                                                 |
| \\      /  F ield         | OpenFOAM: The Open Source CFD Toolbox           |
|  \\    /   O peration     | Version:  2306                                  |
|   \\  /    A nd           | Website:  www.openfoam.com                      |
|    \\/     M anipulation  |                                                 |
\*---------------------------------------------------------------------------*/
FoamFile
{
    version     2.0;
    format      ascii;
    arch        "LSB;label=32;scalar=64";
    class       volScalarField;
    location    "0.00128";
    object      h;
}
// * * * * * * * * * * * * * * * * * * * * * * * * * * * * * * * * * * * * * //

dimensions      [0 2 -2 0 0 0 0];

internalField   nonuniform List<scalar> 
530
(
9313.0773
10694.4406
9969.11939
1371.83581
-4149.24467
-6953.54425
-6956.49165
8929.243
9885.23096
-5222.67247
-5955.52812
9013.74729
10078.0248
-5383.37964
-5368.89791
9080.00289
10514.7216
9719.96268
-63.3834776
-6514.1359
-4461.26898
9463.34878
10160.6386
10071.433
10022.9578
-2459.23928
-5692.12294
-7953.33172
-7853.98645
8868.99684
10205.1021
9595.54832
-1651.26092
-4316.5903
9897.62397
10497.1354
962.807683
-2846.34741
-5992.37477
-5902.23824
9198.46342
10382.4486
9729.45008
-1623.76768
-4129.0316
9549.47093
10633.8317
4988.68734
-1876.88421
-4422.5319
-4075.62855
-6762.5628
-6726.50877
9307.33173
10268.8696
9927.17853
-2540.41581
-4746.49879
9838.39707
10025.2942
2585.15746
-7194.08786
-6841.04486
9209.36871
10343.307
9768.37007
46.8081891
-6467.61369
-6218.08431
9707.82016
10118.3842
-3548.44631
-4118.44962
9383.22001
10644.9291
10050.5559
-329.346905
-4556.80963
-6609.44414
-6698.18446
9413.28635
9698.11552
-1484.39461
-7520.70358
-6725.77131
9323.46918
10354.9764
9970.30971
-1297.16289
-3990.01164
10055.9036
10458.7522
-534.319364
-3376.74927
-7221.95685
-7218.62927
8619.13022
9746.20245
8780.04132
9731.23887
9257.11049
-7245.09147
-7826.42687
9017.41159
9888.34314
-4813.04471
-5531.02191
9476.71266
10142.0199
-3719.11725
-4707.18834
9839.71835
10340.6509
157.799045
-3649.79638
-5088.38629
-5085.96093
9577.89905
10480.6488
10129.3147
-2095.51271
-4787.54866
10013.4606
9995.78643
-3.83745302
-7254.19117
-7184.39724
9633.12944
9846.82413
-3642.29971
-5704.21095
9859.24881
9926.9921
692.867391
-6845.28628
-6667.29033
9648.78682
9967.87802
-4035.77024
-5260.48527
9568.13558
10175.0662
-4114.78363
-4805.66833
9614.54256
10241.0996
-3950.94947
-4578.57393
9683.79397
10278.098
-3733.78708
-4396.99987
9772.13152
10326.0119
-3345.55755
-3997.59712
10014.5573
10494.4102
957.149898
-3165.49871
-5261.57686
-5270.55274
9538.78709
10140.473
10147.1571
10193.8071
-339.68452
-4551.66761
-6411.62807
-6142.38459
9360.60584
-1782.15847
-7013.2994
9824.30381
9985.65944
-3826.03207
-4690.54994
9756.9668
10353.3284
-3648.14445
-3496.03757
9680.75959
10637.1407
4766.49766
-2706.56453
-3421.58627
-5266.92972
-4804.20325
9497.05364
10420.7496
9637.56109
10607.2847
9854.90098
-2040.7175
-7471.56433
-7464.27056
9877.48534
9750.10755
-1450.98273
-7782.8735
-7073.88938
9586.8253
10045.2631
-4308.14446
-4149.86987
9681.67544
-1114.63231
-6210.96558
9487.52746
10301.5483
9700.09645
-2737.24875
-5485.86519
9599.08636
9896.60736
9986.06738
9924.56017
-3345.2449
-6867.87365
-6164.93082
10027.0553
10279.9081
930.006645
-3237.23986
-5853.55742
-5599.79014
8975.62719
10461.6469
8351.98919
-2581.71283
-6896.36722
-5796.63877
9815.57217
10099.1747
-3702.45215
-4833.76407
9904.8161
10301.3114
-2253.98377
-3658.87229
9989.35565
10527.4333
2823.25513
-3321.48624
-3444.56013
-4751.27843
-4751.34041
10004.6027
10285.6431
-1351.81194
-4046.13702
10144.2247
10230.9262
1352.23044
-5648.58248
-5385.44911
9687.29009
10118.7693
10202.3156
10195.0859
1076.90233
-4925.32634
-4162.30224
-6643.02082
-6486.62181
9502.10385
10055.9825
9916.56939
-5026.34146
-6856.44092
9805.94704
9779.07213
-1101.92437
-8274.23382
-7440.82545
9142.91987
9814.20519
9604.18479
9990.0222
-4866.79434
-4854.51092
9347.27096
-2952.41295
-7883.94748
9277.72685
9567.80724
9493.1852
7631.51964
-6918.17092
-6550.51021
9499.08118
-1393.05534
-5381.76589
9747.48583
10475.791
4433.95452
-2433.54616
-6556.95617
-6243.57763
9504.86022
10031.5935
9998.32594
5179.61864
-3510.04918
-5757.96427
-4480.71778
9632.02284
-185.721811
-5876.88374
10038.0908
10034.19
-1252.32331
-5416.20842
-412.61092
9331.77105
10474.5238
9285.71342
-5814.62055
-6799.06635
9341.297
10116.5825
-4395.67542
-4238.59864
9681.8634
10593.7667
10195.1265
2293.33586
-3641.17232
-5740.09791
-5396.00219
9462.46891
-1569.20865
-6701.93431
9707.02486
9952.0396
-4770.78998
-5687.63586
9219.79546
9987.6446
9886.74242
9984.55914
-2235.14726
-5289.9451
-6313.08171
-6295.82481
9521.7929
9967.43327
2341.63314
-5989.68006
-5802.06272
9629.22726
10062.3541
4574.73553
-5829.02168
-5833.24479
9655.81492
10198.7063
-3433.84382
-3961.81295
9690.93332
10434.9601
-4053.11872
-3858.99298
9507.61995
10685.6425
9751.4631
1248.34383
-7296.0238
-5508.65517
9364.0393
-2788.52813
-6124.85295
9267.49626
10361.7004
9556.92848
-2297.29176
-6006.47497
9950.48393
9965.41169
732.954296
-6092.6072
-5813.18862
9821.81971
10331.2883
2714.96122
-2976.1826
-5069.86894
-4783.02264
9617.17303
-310.328904
-5664.72975
9673.12412
10178.0586
-4509.24047
-4454.08884
9191.10248
10532.7945
9679.60719
2958.88789
-6565.47571
-6452.79366
9788.71609
9948.37654
769.625098
-5819.26053
-5696.76164
9838.2083
10049.1401
2179.83357
-5798.88599
-5717.94468
9704.92479
10068.9007
-2845.17891
-5079.83526
9856.79422
9958.80627
276.252871
-7273.71018
-6945.20463
9074.56713
9979.27226
9535.99843
-5227.79376
-7453.93018
8908.81758
9867.51428
-6156.07806
-6084.29425
8836.26279
10218.1177
9645.27473
-3905.10686
-6434.63995
9311.13544
9944.06245
-4060.0256
-5726.87574
9568.86139
9992.24476
1293.42457
-6159.88445
-6052.67035
9543.44715
10034.5374
-3441.29196
-5129.87926
9412.52824
10098.9163
3896.6741
-6030.42316
-5989.29911
9366.91515
10164.1806
-3855.66632
-3997.14189
9270.83201
10644.8127
4621.23755
-1803.22976
-5315.75006
-4786.76551
9566.49004
-1601.81716
-4863.73328
9175.15893
10551.0361
9816.65571
912.188016
-6844.97367
-5438.47619
9289.48529
52.4144146
-5848.41832
9477.07061
10146.5542
-3031.38256
-4176.83174
9425.22619
10416.9425
-3023.63047
-3245.61262
9370.31826
10706.0764
3920.04399
-1933.31215
-5096.09005
-4952.21358
9521.1925
1958.72819
-5180.55464
9411.31547
10233.573
-2684.81337
-3830.98978
9541.76923
10494.84
721.287562
-3129.50194
-5193.10304
-5193.73209
9230.10921
10262.5625
-3604.4482
-3689.89804
9063.74578
2813.86446
-5808.99494
9216.12916
10175.0077
-2936.1
-3852.93409
9403.22894
10552.46
2077.36819
-2709.57012
-5242.24522
-5246.87198
9152.74292
10194.4194
-3998.24158
-4477.54894
8749.73201
10308.5552
9771.44547
4879.0876
-5922.91284
-5939.6004
9167.50306
10007.0715
)
;

boundaryField
{
    closed
    {
        type            lookUpEnthalpy;
        h0              nonuniform List<scalar> 0();
        value           nonuniform List<scalar> 0();
    }
    open
    {
        type            zeroGradient;
    }
    sides
    {
        type            empty;
    }
    procBoundary2to1
    {
        type            processor;
        value           uniform -3773.1365;
    }
    procBoundary2to3
    {
        type            processor;
        value           uniform 106.205498;
    }
}


// ************************************************************************* //
