/*--------------------------------*- C++ -*----------------------------------*\
| =========                 |                                                 |
| \\      /  F ield         | OpenFOAM: The Open Source CFD Toolbox           |
|  \\    /   O peration     | Version:  2306                                  |
|   \\  /    A nd           | Website:  www.openfoam.com                      |
|    \\/     M anipulation  |                                                 |
\*---------------------------------------------------------------------------*/
FoamFile
{
    version     2.0;
    format      ascii;
    arch        "LSB;label=32;scalar=64";
    class       volScalarField;
    location    "0.00128";
    object      prefDZ_H2;
}
// * * * * * * * * * * * * * * * * * * * * * * * * * * * * * * * * * * * * * //

dimensions      [1 -1 -1 0 0 0 0];

internalField   nonuniform List<scalar> 
530
(
6.35232566e-05
6.35118079e-05
6.35025967e-05
6.23605983e-05
6.18359706e-05
6.10632175e-05
6.10745779e-05
6.34791129e-05
6.3530072e-05
6.15430502e-05
6.13555121e-05
6.34830634e-05
6.35491363e-05
6.15010924e-05
6.15166326e-05
6.35211175e-05
6.35767187e-05
6.34857526e-05
6.23008222e-05
6.11750339e-05
6.17586137e-05
6.34940985e-05
6.35611591e-05
6.35187956e-05
6.35587207e-05
6.22787165e-05
6.14196404e-05
6.08009521e-05
6.08167362e-05
6.35302616e-05
6.35222988e-05
6.35141668e-05
6.23457455e-05
6.17912772e-05
6.35852363e-05
6.35215054e-05
6.23137936e-05
6.21803261e-05
6.13487479e-05
6.13685044e-05
6.35657754e-05
6.35523563e-05
6.35557528e-05
6.23358089e-05
6.18441612e-05
6.35609802e-05
6.35486422e-05
6.25952814e-05
6.23504243e-05
6.17620741e-05
6.1858167e-05
6.11231726e-05
6.11387324e-05
6.35297117e-05
6.35211252e-05
6.35151734e-05
6.22584472e-05
6.16727928e-05
6.35641821e-05
6.34870355e-05
6.23700596e-05
6.10004616e-05
6.11194595e-05
6.35217914e-05
6.35684316e-05
6.35110875e-05
6.23018811e-05
6.12010714e-05
6.12941958e-05
6.35222206e-05
6.35831168e-05
6.19967062e-05
6.18486528e-05
6.35585138e-05
6.35752137e-05
6.35403454e-05
6.23121513e-05
6.17273424e-05
6.11822163e-05
6.11435079e-05
6.3560108e-05
6.35088628e-05
6.23460492e-05
6.09008123e-05
6.11403016e-05
6.35069069e-05
6.35181442e-05
6.3514836e-05
6.23637705e-05
6.18777269e-05
6.35487342e-05
6.34938534e-05
6.23597402e-05
6.20406723e-05
6.09785392e-05
6.09805493e-05
6.34291553e-05
6.34528966e-05
6.34027221e-05
6.34565776e-05
6.34362412e-05
6.098273e-05
6.07989326e-05
6.34895337e-05
6.34862479e-05
6.16583629e-05
6.14666801e-05
6.35324711e-05
6.35515252e-05
6.19523143e-05
6.16925331e-05
6.35857363e-05
6.35657375e-05
6.23074137e-05
6.19704154e-05
6.15915798e-05
6.15922628e-05
6.35639054e-05
6.35657861e-05
6.35581023e-05
6.23251079e-05
6.16683035e-05
6.3616339e-05
6.35481485e-05
6.22923779e-05
6.09980886e-05
6.10256389e-05
6.35635335e-05
6.3536614e-05
6.19724565e-05
6.14141553e-05
6.35842625e-05
6.34935963e-05
6.23117802e-05
6.10946496e-05
6.1166218e-05
6.35152926e-05
6.35551184e-05
6.1867889e-05
6.15448714e-05
6.35294499e-05
6.35635062e-05
6.18470791e-05
6.16675812e-05
6.35352991e-05
6.35761726e-05
6.18908605e-05
6.17283103e-05
6.35482418e-05
6.3584594e-05
6.19484203e-05
6.17762427e-05
6.35686025e-05
6.358774e-05
6.20491832e-05
6.18801333e-05
6.35910151e-05
6.35705657e-05
6.23189336e-05
6.20962157e-05
6.15432761e-05
6.15419024e-05
6.35604239e-05
6.35445707e-05
6.35646212e-05
6.35452649e-05
6.23222161e-05
6.17311554e-05
6.12355941e-05
6.13059396e-05
6.35711874e-05
6.23258577e-05
6.10639994e-05
6.35875023e-05
6.3542879e-05
6.19249455e-05
6.16951203e-05
6.35774661e-05
6.35508426e-05
6.19709372e-05
6.20104208e-05
6.35630989e-05
6.35269947e-05
6.25719931e-05
6.22166166e-05
6.20298743e-05
6.15351184e-05
6.16648295e-05
6.35252436e-05
6.35529655e-05
6.3519983e-05
6.35706589e-05
6.35282362e-05
6.23351667e-05
6.09329158e-05
6.09493726e-05
6.35686614e-05
6.35644616e-05
6.23175783e-05
6.08451595e-05
6.10599765e-05
6.35409563e-05
6.35651815e-05
6.17981169e-05
6.18395124e-05
6.35758404e-05
6.23141197e-05
6.12830287e-05
6.35733971e-05
6.35179186e-05
6.35364129e-05
6.22080125e-05
6.14691779e-05
6.35364281e-05
6.34914425e-05
6.35271202e-05
6.35239442e-05
6.20498835e-05
6.10874282e-05
6.12896689e-05
6.35206515e-05
6.35111885e-05
6.23471462e-05
6.20782561e-05
6.13688104e-05
6.14506768e-05
6.34131841e-05
6.35427153e-05
6.33665734e-05
6.22438993e-05
6.10449612e-05
6.14070459e-05
6.34906839e-05
6.35897062e-05
6.19566233e-05
6.16620462e-05
6.35891252e-05
6.35923032e-05
6.23085731e-05
6.19681723e-05
6.36242921e-05
6.35805454e-05
6.23747354e-05
6.20551769e-05
6.20233219e-05
6.16830175e-05
6.16836537e-05
6.35930959e-05
6.35816239e-05
6.22910261e-05
6.18670967e-05
6.362482e-05
6.35638943e-05
6.23089113e-05
6.1443049e-05
6.15129702e-05
6.35922247e-05
6.3539915e-05
6.35907417e-05
6.35277868e-05
6.23205924e-05
6.16266203e-05
6.18354821e-05
6.11520558e-05
6.12031383e-05
6.35009206e-05
6.35069314e-05
6.34928905e-05
6.16055581e-05
6.10815171e-05
6.35467524e-05
6.34662373e-05
6.23450541e-05
6.06582416e-05
6.09419448e-05
6.34580578e-05
6.35160154e-05
6.3469964e-05
6.3525975e-05
6.16408487e-05
6.16484036e-05
6.35143637e-05
6.21519337e-05
6.07722812e-05
6.35257979e-05
6.33722879e-05
6.35029228e-05
6.30443395e-05
6.10841605e-05
6.11645207e-05
6.35197995e-05
6.23664332e-05
6.1504194e-05
6.35631765e-05
6.35132196e-05
6.25333534e-05
6.22871983e-05
6.11881576e-05
6.12710179e-05
6.35510431e-05
6.35056087e-05
6.35476802e-05
6.26170004e-05
6.20067712e-05
6.14022155e-05
6.17544249e-05
6.35522673e-05
6.22747872e-05
6.13758243e-05
6.36607549e-05
6.35208467e-05
6.22489108e-05
6.1482634e-05
6.22695298e-05
6.34335426e-05
6.35868848e-05
6.34940989e-05
6.14020245e-05
6.11005351e-05
6.3555843e-05
6.35020613e-05
6.17740333e-05
6.18135683e-05
6.35600586e-05
6.35417306e-05
6.35344957e-05
6.23604675e-05
6.19718608e-05
6.14141401e-05
6.15032039e-05
6.35570485e-05
6.23535988e-05
6.11431968e-05
6.35543922e-05
6.35123616e-05
6.16741188e-05
6.14209408e-05
6.35480239e-05
6.35135162e-05
6.35366774e-05
6.35201099e-05
6.23373059e-05
6.15245664e-05
6.1254026e-05
6.12489009e-05
6.35493193e-05
6.34910143e-05
6.23662324e-05
6.13371041e-05
6.13907726e-05
6.35435615e-05
6.34979604e-05
6.25447124e-05
6.13833773e-05
6.13900294e-05
6.35396625e-05
6.35620116e-05
6.20266107e-05
6.18889561e-05
6.35373875e-05
6.35608e-05
6.1863411e-05
6.19155633e-05
6.35607225e-05
6.35587638e-05
6.35193683e-05
6.23260094e-05
6.09706149e-05
6.14809844e-05
6.35319779e-05
6.21923212e-05
6.13018899e-05
6.35799024e-05
6.35368633e-05
6.35446315e-05
6.23169314e-05
6.13346226e-05
6.36114291e-05
6.35225666e-05
6.23050808e-05
6.1314471e-05
6.13983795e-05
6.35719437e-05
6.35456576e-05
6.23774503e-05
6.21458565e-05
6.15930838e-05
6.1670292e-05
6.35570026e-05
6.23344235e-05
6.14323851e-05
6.35600386e-05
6.3537511e-05
6.17423988e-05
6.17573013e-05
6.35479511e-05
6.35350955e-05
6.34983001e-05
6.23964585e-05
6.11785553e-05
6.12158772e-05
6.35563332e-05
6.3517048e-05
6.23368103e-05
6.13851833e-05
6.14203745e-05
6.3556956e-05
6.35037316e-05
6.23587744e-05
6.13887301e-05
6.14174623e-05
6.35385868e-05
6.3520248e-05
6.21804271e-05
6.1582525e-05
6.35440321e-05
6.3475157e-05
6.23491538e-05
6.09591082e-05
6.10709062e-05
6.3475674e-05
6.34847445e-05
6.34718432e-05
6.15449414e-05
6.09185973e-05
6.34957333e-05
6.34831738e-05
6.12824149e-05
6.13080375e-05
6.35002003e-05
6.34967698e-05
6.34773528e-05
6.19021584e-05
6.12081324e-05
6.35370447e-05
6.35000777e-05
6.1862016e-05
6.14066662e-05
6.35620173e-05
6.34945922e-05
6.2332033e-05
6.12861355e-05
6.13295274e-05
6.35297587e-05
6.35377037e-05
6.20246822e-05
6.15739503e-05
6.35474433e-05
6.3504936e-05
6.24658019e-05
6.13271183e-05
6.13487847e-05
6.3540709e-05
6.35641705e-05
6.19150516e-05
6.18797572e-05
6.35361066e-05
6.35596566e-05
6.25434914e-05
6.2340498e-05
6.15219548e-05
6.16713276e-05
6.35447633e-05
6.23410801e-05
6.16484608e-05
6.35602409e-05
6.35560871e-05
6.35269511e-05
6.23186412e-05
6.11044039e-05
6.15007019e-05
6.35413278e-05
6.23053751e-05
6.1384558e-05
6.35705184e-05
6.35637474e-05
6.21309715e-05
6.18330553e-05
6.35542616e-05
6.35830461e-05
6.21334547e-05
6.20748751e-05
6.35531488e-05
6.35813548e-05
6.24685944e-05
6.23231846e-05
6.15859668e-05
6.16299819e-05
6.35584074e-05
6.23367954e-05
6.15698805e-05
6.35729064e-05
6.35918532e-05
6.22190703e-05
6.19235991e-05
6.35768158e-05
6.35859843e-05
6.23130297e-05
6.21044656e-05
6.15614699e-05
6.15671351e-05
6.35427952e-05
6.35896899e-05
6.19819955e-05
6.19601374e-05
6.35272427e-05
6.23810699e-05
6.13982645e-05
6.35420637e-05
6.35742828e-05
6.2155824e-05
6.19176798e-05
6.35483333e-05
6.35729454e-05
6.23528369e-05
6.22124065e-05
6.15433566e-05
6.1550776e-05
6.35073376e-05
6.35659668e-05
6.1876334e-05
6.17527631e-05
6.34711968e-05
6.35248508e-05
6.34675034e-05
6.25730791e-05
6.13528598e-05
6.1357315e-05
6.3500566e-05
6.35265946e-05
)
;

boundaryField
{
    closed
    {
        type            calculated;
        value           nonuniform List<scalar> 0();
    }
    open
    {
        type            calculated;
        value           nonuniform List<scalar> 0();
    }
    sides
    {
        type            empty;
    }
    procBoundary2to1
    {
        type            processor;
        value           uniform 6.19362622e-05;
    }
    procBoundary2to3
    {
        type            processor;
        value           uniform 6.23397669e-05;
    }
}


// ************************************************************************* //
