/*--------------------------------*- C++ -*----------------------------------*\
| =========                 |                                                 |
| \\      /  F ield         | OpenFOAM: The Open Source CFD Toolbox           |
|  \\    /   O peration     | Version:  2306                                  |
|   \\  /    A nd           | Website:  www.openfoam.com                      |
|    \\/     M anipulation  |                                                 |
\*---------------------------------------------------------------------------*/
FoamFile
{
    version     2.0;
    format      ascii;
    arch        "LSB;label=32;scalar=64";
    class       volScalarField;
    location    "0.00196";
    object      h;
}
// * * * * * * * * * * * * * * * * * * * * * * * * * * * * * * * * * * * * * //

dimensions      [0 2 -2 0 0 0 0];

internalField   nonuniform List<scalar> 
531
(
9920.12203
-2230.01707
-7103.63332
-7004.00601
9271.8606
9937.42649
10170.83
10046.1793
-1112.51306
-4937.51965
-5622.96408
-5647.48444
8802.7227
10068.0119
-5312.9651
-5589.4676
8521.48475
10410.4216
9810.09932
-1749.75068
-7103.38444
-5831.60379
9274.54081
10350.7078
10259.0984
-2575.52041
-5094.17697
-5434.51004
-5700.83356
9083.74588
9985.09028
-1767.94187
-5633.09791
-3870.05313
9615.09527
10657.9777
10495.5472
-1988.04797
-3769.83329
9551.89922
10330.3868
-2183.13423
-4353.87817
-5701.84255
-5610.63116
8957.60677
10410.7372
9768.04795
-1935.16063
-5199.71492
9347.31769
10285.0667
-3371.45929
-3580.6189
8984.97322
-1847.7253
-6634.05658
9068.54979
9846.94382
9971.12376
9805.74049
-3112.02648
-7715.80022
-6620.66667
9210.80453
10349.5393
10263.3997
-2095.32442
-5156.49172
-5158.05968
9529.6459
10056.6646
-9.15275974
-6033.53519
-4168.25984
9319.61516
-1170.28839
-6105.76176
9464.55428
10074.6212
-2353.45264
-4782.74961
-5455.23111
-5478.45991
8990.1959
10150.1202
9850.76338
10202.5997
-3862.42848
-4483.5143
8935.68239
10558.2194
10027.0369
-1193.05466
-5364.20094
-5362.89536
9714.16849
10099.1798
308.489914
-5883.18433
-4021.11354
9351.08759
-862.674754
-6350.44561
9520.49248
9918.00701
-2575.16936
-6587.31235
-5758.39273
9416.51704
10436.4273
10309.1408
-1908.41731
-5132.30714
-4142.59295
-6149.30167
-6153.75
9225.66133
10150.6647
9960.53737
-4086.16903
-5270.82314
8890.70979
10311.8793
9684.53968
10522.894
10190.3335
-1946.84752
-5873.5579
-5873.80386
9374.88569
9732.31047
-3111.71327
-8355.74893
-7372.17484
9043.60265
9989.89401
9736.74899
-4515.58575
-6811.48193
9002.98768
9954.67423
10011.8463
10076.0883
-2687.21149
-5089.94535
-6014.37171
-5962.88963
9046.03548
10404.4577
9773.12419
-1590.83932
-5775.51047
-5506.38997
-5612.93476
8979.18593
10143.8568
9863.84247
10253.2389
4592.97656
-4337.48068
-4557.1183
-5524.76341
-5546.89774
9429.76837
10192.2005
10289.649
10264.4626
-1489.5885
-4388.89013
-5473.89507
-5522.00045
9103.23439
10071.1126
10044.8525
10091.8767
-2610.65955
-5121.90008
-5838.98049
-5827.74004
9178.33983
10096.0082
10151.7234
10175.2946
-1858.11605
-4520.208
-4992.59824
-5198.65342
9305.02893
10100.5987
-4460.37178
-5740.0297
9377.60578
10001.4189
-3922.21211
-6050.14485
9448.10876
9850.32362
-3710.89935
-7692.27625
-6931.69083
9301.78724
10147.2412
9877.38153
10471.8015
10281.4096
-1873.97326
-4063.33019
-4837.81805
-4841.44438
9401.41823
10232.1481
-4564.60846
-4766.5735
9329.71755
10570.3761
10186.1163
-487.730475
-5352.28206
-3643.6558
-6388.06921
-5139.93583
9404.35661
10490.5397
9892.06957
-2431.28035
-7672.82121
-6689.02082
9381.27413
9998.89547
9958.24738
10169.3202
-3776.16206
-4062.34179
9467.67653
-2871.58971
-5317.3589
9400.68115
10483.4429
9882.7044
-1860.42415
-5895.23898
-6068.1634
-6445.86685
9156.96009
9947.9284
9994.23661
10014.9256
-3010.23631
-5395.19522
-6010.00142
-5979.23866
9345.44686
10417.6255
9876.89681
-1817.54913
-6010.55465
-4793.9143
9833.9689
10297.3262
10430.4902
10318.4173
-472.03931
-4270.91379
-5260.37617
-5512.73696
9410.03415
9991.14202
-4869.47561
-6398.75281
9652.48255
9898.37563
-2958.04761
-6095.46106
-5269.59341
9630.73957
10242.6856
5780.72372
-4978.46626
-5048.70512
9599.13857
10279.433
10341.9976
10357.6955
1139.11224
-4092.9353
-5400.16207
-5415.99695
9384.90968
10047.1741
-5789.52454
-6434.61863
9276.02724
9637.89691
9822.43866
9713.75423
-4751.8447
-6930.42798
-5621.98624
-6904.99894
-6673.56577
9578.53392
10241.8951
9984.70415
-3137.83466
-5550.05844
10033.5582
10074.5354
-2658.30993
9764.45701
10525.0756
-3738.04876
-4298.40363
-6036.78622
-6031.51305
9562.22486
10199.9763
9947.84928
-3765.89691
-4598.36914
9627.83431
-3579.1871
-5883.43534
9549.17425
10373.3871
9794.33662
-2407.7481
-5660.72874
10123.8403
10145.6628
-3011.8396
-5532.27288
-5537.4234
9959.48443
10071.9187
-3251.87705
-5291.88079
10075.3424
10118.0163
-2877.94165
-5749.49306
-5691.06179
9946.03037
10108.1318
-4127.21835
-5100.02289
9755.5011
10215.5209
-4929.75385
-4912.68139
9546.31189
10346.3691
9831.22707
4097.65458
-6078.94361
-6055.46456
9936.00304
9981.51416
-3397.15591
-6258.90197
-6105.48079
9917.9744
10044.0854
-4091.2822
-5254.46508
9845.37059
10209.1636
-4297.01011
-4644.69228
9829.85274
10320.305
-4324.67788
-4163.05071
9845.6494
1403.93742
-6163.04813
10160.5716
9929.22524
-3581.55117
-7291.85108
-6194.01893
9552.73705
10185.4386
9897.38417
-3931.61608
-4665.68699
9634.52711
10618.1464
9910.89902
196.631051
-5645.2547
-5359.84073
10126.4652
10052.264
-2812.98314
-5681.4539
-5684.16122
10025.6549
9948.19433
-3019.95414
-6257.51888
-6250.32836
9898.37168
9775.21832
-3713.02178
-7598.69275
-7086.82705
9689.23592
9912.32894
10227.9287
10092.6365
-2322.31392
-4179.53187
10260.504
10456.7563
-2333.07441
-3041.5994
10350.2821
10634.2332
360.303565
-2912.09161
-3830.85283
-3834.02242
10004.9015
10407.5327
-3038.70403
-3883.02622
10163.5983
10375.9076
-2538.36021
-4136.74614
-5408.11709
-5419.1037
9561.79554
10076.959
-6046.09534
-6058.78813
9362.99016
10078.2528
9858.55368
10204.8397
-4332.65935
-4232.97659
9678.23094
-3373.08911
-5586.25411
9594.65578
10485.2941
9787.76742
-1194.04286
-7072.03633
-4878.27842
9598.90231
-3997.95253
-5786.53049
9488.6264
10467.6823
9731.22556
-1255.49812
-7170.27218
-5069.2842
9543.86395
-4321.41363
-6312.02498
9399.34545
10288.3811
9662.9998
-2821.7813
-5968.31784
9903.94105
10164.5533
-4410.66766
-4326.11181
9584.46952
10638.6314
9883.34757
15.5254416
-5214.67216
-5418.02909
-5561.41491
9460.53128
10089.9428
-5780.2744
-5699.53221
9411.11834
10399.1809
9700.33862
-2335.20432
-5666.7204
10111.5963
10153.6938
-2898.18396
-4413.31733
10148.3044
10306.5834
-2285.17102
-4131.93656
-4962.62827
-4961.32101
9689.88216
10204.6418
-4400.91398
-4880.22075
9779.4337
10263.7142
-3861.60526
-4356.94633
9932.80417
10364.2754
-3079.57291
-3834.21406
10157.1539
10414.2473
-1914.70039
-3761.07678
-4645.53983
-4698.28612
9769.10992
10146.7472
-3811.65465
-5535.02508
9946.10312
9950.07492
-3088.07259
-6756.00322
-6379.95627
9678.25643
10024.9504
-5449.28519
-5465.00779
9356.86154
)
;

boundaryField
{
    closed
    {
        type            lookUpEnthalpy;
        h0              nonuniform List<scalar> 0();
        value           nonuniform List<scalar> 0();
    }
    open
    {
        type            zeroGradient;
    }
    sides
    {
        type            empty;
    }
    procBoundary3to2
    {
        type            processor;
        value           uniform 10424.0311;
    }
    procBoundary3to4
    {
        type            processor;
        value           uniform 10317.4519;
    }
}


// ************************************************************************* //
