/*--------------------------------*- C++ -*----------------------------------*\
| =========                 |                                                 |
| \\      /  F ield         | OpenFOAM: The Open Source CFD Toolbox           |
|  \\    /   O peration     | Version:  2306                                  |
|   \\  /    A nd           | Website:  www.openfoam.com                      |
|    \\/     M anipulation  |                                                 |
\*---------------------------------------------------------------------------*/
FoamFile
{
    version     2.0;
    format      ascii;
    arch        "LSB;label=32;scalar=64";
    class       volScalarField;
    location    "0.00196";
    object      prefDh_T;
}
// * * * * * * * * * * * * * * * * * * * * * * * * * * * * * * * * * * * * * //

dimensions      [1 1 -3 -1 0 0 0];

internalField   nonuniform List<scalar> 
531
(
-0.000739359725
-0.000603090912
-0.000436099736
-0.000440970807
-0.000732287078
-0.000738664761
-0.000736233832
-0.00073979457
-0.00060204367
-0.000513176067
-0.000489196375
-0.00048875773
-0.000731594945
-0.000739830974
-0.000499986364
-0.000490998511
-0.000731667172
-0.000741337957
-0.000738819768
-0.000601425616
-0.000436466371
-0.000482815043
-0.000737494027
-0.000744220085
-0.000743139019
-0.00059046129
-0.000507977175
-0.000496488625
-0.00048735382
-0.000738725033
-0.000742907601
-0.000597194039
-0.000489257114
-0.000548795994
-0.000741999578
-0.000745841485
-0.000745300064
-0.000600397735
-0.000552310817
-0.000741244898
-0.000743874143
-0.000599288694
-0.000533077771
-0.000487359708
-0.000490293134
-0.000738637313
-0.000741555917
-0.000742039011
-0.000605749979
-0.00050433455
-0.000732242179
-0.000740754492
-0.000566594562
-0.000559146468
-0.000731009346
-0.000608261219
-0.000452576189
-0.00072832052
-0.000735850398
-0.000734417406
-0.000736885872
-0.000574010999
-0.000413710789
-0.000454835295
-0.000735203375
-0.00073946123
-0.000740376768
-0.000605254361
-0.000505394573
-0.000505793578
-0.000732461937
-0.000740222498
-0.000597272571
-0.000475073565
-0.000539237304
-0.000739531649
-0.000598847688
-0.000472878527
-0.000736283879
-0.000740823856
-0.000598612196
-0.000518538323
-0.000495428509
-0.000494750644
-0.000734363418
-0.000741007548
-0.000737733306
-0.000742731681
-0.000549495928
-0.000528665152
-0.0007364299
-0.000742120574
-0.000742858079
-0.000599077391
-0.000498552329
-0.000498825326
-0.000735376844
-0.000739618998
-0.000594372315
-0.000480255358
-0.000544040232
-0.000738166835
-0.000596623541
-0.00046394795
-0.000737354487
-0.000738275523
-0.00059077968
-0.000455064304
-0.000485549749
-0.000737488982
-0.000744365006
-0.000742774073
-0.000599777742
-0.000506520604
-0.000539989967
-0.000470917234
-0.000471632359
-0.000734027617
-0.000741835878
-0.000741265776
-0.000541948101
-0.00050201681
-0.000735526425
-0.000742549706
-0.000740051456
-0.000743951595
-0.000744896818
-0.00060007325
-0.00048054518
-0.000481569114
-0.000732159678
-0.000742682802
-0.000574338932
-0.00039160813
-0.000428467344
-0.000735811896
-0.000741267801
-0.000740244675
-0.000527591317
-0.000448083736
-0.000732732192
-0.000739297667
-0.00073821641
-0.000739876479
-0.000587381709
-0.000507964371
-0.000476367656
-0.000477937287
-0.000736490803
-0.000741172097
-0.000741784524
-0.00060063619
-0.000484387787
-0.000493703138
-0.000490175399
-0.000732688947
-0.000740212415
-0.000736598401
-0.000740649877
-0.000616937619
-0.000533555275
-0.000526209771
-0.000493080399
-0.000492548413
-0.000735980412
-0.000741858005
-0.000740201792
-0.000742517184
-0.000598667957
-0.000531890101
-0.000495044682
-0.000493485024
-0.000736030805
-0.000742537729
-0.000740609117
-0.000742707639
-0.000589807635
-0.000506949979
-0.000482361632
-0.000482715773
-0.000734827764
-0.000740103094
-0.000738595724
-0.00074031484
-0.000603865704
-0.000527485141
-0.000511316929
-0.000504259825
-0.000733021977
-0.000738719639
-0.000529523818
-0.000485435888
-0.000732409142
-0.00073838297
-0.000547768928
-0.000474369007
-0.000732238778
-0.000736497352
-0.000554622985
-0.000414598531
-0.000443768262
-0.000733164992
-0.00073919326
-0.000736508411
-0.000739854899
-0.000739715763
-0.000605097183
-0.000543042245
-0.000516625773
-0.000516548289
-0.000734835812
-0.000740983891
-0.000525971815
-0.000519126989
-0.000735229435
-0.000742234709
-0.0007407587
-0.000595589769
-0.000498907292
-0.000556391396
-0.000462531144
-0.000506534954
-0.000738875434
-0.000744047555
-0.000743291145
-0.000595181008
-0.000416389365
-0.000453854522
-0.000736191971
-0.000745712915
-0.000739201615
-0.000745223024
-0.000552392217
-0.000542777162
-0.000737761248
-0.00058214599
-0.000500195576
-0.000735620421
-0.000740074911
-0.000740182134
-0.000603469989
-0.00047980072
-0.000474299185
-0.000460778066
-0.000735090931
-0.000738823881
-0.000738963649
-0.000739563728
-0.00057739108
-0.000497314612
-0.000476347794
-0.000477137607
-0.000737884292
-0.000739238996
-0.000741233241
-0.000604320341
-0.000475799062
-0.000518186583
-0.000738645115
-0.000740524107
-0.000741157329
-0.000741588464
-0.000596191459
-0.000535874071
-0.000502390395
-0.000493776694
-0.000740509727
-0.000742979031
-0.00051566596
-0.000463010354
-0.000739746837
-0.000740552
-0.000578898444
-0.000472402437
-0.000501994508
-0.000733276445
-0.000739120796
-0.000638265342
-0.00051190698
-0.000509293112
-0.000738204843
-0.000738029178
-0.000741399477
-0.000739284632
-0.000593595143
-0.000541934141
-0.000497519945
-0.000496820615
-0.000738329858
-0.000736781891
-0.000484055895
-0.000460109064
-0.000736531244
-0.000735992344
-0.000738769067
-0.000739717521
-0.000519625493
-0.000441712286
-0.000489844685
-0.000442952591
-0.000453161447
-0.000736548705
-0.000740775809
-0.00074131928
-0.000573210822
-0.000492162354
-0.000741760785
-0.000738745109
-0.000588109791
-0.000739010458
-0.00074466181
-0.000553478918
-0.00053486591
-0.000475772877
-0.000476017798
-0.000742042449
-0.000743244463
-0.000743941861
-0.000552330503
-0.000524806729
-0.000744483505
-0.000558708647
-0.00048111257
-0.000741768934
-0.000742790178
-0.000743845175
-0.000596700304
-0.00048850133
-0.000741276057
-0.000740395245
-0.000577164203
-0.000492687178
-0.000493005073
-0.000739388715
-0.000743279515
-0.000569645739
-0.000501158451
-0.000740987046
-0.00073956315
-0.000581522024
-0.000484839078
-0.000487754655
-0.000737226054
-0.000742926595
-0.00054080335
-0.000507760453
-0.000738216691
-0.000739870257
-0.000513531668
-0.00051409109
-0.000738993993
-0.000738368444
-0.000739764905
-0.000609925143
-0.000474060262
-0.000474737432
-0.000740506619
-0.00073997184
-0.000564629453
-0.00046701339
-0.000473553712
-0.000737817425
-0.000743823702
-0.000541982994
-0.00050257115
-0.000739306812
-0.000742271757
-0.000534993466
-0.000523248674
-0.000741213241
-0.000741705564
-0.000533978188
-0.000539472683
-0.000743848219
-0.000594716438
-0.000471508224
-0.000741688256
-0.000742642117
-0.000558639079
-0.000430873819
-0.000470221169
-0.000740750182
-0.000740858028
-0.000741572696
-0.000547153936
-0.000522538732
-0.000742208516
-0.000740499893
-0.000742406119
-0.000595413959
-0.000488959919
-0.000499022347
-0.000741409458
-0.000742614281
-0.000583714825
-0.000487589994
-0.000487972498
-0.000740624168
-0.000743178064
-0.000577100942
-0.000467532922
-0.000468442845
-0.000740079968
-0.000743185537
-0.000554279614
-0.000420232293
-0.000439441116
-0.00074135182
-0.000744177926
-0.000742108022
-0.000744932235
-0.000599670633
-0.00053887517
-0.000743528752
-0.000742577997
-0.000599054516
-0.00057681169
-0.000744946814
-0.000741286978
-0.000593315846
-0.000580893822
-0.000550482123
-0.000550286221
-0.000742350924
-0.000743294015
-0.000576622598
-0.00054884114
-0.000741996638
-0.000741319068
-0.000592875324
-0.000540474387
-0.000497208186
-0.000496831846
-0.000741602251
-0.000741643298
-0.000475374438
-0.000475014502
-0.000742051061
-0.000742904832
-0.000742356722
-0.00074374839
-0.000533686531
-0.000537065932
-0.000744641315
-0.000565479157
-0.000491209192
-0.000743193676
-0.000741771825
-0.000743744911
-0.000599673035
-0.000438711689
-0.000515357821
-0.000742163259
-0.000544867603
-0.000484074385
-0.000741813542
-0.000739983412
-0.000742095263
-0.000601472003
-0.000434740578
-0.000508863447
-0.000741017404
-0.00053407904
-0.000465673964
-0.000742202353
-0.000739905289
-0.00074285031
-0.000583802948
-0.000477680438
-0.000740412038
-0.00074029306
-0.00053115245
-0.000534034534
-0.000741423181
-0.000740730642
-0.000741287391
-0.000595871447
-0.00050377221
-0.00049695811
-0.000492001273
-0.000742300766
-0.000741962998
-0.00048465851
-0.000487365702
-0.000743636858
-0.000743186958
-0.000744022468
-0.000598681395
-0.000488274374
-0.000744382138
-0.00074164461
-0.00058058763
-0.000531093791
-0.000744564027
-0.000741336126
-0.0006004153
-0.00054061064
-0.000512498095
-0.000512529228
-0.000742494479
-0.000743028793
-0.000531440836
-0.000515289593
-0.000742081315
-0.000743003162
-0.000549453599
-0.000532934627
-0.000742434055
-0.000742049151
-0.000575187887
-0.000550557442
-0.000742934537
-0.000740587424
-0.000602613632
-0.000553177043
-0.00052321911
-0.000521428996
-0.000741889355
-0.000740233305
-0.000551061237
-0.00049255581
-0.000742204397
-0.000738077968
-0.000574631493
-0.000448728445
-0.000464094107
-0.000736483143
-0.000743371895
-0.000495572586
-0.000495425379
-0.000740148544
)
;

boundaryField
{
    closed
    {
        type            calculated;
        value           nonuniform List<scalar> 0();
    }
    open
    {
        type            calculated;
        value           nonuniform List<scalar> 0();
    }
    sides
    {
        type            empty;
    }
    procBoundary3to2
    {
        type            processor;
        value           uniform -0.000738729061;
    }
    procBoundary3to4
    {
        type            processor;
        value           uniform -0.000742011975;
    }
}


// ************************************************************************* //
