/*--------------------------------*- C++ -*----------------------------------*\
| =========                 |                                                 |
| \\      /  F ield         | OpenFOAM: The Open Source CFD Toolbox           |
|  \\    /   O peration     | Version:  2306                                  |
|   \\  /    A nd           | Website:  www.openfoam.com                      |
|    \\/     M anipulation  |                                                 |
\*---------------------------------------------------------------------------*/
FoamFile
{
    version     2.0;
    format      ascii;
    arch        "LSB;label=32;scalar=64";
    class       volScalarField;
    location    "0.00192";
    object      T;
}
// * * * * * * * * * * * * * * * * * * * * * * * * * * * * * * * * * * * * * //

dimensions      [0 0 0 1 0 0 0];

internalField   nonuniform List<scalar> 
530
(
368.417558
336.096164
329.76472
329.590352
329.574333
329.57343
329.573357
329.573353
329.573353
329.573353
329.573353
329.573353
329.573353
329.573353
329.573353
329.573353
329.573353
329.573353
329.573353
329.573353
329.573353
329.573353
329.573353
329.573353
329.573353
329.573353
329.573353
329.573353
329.573353
329.573353
329.573353
329.573353
329.573353
329.573353
329.573353
329.573353
329.573353
329.573353
329.573353
329.573353
329.573353
329.573353
329.573353
329.573353
329.573353
329.573353
329.573353
329.573353
329.573353
329.573353
329.573353
329.573353
329.573353
329.573353
329.573353
329.573353
329.573353
329.573353
329.573353
329.573353
329.573354
329.573356
329.573362
329.573374
329.573392
329.573465
329.573521
329.573778
329.574037
329.574925
329.57552
329.577288
329.579595
329.582736
329.585076
329.591471
329.599665
329.610676
329.621876
329.634842
329.640201
329.590017
329.653778
329.998648
330.063054
329.486988
329.276937
328.908766
333.065257
340.39986
339.787378
328.900303
325.617926
325.9243
325.931399
324.23922
328.943598
340.100144
340.204982
340.165372
339.980851
340.199106
340.205424
329.077084
323.617697
325.364001
324.252972
324.038436
324.578202
322.174945
326.38259
339.682915
339.986013
339.977679
339.850164
339.959026
340.0336
328.886556
322.354891
323.970554
323.35306
320.925742
324.638966
339.485707
340.251111
339.816121
340.233037
339.768359
340.157131
340.133724
327.258856
323.19445
324.596607
324.632109
323.816541
326.425757
339.684499
340.332242
328.950035
325.836863
325.579989
328.54585
339.787938
340.149289
340.27694
340.34716
328.636496
322.040882
326.500613
339.605925
340.431642
328.754884
323.263386
326.914007
339.588569
340.623823
328.958396
329.124178
339.322021
340.393582
328.768856
324.753743
328.685707
339.746458
340.453827
328.679532
324.845003
328.714254
339.456472
340.533292
340.566701
328.704758
325.405427
328.852007
339.627428
340.50615
328.858959
325.322583
328.998592
339.466608
340.428578
328.989054
325.298249
325.791665
325.275021
323.28872
324.612035
339.281917
340.501779
327.751939
326.742892
338.667648
339.977775
340.039548
329.117641
327.318065
338.570785
339.88561
339.909095
328.951755
322.337683
323.605573
324.247012
339.28874
340.217968
328.58154
326.057193
338.655351
340.213266
328.484472
326.237258
338.633706
340.234651
328.598836
326.355541
338.633601
340.263382
328.788498
326.924617
338.662714
339.94549
327.715062
321.139365
324.57826
339.075432
340.445484
328.847528
326.43531
338.570056
339.948963
327.424346
320.529572
323.997743
338.999247
340.397157
328.282131
325.156418
338.39905
340.248872
327.924955
325.126862
338.389016
340.20142
327.957694
325.239446
338.39194
340.219142
328.173209
325.476818
338.38809
340.247013
328.527657
326.313597
338.424037
339.900081
328.0805
321.360909
324.809749
338.918255
340.475211
328.925083
325.463387
338.13665
340.333077
329.241457
326.560379
338.180221
339.946835
328.822649
322.10024
326.106108
338.816155
340.567147
329.243277
326.33272
337.904912
340.022339
328.828289
321.833785
326.220873
338.658281
340.514638
329.300804
325.981098
337.289664
340.332038
329.464194
326.715952
336.960914
340.032327
327.982789
322.077763
335.909415
339.770689
329.204939
326.139684
329.199916
339.03082
340.234296
328.95096
322.138741
322.392548
322.282803
331.979312
339.520684
329.537138
325.411006
334.51022
339.78795
339.813582
328.518209
320.724017
328.48796
338.502994
340.328909
329.024579
323.541116
328.969266
338.851605
340.3527
328.989439
323.904054
328.663602
338.90384
340.315989
329.064528
324.098313
326.913613
338.923973
340.214761
329.423109
325.981326
328.656857
339.189679
340.009902
329.123194
321.365513
322.077919
338.604145
340.126738
329.788545
325.205851
334.538771
339.965057
339.716418
328.797967
321.300003
326.267578
339.075228
340.088885
329.277513
324.549008
327.911815
339.703396
340.287025
329.015656
323.924825
327.593366
339.827443
340.2661
329.0477
323.984019
327.695894
339.759777
339.949331
329.235838
319.756787
320.711049
338.565438
340.062424
329.890793
327.31003
339.449604
339.871272
329.347036
322.690611
324.988448
339.705
340.537082
329.664237
327.539607
339.896689
340.038434
329.24914
323.120589
325.252422
339.794208
340.510239
329.632616
327.135002
340.086311
340.052413
329.188189
323.100151
325.838689
339.913221
340.559784
329.115169
326.828459
340.299956
340.12535
329.092293
323.869745
327.915264
340.243683
340.235454
329.026907
324.104031
328.077587
340.346151
340.175966
329.016933
323.03357
327.234557
340.303754
339.969509
329.05001
321.36695
325.045557
340.223871
340.179578
325.61375
324.574058
340.284861
339.849243
326.080972
326.033607
340.283389
339.70757
327.344665
327.920336
340.49589
339.684654
328.716492
323.022257
327.343825
340.26251
339.964533
327.507279
327.591016
340.538103
339.915078
329.113626
328.963352
340.52425
339.953112
329.040292
326.368387
326.267866
329.081594
340.576222
339.782063
328.81177
325.285895
326.271298
323.411941
326.626156
340.298236
339.815538
326.669841
328.09723
340.514353
339.788204
327.079285
322.88524
328.003715
340.195891
339.798984
326.701257
327.853488
340.41875
339.959235
327.076966
328.866817
340.471874
339.923816
327.755723
329.349268
340.65465
339.839513
328.406132
323.778655
328.804191
340.372934
340.176252
327.451114
323.010523
328.895837
340.42599
340.120002
327.099669
322.759782
328.929753
340.355886
340.091862
326.788726
322.348929
328.508173
340.289266
340.194864
327.187234
329.092527
340.630352
339.949583
327.20362
322.786855
328.966156
340.225294
340.302876
327.484977
329.304792
340.622687
340.063843
327.696799
323.194323
329.030211
340.385343
340.107014
327.637785
322.331145
328.698634
339.943476
340.559547
339.85984
328.758114
324.439081
325.562159
322.375748
327.158804
339.921865
)
;

boundaryField
{
    closed
    {
        type            fixedValue;
        value           uniform 400;
    }
    open
    {
        type            zeroGradient;
    }
    sides
    {
        type            empty;
    }
    procBoundary0to1
    {
        type            processor;
        value           uniform 340.527929;
    }
}


// ************************************************************************* //
