/*--------------------------------*- C++ -*----------------------------------*\
| =========                 |                                                 |
| \\      /  F ield         | OpenFOAM: The Open Source CFD Toolbox           |
|  \\    /   O peration     | Version:  2306                                  |
|   \\  /    A nd           | Website:  www.openfoam.com                      |
|    \\/     M anipulation  |                                                 |
\*---------------------------------------------------------------------------*/
FoamFile
{
    version     2.0;
    format      ascii;
    arch        "LSB;label=32;scalar=64";
    class       volVectorField;
    location    "0.001";
    object      U;
}
// * * * * * * * * * * * * * * * * * * * * * * * * * * * * * * * * * * * * * //

dimensions      [0 1 -1 0 0 0 0];

internalField   nonuniform List<vector> 
531
(
(-0.116187253 0 0)
(-0.0786757841 0 0)
(-0.0240952292 0 0)
(0.0595351235 0 0)
(0.124198258 0 0)
(0.16909363 0 0)
(0.224719263 0 0)
(0.301659317 0 0)
(0.409453381 0 0)
(0.499446312 0 0)
(0.573005611 0 0)
(0.66101341 0 0)
(0.773893287 0 0)
(0.915899422 0 0)
(1.02342389 0 0)
(1.11861635 0 0)
(1.28478834 0 0)
(1.4566157 0 0)
(1.58482907 0 0)
(1.71196483 0 0)
(1.86901803 0 0)
(2.0590058 0 0)
(2.22085887 0 0)
(2.28998374 0 0)
(2.38591744 0 0)
(2.56795451 0 0)
(2.71195646 0 0)
(2.881856 0 0)
(3.10287692 0 0)
(3.32994756 0 0)
(3.61944948 0 0)
(3.84645289 0 0)
(4.05353619 0 0)
(4.31458871 0 0)
(4.41925641 0 0)
(4.54598971 0 0)
(4.68126934 0 0)
(4.5946015 0 0)
(4.52189697 0 0)
(4.4143981 0 0)
(4.30920502 0 0)
(4.20019049 0 0)
(3.9620457 0 0)
(3.79858034 0 0)
(3.64857279 0 0)
(3.39477314 0 0)
(3.12398511 0 0)
(2.89559259 0 0)
(2.65893048 0 0)
(2.30997545 0 0)
(1.97400839 0 0)
(1.68212064 0 0)
(1.37039384 0 0)
(1.0426183 0 0)
(0.713306415 0 0)
(0.41379986 0 0)
(0.09303597 0 0)
(-0.209780983 0 0)
(-0.528425713 0 0)
(-0.824109621 0 0)
(-1.0907489 0 0)
(-1.33279779 0 0)
(-1.56751674 0 0)
(-1.76725882 0 0)
(-1.95168949 0 0)
(-2.13484459 0 0)
(-2.38853016 0 0)
(-2.54432567 0 0)
(-2.66410295 0 0)
(-2.77217343 0 0)
(-2.94645779 0 0)
(-3.1790428 0 0)
(-3.24092256 0 0)
(-3.36111281 0 0)
(-3.56696158 0 0)
(-3.77785259 0 0)
(-3.82609114 0 0)
(-3.84294765 0 0)
(-4.01119582 0 0)
(-3.96349408 0 0)
(-3.89597267 0 0)
(-3.78534243 0 0)
(-3.75100801 0 0)
(-3.64944129 0 0)
(-3.55674511 0 0)
(-3.38131652 0 0)
(-3.33353159 0 0)
(-3.31487867 0 0)
(-3.1618429 0 0)
(-3.07761988 0 0)
(-3.00878331 0 0)
(-2.93919856 0 0)
(-2.78006737 0 0)
(-2.65190117 0 0)
(-2.57294089 0 0)
(-2.565667 0 0)
(-2.57310454 0 0)
(-2.51669311 0 0)
(-2.47205805 0 0)
(-2.41341057 0 0)
(-2.33375412 0 0)
(-2.19892313 0 0)
(-2.0965439 0 0)
(-2.03129438 0 0)
(-2.00834069 0 0)
(-1.98791847 0 0)
(-1.92153464 0 0)
(-1.85884449 0 0)
(-1.76454242 0 0)
(-1.66059749 0 0)
(-1.53008779 0 0)
(-1.43301652 0 0)
(-1.36509471 0 0)
(-1.31974979 0 0)
(-1.26289384 0 0)
(-1.21595745 0 0)
(-1.20387886 0 0)
(-1.16117778 0 0)
(-1.12257611 0 0)
(-1.05698911 0 0)
(-1.00223866 0 0)
(-0.982495287 0 0)
(-0.93237126 0 0)
(-0.886197485 0 0)
(-0.821799917 0 0)
(-0.776862091 0 0)
(-0.772049637 0 0)
(-0.737073743 0 0)
(-0.699066384 0 0)
(-0.64314112 0 0)
(-0.607537874 0 0)
(-0.610039285 0 0)
(-0.583666061 0 0)
(-0.550155641 0 0)
(-0.498737333 0 0)
(-0.471399255 0 0)
(-0.481184473 0 0)
(-0.464203469 0 0)
(-0.428680915 0 0)
(-0.379216539 0 0)
(-0.336045316 0 0)
(-0.334808741 0 0)
(-0.28069295 0 0)
(-0.214020926 0 0)
(-0.18420144 0 0)
(-0.185263833 0 0)
(-0.159627535 0 0)
(-0.117084398 0 0)
(-0.0261052632 0 0)
(0.0503527992 0 0)
(0.0710116357 0 0)
(0.131929851 0 0)
(0.198448774 0 0)
(0.249170053 0 0)
(0.256879552 0 0)
(0.292757205 0 0)
(0.329724395 0 0)
(0.375456618 0 0)
(0.400576781 0 0)
(0.389638107 0 0)
(0.394369985 0 0)
(0.399578344 0 0)
(0.412021358 0 0)
(0.430401426 0 0)
(0.427350821 0 0)
(0.392712903 0 0)
(0.382769367 0 0)
(0.374361762 0 0)
(0.382671147 0 0)
(0.369306996 0 0)
(0.299232386 0 0)
(0.277976288 0 0)
(0.266555837 0 0)
(0.231458731 0 0)
(0.176737385 0 0)
(0.141325715 0 0)
(0.103933761 0 0)
(0.0785515953 0 0)
(0.0464755049 0 0)
(-0.0385914963 0 0)
(-0.0814104782 0 0)
(-0.0990735253 0 0)
(-0.136556643 0 0)
(-0.186417181 0 0)
(-0.236594452 0 0)
(-0.29847967 0 0)
(-0.336324256 0 0)
(-0.367995506 0 0)
(-0.461224186 0 0)
(-0.506556178 0 0)
(-0.531260232 0 0)
(-0.586065744 0 0)
(-0.636001286 0 0)
(-0.700467692 0 0)
(-0.746003707 0 0)
(-0.780890969 0 0)
(-0.831013674 0 0)
(-0.871124795 0 0)
(-0.917881932 0 0)
(-0.95869433 0 0)
(-0.988006519 0 0)
(-1.02842717 0 0)
(-1.06018829 0 0)
(-1.11650356 0 0)
(-1.20749369 0 0)
(-1.26979823 0 0)
(-1.28437525 0 0)
(-1.30567142 0 0)
(-1.32386434 0 0)
(-1.34697503 0 0)
(-1.41800271 0 0)
(-1.47501988 0 0)
(-1.48220132 0 0)
(-1.49920673 0 0)
(-1.52215762 0 0)
(-1.51124364 0 0)
(-1.49591593 0 0)
(-1.49023352 0 0)
(-1.4884061 0 0)
(-1.48813831 0 0)
(-1.53987659 0 0)
(-1.58314075 0 0)
(-1.54832183 0 0)
(-1.53803064 0 0)
(-1.50875813 0 0)
(-1.48141367 0 0)
(-1.47111457 0 0)
(-1.44657514 0 0)
(-1.43640243 0 0)
(-1.4597098 0 0)
(-1.44885641 0 0)
(-1.40180689 0 0)
(-1.35996745 0 0)
(-1.34769089 0 0)
(-1.34242123 0 0)
(-1.30796024 0 0)
(-1.25984629 0 0)
(-1.21794286 0 0)
(-1.18994689 0 0)
(-1.12822118 0 0)
(-1.06575001 0 0)
(-1.03073421 0 0)
(-1.00323949 0 0)
(-0.972581466 0 0)
(-0.956516132 0 0)
(-0.952013883 0 0)
(-0.935261823 0 0)
(-0.915997395 0 0)
(-0.880998853 0 0)
(-0.86131081 0 0)
(-0.859800629 0 0)
(-0.852343909 0 0)
(-0.841627788 0 0)
(-0.836770147 0 0)
(-0.822461185 0 0)
(-0.804784924 0 0)
(-0.80406698 0 0)
(-0.792987063 0 0)
(-0.767093233 0 0)
(-0.754867165 0 0)
(-0.738993614 0 0)
(-0.72258675 0 0)
(-0.726476726 0 0)
(-0.71409431 0 0)
(-0.705224669 0 0)
(-0.703079279 0 0)
(-0.708192921 0 0)
(-0.697271078 0 0)
(-0.686468715 0 0)
(-0.671160951 0 0)
(-0.661469429 0 0)
(-0.672206392 0 0)
(-0.676696434 0 0)
(-0.672224034 0 0)
(-0.658956704 0 0)
(-0.640229254 0 0)
(-0.646340465 0 0)
(-0.652089609 0 0)
(-0.654429763 0 0)
(-0.664591107 0 0)
(-0.66272554 0 0)
(-0.668162448 0 0)
(-0.697920162 0 0)
(-0.671569658 0 0)
(-0.61244343 0 0)
(-0.594390375 0 0)
(-0.593164949 0 0)
(-0.595552866 0 0)
(-0.596636098 0 0)
(-0.599364131 0 0)
(-0.604979866 0 0)
(-0.621911842 0 0)
(-0.590998491 0 0)
(-0.543889383 0 0)
(-0.545151248 0 0)
(-0.557575249 0 0)
(-0.569624095 0 0)
(-0.535235703 0 0)
(-0.486591398 0 0)
(-0.483094386 0 0)
(-0.495697678 0 0)
(-0.511766338 0 0)
(-0.468642808 0 0)
(-0.406356816 0 0)
(-0.395007904 0 0)
(-0.396711273 0 0)
(-0.403636038 0 0)
(-0.399129063 0 0)
(-0.375448322 0 0)
(-0.384680541 0 0)
(-0.422351925 0 0)
(-0.388376349 0 0)
(-0.32971628 0 0)
(-0.318375065 0 0)
(-0.321351766 0 0)
(-0.331156587 0 0)
(-0.326563864 0 0)
(-0.304961913 0 0)
(-0.313911721 0 0)
(-0.35683783 0 0)
(-0.303408618 0 0)
(-0.227871535 0 0)
(-0.216270456 0 0)
(-0.203665779 0 0)
(-0.199273172 0 0)
(-0.185248849 0 0)
(-0.15534031 0 0)
(-0.145749807 0 0)
(-0.163026994 0 0)
(-0.141402664 0 0)
(-0.100163146 0 0)
(-0.0826477917 0 0)
(-0.0756917776 0 0)
(-0.0500430746 0 0)
(-0.0369511703 0 0)
(-0.00751483439 0 0)
(0.0194711962 0 0)
(-0.00238075927 0 0)
(0.0230966029 0 0)
(0.0658032159 0 0)
(0.078714863 0 0)
(0.0885012028 0 0)
(0.105062464 0 0)
(0.12294425 0 0)
(0.148542598 0 0)
(0.166310748 0 0)
(0.153812129 0 0)
(0.166606956 0 0)
(0.192441906 0 0)
(0.20170951 0 0)
(0.204132556 0 0)
(0.215944295 0 0)
(0.231151675 0 0)
(0.245022109 0 0)
(0.254859834 0 0)
(0.257614994 0 0)
(0.265795029 0 0)
(0.273803406 0 0)
(0.289552886 0 0)
(0.300538416 0 0)
(0.287188651 0 0)
(0.279786533 0 0)
(0.286541172 0 0)
(0.295672359 0 0)
(0.30358748 0 0)
(0.30848622 0 0)
(0.312261889 0 0)
(0.32400334 0 0)
(0.333041113 0 0)
(0.319718716 0 0)
(0.305039838 0 0)
(0.305366164 0 0)
(0.314966997 0 0)
(0.32082351 0 0)
(0.319587387 0 0)
(0.311969656 0 0)
(0.322524197 0 0)
(0.342541332 0 0)
(0.341326447 0 0)
(0.338302477 0 0)
(0.329532735 0 0)
(0.341966719 0 0)
(0.362915832 0 0)
(0.358679427 0 0)
(0.351436657 0 0)
(0.339257364 0 0)
(0.362942766 0 0)
(0.38788776 0 0)
(0.373809592 0 0)
(0.365271005 0 0)
(0.353609381 0 0)
(0.382482629 0 0)
(0.410647843 0 0)
(0.397323162 0 0)
(0.383267758 0 0)
(0.370335681 0 0)
(0.369116718 0 0)
(0.36621981 0 0)
(0.361021525 0 0)
(0.361504885 0 0)
(0.360692313 0 0)
(0.3519104 0 0)
(0.345836613 0 0)
(0.360224338 0 0)
(0.374314245 0 0)
(0.350026599 0 0)
(0.360016499 0 0)
(0.376375721 0 0)
(0.365169075 0 0)
(0.361010449 0 0)
(0.37437859 0 0)
(0.389623715 0 0)
(0.384767021 0 0)
(0.39028316 0 0)
(0.389291765 0 0)
(0.404317452 0 0)
(0.419166491 0 0)
(0.420327546 0 0)
(0.432498062 0 0)
(0.449644862 0 0)
(0.457680798 0 0)
(0.466630496 0 0)
(0.474376311 0 0)
(0.508417918 0 0)
(0.527171177 0 0)
(0.525082769 0 0)
(0.541848646 0 0)
(0.546727701 0 0)
(0.577718138 0 0)
(0.605652688 0 0)
(0.617462858 0 0)
(0.626160519 0 0)
(0.682744566 0 0)
(0.733068226 0 0)
(0.737753573 0 0)
(0.772584724 0 0)
(0.777752548 0 0)
(0.836954228 0 0)
(0.893067929 0 0)
(0.903058277 0 0)
(0.947148468 0 0)
(0.985112723 0 0)
(1.04469683 0 0)
(1.13124808 0 0)
(1.21814739 0 0)
(1.27339161 0 0)
(1.33542391 0 0)
(1.4080791 0 0)
(1.49511778 0 0)
(1.58454285 0 0)
(1.67433982 0 0)
(1.75077103 0 0)
(1.84085543 0 0)
(1.9349449 0 0)
(2.04162259 0 0)
(2.14476357 0 0)
(2.18766183 0 0)
(2.27956851 0 0)
(2.37364407 0 0)
(2.39183246 0 0)
(2.44434392 0 0)
(2.55302478 0 0)
(2.59533786 0 0)
(2.6248341 0 0)
(2.71513063 0 0)
(2.78605183 0 0)
(2.89080253 0 0)
(2.99331774 0 0)
(3.04763584 0 0)
(3.17169566 0 0)
(3.29198141 0 0)
(3.38301787 0 0)
(3.4561039 0 0)
(3.61096717 0 0)
(3.71291843 0 0)
(3.71476449 0 0)
(3.78332609 0 0)
(3.84079902 0 0)
(3.92301303 0 0)
(4.01638339 0 0)
(3.98971964 0 0)
(4.05275807 0 0)
(4.13410095 0 0)
(4.11936276 0 0)
(4.08259543 0 0)
(4.10962493 0 0)
(4.1177096 0 0)
(4.11576684 0 0)
(4.12336484 0 0)
(4.04428983 0 0)
(4.0360694 0 0)
(4.0385767 0 0)
(3.97098542 0 0)
(3.88014307 0 0)
(3.85152313 0 0)
(3.82886211 0 0)
(3.72856577 0 0)
(3.63095221 0 0)
(3.59118324 0 0)
(3.51239964 0 0)
(3.41572796 0 0)
(3.32901107 0 0)
(3.21440436 0 0)
(3.14497783 0 0)
(3.05220773 0 0)
(2.94126499 0 0)
(2.84517377 0 0)
(2.74503828 0 0)
(2.67770883 0 0)
(2.63344114 0 0)
(2.51871869 0 0)
(2.36009064 0 0)
(2.25499803 0 0)
(2.17780162 0 0)
(2.12424305 0 0)
(2.00944912 0 0)
(1.85167116 0 0)
(1.74749368 0 0)
(1.66433539 0 0)
(1.59654547 0 0)
(1.46646158 0 0)
(1.29145532 0 0)
(1.16923631 0 0)
(1.06371809 0 0)
(0.975909679 0 0)
(0.840519556 0 0)
(0.670267938 0 0)
(0.555959482 0 0)
(0.451994006 0 0)
(0.36503924 0 0)
(0.241514294 0 0)
)
;

boundaryField
{
    closed
    {
        type            noSlip;
    }
    open
    {
        type            inletOutlet;
        inletValue      nonuniform List<vector> 0();
        value           nonuniform List<vector> 0();
    }
    sides
    {
        type            empty;
    }
    procBoundary1to0
    {
        type            processor;
        value           uniform (-0.143181239 0 0);
    }
    procBoundary1to2
    {
        type            processor;
        value           uniform (0.0900379541 0 0);
    }
}


// ************************************************************************* //
