/*--------------------------------*- C++ -*----------------------------------*\
| =========                 |                                                 |
| \\      /  F ield         | OpenFOAM: The Open Source CFD Toolbox           |
|  \\    /   O peration     | Version:  2306                                  |
|   \\  /    A nd           | Website:  www.openfoam.com                      |
|    \\/     M anipulation  |                                                 |
\*---------------------------------------------------------------------------*/
FoamFile
{
    version     2.0;
    format      ascii;
    arch        "LSB;label=32;scalar=64";
    class       volScalarField;
    location    "0.00024";
    object      alpha;
}
// * * * * * * * * * * * * * * * * * * * * * * * * * * * * * * * * * * * * * //

dimensions      [1 -1 -1 0 0 0 0];

internalField   nonuniform List<scalar> 
531
(
3.5834589e-05
3.58393389e-05
3.58353743e-05
3.58297756e-05
3.58311417e-05
3.5836793e-05
3.58366259e-05
3.58324878e-05
3.58317768e-05
3.58341522e-05
3.58353642e-05
3.5834238e-05
3.58329898e-05
3.58332706e-05
3.58343536e-05
3.5834354e-05
3.58339415e-05
3.58336008e-05
3.5833603e-05
3.58339149e-05
3.58342671e-05
3.58340867e-05
3.58334245e-05
3.58334845e-05
3.58344399e-05
3.5834442e-05
3.5833324e-05
3.58331821e-05
3.58343954e-05
3.58347317e-05
3.58335276e-05
3.58329575e-05
3.58339986e-05
3.58348197e-05
3.58341052e-05
3.58330924e-05
3.58333098e-05
3.58343998e-05
3.58344935e-05
3.58340757e-05
3.58333562e-05
3.58332199e-05
3.58339913e-05
3.58348739e-05
3.58343564e-05
3.58327234e-05
3.58328879e-05
3.58350527e-05
3.58351345e-05
3.5833033e-05
3.58325812e-05
3.58343565e-05
3.58351283e-05
3.58338012e-05
3.58328105e-05
3.58336184e-05
3.58347499e-05
3.58345029e-05
3.58332815e-05
3.5833211e-05
3.58339436e-05
3.5834529e-05
3.58343709e-05
3.58334007e-05
3.5833125e-05
3.58339183e-05
3.58347993e-05
3.58344732e-05
3.58329543e-05
3.58329605e-05
3.5834422e-05
3.58349491e-05
3.58339065e-05
3.58328852e-05
3.58333963e-05
3.58347071e-05
3.58345906e-05
3.58332984e-05
3.58332532e-05
3.58342838e-05
3.58344471e-05
3.58334949e-05
3.58332642e-05
3.58343605e-05
3.58347692e-05
3.58334483e-05
3.5832622e-05
3.58339989e-05
3.58355268e-05
3.58344578e-05
3.58320766e-05
3.58324315e-05
3.58356199e-05
3.58357961e-05
3.58329188e-05
3.5831823e-05
3.58339279e-05
3.58358976e-05
3.5834709e-05
3.58321334e-05
3.58324679e-05
3.58353046e-05
3.5835376e-05
3.58330972e-05
3.58325145e-05
3.58341465e-05
3.5835072e-05
3.58340308e-05
3.5832959e-05
3.58334783e-05
3.58345285e-05
3.58344031e-05
3.58335447e-05
3.58335153e-05
3.58338938e-05
3.58340377e-05
3.58339945e-05
3.58339813e-05
3.58338713e-05
3.58336534e-05
3.58337023e-05
3.58341381e-05
3.58341873e-05
3.58337738e-05
3.58335634e-05
3.58338422e-05
3.58341618e-05
3.5834016e-05
3.58336895e-05
3.5833763e-05
3.58340423e-05
3.583399e-05
3.58336925e-05
3.58337201e-05
3.58341788e-05
3.58342112e-05
3.58336021e-05
3.58333157e-05
3.58339332e-05
3.58347193e-05
3.58344259e-05
3.58328447e-05
3.58328451e-05
3.58346691e-05
3.58353828e-05
3.58337243e-05
3.58320905e-05
3.58331895e-05
3.58358089e-05
3.58354527e-05
3.58321334e-05
3.58319855e-05
3.58349704e-05
3.58359023e-05
3.58335611e-05
3.58320031e-05
3.58335526e-05
3.58355208e-05
3.5834675e-05
3.58326114e-05
3.5832875e-05
3.58348362e-05
3.58348089e-05
3.58333312e-05
3.58331333e-05
3.58341625e-05
3.58345201e-05
3.5833806e-05
3.58333109e-05
3.58337721e-05
3.58344463e-05
3.58342807e-05
3.58333436e-05
3.58333194e-05
3.58341905e-05
3.58346135e-05
3.58339638e-05
3.58330271e-05
3.58333112e-05
3.58348602e-05
3.583484e-05
3.58330505e-05
3.58326227e-05
3.58344272e-05
3.58354306e-05
3.58337689e-05
3.58321837e-05
3.58335029e-05
3.58356357e-05
3.58347613e-05
3.58322876e-05
3.58326563e-05
3.58352122e-05
3.58351604e-05
3.58330401e-05
3.58328448e-05
3.58342513e-05
3.58345842e-05
3.58338455e-05
3.58335821e-05
3.58338125e-05
3.58338488e-05
3.58338492e-05
3.58341937e-05
3.58341777e-05
3.58334275e-05
3.58333681e-05
3.58343229e-05
3.58345536e-05
3.58335954e-05
3.58331766e-05
3.583399e-05
3.58345717e-05
3.58339795e-05
3.58332681e-05
3.58335651e-05
3.58344185e-05
3.58343805e-05
3.58336195e-05
3.58333283e-05
3.58336215e-05
3.58344983e-05
3.58345712e-05
3.58335661e-05
3.58328273e-05
3.58336452e-05
3.58352709e-05
3.58349415e-05
3.58323289e-05
3.58322767e-05
3.58350485e-05
3.5835925e-05
3.58334898e-05
3.58316798e-05
3.58333447e-05
3.58360367e-05
3.58353523e-05
3.58320229e-05
3.5832084e-05
3.58350919e-05
3.58356834e-05
3.58333779e-05
3.58322722e-05
3.58339129e-05
3.58352998e-05
3.58341324e-05
3.58326634e-05
3.5833486e-05
3.58350116e-05
3.5834431e-05
3.58328192e-05
3.58331787e-05
3.58348951e-05
3.58347883e-05
3.58329805e-05
3.58329339e-05
3.58345488e-05
3.5834872e-05
3.58334895e-05
3.58328792e-05
3.58340118e-05
3.58349515e-05
3.58340772e-05
3.58327569e-05
3.58332993e-05
3.58350755e-05
3.58349019e-05
3.58327647e-05
3.58326464e-05
3.58346663e-05
3.58352533e-05
3.58335545e-05
3.5832565e-05
3.58337901e-05
3.58350235e-05
3.583428e-05
3.58330547e-05
3.58334266e-05
3.58343771e-05
3.58342132e-05
3.58336756e-05
3.58337746e-05
3.58340148e-05
3.58337993e-05
3.58336336e-05
3.58341047e-05
3.58343531e-05
3.58337081e-05
3.58332331e-05
3.58338197e-05
3.58346023e-05
3.58343852e-05
3.58332993e-05
3.58332033e-05
3.58338326e-05
3.58345969e-05
3.58345474e-05
3.58335338e-05
3.58328628e-05
3.58335288e-05
3.58351378e-05
3.58349685e-05
3.58327059e-05
3.58323946e-05
3.58345575e-05
3.58356153e-05
3.58339239e-05
3.583216e-05
3.58331099e-05
3.58354487e-05
3.58351968e-05
3.58327186e-05
3.58325429e-05
3.58343969e-05
3.58350719e-05
3.5833938e-05
3.58330126e-05
3.58334849e-05
3.58343759e-05
3.58343194e-05
3.58338849e-05
3.5833691e-05
3.58335591e-05
3.58336278e-05
3.58343766e-05
3.58345019e-05
3.58334727e-05
3.58330503e-05
3.58340868e-05
3.58348005e-05
3.58339393e-05
3.58330468e-05
3.58336426e-05
3.58345481e-05
3.58342124e-05
3.58334652e-05
3.58336078e-05
3.58340642e-05
3.58340278e-05
3.58338992e-05
3.58339129e-05
3.58338051e-05
3.5833669e-05
3.58339328e-05
3.58342747e-05
3.58340033e-05
3.58333997e-05
3.58335103e-05
3.58343729e-05
3.5834412e-05
3.58336508e-05
3.58332987e-05
3.58337703e-05
3.58344606e-05
3.58343278e-05
3.58333968e-05
3.58333305e-05
3.58341711e-05
3.58344903e-05
3.58337736e-05
3.58332549e-05
3.58338721e-05
3.58345841e-05
3.58340428e-05
3.58330815e-05
3.58334948e-05
3.58348195e-05
3.58346623e-05
3.58329016e-05
3.58328206e-05
3.58345718e-05
3.58352027e-05
3.58337965e-05
3.58324763e-05
3.58331537e-05
3.58352301e-05
3.58351596e-05
3.58331048e-05
3.58324303e-05
3.58338356e-05
3.58353596e-05
3.58347482e-05
3.58325444e-05
3.58326255e-05
3.58348271e-05
3.58352614e-05
3.58334544e-05
3.58325331e-05
3.58338954e-05
3.58351676e-05
3.5834198e-05
3.58327357e-05
3.58333603e-05
3.58348933e-05
3.58345411e-05
3.58330488e-05
3.58332032e-05
3.58345533e-05
3.58345207e-05
3.58333825e-05
3.58333763e-05
3.58342642e-05
3.58342823e-05
3.58335571e-05
3.58335675e-05
3.58342376e-05
3.58342069e-05
3.58334729e-05
3.58334894e-05
3.58343699e-05
3.58343876e-05
3.58334043e-05
3.58332727e-05
3.58343035e-05
3.58346069e-05
3.58336076e-05
3.58330991e-05
3.58339843e-05
3.58346869e-05
3.58339814e-05
3.58331484e-05
3.58336475e-05
3.58345159e-05
3.58341881e-05
3.58333767e-05
3.58336089e-05
3.58343288e-05
3.58341299e-05
3.58334182e-05
3.58336024e-05
3.58344746e-05
3.58343627e-05
3.58331516e-05
3.58331686e-05
3.58346329e-05
3.58348792e-05
3.5833313e-05
3.5832642e-05
3.58341217e-05
3.58353411e-05
3.58341428e-05
3.58323252e-05
3.58330326e-05
3.58354597e-05
3.5835289e-05
3.58325765e-05
3.58322231e-05
3.58345338e-05
3.5835706e-05
3.58341078e-05
3.58321215e-05
3.58326886e-05
3.58354906e-05
3.58354775e-05
3.58330724e-05
3.58322043e-05
3.58338277e-05
3.58354964e-05
3.58347111e-05
3.58325172e-05
3.58326559e-05
3.58348379e-05
3.58351565e-05
3.58335028e-05
3.58327271e-05
3.58338157e-05
3.58348752e-05
3.58342494e-05
3.58331117e-05
3.58334031e-05
3.58344738e-05
3.58343652e-05
3.58334305e-05
3.58334641e-05
3.58343003e-05
3.58342891e-05
3.583345e-05
3.58334482e-05
3.58343509e-05
3.58344051e-05
3.5833459e-05
3.5833311e-05
3.58341911e-05
3.58344366e-05
3.58337626e-05
3.58334959e-05
3.58338586e-05
3.58340039e-05
3.58339333e-05
3.58340923e-05
3.58341081e-05
3.5833322e-05
3.58332123e-05
3.58346493e-05
3.58351179e-05
3.58332296e-05
3.58321475e-05
3.58341192e-05
3.58359771e-05
3.5834264e-05
3.58317982e-05
3.58329919e-05
3.58357167e-05
3.58349007e-05
3.58324352e-05
3.58331666e-05
3.58354509e-05
3.58342961e-05
3.58312027e-05
3.58330411e-05
3.58389537e-05
3.58372548e-05
3.58258085e-05
3.58261846e-05
3.5844385e-05
3.58478022e-05
3.58251993e-05
3.58149715e-05
3.58371803e-05
3.58603066e-05
3.58397623e-05
3.58082621e-05
3.58177873e-05
3.58621763e-05
3.58594467e-05
3.58138513e-05
3.58100845e-05
3.58455733e-05
3.58581557e-05
3.5830831e-05
3.58159486e-05
)
;

boundaryField
{
    closed
    {
        type            calculated;
        value           nonuniform List<scalar> 0();
    }
    open
    {
        type            calculated;
        value           nonuniform List<scalar> 0();
    }
    sides
    {
        type            empty;
    }
    procBoundary1to0
    {
        type            processor;
        value           uniform 3.58277403e-05;
    }
    procBoundary1to2
    {
        type            processor;
        value           uniform 3.58313919e-05;
    }
}


// ************************************************************************* //
