/*--------------------------------*- C++ -*----------------------------------*\
| =========                 |                                                 |
| \\      /  F ield         | OpenFOAM: The Open Source CFD Toolbox           |
|  \\    /   O peration     | Version:  2306                                  |
|   \\  /    A nd           | Website:  www.openfoam.com                      |
|    \\/     M anipulation  |                                                 |
\*---------------------------------------------------------------------------*/
FoamFile
{
    version     2.0;
    format      ascii;
    arch        "LSB;label=32;scalar=64";
    class       volScalarField;
    location    "0.00024";
    object      H2O;
}
// * * * * * * * * * * * * * * * * * * * * * * * * * * * * * * * * * * * * * //

dimensions      [0 0 0 0 0 0 0];

internalField   nonuniform List<scalar> 
531
(
0.00450230656
0.00446988999
0.0044969056
0.00453569054
0.00452615044
0.00448720103
0.00448833859
0.00451680961
0.00452173974
0.0045053091
0.0044969773
0.00450471688
0.00451333185
0.0045113901
0.00450392128
0.0045039184
0.00450676016
0.00450911
0.00450909429
0.00450694315
0.00450451651
0.00450575883
0.00451032666
0.00450991285
0.00450332666
0.00450331208
0.00451102082
0.00451200174
0.0045036333
0.00450131964
0.00450961471
0.00451355414
0.00450636632
0.00450071498
0.00450563153
0.00451262122
0.00451111922
0.00450360312
0.0045029578
0.00450583497
0.00451079838
0.00451174067
0.00450641647
0.00450034254
0.00450390138
0.00451517433
0.00451403568
0.00449911393
0.00449855203
0.0045130326
0.00451615909
0.00450390095
0.00449859487
0.00450772701
0.0045145714
0.00450898793
0.0045011946
0.00450289353
0.00451131474
0.0045118017
0.00450674564
0.00450271409
0.00450380158
0.00451049147
0.00451239619
0.00450691995
0.00450085493
0.00450309739
0.00451357616
0.00451353378
0.00450345046
0.00449982524
0.00450700137
0.00451405429
0.0045105213
0.00450148885
0.00450229014
0.00451119817
0.00451151001
0.00450440138
0.00450327723
0.00450984103
0.00451143422
0.00450387372
0.0045010621
0.00451016281
0.00451587668
0.0045063647
0.00449586046
0.00450320412
0.00451965604
0.00451719566
0.00449522208
0.00449401468
0.00451382277
0.00452141708
0.00450685413
0.00449331984
0.00450147518
0.00451926254
0.00451694316
0.00449738472
0.00449689495
0.00451258871
0.00451662101
0.00450534713
0.00449898178
0.00450614405
0.00451354436
0.00450995517
0.00450271742
0.00450357974
0.00450949729
0.0045096999
0.00450708852
0.00450609698
0.00450639466
0.00450648535
0.00450724403
0.00450874686
0.00450840923
0.00450540482
0.00450506607
0.00450791626
0.00450936787
0.00450744453
0.00450524189
0.00450624606
0.00450849797
0.00450799073
0.00450606506
0.00450642555
0.00450847671
0.0045082867
0.00450512436
0.00450490117
0.0045091007
0.00451107872
0.00450681702
0.00450140507
0.00450342367
0.00451433493
0.00451433221
0.00450175015
0.00449684828
0.00450825778
0.00451956003
0.00451195029
0.00449392663
0.00449636806
0.00451926238
0.00452028835
0.00449967956
0.00449328731
0.00450938426
0.00452016697
0.00450944213
0.00449590224
0.00450170944
0.00451594989
0.00451412485
0.00450060197
0.0045007895
0.00451097182
0.00451233884
0.00450523664
0.00450277499
0.00450769403
0.00451111188
0.00450792797
0.00450328292
0.00450442286
0.00451088529
0.00451105266
0.00450504382
0.00450213235
0.00450660633
0.00451307314
0.00451110938
0.004500436
0.00450057525
0.00451291131
0.00451587185
0.00450341404
0.00449652062
0.00450795019
0.00451891363
0.00450978566
0.00449511414
0.00450111583
0.00451819294
0.00451563833
0.00449801885
0.00449837408
0.00451298344
0.00451433461
0.00450462524
0.00450233413
0.00450742188
0.00450923884
0.00450764903
0.00450739897
0.00450739588
0.00450502193
0.00450513227
0.00451030585
0.00451071645
0.00450413221
0.00450254418
0.00450914676
0.00451203923
0.00450642549
0.00450241972
0.0045064978
0.00451140701
0.00450935641
0.00450347402
0.0045037356
0.00450898096
0.00451099151
0.00450896697
0.00450292527
0.0045024239
0.00450934937
0.00451445544
0.0045088037
0.00449761557
0.00449987833
0.00451790649
0.00451826946
0.00449914288
0.00449313191
0.00450987656
0.00452241156
0.00451087796
0.00449236684
0.00449705658
0.00452002941
0.00451960502
0.00449884543
0.00449478687
0.00451064928
0.00451830058
0.00450695691
0.004497418
0.00450544417
0.00451559027
0.00450990204
0.00449939662
0.00450338807
0.00451451138
0.00451202517
0.00450019628
0.00450093087
0.0045133957
0.00451371774
0.00450257759
0.00450035579
0.00450987832
0.00451409599
0.00450627496
0.00449980921
0.00450582471
0.0045149424
0.00451119156
0.00449895727
0.00450015014
0.00451488836
0.00451570726
0.00450176916
0.00449773632
0.00450942919
0.00451627081
0.00450780344
0.00449931455
0.00450442708
0.00451288256
0.00451031213
0.00450375897
0.00450488773
0.004508594
0.00450791044
0.00450625449
0.00450774028
0.00450888357
0.00450563484
0.00450392401
0.00450836896
0.00451164872
0.0045075994
0.00450220912
0.00450370305
0.00451119194
0.00451185518
0.00450751112
0.00450224673
0.00450258706
0.0045095725
0.00451420944
0.00450960714
0.00449852915
0.00449969266
0.0045152951
0.00451745198
0.00450251774
0.00449525329
0.00450688159
0.00451907784
0.00451250065
0.00449639567
0.00449812397
0.00451520786
0.00451642414
0.00450362327
0.00449898253
0.00450678381
0.00451317386
0.00450990988
0.0045037674
0.00450415656
0.00450715026
0.00450848732
0.00450939736
0.00450892363
0.00450376256
0.00450290007
0.00450999378
0.00451291228
0.00450575838
0.00450084632
0.00450677478
0.00451293695
0.0045088212
0.00450258219
0.00450489329
0.00451004568
0.00450906152
0.00450591395
0.00450616508
0.00450705148
0.00450695683
0.0045077002
0.00450863886
0.00450681966
0.00450446418
0.00450633347
0.00451049792
0.00450973452
0.00450378764
0.00450351856
0.0045087649
0.00451119586
0.00450794042
0.00450318414
0.00450409805
0.00451051784
0.0045109758
0.00450517747
0.00450297984
0.00450791747
0.00451149876
0.00450723804
0.00450233493
0.00450606157
0.0045126972
0.00450984148
0.00450071578
0.0045017968
0.00451394105
0.00451450153
0.00450241926
0.00449808416
0.00450775985
0.00451688561
0.00451219802
0.00449789591
0.00449837951
0.00451253638
0.00451720395
0.00450749014
0.00449700707
0.00450120624
0.00451641348
0.00451585226
0.00450066429
0.0044976813
0.00451012073
0.00451649239
0.00450707737
0.00449832501
0.00450499249
0.00451508948
0.00451077013
0.00450020879
0.00450263034
0.00451292316
0.00451185542
0.00450254679
0.00450277066
0.00451061718
0.0045106597
0.00450453659
0.0045044121
0.00450941113
0.00450933947
0.00450471924
0.0045049311
0.00450999242
0.00450987889
0.00450380878
0.00450368715
0.00451046653
0.00451137539
0.00450426552
0.00450217757
0.00450906275
0.0045125754
0.00450646456
0.00450162777
0.00450648429
0.00451223464
0.00450878746
0.0045028036
0.0045050607
0.00451065737
0.00450905397
0.00450409158
0.00450546173
0.00451037078
0.00450909886
0.00450308804
0.00450385852
0.00451221262
0.00451209478
0.00450199873
0.00450030631
0.00451109672
0.00451573791
0.00450551831
0.00449713446
0.00450537266
0.00451793264
0.00451303486
0.00449632032
0.0044974917
0.00451619171
0.0045186404
0.00450268141
0.00449463232
0.00450561428
0.00451934548
0.00451541517
0.00449610876
0.00449619872
0.0045127607
0.00451877075
0.00450754466
0.00449606914
0.0045014612
0.00451660199
0.00451564124
0.00450059036
0.00449840136
0.00450978657
0.00451514906
0.00450762693
0.00450033351
0.00450463785
0.00451248814
0.00451047432
0.00450309393
0.00450384074
0.00451028518
0.00451005359
0.0045042876
0.00450436497
0.00451015101
0.00451016333
0.00450393916
0.00450356611
0.00451008837
0.00451111081
0.00450503976
0.00450334958
0.00450799352
0.0045098342
0.00450733105
0.00450632942
0.00450681655
0.00450572082
0.00450561199
0.00451103502
0.0045117934
0.00450188612
0.0044986669
0.00451167338
0.00451916528
0.00450553503
0.00449277509
0.0045045374
0.00452158892
0.00451331641
0.0044945598
0.00450015866
0.00451717379
0.00451211209
0.00449638928
0.00450432589
0.00452574608
0.00451299859
0.00447252083
0.00448408986
0.00456364584
0.00456104308
0.00443599071
0.00441341766
0.00456797418
0.0046422152
0.00448461157
0.00433233509
0.00446708201
0.004692475
0.00462133982
0.00432039484
0.0043377281
0.00465050848
0.00467866673
0.00442818335
0.00434610208
0.00452837227
0.00463501789
)
;

boundaryField
{
    closed
    {
        type            calculated;
        value           nonuniform List<scalar> 0();
    }
    open
    {
        type            calculated;
        value           nonuniform List<scalar> 0();
    }
    sides
    {
        type            empty;
    }
    procBoundary1to0
    {
        type            processor;
        value           uniform 0.00454997319;
    }
    procBoundary1to2
    {
        type            processor;
        value           uniform 0.0045244158;
    }
}


// ************************************************************************* //
