/*--------------------------------*- C++ -*----------------------------------*\
| =========                 |                                                 |
| \\      /  F ield         | OpenFOAM: The Open Source CFD Toolbox           |
|  \\    /   O peration     | Version:  2306                                  |
|   \\  /    A nd           | Website:  www.openfoam.com                      |
|    \\/     M anipulation  |                                                 |
\*---------------------------------------------------------------------------*/
FoamFile
{
    version     2.0;
    format      ascii;
    arch        "LSB;label=32;scalar=64";
    class       volScalarField;
    location    "0.00194";
    object      h;
}
// * * * * * * * * * * * * * * * * * * * * * * * * * * * * * * * * * * * * * //

dimensions      [0 2 -2 0 0 0 0];

internalField   nonuniform List<scalar> 
531
(
-1676.9914
-5992.89186
-1263.36953
9731.16633
10146.5476
-2274.59367
-6233.10958
468.779717
9661.77569
9395.41795
-4794.93196
-6508.76451
4189.83161
9901.31714
5938.9766
-4467.5498
-5741.07942
2369.80301
9776.08172
-1192.9399
-4457.00263
8948.81313
10262.7727
-2504.51117
-4014.89802
8900.10665
10389.8763
3650.86804
-3348.31666
-5163.82211
-892.233858
9651.51144
10752.1976
10681.6405
-138.606982
-4382.01322
-4788.99934
-4930.52289
-7229.14942
-5044.61363
8849.33416
10403.5283
9809.00615
10564.5706
10563.69
53.5875486
-4062.72088
9201.83455
10099.6547
1557.22964
-5656.37667
-5897.3079
210.017062
9949.82766
10294.3479
-1001.06479
-4485.39877
9069.98005
10236.3552
-3618.26352
-4737.92053
8652.78195
9752.71998
9729.95754
9617.17685
-2409.73386
-5192.22493
-4792.20784
-4948.95535
-7252.57697
-7228.7591
8888.21969
10303.9185
9880.56613
-1561.32303
-3797.03102
9151.35806
10438.8526
9897.56162
-3456.70524
-5831.89144
9414.01363
9924.20091
1208.87667
-6384.16098
-6383.66016
9547.48861
9801.24338
1689.07749
-7398.48051
-6890.03529
9111.2013
10313.9466
9751.85126
-893.186727
-3976.70644
9900.9814
10569.3382
1512.36682
-2623.11363
-5632.01893
-5626.47808
9436.7184
10090.4559
-3509.21465
-4848.28037
9806.24422
10090.8437
1646.3722
-6071.05461
-6024.72839
9859.02065
9938.97947
1368.25372
-6405.00877
-6163.12967
9931.42768
10145.6343
-346.447204
-4047.16403
-6184.30199
-6176.74248
9176.19811
9948.75137
9916.93664
10009.721
-2469.61629
-4803.86649
9761.36625
10153.8781
-3668.87394
-4748.90971
9828.05014
10090.8188
1229.43608
-6016.6489
-5737.2165
9929.3588
10001.7195
1180.07805
-6291.04458
-5899.64764
9915.5804
10053.9587
1213.74284
-4815.76826
-5505.78501
381.075273
9759.34198
10379.9697
10128.4809
-5841.11986
-6247.74473
9211.18981
9989.67438
-4130.27154
-4479.10826
9720.5684
10133.1102
2597.67005
-5911.99635
-5464.28097
9591.0241
10043.5011
4779.70993
-5961.83967
-5865.80974
9748.44526
10146.8691
-3258.79115
-3444.18124
9983.71461
10569.4245
721.534573
-2743.03182
-5146.36113
-5161.62481
9765.99711
9881.99246
-914.683992
-8029.11675
-6942.96193
9168.88898
10141.8963
9592.75384
-3403.94358
-5818.98856
9386.93331
9902.11805
-6801.60191
-5206.14786
9664.75698
10516.8571
10246.8673
-2267.50816
-2391.91638
9646.78461
-1035.07389
-5789.67948
9311.3873
10427.3388
9512.7999
1739.76883
-7343.50717
-6878.99107
9880.82257
9815.45192
-1229.7966
-8249.73031
-7234.0453
9203.10935
10175.9883
9785.99022
-2802.4904
-3489.09174
9497.16259
-284.870282
-6035.95509
7317.19113
10435.6346
9572.40106
1864.41126
-6681.1789
-6563.68705
9838.03981
9837.28904
-795.746345
-7166.14515
-7062.948
9755.51701
9908.73446
-1580.08159
-5207.38802
-7159.68559
-7158.55522
8585.95972
9925.50169
9002.71114
10087.7356
9422.40086
10386.9089
9994.51142
-2332.18515
-5821.27534
-6012.07506
1941.65618
9734.0811
1510.71264
-5927.77365
-1896.02201
9692.62905
10417.6784
10415.565
-5584.03221
-5522.33034
8783.6875
-2004.46831
-8197.30892
9351.11898
9737.98968
-2173.45379
-5890.33212
1068.13378
9644.23761
10251.8087
10250.1625
-6796.3963
-7231.43568
8258.02472
9739.02197
9458.32052
7131.25828
-3911.68179
-5156.85183
-4846.09872
-6711.49155
-6710.40403
8929.07142
10096.6588
10000.9722
10353.7325
849.575939
-2940.91257
9665.81157
10614.3665
876.227857
-2954.00931
-5675.12047
-5675.34836
9008.96445
10041.2641
-3263.74663
-5212.97541
9295.7661
9991.06117
445.168964
-6448.26804
-6445.74399
9186.21894
9963.85603
-2755.30055
-5255.58771
9306.95226
9944.83197
527.593033
-6859.81122
-6859.75101
8996.38073
9984.26478
-4390.12441
-4983.93289
8481.24039
10375.1498
9772.86901
-2916.37077
-4823.89966
8634.72717
10369.5059
9677.30036
4205.08432
-6936.05127
-6934.21463
8853.33025
9952.09137
-3375.46476
-4954.45513
9012.86154
10234.0554
-2784.52229
-4061.00135
9277.69066
10399.7131
-447.779501
-3489.58955
-6059.33571
-6059.31731
8744.97343
9994.08933
-4098.93148
-5466.04773
8866.7623
10054.9693
-2320.86193
-5149.4515
1149.16181
9891.73702
9964.98261
10363.8919
9642.1359
-1439.72439
-7012.36474
-7011.16457
9277.08578
9770.1455
-284.14751
-7386.55733
-7363.79203
8863.31465
9849.18374
-3943.00644
-5666.85576
8593.47031
10072.3485
-4606.06186
-5064.35168
8399.72147
10402.5099
9942.9057
-2459.51389
-5106.78828
8984.6453
10111.3955
-2586.50885
-4850.52542
9092.61287
10040.0243
659.35487
-6301.27758
-6301.2324
8973.31874
9980.48057
-2557.95673
-5039.00417
9028.32357
10040.0988
777.439069
-6155.19336
-6156.66813
8948.31015
9997.05591
-2439.62788
-4995.49017
8977.78865
10030.0191
882.77437
-6293.84964
-6296.42261
8808.94651
10009.2654
-2869.38087
-4790.14754
8715.40791
10188.9786
-2781.87117
-4423.21876
8771.75935
10199.6697
-2329.72896
-4568.48408
8865.34749
10064.3787
1139.59517
-6270.74767
-6270.5749
8580.99408
9997.92338
-3005.43586
-4833.68807
8458.87148
10198.8369
-3340.11875
-4227.77425
8337.97026
10493.4968
10358.7583
-1970.74777
-4315.29211
8681.69481
10171.5264
3176.3606
-5456.53503
-5459.90012
8475.24934
10192.1283
-2025.50036
-3480.58622
8726.83629
10600.1567
2968.39221
-2011.20282
-4548.59105
-4547.58817
8773.54931
10378.8097
981.091013
-2972.72657
-5240.03221
-5239.33746
8494.31423
-40.7720518
-6522.05563
8341.46049
9918.32363
-2554.52451
-5129.70904
8482.65172
10166.9871
-40.1438243
-3908.59858
-5544.3575
-5548.18559
8341.65568
10157.21
9574.64765
10223.2674
10224.9782
-3459.60422
-6190.09465
8271.24006
9795.32115
1028.89788
-6691.63051
-6065.55544
8662.26378
-865.274809
-6936.72699
8407.88309
9798.44944
-738.691272
-5720.60778
-1347.34731
9524.5994
10750.5328
10749.3995
-716.459388
-3712.74768
8861.41327
10102.6747
1461.86571
-6353.20961
-6352.02092
8495.40328
10358.3028
10349.6978
-93.3974574
-4081.92681
-6860.80636
-6858.02971
7974.62714
10279.9882
9701.1752
-961.447798
-4794.67331
8766.50883
10292.3215
-2032.87999
-3252.16188
8965.87987
10593.5948
1974.94574
-2387.4237
-4752.72374
-4754.97009
8836.35819
10121.0941
1199.10233
-5519.24741
-5521.85833
8891.90677
10038.2394
1515.85743
-5668.73797
-5670.96689
8886.41149
9924.37536
1366.30027
-6639.14528
-6641.60125
8575.95156
9890.33713
9741.59381
)
;

boundaryField
{
    closed
    {
        type            lookUpEnthalpy;
        h0              nonuniform List<scalar> 0();
        value           nonuniform List<scalar> 0();
    }
    open
    {
        type            zeroGradient;
    }
    sides
    {
        type            empty;
    }
    procBoundary3to2
    {
        type            processor;
        value           uniform 10226.8832;
    }
    procBoundary3to4
    {
        type            processor;
        value           uniform 6767.94114;
    }
}


// ************************************************************************* //
