/*--------------------------------*- C++ -*----------------------------------*\
| =========                 |                                                 |
| \\      /  F ield         | OpenFOAM: The Open Source CFD Toolbox           |
|  \\    /   O peration     | Version:  2306                                  |
|   \\  /    A nd           | Website:  www.openfoam.com                      |
|    \\/     M anipulation  |                                                 |
\*---------------------------------------------------------------------------*/
FoamFile
{
    version     2.0;
    format      ascii;
    arch        "LSB;label=32;scalar=64";
    class       volScalarField;
    location    "0.00194";
    object      mu;
}
// * * * * * * * * * * * * * * * * * * * * * * * * * * * * * * * * * * * * * //

dimensions      [1 -1 -1 0 0 0 0];

internalField   nonuniform List<scalar> 
531
(
1.97543181e-05
1.94001112e-05
1.97511059e-05
2.02872777e-05
2.03096321e-05
1.97543711e-05
1.93742354e-05
1.97682663e-05
2.02651501e-05
2.02971562e-05
1.95202316e-05
1.9343246e-05
1.98872361e-05
2.02711161e-05
1.99864891e-05
1.95523218e-05
1.94248794e-05
1.98025367e-05
2.02831887e-05
1.97616989e-05
1.95527461e-05
2.02813573e-05
2.02945007e-05
1.97403766e-05
1.95956206e-05
2.02711945e-05
2.03046434e-05
1.98486377e-05
1.96568675e-05
1.94831154e-05
1.97407632e-05
2.02924655e-05
2.03202682e-05
2.03075454e-05
1.9759678e-05
1.95607233e-05
1.95211564e-05
1.95082427e-05
1.92758184e-05
1.94968586e-05
2.02842138e-05
2.03106339e-05
2.02935632e-05
2.03177642e-05
2.0307327e-05
1.97590044e-05
1.95909336e-05
2.02975119e-05
2.03176613e-05
1.97847848e-05
1.94411708e-05
1.94140371e-05
1.97390342e-05
2.02896122e-05
2.03314368e-05
1.97707305e-05
1.95508383e-05
2.02773389e-05
2.028783e-05
1.96338084e-05
1.9523779e-05
2.02625144e-05
2.026988e-05
2.02680891e-05
2.02787472e-05
1.97485024e-05
1.94756276e-05
1.95186334e-05
1.95007381e-05
1.92671578e-05
1.92687271e-05
2.02663535e-05
2.02710074e-05
2.02727414e-05
1.9781189e-05
1.96164032e-05
2.02803244e-05
2.02810481e-05
2.02807428e-05
1.96488674e-05
1.94147328e-05
2.02908842e-05
2.02757972e-05
1.97862225e-05
1.93593779e-05
1.9361384e-05
2.02804844e-05
2.02778994e-05
1.97953999e-05
1.92564161e-05
1.9311301e-05
2.02846239e-05
2.02873065e-05
2.02868401e-05
1.97665879e-05
1.9599101e-05
2.02965439e-05
2.02815962e-05
1.97884032e-05
1.97287454e-05
1.94376878e-05
1.94380838e-05
2.02853352e-05
2.02857636e-05
1.96437178e-05
1.9513667e-05
2.02911632e-05
2.02802732e-05
1.97924088e-05
1.93940441e-05
1.93976323e-05
2.02961119e-05
2.02833454e-05
1.97839355e-05
1.93603739e-05
1.93856966e-05
2.02920492e-05
2.0287087e-05
1.97709438e-05
1.95922512e-05
1.93825539e-05
1.9382732e-05
2.02825312e-05
2.02871245e-05
2.02938393e-05
2.02926524e-05
1.97413528e-05
1.95189268e-05
2.02892983e-05
2.0288276e-05
1.96280133e-05
1.95238952e-05
2.02913235e-05
2.02840885e-05
1.97828526e-05
1.93991499e-05
1.94265519e-05
2.02918402e-05
2.02847371e-05
1.97831022e-05
1.93709089e-05
1.94115432e-05
2.02885511e-05
2.0293899e-05
1.97857309e-05
1.95187039e-05
1.94496742e-05
1.97681898e-05
2.02808242e-05
2.0296758e-05
2.02923114e-05
1.94184322e-05
1.93742554e-05
2.02727114e-05
2.02738326e-05
1.95844612e-05
1.95489448e-05
2.02719023e-05
2.02659273e-05
1.98159763e-05
1.94066676e-05
1.94515562e-05
2.02801032e-05
2.0269338e-05
1.99074638e-05
1.94032426e-05
1.94127421e-05
2.02859878e-05
2.02828826e-05
1.96674805e-05
1.96506089e-05
2.02860397e-05
2.02782611e-05
1.97787765e-05
1.97179872e-05
1.94857266e-05
1.94831352e-05
2.02831499e-05
2.02856652e-05
1.97703226e-05
1.91902879e-05
1.93053991e-05
2.02785682e-05
2.02779257e-05
2.02812379e-05
1.96542079e-05
1.94166402e-05
2.02805093e-05
2.0290105e-05
1.93236623e-05
1.9478983e-05
2.02911088e-05
2.02834859e-05
2.02907447e-05
1.9760172e-05
1.97497021e-05
2.03023049e-05
1.97622926e-05
1.94234127e-05
2.02989971e-05
2.0287567e-05
2.02941648e-05
1.97975775e-05
1.92636335e-05
1.93110363e-05
2.02841821e-05
2.02868176e-05
1.97764509e-05
1.9165492e-05
1.92744074e-05
2.02793657e-05
2.02755454e-05
2.02835146e-05
1.9711909e-05
1.96463437e-05
2.02829887e-05
1.97908163e-05
1.9395452e-05
2.01563138e-05
2.02712129e-05
2.02599036e-05
1.98048874e-05
1.93290814e-05
1.93408851e-05
2.02885573e-05
2.0279997e-05
1.97686229e-05
1.92792981e-05
1.92946198e-05
2.02795403e-05
2.02853777e-05
1.97826409e-05
1.94775741e-05
1.92752009e-05
1.92809148e-05
2.02516167e-05
2.02765976e-05
2.02527556e-05
2.02824497e-05
2.02646501e-05
2.02853889e-05
2.02840035e-05
1.97552094e-05
1.94187418e-05
1.93993136e-05
1.97919993e-05
2.02764192e-05
1.97824704e-05
1.94044855e-05
1.97533983e-05
2.02820587e-05
2.03019624e-05
2.02901349e-05
1.94437784e-05
1.94496506e-05
2.02883127e-05
1.97561593e-05
1.91655205e-05
2.02976476e-05
2.02581512e-05
1.97505886e-05
1.94007731e-05
1.97746743e-05
2.0256053e-05
2.02913781e-05
2.02693013e-05
1.93180723e-05
1.9267122e-05
2.02570849e-05
2.02418663e-05
2.02532905e-05
2.00587561e-05
1.96052121e-05
1.94780827e-05
1.95135448e-05
1.93204444e-05
1.93276685e-05
2.02654323e-05
2.02847229e-05
2.02721955e-05
2.02921998e-05
1.97864476e-05
1.9697375e-05
2.02867805e-05
2.02953549e-05
1.97825191e-05
1.96965016e-05
1.94321039e-05
1.94340406e-05
2.02791565e-05
2.02884507e-05
1.96677602e-05
1.94778686e-05
2.02784099e-05
2.02772943e-05
1.97802991e-05
1.93509728e-05
1.93559147e-05
2.02709831e-05
2.02821083e-05
1.97165452e-05
1.94725507e-05
2.02759028e-05
2.02714817e-05
1.97809836e-05
1.93064311e-05
1.93145745e-05
2.0263225e-05
2.02847113e-05
1.95579938e-05
1.95008312e-05
2.02687651e-05
2.02787912e-05
2.02774294e-05
1.97013863e-05
1.95157228e-05
2.02655074e-05
2.02741984e-05
2.02604692e-05
1.98721481e-05
1.92985589e-05
1.93072052e-05
2.02600334e-05
2.02902959e-05
1.96574811e-05
1.95045088e-05
2.02664813e-05
2.02913666e-05
1.97145081e-05
1.95911133e-05
2.02718805e-05
2.02874084e-05
1.97854453e-05
1.96461203e-05
1.93898279e-05
1.93948338e-05
2.02670858e-05
2.02874846e-05
1.95867411e-05
1.94537738e-05
2.02794898e-05
2.02849692e-05
1.97549646e-05
1.94831198e-05
1.97768283e-05
2.02703789e-05
2.02970624e-05
2.02792413e-05
2.02863872e-05
1.97702424e-05
1.92871708e-05
1.92958732e-05
2.02591954e-05
2.02675535e-05
1.9783362e-05
1.92482006e-05
1.92627287e-05
2.02602389e-05
2.02871545e-05
1.96016382e-05
1.94340023e-05
2.02628429e-05
2.02877968e-05
1.95360084e-05
1.94936962e-05
2.02711694e-05
2.02862532e-05
2.02775942e-05
1.97442944e-05
1.94882362e-05
2.02773608e-05
2.02821082e-05
1.97329335e-05
1.9513189e-05
2.02786701e-05
2.02735059e-05
1.97824146e-05
1.93641904e-05
1.9371096e-05
2.02685292e-05
2.0287662e-05
1.97362711e-05
1.94949425e-05
2.02717859e-05
2.02745272e-05
1.97861999e-05
1.93792695e-05
1.93847946e-05
2.02662848e-05
2.02850028e-05
1.97474087e-05
1.94988617e-05
2.02711414e-05
2.02713486e-05
1.97844829e-05
1.93637503e-05
1.93723635e-05
2.02566917e-05
2.02933555e-05
1.97067079e-05
1.95205943e-05
2.02573181e-05
2.02912884e-05
1.97149079e-05
1.95560645e-05
2.0260744e-05
2.02881223e-05
1.97575453e-05
1.95414189e-05
2.02669563e-05
2.02760627e-05
1.97859803e-05
1.93673598e-05
1.93758389e-05
2.02502677e-05
2.02970768e-05
1.96933713e-05
1.951678e-05
2.02519715e-05
2.02962251e-05
1.9660849e-05
1.95752066e-05
2.02589638e-05
2.02911067e-05
2.02854363e-05
1.97770416e-05
1.95662117e-05
2.02613646e-05
2.02765267e-05
1.98318667e-05
1.94511805e-05
1.9455795e-05
2.02434558e-05
2.02965427e-05
1.97871508e-05
1.96466855e-05
2.02513126e-05
2.02901687e-05
1.98272454e-05
1.97703091e-05
1.95420427e-05
1.95440343e-05
2.02529967e-05
2.0287477e-05
1.97904304e-05
1.96953929e-05
1.94736723e-05
1.94756321e-05
2.02524487e-05
1.97760975e-05
1.93451307e-05
2.0248674e-05
2.02873662e-05
1.97359933e-05
1.94873504e-05
2.02493305e-05
2.02911879e-05
1.9785106e-05
1.96057532e-05
1.94416246e-05
1.94437902e-05
2.02342444e-05
2.02764362e-05
2.0262599e-05
2.02861664e-05
2.02796809e-05
1.96487203e-05
1.9378993e-05
2.02524549e-05
2.02692921e-05
1.9787678e-05
1.93224389e-05
1.93941242e-05
2.02549908e-05
1.97603427e-05
1.93004458e-05
2.02734745e-05
2.02809841e-05
1.97483869e-05
1.94266125e-05
1.97375072e-05
2.02798258e-05
2.03190638e-05
2.02992802e-05
1.97608431e-05
1.96244226e-05
2.02735487e-05
2.02902866e-05
1.97887902e-05
1.93629731e-05
1.93672044e-05
2.02572349e-05
2.02908252e-05
2.0283992e-05
1.97729343e-05
1.95889143e-05
1.93109894e-05
1.93127899e-05
2.02578529e-05
2.02822341e-05
2.02816485e-05
1.97776581e-05
1.95194638e-05
2.02593514e-05
2.02870977e-05
1.97855182e-05
1.96688584e-05
2.02613442e-05
2.02835626e-05
1.98050679e-05
1.97509487e-05
1.95218667e-05
1.95231502e-05
2.02586433e-05
2.02764224e-05
1.97922163e-05
1.94443176e-05
1.94474648e-05
2.02537635e-05
2.02764628e-05
1.97983148e-05
1.94294346e-05
1.94321111e-05
2.02552569e-05
2.02751494e-05
1.97966003e-05
1.93304106e-05
1.93322435e-05
2.02513611e-05
2.02566534e-05
2.02680553e-05
)
;

boundaryField
{
    closed
    {
        type            calculated;
        value           nonuniform List<scalar> 0();
    }
    open
    {
        type            calculated;
        value           nonuniform List<scalar> 0();
    }
    sides
    {
        type            empty;
    }
    procBoundary3to2
    {
        type            processor;
        value           uniform 2.03089164e-05;
    }
    procBoundary3to4
    {
        type            processor;
        value           uniform 2.00400582e-05;
    }
}


// ************************************************************************* //
