/*--------------------------------*- C++ -*----------------------------------*\
| =========                 |                                                 |
| \\      /  F ield         | OpenFOAM: The Open Source CFD Toolbox           |
|  \\    /   O peration     | Version:  2306                                  |
|   \\  /    A nd           | Website:  www.openfoam.com                      |
|    \\/     M anipulation  |                                                 |
\*---------------------------------------------------------------------------*/
FoamFile
{
    version     2.0;
    format      ascii;
    arch        "LSB;label=32;scalar=64";
    class       volVectorField;
    location    "0.00194";
    object      U;
}
// * * * * * * * * * * * * * * * * * * * * * * * * * * * * * * * * * * * * * //

dimensions      [0 1 -1 0 0 0 0];

internalField   nonuniform List<vector> 
531
(
(0.00239368631 0 0)
(0.00869517355 0 0)
(0.00801976196 0 0)
(0.0176108195 0 0)
(0.029321302 0 0)
(0.0334505236 0 0)
(0.0405992201 0 0)
(0.0396487297 0 0)
(0.043528565 0 0)
(0.062466119 0 0)
(0.0751339487 0 0)
(0.0721382998 0 0)
(0.0701528896 0 0)
(0.0711534433 0 0)
(0.088160031 0 0)
(0.100759844 0 0)
(0.100349873 0 0)
(0.101391018 0 0)
(0.103298565 0 0)
(0.110819641 0 0)
(0.110505849 0 0)
(0.122936062 0 0)
(0.140547987 0 0)
(0.131341979 0 0)
(0.12487373 0 0)
(0.138227092 0 0)
(0.155924019 0 0)
(0.156059446 0 0)
(0.159431361 0 0)
(0.167780647 0 0)
(0.17291589 0 0)
(0.183890286 0 0)
(0.199449096 0 0)
(0.195391628 0 0)
(0.195073679 0 0)
(0.202031532 0 0)
(0.210239762 0 0)
(0.216567034 0 0)
(0.223280689 0 0)
(0.224429918 0 0)
(0.228874585 0 0)
(0.240422699 0 0)
(0.243926595 0 0)
(0.246261528 0 0)
(0.241659724 0 0)
(0.238437055 0 0)
(0.241585713 0 0)
(0.254486597 0 0)
(0.261561358 0 0)
(0.254974076 0 0)
(0.258974393 0 0)
(0.26976919 0 0)
(0.276385011 0 0)
(0.281668941 0 0)
(0.27911501 0 0)
(0.270392538 0 0)
(0.269857374 0 0)
(0.280493834 0 0)
(0.27955144 0 0)
(0.26613733 0 0)
(0.26297622 0 0)
(0.266436883 0 0)
(0.27091256 0 0)
(0.26870508 0 0)
(0.26080632 0 0)
(0.254843536 0 0)
(0.251390975 0 0)
(0.24554745 0 0)
(0.236913907 0 0)
(0.227288502 0 0)
(0.220484363 0 0)
(0.224767525 0 0)
(0.230074272 0 0)
(0.219039551 0 0)
(0.208576881 0 0)
(0.204595197 0 0)
(0.205307573 0 0)
(0.206597444 0 0)
(0.197357694 0 0)
(0.189309464 0 0)
(0.188266857 0 0)
(0.193533755 0 0)
(0.194586932 0 0)
(0.184386635 0 0)
(0.179349835 0 0)
(0.180716515 0 0)
(0.190000367 0 0)
(0.194241677 0 0)
(0.185877162 0 0)
(0.182106162 0 0)
(0.186089586 0 0)
(0.197874842 0 0)
(0.208012844 0 0)
(0.2069768 0 0)
(0.204262892 0 0)
(0.20761933 0 0)
(0.216876395 0 0)
(0.22097545 0 0)
(0.220545946 0 0)
(0.222745461 0 0)
(0.227356564 0 0)
(0.236564948 0 0)
(0.253771133 0 0)
(0.262075623 0 0)
(0.263516689 0 0)
(0.273305934 0 0)
(0.288106204 0 0)
(0.294482215 0 0)
(0.294505067 0 0)
(0.301773954 0 0)
(0.319320643 0 0)
(0.340437747 0 0)
(0.343735145 0 0)
(0.342189675 0 0)
(0.348251565 0 0)
(0.357176208 0 0)
(0.376618154 0 0)
(0.386444586 0 0)
(0.384362966 0 0)
(0.388952595 0 0)
(0.396703893 0 0)
(0.410293093 0 0)
(0.432842811 0 0)
(0.437117674 0 0)
(0.444272114 0 0)
(0.450948289 0 0)
(0.453378122 0 0)
(0.465124673 0 0)
(0.484980365 0 0)
(0.483496041 0 0)
(0.486026039 0 0)
(0.502665689 0 0)
(0.518385453 0 0)
(0.512634583 0 0)
(0.501592443 0 0)
(0.500428175 0 0)
(0.499221777 0 0)
(0.508254512 0 0)
(0.504960089 0 0)
(0.490161253 0 0)
(0.484667714 0 0)
(0.482249077 0 0)
(0.48903514 0 0)
(0.483211066 0 0)
(0.46679138 0 0)
(0.463432704 0 0)
(0.468370455 0 0)
(0.472263647 0 0)
(0.476261976 0 0)
(0.472493258 0 0)
(0.463515243 0 0)
(0.453215444 0 0)
(0.463824237 0 0)
(0.473193025 0 0)
(0.460083401 0 0)
(0.449330651 0 0)
(0.452609996 0 0)
(0.453696308 0 0)
(0.43882295 0 0)
(0.420740584 0 0)
(0.410842125 0 0)
(0.402919965 0 0)
(0.401534001 0 0)
(0.393033861 0 0)
(0.383192107 0 0)
(0.37706103 0 0)
(0.368715107 0 0)
(0.365765944 0 0)
(0.356442183 0 0)
(0.347539146 0 0)
(0.348966834 0 0)
(0.3484886 0 0)
(0.335885771 0 0)
(0.321022604 0 0)
(0.313164835 0 0)
(0.307481796 0 0)
(0.308036937 0 0)
(0.311040309 0 0)
(0.299436464 0 0)
(0.28151476 0 0)
(0.270917045 0 0)
(0.269633586 0 0)
(0.274470722 0 0)
(0.272845115 0 0)
(0.265431058 0 0)
(0.255888437 0 0)
(0.252534204 0 0)
(0.255003369 0 0)
(0.245853979 0 0)
(0.24256406 0 0)
(0.245603572 0 0)
(0.24087459 0 0)
(0.237695488 0 0)
(0.232264974 0 0)
(0.22598837 0 0)
(0.225370334 0 0)
(0.221404606 0 0)
(0.209481813 0 0)
(0.205940113 0 0)
(0.211354827 0 0)
(0.209834065 0 0)
(0.204944957 0 0)
(0.194703145 0 0)
(0.188276363 0 0)
(0.18765757 0 0)
(0.191775513 0 0)
(0.191144756 0 0)
(0.180468945 0 0)
(0.173035643 0 0)
(0.174301744 0 0)
(0.181147137 0 0)
(0.183775283 0 0)
(0.177849374 0 0)
(0.169953554 0 0)
(0.166838482 0 0)
(0.166504041 0 0)
(0.160651018 0 0)
(0.148789248 0 0)
(0.17003561 0 0)
(0.19423584 0 0)
(0.183966641 0 0)
(0.17254162 0 0)
(0.16717485 0 0)
(0.165746171 0 0)
(0.171022723 0 0)
(0.172226157 0 0)
(0.164151129 0 0)
(0.161117653 0 0)
(0.162105087 0 0)
(0.169188105 0 0)
(0.171750738 0 0)
(0.164890159 0 0)
(0.159935334 0 0)
(0.156340744 0 0)
(0.155377273 0 0)
(0.162203521 0 0)
(0.169268694 0 0)
(0.168862993 0 0)
(0.169134898 0 0)
(0.170310314 0 0)
(0.171435463 0 0)
(0.168277119 0 0)
(0.162617756 0 0)
(0.163436985 0 0)
(0.170530276 0 0)
(0.173844438 0 0)
(0.173219406 0 0)
(0.172253957 0 0)
(0.170760138 0 0)
(0.171382547 0 0)
(0.17741705 0 0)
(0.182240917 0 0)
(0.175853413 0 0)
(0.170451319 0 0)
(0.170528683 0 0)
(0.178522522 0 0)
(0.178721077 0 0)
(0.168517299 0 0)
(0.179952276 0 0)
(0.189350079 0 0)
(0.181979489 0 0)
(0.179375625 0 0)
(0.177152421 0 0)
(0.180764762 0 0)
(0.187279455 0 0)
(0.179314429 0 0)
(0.171226683 0 0)
(0.17102144 0 0)
(0.182447945 0 0)
(0.193978693 0 0)
(0.190574868 0 0)
(0.201038135 0 0)
(0.207999619 0 0)
(0.19758859 0 0)
(0.191015201 0 0)
(0.188032845 0 0)
(0.18376749 0 0)
(0.191891829 0 0)
(0.20580955 0 0)
(0.206136382 0 0)
(0.202697775 0 0)
(0.199781726 0 0)
(0.199521047 0 0)
(0.207786841 0 0)
(0.213149115 0 0)
(0.209233843 0 0)
(0.206912709 0 0)
(0.206362525 0 0)
(0.207019071 0 0)
(0.219969049 0 0)
(0.227360059 0 0)
(0.218115361 0 0)
(0.21479856 0 0)
(0.226111565 0 0)
(0.234010847 0 0)
(0.226078875 0 0)
(0.221844774 0 0)
(0.221748299 0 0)
(0.235400373 0 0)
(0.243067163 0 0)
(0.233630508 0 0)
(0.22967866 0 0)
(0.240782128 0 0)
(0.248188587 0 0)
(0.239190711 0 0)
(0.234481129 0 0)
(0.231667503 0 0)
(0.245618451 0 0)
(0.252613537 0 0)
(0.240944279 0 0)
(0.238806336 0 0)
(0.248875969 0 0)
(0.25974105 0 0)
(0.253882388 0 0)
(0.243493724 0 0)
(0.238235625 0 0)
(0.24666418 0 0)
(0.256300407 0 0)
(0.251379692 0 0)
(0.244621481 0 0)
(0.239133719 0 0)
(0.234614031 0 0)
(0.247540093 0 0)
(0.252559569 0 0)
(0.238932535 0 0)
(0.233822389 0 0)
(0.2431901 0 0)
(0.246338176 0 0)
(0.23442127 0 0)
(0.229317661 0 0)
(0.237609375 0 0)
(0.241319164 0 0)
(0.233217151 0 0)
(0.227756705 0 0)
(0.223536462 0 0)
(0.219833068 0 0)
(0.231211047 0 0)
(0.235189493 0 0)
(0.220516266 0 0)
(0.214160582 0 0)
(0.224817724 0 0)
(0.232463483 0 0)
(0.225755686 0 0)
(0.224589687 0 0)
(0.222892729 0 0)
(0.224101975 0 0)
(0.228939676 0 0)
(0.230764191 0 0)
(0.226758631 0 0)
(0.220104971 0 0)
(0.214962 0 0)
(0.210177607 0 0)
(0.222616145 0 0)
(0.233175347 0 0)
(0.221983062 0 0)
(0.216253056 0 0)
(0.211393064 0 0)
(0.226365575 0 0)
(0.235474948 0 0)
(0.220713511 0 0)
(0.214703809 0 0)
(0.22874108 0 0)
(0.235937282 0 0)
(0.223106325 0 0)
(0.219234989 0 0)
(0.232108954 0 0)
(0.247260423 0 0)
(0.242979411 0 0)
(0.233977627 0 0)
(0.22956636 0 0)
(0.244665462 0 0)
(0.255491203 0 0)
(0.24572704 0 0)
(0.241814904 0 0)
(0.257871072 0 0)
(0.269923407 0 0)
(0.263443524 0 0)
(0.262622892 0 0)
(0.261833169 0 0)
(0.280915278 0 0)
(0.296323267 0 0)
(0.287362752 0 0)
(0.285740225 0 0)
(0.304594998 0 0)
(0.318069181 0 0)
(0.312157936 0 0)
(0.312146453 0 0)
(0.312546235 0 0)
(0.33371418 0 0)
(0.349629235 0 0)
(0.341704873 0 0)
(0.341572692 0 0)
(0.361867021 0 0)
(0.374810312 0 0)
(0.367830556 0 0)
(0.366408987 0 0)
(0.367563748 0 0)
(0.390425105 0 0)
(0.40399475 0 0)
(0.39567025 0 0)
(0.397090695 0 0)
(0.416742363 0 0)
(0.426601092 0 0)
(0.419525831 0 0)
(0.421273433 0 0)
(0.439641609 0 0)
(0.448017994 0 0)
(0.440071652 0 0)
(0.439902926 0 0)
(0.458225321 0 0)
(0.466134007 0 0)
(0.454062701 0 0)
(0.447454476 0 0)
(0.446350298 0 0)
(0.467727834 0 0)
(0.475934676 0 0)
(0.463286637 0 0)
(0.461826364 0 0)
(0.47869813 0 0)
(0.483375779 0 0)
(0.471035464 0 0)
(0.471472234 0 0)
(0.486672216 0 0)
(0.499240715 0 0)
(0.490753848 0 0)
(0.477013351 0 0)
(0.473688405 0 0)
(0.489418058 0 0)
(0.495411281 0 0)
(0.482777006 0 0)
(0.474943542 0 0)
(0.470635768 0 0)
(0.487673291 0 0)
(0.496209197 0 0)
(0.482801675 0 0)
(0.479515144 0 0)
(0.491309445 0 0)
(0.495666867 0 0)
(0.485922388 0 0)
(0.479961093 0 0)
(0.472658857 0 0)
(0.467705051 0 0)
(0.481365786 0 0)
(0.487080764 0 0)
(0.475352044 0 0)
(0.470736042 0 0)
(0.465737764 0 0)
(0.464956951 0 0)
(0.472776515 0 0)
(0.468259846 0 0)
(0.454978175 0 0)
(0.472734245 0 0)
(0.481693854 0 0)
(0.465893815 0 0)
(0.462462228 0 0)
(0.478785741 0 0)
(0.484831795 0 0)
(0.47150225 0 0)
(0.467460476 0 0)
(0.462834464 0 0)
(0.458491918 0 0)
(0.467819878 0 0)
(0.478688004 0 0)
(0.475892332 0 0)
(0.471664298 0 0)
(0.460013851 0 0)
(0.451434625 0 0)
(0.453496566 0 0)
(0.472588652 0 0)
(0.48062949 0 0)
(0.461959504 0 0)
(0.453181844 0 0)
(0.453439275 0 0)
(0.459002831 0 0)
(0.452388598 0 0)
(0.438726621 0 0)
(0.457854982 0 0)
(0.46551965 0 0)
(0.447895365 0 0)
(0.444048717 0 0)
(0.447916448 0 0)
(0.45976626 0 0)
(0.466325985 0 0)
(0.45375024 0 0)
(0.439730913 0 0)
(0.438133174 0 0)
(0.451632253 0 0)
(0.452408729 0 0)
(0.434741426 0 0)
(0.424786901 0 0)
(0.423497587 0 0)
(0.438301277 0 0)
(0.45082369 0 0)
(0.43727979 0 0)
(0.422003957 0 0)
(0.416766286 0 0)
(0.409736411 0 0)
(0.404444635 0 0)
(0.419042118 0 0)
(0.43348726 0 0)
(0.421449649 0 0)
(0.406336107 0 0)
(0.402200822 0 0)
(0.414880815 0 0)
(0.417795422 0 0)
(0.404517848 0 0)
(0.401888856 0 0)
(0.411208597 0 0)
(0.412237557 0 0)
(0.402215516 0 0)
(0.398147786 0 0)
(0.393791374 0 0)
(0.389544423 0 0)
(0.401610423 0 0)
(0.405458262 0 0)
(0.390662917 0 0)
(0.383803088 0 0)
(0.379814872 0 0)
(0.394195797 0 0)
(0.400979339 0 0)
(0.386219263 0 0)
(0.379242919 0 0)
(0.375335356 0 0)
(0.389904587 0 0)
(0.397056833 0 0)
(0.381336203 0 0)
(0.372761851 0 0)
(0.370510437 0 0)
(0.382294468 0 0)
(0.391333426 0 0)
(0.384644321 0 0)
)
;

boundaryField
{
    closed
    {
        type            noSlip;
    }
    open
    {
        type            inletOutlet;
        inletValue      nonuniform List<vector> 0();
        value           nonuniform List<vector> 0();
    }
    sides
    {
        type            empty;
    }
    procBoundary3to2
    {
        type            processor;
        value           uniform (0.000772311491 0 0);
    }
    procBoundary3to4
    {
        type            processor;
        value           uniform (0.393872968 0 0);
    }
}


// ************************************************************************* //
