/*--------------------------------*- C++ -*----------------------------------*\
| =========                 |                                                 |
| \\      /  F ield         | OpenFOAM: The Open Source CFD Toolbox           |
|  \\    /   O peration     | Version:  2306                                  |
|   \\  /    A nd           | Website:  www.openfoam.com                      |
|    \\/     M anipulation  |                                                 |
\*---------------------------------------------------------------------------*/
FoamFile
{
    version     2.0;
    format      ascii;
    arch        "LSB;label=32;scalar=64";
    class       volScalarField;
    location    "0.00124";
    object      p;
}
// * * * * * * * * * * * * * * * * * * * * * * * * * * * * * * * * * * * * * //

dimensions      [1 -1 -2 0 0 0 0];

internalField   nonuniform List<scalar> 
530
(
101448.532
101445.927
101443.509
101441.307
101439.347
101437.648
101436.226
101435.091
101434.247
101433.692
101433.423
101433.429
101433.697
101434.211
101434.952
101435.899
101437.033
101438.334
101439.78
101441.356
101443.046
101444.836
101446.718
101448.685
101450.737
101452.874
101455.102
101457.429
101459.866
101462.43
101465.136
101468.002
101471.047
101474.291
101477.754
101481.454
101485.41
101489.637
101494.148
101498.957
101504.073
101509.5
101515.245
101521.308
101527.687
101534.38
101541.381
101548.683
101556.278
101564.156
101572.307
101580.721
101589.388
101598.299
101607.446
101616.819
101626.414
101636.226
101646.249
101656.483
101666.926
101677.579
101688.441
101699.516
101710.805
101722.311
101734.036
101745.983
101758.151
101770.543
101783.156
101795.989
101809.035
101822.29
101835.744
101849.388
101863.209
101877.191
101891.32
101905.578
101919.943
101934.394
101948.909
101963.466
101978.04
101992.608
102007.145
102021.629
102036.036
102050.344
102064.533
102078.582
102092.472
102106.187
102119.711
102133.031
102146.134
102159.01
102171.649
102184.043
102196.185
102208.067
102219.705
102231.06
102242.159
102252.99
102263.553
102273.849
102283.877
102293.639
102303.136
102312.371
102321.346
102330.064
102338.529
102346.746
102354.719
102362.455
102369.961
102377.244
102384.315
102391.182
102397.857
102404.353
102410.682
102416.86
102422.901
102428.821
102434.639
102440.369
102446.032
102451.643
102457.221
102462.782
102468.343
102473.92
102479.525
102485.171
102490.869
102496.626
102502.449
102508.34
102514.299
102520.323
102526.406
102532.537
102538.703
102544.887
102551.068
102557.222
102563.32
102569.332
102575.224
102580.956
102586.49
102591.781
102596.786
102601.455
102605.74
102609.591
102612.956
102615.783
102618.021
102619.615
102620.516
102620.672
102620.034
102618.554
102616.187
102612.889
102608.621
102603.348
102597.037
102589.66
102581.184
102571.59
102560.856
102548.971
102535.927
102521.721
102506.353
102489.829
102472.158
102453.355
102433.437
102412.427
102390.352
102367.242
102343.13
102318.052
102292.049
102265.161
102237.433
102208.91
102179.639
102149.667
102119.043
102087.815
102056.031
102023.737
101990.982
101957.809
101924.262
101890.384
101856.213
101821.788
101787.144
101752.314
101717.329
101682.217
101647.005
101611.716
101576.372
101540.995
101505.602
101470.212
101434.84
101399.503
101364.215
101328.992
101293.849
101258.802
101223.867
101189.062
101154.405
101119.918
101085.622
101051.541
101017.701
100984.129
100950.857
100917.917
100885.342
100853.169
100821.436
100790.183
100759.451
100729.281
100699.718
100670.804
100642.584
100615.1
100588.395
100562.511
100537.489
100513.368
100490.184
100467.971
100446.761
100426.583
100407.462
100389.419
100372.473
100356.638
100341.925
100328.339
100315.883
100304.554
100294.347
100285.252
100277.256
100270.34
100264.484
100259.664
100255.853
100253.02
100251.133
100250.157
100250.055
100250.788
100252.317
100254.601
100257.597
100261.264
100265.558
100270.438
100275.862
100281.788
100288.176
100294.986
100302.179
100309.721
100317.574
100325.707
100334.088
100342.687
100351.478
100360.436
100369.538
100378.765
100388.097
100397.519
100407.017
100416.581
100426.2
100435.868
100445.579
100455.329
100465.116
100474.941
100484.803
100494.706
100504.653
100514.648
100524.695
100534.802
100544.972
100555.214
100565.534
100575.937
100586.43
100597.019
100607.709
100618.506
100629.414
100640.435
100651.573
100662.829
100674.204
100685.698
100697.308
100709.034
100720.87
100732.813
100744.856
100756.993
100769.215
100781.515
100793.882
100806.305
100818.774
100831.276
100843.798
100856.327
100868.85
100881.352
100893.819
100906.236
100918.589
100930.862
100943.043
100955.116
100967.067
100978.882
100990.549
101002.054
101013.385
101024.531
101035.481
101046.224
101056.751
101067.054
101077.124
101086.955
101096.541
101105.876
101114.956
101123.778
101132.339
101140.637
101148.672
101156.443
101163.951
101171.197
101178.184
101184.914
101191.39
101197.617
101203.599
101209.341
101214.849
101220.128
101225.184
101230.024
101234.655
101239.083
101243.317
101247.362
101251.226
101254.917
101258.441
101261.807
101265.021
101268.09
101271.022
101273.824
101276.501
101279.062
101281.511
101283.856
101286.102
101288.255
101290.32
101292.303
101294.209
101296.042
101297.807
101299.508
101301.149
101302.735
101304.268
101305.753
101307.192
101308.588
101309.945
101311.264
101312.549
101313.801
101315.023
101316.217
101317.385
101318.527
101319.647
101320.746
101321.824
101322.884
101323.927
101324.953
101325.964
101326.961
101327.946
101328.918
101329.879
101330.829
101331.77
101332.703
101333.627
101334.544
101335.454
101336.358
101337.257
101338.151
101339.041
101339.927
101340.811
101341.691
101342.57
101343.446
101344.322
101345.197
101346.072
101346.947
101347.822
101348.699
101349.576
101350.456
101351.337
101352.221
101353.107
101353.996
101354.888
101355.784
101356.684
101357.621
101358.63
101359.716
101360.887
101362.149
101363.512
101364.983
101366.572
101368.291
101370.151
101372.164
101374.344
101376.707
101379.267
101382.04
101385.044
101388.293
101391.804
101395.591
101399.663
101404.029
101408.689
101413.639
101418.862
101424.333
101430.007
101435.821
101441.679
101447.443
101452.916
101457.835
101461.872
101464.662
101465.859
101465.208
101462.599
101458.083
101451.827
101443.995
101434.639
101423.997
101413.467
101404.972
101397.006
101385.554
101371.493
101360.92
101359.263
101370.474
101395.064
101428.559
101458.643
101479.829
101477.14
101444.924
101401.023
101367.035
101339.818
101322.867
101335.298
101371.671
101402.232
101405.575
101397.047
101400.887
101420.436
101436.751
101444.324
101452.84
101448.358
101428.47
101413.302
101407.326
101396.25
101390.885
101417.42
101451.903
)
;

boundaryField
{
    closed
    {
        type            zeroGradient;
    }
    open
    {
        type            waveTransmissive;
        gamma           1.25;
        fieldInf        101325;
        lInf            1;
        value           uniform 101453.262;
    }
    sides
    {
        type            empty;
    }
    procBoundary5to4
    {
        type            processor;
        value           uniform 101451.29;
    }
}


// ************************************************************************* //
