/*--------------------------------*- C++ -*----------------------------------*\
| =========                 |                                                 |
| \\      /  F ield         | OpenFOAM: The Open Source CFD Toolbox           |
|  \\    /   O peration     | Version:  2306                                  |
|   \\  /    A nd           | Website:  www.openfoam.com                      |
|    \\/     M anipulation  |                                                 |
\*---------------------------------------------------------------------------*/
FoamFile
{
    version     2.0;
    format      ascii;
    arch        "LSB;label=32;scalar=64";
    class       volScalarField;
    location    "0.00124";
    object      prefDZ_H2O;
}
// * * * * * * * * * * * * * * * * * * * * * * * * * * * * * * * * * * * * * //

dimensions      [1 -1 -1 0 0 0 0];

internalField   nonuniform List<scalar> 
530
(
2.20731354e-06
2.20988142e-06
2.21239811e-06
2.21487232e-06
2.21728397e-06
2.21966988e-06
2.22198283e-06
2.22428552e-06
2.22650575e-06
2.22872981e-06
2.23085193e-06
2.23290635e-06
2.23486699e-06
2.23684702e-06
2.23873062e-06
2.24064014e-06
2.24244978e-06
2.24429298e-06
2.24603155e-06
2.24781234e-06
2.24956528e-06
2.25140216e-06
2.2531041e-06
2.25488142e-06
2.25651998e-06
2.25824141e-06
2.2598195e-06
2.2614885e-06
2.26299645e-06
2.26459055e-06
2.26603363e-06
2.26757633e-06
2.2689657e-06
2.27045894e-06
2.27179675e-06
2.27324233e-06
2.2745307e-06
2.27593038e-06
2.27717134e-06
2.27852693e-06
2.27972238e-06
2.28103568e-06
2.28218739e-06
2.28346018e-06
2.28456985e-06
2.28580386e-06
2.28687314e-06
2.28807006e-06
2.28910059e-06
2.29026194e-06
2.29125555e-06
2.29238253e-06
2.29334135e-06
2.29443472e-06
2.29536087e-06
2.29641198e-06
2.29727312e-06
2.29826529e-06
2.29909535e-06
2.30005705e-06
2.3008583e-06
2.30178906e-06
2.30256335e-06
2.30346313e-06
2.30421188e-06
2.30508102e-06
2.30580514e-06
2.30664471e-06
2.30734404e-06
2.30815669e-06
2.30882893e-06
2.30962023e-06
2.31025977e-06
2.31103907e-06
2.31163747e-06
2.31241571e-06
2.31296661e-06
2.3137477e-06
2.31425534e-06
2.31496121e-06
2.31546169e-06
2.31615624e-06
2.31668954e-06
2.31731815e-06
2.31786383e-06
2.31844298e-06
2.31898776e-06
2.31952873e-06
2.32006599e-06
2.32057498e-06
2.32110202e-06
2.32158199e-06
2.32209852e-06
2.32255011e-06
2.32305777e-06
2.32347973e-06
2.32398171e-06
2.32437162e-06
2.32487107e-06
2.32522767e-06
2.32572475e-06
2.32605027e-06
2.32653636e-06
2.32681373e-06
2.32728075e-06
2.32756739e-06
2.32800211e-06
2.32828308e-06
2.32869545e-06
2.32896328e-06
2.3293581e-06
2.32961034e-06
2.32998933e-06
2.33022574e-06
2.33058917e-06
2.33081035e-06
2.33115793e-06
2.3313647e-06
2.33169605e-06
2.33188916e-06
2.33220399e-06
2.33238403e-06
2.33268223e-06
2.33284962e-06
2.3331312e-06
2.33328625e-06
2.33355132e-06
2.33369424e-06
2.33394297e-06
2.33407392e-06
2.33430654e-06
2.33442564e-06
2.33464239e-06
2.33474974e-06
2.33495089e-06
2.33504658e-06
2.33523238e-06
2.3353165e-06
2.33548721e-06
2.33555986e-06
2.33571573e-06
2.335777e-06
2.33591829e-06
2.33596828e-06
2.33609522e-06
2.33613405e-06
2.33624687e-06
2.33627466e-06
2.33637357e-06
2.33639047e-06
2.33647566e-06
2.33648183e-06
2.33655347e-06
2.33654914e-06
2.33660732e-06
2.33659275e-06
2.33663753e-06
2.33661303e-06
2.33664449e-06
2.33661025e-06
2.33662869e-06
2.33658446e-06
2.33659087e-06
2.33653549e-06
2.3365318e-06
2.33646337e-06
2.33645117e-06
2.33636988e-06
2.3363467e-06
2.33625872e-06
2.33622048e-06
2.33612618e-06
2.33608396e-06
2.33597931e-06
2.33591593e-06
2.33580196e-06
2.33572794e-06
2.33560983e-06
2.33552226e-06
2.33539808e-06
2.33529834e-06
2.33516707e-06
2.33505614e-06
2.33491748e-06
2.33479591e-06
2.3346499e-06
2.33451806e-06
2.3343648e-06
2.33422306e-06
2.33406268e-06
2.3339114e-06
2.333744e-06
2.33358359e-06
2.33340926e-06
2.3332401e-06
2.33305896e-06
2.33288145e-06
2.33269362e-06
2.33250812e-06
2.33231377e-06
2.33212061e-06
2.33191995e-06
2.33171942e-06
2.33151272e-06
2.33130509e-06
2.33109261e-06
2.3308782e-06
2.33066007e-06
2.33044445e-06
2.33022806e-06
2.33000229e-06
2.32977494e-06
2.32954399e-06
2.32931161e-06
2.32907569e-06
2.32883853e-06
2.32859768e-06
2.32835599e-06
2.32811032e-06
2.32786433e-06
2.327614e-06
2.32736384e-06
2.32710906e-06
2.32685487e-06
2.32659585e-06
2.32633775e-06
2.32607471e-06
2.32581284e-06
2.32554597e-06
2.32528046e-06
2.32500996e-06
2.32474097e-06
2.32446701e-06
2.32419469e-06
2.32391746e-06
2.32364195e-06
2.32336164e-06
2.32308309e-06
2.32279987e-06
2.32251844e-06
2.32223246e-06
2.32194833e-06
2.32165972e-06
2.32137307e-06
2.32108194e-06
2.32079299e-06
2.3204994e-06
2.32020919e-06
2.31991405e-06
2.3196208e-06
2.31932296e-06
2.31902675e-06
2.31872633e-06
2.31842741e-06
2.31812457e-06
2.31782314e-06
2.31751803e-06
2.3172143e-06
2.31690708e-06
2.31660124e-06
2.31629206e-06
2.31598428e-06
2.31567333e-06
2.31536378e-06
2.31505123e-06
2.31474007e-06
2.31442608e-06
2.31411349e-06
2.31379824e-06
2.31348437e-06
2.31316801e-06
2.31285304e-06
2.31253574e-06
2.31221982e-06
2.31190175e-06
2.31158505e-06
2.31126635e-06
2.31094904e-06
2.31062987e-06
2.3103121e-06
2.30999261e-06
2.30967453e-06
2.3093549e-06
2.30903663e-06
2.30871706e-06
2.30839866e-06
2.30807203e-06
2.30774403e-06
2.30741545e-06
2.30708847e-06
2.30676089e-06
2.30643501e-06
2.3061086e-06
2.30578391e-06
2.30545879e-06
2.30513539e-06
2.3048117e-06
2.30448971e-06
2.30416754e-06
2.30384708e-06
2.30352655e-06
2.30320772e-06
2.30288894e-06
2.30257185e-06
2.30225491e-06
2.30193969e-06
2.30162469e-06
2.30131142e-06
2.30099847e-06
2.30068725e-06
2.30037644e-06
2.30006737e-06
2.2997588e-06
2.29945198e-06
2.29914573e-06
2.29884124e-06
2.29853741e-06
2.29823534e-06
2.297934e-06
2.29763444e-06
2.29733569e-06
2.29703871e-06
2.29674261e-06
2.29644831e-06
2.29615494e-06
2.29586338e-06
2.29557282e-06
2.29528407e-06
2.29499639e-06
2.29471052e-06
2.29442579e-06
2.29414288e-06
2.29386116e-06
2.29358125e-06
2.29330263e-06
2.29302578e-06
2.2927503e-06
2.29247658e-06
2.29220431e-06
2.29193376e-06
2.29166475e-06
2.29139744e-06
2.29113174e-06
2.29086772e-06
2.29060536e-06
2.29034469e-06
2.29008767e-06
2.28983232e-06
2.28957855e-06
2.28932635e-06
2.28907576e-06
2.28882679e-06
2.28857944e-06
2.28833377e-06
2.28808971e-06
2.2878474e-06
2.28760671e-06
2.2873678e-06
2.28713052e-06
2.28689507e-06
2.28666127e-06
2.28642931e-06
2.28619902e-06
2.2859706e-06
2.28574388e-06
2.28551904e-06
2.28529591e-06
2.28507467e-06
2.28485518e-06
2.28463758e-06
2.28442175e-06
2.28420782e-06
2.28399566e-06
2.28378542e-06
2.28357697e-06
2.28337043e-06
2.2831657e-06
2.28296288e-06
2.28276189e-06
2.2825628e-06
2.28236555e-06
2.28217019e-06
2.28197669e-06
2.28178507e-06
2.28159532e-06
2.28140745e-06
2.28122144e-06
2.28103732e-06
2.28085504e-06
2.28067466e-06
2.28049611e-06
2.2803152e-06
2.28013247e-06
2.27995175e-06
2.27977298e-06
2.27959618e-06
2.27942134e-06
2.27924844e-06
2.2790775e-06
2.27890848e-06
2.2787414e-06
2.27857624e-06
2.27841299e-06
2.27825165e-06
2.2780922e-06
2.27793464e-06
2.27777896e-06
2.27762515e-06
2.2774732e-06
2.27732309e-06
2.27717483e-06
2.2770284e-06
2.27688379e-06
2.27674099e-06
2.27659999e-06
2.27646077e-06
2.27632334e-06
2.27618767e-06
2.27605376e-06
2.27592159e-06
2.27579115e-06
2.27566243e-06
2.27553543e-06
2.27541011e-06
2.27528649e-06
2.27516454e-06
2.27504425e-06
2.2749256e-06
2.2748086e-06
2.27469321e-06
2.27457944e-06
2.27446726e-06
2.27435667e-06
2.27424766e-06
2.2741402e-06
2.27403428e-06
2.2739299e-06
2.27382704e-06
2.27372569e-06
2.27362583e-06
2.27352745e-06
2.27343054e-06
2.27333508e-06
2.27324105e-06
2.27314846e-06
2.27305728e-06
2.27296749e-06
2.27287909e-06
2.27279207e-06
2.2727064e-06
2.27262207e-06
2.27253908e-06
2.27245731e-06
2.27237391e-06
2.27228609e-06
2.27219377e-06
2.27209685e-06
2.27199527e-06
2.27188897e-06
2.27177797e-06
2.27166227e-06
2.27154197e-06
2.27141715e-06
2.27128802e-06
2.27115479e-06
2.27101779e-06
2.27087737e-06
2.27073403e-06
2.27058827e-06
2.27044079e-06
2.27029225e-06
2.27014355e-06
2.26999553e-06
2.26984928e-06
2.26970577e-06
2.26956626e-06
2.2694318e-06
2.26930369e-06
2.26918297e-06
2.26907087e-06
2.26896825e-06
2.26887606e-06
2.26879483e-06
2.26872506e-06
2.26866672e-06
2.2686197e-06
2.26858337e-06
2.26855695e-06
2.26853923e-06
2.26852895e-06
2.26852454e-06
2.26852467e-06
2.26852768e-06
2.26853271e-06
2.26853846e-06
2.26854409e-06
2.26855095e-06
2.26854979e-06
2.26854658e-06
2.26854497e-06
2.2685442e-06
2.26854397e-06
2.26854383e-06
2.2685438e-06
2.26854378e-06
2.26854378e-06
2.26854378e-06
2.26854378e-06
2.26854378e-06
2.26854378e-06
2.26854378e-06
2.26854378e-06
2.26854378e-06
2.26854378e-06
2.26854378e-06
2.26854378e-06
2.26854378e-06
2.26854378e-06
2.26854378e-06
2.26854378e-06
2.26854378e-06
2.26854378e-06
2.26854378e-06
2.26854378e-06
2.26854378e-06
2.26854378e-06
2.26854378e-06
2.26854378e-06
2.26854378e-06
2.26854378e-06
)
;

boundaryField
{
    closed
    {
        type            calculated;
        value           nonuniform List<scalar> 0();
    }
    open
    {
        type            calculated;
        value           uniform 2.26854378e-06;
    }
    sides
    {
        type            empty;
    }
    procBoundary5to4
    {
        type            processor;
        value           uniform 2.20468498e-06;
    }
}


// ************************************************************************* //
