/*--------------------------------*- C++ -*----------------------------------*\
| =========                 |                                                 |
| \\      /  F ield         | OpenFOAM: The Open Source CFD Toolbox           |
|  \\    /   O peration     | Version:  2306                                  |
|   \\  /    A nd           | Website:  www.openfoam.com                      |
|    \\/     M anipulation  |                                                 |
\*---------------------------------------------------------------------------*/
FoamFile
{
    version     2.0;
    format      ascii;
    arch        "LSB;label=32;scalar=64";
    class       volScalarField;
    location    "0.00124";
    object      prefDPV_H2;
}
// * * * * * * * * * * * * * * * * * * * * * * * * * * * * * * * * * * * * * //

dimensions      [1 -1 -1 0 0 0 0];

internalField   nonuniform List<scalar> 
530
(
-9.46075931e-05
-9.46641321e-05
-9.4717828e-05
-9.4772323e-05
-9.48239375e-05
-9.48765431e-05
-9.49261929e-05
-9.4977052e-05
-9.50248507e-05
-9.50740848e-05
-9.51198554e-05
-9.51649805e-05
-9.52069669e-05
-9.52505331e-05
-9.52910147e-05
-9.53331111e-05
-9.53721337e-05
-9.54128567e-05
-9.54504707e-05
-9.54899035e-05
-9.55279433e-05
-9.55686286e-05
-9.56056485e-05
-9.56450686e-05
-9.56807995e-05
-9.5719041e-05
-9.5753534e-05
-9.5790685e-05
-9.58232301e-05
-9.585789e-05
-9.5888738e-05
-9.59222963e-05
-9.59520226e-05
-9.59845258e-05
-9.6013165e-05
-9.6044652e-05
-9.60722429e-05
-9.610275e-05
-9.61293318e-05
-9.61588959e-05
-9.61845061e-05
-9.62131639e-05
-9.6237838e-05
-9.6265626e-05
-9.62893979e-05
-9.63163521e-05
-9.63392551e-05
-9.63654099e-05
-9.63874795e-05
-9.64128638e-05
-9.64341436e-05
-9.64587743e-05
-9.64793193e-05
-9.65032012e-05
-9.65230613e-05
-9.65459351e-05
-9.65641277e-05
-9.65855167e-05
-9.66029465e-05
-9.66236593e-05
-9.66403881e-05
-9.66603976e-05
-9.66764746e-05
-9.66957648e-05
-9.67112318e-05
-9.67297882e-05
-9.67446876e-05
-9.67624978e-05
-9.67768611e-05
-9.67939399e-05
-9.68077485e-05
-9.68241945e-05
-9.6837319e-05
-9.68533763e-05
-9.68655589e-05
-9.68815794e-05
-9.68925867e-05
-9.69087429e-05
-9.69186895e-05
-9.69327811e-05
-9.69425836e-05
-9.69564667e-05
-9.69671217e-05
-9.69793802e-05
-9.69902346e-05
-9.70013421e-05
-9.70120651e-05
-9.7022277e-05
-9.70327487e-05
-9.7042182e-05
-9.70523588e-05
-9.70610779e-05
-9.70709394e-05
-9.70789826e-05
-9.70885339e-05
-9.70958989e-05
-9.71051955e-05
-9.71118278e-05
-9.71209582e-05
-9.71268156e-05
-9.71357751e-05
-9.71409559e-05
-9.71493606e-05
-9.71533647e-05
-9.7161297e-05
-9.71651447e-05
-9.71724598e-05
-9.71759124e-05
-9.71827378e-05
-9.71857101e-05
-9.71920933e-05
-9.71945738e-05
-9.72005234e-05
-9.72025238e-05
-9.72080343e-05
-9.72095716e-05
-9.72146352e-05
-9.72157246e-05
-9.72203355e-05
-9.72209892e-05
-9.72251443e-05
-9.72253711e-05
-9.722907e-05
-9.72288768e-05
-9.72321209e-05
-9.72315125e-05
-9.72343049e-05
-9.72332853e-05
-9.72356295e-05
-9.72342022e-05
-9.72361026e-05
-9.72342705e-05
-9.72357316e-05
-9.72334977e-05
-9.72345243e-05
-9.72318916e-05
-9.72324884e-05
-9.72294599e-05
-9.72296319e-05
-9.72262107e-05
-9.72259626e-05
-9.7222152e-05
-9.72214887e-05
-9.72172922e-05
-9.72162183e-05
-9.72116398e-05
-9.72101599e-05
-9.72052033e-05
-9.72033219e-05
-9.71979918e-05
-9.71957131e-05
-9.71900141e-05
-9.71873424e-05
-9.71812797e-05
-9.7178219e-05
-9.71717976e-05
-9.7168353e-05
-9.71615761e-05
-9.71577564e-05
-9.71506202e-05
-9.71464457e-05
-9.71389283e-05
-9.71344434e-05
-9.71264933e-05
-9.71217678e-05
-9.71133244e-05
-9.71083908e-05
-9.70994993e-05
-9.70942218e-05
-9.70851481e-05
-9.70793906e-05
-9.70700689e-05
-9.70643354e-05
-9.70548584e-05
-9.70481873e-05
-9.70382823e-05
-9.70313101e-05
-9.70213746e-05
-9.70138913e-05
-9.70038579e-05
-9.69959085e-05
-9.69857283e-05
-9.69773566e-05
-9.69670058e-05
-9.69582415e-05
-9.694771e-05
-9.69385754e-05
-9.69278591e-05
-9.69183731e-05
-9.690747e-05
-9.68976506e-05
-9.688656e-05
-9.68764242e-05
-9.68651465e-05
-9.68547104e-05
-9.68432472e-05
-9.68325263e-05
-9.68208801e-05
-9.68098891e-05
-9.67980638e-05
-9.67868163e-05
-9.67748171e-05
-9.6763326e-05
-9.67511591e-05
-9.67394374e-05
-9.67271082e-05
-9.67151717e-05
-9.67026842e-05
-9.66906315e-05
-9.66780972e-05
-9.66657179e-05
-9.66529002e-05
-9.66403291e-05
-9.66273626e-05
-9.66146128e-05
-9.66015006e-05
-9.65885799e-05
-9.65753285e-05
-9.65622436e-05
-9.65488595e-05
-9.65356174e-05
-9.65221066e-05
-9.65087152e-05
-9.6495083e-05
-9.64815502e-05
-9.64678019e-05
-9.64541358e-05
-9.64402768e-05
-9.64264852e-05
-9.6412521e-05
-9.63986114e-05
-9.63845475e-05
-9.63705276e-05
-9.63563697e-05
-9.63422467e-05
-9.63280004e-05
-9.63137815e-05
-9.62994526e-05
-9.62851447e-05
-9.62707391e-05
-9.62563488e-05
-9.62418723e-05
-9.62274061e-05
-9.62128649e-05
-9.61983283e-05
-9.6183729e-05
-9.61691274e-05
-9.61544965e-05
-9.61398531e-05
-9.61251549e-05
-9.61104429e-05
-9.60956801e-05
-9.6080906e-05
-9.60660857e-05
-9.60512555e-05
-9.60363845e-05
-9.60215043e-05
-9.6006589e-05
-9.59916652e-05
-9.59767118e-05
-9.59617506e-05
-9.59467652e-05
-9.5931773e-05
-9.59167615e-05
-9.59017446e-05
-9.5886713e-05
-9.58716775e-05
-9.58566317e-05
-9.58415838e-05
-9.58265298e-05
-9.58114755e-05
-9.57964191e-05
-9.57813646e-05
-9.57663117e-05
-9.57512628e-05
-9.57362193e-05
-9.5721182e-05
-9.57061536e-05
-9.56911337e-05
-9.56761262e-05
-9.56611297e-05
-9.56461486e-05
-9.56311813e-05
-9.56162319e-05
-9.56013003e-05
-9.5586387e-05
-9.55713502e-05
-9.55562848e-05
-9.55412516e-05
-9.55262504e-05
-9.55112817e-05
-9.54963488e-05
-9.54814499e-05
-9.54665896e-05
-9.54517656e-05
-9.54369823e-05
-9.54222379e-05
-9.54075361e-05
-9.53928757e-05
-9.53782599e-05
-9.53636878e-05
-9.53491624e-05
-9.53346829e-05
-9.5320252e-05
-9.53058693e-05
-9.5291537e-05
-9.52772551e-05
-9.52630254e-05
-9.52488482e-05
-9.5234725e-05
-9.52206562e-05
-9.52066431e-05
-9.51926865e-05
-9.51787872e-05
-9.51649462e-05
-9.51511641e-05
-9.51374422e-05
-9.51237806e-05
-9.51101811e-05
-9.50966433e-05
-9.50831693e-05
-9.50697584e-05
-9.5056413e-05
-9.50431319e-05
-9.50299179e-05
-9.50167696e-05
-9.50036899e-05
-9.49906771e-05
-9.49777344e-05
-9.49648596e-05
-9.49520565e-05
-9.49393222e-05
-9.49266612e-05
-9.49140698e-05
-9.49015533e-05
-9.4889107e-05
-9.48767373e-05
-9.48644383e-05
-9.48522175e-05
-9.48400677e-05
-9.48279978e-05
-9.48159994e-05
-9.48040822e-05
-9.47922371e-05
-9.47804743e-05
-9.47687841e-05
-9.47572258e-05
-9.47457406e-05
-9.47343356e-05
-9.47230016e-05
-9.47117488e-05
-9.47005681e-05
-9.46894693e-05
-9.46784439e-05
-9.46675008e-05
-9.46566325e-05
-9.46458468e-05
-9.4635137e-05
-9.46245104e-05
-9.46139606e-05
-9.46034943e-05
-9.45931057e-05
-9.45828011e-05
-9.45725748e-05
-9.45624329e-05
-9.45523698e-05
-9.45423916e-05
-9.45324926e-05
-9.45226788e-05
-9.45129446e-05
-9.45032959e-05
-9.44937269e-05
-9.44842438e-05
-9.44748406e-05
-9.44655233e-05
-9.4456286e-05
-9.44471348e-05
-9.44380637e-05
-9.44290786e-05
-9.44201736e-05
-9.44113546e-05
-9.44026155e-05
-9.43939625e-05
-9.43853892e-05
-9.43769017e-05
-9.43684938e-05
-9.43601714e-05
-9.43519285e-05
-9.43437706e-05
-9.43356922e-05
-9.43276981e-05
-9.4319686e-05
-9.43116749e-05
-9.43037453e-05
-9.42959022e-05
-9.428814e-05
-9.42804637e-05
-9.42728676e-05
-9.42653568e-05
-9.42579255e-05
-9.4250579e-05
-9.42433112e-05
-9.42361274e-05
-9.42290218e-05
-9.42219993e-05
-9.42150543e-05
-9.42081915e-05
-9.42014056e-05
-9.4194701e-05
-9.41880725e-05
-9.41815244e-05
-9.41750516e-05
-9.41686582e-05
-9.41623394e-05
-9.41560991e-05
-9.41499324e-05
-9.41438433e-05
-9.41378269e-05
-9.4131887e-05
-9.41260191e-05
-9.41202266e-05
-9.41145052e-05
-9.41088581e-05
-9.41032811e-05
-9.40977774e-05
-9.40923429e-05
-9.40869807e-05
-9.40816866e-05
-9.40764636e-05
-9.40713079e-05
-9.40662221e-05
-9.40612026e-05
-9.40562519e-05
-9.40513665e-05
-9.40465487e-05
-9.40417953e-05
-9.40371083e-05
-9.40324845e-05
-9.40279261e-05
-9.402343e-05
-9.40189979e-05
-9.40146271e-05
-9.40103192e-05
-9.40060715e-05
-9.40018856e-05
-9.39977587e-05
-9.39936925e-05
-9.39896843e-05
-9.39857355e-05
-9.39818436e-05
-9.397801e-05
-9.39742324e-05
-9.39705078e-05
-9.39667036e-05
-9.39626949e-05
-9.39584745e-05
-9.39540388e-05
-9.39493821e-05
-9.39445027e-05
-9.39393973e-05
-9.39340669e-05
-9.39285115e-05
-9.39227359e-05
-9.39167444e-05
-9.39105467e-05
-9.39041527e-05
-9.38975778e-05
-9.38908393e-05
-9.38839592e-05
-9.38769632e-05
-9.38698808e-05
-9.38627468e-05
-9.38555984e-05
-9.38484795e-05
-9.38414339e-05
-9.38345138e-05
-9.38277675e-05
-9.38212517e-05
-9.38150154e-05
-9.38091152e-05
-9.38035942e-05
-9.37985017e-05
-9.37938679e-05
-9.3789726e-05
-9.37860862e-05
-9.37829578e-05
-9.37803264e-05
-9.37781738e-05
-9.37764614e-05
-9.37751467e-05
-9.37741747e-05
-9.37734899e-05
-9.37730335e-05
-9.37727529e-05
-9.37726022e-05
-9.37725321e-05
-9.37725457e-05
-9.37724471e-05
-9.3772323e-05
-9.37722608e-05
-9.37722312e-05
-9.37722228e-05
-9.37722174e-05
-9.3772216e-05
-9.37722155e-05
-9.37722153e-05
-9.37722153e-05
-9.37722152e-05
-9.37722152e-05
-9.37722152e-05
-9.37722152e-05
-9.37722152e-05
-9.37722152e-05
-9.37722152e-05
-9.37722152e-05
-9.37722152e-05
-9.37722152e-05
-9.37722152e-05
-9.37722152e-05
-9.37722152e-05
-9.37722152e-05
-9.37722152e-05
-9.37722152e-05
-9.37722152e-05
-9.37722152e-05
-9.37722152e-05
-9.37722152e-05
-9.37722152e-05
-9.37722152e-05
-9.37722152e-05
)
;

boundaryField
{
    closed
    {
        type            calculated;
        value           nonuniform List<scalar> 0();
    }
    open
    {
        type            calculated;
        value           uniform -9.37722152e-05;
    }
    sides
    {
        type            empty;
    }
    procBoundary5to4
    {
        type            processor;
        value           uniform -9.45516897e-05;
    }
}


// ************************************************************************* //
