/*--------------------------------*- C++ -*----------------------------------*\
| =========                 |                                                 |
| \\      /  F ield         | OpenFOAM: The Open Source CFD Toolbox           |
|  \\    /   O peration     | Version:  2306                                  |
|   \\  /    A nd           | Website:  www.openfoam.com                      |
|    \\/     M anipulation  |                                                 |
\*---------------------------------------------------------------------------*/
FoamFile
{
    version     2.0;
    format      ascii;
    arch        "LSB;label=32;scalar=64";
    class       volScalarField;
    location    "0.00094";
    object      T;
}
// * * * * * * * * * * * * * * * * * * * * * * * * * * * * * * * * * * * * * //

dimensions      [0 0 0 1 0 0 0];

internalField   nonuniform List<scalar> 
530
(
342.838601
331.514183
329.60321
329.576133
329.573431
329.573358
329.573353
329.573353
329.573353
329.573353
329.573353
329.573353
329.573353
329.573353
329.573353
329.573353
329.573353
329.573353
329.573353
329.573353
329.573353
329.573353
329.573353
329.573353
329.573353
329.573353
329.573353
329.573353
329.573353
329.573353
329.573353
329.573353
329.573353
329.573353
329.573353
329.573353
329.573353
329.573353
329.573353
329.573353
329.573353
329.573353
329.573353
329.573353
329.573353
329.573353
329.573353
329.573353
329.573353
329.573353
329.573353
329.573353
329.573353
329.573353
329.573353
329.573353
329.573353
329.573353
329.573353
329.573353
329.573353
329.573353
329.573353
329.573353
329.573353
329.573353
329.573353
329.573354
329.573355
329.57336
329.573369
329.573402
329.573453
329.57361
329.573838
329.574504
329.575406
329.577271
329.580791
329.588962
329.583277
329.578977
329.647121
329.829862
329.558432
329.172503
329.536312
331.768591
329.782882
326.835015
328.896712
340.537743
339.371577
327.396053
321.829486
328.728108
339.771809
340.259817
340.058511
326.014082
322.464898
323.123264
329.139523
340.284304
340.13663
340.133437
340.273171
325.417821
323.816363
325.944544
329.273566
340.036256
340.293346
324.860335
324.069622
326.406608
324.256588
329.247452
340.049331
340.041995
340.066412
340.159737
326.352427
321.73997
329.115294
339.632347
340.409084
322.417226
320.652939
329.223795
339.894319
340.733226
324.925075
325.921132
340.170962
340.410167
325.042375
326.147231
340.283254
340.403719
325.143685
327.605124
340.127032
340.038896
322.348577
320.53835
329.099426
339.823734
340.766544
325.26219
326.412653
340.140891
340.468122
325.867324
328.115449
340.120354
340.037941
323.28957
321.439477
329.044474
339.836374
340.759289
325.888064
326.993886
340.179204
340.495326
326.474162
328.721169
340.218843
340.023675
324.264602
322.340368
328.98654
339.559228
340.513679
323.915622
323.860781
324.355636
329.203306
340.02139
340.671791
325.615822
326.739908
340.194084
340.428304
326.026338
328.267593
340.14503
339.969263
323.920041
321.81691
328.961016
339.773955
340.769596
325.84972
328.139957
339.96108
340.06447
324.308445
321.87189
329.143487
339.680613
340.229923
323.165836
320.988758
328.571662
339.831714
340.516636
324.58337
325.43647
339.980808
340.256425
324.491764
325.098239
340.112891
340.123662
324.089947
324.835267
340.147231
340.086891
323.747527
324.717603
340.159717
340.057029
323.64547
324.702003
340.176016
340.026221
323.762986
324.919118
340.207714
340.022512
324.00636
325.396252
340.20398
340.068764
324.330029
326.75456
340.145622
339.756874
322.388731
320.073196
328.241959
339.897968
340.430255
324.306542
326.223988
340.047505
340.234671
325.266698
327.747733
340.163822
339.87057
323.746283
321.555528
328.914778
340.030979
340.504808
325.353684
328.073025
340.134988
340.057796
324.510352
322.274239
328.776348
340.050737
340.630361
326.194774
328.849157
340.007574
340.172334
324.69056
324.980504
324.677624
328.939064
340.258002
340.499447
326.392708
328.601982
340.407396
340.059271
325.607106
323.163613
328.948111
340.074725
340.177121
340.05638
326.70301
324.733999
325.524437
329.108513
340.295279
340.149954
325.743485
323.002238
328.905286
340.196795
340.265648
326.445306
323.465607
329.036227
340.173177
340.160403
326.594285
323.21948
329.063332
340.144849
340.13255
325.975209
322.443207
328.689028
340.187011
340.259667
326.480259
327.121154
340.260145
339.844637
324.834701
320.677888
326.952253
340.075835
340.398771
324.879798
326.769623
340.142135
340.140611
339.973777
340.098705
324.952815
322.251708
322.809785
326.087453
340.165411
340.144815
324.720035
324.959845
340.298458
340.053699
325.345391
326.288467
340.333706
339.77935
324.73166
321.073771
327.000703
340.138582
340.305989
326.287073
326.193011
340.298937
340.20097
327.290863
327.950075
340.390902
339.898973
327.158079
323.655293
328.939843
340.101014
340.168134
326.850081
323.835056
326.4632
323.123071
329.056313
340.245774
340.264593
340.193581
340.139251
329.036966
322.213148
328.964093
340.033612
340.145598
325.651491
322.439608
325.154424
321.48625
327.56199
340.088168
340.366015
339.929644
340.440031
326.924541
325.745358
340.275297
339.780465
326.075348
321.202085
326.557491
339.948944
340.168135
326.326138
326.192591
340.177893
339.760411
326.089112
320.644064
326.274871
339.896821
340.341581
323.509629
327.862217
340.303761
326.821203
325.674982
340.33744
339.868314
340.160834
326.937855
324.93621
339.976952
339.807796
339.715452
327.224502
321.207156
325.203359
321.664279
325.749776
339.6383
340.332291
324.674531
327.291357
339.931362
339.982044
339.999053
327.027342
324.737459
340.158921
339.541496
325.780975
320.582611
325.457799
339.736196
340.332606
325.181942
325.834459
340.019377
340.097449
339.948442
327.792893
320.307799
327.524842
339.890316
340.063129
326.69642
322.449708
327.509391
340.048796
339.911333
327.673665
323.031129
327.979714
339.939772
339.975768
327.762314
322.686719
327.204398
339.989405
339.910741
326.989896
320.759852
327.214311
339.898759
340.034821
339.981612
340.071421
328.699663
320.845088
326.865934
339.860067
339.982242
325.912336
320.860597
324.605685
339.835621
340.199578
325.705414
324.628318
339.744165
340.260507
325.86173
324.962936
339.799929
340.101731
326.088608
325.495464
339.926877
339.854827
326.00554
321.39145
325.273375
339.762209
340.338039
326.137386
325.307348
339.773003
340.250035
326.558322
325.863123
339.983508
339.958609
326.060474
321.820368
325.689631
339.877214
340.469179
326.117944
325.488993
339.908023
340.405799
326.835743
326.343246
340.112134
340.150051
326.90852
323.282859
327.794145
340.140378
340.349974
327.588095
322.089789
329.024656
340.282677
328.959238
325.576976
340.219419
340.274146
327.367678
327.060116
)
;

boundaryField
{
    closed
    {
        type            fixedValue;
        value           uniform 400;
    }
    open
    {
        type            zeroGradient;
    }
    sides
    {
        type            empty;
    }
    procBoundary0to1
    {
        type            processor;
        value           uniform 340.344081;
    }
}


// ************************************************************************* //
