/*--------------------------------*- C++ -*----------------------------------*\
| =========                 |                                                 |
| \\      /  F ield         | OpenFOAM: The Open Source CFD Toolbox           |
|  \\    /   O peration     | Version:  2306                                  |
|   \\  /    A nd           | Website:  www.openfoam.com                      |
|    \\/     M anipulation  |                                                 |
\*---------------------------------------------------------------------------*/
FoamFile
{
    version     2.0;
    format      ascii;
    arch        "LSB;label=32;scalar=64";
    class       volScalarField;
    location    "0.00168";
    object      rho;
}
// * * * * * * * * * * * * * * * * * * * * * * * * * * * * * * * * * * * * * //

dimensions      [1 -3 0 0 0 0 0];

internalField   nonuniform List<scalar> 
530
(
0.224901712
0.224119011
0.223558797
0.223390037
0.224003128
0.223418588
0.222737567
0.222653601
0.223201177
0.222785685
0.222054396
0.221981545
0.222483868
0.22220273
0.221464745
0.221405448
0.221863544
0.221645639
0.220948973
0.220850517
0.221291548
0.221139341
0.220425859
0.220337303
0.220719052
0.22066944
0.219899782
0.219862975
0.220197369
0.220205293
0.219401132
0.21940384
0.219714597
0.219739172
0.218930532
0.218950532
0.21925953
0.2192895
0.218483973
0.218505294
0.218825966
0.218856605
0.218059156
0.218072904
0.218408908
0.218438179
0.217685047
0.217661139
0.218007582
0.218037431
0.217336698
0.217283815
0.217619423
0.217660028
0.216977798
0.21696028
0.217265608
0.217293343
0.216675904
0.216629549
0.216972243
0.216950771
0.216396587
0.216330604
0.216686851
0.216671474
0.216129383
0.216063217
0.21640753
0.216394808
0.2158637
0.215806019
0.216132846
0.216118819
0.215597193
0.215548801
0.215862332
0.215844655
0.215332918
0.215290533
0.215595043
0.215572093
0.215078526
0.215040081
0.215331137
0.215301763
0.21483033
0.214790231
0.215070969
0.215031651
0.214565921
0.214534356
0.214807683
0.214763267
0.214296962
0.214263906
0.214522087
0.214481341
0.214020863
0.213983446
0.214237913
0.214191267
0.213741415
0.213699196
0.213954803
0.213905095
0.213460736
0.213415018
0.213670962
0.213622339
0.213181475
0.213133967
0.21338736
0.213340895
0.212906187
0.212857899
0.213104788
0.213059748
0.212635421
0.21258448
0.212823213
0.212778849
0.212364816
0.212311128
0.212541328
0.212498526
0.212097945
0.212038552
0.212262697
0.21221786
0.211830882
0.21176875
0.211991111
0.211944129
0.211561943
0.211501543
0.211717289
0.211671579
0.211289472
0.211232984
0.211440753
0.211396444
0.211012872
0.210961636
0.211161347
0.211118419
0.210734733
0.210689603
0.210879209
0.210837094
0.210458328
0.210417414
0.210594306
0.2105519
0.210178647
0.210139989
0.210305908
0.210262263
0.209894618
0.209857335
0.210014793
0.209967054
0.20958729
0.209560435
0.209704921
0.209664791
0.209268518
0.209243551
0.209382159
0.209341649
0.208939864
0.208913589
0.209055666
0.209014236
0.208603702
0.208576675
0.208726944
0.208685836
0.208272228
0.20824451
0.208396556
0.20835621
0.207943612
0.207914956
0.208065472
0.208026531
0.207614948
0.207585485
0.207733586
0.20769773
0.207287038
0.207259379
0.207402367
0.207372246
0.206982047
0.206939132
0.20708842
0.207048507
0.20669862
0.206644431
0.206807794
0.206764382
0.206425607
0.206363947
0.206527213
0.206483891
0.206153642
0.206091345
0.206246464
0.206202485
0.205879885
0.205822712
0.205965874
0.205921685
0.205607766
0.205557555
0.205686159
0.20564239
0.205334901
0.205292275
0.205408376
0.205364444
0.205064196
0.205026036
0.205133788
0.205087346
0.204800526
0.20476052
0.204862587
0.204811658
0.204542105
0.204495724
0.20459628
0.204537007
0.204281523
0.204225251
0.204326135
0.204261543
0.204019325
0.203951589
0.204059476
0.203985428
0.203758734
0.203678555
0.203794995
0.203715292
0.203497987
0.203412271
0.203532619
0.203451606
0.203238292
0.20315742
0.203272123
0.203195011
0.202977971
0.202910507
0.203014257
0.202945002
0.202724862
0.20266978
0.202760019
0.202700173
0.202476569
0.202433434
0.202512315
0.202459509
0.202236497
0.202200232
0.202271391
0.202222716
0.202004288
0.201969806
0.202036227
0.201989277
0.201778167
0.201738487
0.201805196
0.201755324
0.201557325
0.201505909
0.201578625
0.201526566
0.201344503
0.201291698
0.201363639
0.201304881
0.201132617
0.201072519
0.201148841
0.201091361
0.200914444
0.200859762
0.20093665
0.200876044
0.200690888
0.200641224
0.200725911
0.200673194
0.200472582
0.20044292
0.200527079
0.200477126
0.200272699
0.200255405
0.200340228
0.200287021
0.200092484
0.200072332
0.200162551
0.200099167
0.199925685
0.199891086
0.199991268
0.199915789
0.199764215
0.199714705
0.199822122
0.199739238
0.199603882
0.199543456
0.199655214
0.199568146
0.199444908
0.199381988
0.199491886
0.199401308
0.199289041
0.199226619
0.199333327
0.199239137
0.199136058
0.199075825
0.199177764
0.199082702
0.198983324
0.198929408
0.199023668
0.198931929
0.198829805
0.198787578
0.198871135
0.198786992
0.198675573
0.198650224
0.198720456
0.198647395
0.198531561
0.198517227
0.198572941
0.198511746
0.198397955
0.198387425
0.198432416
0.198378227
0.198270147
0.198260571
0.19830029
0.198247321
0.198150244
0.198138807
0.19817839
0.198120881
0.198036219
0.198021986
0.198060428
0.198002183
0.197926421
0.197910153
0.197945262
0.197888917
0.197820461
0.19780385
0.197835627
0.197780976
0.197719069
0.197702457
0.197730936
0.197679011
0.197621674
0.197605824
0.197630351
0.1975823
0.197528464
0.197513778
0.197535484
0.19749063
0.197439571
0.197426179
0.197445208
0.197404301
0.197355025
0.197342942
0.197359196
0.197322173
0.197274711
0.197263941
0.197278169
0.19724432
0.197198881
0.19718957
0.197201429
0.197170921
0.197127667
0.197119734
0.197128727
0.19710154
0.197060202
0.197053592
0.197060067
0.197035936
0.196996737
0.196990848
0.196995925
0.196973171
0.196937394
0.196931296
0.19693664
0.196913656
0.196881964
0.196875249
0.196881039
0.196858032
0.196829667
0.196822947
0.196828246
0.196806775
0.196780144
0.196774088
0.196777897
0.196758735
0.196733454
0.196728101
0.196730923
0.196712925
0.196689737
0.196684587
0.1966876
0.196669725
0.19664864
0.196643812
0.196646131
0.196630186
0.196609732
0.196605525
0.196606034
0.196592642
0.196570782
0.196566548
0.196565587
0.196553543
0.196525484
0.196522007
0.196525427
0.196512831
0.196481739
0.196473192
0.196475761
0.196465013
0.196454378
0.196443464
0.196435529
0.196423936
0.196414944
0.196402471
0.196392572
0.196379855
0.196368704
0.196356301
0.196344704
0.196332186
0.19632017
0.196308014
0.196295632
0.196284511
0.196271574
0.196260844
0.196248959
0.196238957
0.196228541
0.196219624
0.196210979
0.196203477
0.196196735
0.196190856
0.196185972
0.196181733
0.196178463
0.19617564
0.196173541
0.196171664
0.196170122
0.196168511
0.196166799
0.196164671
0.196162304
0.196159298
0.19615542
0.196150679
0.19614514
0.196138989
0.196132509
0.196126079
0.196120123
0.19611507
0.196111288
0.196109028
0.196108407
0.196109444
0.19611208
0.196116032
0.196120544
0.196124497
0.19612715
0.19612889
0.196131119
0.196135397
0.196142632
0.196152364
0.196161961
0.196167469
0.196166983
0.196165635
0.1961711
0.196180959
0.196185319
0.196183248
0.196179007
0.196175854
0.196175718
0.196178622
)
;

boundaryField
{
    closed
    {
        type            calculated;
        value           nonuniform List<scalar> 0();
    }
    open
    {
        type            calculated;
        value           uniform 0.196181601;
    }
    sides
    {
        type            empty;
    }
    procBoundary5to4
    {
        type            processor;
        value           uniform 0.22419834;
    }
}


// ************************************************************************* //
