/*--------------------------------*- C++ -*----------------------------------*\
| =========                 |                                                 |
| \\      /  F ield         | OpenFOAM: The Open Source CFD Toolbox           |
|  \\    /   O peration     | Version:  2306                                  |
|   \\  /    A nd           | Website:  www.openfoam.com                      |
|    \\/     M anipulation  |                                                 |
\*---------------------------------------------------------------------------*/
FoamFile
{
    version     2.0;
    format      ascii;
    arch        "LSB;label=32;scalar=64";
    class       volScalarField;
    location    "0.00194";
    object      alpha;
}
// * * * * * * * * * * * * * * * * * * * * * * * * * * * * * * * * * * * * * //

dimensions      [1 -1 -1 0 0 0 0];

internalField   nonuniform List<scalar> 
531
(
3.66859702e-05
3.6765453e-05
3.56922022e-05
3.50951327e-05
3.61004648e-05
3.67732835e-05
3.68013009e-05
3.67970819e-05
3.57447797e-05
3.49813177e-05
3.67715028e-05
3.67733298e-05
3.57720709e-05
3.4684138e-05
3.47051802e-05
3.6455835e-05
3.67779445e-05
3.57333697e-05
3.50519949e-05
3.59464417e-05
3.67805193e-05
3.68257115e-05
3.68033263e-05
3.68012268e-05
3.57694019e-05
3.52340183e-05
3.48798881e-05
3.48712972e-05
3.64474576e-05
3.67921745e-05
3.5629251e-05
3.52896896e-05
3.66272972e-05
3.67992186e-05
3.67855895e-05
3.578321e-05
3.53455172e-05
3.49969138e-05
3.50026294e-05
3.67520178e-05
3.68148905e-05
3.56391859e-05
3.52038767e-05
3.67111301e-05
3.68235821e-05
3.56851544e-05
3.52565797e-05
3.67750759e-05
3.68022793e-05
3.57906101e-05
3.51194188e-05
3.51270593e-05
3.67758039e-05
3.67896941e-05
3.67906891e-05
3.578582e-05
3.55487035e-05
3.67748394e-05
3.68261085e-05
3.58002703e-05
3.56512415e-05
3.67616917e-05
3.5774121e-05
3.52693645e-05
3.67880567e-05
3.67966731e-05
3.67809535e-05
3.57856871e-05
3.55175908e-05
3.51014013e-05
3.50959869e-05
3.68012894e-05
3.67965321e-05
3.57440025e-05
3.47651241e-05
3.47923787e-05
3.66325739e-05
3.68250187e-05
3.56025861e-05
3.5101783e-05
3.65495663e-05
3.68298014e-05
3.55915768e-05
3.52587914e-05
3.66237547e-05
3.68238657e-05
3.67550104e-05
3.57668666e-05
3.509749e-05
3.51075689e-05
3.67119425e-05
3.67902529e-05
3.67501336e-05
3.67780191e-05
3.58519906e-05
3.51499301e-05
3.51608168e-05
3.67686686e-05
3.67986505e-05
3.58052116e-05
3.50381556e-05
3.5051343e-05
3.67704764e-05
3.57675961e-05
3.50528516e-05
3.67685209e-05
3.68059528e-05
3.56036479e-05
3.53742399e-05
3.67717521e-05
3.68074682e-05
3.67745015e-05
3.58045605e-05
3.54069959e-05
3.50656627e-05
3.50776135e-05
3.67627729e-05
3.6816821e-05
3.55591614e-05
3.53548283e-05
3.6707985e-05
3.57247443e-05
3.48972181e-05
3.67853307e-05
3.67747928e-05
3.67728125e-05
3.56178839e-05
3.53470954e-05
3.67859427e-05
3.67927432e-05
3.67862922e-05
3.5777705e-05
3.542533e-05
3.67797872e-05
3.68042701e-05
3.57875882e-05
3.55029666e-05
3.50811562e-05
3.50952865e-05
3.67642204e-05
3.57459699e-05
3.49624731e-05
3.67475241e-05
3.67806999e-05
3.67775772e-05
3.55667512e-05
3.50671043e-05
3.67703331e-05
3.68151623e-05
3.56010637e-05
3.51401982e-05
3.67728153e-05
3.67874202e-05
3.58266319e-05
3.51112733e-05
3.51222977e-05
3.67433333e-05
3.68025133e-05
3.6750024e-05
3.68160494e-05
3.67884428e-05
3.57696994e-05
3.5460995e-05
3.49793549e-05
3.49782874e-05
3.67930784e-05
3.57440239e-05
3.48804091e-05
3.67736292e-05
3.68061105e-05
3.56185442e-05
3.52207801e-05
3.67741023e-05
3.68156738e-05
3.57814047e-05
3.54341145e-05
3.50960046e-05
3.50998195e-05
3.67806142e-05
3.67852308e-05
3.67845097e-05
3.57866637e-05
3.54508388e-05
3.67751144e-05
3.6809012e-05
3.58027735e-05
3.55076133e-05
3.50835451e-05
3.50949227e-05
3.67516269e-05
3.67874177e-05
3.67657136e-05
3.67817123e-05
3.5775725e-05
3.47871574e-05
3.48191634e-05
3.67481299e-05
3.68176889e-05
3.55655854e-05
3.51417295e-05
3.67578134e-05
3.68133306e-05
3.56360437e-05
3.52255064e-05
3.67732464e-05
3.6789163e-05
3.57840333e-05
3.5065798e-05
3.50711116e-05
3.67584526e-05
3.68006685e-05
3.67669881e-05
3.68123282e-05
3.67988764e-05
3.5812279e-05
3.54800247e-05
3.54146977e-05
3.53364349e-05
3.49961967e-05
3.50061331e-05
3.67767062e-05
3.68193649e-05
3.56315628e-05
3.53854988e-05
3.67959395e-05
3.68116565e-05
3.68043314e-05
3.56913323e-05
3.52764317e-05
3.68053302e-05
3.68006606e-05
3.57480224e-05
3.50170427e-05
3.50278483e-05
3.67695006e-05
3.6819382e-05
3.57203307e-05
3.52822386e-05
3.67884827e-05
3.68028462e-05
3.5761984e-05
3.51008714e-05
3.50924204e-05
3.67958836e-05
3.67943468e-05
3.57622451e-05
3.50593696e-05
3.50743682e-05
3.67660952e-05
3.68132568e-05
3.56602349e-05
3.55408222e-05
3.6777359e-05
3.57707419e-05
3.50585406e-05
3.67810482e-05
3.68023092e-05
3.56922117e-05
3.53303073e-05
3.67766833e-05
3.68149377e-05
3.56832212e-05
3.53841016e-05
3.67921593e-05
3.68094457e-05
3.57530838e-05
3.54170382e-05
3.50133038e-05
3.50150034e-05
3.67957106e-05
3.67917498e-05
3.67984741e-05
3.57584156e-05
3.52033002e-05
3.67803475e-05
3.6818243e-05
3.56025177e-05
3.52902915e-05
3.67689099e-05
3.68229714e-05
3.55742645e-05
3.53284095e-05
3.6770256e-05
3.68214669e-05
3.55215458e-05
3.5407966e-05
3.67901001e-05
3.68135351e-05
3.67936863e-05
3.57438681e-05
3.53390167e-05
3.49997087e-05
3.50041514e-05
3.67995925e-05
3.68050977e-05
3.67960762e-05
3.57392514e-05
3.47631271e-05
3.47773109e-05
3.6778688e-05
3.6799626e-05
3.67849931e-05
3.54809322e-05
3.48701365e-05
3.68017693e-05
3.67554406e-05
3.57097688e-05
3.67453994e-05
3.68192503e-05
3.54596815e-05
3.53208044e-05
3.67657124e-05
3.67986752e-05
3.57721753e-05
3.53044981e-05
3.48483496e-05
3.48498245e-05
3.67725155e-05
3.67675294e-05
3.67730532e-05
3.54915702e-05
3.49165081e-05
3.67576938e-05
3.67840723e-05
3.50692205e-05
3.48429877e-05
3.67483636e-05
3.67909792e-05
3.67496744e-05
3.67964619e-05
3.55178842e-05
3.49415916e-05
3.67872593e-05
3.67862076e-05
3.57340091e-05
3.48192774e-05
3.48280028e-05
3.67785824e-05
3.67896347e-05
3.57626267e-05
3.48006193e-05
3.48263926e-05
3.67898096e-05
3.67879098e-05
3.67925231e-05
3.57193166e-05
3.51600649e-05
3.68014562e-05
3.67935761e-05
3.57504862e-05
3.49730129e-05
3.49838252e-05
3.67906939e-05
3.67960142e-05
3.67991396e-05
3.57301138e-05
3.53090364e-05
3.68090921e-05
3.67973877e-05
3.57473227e-05
3.51536683e-05
3.51530801e-05
3.68009463e-05
3.68039727e-05
3.57494165e-05
3.51103277e-05
3.51104466e-05
3.68061984e-05
3.68048981e-05
3.57382135e-05
3.50475149e-05
3.50527035e-05
3.67994496e-05
3.68146431e-05
3.56629569e-05
3.52989601e-05
3.6812104e-05
3.67989843e-05
3.57501757e-05
3.52917479e-05
3.5406135e-05
3.49357203e-05
3.49491858e-05
3.67818893e-05
3.68058429e-05
3.67892535e-05
3.68093667e-05
3.68062467e-05
3.55206452e-05
3.51200606e-05
3.68131704e-05
3.68169444e-05
3.5405329e-05
3.5161706e-05
3.68064393e-05
3.68106144e-05
3.55475083e-05
3.52285754e-05
3.68079779e-05
3.67980788e-05
3.57321074e-05
3.50762347e-05
3.50829695e-05
3.67904369e-05
3.6818468e-05
3.56333771e-05
3.52095e-05
3.68044921e-05
3.68093996e-05
3.5738643e-05
3.50273675e-05
3.50278377e-05
3.68069137e-05
3.68003281e-05
3.57143672e-05
3.67985139e-05
3.68194198e-05
3.5744571e-05
3.52302238e-05
3.5231806e-05
3.68049742e-05
3.68052682e-05
3.57325883e-05
3.50456611e-05
3.50506167e-05
3.67924386e-05
3.68069846e-05
3.57428735e-05
3.47525251e-05
3.48136108e-05
3.67879592e-05
3.67867337e-05
3.67912841e-05
3.5331206e-05
3.49059349e-05
3.67928848e-05
3.67975583e-05
3.67911646e-05
3.68088765e-05
3.51748193e-05
3.50135352e-05
3.68041769e-05
3.68006319e-05
3.68040387e-05
3.57248111e-05
3.52061371e-05
3.67992344e-05
3.67900871e-05
3.57581798e-05
3.54603037e-05
3.52843869e-05
3.52803496e-05
3.67991816e-05
3.68074518e-05
3.55624578e-05
3.5346998e-05
3.68038415e-05
3.68072743e-05
3.5737351e-05
3.53534807e-05
3.50902374e-05
3.50869781e-05
3.68003614e-05
3.6810421e-05
3.52784991e-05
3.51402638e-05
3.68004433e-05
3.68091066e-05
3.51844783e-05
3.51794634e-05
3.68037845e-05
3.68066025e-05
3.68094879e-05
3.55675896e-05
3.50184113e-05
3.68107858e-05
3.68013766e-05
3.54514376e-05
3.4953488e-05
3.68085803e-05
3.6803449e-05
3.55840546e-05
3.45344488e-05
3.46855023e-05
3.68004835e-05
3.68114442e-05
3.68061114e-05
3.68084144e-05
3.68077629e-05
3.55731744e-05
3.55512452e-05
3.6817505e-05
3.57383518e-05
3.51987345e-05
3.68101377e-05
3.67999836e-05
3.68091182e-05
3.57703427e-05
3.51829614e-05
3.53307756e-05
3.48305861e-05
3.48353437e-05
3.6787629e-05
3.68044266e-05
3.51036824e-05
3.50759004e-05
3.67941341e-05
3.67919345e-05
3.67944413e-05
3.55063698e-05
3.50452328e-05
3.67854765e-05
3.67755349e-05
3.52524493e-05
3.50807156e-05
3.67895e-05
3.67848811e-05
3.67909364e-05
3.67947506e-05
3.54995953e-05
3.48256372e-05
3.48290491e-05
3.67754316e-05
3.67926862e-05
3.56347587e-05
3.47310607e-05
3.49986908e-05
3.67929938e-05
3.68022216e-05
3.68013689e-05
3.57130495e-05
)
;

boundaryField
{
    closed
    {
        type            calculated;
        value           nonuniform List<scalar> 0();
    }
    open
    {
        type            calculated;
        value           nonuniform List<scalar> 0();
    }
    sides
    {
        type            empty;
    }
    procBoundary1to0
    {
        type            processor;
        value           uniform 3.49012449e-05;
    }
    procBoundary1to2
    {
        type            processor;
        value           uniform 3.4835125e-05;
    }
}


// ************************************************************************* //
