/*--------------------------------*- C++ -*----------------------------------*\
| =========                 |                                                 |
| \\      /  F ield         | OpenFOAM: The Open Source CFD Toolbox           |
|  \\    /   O peration     | Version:  2306                                  |
|   \\  /    A nd           | Website:  www.openfoam.com                      |
|    \\/     M anipulation  |                                                 |
\*---------------------------------------------------------------------------*/
FoamFile
{
    version     2.0;
    format      ascii;
    arch        "LSB;label=32;scalar=64";
    class       volScalarField;
    location    "0.00114";
    object      Z;
}
// * * * * * * * * * * * * * * * * * * * * * * * * * * * * * * * * * * * * * //

dimensions      [0 0 0 0 0 0 0];

internalField   nonuniform List<scalar> 
531
(
0.0147471706
0.0146931386
0.014096984
0.0141060364
0.0147141055
0.0148643154
0.0146278901
0.0141030332
0.0141137083
0.0147094984
0.0148575436
0.0146284669
0.0141055574
0.014169982
0.0147346225
0.0146798886
0.0140972041
0.0141187623
0.0147245724
0.014824762
0.0147915951
0.0148556599
0.0146506027
0.0141136833
0.0140710152
0.014083007
0.0140794039
0.0145066852
0.0148080583
0.0146555262
0.0141012315
0.0141639708
0.0147515811
0.0149179974
0.0147259971
0.0141173269
0.0141605218
0.0147946092
0.0147538398
0.0141126921
0.0141556969
0.0147943327
0.014728904
0.014113252
0.0140589374
0.0140720765
0.0144607056
0.0148020919
0.0147293113
0.0141043425
0.0141044966
0.0147451034
0.0149187988
0.0147592243
0.0141172597
0.0141103965
0.0147416971
0.0147479895
0.0141214241
0.0141000644
0.0147108518
0.0147303492
0.0141166356
0.0140947423
0.0146726826
0.0148009855
0.0148196343
0.0147213101
0.0141057636
0.0140956769
0.014678684
0.0148876508
0.0147384569
0.014118584
0.0141038022
0.0147440375
0.0147685149
0.0141294498
0.0141058334
0.0147528831
0.0147554357
0.0141188015
0.0140773893
0.0140819105
0.014272695
0.0147611832
0.0147663765
0.0141087526
0.0140924125
0.014701823
0.014842129
0.0147956591
0.0148652979
0.0147187533
0.0141290459
0.0140639478
0.014244129
0.0147086938
0.0147160228
0.0141081613
0.0140841132
0.0146517198
0.0148688127
0.0147463962
0.0141164843
0.0140918891
0.0147153522
0.0147524361
0.0141251276
0.0140934592
0.0146756287
0.0148976306
0.0147778069
0.0141211779
0.0140956723
0.0147434274
0.0147914354
0.0141367834
0.0140961767
0.0147540123
0.0147738097
0.014131986
0.014075804
0.0140854305
0.0143256172
0.0147871523
0.0147897914
0.0141138026
0.0140925034
0.0146926266
0.0149160827
0.0147964295
0.0141131076
0.0140967918
0.0146875659
0.0148971155
0.014787478
0.0141172645
0.0140920771
0.0147269089
0.0147696572
0.0141262705
0.0140883052
0.0147125741
0.0147510287
0.0141234129
0.0140886375
0.0147025261
0.0147311939
0.0141140093
0.014086188
0.0146314869
0.0148472741
0.0147083941
0.0141046002
0.0140878437
0.0146509579
0.0147860246
0.0148155737
0.0147477434
0.0141055483
0.0142333217
0.0147219911
0.0144123542
0.0141846876
0.0146619477
0.0147277231
0.0141168736
0.0140924251
0.014705553
0.0147203161
0.0141090855
0.0140870703
0.014635847
0.0148569888
0.0146938189
0.0141054111
0.0140894203
0.0146545747
0.0148568372
0.0147021683
0.0141122709
0.0141156023
0.0147244121
0.0147234843
0.014099569
0.014086424
0.0146297719
0.0148518012
0.0146932966
0.0141141458
0.0141368942
0.0147282504
0.0146976707
0.0141034476
0.0140878794
0.0146375645
0.014848027
0.014661498
0.0141120175
0.0140943449
0.0146535502
0.0148409327
0.014641171
0.0141131971
0.0142095126
0.0147123992
0.0146221563
0.0140997787
0.0141036114
0.0146278053
0.0147858236
0.0148080435
0.014643608
0.0141151324
0.0142611436
0.0147242893
0.0145592185
0.0141017054
0.014105633
0.0146909544
0.0148427124
0.014607042
0.0141173284
0.014115962
0.014701275
0.0148486629
0.0146032014
0.0141191128
0.0141248427
0.0147114188
0.014849213
0.0145778112
0.0141202199
0.0143955546
0.0147472883
0.014379152
0.0140944711
0.0142583772
0.0147371
0.0148387727
0.0145631441
0.0141161523
0.0141911654
0.0147369321
0.0148537096
0.0145859783
0.0141191083
0.0144109276
0.0147641253
0.0143940464
0.0140944255
0.0144730283
0.0147628049
0.0143903062
0.0140926128
0.0144948611
0.014764752
0.0143495142
0.0140890861
0.0145267613
0.014767083
0.014322311
0.0140892932
0.0145958274
0.0147789514
0.0141748044
0.0140903981
0.0144190802
0.0148747565
0.0148816016
0.0142032913
0.014098136
0.01442028
0.0148582878
0.0148639977
0.014293375
0.014090835
0.0146210346
0.0147796801
0.0142174044
0.014083666
0.0146567523
0.0147833497
0.0141443261
0.0140909842
0.0144202417
0.0148924136
0.0148852931
0.0141933526
0.0140882517
0.0141099447
0.0143589843
0.014890508
0.0148809509
0.0141540841
0.0140804525
0.0140877515
0.014488644
0.0147384364
0.0148738759
0.0148757121
0.014130467
0.0140859438
0.0146486968
0.0147952342
0.0143181024
0.0140953773
0.0143006723
0.0148739178
0.0148814311
0.0141308191
0.0140935202
0.0144425439
0.0148673211
0.0148673919
0.0141137774
0.0140847539
0.0145888186
0.0147780407
0.0144903446
0.0140970788
0.014096369
0.0148393194
0.0148884606
0.0141218453
0.0140959749
0.0144356719
0.014859479
0.0148616295
0.0141083151
0.0140927401
0.0143965575
0.0148550546
0.0148553962
0.0141079702
0.0140921728
0.0143928573
0.0148533005
0.0148535066
0.0141034587
0.0140920404
0.0143926695
0.014854069
0.0148551362
0.0140964802
0.0140933943
0.0143896176
0.0148669487
0.0148383696
0.0141135693
0.0140848314
0.0143754513
0.014800129
0.014818162
0.0143889009
0.0140831465
0.0142046687
0.0147722229
0.0148487882
0.0145045893
0.0140860649
0.0141079277
0.0147687862
0.0148681232
0.0145217725
0.0140848588
0.0141094536
0.0147493624
0.0148672723
0.0145432256
0.0140918109
0.0142600048
0.014772095
0.0146478237
0.0140942469
0.0140749626
0.0148697065
0.0148938491
0.0141149933
0.0141007783
0.0140995097
0.0142420153
0.0147647747
0.0148133706
0.0147748394
0.0148338455
0.014646848
0.0140861627
0.0140574693
0.0143634108
0.0147343256
0.0145897311
0.0140703179
0.0141829677
0.0147548209
0.0146973657
0.0140712589
0.014075071
0.0147249605
0.0148834937
0.0146449863
0.0140912881
0.0142161562
0.0147817195
0.014682775
0.0140775543
0.0140780249
0.014727294
0.0148808541
0.0146046149
0.0140906615
0.0143063653
0.0147748438
0.01448499
0.0140789924
0.0144977605
0.0147679313
0.014272861
0.0140756213
0.0143142286
0.0147797508
0.0148296349
0.0144346465
0.0140832703
0.0144148545
0.0147523464
0.0148795355
0.0148788338
0.0140983869
0.0140779513
0.0140846029
0.0146720839
0.0147774719
0.0140846093
0.0140840303
0.0144732111
0.0148710091
0.0148659703
0.0140964866
0.0140807862
0.0140853216
0.0144250211
0.0147482164
0.0148606674
0.0148608837
0.0140928349
0.0140912559
0.0144978015
0.0148761845
0.0148606016
0.0140860489
0.0140913001
0.0144752734
0.0148761426
0.0148404312
0.0141071964
0.0140794995
0.0147180899
0.0147749101
0.0140821876
0.0140822231
0.0144851985
0.0148664899
0.0148346354
0.0141262946
0.0140782212
0.0147171685
0.0147777274
0.014080452
0.0140824232
0.0144814737
0.0148661509
0.014828965
0.0141212266
0.0140720989
0.0147175068
0.0147495739
0.0140824693
0.0140633469
0.0147023465
0.0147180207
0.0140804589
0.0140607989
0.0144278754
0.0146861347
0.0147558507
0.0147503215
0.0148593009
0.0148431823
0.0140867127
0.014078496
0.0147178649
0.0147640931
0.0140815407
0.0140835213
0.0144261665
0.0148667796
0.0148561975
0.0140967495
0.0141001726
0.0140950789
0.0142315761
0.0148294678
0.0148633584
0.0143322714
0.0140934979
0.0143541999
0.0148803499
0.0148432245
0.0140974976
0.0140759142
0.0147354495
0.014754559
0.0140740936
0.0140728042
0.0144444476
0.0147555838
0.0147561213
0.0148782844
0.014839292
0.0140957834
0.0140817512
0.0147810881
0.014784987
0.0140934331
0.0140965041
0.0140973847
0.0140994044
0.0148596403
0.0148635317
)
;

boundaryField
{
    closed
    {
        type            zeroGradient;
    }
    open
    {
        type            zeroGradient;
    }
    sides
    {
        type            empty;
    }
    procBoundary1to0
    {
        type            processor;
        value           uniform 0.0141671379;
    }
    procBoundary1to2
    {
        type            processor;
        value           uniform 0.0141618191;
    }
}


// ************************************************************************* //
