/*--------------------------------*- C++ -*----------------------------------*\
| =========                 |                                                 |
| \\      /  F ield         | OpenFOAM: The Open Source CFD Toolbox           |
|  \\    /   O peration     | Version:  2306                                  |
|   \\  /    A nd           | Website:  www.openfoam.com                      |
|    \\/     M anipulation  |                                                 |
\*---------------------------------------------------------------------------*/
FoamFile
{
    version     2.0;
    format      ascii;
    arch        "LSB;label=32;scalar=64";
    class       volScalarField;
    location    "0.00078";
    object      prefDPV_T;
}
// * * * * * * * * * * * * * * * * * * * * * * * * * * * * * * * * * * * * * //

dimensions      [1 -1 -1 -1 0 0 0];

internalField   nonuniform List<scalar> 
531
(
6.0824516e-10
6.08548789e-10
5.93822923e-10
5.89308345e-10
5.89884476e-10
6.08813717e-10
6.08005116e-10
6.08555434e-10
5.94491681e-10
5.89860052e-10
5.90135423e-10
5.89281229e-10
5.89236445e-10
6.08651337e-10
6.08524261e-10
5.90076347e-10
5.89804549e-10
6.0843294e-10
6.0842518e-10
5.90267955e-10
5.90043569e-10
6.08110283e-10
6.08345903e-10
5.9261641e-10
5.89725709e-10
5.89750389e-10
6.08355892e-10
6.08309212e-10
5.90652216e-10
5.90093472e-10
6.08101361e-10
6.08276634e-10
5.9268797e-10
5.89772721e-10
5.89793145e-10
6.0829319e-10
6.08405774e-10
5.95507172e-10
5.89422595e-10
5.89905738e-10
6.08774029e-10
6.0805372e-10
6.08440093e-10
5.92987438e-10
5.90120849e-10
5.89922743e-10
5.89678778e-10
6.08656298e-10
6.08795181e-10
5.90586299e-10
5.88858337e-10
5.89363638e-10
6.09364631e-10
6.08358434e-10
6.09069795e-10
5.90664825e-10
5.88954332e-10
5.89043032e-10
6.09171625e-10
6.08737018e-10
5.89997226e-10
5.89325875e-10
6.09152435e-10
6.08675499e-10
5.89800897e-10
5.89467142e-10
6.09108204e-10
6.08635535e-10
5.89827e-10
5.89599076e-10
6.08940012e-10
6.0861522e-10
5.90166601e-10
5.89789522e-10
6.08569075e-10
6.08665295e-10
5.91418644e-10
5.89750052e-10
5.89730447e-10
6.08489098e-10
6.08545908e-10
5.93061099e-10
5.89845479e-10
5.89873043e-10
6.08461853e-10
6.0857284e-10
5.93737807e-10
5.89228065e-10
5.89469813e-10
6.09085033e-10
6.08736084e-10
6.08608728e-10
6.08654265e-10
5.90797828e-10
5.89448671e-10
5.89840944e-10
5.89095577e-10
5.88894819e-10
6.09215773e-10
6.08721057e-10
5.90374957e-10
5.89756612e-10
6.09143933e-10
6.084859e-10
5.90224602e-10
5.89840934e-10
6.09084238e-10
6.08435232e-10
5.90155421e-10
5.89873802e-10
6.08965914e-10
6.08436481e-10
5.9036301e-10
5.90014597e-10
6.08646633e-10
6.08544448e-10
5.92011625e-10
5.8979442e-10
5.89780358e-10
6.08539936e-10
6.08490749e-10
5.95025035e-10
5.89813188e-10
5.89841034e-10
6.08512135e-10
6.08690149e-10
5.91921733e-10
5.8934846e-10
5.89265157e-10
6.08970193e-10
6.08490711e-10
5.90369733e-10
5.89716896e-10
6.09033515e-10
6.08361988e-10
5.90477771e-10
5.90188438e-10
6.08726263e-10
6.08261381e-10
5.93655592e-10
5.90545116e-10
5.90076821e-10
5.90086186e-10
6.08834969e-10
6.08565563e-10
5.92172689e-10
5.8960159e-10
5.89551831e-10
6.0878967e-10
6.08480721e-10
5.90783176e-10
5.90012781e-10
6.08717609e-10
6.08579452e-10
5.92337245e-10
5.89569526e-10
5.8942228e-10
6.0882826e-10
6.08335023e-10
5.90908477e-10
5.90247318e-10
6.08778746e-10
6.08157087e-10
5.93662307e-10
5.90439589e-10
5.89937571e-10
5.89846165e-10
6.0910522e-10
6.08365884e-10
5.90678604e-10
5.90069689e-10
6.08893121e-10
6.08477022e-10
5.92728499e-10
5.89779751e-10
5.89689229e-10
6.08803711e-10
6.08511021e-10
5.9409537e-10
5.8983626e-10
5.89794677e-10
6.08824782e-10
6.08568929e-10
5.93529866e-10
5.89781417e-10
5.89676608e-10
6.09006736e-10
6.08753416e-10
5.92266808e-10
5.8909595e-10
5.89154893e-10
6.09399816e-10
6.08742543e-10
6.08607062e-10
6.0861816e-10
5.92989176e-10
5.8946533e-10
5.89741566e-10
5.88291931e-10
5.88185723e-10
6.10131168e-10
6.08822835e-10
6.09294907e-10
6.08349319e-10
6.08423405e-10
5.91854969e-10
5.90139743e-10
5.89732558e-10
5.89766453e-10
6.09463226e-10
6.08695987e-10
5.93626866e-10
5.89934126e-10
5.89774363e-10
6.09111175e-10
6.0855052e-10
5.93947918e-10
5.89840891e-10
5.89764214e-10
6.09166134e-10
6.0862419e-10
5.92952843e-10
5.89561068e-10
5.893943e-10
6.09335831e-10
6.08494607e-10
5.91016476e-10
5.89912374e-10
6.09306254e-10
6.08507729e-10
5.93065283e-10
5.89750018e-10
5.89649815e-10
6.09270368e-10
6.08518204e-10
5.94456776e-10
5.89928146e-10
5.89783537e-10
6.09258158e-10
6.08261023e-10
5.94800334e-10
5.90501192e-10
5.90007283e-10
5.89830919e-10
6.09818734e-10
6.08448287e-10
5.90418201e-10
5.898077e-10
6.10172738e-10
6.08555808e-10
6.08805296e-10
6.0855118e-10
5.94430883e-10
5.89837447e-10
5.90108772e-10
5.89214708e-10
5.89113865e-10
6.09897162e-10
6.08907901e-10
5.92070308e-10
5.89452465e-10
5.89266887e-10
6.09563053e-10
6.08507954e-10
5.9070816e-10
5.90282207e-10
6.1015809e-10
6.08097824e-10
6.08608435e-10
5.92327306e-10
5.89466915e-10
5.89355253e-10
6.09729486e-10
6.08756581e-10
5.94254023e-10
5.8960454e-10
5.89726079e-10
6.09464594e-10
6.0817493e-10
6.08276862e-10
5.93365988e-10
5.89910005e-10
5.89997087e-10
5.88811164e-10
5.88637839e-10
6.10582301e-10
6.08953963e-10
6.08980717e-10
6.08845152e-10
5.92998141e-10
5.89381519e-10
5.89290282e-10
6.09730518e-10
6.08894535e-10
5.92633814e-10
5.89017924e-10
5.89289298e-10
6.0971253e-10
6.0824132e-10
6.08497717e-10
5.92796778e-10
5.89230765e-10
5.89352814e-10
6.09520285e-10
6.08219981e-10
6.08444805e-10
5.93434673e-10
5.90319322e-10
5.90043704e-10
5.90019248e-10
6.09615617e-10
6.08386002e-10
5.94192384e-10
5.90724102e-10
5.8990262e-10
5.89837717e-10
6.10141529e-10
6.08787196e-10
6.08883542e-10
6.08851663e-10
5.91597923e-10
5.89466453e-10
5.89308356e-10
5.89282153e-10
6.09967611e-10
6.09097438e-10
5.91085454e-10
5.89102151e-10
5.88952587e-10
6.09707287e-10
6.08781237e-10
6.0870945e-10
6.08623449e-10
5.93263479e-10
5.89999639e-10
5.89467815e-10
5.89334002e-10
6.10046643e-10
6.086624e-10
5.89772444e-10
5.89587993e-10
6.10118268e-10
6.08263317e-10
6.08870369e-10
5.91712502e-10
5.89231988e-10
5.89148135e-10
6.09122953e-10
6.08833874e-10
5.93333949e-10
5.89663569e-10
5.89798101e-10
6.09289033e-10
6.08416695e-10
6.08573151e-10
5.98869126e-10
5.90680168e-10
5.90420981e-10
5.90181795e-10
5.89058965e-10
5.89018033e-10
6.09825784e-10
6.089387e-10
6.08781862e-10
6.08797385e-10
5.91190669e-10
5.88620904e-10
5.88845098e-10
6.09533543e-10
6.08310745e-10
6.08716708e-10
5.91397517e-10
5.89222134e-10
5.89095324e-10
6.08904868e-10
6.08427831e-10
5.90687692e-10
5.89914014e-10
6.08741604e-10
6.08120377e-10
5.94288233e-10
5.90000499e-10
5.89273359e-10
5.89190132e-10
6.08804054e-10
6.08591144e-10
5.90027798e-10
5.87422967e-10
5.87671503e-10
6.09289069e-10
6.081228e-10
6.08695131e-10
6.07821437e-10
6.08037893e-10
5.96788959e-10
5.87049326e-10
5.86201155e-10
5.86148607e-10
6.06623349e-10
6.06541092e-10
5.86265022e-10
5.83638733e-10
5.83499313e-10
6.04575223e-10
6.02406873e-10
6.02581647e-10
6.00384471e-10
6.00291694e-10
5.98060792e-10
5.97682452e-10
5.95453739e-10
5.94784518e-10
5.92588813e-10
5.91613599e-10
5.89527363e-10
5.88286132e-10
5.86378031e-10
5.85052971e-10
5.83597968e-10
5.82983677e-10
5.81709969e-10
5.79450467e-10
5.76890621e-10
5.7414493e-10
5.71150383e-10
5.68080778e-10
5.64440846e-10
5.61327663e-10
5.57704757e-10
5.56566785e-10
5.54477151e-10
5.51922326e-10
5.46719786e-10
5.4308225e-10
5.36400584e-10
5.31323286e-10
5.22591422e-10
5.16695635e-10
5.07843439e-10
5.01144736e-10
4.96363555e-10
5.03737348e-10
4.93308705e-10
4.85300375e-10
4.73316376e-10
4.65466674e-10
4.52193516e-10
4.43798471e-10
4.29396867e-10
4.2340554e-10
4.12518926e-10
4.06171593e-10
3.9884554e-10
4.0302932e-10
3.77911e-10
3.59984064e-10
3.32558617e-10
3.20413855e-10
2.71665098e-10
2.70172641e-10
2.52871468e-10
2.50420512e-10
2.34632571e-10
2.30373618e-10
2.14461899e-10
2.08850954e-10
1.92816942e-10
1.85013454e-10
1.68317965e-10
1.59597861e-10
1.44600519e-10
1.36327428e-10
1.22908963e-10
1.1587119e-10
1.0436854e-10
9.59300713e-11
8.47106542e-11
8.25033956e-11
7.38499677e-11
6.01903711e-11
5.08606498e-11
5.62057958e-11
5.03393107e-11
2.90642837e-11
2.3157634e-11
3.29380343e-11
2.73292864e-11
1.09563883e-11
7.51242531e-12
1.0289667e-11
5.29927211e-12
-3.36326908e-13
-2.50173519e-12
-4.91849994e-12
-7.88143811e-12
-9.25330493e-12
-1.17004332e-11
-1.32983779e-11
-1.55582961e-11
-1.7479709e-11
-2.34538543e-11
-1.87022873e-11
-1.50175396e-11
-2.81812201e-11
-3.8021886e-11
-2.16504714e-11
-1.9768529e-11
-3.913597e-11
-4.26179517e-11
-2.6368939e-11
-2.71335468e-11
-4.27194893e-11
-4.27272229e-11
-3.18798818e-11
-3.05426533e-11
-4.27882872e-11
-4.28314468e-11
-3.4804271e-11
-3.31244545e-11
-4.2875445e-11
-4.28784e-11
-3.64958514e-11
-3.49558878e-11
-4.23148712e-11
-4.28988159e-11
-3.84039286e-11
-3.60567748e-11
-3.92709868e-11
-4.29062202e-11
-4.19202453e-11
-3.70430574e-11
)
;

boundaryField
{
    closed
    {
        type            calculated;
        value           nonuniform List<scalar> 0();
    }
    open
    {
        type            calculated;
        value           nonuniform List<scalar> 0();
    }
    sides
    {
        type            empty;
    }
    procBoundary4to3
    {
        type            processor;
        value           uniform 5.89704759e-10;
    }
    procBoundary4to5
    {
        type            processor;
        value           uniform -3.81432283e-11;
    }
}


// ************************************************************************* //
