/*--------------------------------*- C++ -*----------------------------------*\
| =========                 |                                                 |
| \\      /  F ield         | OpenFOAM: The Open Source CFD Toolbox           |
|  \\    /   O peration     | Version:  2306                                  |
|   \\  /    A nd           | Website:  www.openfoam.com                      |
|    \\/     M anipulation  |                                                 |
\*---------------------------------------------------------------------------*/
FoamFile
{
    version     2.0;
    format      ascii;
    arch        "LSB;label=32;scalar=64";
    class       volScalarField;
    location    "0.00154";
    object      prefDZ_T;
}
// * * * * * * * * * * * * * * * * * * * * * * * * * * * * * * * * * * * * * //

dimensions      [1 -1 -1 -1 0 0 0];

internalField   nonuniform List<scalar> 
530
(
-1.18750138e-09
-1.23292639e-09
-1.2283066e-09
-1.22947604e-09
-1.22075425e-09
-1.18896409e-09
-1.18533617e-09
-1.18488033e-09
-1.23189059e-09
-1.22815948e-09
-1.18885051e-09
-1.18660337e-09
-1.23231606e-09
-1.2275567e-09
-1.18793239e-09
-1.18713829e-09
-1.23236429e-09
-1.22639131e-09
-1.22763766e-09
-1.196983e-09
-1.18834145e-09
-1.18738635e-09
-1.18830633e-09
-1.22938307e-09
-1.22765683e-09
-1.22732339e-09
-1.22746313e-09
-1.19116421e-09
-1.18495238e-09
-1.18461911e-09
-1.23038774e-09
-1.22765247e-09
-1.18939588e-09
-1.18848622e-09
-1.23160212e-09
-1.22628684e-09
-1.22753483e-09
-1.19486175e-09
-1.1883979e-09
-1.18459348e-09
-1.18470438e-09
-1.23286737e-09
-1.2278363e-09
-1.22955771e-09
-1.18961283e-09
-1.18550247e-09
-1.23200377e-09
-1.22813966e-09
-1.22827768e-09
-1.22752959e-09
-1.20026887e-09
-1.18915477e-09
-1.18698048e-09
-1.1867211e-09
-1.23084554e-09
-1.22801425e-09
-1.19371678e-09
-1.1863365e-09
-1.1861665e-09
-1.22992768e-09
-1.228224e-09
-1.19921786e-09
-1.18590275e-09
-1.18602141e-09
-1.23019476e-09
-1.22656063e-09
-1.22767406e-09
-1.19827185e-09
-1.18643307e-09
-1.18601206e-09
-1.23009783e-09
-1.22715643e-09
-1.18975374e-09
-1.18889813e-09
-1.2304592e-09
-1.22606083e-09
-1.2271351e-09
-1.20157053e-09
-1.18941167e-09
-1.18712719e-09
-1.18706156e-09
-1.23006367e-09
-1.22818378e-09
-1.19237491e-09
-1.18518911e-09
-1.18476533e-09
-1.23015062e-09
-1.22744681e-09
-1.18876007e-09
-1.18784318e-09
-1.23075409e-09
-1.22594293e-09
-1.22757352e-09
-1.19598247e-09
-1.18743516e-09
-1.18854403e-09
-1.18620392e-09
-1.18912935e-09
-1.22850782e-09
-1.22589596e-09
-1.22607445e-09
-1.1893366e-09
-1.18870024e-09
-1.23007204e-09
-1.22647781e-09
-1.22798111e-09
-1.18981769e-09
-1.18848016e-09
-1.23010775e-09
-1.19105701e-09
-1.18583496e-09
-1.23032366e-09
-1.22684908e-09
-1.228306e-09
-1.19762203e-09
-1.1877875e-09
-1.18543991e-09
-1.18551214e-09
-1.23088699e-09
-1.22712299e-09
-1.2287049e-09
-1.19077924e-09
-1.18690387e-09
-1.22833023e-09
-1.22796585e-09
-1.19891698e-09
-1.18631789e-09
-1.18726378e-09
-1.22914194e-09
-1.19036088e-09
-1.18682363e-09
-1.22971838e-09
-1.22653913e-09
-1.2280423e-09
-1.19445859e-09
-1.18509562e-09
-1.18521001e-09
-1.22891303e-09
-1.22733591e-09
-1.18895397e-09
-1.18888108e-09
-1.22938349e-09
-1.19649817e-09
-1.18532617e-09
-1.22846938e-09
-1.22779865e-09
-1.18905616e-09
-1.18750075e-09
-1.22898641e-09
-1.22718962e-09
-1.18884706e-09
-1.1881388e-09
-1.22905559e-09
-1.22692859e-09
-1.18828322e-09
-1.18821288e-09
-1.22898127e-09
-1.22598631e-09
-1.22744786e-09
-1.19756632e-09
-1.18768041e-09
-1.18874045e-09
-1.18649793e-09
-1.18949904e-09
-1.22831464e-09
-1.22631717e-09
-1.22683633e-09
-1.22710239e-09
-1.20025801e-09
-1.18522167e-09
-1.18699007e-09
-1.22932937e-09
-1.19030452e-09
-1.18451182e-09
-1.2284773e-09
-1.22828135e-09
-1.18781604e-09
-1.18669919e-09
-1.22897885e-09
-1.22759025e-09
-1.18726508e-09
-1.18757194e-09
-1.22873133e-09
-1.22630209e-09
-1.22769562e-09
-1.19377488e-09
-1.18750733e-09
-1.18769111e-09
-1.18622469e-09
-1.1970474e-09
-1.22780575e-09
-1.22589966e-09
-1.22656853e-09
-1.22675848e-09
-1.19847002e-09
-1.18672332e-09
-1.18695995e-09
-1.2275002e-09
-1.22783647e-09
-1.19174882e-09
-1.18526013e-09
-1.18537677e-09
-1.22872589e-09
-1.22759864e-09
-1.18792465e-09
-1.18799622e-09
-1.22882056e-09
-1.18949746e-09
-1.1841079e-09
-1.22883682e-09
-1.22698397e-09
-1.22823994e-09
-1.1907291e-09
-1.18547403e-09
-1.19567167e-09
-1.22804486e-09
-1.2257213e-09
-1.22677977e-09
-1.22647139e-09
-1.19188178e-09
-1.18729836e-09
-1.22680041e-09
-1.22717731e-09
-1.19063218e-09
-1.18791576e-09
-1.18540981e-09
-1.18572053e-09
-1.22917435e-09
-1.22681387e-09
-1.22871174e-09
-1.1989343e-09
-1.18545894e-09
-1.1877518e-09
-1.2290339e-09
-1.19535098e-09
-1.18614481e-09
-1.22647247e-09
-1.22787436e-09
-1.19893383e-09
-1.18675576e-09
-1.18708539e-09
-1.22794826e-09
-1.2264765e-09
-1.22685321e-09
-1.20282982e-09
-1.19001502e-09
-1.18798663e-09
-1.18830974e-09
-1.22784439e-09
-1.19718772e-09
-1.18694644e-09
-1.22640476e-09
-1.22713979e-09
-1.19240091e-09
-1.18854814e-09
-1.18567243e-09
-1.1859824e-09
-1.22900379e-09
-1.2271901e-09
-1.22825829e-09
-1.22625505e-09
-1.22708108e-09
-1.19732983e-09
-1.18915695e-09
-1.18710241e-09
-1.18708586e-09
-1.22803656e-09
-1.22726444e-09
-1.18873644e-09
-1.18770408e-09
-1.22728943e-09
-1.22728281e-09
-1.19012831e-09
-1.18794298e-09
-1.18473314e-09
-1.18484117e-09
-1.22919638e-09
-1.22796412e-09
-1.2284652e-09
-1.22734513e-09
-1.18820552e-09
-1.18842802e-09
-1.22822815e-09
-1.18923473e-09
-1.18500881e-09
-1.22820692e-09
-1.22706955e-09
-1.22847228e-09
-1.19054419e-09
-1.18626644e-09
-1.22649056e-09
-1.22750177e-09
-1.18907466e-09
-1.1879944e-09
-1.22640973e-09
-1.22721596e-09
-1.19015606e-09
-1.18811527e-09
-1.18504543e-09
-1.18539292e-09
-1.22863581e-09
-1.22731855e-09
-1.22849496e-09
-1.2263151e-09
-1.2277827e-09
-1.19931923e-09
-1.18838239e-09
-1.18893631e-09
-1.18656636e-09
-1.18653068e-09
-1.22685013e-09
-1.22781483e-09
-1.19169308e-09
-1.18663892e-09
-1.18705328e-09
-1.22724387e-09
-1.22756466e-09
-1.18961412e-09
-1.18801874e-09
-1.22636275e-09
-1.22800923e-09
-1.20472675e-09
-1.18521806e-09
-1.18585722e-09
-1.22868522e-09
-1.2270717e-09
-1.22852113e-09
-1.22619173e-09
-1.22808383e-09
-1.19388138e-09
-1.18758805e-09
-1.18804602e-09
-1.1849701e-09
-1.18490075e-09
-1.22841071e-09
-1.22779928e-09
-1.18667137e-09
-1.18663498e-09
-1.22793314e-09
-1.22723478e-09
-1.22708835e-09
-1.22686782e-09
-1.19921026e-09
-1.18902732e-09
-1.18759327e-09
-1.18710286e-09
-1.22709747e-09
-1.22806053e-09
-1.18941515e-09
-1.18384332e-09
-1.18544291e-09
-1.22848076e-09
-1.22742009e-09
-1.22780704e-09
-1.18931926e-09
-1.18887372e-09
-1.22774926e-09
-1.20009091e-09
-1.18494127e-09
-1.22566075e-09
-1.22878044e-09
-1.1902642e-09
-1.18395507e-09
-1.18547384e-09
-1.22885575e-09
-1.22730457e-09
-1.2284717e-09
-1.22668354e-09
-1.22789033e-09
-1.19014871e-09
-1.18799488e-09
-1.18566896e-09
-1.18628491e-09
-1.22826915e-09
-1.22698755e-09
-1.22827223e-09
-1.19044734e-09
-1.18732843e-09
-1.22571659e-09
-1.22800161e-09
-1.1937652e-09
-1.18658264e-09
-1.18773603e-09
-1.22809701e-09
-1.22624919e-09
-1.22799993e-09
-1.19356764e-09
-1.18728305e-09
-1.18820486e-09
-1.184326e-09
-1.18465144e-09
-1.22883684e-09
-1.22819632e-09
-1.22853261e-09
-1.18646946e-09
-1.18626022e-09
-1.2284479e-09
-1.22745274e-09
-1.22835363e-09
-1.18865041e-09
-1.18720688e-09
-1.22780924e-09
-1.2267205e-09
-1.22823223e-09
-1.19124066e-09
-1.18585567e-09
-1.18630962e-09
-1.22716249e-09
-1.22789143e-09
-1.19034693e-09
-1.18605019e-09
-1.18634965e-09
-1.22735151e-09
-1.22777846e-09
-1.18930895e-09
-1.18670853e-09
-1.22644911e-09
-1.22817157e-09
-1.18979337e-09
-1.18443762e-09
-1.18598598e-09
-1.22869965e-09
-1.22711338e-09
-1.22836016e-09
-1.18898125e-09
-1.18632219e-09
-1.22670625e-09
-1.22750246e-09
-1.18804267e-09
-1.18749111e-09
-1.2265495e-09
-1.22714218e-09
-1.18887099e-09
-1.18827023e-09
-1.22577388e-09
-1.22697531e-09
-1.19556061e-09
-1.18770172e-09
-1.18772645e-09
-1.22628012e-09
-1.22706968e-09
-1.19074236e-09
-1.18638861e-09
-1.18669201e-09
-1.22716913e-09
-1.22710579e-09
-1.18863788e-09
-1.18728363e-09
-1.22662569e-09
-1.22707908e-09
-1.18898927e-09
-1.18774179e-09
-1.22603338e-09
-1.22734305e-09
-1.19274396e-09
-1.18615165e-09
-1.18695175e-09
-1.22755471e-09
-1.22738419e-09
-1.22660534e-09
-1.22741365e-09
-1.19186488e-09
-1.18669782e-09
-1.18787202e-09
-1.18385711e-09
-1.18461252e-09
-1.22916669e-09
-1.22768306e-09
-1.22866532e-09
-1.22690127e-09
-1.22802283e-09
-1.19047116e-09
-1.18754766e-09
-1.18668693e-09
-1.18660875e-09
-1.22830444e-09
-1.22762955e-09
-1.18733773e-09
-1.1870529e-09
-1.22809589e-09
-1.22739006e-09
-1.18691884e-09
-1.18710399e-09
-1.22786992e-09
-1.22718372e-09
-1.22671834e-09
-1.22679442e-09
-1.19208171e-09
-1.18839397e-09
-1.18751962e-09
-1.18736294e-09
-1.2280326e-09
-1.22702482e-09
-1.18722517e-09
-1.18796061e-09
-1.2277132e-09
-1.22617608e-09
-1.22748947e-09
-1.19319479e-09
-1.18740692e-09
-1.1874919e-09
-1.18721825e-09
-1.22773744e-09
-1.22678158e-09
-1.18843939e-09
-1.18924062e-09
-1.22667139e-09
-1.19783263e-09
-1.18896658e-09
-1.22685707e-09
-1.19260231e-09
-1.18815975e-09
-1.22716718e-09
-1.22608422e-09
-1.22711107e-09
-1.19183658e-09
-1.18718111e-09
-1.18652897e-09
-1.18626984e-09
-1.22858118e-09
-1.22750111e-09
-1.18600311e-09
-1.18671612e-09
-1.22847665e-09
-1.22714246e-09
-1.22750561e-09
-1.18871008e-09
-1.18771027e-09
-1.22838287e-09
-1.22609344e-09
)
;

boundaryField
{
    closed
    {
        type            calculated;
        value           nonuniform List<scalar> 0();
    }
    open
    {
        type            calculated;
        value           nonuniform List<scalar> 0();
    }
    sides
    {
        type            empty;
    }
    procBoundary2to1
    {
        type            processor;
        value           uniform -1.18957653e-09;
    }
    procBoundary2to3
    {
        type            processor;
        value           uniform -1.22770817e-09;
    }
}


// ************************************************************************* //
