/*--------------------------------*- C++ -*----------------------------------*\
| =========                 |                                                 |
| \\      /  F ield         | OpenFOAM: The Open Source CFD Toolbox           |
|  \\    /   O peration     | Version:  2306                                  |
|   \\  /    A nd           | Website:  www.openfoam.com                      |
|    \\/     M anipulation  |                                                 |
\*---------------------------------------------------------------------------*/
FoamFile
{
    version     2.0;
    format      ascii;
    arch        "LSB;label=32;scalar=64";
    class       volScalarField;
    location    "0.00154";
    object      Z;
}
// * * * * * * * * * * * * * * * * * * * * * * * * * * * * * * * * * * * * * //

dimensions      [0 0 0 0 0 0 0];

internalField   nonuniform List<scalar> 
530
(
0.0148427064
0.0141334073
0.0140970621
0.0141056093
0.0142685566
0.0147849807
0.0149225629
0.0149117522
0.0141251231
0.0140890632
0.0147973322
0.0148494897
0.0141265726
0.0140825692
0.0148165511
0.0148240419
0.0141236546
0.0140722965
0.0140833701
0.0145813251
0.0147994819
0.0148216933
0.0148106065
0.0140985699
0.0140849565
0.0140812048
0.0140810139
0.0146910566
0.0149185274
0.0149092083
0.0141116348
0.0140839624
0.0147743305
0.0147892498
0.0141192474
0.0140737918
0.0140849719
0.0146252656
0.0148095887
0.0149207062
0.0149215991
0.0141288991
0.0140879965
0.0141006411
0.0147537943
0.0148967127
0.0141217262
0.0140903737
0.0140905137
0.0140847037
0.0145295956
0.014775356
0.0148456161
0.0148474238
0.0141136333
0.0140873948
0.0146490035
0.0148707634
0.0148667915
0.0141063506
0.014090619
0.0145464394
0.0148859843
0.014863831
0.0141069216
0.0140745661
0.0140852845
0.0145597102
0.014867662
0.014857902
0.0141081887
0.0140780964
0.0147535405
0.0147694563
0.0141080627
0.0140705363
0.0140804506
0.0145064072
0.0147638041
0.0148316899
0.0148370853
0.0141044051
0.0140887806
0.0146672557
0.0149067481
0.0148947624
0.0141080965
0.0140793979
0.0147836479
0.0147941353
0.0141093904
0.0140664666
0.0140826861
0.0145908529
0.0148256154
0.0147562933
0.014863149
0.0147463637
0.014088633
0.0140663652
0.0140684747
0.0147446073
0.0147715483
0.0141008386
0.0140728708
0.0140837811
0.0147341728
0.0147858511
0.0141022871
0.0146973326
0.0148791552
0.0141060259
0.014078918
0.0140898972
0.0145748899
0.014823368
0.0148883638
0.0148893688
0.0141098682
0.0140805539
0.0140923519
0.0147064166
0.0148515168
0.0140886938
0.0140885923
0.0145484232
0.014866105
0.014820403
0.014094959
0.0147170601
0.0148439936
0.0140983725
0.0140752917
0.0140852523
0.0146296914
0.0149012325
0.0148844843
0.0140946462
0.0140798047
0.0147729418
0.0147713104
0.014096689
0.0145906272
0.014888883
0.0140890434
0.0140846401
0.0147638203
0.0148216809
0.0140939764
0.0140801492
0.0147772092
0.0147987854
0.0140945249
0.0140775086
0.014792279
0.014791152
0.0140927807
0.0140683541
0.0140815292
0.0145659437
0.0148208711
0.0147519208
0.0148603007
0.0147328098
0.0140885007
0.0140696208
0.014077191
0.0140765918
0.0145282743
0.0148867715
0.0148298029
0.0140945749
0.0147206246
0.0149211194
0.0140887552
0.0140904902
0.0148053939
0.0148536185
0.0140926223
0.014084687
0.0148234133
0.0148196032
0.0140895404
0.0140722044
0.0140832698
0.0146350402
0.0148273769
0.0147789364
0.0148654373
0.0145670849
0.0140849478
0.0140630896
0.0140751434
0.0140725554
0.0145589347
0.0148368602
0.0148364798
0.0140797892
0.0140851306
0.0146816874
0.0149035702
0.0148817137
0.0140935769
0.0140832995
0.0148078819
0.0148055096
0.0140890565
0.0147461336
0.0149208145
0.0140880246
0.0140757757
0.0140852378
0.0146896088
0.0148891622
0.0145920754
0.0140862842
0.014060622
0.0140759561
0.0140676364
0.0146767024
0.01481361
0.0140723139
0.0140785104
0.0147068754
0.0148154198
0.0148815153
0.0148809071
0.0140936584
0.014078335
0.0140936753
0.0145506199
0.0149011005
0.0148002795
0.0140957915
0.0146079671
0.0148774309
0.0140686337
0.014087985
0.0145451851
0.0148527532
0.0148226516
0.0140851994
0.0140738892
0.0140779596
0.0144874692
0.0147398458
0.0148024166
0.0147886817
0.014082276
0.0145772627
0.0148345818
0.014068515
0.01407924
0.0146639554
0.0147922117
0.0148670182
0.014866318
0.0140895539
0.0140793033
0.0140861056
0.0140714806
0.0140790826
0.0145764825
0.0147667961
0.0148261163
0.0148271054
0.0140830845
0.0140794168
0.0147715698
0.0148128072
0.0140774549
0.0140810324
0.014731513
0.0148142949
0.01490453
0.0149044412
0.0140925772
0.0140856972
0.0140892734
0.0140797275
0.0147977043
0.0147850028
0.014083395
0.0147520222
0.0148968799
0.0140813318
0.0140794359
0.0140855811
0.0147112498
0.0148609116
0.0140688406
0.0140827449
0.0147503051
0.0148083206
0.0140681602
0.0140806902
0.0147223093
0.0148069097
0.0148873045
0.0148836968
0.0140863332
0.0140799709
0.0140885428
0.0140714337
0.0140866935
0.0145412842
0.0148008965
0.0147671787
0.0148494424
0.0148469573
0.0140737756
0.0140849579
0.0146836642
0.0148542335
0.0148318113
0.0140792831
0.0140842625
0.0147453868
0.0148198112
0.0140684851
0.0140905527
0.0144569466
0.0149007178
0.0148600038
0.014090542
0.0140776616
0.014091615
0.0140707079
0.0140911435
0.014638313
0.0148388951
0.0147925408
0.0149128138
0.0148921437
0.0140898121
0.0140836732
0.0148483682
0.0148434198
0.0140815338
0.0140801408
0.0140768426
0.0140770837
0.0145457153
0.0147689289
0.0148127414
0.0148272903
0.0140756488
0.0140856345
0.0147545378
0.0149345557
0.0148814973
0.0140871632
0.0140831405
0.0140823507
0.0147648023
0.0147705191
0.0140814263
0.0145274889
0.014902669
0.0140620058
0.0140944237
0.0147127009
0.014944857
0.0148686982
0.0140929692
0.0140794996
0.0140912637
0.0140758109
0.0140884629
0.0147318451
0.0148189708
0.0148707037
0.0148636244
0.0140847041
0.0140797956
0.0140874097
0.014718779
0.014839065
0.0140637011
0.0140899992
0.0146380541
0.0148658408
0.0148005319
0.0140882986
0.0140725527
0.0140892743
0.0146501005
0.0148452987
0.0147986867
0.0149292704
0.0149110995
0.0140927498
0.0140898468
0.0140914845
0.0148530425
0.0148670266
0.0140859382
0.0140845227
0.0140869117
0.0147834018
0.014835225
0.0140811924
0.01407898
0.0140861963
0.0147039685
0.0148772674
0.0148563815
0.0140797539
0.0140857168
0.0147291233
0.0148724696
0.0148537464
0.0140807877
0.0140846095
0.0147557718
0.0148518483
0.0140711115
0.0140889816
0.0147378493
0.0149241203
0.0148590295
0.0140907459
0.0140787347
0.0140881296
0.0147607366
0.0148594639
0.0140712418
0.0140823019
0.0147813817
0.014820151
0.0140688718
0.0140792158
0.0147505166
0.0147957816
0.0140622329
0.014077459
0.0146004795
0.0148057007
0.0147941691
0.0140684727
0.0140759114
0.0146932911
0.014848508
0.0148242769
0.0140765577
0.0140755843
0.014765188
0.0148176669
0.0140701429
0.0140773928
0.0147475697
0.0148114124
0.0140655074
0.0140807504
0.0146554345
0.0148619265
0.0148248117
0.0140800883
0.0140806557
0.0140731974
0.0140818546
0.0146794977
0.0148563006
0.0148031192
0.0149404608
0.0149066817
0.0140955387
0.0140844275
0.0140918877
0.0140789875
0.0140878906
0.0147256466
0.0148313852
0.0148461275
0.0148536171
0.0140881958
0.0140843464
0.0148219374
0.0148352287
0.0140857991
0.0140816453
0.0148288751
0.0148295478
0.0140818694
0.0140790377
0.0140736197
0.0140749018
0.0146740253
0.0147890532
0.014812574
0.0148172594
0.0140844639
0.0140775218
0.0148150398
0.0148009434
0.0140798787
0.0140714262
0.0140788609
0.0146518261
0.014818471
0.0148091359
0.0148214007
0.0140814203
0.0140751359
0.0147712436
0.0147558965
0.0140706223
0.0145651828
0.0147505171
0.0140732141
0.0146575451
0.0147854729
0.0140755171
0.0140694
0.0140751158
0.0146769958
0.014822141
0.0148389466
0.0148507339
0.0140882168
0.0140814522
0.0148482544
0.0148410032
0.0140857636
0.0140794075
0.0140777751
0.0147738716
0.0147993781
0.0140870922
0.0140695228
)
;

boundaryField
{
    closed
    {
        type            zeroGradient;
    }
    open
    {
        type            zeroGradient;
    }
    sides
    {
        type            empty;
    }
    procBoundary2to1
    {
        type            processor;
        value           uniform 0.0147701572;
    }
    procBoundary2to3
    {
        type            processor;
        value           uniform 0.014080972;
    }
}


// ************************************************************************* //
