/*--------------------------------*- C++ -*----------------------------------*\
| =========                 |                                                 |
| \\      /  F ield         | OpenFOAM: The Open Source CFD Toolbox           |
|  \\    /   O peration     | Version:  2306                                  |
|   \\  /    A nd           | Website:  www.openfoam.com                      |
|    \\/     M anipulation  |                                                 |
\*---------------------------------------------------------------------------*/
FoamFile
{
    version     2.0;
    format      ascii;
    arch        "LSB;label=32;scalar=64";
    class       surfaceScalarField;
    location    "0.00144";
    object      phi;
}
// * * * * * * * * * * * * * * * * * * * * * * * * * * * * * * * * * * * * * //

dimensions      [1 0 -1 0 0 0 0];

oriented        oriented;

internalField   nonuniform List<scalar> 
529
(
2.3783293e-06
2.37309455e-06
2.3679878e-06
2.36301183e-06
2.35817591e-06
2.35348281e-06
2.34894404e-06
2.34456218e-06
2.34034942e-06
2.33631921e-06
2.33247227e-06
2.32881075e-06
2.32534438e-06
2.32207596e-06
2.31901154e-06
2.31615371e-06
2.31350478e-06
2.31106588e-06
2.30883597e-06
2.30681359e-06
2.304995e-06
2.30337528e-06
2.30194873e-06
2.30070664e-06
2.29964174e-06
2.29874819e-06
2.29801089e-06
2.29741595e-06
2.29695278e-06
2.29660674e-06
2.29636533e-06
2.29621397e-06
2.29613918e-06
2.29610415e-06
2.2961184e-06
2.29616822e-06
2.296241e-06
2.29632393e-06
2.29640558e-06
2.29647449e-06
2.29652052e-06
2.29653389e-06
2.29650582e-06
2.29642828e-06
2.29629395e-06
2.29609633e-06
2.29582977e-06
2.2954888e-06
2.29506977e-06
2.29456759e-06
2.29398077e-06
2.29330675e-06
2.29254319e-06
2.29168647e-06
2.29073628e-06
2.28969071e-06
2.28854897e-06
2.28731027e-06
2.28597379e-06
2.28453913e-06
2.28300579e-06
2.28137331e-06
2.2796416e-06
2.27780996e-06
2.27587863e-06
2.27384663e-06
2.27171446e-06
2.26948086e-06
2.26714653e-06
2.26470998e-06
2.26217207e-06
2.25953112e-06
2.25678809e-06
2.25394126e-06
2.25099165e-06
2.24793754e-06
2.24478004e-06
2.24151752e-06
2.23815114e-06
2.23467948e-06
2.23110371e-06
2.22742272e-06
2.22363767e-06
2.21974783e-06
2.21575434e-06
2.21165691e-06
2.20745663e-06
2.20315367e-06
2.19874914e-06
2.19424356e-06
2.18963825e-06
2.18493378e-06
2.18013207e-06
2.17523324e-06
2.17024045e-06
2.16515254e-06
2.15997474e-06
2.15470281e-06
2.14934414e-06
2.14389654e-06
2.13836517e-06
2.13274965e-06
2.12705288e-06
2.1212783e-06
2.11542351e-06
2.10949937e-06
2.10349403e-06
2.09741465e-06
2.09125727e-06
2.08503848e-06
2.07875042e-06
2.07240173e-06
2.06598975e-06
2.05951985e-06
2.05299113e-06
2.04640833e-06
2.03977069e-06
2.03308318e-06
2.02634481e-06
2.01956075e-06
2.01272998e-06
2.00585758e-06
1.99894286e-06
1.9919904e-06
1.98500023e-06
1.97797616e-06
1.9709191e-06
1.96383201e-06
1.95671104e-06
1.94956484e-06
1.94239294e-06
1.93519937e-06
1.92798396e-06
1.92075063e-06
1.91349908e-06
1.90623339e-06
1.89895303e-06
1.89166219e-06
1.88436018e-06
1.87705117e-06
1.86973443e-06
1.862414e-06
1.85508913e-06
1.8477637e-06
1.84043701e-06
1.83311267e-06
1.82579006e-06
1.81847258e-06
1.81115962e-06
1.80385437e-06
1.79655626e-06
1.78926828e-06
1.78198987e-06
1.77472384e-06
1.76746966e-06
1.76022997e-06
1.75300421e-06
1.74579495e-06
1.73860158e-06
1.73142659e-06
1.72426933e-06
1.71713226e-06
1.71001467e-06
1.70291901e-06
1.69584454e-06
1.6887937e-06
1.68176573e-06
1.67476307e-06
1.66778499e-06
1.66083393e-06
1.65390919e-06
1.64701319e-06
1.64014539e-06
1.63330809e-06
1.62650098e-06
1.6197262e-06
1.61298379e-06
1.6062756e-06
1.59960214e-06
1.59296488e-06
1.58636492e-06
1.5798032e-06
1.57328156e-06
1.56680029e-06
1.56036207e-06
1.55396643e-06
1.54761695e-06
1.54131241e-06
1.5350572e-06
1.52884949e-06
1.52269431e-06
1.51658947e-06
1.51054026e-06
1.50454455e-06
1.49860738e-06
1.49272693e-06
1.48690797e-06
1.48114801e-06
1.47545432e-06
1.46981671e-06
1.4642611e-06
1.45872926e-06
1.45335768e-06
1.44796076e-06
1.44267857e-06
1.43745556e-06
1.43231146e-06
1.42724014e-06
1.42224504e-06
1.41732568e-06
1.41248424e-06
1.40771978e-06
1.40303511e-06
1.39842824e-06
1.39390239e-06
1.38945486e-06
1.38508892e-06
1.38080144e-06
1.3765955e-06
1.37246785e-06
1.36842118e-06
1.36445223e-06
1.36056326e-06
1.35675102e-06
1.3530173e-06
1.3493589e-06
1.34577714e-06
1.34226886e-06
1.33883495e-06
1.33547229e-06
1.33218139e-06
1.32895914e-06
1.32580573e-06
1.3227181e-06
1.3196961e-06
1.31673673e-06
1.3138396e-06
1.31100174e-06
1.30822254e-06
1.30549911e-06
1.30283063e-06
1.3002143e-06
1.29765856e-06
1.29515127e-06
1.29269137e-06
1.29027618e-06
1.28790457e-06
1.28557396e-06
1.28328314e-06
1.28102966e-06
1.27881228e-06
1.27662866e-06
1.27447755e-06
1.27235675e-06
1.27026501e-06
1.26820027e-06
1.26616133e-06
1.26414625e-06
1.26215389e-06
1.26018246e-06
1.2582309e-06
1.25629757e-06
1.25438148e-06
1.25248117e-06
1.25059575e-06
1.2487239e-06
1.24686487e-06
1.2450175e-06
1.24318116e-06
1.24135488e-06
1.23953816e-06
1.2377302e-06
1.23593065e-06
1.2341389e-06
1.23235476e-06
1.2305778e-06
1.228808e-06
1.22704512e-06
1.22528931e-06
1.22354053e-06
1.2217991e-06
1.22006672e-06
1.21834248e-06
1.21662674e-06
1.21492017e-06
1.21322336e-06
1.21153716e-06
1.20986234e-06
1.20819995e-06
1.20655095e-06
1.20491656e-06
1.20329795e-06
1.20169651e-06
1.20011359e-06
1.19855074e-06
1.19700951e-06
1.19549159e-06
1.19399868e-06
1.19253264e-06
1.19109532e-06
1.18968868e-06
1.18831473e-06
1.18697554e-06
1.18567322e-06
1.18440995e-06
1.18318792e-06
1.18200939e-06
1.1808766e-06
1.17979188e-06
1.17875751e-06
1.17777584e-06
1.17684916e-06
1.17597981e-06
1.17517007e-06
1.17442227e-06
1.17373864e-06
1.17312143e-06
1.1725728e-06
1.17209494e-06
1.17168989e-06
1.17135972e-06
1.17110635e-06
1.17093169e-06
1.17083752e-06
1.17082557e-06
1.17091088e-06
1.17108146e-06
1.17133869e-06
1.17168391e-06
1.17211824e-06
1.17264281e-06
1.17325848e-06
1.17396611e-06
1.17476632e-06
1.17565967e-06
1.17664652e-06
1.17772712e-06
1.17890156e-06
1.18016978e-06
1.18153158e-06
1.18298661e-06
1.18453435e-06
1.18617414e-06
1.18790517e-06
1.18972648e-06
1.19163695e-06
1.19363532e-06
1.19572018e-06
1.19788997e-06
1.20014299e-06
1.2024774e-06
1.20489123e-06
1.20738236e-06
1.20994854e-06
1.21258742e-06
1.2152965e-06
1.21807316e-06
1.22091469e-06
1.22381825e-06
1.22678091e-06
1.22979963e-06
1.23287128e-06
1.23599264e-06
1.23916043e-06
1.24237125e-06
1.24562168e-06
1.2489082e-06
1.25222724e-06
1.25557518e-06
1.25894837e-06
1.26234309e-06
1.26575561e-06
1.26918218e-06
1.27261899e-06
1.27606226e-06
1.27950818e-06
1.28295296e-06
1.28639278e-06
1.28982387e-06
1.29324244e-06
1.29664479e-06
1.30002715e-06
1.3033859e-06
1.30671736e-06
1.310018e-06
1.31328588e-06
1.316516e-06
1.3197049e-06
1.3228493e-06
1.3259459e-06
1.32899156e-06
1.33198318e-06
1.33491778e-06
1.33779245e-06
1.34060441e-06
1.34335095e-06
1.3460295e-06
1.34863758e-06
1.35117284e-06
1.35363302e-06
1.35601601e-06
1.35831981e-06
1.36054253e-06
1.36268243e-06
1.36473788e-06
1.36670738e-06
1.36858954e-06
1.37038313e-06
1.37208703e-06
1.37370023e-06
1.37522186e-06
1.37665119e-06
1.37798758e-06
1.37923052e-06
1.38037963e-06
1.38143463e-06
1.38239535e-06
1.38326173e-06
1.38403383e-06
1.38471179e-06
1.38529584e-06
1.38578633e-06
1.38618367e-06
1.38648838e-06
1.38670102e-06
1.38682227e-06
1.38685284e-06
1.38679352e-06
1.38664515e-06
1.38640865e-06
1.38608496e-06
1.38567508e-06
1.38518004e-06
1.38460091e-06
1.38393882e-06
1.38319486e-06
1.38237023e-06
1.38146607e-06
1.38049559e-06
1.37944787e-06
1.37832416e-06
1.37712567e-06
1.37585367e-06
1.37450939e-06
1.37309409e-06
1.37160903e-06
1.37005548e-06
1.36843471e-06
1.36674798e-06
1.36499659e-06
1.3631818e-06
1.36130492e-06
1.35936309e-06
1.35721667e-06
1.35484311e-06
1.35221753e-06
1.34931254e-06
1.34609809e-06
1.3425414e-06
1.33860689e-06
1.33425622e-06
1.3294485e-06
1.32414065e-06
1.31828807e-06
1.31184559e-06
1.30476893e-06
1.29701672e-06
1.28855305e-06
1.27935073e-06
1.26939496e-06
1.25868709e-06
1.24724768e-06
1.23511759e-06
1.2223551e-06
1.20902683e-06
1.19518976e-06
1.18086298e-06
1.16599023e-06
1.15039933e-06
1.13377189e-06
1.11564524e-06
1.0954747e-06
1.07278125e-06
1.04738844e-06
1.01970978e-06
9.90999937e-07
9.63535749e-07
9.40975457e-07
9.29748671e-07
9.42343497e-07
9.9694434e-07
1.10845604e-06
1.26891774e-06
1.42457473e-06
1.5209927e-06
1.55481281e-06
1.57302403e-06
1.6201403e-06
1.70555864e-06
1.82262881e-06
1.96643105e-06
2.12148381e-06
2.26009905e-06
2.39044449e-06
2.55827067e-06
2.6683813e-06
2.75691804e-06
2.42545472e-06
2.09872079e-06
2.97170852e-06
4.55527599e-06
4.99164241e-06
3.47981054e-06
1.60055503e-06
7.91222763e-07
8.67215119e-07
1.2994223e-06
1.65612539e-06
1.77984191e-06
1.8015862e-06
1.87637575e-06
1.59521063e-06
9.51525703e-07
8.14317309e-07
1.63201176e-06
2.89543755e-06
3.9401031e-06
4.26004391e-06
3.82567965e-06
)
;

boundaryField
{
    closed
    {
        type            calculated;
        value           nonuniform List<scalar> 0();
    }
    open
    {
        type            calculated;
        value           uniform 3.26687898e-06;
    }
    sides
    {
        type            empty;
        value           nonuniform List<scalar> 0();
    }
    procBoundary5to4
    {
        type            processor;
        value           uniform -2.3836852e-06;
    }
}


// ************************************************************************* //
