/*--------------------------------*- C++ -*----------------------------------*\
| =========                 |                                                 |
| \\      /  F ield         | OpenFOAM: The Open Source CFD Toolbox           |
|  \\    /   O peration     | Version:  2306                                  |
|   \\  /    A nd           | Website:  www.openfoam.com                      |
|    \\/     M anipulation  |                                                 |
\*---------------------------------------------------------------------------*/
FoamFile
{
    version     2.0;
    format      ascii;
    arch        "LSB;label=32;scalar=64";
    class       volScalarField;
    location    "0.00144";
    object      prefDh_H;
}
// * * * * * * * * * * * * * * * * * * * * * * * * * * * * * * * * * * * * * //

dimensions      [1 1 -3 0 0 0 0];

internalField   nonuniform List<scalar> 
530
(
92488.2542
92557.5085
92621.1779
92687.8719
92749.1846
92813.5061
92872.6436
92934.766
92991.9038
93049.2819
93101.6697
93156.9005
93207.5054
93260.9049
93309.8261
93361.4907
93408.8182
93458.8446
93504.6624
93553.146
93597.5343
93644.5671
93687.6053
93733.2745
93775.0424
93819.1957
93858.3326
93899.968
93937.9223
93978.3914
94015.2094
94054.5548
94090.2791
94129.7563
94165.9652
94205.064
94240.1447
94278.1539
94312.1513
94349.1174
94382.0752
94418.0439
94450.0045
94485.0207
94516.0252
94550.1335
94580.2224
94613.4663
94642.6799
94675.1008
94703.481
94734.7833
94761.1708
94790.7122
94816.2631
94845.014
94869.749
94897.7288
94921.6655
94948.894
94972.0488
94998.545
95020.934
95046.7155
95068.355
95093.4379
95114.3445
95138.7439
95158.9344
95182.6643
95202.1555
95225.2294
95244.0378
95266.4688
95284.6109
95306.4117
95323.9035
95345.0868
95361.9439
95382.5224
95398.76
95418.7467
95434.3794
95453.7879
95468.8295
95487.6738
95502.1375
95520.4324
95534.3309
95552.0919
95565.4376
95582.6802
95595.4859
95612.2257
95624.506
95640.7568
95652.53
95667.9882
95678.8345
95693.5609
95703.8881
95718.0914
95727.9093
95741.5947
95750.9071
95764.0935
95772.8908
95785.0942
95793.617
95805.3046
95813.7763
95824.5155
95832.8906
95842.7307
95850.9768
95859.9567
95868.0461
95876.2004
95884.1072
95891.468
95899.168
95905.7652
95913.2368
95919.0971
95926.323
95931.4692
95938.4381
95942.8884
95949.3954
95953.2305
95959.5352
95962.7717
95968.71
95971.3626
95976.928
95979.0111
95984.1959
95985.724
95990.5201
95991.507
95995.9069
95996.3655
96000.3624
96000.3046
96003.8928
96003.3296
96006.5043
96005.4459
96008.2033
96006.6591
96008.9961
96006.9749
96008.8892
96006.3994
96007.8892
96004.9387
96006.0029
96002.5994
96003.2371
95999.3881
95999.599
95995.3118
95995.0959
95990.3778
95989.7352
95984.5935
95983.5248
95977.9669
95976.4726
95970.5058
95968.5871
95962.2188
95959.877
95953.1143
95950.3513
95943.2014
95940.0198
95932.4893
95928.8925
95920.9877
95916.9803
95908.7063
95904.2944
95895.6557
95890.847
95881.8467
95876.6506
95867.2905
95861.7184
95851.9992
95846.0641
95835.9855
95829.7013
95819.2629
95812.6435
95801.8457
95794.904
95783.7484
95776.4967
95764.983
95757.4404
95745.5347
95737.8108
95725.8623
95717.4574
95705.4667
95696.5296
95684.3944
95674.9754
95662.6846
95652.7991
95640.3465
95630.0099
95617.3887
95606.6181
95593.8203
95582.6337
95569.6516
95558.0669
95544.8936
95532.9281
95519.5576
95507.2276
95493.6551
95480.976
95467.1981
95454.1842
95440.1982
95426.8631
95412.6675
95399.0236
95384.6178
95370.6771
95356.0612
95341.8348
95327.0097
95312.5084
95297.4755
95282.7095
95267.4711
95252.4501
95237.0089
95221.6693
95205.9035
95190.2823
95174.3209
95158.4733
95142.3207
95126.2555
95109.9163
95093.6421
95077.1212
95060.6463
95043.949
95027.2816
95010.4133
94993.5616
94976.528
94959.4999
94942.307
94925.1104
94907.7642
94890.4069
94872.9135
94855.4033
94837.7693
94820.1137
94802.3454
94784.5523
94766.6563
94748.7331
94730.716
94712.6704
94694.5388
94676.3783
94658.1391
94639.8711
94621.5312
94603.1631
94584.7292
94566.2686
94547.7635
94529.2539
94510.6816
94492.0771
94473.416
94454.7244
94435.9821
94417.2113
94398.3953
94379.5531
94360.6709
94341.765
94322.8242
94303.8624
94284.8703
94265.8602
94246.8242
94227.7734
94208.7011
94189.617
94170.5156
94151.4057
94132.2824
94113.1541
94094.0162
94074.8767
94055.7314
94036.5878
94017.4422
93998.3016
93979.1626
93960.0322
93940.9067
93921.7933
93902.6881
93883.5985
93864.5203
93845.4614
93826.4167
93807.395
93788.3903
93769.4124
93750.4541
93731.5264
93712.5836
93693.5529
93674.5527
93655.5947
93636.6708
93617.7912
93598.949
93580.1533
93561.3982
93542.6919
93524.0291
93505.4176
93486.8523
93468.3407
93449.8781
93431.4714
93413.1163
93394.8196
93376.5768
93358.3948
93340.2691
93322.2065
93304.2024
93286.2638
93268.3859
93250.5756
93232.8282
93215.1505
93197.5378
93179.9969
93162.523
93145.1229
93127.7917
93110.5362
93093.3516
93076.2445
93059.2102
93042.2551
93025.3745
93008.5748
92991.8515
92975.2106
92958.6478
92942.1689
92925.7697
92909.4558
92893.2232
92877.0772
92861.0141
92845.0389
92829.1478
92813.3461
92797.6297
92782.004
92766.4645
92751.0172
92735.657
92720.3905
92705.2115
92690.1279
92675.16
92660.3148
92645.5557
92630.8902
92616.3127
92601.8294
92587.4356
92573.1365
92558.9283
92544.8155
92530.7946
92516.8699
92503.0381
92489.3031
92475.6618
92462.118
92448.6686
92435.3173
92422.061
92408.9033
92395.8412
92382.8782
92370.0111
92357.2436
92344.5724
92332.0011
92319.5265
92307.152
92294.8744
92282.6971
92270.6169
92258.6371
92246.7546
92234.9725
92223.2878
92211.7033
92200.2164
92188.8296
92177.5403
92166.3509
92155.2589
92144.2666
92133.3717
92122.576
92111.8776
92101.278
92090.7755
92080.3713
92070.0639
92059.8545
92049.7414
92039.7258
92029.8061
92019.8677
92009.9922
92000.2153
91990.5354
91980.9532
91971.4674
91962.0786
91952.7855
91943.5887
91934.4868
91925.4803
91916.5681
91907.7504
91899.0262
91890.3865
91881.526
91872.1451
91862.2215
91851.7351
91840.6651
91828.9935
91816.7026
91803.7782
91790.2074
91775.982
91761.0967
91745.5516
91729.3522
91712.5102
91695.0454
91676.985
91658.367
91639.2378
91619.658
91599.6969
91579.4408
91558.9848
91538.4429
91517.9362
91497.6052
91477.5938
91458.0626
91439.1694
91421.0823
91403.9572
91387.9492
91373.19
91359.7953
91347.8466
91337.3931
91328.4435
91320.9623
91314.877
91310.07
91306.4014
91303.7018
91301.8005
91300.5232
91299.7186
91299.2416
91298.9974
91298.8817
91298.6463
91298.5295
91298.4684
91298.4432
91298.4328
91298.4296
91298.4284
91298.4279
91298.4278
91298.4278
91298.4278
91298.4278
91298.4278
91298.4278
91298.4278
91298.4278
91298.4278
91298.4278
91298.4278
91298.4278
91298.4278
91298.4278
91298.4278
91298.4278
91298.4278
91298.4278
91298.4278
91298.4278
91298.4278
91298.4278
)
;

boundaryField
{
    closed
    {
        type            calculated;
        value           nonuniform List<scalar> 0();
    }
    open
    {
        type            calculated;
        value           uniform 91298.4278;
    }
    sides
    {
        type            empty;
    }
    procBoundary5to4
    {
        type            processor;
        value           uniform 92422.0402;
    }
}


// ************************************************************************* //
