/*--------------------------------*- C++ -*----------------------------------*\
| =========                 |                                                 |
| \\      /  F ield         | OpenFOAM: The Open Source CFD Toolbox           |
|  \\    /   O peration     | Version:  2306                                  |
|   \\  /    A nd           | Website:  www.openfoam.com                      |
|    \\/     M anipulation  |                                                 |
\*---------------------------------------------------------------------------*/
FoamFile
{
    version     2.0;
    format      ascii;
    arch        "LSB;label=32;scalar=64";
    class       volVectorField;
    location    "0.00144";
    object      U;
}
// * * * * * * * * * * * * * * * * * * * * * * * * * * * * * * * * * * * * * //

dimensions      [0 1 -1 0 0 0 0];

internalField   nonuniform List<vector> 
530
(
(2.01470914 0 0)
(2.0120098 0 0)
(2.00937611 0 0)
(2.00681488 0 0)
(2.00433188 0 0)
(2.00193565 0 0)
(1.99963416 0 0)
(1.99743288 0 0)
(1.99531648 0 0)
(1.99327629 0 0)
(1.99133693 0 0)
(1.98952598 0 0)
(1.98785342 0 0)
(1.98632445 0 0)
(1.98494314 0 0)
(1.98371389 0 0)
(1.98264 0 0)
(1.98172363 0 0)
(1.980966 0 0)
(1.98036659 0 0)
(1.97992433 0 0)
(1.97963605 0 0)
(1.97949882 0 0)
(1.97950721 0 0)
(1.97965251 0 0)
(1.97991574 0 0)
(1.98028076 0 0)
(1.98074632 0 0)
(1.98131497 0 0)
(1.98197698 0 0)
(1.98272085 0 0)
(1.98353517 0 0)
(1.98441442 0 0)
(1.98534559 0 0)
(1.98631519 0 0)
(1.9873105 0 0)
(1.98831805 0 0)
(1.9893258 0 0)
(1.99032449 0 0)
(1.99130383 0 0)
(1.99225546 0 0)
(1.99317027 0 0)
(1.99404113 0 0)
(1.99486031 0 0)
(1.99562195 0 0)
(1.99631969 0 0)
(1.99694892 0 0)
(1.99750466 0 0)
(1.99798389 0 0)
(1.99838283 0 0)
(1.99869529 0 0)
(1.99890905 0 0)
(1.99901728 0 0)
(1.99902621 0 0)
(1.99894299 0 0)
(1.99876753 0 0)
(1.99849818 0 0)
(1.99813394 0 0)
(1.99767409 0 0)
(1.99711826 0 0)
(1.99646591 0 0)
(1.9957169 0 0)
(1.99487068 0 0)
(1.99392732 0 0)
(1.9928862 0 0)
(1.99174751 0 0)
(1.99051052 0 0)
(1.98917554 0 0)
(1.98774167 0 0)
(1.98620933 0 0)
(1.98457747 0 0)
(1.98284661 0 0)
(1.98101558 0 0)
(1.97908502 0 0)
(1.97705365 0 0)
(1.97492226 0 0)
(1.9726895 0 0)
(1.97035636 0 0)
(1.96792143 0 0)
(1.96538594 0 0)
(1.96274846 0 0)
(1.96001048 0 0)
(1.9571706 0 0)
(1.95423057 0 0)
(1.95118905 0 0)
(1.9480481 0 0)
(1.94480643 0 0)
(1.94146641 0 0)
(1.93802684 0 0)
(1.93449039 0 0)
(1.93085596 0 0)
(1.92712649 0 0)
(1.92330101 0 0)
(1.91938283 0 0)
(1.91537144 0 0)
(1.91126999 0 0)
(1.90707398 0 0)
(1.90278183 0 0)
(1.89839338 0 0)
(1.89391776 0 0)
(1.88935682 0 0)
(1.88471506 0 0)
(1.87999118 0 0)
(1.87519008 0 0)
(1.87031075 0 0)
(1.86535828 0 0)
(1.8603273 0 0)
(1.85521936 0 0)
(1.85003656 0 0)
(1.84478771 0 0)
(1.83947267 0 0)
(1.83409354 0 0)
(1.82865096 0 0)
(1.82314774 0 0)
(1.81758482 0 0)
(1.81196475 0 0)
(1.80628883 0 0)
(1.80055926 0 0)
(1.79477781 0 0)
(1.78894622 0 0)
(1.78306676 0 0)
(1.77714074 0 0)
(1.77117086 0 0)
(1.76515804 0 0)
(1.75910546 0 0)
(1.75301379 0 0)
(1.74688649 0 0)
(1.74072275 0 0)
(1.73452444 0 0)
(1.72829305 0 0)
(1.72203399 0 0)
(1.71574648 0 0)
(1.70943453 0 0)
(1.70309727 0 0)
(1.69673914 0 0)
(1.69035897 0 0)
(1.68396148 0 0)
(1.67754518 0 0)
(1.67111499 0 0)
(1.66466911 0 0)
(1.65821268 0 0)
(1.6517436 0 0)
(1.64526713 0 0)
(1.63878092 0 0)
(1.63229036 0 0)
(1.62579281 0 0)
(1.61929377 0 0)
(1.61279037 0 0)
(1.60628817 0 0)
(1.59978408 0 0)
(1.59328371 0 0)
(1.58678379 0 0)
(1.58028993 0 0)
(1.5737987 0 0)
(1.56731574 0 0)
(1.56083746 0 0)
(1.55436951 0 0)
(1.54790817 0 0)
(1.54145909 0 0)
(1.53501845 0 0)
(1.52859191 0 0)
(1.52217554 0 0)
(1.51577502 0 0)
(1.50938637 0 0)
(1.50301523 0 0)
(1.49665762 0 0)
(1.49031919 0 0)
(1.48399592 0 0)
(1.47769346 0 0)
(1.47140784 0 0)
(1.46514469 0 0)
(1.45890007 0 0)
(1.45267964 0 0)
(1.44647952 0 0)
(1.44030537 0 0)
(1.43415339 0 0)
(1.42802926 0 0)
(1.42192926 0 0)
(1.41585911 0 0)
(1.40981519 0 0)
(1.4038032 0 0)
(1.39781967 0 0)
(1.39187031 0 0)
(1.38595174 0 0)
(1.38006968 0 0)
(1.37422087 0 0)
(1.36841101 0 0)
(1.36263698 0 0)
(1.35690443 0 0)
(1.35121039 0 0)
(1.34556047 0 0)
(1.33995185 0 0)
(1.3343901 0 0)
(1.3288725 0 0)
(1.32340458 0 0)
(1.31798363 0 0)
(1.31261514 0 0)
(1.30729614 0 0)
(1.3020319 0 0)
(1.29681852 0 0)
(1.29167126 0 0)
(1.28655574 0 0)
(1.28153397 0 0)
(1.27656316 0 0)
(1.27162174 0 0)
(1.26676731 0 0)
(1.26196617 0 0)
(1.25722948 0 0)
(1.25255941 0 0)
(1.2479536 0 0)
(1.2434152 0 0)
(1.23894262 0 0)
(1.23453872 0 0)
(1.23020199 0 0)
(1.22593476 0 0)
(1.2217356 0 0)
(1.21760632 0 0)
(1.21354554 0 0)
(1.20955462 0 0)
(1.20563219 0 0)
(1.20177923 0 0)
(1.19799436 0 0)
(1.1942782 0 0)
(1.19062934 0 0)
(1.18704806 0 0)
(1.18353289 0 0)
(1.18008379 0 0)
(1.17669924 0 0)
(1.17337892 0 0)
(1.17012122 0 0)
(1.16692559 0 0)
(1.16379035 0 0)
(1.16071473 0 0)
(1.15769699 0 0)
(1.15473619 0 0)
(1.15183054 0 0)
(1.14897893 0 0)
(1.14617956 0 0)
(1.14343124 0 0)
(1.14073214 0 0)
(1.13808066 0 0)
(1.13547393 0 0)
(1.13291172 0 0)
(1.13039274 0 0)
(1.12791448 0 0)
(1.12547561 0 0)
(1.12307485 0 0)
(1.12071039 0 0)
(1.11838077 0 0)
(1.11608424 0 0)
(1.11381935 0 0)
(1.11158442 0 0)
(1.10937804 0 0)
(1.1071986 0 0)
(1.10504473 0 0)
(1.1029149 0 0)
(1.10080782 0 0)
(1.09872205 0 0)
(1.09665636 0 0)
(1.09460942 0 0)
(1.09258009 0 0)
(1.09056715 0 0)
(1.08856956 0 0)
(1.0865862 0 0)
(1.08461614 0 0)
(1.08265841 0 0)
(1.08071218 0 0)
(1.0787766 0 0)
(1.07685097 0 0)
(1.07493458 0 0)
(1.07302686 0 0)
(1.07112725 0 0)
(1.0692353 0 0)
(1.06735061 0 0)
(1.06547288 0 0)
(1.06360184 0 0)
(1.06173735 0 0)
(1.05987932 0 0)
(1.05802774 0 0)
(1.05618265 0 0)
(1.05434415 0 0)
(1.05251268 0 0)
(1.05068848 0 0)
(1.04887171 0 0)
(1.04706301 0 0)
(1.04526296 0 0)
(1.04347221 0 0)
(1.04169148 0 0)
(1.03992158 0 0)
(1.03816339 0 0)
(1.03641788 0 0)
(1.03468609 0 0)
(1.03296914 0 0)
(1.03126821 0 0)
(1.02958459 0 0)
(1.02791959 0 0)
(1.02627464 0 0)
(1.02465119 0 0)
(1.02305079 0 0)
(1.02147502 0 0)
(1.01992552 0 0)
(1.01840401 0 0)
(1.01691222 0 0)
(1.01545194 0 0)
(1.01402502 0 0)
(1.0126333 0 0)
(1.01127869 0 0)
(1.00996311 0 0)
(1.00868849 0 0)
(1.00745679 0 0)
(1.00626997 0 0)
(1.00512998 0 0)
(1.00403881 0 0)
(1.00299838 0 0)
(1.00201064 0 0)
(1.0010775 0 0)
(1.00020086 0 0)
(0.999382552 0 0)
(0.998624402 0 0)
(0.997928174 0 0)
(0.997295594 0 0)
(0.996728319 0 0)
(0.996227876 0 0)
(0.995795605 0 0)
(0.99543313 0 0)
(0.995144403 0 0)
(0.994929515 0 0)
(0.99478687 0 0)
(0.994718624 0 0)
(0.994726234 0 0)
(0.994810622 0 0)
(0.994972534 0 0)
(0.995212637 0 0)
(0.995531497 0 0)
(0.995929566 0 0)
(0.996407175 0 0)
(0.996964533 0 0)
(0.997601727 0 0)
(0.998318717 0 0)
(0.99911534 0 0)
(0.999991302 0 0)
(1.00094619 0 0)
(1.00197945 0 0)
(1.00309041 0 0)
(1.00427827 0 0)
(1.00554211 0 0)
(1.00688087 0 0)
(1.00829339 0 0)
(1.00977835 0 0)
(1.01133435 0 0)
(1.01295984 0 0)
(1.0146532 0 0)
(1.01641264 0 0)
(1.01823631 0 0)
(1.02012222 0 0)
(1.0220683 0 0)
(1.02407238 0 0)
(1.02613217 0 0)
(1.02824533 0 0)
(1.0304094 0 0)
(1.03262186 0 0)
(1.03488009 0 0)
(1.03718143 0 0)
(1.03952311 0 0)
(1.04190233 0 0)
(1.04431623 0 0)
(1.04676188 0 0)
(1.04923631 0 0)
(1.05173652 0 0)
(1.05425945 0 0)
(1.05680202 0 0)
(1.05936112 0 0)
(1.06193363 0 0)
(1.0645164 0 0)
(1.06710628 0 0)
(1.06970011 0 0)
(1.07229471 0 0)
(1.07488695 0 0)
(1.07747368 0 0)
(1.08005176 0 0)
(1.08261809 0 0)
(1.08516959 0 0)
(1.08770322 0 0)
(1.09021591 0 0)
(1.09270464 0 0)
(1.09516681 0 0)
(1.09759955 0 0)
(1.09999972 0 0)
(1.10236461 0 0)
(1.10469156 0 0)
(1.10697796 0 0)
(1.10922125 0 0)
(1.11141895 0 0)
(1.11356866 0 0)
(1.11566808 0 0)
(1.11771496 0 0)
(1.11970718 0 0)
(1.12164269 0 0)
(1.12351954 0 0)
(1.12533587 0 0)
(1.12708994 0 0)
(1.12878008 0 0)
(1.13040474 0 0)
(1.13196248 0 0)
(1.13345195 0 0)
(1.13487191 0 0)
(1.13622123 0 0)
(1.13749889 0 0)
(1.13870394 0 0)
(1.13983559 0 0)
(1.1408931 0 0)
(1.14187587 0 0)
(1.14278338 0 0)
(1.14361521 0 0)
(1.14437106 0 0)
(1.14505069 0 0)
(1.14565398 0 0)
(1.14618088 0 0)
(1.14663145 0 0)
(1.1470058 0 0)
(1.14730415 0 0)
(1.14752678 0 0)
(1.14767405 0 0)
(1.14774639 0 0)
(1.14774429 0 0)
(1.14766829 0 0)
(1.14751901 0 0)
(1.14729712 0 0)
(1.14700333 0 0)
(1.14663838 0 0)
(1.14620309 0 0)
(1.14569828 0 0)
(1.14512482 0 0)
(1.14448363 0 0)
(1.14377566 0 0)
(1.14300182 0 0)
(1.14216272 0 0)
(1.1412588 0 0)
(1.14029383 0 0)
(1.13926971 0 0)
(1.13818478 0 0)
(1.13703977 0 0)
(1.13583584 0 0)
(1.13457414 0 0)
(1.13325572 0 0)
(1.13188161 0 0)
(1.13045287 0 0)
(1.12897054 0 0)
(1.12743569 0 0)
(1.12584936 0 0)
(1.12421266 0 0)
(1.12252678 0 0)
(1.12079103 0 0)
(1.11894155 0 0)
(1.11690413 0 0)
(1.11465957 0 0)
(1.11218632 0 0)
(1.10946047 0 0)
(1.10645594 0 0)
(1.10314441 0 0)
(1.09949536 0 0)
(1.09547621 0 0)
(1.09105262 0 0)
(1.08618894 0 0)
(1.08084899 0 0)
(1.07499705 0 0)
(1.06859928 0 0)
(1.06162561 0 0)
(1.05405227 0 0)
(1.04586507 0 0)
(1.03706229 0 0)
(1.02765492 0 0)
(1.01766529 0 0)
(1.00713582 0 0)
(0.996144558 0 0)
(0.984762052 0 0)
(0.972955309 0 0)
(0.960661979 0 0)
(0.947928342 0 0)
(0.93463141 0 0)
(0.920231364 0 0)
(0.904344634 0 0)
(0.886551716 0 0)
(0.866846414 0 0)
(0.844745084 0 0)
(0.82156466 0 0)
(0.798513417 0 0)
(0.777460971 0 0)
(0.763911146 0 0)
(0.763967495 0 0)
(0.79240197 0 0)
(0.861151953 0 0)
(0.973230054 0 0)
(1.10195283 0 0)
(1.20290346 0 0)
(1.25355538 0 0)
(1.27222675 0 0)
(1.29860461 0 0)
(1.35302998 0 0)
(1.435899 0 0)
(1.54215397 0 0)
(1.66451481 0 0)
(1.78637486 0 0)
(1.90336102 0 0)
(2.03421186 0 0)
(2.17258266 0 0)
(2.280039 0 0)
(2.08132518 0 0)
(1.60928519 0 0)
(1.92588523 0 0)
(3.30228331 0 0)
(4.23726588 0 0)
(3.49253448 0 0)
(1.85881861 0 0)
(0.770684746 0 0)
(0.602583578 0 0)
(0.89748998 0 0)
(1.25240411 0 0)
(1.40083069 0 0)
(1.44805046 0 0)
(1.56838629 0 0)
(1.52521704 0 0)
(0.955394253 0 0)
(0.513258377 0 0)
(0.885655249 0 0)
(1.91821672 0 0)
(2.9269189 0 0)
(3.46750922 0 0)
(3.38385513 0 0)
(2.6632538 0 0)
)
;

boundaryField
{
    closed
    {
        type            noSlip;
    }
    open
    {
        type            inletOutlet;
        inletValue      uniform (0 0 0);
        value           uniform (2.6632538 0 0);
    }
    sides
    {
        type            empty;
    }
    procBoundary5to4
    {
        type            processor;
        value           uniform (2.01747129 0 0);
    }
}


// ************************************************************************* //
