/*--------------------------------*- C++ -*----------------------------------*\
| =========                 |                                                 |
| \\      /  F ield         | OpenFOAM: The Open Source CFD Toolbox           |
|  \\    /   O peration     | Version:  2306                                  |
|   \\  /    A nd           | Website:  www.openfoam.com                      |
|    \\/     M anipulation  |                                                 |
\*---------------------------------------------------------------------------*/
FoamFile
{
    version     2.0;
    format      ascii;
    arch        "LSB;label=32;scalar=64";
    class       volScalarField;
    location    "0.00082";
    object      T;
}
// * * * * * * * * * * * * * * * * * * * * * * * * * * * * * * * * * * * * * //

dimensions      [0 0 0 1 0 0 0];

internalField   nonuniform List<scalar> 
530
(
340.063341
329.495995
327.873132
328.265514
325.467453
325.488798
339.863701
340.404342
329.468068
326.527326
339.997634
340.440461
328.436693
325.724477
340.203886
340.192905
328.975204
323.250922
324.112598
340.081004
340.243862
340.03264
329.124389
326.518912
326.986259
323.730535
323.811422
339.887367
340.207977
339.775608
328.989136
324.227902
324.27319
339.965258
340.061984
329.198693
323.211194
323.604025
340.121274
340.148963
340.051603
328.970184
323.734056
323.782527
340.056705
340.132013
329.177348
326.223972
327.211386
324.004871
324.068941
339.936474
340.197507
339.844138
329.065231
324.886349
324.944456
340.026811
340.063747
329.218641
325.183992
325.208412
340.136421
340.009777
329.18544
325.07948
325.13111
340.06843
340.076914
329.200891
325.086324
325.14763
340.103732
340.039608
329.777126
327.686043
327.678575
324.806589
324.850411
339.854925
340.337298
327.97069
326.726294
339.913582
340.290658
339.739379
328.971058
322.837093
322.926052
339.892527
339.817697
329.261045
321.901379
322.094962
339.606543
339.879343
339.633148
339.973857
329.362752
322.780417
321.060297
321.111202
339.568908
339.917659
326.399652
324.397529
339.59387
339.889731
327.591211
324.932198
339.896308
339.775499
329.270934
322.322492
322.754359
339.806721
339.983296
339.716778
329.14595
324.501996
324.531797
339.963027
339.823291
329.201082
322.626206
322.745261
339.866458
339.938664
328.003244
324.519064
340.062141
339.639277
329.19008
321.672083
321.963089
339.482798
340.04189
326.999874
323.806458
339.559802
340.088708
325.294202
323.028776
339.631007
340.133045
324.966142
323.140991
339.727159
340.129501
325.69743
324.175069
339.880714
340.045543
327.137174
325.233987
340.153301
339.83095
329.175104
323.701579
324.080453
339.875741
340.037354
339.690424
329.086692
326.071047
326.47204
322.631534
322.755236
339.866462
340.244816
327.291417
325.046186
339.975552
340.265181
326.919053
325.418666
340.115065
340.16317
327.541769
325.642226
340.312423
339.874024
329.136267
322.530266
322.97154
339.979527
339.893376
339.905936
339.896829
329.266704
324.18205
325.686103
321.962694
322.000684
340.153517
339.612825
329.202848
323.140294
323.624459
339.653525
339.986216
327.282892
324.957849
339.93977
340.029216
323.312252
323.517907
340.221292
339.984396
339.934599
325.559132
321.528557
340.425371
340.043287
324.731722
325.504661
340.409956
329.015785
323.513039
340.624727
339.871181
329.03668
327.851794
326.779097
326.882917
340.423474
339.822199
329.11263
324.577213
324.970872
340.308741
340.248618
328.038693
325.960218
340.612625
340.094513
329.012194
323.602449
323.939296
340.455621
339.960104
328.953724
322.28866
324.303871
340.155211
340.163525
339.934935
329.003314
322.05499
325.498275
340.359454
328.850804
324.50392
340.740208
339.998498
340.308812
329.920432
326.631698
327.534043
327.30337
325.43565
325.992033
340.264224
340.039424
340.004734
329.143275
324.213487
324.763372
340.467966
339.993858
328.955568
322.364292
324.335155
340.119009
340.109313
339.850332
327.724584
320.867745
321.895635
340.22589
340.113308
326.009856
324.290554
340.616761
339.902142
328.68104
323.390041
324.379925
340.246746
340.161603
327.928626
326.619902
340.654511
340.019511
328.871412
325.185247
326.291963
340.495534
340.025717
329.396365
327.05226
327.326427
324.957447
325.51755
340.42078
340.302498
326.810957
326.468276
340.633722
340.212951
326.35329
325.633289
340.744137
340.069004
328.575925
321.88829
325.007493
340.299285
340.227882
340.152263
328.589219
325.747997
340.712663
339.97294
328.838876
325.994
325.154701
325.426035
340.715019
339.927066
328.761651
323.554659
328.867008
340.221095
328.842322
325.037437
340.674505
339.894433
326.050275
328.208794
340.428512
328.935901
323.719208
340.634989
339.8355
328.895595
324.267919
325.644314
340.209624
339.935155
329.111067
321.606692
325.230712
340.127365
340.083294
340.039017
326.380656
323.252654
340.559288
339.859059
324.624092
323.953538
340.598061
339.808318
326.767391
322.340486
324.356837
340.100229
340.108024
326.608567
326.110695
340.457414
339.939314
328.991197
324.682339
326.244679
340.326025
340.038068
328.963209
324.862143
326.465401
340.338355
340.121803
328.973764
324.814471
326.352621
340.462251
340.053546
328.834158
323.945322
328.149948
340.255617
328.725428
324.869757
340.780857
340.069345
328.658481
324.617653
326.344766
340.406948
340.282489
329.163255
325.395207
326.606694
340.592199
340.228755
328.741702
325.095093
326.373577
340.479525
340.310062
328.819169
325.088303
326.326094
340.46608
340.293336
328.850259
324.866368
325.985778
340.470271
340.253987
328.856398
323.899596
325.313508
340.336344
340.313027
326.908781
325.56279
340.571904
340.121978
327.695493
323.575008
324.957852
340.247487
340.299397
326.779928
325.536461
340.480724
340.094785
327.618016
323.62016
325.039475
340.203471
340.269988
326.825793
325.620744
340.437248
340.077043
327.626055
323.646338
325.124347
340.161565
340.259789
326.756697
325.596879
340.371242
340.064529
327.385375
323.462697
324.998126
340.117188
340.197292
326.491537
325.316773
340.33041
339.972193
326.742481
322.563373
324.256804
339.944524
340.323511
324.993601
324.57468
340.190994
340.179726
324.717341
324.990301
340.337907
340.069418
325.477182
325.392429
340.353393
339.971514
326.848772
323.027115
324.765333
339.959861
340.345942
325.249645
324.923396
340.248899
340.250739
326.128146
326.584499
340.372965
340.088145
328.608476
327.53853
326.032226
328.187614
340.486293
328.682186
324.712287
340.106682
340.246973
324.863185
324.589094
340.185908
340.235804
322.791484
325.139865
340.202691
340.110322
340.196809
329.090037
319.562374
327.449406
340.119178
326.852263
325.201934
340.269879
339.921106
340.384032
328.802017
322.697206
325.378041
340.06781
340.215405
328.089079
324.46078
)
;

boundaryField
{
    closed
    {
        type            fixedValue;
        value           nonuniform List<scalar> 0();
    }
    open
    {
        type            zeroGradient;
    }
    sides
    {
        type            empty;
    }
    procBoundary2to1
    {
        type            processor;
        value           uniform 340.039918;
    }
    procBoundary2to3
    {
        type            processor;
        value           uniform 325.717136;
    }
}


// ************************************************************************* //
