/*--------------------------------*- C++ -*----------------------------------*\
| =========                 |                                                 |
| \\      /  F ield         | OpenFOAM: The Open Source CFD Toolbox           |
|  \\    /   O peration     | Version:  2306                                  |
|   \\  /    A nd           | Website:  www.openfoam.com                      |
|    \\/     M anipulation  |                                                 |
\*---------------------------------------------------------------------------*/
FoamFile
{
    version     2.0;
    format      ascii;
    arch        "LSB;label=32;scalar=64";
    class       volScalarField;
    location    "0.00026";
    object      h;
}
// * * * * * * * * * * * * * * * * * * * * * * * * * * * * * * * * * * * * * //

dimensions      [0 2 -2 0 0 0 0];

internalField   nonuniform List<scalar> 
531
(
1165.38347
3536.8985
3211.75165
1583.42972
1633.50286
2566.86611
2607.83254
2189.13534
2113.61434
2286.59984
2343.40944
2278.75582
2246.32192
2268.6025
2284.496
2276.87796
2269.60094
2272.42107
2276.13689
2274.88141
2272.37476
2272.91133
2275.02551
2274.90862
2273.12583
2273.02838
2274.26883
2274.58251
2273.79312
2273.37468
2273.82816
2274.27574
2274.0608
2273.62407
2273.6765
2274.07508
2274.08744
2273.82497
2273.73804
2273.8894
2274.01427
2273.93866
2273.80491
2273.83705
2273.96861
2273.96007
2273.81993
2273.81631
2273.96919
2274.0019
2273.83231
2273.75185
2273.92082
2274.06367
2273.92347
2273.71798
2273.8091
2274.06322
2274.02964
2273.73214
2273.73394
2274.03974
2274.1065
2273.77274
2273.56652
2273.92597
2274.42441
2274.139
2273.09303
2273.17479
2274.86884
2275.19641
2273.1303
2271.90713
2273.96896
2276.51306
2274.98933
2270.90185
2271.41657
2276.85016
2277.07812
2271.921
2270.42008
2274.62957
2277.22973
2274.2998
2271.04514
2272.7096
2276.07474
2275.41044
2272.39275
2272.50729
2274.75499
2274.899
2273.54669
2273.2399
2273.97368
2274.28527
2273.92495
2273.67765
2273.83556
2274.00913
2273.95554
2273.83752
2273.84305
2273.90374
2273.92939
2273.92698
2273.88931
2273.83374
2273.84627
2273.9778
2274.00053
2273.83081
2273.72562
2273.88884
2274.11472
2274.01561
2273.65441
2273.67478
2274.08816
2274.15318
2273.80618
2273.6436
2273.88119
2274.10033
2273.97309
2273.75205
2273.79812
2273.97715
2273.97011
2273.85923
2273.85471
2273.90159
2273.90544
2273.89467
2273.90235
2273.90936
2273.87148
2273.84973
2273.91848
2273.98857
2273.90733
2273.73345
2273.77538
2274.13008
2274.14543
2273.67275
2273.48231
2273.98803
2274.46263
2274.05275
2273.22892
2273.39899
2274.57786
2274.57155
2273.42111
2273.14899
2274.08449
2274.61359
2273.9694
2273.27153
2273.62003
2274.38904
2274.29636
2273.53718
2273.50179
2274.02894
2274.25278
2273.98549
2273.59278
2273.63821
2274.07345
2274.20964
2273.928
2273.56407
2273.64999
2274.20054
2274.23832
2273.7259
2273.50114
2273.89971
2274.29763
2274.04849
2273.51876
2273.6068
2274.21745
2274.21287
2273.69527
2273.60042
2273.97679
2274.13249
2273.88646
2273.72313
2273.88047
2274.02039
2273.90011
2273.7689
2273.88801
2274.06562
2273.95664
2273.65962
2273.70347
2274.17219
2274.20849
2273.69298
2273.47025
2273.92645
2274.38328
2274.0881
2273.40931
2273.49567
2274.30498
2274.34612
2273.67982
2273.46602
2273.92586
2274.24565
2273.98694
2273.65227
2273.76122
2274.02416
2273.98979
2273.85675
2273.86779
2273.90217
2273.86003
2273.85255
2273.97204
2273.98598
2273.81649
2273.76815
2273.93855
2274.02903
2273.89574
2273.77717
2273.85999
2273.98167
2273.94225
2273.83832
2273.85201
2273.92764
2273.92348
2273.87189
2273.87433
2273.9242
2273.92316
2273.84629
2273.83263
2273.95268
2274.02275
2273.87001
2273.67052
2273.797
2274.22494
2274.18807
2273.52249
2273.40492
2274.14689
2274.5639
2273.90135
2273.11856
2273.54689
2274.66847
2274.54311
2273.23958
2273.1826
2274.25528
2274.55462
2273.79881
2273.35783
2273.81564
2274.2841
2274.05129
2273.63872
2273.73022
2274.04921
2274.03069
2273.80761
2273.807
2273.93067
2273.94637
2273.88317
2273.86591
2273.89605
2273.90963
2273.89652
2273.88687
2273.89187
2273.89845
2273.89789
2273.89347
2273.89151
2273.89192
2273.8973
2273.90221
2273.89689
2273.87787
2273.87974
2273.9215
2273.93267
2273.86931
2273.81891
2273.88968
2274.01614
2273.97889
2273.72962
2273.73104
2274.03551
2274.13194
2273.83953
2273.60999
2273.82381
2274.18318
2274.09068
2273.64275
2273.65479
2274.04908
2274.11274
2273.84193
2273.72728
2273.88326
2274.00317
2273.9297
2273.83557
2273.86293
2273.92068
2273.91304
2273.88573
2273.88761
2273.89669
2273.89631
2273.89389
2273.89422
2273.89489
2273.89466
2273.89609
2273.89646
2273.8899
2273.88764
2273.90139
2273.91097
2273.89206
2273.86507
2273.88087
2273.93771
2273.93342
2273.84795
2273.83236
2273.92462
2273.97608
2273.89547
2273.8031
2273.85802
2273.98622
2273.96359
2273.80896
2273.81165
2273.95945
2273.9816
2273.85733
2273.81077
2273.90384
2273.96336
2273.90442
2273.85209
2273.88481
2273.91499
2273.88474
2273.8708
2273.93389
2273.95057
2273.84058
2273.79239
2273.92779
2274.03567
2273.91854
2273.7381
2273.79426
2274.04022
2274.03444
2273.81418
2273.74841
2273.87499
2274.0232
2274.00139
2273.82958
2273.75703
2273.82213
2274.04725
2274.06278
2273.81586
2273.64875
2273.84014
2274.1951
2274.1216
2273.57314
2273.57123
2274.1214
2274.26973
2273.80377
2273.51399
2273.84722
2274.23913
2274.05015
2273.61383
2273.67951
2274.10176
2274.09559
2273.77893
2273.73744
2273.93977
2274.00504
2273.88902
2273.82434
2273.88373
2273.93519
2273.90866
2273.87312
2273.88344
2273.90482
2273.90192
2273.89006
2273.89065
2273.89638
2273.89637
2273.89409
2273.89387
2273.89473
2273.89491
2273.89457
2273.8945
2273.89464
2273.89466
2273.89454
2273.89453
2273.89475
2273.89489
2273.89445
2273.89385
2273.89444
2273.89643
2273.89635
2273.89102
2273.88961
2273.89873
2273.90609
2273.89459
2273.87291
2273.88072
2273.92878
2273.92817
2273.85762
2273.83675
2273.91948
2273.9776
2273.8971
2273.78998
2273.85402
2274.01669
2273.98201
2273.75545
2273.76207
2274.03848
2274.07573
2273.76794
2273.65053
2273.97357
2274.21213
2273.91015
2273.50423
2273.72924
2274.33698
2274.25553
2273.44298
2273.41306
2274.20866
2274.44842
2273.78922
2273.34226
2273.78664
2274.35973
2274.13209
2273.57114
2273.66342
2274.1156
2274.08806
2273.5887
2273.55857
2274.45179
2275.10275
2273.59497
2270.1904
2271.12389
2283.51728
2286.95189
2259.11045
2232.0606
2278.37578
2384.99655
2355.99479
2036.66651
1988.09968
2608.68675
2983.04842
2115.00838
738.853132
1582.86527
4703.94076
4279.13786
-679.303805
-2382.97557
3269.62091
9642.80631
4461.25175
-4061.40217
-3275.41924
5150.90424
9894.86734
4096.26473
-4919.7496
-905.131743
9947.13839
7926.98004
-4901.80868
-4316.37815
8049.69321
9336.81626
-284.489113
-3302.1585
2191.3021
)
;

boundaryField
{
    closed
    {
        type            lookUpEnthalpy;
        h0              nonuniform List<scalar> 0();
        value           nonuniform List<scalar> 0();
    }
    open
    {
        type            zeroGradient;
    }
    sides
    {
        type            empty;
    }
    procBoundary1to0
    {
        type            processor;
        value           uniform -42.5942628;
    }
    procBoundary1to2
    {
        type            processor;
        value           uniform 5983.88664;
    }
}


// ************************************************************************* //
