/*--------------------------------*- C++ -*----------------------------------*\
| =========                 |                                                 |
| \\      /  F ield         | OpenFOAM: The Open Source CFD Toolbox           |
|  \\    /   O peration     | Version:  2306                                  |
|   \\  /    A nd           | Website:  www.openfoam.com                      |
|    \\/     M anipulation  |                                                 |
\*---------------------------------------------------------------------------*/
FoamFile
{
    version     2.0;
    format      ascii;
    arch        "LSB;label=32;scalar=64";
    class       surfaceScalarField;
    location    "0.00026";
    object      phi;
}
// * * * * * * * * * * * * * * * * * * * * * * * * * * * * * * * * * * * * * //

dimensions      [1 0 -1 0 0 0 0];

oriented        oriented;

internalField   nonuniform List<scalar> 
530
(
-3.700358e-06
-3.68082803e-06
-3.69104678e-06
-3.71060336e-06
-3.72643026e-06
-3.72589632e-06
-3.73299525e-06
-3.75036155e-06
-3.76583443e-06
-3.77766403e-06
-3.79063859e-06
-3.80577469e-06
-3.82105915e-06
-3.83591346e-06
-3.85098407e-06
-3.86656508e-06
-3.88246998e-06
-3.8986227e-06
-3.91515745e-06
-3.9321827e-06
-3.94967399e-06
-3.96757093e-06
-3.98585241e-06
-4.00447993e-06
-4.02339087e-06
-4.04244499e-06
-4.0615316e-06
-4.08058466e-06
-4.09951563e-06
-4.11820674e-06
-4.13655905e-06
-4.15450269e-06
-4.17196786e-06
-4.18887399e-06
-4.20514733e-06
-4.22072017e-06
-4.23554129e-06
-4.24955449e-06
-4.26269577e-06
-4.27490779e-06
-4.28614084e-06
-4.2963419e-06
-4.30544987e-06
-4.31339888e-06
-4.32011946e-06
-4.32553306e-06
-4.32955087e-06
-4.33206935e-06
-4.33298181e-06
-4.33218816e-06
-4.32959466e-06
-4.32511853e-06
-4.31870754e-06
-4.31035542e-06
-4.30009839e-06
-4.28801049e-06
-4.27421074e-06
-4.25886502e-06
-4.24217034e-06
-4.2243339e-06
-4.2055667e-06
-4.18607035e-06
-4.16604181e-06
-4.14564806e-06
-4.12500933e-06
-4.1042127e-06
-4.08333288e-06
-4.06242283e-06
-4.04148556e-06
-4.02049974e-06
-3.99942456e-06
-3.97828177e-06
-3.95707637e-06
-3.93572309e-06
-3.91414681e-06
-3.89238454e-06
-3.87048846e-06
-3.84840031e-06
-3.82605202e-06
-3.80338349e-06
-3.78052609e-06
-3.75752962e-06
-3.73424988e-06
-3.71061638e-06
-3.68673753e-06
-3.66267797e-06
-3.63835547e-06
-3.61370672e-06
-3.58878587e-06
-3.56366436e-06
-3.53834261e-06
-3.51281692e-06
-3.48710033e-06
-3.46129821e-06
-3.43548204e-06
-3.40968362e-06
-3.38396794e-06
-3.35843466e-06
-3.3331751e-06
-3.30826581e-06
-3.28378736e-06
-3.25982614e-06
-3.23646262e-06
-3.21376611e-06
-3.19179768e-06
-3.17060972e-06
-3.15024729e-06
-3.13074494e-06
-3.11212951e-06
-3.09441959e-06
-3.07762801e-06
-3.06176411e-06
-3.04684106e-06
-3.03287317e-06
-3.01987122e-06
-3.00784998e-06
-2.99683716e-06
-2.98686893e-06
-2.97797933e-06
-2.97020371e-06
-2.96357973e-06
-2.95816095e-06
-2.95399543e-06
-2.9511148e-06
-2.94954815e-06
-2.94932782e-06
-2.95047682e-06
-2.95300097e-06
-2.95689471e-06
-2.96214689e-06
-2.96873799e-06
-2.97663882e-06
-2.98580879e-06
-2.99620362e-06
-3.0077765e-06
-3.0204768e-06
-3.03425258e-06
-3.04905333e-06
-3.06483088e-06
-3.08153809e-06
-3.09913045e-06
-3.11757013e-06
-3.13682455e-06
-3.15686037e-06
-3.17764442e-06
-3.19914539e-06
-3.22134592e-06
-3.24422718e-06
-3.26775125e-06
-3.29187964e-06
-3.31659437e-06
-3.34187785e-06
-3.36768571e-06
-3.39395947e-06
-3.42066151e-06
-3.44775808e-06
-3.47521634e-06
-3.50295282e-06
-3.53089571e-06
-3.55900909e-06
-3.58724552e-06
-3.61552335e-06
-3.64376163e-06
-3.67190259e-06
-3.69988819e-06
-3.72765673e-06
-3.75512163e-06
-3.782209e-06
-3.80886533e-06
-3.83503115e-06
-3.86063361e-06
-3.88560492e-06
-3.90987831e-06
-3.93340425e-06
-3.95613104e-06
-3.97799504e-06
-3.99893733e-06
-4.01890285e-06
-4.03785717e-06
-4.0557611e-06
-4.07255771e-06
-4.08819951e-06
-4.10266218e-06
-4.1159222e-06
-4.12794191e-06
-4.13868522e-06
-4.14813551e-06
-4.15628072e-06
-4.16311422e-06
-4.16861198e-06
-4.17276464e-06
-4.17558263e-06
-4.17707403e-06
-4.17724046e-06
-4.17609289e-06
-4.17365611e-06
-4.1699587e-06
-4.1650278e-06
-4.15889631e-06
-4.15161067e-06
-4.14322496e-06
-4.13379078e-06
-4.12336443e-06
-4.1120083e-06
-4.0998081e-06
-4.08684951e-06
-4.07320283e-06
-4.05894902e-06
-4.04419652e-06
-4.02905693e-06
-4.01362506e-06
-3.99800039e-06
-3.98228734e-06
-3.96662069e-06
-3.9511238e-06
-3.93589669e-06
-3.92105164e-06
-3.90672159e-06
-3.89303288e-06
-3.88009661e-06
-3.86802512e-06
-3.85693803e-06
-3.84695203e-06
-3.83817637e-06
-3.8307164e-06
-3.82467577e-06
-3.82015479e-06
-3.81724603e-06
-3.81603705e-06
-3.81661487e-06
-3.81905948e-06
-3.82343805e-06
-3.8298134e-06
-3.8382488e-06
-3.8487986e-06
-3.86150349e-06
-3.87639799e-06
-3.89351395e-06
-3.91287499e-06
-3.93449325e-06
-3.95837246e-06
-3.9845102e-06
-4.01289624e-06
-4.0435105e-06
-4.07632355e-06
-4.11129853e-06
-4.14839087e-06
-4.18754794e-06
-4.22870521e-06
-4.2717903e-06
-4.31672867e-06
-4.36343865e-06
-4.4118227e-06
-4.46177385e-06
-4.51319097e-06
-4.56596828e-06
-4.61999669e-06
-4.67513473e-06
-4.73124575e-06
-4.78822442e-06
-4.84595439e-06
-4.9042785e-06
-4.96304304e-06
-5.02213353e-06
-5.08142861e-06
-5.14080519e-06
-5.20009447e-06
-5.25915892e-06
-5.31790608e-06
-5.37622007e-06
-5.43395271e-06
-5.49097804e-06
-5.54720048e-06
-5.60251622e-06
-5.65680602e-06
-5.7099599e-06
-5.76188307e-06
-5.81247963e-06
-5.86165552e-06
-5.909311e-06
-5.95535523e-06
-5.99970368e-06
-6.04226995e-06
-6.0829675e-06
-6.12171416e-06
-6.15843148e-06
-6.19304268e-06
-6.22547334e-06
-6.255653e-06
-6.28351549e-06
-6.30899899e-06
-6.33204684e-06
-6.35260799e-06
-6.37063801e-06
-6.38609944e-06
-6.39896291e-06
-6.40920754e-06
-6.41682059e-06
-6.42179866e-06
-6.42414783e-06
-6.42388636e-06
-6.42104209e-06
-6.41564901e-06
-6.40775164e-06
-6.39741043e-06
-6.38469564e-06
-6.369676e-06
-6.35243366e-06
-6.33305479e-06
-6.31164818e-06
-6.28832156e-06
-6.26317147e-06
-6.23630568e-06
-6.20785278e-06
-6.17793963e-06
-6.14667851e-06
-6.11419007e-06
-6.0805941e-06
-6.04602765e-06
-6.01061591e-06
-5.97447164e-06
-5.93771457e-06
-5.90047023e-06
-5.86285648e-06
-5.82498322e-06
-5.78695913e-06
-5.7488909e-06
-5.71087909e-06
-5.67301735e-06
-5.63539307e-06
-5.59808673e-06
-5.56117084e-06
-5.52470921e-06
-5.48875658e-06
-5.45335827e-06
-5.41854986e-06
-5.38435721e-06
-5.35079666e-06
-5.31787529e-06
-5.28559105e-06
-5.2539338e-06
-5.22288696e-06
-5.19242772e-06
-5.16252692e-06
-5.13315119e-06
-5.10426626e-06
-5.07583609e-06
-5.04782455e-06
-5.02019251e-06
-4.99290387e-06
-4.96592927e-06
-4.93924109e-06
-4.91281058e-06
-4.88661376e-06
-4.86063526e-06
-4.83486377e-06
-4.80928733e-06
-4.78389773e-06
-4.75868913e-06
-4.73366416e-06
-4.70882363e-06
-4.68416383e-06
-4.65968339e-06
-4.63538403e-06
-4.61126338e-06
-4.58731311e-06
-4.56352246e-06
-4.53987823e-06
-4.51636175e-06
-4.49294696e-06
-4.46960232e-06
-4.44629354e-06
-4.42297996e-06
-4.39961016e-06
-4.37612831e-06
-4.3524803e-06
-4.32860697e-06
-4.30443871e-06
-4.2799031e-06
-4.25493293e-06
-4.22945959e-06
-4.20341581e-06
-4.17672681e-06
-4.14932335e-06
-4.12114557e-06
-4.09213504e-06
-4.06223837e-06
-4.03140199e-06
-3.99957963e-06
-3.9667323e-06
-3.93283348e-06
-3.8978618e-06
-3.86179247e-06
-3.82460827e-06
-3.78631014e-06
-3.74690672e-06
-3.70641256e-06
-3.6648315e-06
-3.62218227e-06
-3.57851109e-06
-3.53386416e-06
-3.48827544e-06
-3.44178988e-06
-3.39447578e-06
-3.34640764e-06
-3.2976535e-06
-3.24828443e-06
-3.19838658e-06
-3.14805437e-06
-3.09738687e-06
-3.04647545e-06
-2.99542074e-06
-2.94433423e-06
-2.89332742e-06
-2.84250939e-06
-2.79199222e-06
-2.74189184e-06
-2.69232427e-06
-2.64340369e-06
-2.59524318e-06
-2.54795502e-06
-2.5016495e-06
-2.4564338e-06
-2.41241183e-06
-2.36968424e-06
-2.32834813e-06
-2.28849688e-06
-2.25021997e-06
-2.21360321e-06
-2.17872885e-06
-2.1456756e-06
-2.11451882e-06
-2.08533074e-06
-2.05818071e-06
-2.03313558e-06
-2.01026009e-06
-1.98961744e-06
-1.9712699e-06
-1.95527947e-06
-1.94170836e-06
-1.93061939e-06
-1.92207599e-06
-1.9161418e-06
-1.91287967e-06
-1.9123497e-06
-1.91460718e-06
-1.91970033e-06
-1.92766742e-06
-1.93853336e-06
-1.95230716e-06
-1.96898133e-06
-1.98853177e-06
-2.01091764e-06
-2.03607964e-06
-2.06394453e-06
-2.09443113e-06
-2.12745116e-06
-2.16290774e-06
-2.20069908e-06
-2.2407256e-06
-2.28289127e-06
-2.32709765e-06
-2.37324304e-06
-2.42122565e-06
-2.4709546e-06
-2.52233768e-06
-2.57527053e-06
-2.62964833e-06
-2.68537905e-06
-2.74237255e-06
-2.80052413e-06
-2.85972338e-06
-2.91987406e-06
-2.98088778e-06
-3.04267588e-06
-3.1051229e-06
-3.16812417e-06
-3.23160689e-06
-3.29549316e-06
-3.35967991e-06
-3.42407109e-06
-3.48859788e-06
-3.553195e-06
-3.617783e-06
-3.68228339e-06
-3.74663321e-06
-3.81077799e-06
-3.87466762e-06
-3.93823264e-06
-4.00140214e-06
-4.06414983e-06
-4.12649106e-06
-4.18836485e-06
-4.24962344e-06
-4.31000987e-06
-4.36989523e-06
-4.4299542e-06
-4.48933601e-06
-4.54607824e-06
-4.60122109e-06
-4.65789411e-06
-4.71970098e-06
-4.77676253e-06
-4.81605028e-06
-4.860418e-06
-4.93445124e-06
-4.99600256e-06
-5.02463329e-06
-5.00395799e-06
-5.06661928e-06
-5.12682882e-06
-5.17338388e-06
-5.07683233e-06
-5.14632662e-06
-5.4206178e-06
-5.51030984e-06
-5.46953383e-06
-5.28641587e-06
-5.34436592e-06
-5.65328603e-06
-5.6408161e-06
-5.63827442e-06
-5.68054433e-06
-5.9277843e-06
-6.07101492e-06
-6.01000998e-06
-5.33610195e-06
-5.41440246e-06
-5.45755405e-06
-5.50886695e-06
)
;

boundaryField
{
    closed
    {
        type            calculated;
        value           nonuniform List<scalar> 0();
    }
    open
    {
        type            calculated;
        value           nonuniform List<scalar> 0();
    }
    sides
    {
        type            empty;
        value           nonuniform List<scalar> 0();
    }
    procBoundary1to0
    {
        type            processor;
        value           uniform 3.69975238e-06;
    }
    procBoundary1to2
    {
        type            processor;
        value           uniform -5.45339327e-06;
    }
}


// ************************************************************************* //
