/*--------------------------------*- C++ -*----------------------------------*\
| =========                 |                                                 |
| \\      /  F ield         | OpenFOAM: The Open Source CFD Toolbox           |
|  \\    /   O peration     | Version:  2306                                  |
|   \\  /    A nd           | Website:  www.openfoam.com                      |
|    \\/     M anipulation  |                                                 |
\*---------------------------------------------------------------------------*/
FoamFile
{
    version     2.0;
    format      ascii;
    arch        "LSB;label=32;scalar=64";
    class       volScalarField;
    location    "0.00026";
    object      prefDZ_H2;
}
// * * * * * * * * * * * * * * * * * * * * * * * * * * * * * * * * * * * * * //

dimensions      [1 -1 -1 0 0 0 0];

internalField   nonuniform List<scalar> 
531
(
6.22801585e-05
6.24394412e-05
6.24068188e-05
6.22954092e-05
6.22970375e-05
6.23511817e-05
6.23543043e-05
6.23251499e-05
6.23206508e-05
6.23312987e-05
6.23351015e-05
6.23307783e-05
6.23286953e-05
6.23301175e-05
6.23311543e-05
6.23306544e-05
6.23301821e-05
6.23303643e-05
6.23306058e-05
6.2330524e-05
6.23303611e-05
6.23303959e-05
6.23305333e-05
6.23305257e-05
6.23304098e-05
6.23304035e-05
6.23304841e-05
6.23305045e-05
6.23304532e-05
6.2330426e-05
6.23304554e-05
6.23304845e-05
6.23304705e-05
6.23304422e-05
6.23304456e-05
6.23304715e-05
6.23304723e-05
6.23304552e-05
6.23304496e-05
6.23304594e-05
6.23304675e-05
6.23304626e-05
6.23304539e-05
6.2330456e-05
6.23304646e-05
6.2330464e-05
6.23304549e-05
6.23304547e-05
6.23304646e-05
6.23304667e-05
6.23304557e-05
6.23304505e-05
6.23304615e-05
6.23304707e-05
6.23304616e-05
6.23304483e-05
6.23304542e-05
6.23304707e-05
6.23304685e-05
6.23304492e-05
6.23304493e-05
6.23304692e-05
6.23304735e-05
6.23304518e-05
6.23304384e-05
6.23304618e-05
6.23304942e-05
6.23304756e-05
6.23304077e-05
6.2330413e-05
6.23305231e-05
6.23305444e-05
6.23304101e-05
6.23303307e-05
6.23304646e-05
6.233063e-05
6.23305309e-05
6.23302654e-05
6.23302988e-05
6.23306519e-05
6.23306668e-05
6.23303316e-05
6.23302342e-05
6.23305075e-05
6.23306767e-05
6.23304861e-05
6.23302747e-05
6.23303828e-05
6.23306015e-05
6.23305583e-05
6.23303622e-05
6.23303696e-05
6.23305157e-05
6.2330525e-05
6.23304371e-05
6.23304172e-05
6.23304649e-05
6.23304851e-05
6.23304617e-05
6.23304457e-05
6.23304559e-05
6.23304672e-05
6.23304637e-05
6.2330456e-05
6.23304564e-05
6.23304603e-05
6.2330462e-05
6.23304619e-05
6.23304594e-05
6.23304558e-05
6.23304566e-05
6.23304652e-05
6.23304666e-05
6.23304556e-05
6.23304488e-05
6.23304594e-05
6.23304741e-05
6.23304676e-05
6.23304441e-05
6.23304455e-05
6.23304723e-05
6.23304766e-05
6.2330454e-05
6.23304434e-05
6.23304589e-05
6.23304731e-05
6.23304648e-05
6.23304505e-05
6.23304535e-05
6.23304651e-05
6.23304647e-05
6.23304574e-05
6.23304572e-05
6.23304602e-05
6.23304605e-05
6.23304598e-05
6.23304603e-05
6.23304607e-05
6.23304582e-05
6.23304568e-05
6.23304613e-05
6.23304659e-05
6.23304606e-05
6.23304493e-05
6.2330452e-05
6.2330475e-05
6.2330476e-05
6.23304453e-05
6.2330433e-05
6.23304658e-05
6.23304967e-05
6.233047e-05
6.23304165e-05
6.23304275e-05
6.23305042e-05
6.23305037e-05
6.2330429e-05
6.23304113e-05
6.23304721e-05
6.23305065e-05
6.23304646e-05
6.23304193e-05
6.23304419e-05
6.23304919e-05
6.23304859e-05
6.23304365e-05
6.23304342e-05
6.23304685e-05
6.2330483e-05
6.23304657e-05
6.23304401e-05
6.23304431e-05
6.23304714e-05
6.23304802e-05
6.23304619e-05
6.23304383e-05
6.23304439e-05
6.23304796e-05
6.23304821e-05
6.23304488e-05
6.23304342e-05
6.23304601e-05
6.23304859e-05
6.23304697e-05
6.23304353e-05
6.2330441e-05
6.23304807e-05
6.23304804e-05
6.23304468e-05
6.23304406e-05
6.23304651e-05
6.23304752e-05
6.23304592e-05
6.23304486e-05
6.23304588e-05
6.23304679e-05
6.23304601e-05
6.23304516e-05
6.23304593e-05
6.23304709e-05
6.23304638e-05
6.23304445e-05
6.23304473e-05
6.23304778e-05
6.23304801e-05
6.23304466e-05
6.23304322e-05
6.23304618e-05
6.23304915e-05
6.23304723e-05
6.23304282e-05
6.23304338e-05
6.23304864e-05
6.23304891e-05
6.23304458e-05
6.23304319e-05
6.23304618e-05
6.23304826e-05
6.23304657e-05
6.2330444e-05
6.23304511e-05
6.23304682e-05
6.23304659e-05
6.23304573e-05
6.2330458e-05
6.23304602e-05
6.23304575e-05
6.2330457e-05
6.23304648e-05
6.23304657e-05
6.23304547e-05
6.23304515e-05
6.23304626e-05
6.23304685e-05
6.23304598e-05
6.23304521e-05
6.23304575e-05
6.23304654e-05
6.23304628e-05
6.23304561e-05
6.2330457e-05
6.23304619e-05
6.23304616e-05
6.23304583e-05
6.23304584e-05
6.23304617e-05
6.23304616e-05
6.23304566e-05
6.23304557e-05
6.23304635e-05
6.23304681e-05
6.23304582e-05
6.23304452e-05
6.23304534e-05
6.23304812e-05
6.23304788e-05
6.23304356e-05
6.23304279e-05
6.23304761e-05
6.23305032e-05
6.23304602e-05
6.23304093e-05
6.23304372e-05
6.233051e-05
6.23305019e-05
6.23304172e-05
6.23304135e-05
6.23304832e-05
6.23305026e-05
6.23304535e-05
6.23304249e-05
6.23304546e-05
6.23304851e-05
6.23304699e-05
6.23304431e-05
6.23304491e-05
6.23304698e-05
6.23304686e-05
6.23304541e-05
6.23304541e-05
6.23304621e-05
6.23304631e-05
6.2330459e-05
6.23304579e-05
6.23304598e-05
6.23304607e-05
6.23304599e-05
6.23304592e-05
6.23304596e-05
6.233046e-05
6.233046e-05
6.23304597e-05
6.23304595e-05
6.23304596e-05
6.23304599e-05
6.23304602e-05
6.23304599e-05
6.23304587e-05
6.23304588e-05
6.23304615e-05
6.23304622e-05
6.23304581e-05
6.23304548e-05
6.23304594e-05
6.23304676e-05
6.23304652e-05
6.2330449e-05
6.23304491e-05
6.23304689e-05
6.23304752e-05
6.23304562e-05
6.23304413e-05
6.23304551e-05
6.23304785e-05
6.23304725e-05
6.23304434e-05
6.23304442e-05
6.23304698e-05
6.23304739e-05
6.23304563e-05
6.23304489e-05
6.2330459e-05
6.23304668e-05
6.2330462e-05
6.23304559e-05
6.23304577e-05
6.23304614e-05
6.23304609e-05
6.23304592e-05
6.23304593e-05
6.23304599e-05
6.23304599e-05
6.23304597e-05
6.23304597e-05
6.23304598e-05
6.23304598e-05
6.23304598e-05
6.23304599e-05
6.23304594e-05
6.23304593e-05
6.23304602e-05
6.23304608e-05
6.23304596e-05
6.23304578e-05
6.23304589e-05
6.23304625e-05
6.23304623e-05
6.23304567e-05
6.23304557e-05
6.23304617e-05
6.2330465e-05
6.23304598e-05
6.23304538e-05
6.23304574e-05
6.23304657e-05
6.23304642e-05
6.23304542e-05
6.23304544e-05
6.2330464e-05
6.23304654e-05
6.23304573e-05
6.23304543e-05
6.23304603e-05
6.23304642e-05
6.23304604e-05
6.2330457e-05
6.23304591e-05
6.23304611e-05
6.23304591e-05
6.23304582e-05
6.23304623e-05
6.23304634e-05
6.23304562e-05
6.23304531e-05
6.23304619e-05
6.23304689e-05
6.23304613e-05
6.23304496e-05
6.23304532e-05
6.23304692e-05
6.23304688e-05
6.23304545e-05
6.23304502e-05
6.23304585e-05
6.23304681e-05
6.23304667e-05
6.23304555e-05
6.23304508e-05
6.2330455e-05
6.23304697e-05
6.23304707e-05
6.23304546e-05
6.23304438e-05
6.23304562e-05
6.23304793e-05
6.23304745e-05
6.23304389e-05
6.23304387e-05
6.23304745e-05
6.23304841e-05
6.23304538e-05
6.2330435e-05
6.23304567e-05
6.23304821e-05
6.23304699e-05
6.23304415e-05
6.23304458e-05
6.23304732e-05
6.23304728e-05
6.23304522e-05
6.23304495e-05
6.23304627e-05
6.23304669e-05
6.23304594e-05
6.23304552e-05
6.2330459e-05
6.23304624e-05
6.23304607e-05
6.23304584e-05
6.2330459e-05
6.23304604e-05
6.23304602e-05
6.23304595e-05
6.23304595e-05
6.23304599e-05
6.23304599e-05
6.23304597e-05
6.23304597e-05
6.23304598e-05
6.23304598e-05
6.23304597e-05
6.23304597e-05
6.23304598e-05
6.23304598e-05
6.23304597e-05
6.23304597e-05
6.23304598e-05
6.23304598e-05
6.23304597e-05
6.23304597e-05
6.23304597e-05
6.23304599e-05
6.23304599e-05
6.23304595e-05
6.23304594e-05
6.233046e-05
6.23304605e-05
6.23304597e-05
6.23304583e-05
6.23304588e-05
6.2330462e-05
6.23304619e-05
6.23304573e-05
6.2330456e-05
6.23304614e-05
6.23304651e-05
6.23304599e-05
6.23304529e-05
6.23304571e-05
6.23304677e-05
6.23304654e-05
6.23304507e-05
6.23304511e-05
6.23304691e-05
6.23304715e-05
6.23304515e-05
6.23304439e-05
6.23304649e-05
6.23304804e-05
6.23304608e-05
6.23304344e-05
6.2330449e-05
6.23304885e-05
6.23304832e-05
6.23304304e-05
6.23304285e-05
6.23304802e-05
6.23304957e-05
6.23304529e-05
6.23304239e-05
6.23304527e-05
6.233049e-05
6.23304752e-05
6.23304388e-05
6.23304448e-05
6.23304742e-05
6.23304724e-05
6.23304401e-05
6.23304382e-05
6.23304965e-05
6.23305392e-05
6.23304419e-05
6.23302221e-05
6.23302845e-05
6.23310952e-05
6.2331325e-05
6.23295289e-05
6.23278166e-05
6.23308257e-05
6.23379974e-05
6.23361048e-05
6.23164372e-05
6.23141211e-05
6.23546271e-05
6.23855108e-05
6.23230183e-05
6.22781821e-05
6.23015543e-05
6.25884348e-05
6.25206333e-05
6.22886122e-05
6.22947544e-05
6.24109777e-05
6.35960502e-05
6.25705224e-05
6.18616973e-05
6.20673467e-05
6.26145448e-05
6.35360636e-05
6.25360286e-05
6.16367043e-05
6.23175161e-05
6.35731497e-05
6.3293576e-05
6.16330308e-05
6.17910512e-05
6.32878541e-05
6.34794479e-05
6.23000738e-05
6.20612063e-05
6.2330171e-05
)
;

boundaryField
{
    closed
    {
        type            calculated;
        value           nonuniform List<scalar> 0();
    }
    open
    {
        type            calculated;
        value           nonuniform List<scalar> 0();
    }
    sides
    {
        type            empty;
    }
    procBoundary1to0
    {
        type            processor;
        value           uniform 6.22828185e-05;
    }
    procBoundary1to2
    {
        type            processor;
        value           uniform 6.2790622e-05;
    }
}


// ************************************************************************* //
