/*--------------------------------*- C++ -*----------------------------------*\
| =========                 |                                                 |
| \\      /  F ield         | OpenFOAM: The Open Source CFD Toolbox           |
|  \\    /   O peration     | Version:  2306                                  |
|   \\  /    A nd           | Website:  www.openfoam.com                      |
|    \\/     M anipulation  |                                                 |
\*---------------------------------------------------------------------------*/
FoamFile
{
    version     2.0;
    format      ascii;
    arch        "LSB;label=32;scalar=64";
    class       volScalarField;
    location    "0.00026";
    object      prefDZ_T;
}
// * * * * * * * * * * * * * * * * * * * * * * * * * * * * * * * * * * * * * //

dimensions      [1 -1 -1 -1 0 0 0];

internalField   nonuniform List<scalar> 
531
(
-1.19998098e-09
-1.20921969e-09
-1.20787606e-09
-1.20141799e-09
-1.20160504e-09
-1.2051856e-09
-1.20534966e-09
-1.20370025e-09
-1.20340641e-09
-1.20408244e-09
-1.20430432e-09
-1.20405211e-09
-1.20392482e-09
-1.20401242e-09
-1.20407453e-09
-1.20404483e-09
-1.20401633e-09
-1.2040274e-09
-1.20404195e-09
-1.20403704e-09
-1.20402723e-09
-1.20402933e-09
-1.20403761e-09
-1.20403715e-09
-1.20403017e-09
-1.20402979e-09
-1.20403464e-09
-1.20403587e-09
-1.20403278e-09
-1.20403114e-09
-1.20403292e-09
-1.20403467e-09
-1.20403383e-09
-1.20403212e-09
-1.20403233e-09
-1.20403389e-09
-1.20403393e-09
-1.20403291e-09
-1.20403257e-09
-1.20403316e-09
-1.20403365e-09
-1.20403335e-09
-1.20403283e-09
-1.20403295e-09
-1.20403347e-09
-1.20403344e-09
-1.20403289e-09
-1.20403287e-09
-1.20403347e-09
-1.2040336e-09
-1.20403294e-09
-1.20403262e-09
-1.20403328e-09
-1.20403384e-09
-1.20403329e-09
-1.20403249e-09
-1.20403284e-09
-1.20403384e-09
-1.20403371e-09
-1.20403254e-09
-1.20403255e-09
-1.20403375e-09
-1.20403401e-09
-1.2040327e-09
-1.2040319e-09
-1.2040333e-09
-1.20403525e-09
-1.20403414e-09
-1.20403004e-09
-1.20403036e-09
-1.20403699e-09
-1.20403828e-09
-1.20403019e-09
-1.2040254e-09
-1.20403347e-09
-1.20404343e-09
-1.20403746e-09
-1.20402147e-09
-1.20402348e-09
-1.20404475e-09
-1.20404564e-09
-1.20402546e-09
-1.20401958e-09
-1.20403606e-09
-1.20404624e-09
-1.20403477e-09
-1.20402203e-09
-1.20402854e-09
-1.20404171e-09
-1.20403911e-09
-1.2040273e-09
-1.20402775e-09
-1.20403655e-09
-1.20403711e-09
-1.20403182e-09
-1.20403062e-09
-1.20403349e-09
-1.20403471e-09
-1.2040333e-09
-1.20403233e-09
-1.20403295e-09
-1.20403363e-09
-1.20403342e-09
-1.20403296e-09
-1.20403298e-09
-1.20403322e-09
-1.20403332e-09
-1.20403331e-09
-1.20403316e-09
-1.20403294e-09
-1.20403299e-09
-1.2040335e-09
-1.20403359e-09
-1.20403293e-09
-1.20403252e-09
-1.20403316e-09
-1.20403404e-09
-1.20403365e-09
-1.20403224e-09
-1.20403232e-09
-1.20403394e-09
-1.20403419e-09
-1.20403283e-09
-1.2040322e-09
-1.20403313e-09
-1.20403398e-09
-1.20403349e-09
-1.20403262e-09
-1.2040328e-09
-1.2040335e-09
-1.20403347e-09
-1.20403304e-09
-1.20403302e-09
-1.20403321e-09
-1.20403322e-09
-1.20403318e-09
-1.20403321e-09
-1.20403324e-09
-1.20403309e-09
-1.204033e-09
-1.20403327e-09
-1.20403355e-09
-1.20403323e-09
-1.20403255e-09
-1.20403271e-09
-1.2040341e-09
-1.20403416e-09
-1.20403231e-09
-1.20403157e-09
-1.20403354e-09
-1.2040354e-09
-1.2040338e-09
-1.20403057e-09
-1.20403124e-09
-1.20403585e-09
-1.20403583e-09
-1.20403133e-09
-1.20403026e-09
-1.20403392e-09
-1.20403599e-09
-1.20403347e-09
-1.20403074e-09
-1.2040321e-09
-1.20403511e-09
-1.20403475e-09
-1.20403178e-09
-1.20403164e-09
-1.20403371e-09
-1.20403458e-09
-1.20403354e-09
-1.204032e-09
-1.20403218e-09
-1.20403388e-09
-1.20403441e-09
-1.20403331e-09
-1.20403189e-09
-1.20403222e-09
-1.20403438e-09
-1.20403452e-09
-1.20403252e-09
-1.20403164e-09
-1.2040332e-09
-1.20403476e-09
-1.20403378e-09
-1.20403171e-09
-1.20403205e-09
-1.20403444e-09
-1.20403443e-09
-1.2040324e-09
-1.20403203e-09
-1.2040335e-09
-1.20403411e-09
-1.20403315e-09
-1.20403251e-09
-1.20403312e-09
-1.20403367e-09
-1.2040332e-09
-1.20403269e-09
-1.20403315e-09
-1.20403385e-09
-1.20403342e-09
-1.20403226e-09
-1.20403243e-09
-1.20403427e-09
-1.20403441e-09
-1.20403239e-09
-1.20403152e-09
-1.2040333e-09
-1.20403509e-09
-1.20403394e-09
-1.20403128e-09
-1.20403162e-09
-1.20403479e-09
-1.20403495e-09
-1.20403234e-09
-1.2040315e-09
-1.2040333e-09
-1.20403455e-09
-1.20403354e-09
-1.20403223e-09
-1.20403266e-09
-1.20403369e-09
-1.20403355e-09
-1.20403303e-09
-1.20403307e-09
-1.20403321e-09
-1.20403304e-09
-1.20403301e-09
-1.20403348e-09
-1.20403354e-09
-1.20403287e-09
-1.20403268e-09
-1.20403335e-09
-1.20403371e-09
-1.20403318e-09
-1.20403272e-09
-1.20403304e-09
-1.20403352e-09
-1.20403337e-09
-1.20403296e-09
-1.20403301e-09
-1.20403331e-09
-1.20403329e-09
-1.20403309e-09
-1.2040331e-09
-1.2040333e-09
-1.20403329e-09
-1.20403299e-09
-1.20403294e-09
-1.20403341e-09
-1.20403368e-09
-1.20403308e-09
-1.2040323e-09
-1.2040328e-09
-1.20403447e-09
-1.20403433e-09
-1.20403172e-09
-1.20403126e-09
-1.20403417e-09
-1.2040358e-09
-1.20403321e-09
-1.20403014e-09
-1.20403182e-09
-1.20403621e-09
-1.20403572e-09
-1.20403062e-09
-1.20403039e-09
-1.20403459e-09
-1.20403576e-09
-1.2040328e-09
-1.20403108e-09
-1.20403287e-09
-1.2040347e-09
-1.20403379e-09
-1.20403218e-09
-1.20403254e-09
-1.20403378e-09
-1.20403371e-09
-1.20403284e-09
-1.20403284e-09
-1.20403332e-09
-1.20403338e-09
-1.20403313e-09
-1.20403307e-09
-1.20403318e-09
-1.20403324e-09
-1.20403319e-09
-1.20403315e-09
-1.20403317e-09
-1.20403319e-09
-1.20403319e-09
-1.20403317e-09
-1.20403317e-09
-1.20403317e-09
-1.20403319e-09
-1.20403321e-09
-1.20403319e-09
-1.20403311e-09
-1.20403312e-09
-1.20403328e-09
-1.20403333e-09
-1.20403308e-09
-1.20403288e-09
-1.20403316e-09
-1.20403365e-09
-1.20403351e-09
-1.20403253e-09
-1.20403254e-09
-1.20403373e-09
-1.20403411e-09
-1.20403296e-09
-1.20403207e-09
-1.2040329e-09
-1.20403431e-09
-1.20403395e-09
-1.20403219e-09
-1.20403224e-09
-1.20403378e-09
-1.20403403e-09
-1.20403297e-09
-1.20403252e-09
-1.20403313e-09
-1.2040336e-09
-1.20403332e-09
-1.20403295e-09
-1.20403306e-09
-1.20403328e-09
-1.20403325e-09
-1.20403314e-09
-1.20403315e-09
-1.20403319e-09
-1.20403319e-09
-1.20403318e-09
-1.20403318e-09
-1.20403318e-09
-1.20403318e-09
-1.20403319e-09
-1.20403319e-09
-1.20403316e-09
-1.20403315e-09
-1.20403321e-09
-1.20403324e-09
-1.20403317e-09
-1.20403306e-09
-1.20403313e-09
-1.20403335e-09
-1.20403333e-09
-1.204033e-09
-1.20403294e-09
-1.2040333e-09
-1.2040335e-09
-1.20403318e-09
-1.20403282e-09
-1.20403304e-09
-1.20403354e-09
-1.20403345e-09
-1.20403284e-09
-1.20403285e-09
-1.20403343e-09
-1.20403352e-09
-1.20403303e-09
-1.20403285e-09
-1.20403322e-09
-1.20403345e-09
-1.20403322e-09
-1.20403301e-09
-1.20403314e-09
-1.20403326e-09
-1.20403314e-09
-1.20403309e-09
-1.20403333e-09
-1.2040334e-09
-1.20403297e-09
-1.20403278e-09
-1.20403331e-09
-1.20403373e-09
-1.20403327e-09
-1.20403257e-09
-1.20403279e-09
-1.20403375e-09
-1.20403373e-09
-1.20403286e-09
-1.20403261e-09
-1.2040331e-09
-1.20403368e-09
-1.2040336e-09
-1.20403292e-09
-1.20403264e-09
-1.2040329e-09
-1.20403378e-09
-1.20403384e-09
-1.20403287e-09
-1.20403222e-09
-1.20403297e-09
-1.20403436e-09
-1.20403407e-09
-1.20403192e-09
-1.20403191e-09
-1.20403407e-09
-1.20403465e-09
-1.20403282e-09
-1.20403169e-09
-1.20403299e-09
-1.20403453e-09
-1.20403379e-09
-1.20403208e-09
-1.20403234e-09
-1.20403399e-09
-1.20403397e-09
-1.20403273e-09
-1.20403256e-09
-1.20403336e-09
-1.20403361e-09
-1.20403316e-09
-1.2040329e-09
-1.20403314e-09
-1.20403334e-09
-1.20403323e-09
-1.2040331e-09
-1.20403314e-09
-1.20403322e-09
-1.20403321e-09
-1.20403316e-09
-1.20403316e-09
-1.20403319e-09
-1.20403319e-09
-1.20403318e-09
-1.20403318e-09
-1.20403318e-09
-1.20403318e-09
-1.20403318e-09
-1.20403318e-09
-1.20403318e-09
-1.20403318e-09
-1.20403318e-09
-1.20403318e-09
-1.20403318e-09
-1.20403318e-09
-1.20403318e-09
-1.20403318e-09
-1.20403318e-09
-1.20403319e-09
-1.20403319e-09
-1.20403317e-09
-1.20403316e-09
-1.2040332e-09
-1.20403322e-09
-1.20403318e-09
-1.20403309e-09
-1.20403312e-09
-1.20403331e-09
-1.20403331e-09
-1.20403303e-09
-1.20403295e-09
-1.20403328e-09
-1.2040335e-09
-1.20403319e-09
-1.20403277e-09
-1.20403302e-09
-1.20403366e-09
-1.20403352e-09
-1.20403263e-09
-1.20403266e-09
-1.20403374e-09
-1.20403389e-09
-1.20403268e-09
-1.20403222e-09
-1.20403349e-09
-1.20403442e-09
-1.20403324e-09
-1.20403165e-09
-1.20403253e-09
-1.20403491e-09
-1.20403459e-09
-1.20403141e-09
-1.20403129e-09
-1.20403441e-09
-1.20403535e-09
-1.20403277e-09
-1.20403102e-09
-1.20403276e-09
-1.204035e-09
-1.20403411e-09
-1.20403191e-09
-1.20403227e-09
-1.20403404e-09
-1.20403393e-09
-1.20403197e-09
-1.20403185e-09
-1.20403534e-09
-1.20403787e-09
-1.20403193e-09
-1.20401855e-09
-1.20402212e-09
-1.20407046e-09
-1.20408367e-09
-1.20397418e-09
-1.20386793e-09
-1.20404723e-09
-1.20446521e-09
-1.2043458e-09
-1.2031052e-09
-1.20291047e-09
-1.205329e-09
-1.20684153e-09
-1.20333334e-09
-1.1985408e-09
-1.20131633e-09
-1.21474865e-09
-1.21225711e-09
-1.19450147e-09
-1.19067382e-09
-1.20767909e-09
-1.22816489e-09
-1.21425668e-09
-1.18883802e-09
-1.18961479e-09
-1.21543948e-09
-1.22802391e-09
-1.21325101e-09
-1.18753687e-09
-1.19397854e-09
-1.22760612e-09
-1.23427291e-09
-1.18795193e-09
-1.18873069e-09
-1.23423802e-09
-1.22982534e-09
-1.19554969e-09
-1.18996041e-09
-1.20352854e-09
)
;

boundaryField
{
    closed
    {
        type            calculated;
        value           nonuniform List<scalar> 0();
    }
    open
    {
        type            calculated;
        value           nonuniform List<scalar> 0();
    }
    sides
    {
        type            empty;
    }
    procBoundary1to0
    {
        type            processor;
        value           uniform -1.19620967e-09;
    }
    procBoundary1to2
    {
        type            processor;
        value           uniform -1.22107441e-09;
    }
}


// ************************************************************************* //
