/*--------------------------------*- C++ -*----------------------------------*\
| =========                 |                                                 |
| \\      /  F ield         | OpenFOAM: The Open Source CFD Toolbox           |
|  \\    /   O peration     | Version:  2306                                  |
|   \\  /    A nd           | Website:  www.openfoam.com                      |
|    \\/     M anipulation  |                                                 |
\*---------------------------------------------------------------------------*/
FoamFile
{
    version     2.0;
    format      ascii;
    arch        "LSB;label=32;scalar=64";
    class       volScalarField;
    location    "0.00042";
    object      prefDZ_T;
}
// * * * * * * * * * * * * * * * * * * * * * * * * * * * * * * * * * * * * * //

dimensions      [1 -1 -1 -1 0 0 0];

internalField   nonuniform List<scalar> 
530
(
-1.19851622e-09
-1.18930444e-09
-1.18773094e-09
-1.18850076e-09
-1.22952739e-09
-1.22706855e-09
-1.21141729e-09
-1.18675112e-09
-1.1870698e-09
-1.22804795e-09
-1.22611667e-09
-1.19909955e-09
-1.1932519e-09
-1.20250944e-09
-1.19020075e-09
-1.18940792e-09
-1.22992408e-09
-1.22603795e-09
-1.18961116e-09
-1.18913668e-09
-1.23023181e-09
-1.22602349e-09
-1.20353351e-09
-1.1906786e-09
-1.19085166e-09
-1.18873918e-09
-1.18918165e-09
-1.23226104e-09
-1.22719455e-09
-1.23271739e-09
-1.18756327e-09
-1.18680003e-09
-1.23421494e-09
-1.22799584e-09
-1.18966405e-09
-1.1882608e-09
-1.23306573e-09
-1.2274002e-09
-1.19563997e-09
-1.1876857e-09
-1.20036796e-09
-1.22950172e-09
-1.19493534e-09
-1.18869279e-09
-1.23322113e-09
-1.22766688e-09
-1.20562975e-09
-1.18700532e-09
-1.18669225e-09
-1.23271083e-09
-1.22749323e-09
-1.19041408e-09
-1.18848127e-09
-1.23302753e-09
-1.22769373e-09
-1.20233255e-09
-1.18793325e-09
-1.18745128e-09
-1.23319655e-09
-1.22747764e-09
-1.19112674e-09
-1.18777501e-09
-1.22962686e-09
-1.2278858e-09
-1.19076641e-09
-1.18819376e-09
-1.22947137e-09
-1.22794743e-09
-1.20445534e-09
-1.18797476e-09
-1.18742466e-09
-1.23048038e-09
-1.22753792e-09
-1.19296247e-09
-1.18846819e-09
-1.22821111e-09
-1.22790061e-09
-1.20455841e-09
-1.18828118e-09
-1.18760778e-09
-1.22820612e-09
-1.22759482e-09
-1.19392976e-09
-1.18831189e-09
-1.22664828e-09
-1.22793684e-09
-1.20350238e-09
-1.18830643e-09
-1.18789832e-09
-1.22825198e-09
-1.22776468e-09
-1.20525781e-09
-1.18835813e-09
-1.1878347e-09
-1.23038221e-09
-1.22736372e-09
-1.19403228e-09
-1.18813349e-09
-1.22525708e-09
-1.22793551e-09
-1.20700377e-09
-1.18835959e-09
-1.18775731e-09
-1.22555661e-09
-1.22789777e-09
-1.20745719e-09
-1.18865218e-09
-1.18808342e-09
-1.23084744e-09
-1.2272151e-09
-1.19424241e-09
-1.18757931e-09
-1.22408992e-09
-1.22793172e-09
-1.21189513e-09
-1.18856473e-09
-1.18780242e-09
-1.22429241e-09
-1.22776719e-09
-1.2115576e-09
-1.18870448e-09
-1.18780492e-09
-1.22416706e-09
-1.22761957e-09
-1.21160202e-09
-1.18885383e-09
-1.18814487e-09
-1.22753081e-09
-1.22748881e-09
-1.20646332e-09
-1.18844802e-09
-1.1886017e-09
-1.23178004e-09
-1.22811803e-09
-1.19499458e-09
-1.18794995e-09
-1.20740458e-09
-1.22970792e-09
-1.20688417e-09
-1.19085985e-09
-1.19738892e-09
-1.21365362e-09
-1.21035357e-09
-1.19888232e-09
-1.19977494e-09
-1.20633697e-09
-1.20666702e-09
-1.20326857e-09
-1.20272501e-09
-1.20413542e-09
-1.20462575e-09
-1.20409768e-09
-1.20378904e-09
-1.20396089e-09
-1.20412627e-09
-1.20407781e-09
-1.20400031e-09
-1.20401083e-09
-1.20404385e-09
-1.20404303e-09
-1.20403006e-09
-1.20402947e-09
-1.20403375e-09
-1.20403449e-09
-1.20403319e-09
-1.20403271e-09
-1.20403304e-09
-1.20403342e-09
-1.20403346e-09
-1.20403301e-09
-1.20403247e-09
-1.20403299e-09
-1.20403532e-09
-1.20403512e-09
-1.20402712e-09
-1.20402606e-09
-1.20404645e-09
-1.20405546e-09
-1.20401144e-09
-1.20396856e-09
-1.20404756e-09
-1.20420789e-09
-1.20410689e-09
-1.20360182e-09
-1.20362222e-09
-1.20496851e-09
-1.20515013e-09
-1.20256608e-09
-1.20145164e-09
-1.20575706e-09
-1.20931415e-09
-1.20337947e-09
-1.1955354e-09
-1.20082748e-09
-1.21941961e-09
-1.21563526e-09
-1.19019745e-09
-1.18978856e-09
-1.23097834e-09
-1.22785493e-09
-1.19213654e-09
-1.18738019e-09
-1.20926447e-09
-1.22849973e-09
-1.19987886e-09
-1.18781176e-09
-1.21019877e-09
-1.22808804e-09
-1.21773933e-09
-1.1885179e-09
-1.18797045e-09
-1.2237176e-09
-1.22774933e-09
-1.19792905e-09
-1.18782162e-09
-1.21095116e-09
-1.22803732e-09
-1.21655502e-09
-1.18833022e-09
-1.18803307e-09
-1.23133119e-09
-1.22765839e-09
-1.1967096e-09
-1.1875777e-09
-1.20779702e-09
-1.22777353e-09
-1.22392477e-09
-1.18844501e-09
-1.1880469e-09
-1.2225357e-09
-1.22785815e-09
-1.20714737e-09
-1.18797315e-09
-1.1888248e-09
-1.22810333e-09
-1.22748566e-09
-1.19605765e-09
-1.187312e-09
-1.20488173e-09
-1.22786661e-09
-1.22394819e-09
-1.18868318e-09
-1.18786619e-09
-1.21362584e-09
-1.2274188e-09
-1.21059778e-09
-1.19013947e-09
-1.19130684e-09
-1.2169201e-09
-1.22142416e-09
-1.19920178e-09
-1.1955631e-09
-1.20360206e-09
-1.20930318e-09
-1.20584291e-09
-1.2015543e-09
-1.20240691e-09
-1.20504106e-09
-1.20504765e-09
-1.20374988e-09
-1.20354326e-09
-1.20403316e-09
-1.20424165e-09
-1.20408631e-09
-1.20395504e-09
-1.20399248e-09
-1.20405929e-09
-1.20405538e-09
-1.20402499e-09
-1.20402404e-09
-1.20403447e-09
-1.20403654e-09
-1.20403339e-09
-1.20403206e-09
-1.2040329e-09
-1.20403351e-09
-1.20403333e-09
-1.20403309e-09
-1.20403312e-09
-1.2040332e-09
-1.2040332e-09
-1.20403318e-09
-1.20403317e-09
-1.20403318e-09
-1.20403318e-09
-1.20403318e-09
-1.20403318e-09
-1.20403318e-09
-1.20403318e-09
-1.20403318e-09
-1.20403318e-09
-1.20403318e-09
-1.20403318e-09
-1.20403318e-09
-1.20403318e-09
-1.20403318e-09
-1.20403318e-09
-1.20403318e-09
-1.20403318e-09
-1.20403318e-09
-1.20403318e-09
-1.20403318e-09
-1.20403318e-09
-1.20403318e-09
-1.20403318e-09
-1.20403318e-09
-1.20403318e-09
-1.20403318e-09
-1.20403318e-09
-1.20403318e-09
-1.20403318e-09
-1.20403318e-09
-1.20403318e-09
-1.20403318e-09
-1.20403318e-09
-1.20403318e-09
-1.20403318e-09
-1.20403318e-09
-1.20403318e-09
-1.20403318e-09
-1.20403318e-09
-1.20403318e-09
-1.20403318e-09
-1.20403318e-09
-1.20403318e-09
-1.20403318e-09
-1.20403318e-09
-1.20403318e-09
-1.20403318e-09
-1.20403318e-09
-1.20403318e-09
-1.20403318e-09
-1.20403318e-09
-1.20403318e-09
-1.20403318e-09
-1.20403318e-09
-1.20403318e-09
-1.20403318e-09
-1.20403318e-09
-1.20403318e-09
-1.20403318e-09
-1.20403318e-09
-1.20403318e-09
-1.20403318e-09
-1.20403318e-09
-1.20403318e-09
-1.20403318e-09
-1.20403318e-09
-1.20403318e-09
-1.20403318e-09
-1.20403318e-09
-1.20403318e-09
-1.20403318e-09
-1.20403318e-09
-1.20403318e-09
-1.20403318e-09
-1.20403318e-09
-1.20403318e-09
-1.20403318e-09
-1.20403318e-09
-1.20403318e-09
-1.20403318e-09
-1.20403318e-09
-1.20403318e-09
-1.20403318e-09
-1.20403318e-09
-1.20403318e-09
-1.20403318e-09
-1.20403318e-09
-1.20403319e-09
-1.2040332e-09
-1.20403316e-09
-1.20403311e-09
-1.2040332e-09
-1.20403342e-09
-1.20403329e-09
-1.20403238e-09
-1.20403238e-09
-1.20403544e-09
-1.20403598e-09
-1.20402832e-09
-1.20402415e-09
-1.20404119e-09
-1.2040596e-09
-1.20402803e-09
-1.20396227e-09
-1.20400366e-09
-1.20420827e-09
-1.2041993e-09
-1.20364854e-09
-1.20357766e-09
-1.20464965e-09
-1.20516027e-09
-1.20334045e-09
-1.20158233e-09
-1.20416988e-09
-1.20885677e-09
-1.20607796e-09
-1.19652813e-09
-1.19716977e-09
-1.21780391e-09
-1.21911146e-09
-1.19247103e-09
-1.18993415e-09
-1.22019746e-09
-1.22861872e-09
-1.19883359e-09
-1.1879816e-09
-1.19879367e-09
-1.22996267e-09
-1.22434951e-09
-1.18875044e-09
-1.18814117e-09
-1.23375118e-09
-1.22752511e-09
-1.19111325e-09
-1.18751933e-09
-1.2308498e-09
-1.22790402e-09
-1.20493094e-09
-1.18818838e-09
-1.18826071e-09
-1.23210297e-09
-1.22801013e-09
-1.19133106e-09
-1.18858781e-09
-1.23167812e-09
-1.22750262e-09
-1.20249334e-09
-1.188155e-09
-1.18873372e-09
-1.23229562e-09
-1.22695878e-09
-1.19416281e-09
-1.18740976e-09
-1.21386433e-09
-1.22879854e-09
-1.21045639e-09
-1.18956968e-09
-1.18992492e-09
-1.22769231e-09
-1.23279372e-09
-1.19703158e-09
-1.19157697e-09
-1.20331036e-09
-1.21443019e-09
-1.20591623e-09
-1.19857019e-09
-1.20147744e-09
-1.20690895e-09
-1.2060559e-09
-1.20270708e-09
-1.20277928e-09
-1.20451224e-09
-1.2046403e-09
-1.20402186e-09
-1.20389236e-09
-1.20385979e-09
-1.2036473e-09
-1.20408493e-09
-1.20535882e-09
-1.20478813e-09
-1.20090884e-09
-1.20115306e-09
-1.20982385e-09
-1.21049581e-09
-1.19590135e-09
-1.19259233e-09
-1.21416024e-09
-1.23265648e-09
-1.19616924e-09
-1.18915311e-09
-1.21483705e-09
-1.23121208e-09
-1.19404033e-09
-1.18834992e-09
-1.21651931e-09
-1.22872497e-09
-1.2131729e-09
-1.1891834e-09
-1.18817346e-09
-1.22229494e-09
-1.22806399e-09
-1.19833392e-09
-1.18878842e-09
-1.21598945e-09
-1.22790024e-09
-1.21569217e-09
-1.19168619e-09
-1.18833519e-09
-1.18770728e-09
-1.21692222e-09
-1.2281329e-09
-1.19987621e-09
-1.18994957e-09
-1.21575586e-09
-1.22723318e-09
-1.23215439e-09
-1.19499821e-09
-1.19010307e-09
-1.18823834e-09
-1.1880953e-09
-1.23092948e-09
-1.22723248e-09
-1.19995196e-09
-1.18966444e-09
-1.22069063e-09
-1.22795749e-09
-1.19739972e-09
-1.18882406e-09
-1.21885693e-09
-1.22832836e-09
-1.21125769e-09
-1.1886255e-09
-1.18791023e-09
-1.22373917e-09
-1.22724627e-09
-1.21327865e-09
-1.19001087e-09
-1.18809814e-09
-1.18810957e-09
-1.23325993e-09
-1.22730407e-09
-1.19789051e-09
-1.18952275e-09
-1.22182736e-09
-1.22806794e-09
-1.19653275e-09
-1.18832258e-09
-1.21871227e-09
)
;

boundaryField
{
    closed
    {
        type            calculated;
        value           nonuniform List<scalar> 0();
    }
    open
    {
        type            calculated;
        value           nonuniform List<scalar> 0();
    }
    sides
    {
        type            empty;
    }
    procBoundary2to1
    {
        type            processor;
        value           uniform -1.22662606e-09;
    }
    procBoundary2to3
    {
        type            processor;
        value           uniform -1.22874406e-09;
    }
}


// ************************************************************************* //
