/*--------------------------------*- C++ -*----------------------------------*\
| =========                 |                                                 |
| \\      /  F ield         | OpenFOAM: The Open Source CFD Toolbox           |
|  \\    /   O peration     | Version:  2306                                  |
|   \\  /    A nd           | Website:  www.openfoam.com                      |
|    \\/     M anipulation  |                                                 |
\*---------------------------------------------------------------------------*/
FoamFile
{
    version     2.0;
    format      ascii;
    arch        "LSB;label=32;scalar=64";
    class       volScalarField;
    location    "0.00042";
    object      prefDh_H2O;
}
// * * * * * * * * * * * * * * * * * * * * * * * * * * * * * * * * * * * * * //

dimensions      [1 1 -3 0 0 0 0];

internalField   nonuniform List<scalar> 
530
(
89.1854972
88.0697243
87.8951822
87.9699505
92.581523
92.3380486
90.633372
87.7797174
87.8094926
92.4313356
92.2418398
89.2596461
88.5624921
89.6475616
88.1981366
88.1109692
92.6218457
92.2307361
88.1452979
88.0691797
92.6528472
92.2338079
89.7576829
88.2390153
88.2630472
87.985834
88.0416385
92.8601604
92.3543905
92.9027376
87.8595204
87.7448351
93.0550901
92.4311576
88.1271224
87.9403289
92.9399319
92.3708749
88.8495232
87.8681539
89.4036235
92.5828201
88.7698071
87.9851961
92.9554659
92.3996653
89.991343
87.7828831
87.7540136
92.904667
92.3791234
88.223695
87.9660556
92.9318298
92.4023519
89.6152687
87.8863387
87.8436101
92.9536832
92.3778274
88.2991869
87.8863744
92.5729404
92.4183886
88.263875
87.9312624
92.5572592
92.4272644
89.8551968
87.8938366
87.8402706
92.6657505
92.3841082
88.524034
87.9688405
92.4242474
92.4220562
89.8670834
87.9304918
87.8642852
92.4266604
92.3900173
88.6365055
87.9520957
92.2594158
92.4247502
89.747201
87.9366431
87.8951097
92.4316074
92.4094248
89.9450268
87.9388259
87.8886183
92.6552559
92.3662142
88.6487543
87.9345537
92.1122074
92.4243745
90.1409384
87.9466495
87.8817981
92.1456007
92.4222146
90.1922157
87.9755109
87.9219951
92.7028007
92.3514056
88.6736991
87.8713463
91.9877025
92.4231306
90.6827534
87.9758915
87.8887582
92.0116156
92.4086068
90.6452728
87.9909733
87.891416
91.9983273
92.3933663
90.6502755
88.0094374
87.9328052
92.3523499
92.3801152
90.0802646
87.9565038
87.9707955
92.80889
92.4391887
88.7757225
87.8904363
90.1964643
92.5983191
90.1350655
88.2528904
89.0547686
90.8759213
90.5172293
89.2284069
89.3338249
90.0753344
90.1124169
89.7330139
89.6719802
89.8307882
89.8857741
89.8267064
89.7921258
89.8114291
89.8299869
89.8245628
89.8158808
89.8170629
89.8207675
89.8206765
89.8192239
89.8191581
89.8196379
89.8197218
89.8195756
89.8195225
89.8195596
89.8196018
89.8196057
89.8195554
89.8194958
89.8195534
89.8198151
89.8197917
89.8188952
89.818776
89.8210618
89.8220704
89.8171363
89.8123199
89.8211807
89.8391278
89.8278118
89.7710827
89.7733389
89.9240674
89.9441347
89.6541874
89.5267578
90.0117593
90.4034003
89.7451737
88.8298247
89.4530092
91.496706
91.0901809
88.1470159
88.122443
92.7219117
92.4131171
88.4208513
87.8257564
90.3993921
92.4811506
89.3456111
87.8785655
90.5028886
92.4401145
91.3165447
87.9605498
87.9008674
91.9511416
92.4060909
89.1133613
87.887041
90.584379
92.4350668
91.1892603
87.9300174
87.9116266
92.749652
92.3968973
88.9676882
87.8608274
90.2382643
92.4072908
91.9746939
87.9587591
87.9026768
91.8261356
92.4193493
90.1599384
87.8972146
88.0175982
92.4329818
92.3783596
88.9014136
87.8283688
89.9137425
92.4171006
91.9774319
87.992664
87.8835531
90.8736424
92.3716533
90.54329
88.1718888
88.3143992
91.2284225
91.7093648
89.2642795
88.8348952
89.7688945
90.4023509
90.0207166
89.5385056
89.6358264
89.9319327
89.9328044
89.7876242
89.7644645
89.8195094
89.8428948
89.8255053
89.810796
89.8150012
89.8224965
89.8220597
89.818654
89.8185483
89.8197186
89.8199511
89.8195977
89.8194492
89.8195428
89.8196122
89.819592
89.819565
89.8195679
89.819577
89.819577
89.8195744
89.8195741
89.8195748
89.819575
89.8195748
89.8195747
89.8195748
89.8195748
89.8195748
89.8195748
89.8195748
89.8195748
89.8195748
89.8195748
89.8195748
89.8195748
89.8195748
89.8195748
89.8195748
89.8195748
89.8195748
89.8195748
89.8195748
89.8195748
89.8195748
89.8195748
89.8195748
89.8195748
89.8195748
89.8195748
89.8195748
89.8195748
89.8195748
89.8195748
89.8195748
89.8195748
89.8195748
89.8195748
89.8195748
89.8195748
89.8195748
89.8195748
89.8195748
89.8195748
89.8195748
89.8195748
89.8195748
89.8195748
89.8195748
89.8195748
89.8195748
89.8195748
89.8195748
89.8195748
89.8195748
89.8195748
89.8195748
89.8195748
89.8195748
89.8195748
89.8195748
89.8195748
89.8195748
89.8195748
89.8195748
89.8195748
89.8195748
89.8195748
89.8195748
89.8195748
89.8195748
89.8195748
89.8195748
89.8195748
89.8195748
89.8195748
89.8195748
89.8195748
89.8195748
89.8195748
89.8195748
89.8195748
89.8195747
89.8195748
89.8195749
89.8195749
89.8195744
89.8195744
89.8195758
89.8195766
89.8195726
89.8195671
89.8195767
89.8196023
89.8195874
89.8194853
89.8194851
89.8198284
89.8198886
89.81903
89.8185616
89.8204731
89.8225348
89.8189965
89.8116178
89.8162596
89.8391826
89.8381697
89.7763746
89.7683518
89.8885359
89.9453452
89.7416596
89.5419896
89.8345951
90.3534891
90.0467038
88.9510493
89.0272894
91.323283
91.463171
88.456666
88.13819
91.5775607
92.4893948
89.2230906
87.8941133
89.2245857
92.6310321
92.0209499
87.9855078
87.9195035
93.008122
92.3803116
88.2928065
87.8552631
92.6960324
92.421895
89.907313
87.9208128
87.9285389
92.8421457
92.425464
88.3317372
87.984454
92.7851651
92.3815531
89.6350407
87.917784
88.0013986
92.8617684
92.3231333
88.6710927
87.8451506
90.9009505
92.5119835
90.5249772
88.0806098
88.1107177
92.369359
92.9080544
89.0112563
88.3322873
89.734567
90.9601703
90.0278937
89.1932592
89.5294036
90.1389847
90.0447097
89.6697748
89.6781342
89.8729799
89.8873631
89.81814
89.8035827
89.7999449
89.7758705
89.825086
89.9669363
89.9034647
89.4634568
89.4919447
90.4585764
90.532161
88.8732122
88.4607502
90.9309254
92.8918178
88.9110448
88.0103853
91.004667
92.7504093
88.6664748
87.9321821
91.1852069
92.5065447
90.8217862
88.0420833
87.9287394
91.8003676
92.4338534
89.1581167
88.0162716
91.1284522
92.4208265
91.0960749
88.3733785
87.9326516
87.8788555
91.2283579
92.4415159
89.3340076
88.1600507
91.103357
92.3550917
92.8458705
88.7703792
88.1489824
87.9232381
87.9124247
92.7102365
92.3512617
89.3375667
88.1275909
91.6294319
92.4224318
89.0505981
88.0173189
91.4339949
92.4635326
90.6128678
87.9764088
87.9008072
91.9524981
92.3540938
90.833178
88.1821399
87.9006258
87.9193423
92.957628
92.3569014
89.0995533
88.1037435
91.7500528
92.433962
88.9493825
87.9543948
91.4183576
)
;

boundaryField
{
    closed
    {
        type            calculated;
        value           nonuniform List<scalar> 0();
    }
    open
    {
        type            calculated;
        value           nonuniform List<scalar> 0();
    }
    sides
    {
        type            empty;
    }
    procBoundary2to1
    {
        type            processor;
        value           uniform 92.2909411;
    }
    procBoundary2to3
    {
        type            processor;
        value           uniform 92.5026429;
    }
}


// ************************************************************************* //
