/*--------------------------------*- C++ -*----------------------------------*\
| =========                 |                                                 |
| \\      /  F ield         | OpenFOAM: The Open Source CFD Toolbox           |
|  \\    /   O peration     | Version:  2306                                  |
|   \\  /    A nd           | Website:  www.openfoam.com                      |
|    \\/     M anipulation  |                                                 |
\*---------------------------------------------------------------------------*/
FoamFile
{
    version     2.0;
    format      ascii;
    arch        "LSB;label=32;scalar=64";
    class       volScalarField;
    location    "0.00042";
    object      prefDZ_H2O;
}
// * * * * * * * * * * * * * * * * * * * * * * * * * * * * * * * * * * * * * //

dimensions      [1 -1 -1 0 0 0 0];

internalField   nonuniform List<scalar> 
530
(
-7.46739897e-07
-7.37159222e-07
-7.35490571e-07
-7.36178365e-07
-7.76203803e-07
-7.74196321e-07
-7.59036875e-07
-7.34370287e-07
-7.34639613e-07
-7.7500229e-07
-7.73423182e-07
-7.47342312e-07
-7.41541174e-07
-7.5062227e-07
-7.38450997e-07
-7.37619767e-07
-7.76525636e-07
-7.7336365e-07
-7.37971377e-07
-7.37195469e-07
-7.76775884e-07
-7.73345406e-07
-7.51574354e-07
-7.38816822e-07
-7.39056828e-07
-7.3630274e-07
-7.36854735e-07
-7.78416563e-07
-7.7429182e-07
-7.78798322e-07
-7.35104988e-07
-7.33917765e-07
-7.80009967e-07
-7.74950409e-07
-7.37748019e-07
-7.35887162e-07
-7.79074389e-07
-7.744669e-07
-7.43923952e-07
-7.35173926e-07
-7.48561062e-07
-7.76173914e-07
-7.43247765e-07
-7.36308562e-07
-7.79201025e-07
-7.74679885e-07
-7.53564865e-07
-7.34329669e-07
-7.34070865e-07
-7.7878449e-07
-7.74544547e-07
-7.3869912e-07
-7.36136629e-07
-7.78931191e-07
-7.74701731e-07
-7.50389686e-07
-7.35321744e-07
-7.34943188e-07
-7.79111678e-07
-7.74531374e-07
-7.39376857e-07
-7.35370894e-07
-7.75813307e-07
-7.74864232e-07
-7.39060612e-07
-7.35796115e-07
-7.75675533e-07
-7.74909093e-07
-7.52423433e-07
-7.35401831e-07
-7.34910167e-07
-7.76613543e-07
-7.74580006e-07
-7.41232424e-07
-7.36174141e-07
-7.74520205e-07
-7.74872053e-07
-7.52523343e-07
-7.35760354e-07
-7.35150088e-07
-7.745351e-07
-7.74625928e-07
-7.42177393e-07
-7.36015496e-07
-7.73088448e-07
-7.74903387e-07
-7.51509109e-07
-7.35828473e-07
-7.35441126e-07
-7.74577832e-07
-7.74759503e-07
-7.53187572e-07
-7.35839613e-07
-7.35380558e-07
-7.76522682e-07
-7.74439005e-07
-7.42279319e-07
-7.3585348e-07
-7.7181087e-07
-7.74902778e-07
-7.54851842e-07
-7.35935363e-07
-7.35320106e-07
-7.72097622e-07
-7.74868856e-07
-7.55285751e-07
-7.3620207e-07
-7.35715301e-07
-7.76939114e-07
-7.74317895e-07
-7.4248735e-07
-7.35244869e-07
-7.70731998e-07
-7.74901355e-07
-7.5947401e-07
-7.36232242e-07
-7.35391935e-07
-7.70935574e-07
-7.7476367e-07
-7.59155337e-07
-7.36375488e-07
-7.35423691e-07
-7.70820341e-07
-7.74644444e-07
-7.59197558e-07
-7.36557038e-07
-7.35829066e-07
-7.7389595e-07
-7.74538329e-07
-7.54336646e-07
-7.36029811e-07
-7.36159286e-07
-7.78034526e-07
-7.75057906e-07
-7.43300392e-07
-7.35367425e-07
-7.55283579e-07
-7.76353735e-07
-7.5477418e-07
-7.38936349e-07
-7.45641509e-07
-7.61123006e-07
-7.58040941e-07
-7.47098936e-07
-7.47978304e-07
-7.54261191e-07
-7.54575654e-07
-7.51347385e-07
-7.50828974e-07
-7.5217616e-07
-7.52643229e-07
-7.52140959e-07
-7.51847074e-07
-7.52010959e-07
-7.52168567e-07
-7.52122456e-07
-7.52048669e-07
-7.52058702e-07
-7.52090166e-07
-7.5208939e-07
-7.52077045e-07
-7.52076485e-07
-7.5208056e-07
-7.52081272e-07
-7.52080029e-07
-7.52079577e-07
-7.52079893e-07
-7.52080251e-07
-7.52080285e-07
-7.52079857e-07
-7.5207935e-07
-7.5207984e-07
-7.52082063e-07
-7.52081865e-07
-7.52074249e-07
-7.52073238e-07
-7.52092657e-07
-7.52101235e-07
-7.52059309e-07
-7.5201842e-07
-7.52093686e-07
-7.52246263e-07
-7.52150099e-07
-7.51668452e-07
-7.51687732e-07
-7.52968965e-07
-7.53140445e-07
-7.50677649e-07
-7.496027e-07
-7.53716201e-07
-7.57065793e-07
-7.51451666e-07
-7.437814e-07
-7.48988113e-07
-7.66473761e-07
-7.62966803e-07
-7.37846027e-07
-7.37661409e-07
-7.77398043e-07
-7.74843066e-07
-7.40386693e-07
-7.3474385e-07
-7.5702545e-07
-7.7536146e-07
-7.4807811e-07
-7.35263566e-07
-7.57906546e-07
-7.75025993e-07
-7.64918297e-07
-7.3605861e-07
-7.35490093e-07
-7.70410466e-07
-7.74750551e-07
-7.46146376e-07
-7.35365125e-07
-7.58607943e-07
-7.74984653e-07
-7.63820461e-07
-7.35739195e-07
-7.35603402e-07
-7.77355459e-07
-7.74676709e-07
-7.44935183e-07
-7.35116685e-07
-7.55646466e-07
-7.7477256e-07
-7.70612138e-07
-7.36058254e-07
-7.35488862e-07
-7.69326381e-07
-7.74834363e-07
-7.55002533e-07
-7.35444189e-07
-7.36663223e-07
-7.75053921e-07
-7.74538391e-07
-7.44349557e-07
-7.34797997e-07
-7.52883383e-07
-7.74847413e-07
-7.70635458e-07
-7.36401986e-07
-7.3530835e-07
-7.61098499e-07
-7.74483981e-07
-7.58267191e-07
-7.3815866e-07
-7.39521649e-07
-7.64157201e-07
-7.68313448e-07
-7.47403939e-07
-7.43818381e-07
-7.51657513e-07
-7.57056164e-07
-7.53794676e-07
-7.4970179e-07
-7.50523333e-07
-7.5303672e-07
-7.53043651e-07
-7.51809208e-07
-7.51612399e-07
-7.52079686e-07
-7.52278327e-07
-7.52130498e-07
-7.52005499e-07
-7.52041201e-07
-7.52104866e-07
-7.52101148e-07
-7.52072207e-07
-7.52071306e-07
-7.52081246e-07
-7.52083221e-07
-7.52080218e-07
-7.52078955e-07
-7.5207975e-07
-7.5208034e-07
-7.52080168e-07
-7.52079938e-07
-7.52079963e-07
-7.52080041e-07
-7.5208004e-07
-7.52080018e-07
-7.52080016e-07
-7.52080022e-07
-7.52080023e-07
-7.52080022e-07
-7.52080021e-07
-7.52080021e-07
-7.52080022e-07
-7.52080022e-07
-7.52080021e-07
-7.52080022e-07
-7.52080022e-07
-7.52080022e-07
-7.52080022e-07
-7.52080022e-07
-7.52080022e-07
-7.52080022e-07
-7.52080022e-07
-7.52080022e-07
-7.52080022e-07
-7.52080022e-07
-7.52080022e-07
-7.52080022e-07
-7.52080022e-07
-7.52080022e-07
-7.52080022e-07
-7.52080022e-07
-7.52080022e-07
-7.52080022e-07
-7.52080022e-07
-7.52080022e-07
-7.52080022e-07
-7.52080022e-07
-7.52080022e-07
-7.52080022e-07
-7.52080022e-07
-7.52080022e-07
-7.52080022e-07
-7.52080022e-07
-7.52080022e-07
-7.52080022e-07
-7.52080022e-07
-7.52080022e-07
-7.52080022e-07
-7.52080022e-07
-7.52080022e-07
-7.52080022e-07
-7.52080022e-07
-7.52080022e-07
-7.52080022e-07
-7.52080022e-07
-7.52080022e-07
-7.52080022e-07
-7.52080022e-07
-7.52080022e-07
-7.52080022e-07
-7.52080022e-07
-7.52080022e-07
-7.52080022e-07
-7.52080022e-07
-7.52080022e-07
-7.52080022e-07
-7.52080022e-07
-7.52080022e-07
-7.52080022e-07
-7.52080022e-07
-7.52080022e-07
-7.52080022e-07
-7.52080022e-07
-7.52080022e-07
-7.52080022e-07
-7.52080022e-07
-7.52080022e-07
-7.52080022e-07
-7.52080022e-07
-7.52080022e-07
-7.52080022e-07
-7.52080022e-07
-7.52080022e-07
-7.52080022e-07
-7.52080022e-07
-7.52080021e-07
-7.52080021e-07
-7.52080021e-07
-7.52080022e-07
-7.52080022e-07
-7.52080018e-07
-7.52080018e-07
-7.5208003e-07
-7.52080037e-07
-7.52080003e-07
-7.52079956e-07
-7.52080038e-07
-7.52080255e-07
-7.52080129e-07
-7.52079261e-07
-7.52079259e-07
-7.52082177e-07
-7.52082689e-07
-7.52075393e-07
-7.52071415e-07
-7.52087655e-07
-7.52105177e-07
-7.52075113e-07
-7.52012443e-07
-7.52051875e-07
-7.52246685e-07
-7.52238105e-07
-7.51713231e-07
-7.51645323e-07
-7.52666399e-07
-7.53150461e-07
-7.5141884e-07
-7.4973027e-07
-7.52208702e-07
-7.56637352e-07
-7.54016641e-07
-7.4478183e-07
-7.4541696e-07
-7.64975909e-07
-7.6618394e-07
-7.40696808e-07
-7.37811215e-07
-7.67173381e-07
-7.75465758e-07
-7.47053231e-07
-7.35403114e-07
-7.47046581e-07
-7.76543619e-07
-7.71011022e-07
-7.36295392e-07
-7.35667641e-07
-7.79594212e-07
-7.74573998e-07
-7.39337464e-07
-7.35065961e-07
-7.76895648e-07
-7.74875832e-07
-7.5287069e-07
-7.35669368e-07
-7.3574253e-07
-7.78294835e-07
-7.7497499e-07
-7.39624351e-07
-7.36329403e-07
-7.77666484e-07
-7.74549469e-07
-7.50551999e-07
-7.35642234e-07
-7.36493376e-07
-7.78450713e-07
-7.74113429e-07
-7.42445463e-07
-7.34974833e-07
-7.61322285e-07
-7.75602681e-07
-7.58122795e-07
-7.37217658e-07
-7.37482158e-07
-7.74043747e-07
-7.78867753e-07
-7.45282243e-07
-7.39696417e-07
-7.51371342e-07
-7.618463e-07
-7.53859395e-07
-7.46800408e-07
-7.49626023e-07
-7.54803191e-07
-7.53997966e-07
-7.50810894e-07
-7.50881042e-07
-7.52534787e-07
-7.52656876e-07
-7.52068409e-07
-7.51944858e-07
-7.51913901e-07
-7.51710212e-07
-7.52127861e-07
-7.53336221e-07
-7.52795317e-07
-7.4907257e-07
-7.49311146e-07
-7.57541289e-07
-7.58171702e-07
-7.44143272e-07
-7.40760887e-07
-7.61595082e-07
-7.78585521e-07
-7.4444064e-07
-7.36478635e-07
-7.6222358e-07
-7.77576193e-07
-7.42377679e-07
-7.35759879e-07
-7.6378104e-07
-7.7553843e-07
-7.60669511e-07
-7.36859635e-07
-7.35771254e-07
-7.69103347e-07
-7.75013744e-07
-7.46529258e-07
-7.3665703e-07
-7.6328928e-07
-7.74874103e-07
-7.63024384e-07
-7.39973236e-07
-7.35770332e-07
-7.35298979e-07
-7.64153872e-07
-7.75068495e-07
-7.48016299e-07
-7.38065552e-07
-7.63074997e-07
-7.74329268e-07
-7.78170151e-07
-7.43272969e-07
-7.37895679e-07
-7.35683894e-07
-7.35594412e-07
-7.77006419e-07
-7.74335219e-07
-7.48062596e-07
-7.37753424e-07
-7.67622844e-07
-7.74928296e-07
-7.45623196e-07
-7.36660078e-07
-7.65930048e-07
-7.75222909e-07
-7.58875556e-07
-7.3622095e-07
-7.35507416e-07
-7.70423642e-07
-7.74344015e-07
-7.60768155e-07
-7.38308356e-07
-7.35447021e-07
-7.35675161e-07
-7.79238582e-07
-7.74396002e-07
-7.46059171e-07
-7.3750738e-07
-7.68668078e-07
-7.75017479e-07
-7.44774567e-07
-7.36040312e-07
-7.65794266e-07
)
;

boundaryField
{
    closed
    {
        type            calculated;
        value           nonuniform List<scalar> 0();
    }
    open
    {
        type            calculated;
        value           nonuniform List<scalar> 0();
    }
    sides
    {
        type            empty;
    }
    procBoundary2to1
    {
        type            processor;
        value           uniform -7.73840722e-07;
    }
    procBoundary2to3
    {
        type            processor;
        value           uniform -7.7556652e-07;
    }
}


// ************************************************************************* //
