/*--------------------------------*- C++ -*----------------------------------*\
| =========                 |                                                 |
| \\      /  F ield         | OpenFOAM: The Open Source CFD Toolbox           |
|  \\    /   O peration     | Version:  2306                                  |
|   \\  /    A nd           | Website:  www.openfoam.com                      |
|    \\/     M anipulation  |                                                 |
\*---------------------------------------------------------------------------*/
FoamFile
{
    version     2.0;
    format      ascii;
    arch        "LSB;label=32;scalar=64";
    class       volScalarField;
    location    "0.00168";
    object      prefDPV_H2;
}
// * * * * * * * * * * * * * * * * * * * * * * * * * * * * * * * * * * * * * //

dimensions      [1 -1 -1 0 0 0 0];

internalField   nonuniform List<scalar> 
531
(
-3.09146441e-05
-3.05647317e-05
-3.06073993e-05
-3.01165049e-05
-3.0131045e-05
-3.14783269e-05
-3.15172246e-05
-3.14900609e-05
-3.15243104e-05
-3.15103461e-05
-3.07568505e-05
-3.04286533e-05
-3.15011955e-05
-3.15001224e-05
-3.09205821e-05
-3.00719013e-05
-3.01525137e-05
-3.14744294e-05
-3.15201699e-05
-3.15014205e-05
-3.15232191e-05
-3.15190132e-05
-3.09221915e-05
-3.07058951e-05
-3.04478287e-05
-3.04493046e-05
-3.14673494e-05
-3.15175399e-05
-3.06373188e-05
-3.05109132e-05
-3.14648296e-05
-3.15139143e-05
-3.06002368e-05
-3.05550909e-05
-3.14590891e-05
-3.15136771e-05
-3.15053704e-05
-3.07748768e-05
-3.04750387e-05
-3.14719266e-05
-3.15049819e-05
-3.15172399e-05
-3.15107628e-05
-3.0916317e-05
-3.05770898e-05
-3.05620663e-05
-3.04440811e-05
-3.00260741e-05
-3.00290282e-05
-3.14415476e-05
-3.15143379e-05
-3.14933588e-05
-3.15299882e-05
-3.15188083e-05
-3.09077753e-05
-3.05156313e-05
-3.05211342e-05
-3.14863488e-05
-3.15415618e-05
-3.09166723e-05
-3.07706036e-05
-3.14891937e-05
-3.15343573e-05
-3.0919465e-05
-3.08392698e-05
-3.05417476e-05
-3.05430685e-05
-3.14946333e-05
-3.15360503e-05
-3.15375386e-05
-3.09092938e-05
-3.0420461e-05
-3.05916796e-05
-3.025375e-05
-3.02644485e-05
-3.14722396e-05
-3.15298331e-05
-3.15173789e-05
-3.15384408e-05
-3.0931133e-05
-3.08243648e-05
-3.14819977e-05
-3.15301257e-05
-3.10766019e-05
-3.09011033e-05
-3.05278327e-05
-3.05296574e-05
-3.15179112e-05
-3.15327125e-05
-3.08980724e-05
-3.04499818e-05
-3.04897573e-05
-3.15155005e-05
-3.15480133e-05
-3.0760932e-05
-3.07236056e-05
-3.15076298e-05
-3.1539744e-05
-3.15358489e-05
-3.09147917e-05
-3.06861843e-05
-3.05393037e-05
-3.05947781e-05
-3.15186485e-05
-3.08982962e-05
-3.04376749e-05
-3.15218148e-05
-3.15168715e-05
-3.08961644e-05
-3.04099562e-05
-3.05375827e-05
-3.14995759e-05
-3.15372702e-05
-3.1528116e-05
-3.09338004e-05
-3.05547647e-05
-3.05570887e-05
-3.15181057e-05
-3.15222318e-05
-3.09059095e-05
-3.04146974e-05
-3.04721495e-05
-3.14982275e-05
-3.15384439e-05
-3.06474796e-05
-3.05873398e-05
-3.14849264e-05
-3.15243388e-05
-3.14964871e-05
-3.1525527e-05
-3.10977401e-05
-3.06986475e-05
-3.0616996e-05
-3.04541078e-05
-3.04762495e-05
-3.15081512e-05
-3.15093312e-05
-3.09041476e-05
-3.03862181e-05
-3.06217107e-05
-3.14940323e-05
-3.09065647e-05
-3.04615951e-05
-3.15239285e-05
-3.15168331e-05
-3.09015768e-05
-3.02758313e-05
-3.04305775e-05
-3.14889973e-05
-3.15436132e-05
-3.15086004e-05
-3.1544576e-05
-3.15239985e-05
-3.09081998e-05
-3.05592916e-05
-3.06199406e-05
-3.15190612e-05
-3.15298299e-05
-3.09469555e-05
-3.06865899e-05
-3.06923744e-05
-3.0467772e-05
-3.04673245e-05
-3.15066527e-05
-3.15273439e-05
-3.07760261e-05
-3.05732651e-05
-3.15189407e-05
-3.15199533e-05
-3.09054089e-05
-3.0348543e-05
-3.04843601e-05
-3.1501733e-05
-3.15385049e-05
-3.15193164e-05
-3.15404134e-05
-3.15295217e-05
-3.09048549e-05
-3.07260923e-05
-3.05682461e-05
-3.05298101e-05
-3.15105285e-05
-3.1521605e-05
-3.07696413e-05
-3.01440592e-05
-3.02504205e-05
-3.15097902e-05
-3.15336474e-05
-3.15319331e-05
-3.15362734e-05
-3.09045522e-05
-3.063091e-05
-3.15154496e-05
-3.15254916e-05
-3.09170714e-05
-3.06518151e-05
-3.04625253e-05
-3.04674713e-05
-3.15116939e-05
-3.15209189e-05
-3.15379026e-05
-3.15251322e-05
-3.09110233e-05
-3.07182578e-05
-3.06394852e-05
-3.06129637e-05
-3.15103379e-05
-3.15294381e-05
-3.09188619e-05
-3.06510175e-05
-3.05067316e-05
-3.05009398e-05
-3.15039718e-05
-3.1531074e-05
-3.06247059e-05
-3.05669645e-05
-3.15173955e-05
-3.15328413e-05
-3.06000332e-05
-3.06066486e-05
-3.15219256e-05
-3.15355443e-05
-3.15343917e-05
-3.08411462e-05
-3.05667653e-05
-3.15436043e-05
-3.15268876e-05
-3.09001084e-05
-3.04467191e-05
-3.05110969e-05
-3.15238044e-05
-3.15466229e-05
-3.0826935e-05
-3.07189461e-05
-3.15349212e-05
-3.15301407e-05
-3.09044134e-05
-3.07893284e-05
-3.06156012e-05
-3.06728004e-05
-3.15390782e-05
-3.09224061e-05
-3.04624585e-05
-3.15242559e-05
-3.15273515e-05
-3.06814834e-05
-3.05782645e-05
-3.1523013e-05
-3.15247185e-05
-3.05571673e-05
-3.05831695e-05
-3.15233164e-05
-3.15234034e-05
-3.15304767e-05
-3.07767148e-05
-3.0480225e-05
-3.15211186e-05
-3.15208552e-05
-3.0575758e-05
-3.05968373e-05
-3.15147486e-05
-3.15190178e-05
-3.15134491e-05
-3.09313321e-05
-3.04813856e-05
-3.03107933e-05
-3.03242193e-05
-3.15014361e-05
-3.15026736e-05
-3.15034434e-05
-3.06982038e-05
-3.03870712e-05
-3.15119142e-05
-3.14971153e-05
-3.15180231e-05
-3.15005222e-05
-3.09228929e-05
-3.06305838e-05
-3.05845384e-05
-3.0450737e-05
-2.99578106e-05
-2.99628196e-05
-3.14901314e-05
-3.14945898e-05
-3.15055846e-05
-3.15049125e-05
-3.15173776e-05
-3.15147965e-05
-3.09076154e-05
-3.0501932e-05
-3.15212678e-05
-3.15067451e-05
-3.09231612e-05
-3.03738601e-05
-3.04703911e-05
-3.15051077e-05
-3.15225871e-05
-3.15157466e-05
-3.09236619e-05
-3.06890033e-05
-3.06348883e-05
-3.05294129e-05
-3.01233117e-05
-3.01244991e-05
-3.14947352e-05
-3.15159288e-05
-3.15039186e-05
-3.15275172e-05
-3.15127682e-05
-3.09137429e-05
-3.03771936e-05
-3.04123673e-05
-3.15020198e-05
-3.15346218e-05
-3.06675386e-05
-3.06312335e-05
-3.15148271e-05
-3.15344531e-05
-3.15304422e-05
-3.08555022e-05
-3.0567056e-05
-3.15378785e-05
-3.15232459e-05
-3.08975626e-05
-3.04032685e-05
-3.04874402e-05
-3.15277872e-05
-3.15520618e-05
-3.15460377e-05
-3.08972429e-05
-3.04826894e-05
-3.04855868e-05
-3.15506798e-05
-3.15614062e-05
-3.08793984e-05
-3.04289458e-05
-3.04343671e-05
-3.15786122e-05
-3.15887278e-05
-3.07985129e-05
-3.05224463e-05
-3.1609484e-05
-3.16124859e-05
-3.08270517e-05
-3.03530663e-05
-3.03564163e-05
-3.16595427e-05
-3.16761944e-05
-3.06589052e-05
-3.03322927e-05
-3.17199724e-05
-3.17383348e-05
-3.06562219e-05
-3.00156506e-05
-3.01048768e-05
-3.17325327e-05
-3.17765601e-05
-3.17571686e-05
-3.1774117e-05
-3.17795319e-05
-3.17777684e-05
-3.04655875e-05
-3.0097845e-05
-3.16548391e-05
-3.15972116e-05
-3.16652589e-05
-3.14712024e-05
-3.00468171e-05
-3.13648972e-05
-3.16446044e-05
-3.14791221e-05
-3.16327317e-05
-3.15527677e-05
-3.1643591e-05
-3.16057459e-05
-3.1667816e-05
-3.16567691e-05
-3.17084405e-05
-3.17243993e-05
-3.17819011e-05
-3.18436605e-05
-3.19453467e-05
-3.21361501e-05
-3.2264053e-05
-3.21152723e-05
-3.19990284e-05
-3.18662363e-05
-3.17715265e-05
-3.16669245e-05
-3.15953204e-05
-3.1525735e-05
-3.14840714e-05
-3.14092775e-05
-3.13315966e-05
-3.12959576e-05
-3.13193062e-05
-3.12302684e-05
-3.11696753e-05
-3.11186322e-05
-3.10922175e-05
-3.10789855e-05
-3.10852761e-05
-3.09866423e-05
-3.08640357e-05
-3.07137366e-05
-3.06014745e-05
-3.04981253e-05
-3.08846777e-05
-3.22621755e-05
-3.20744366e-05
-3.17811333e-05
-3.15585429e-05
-3.12825372e-05
-3.10402145e-05
-3.07674571e-05
-3.05117195e-05
-3.02310127e-05
-2.99547813e-05
-2.99762363e-05
-3.06576006e-05
-3.04518968e-05
-3.01726107e-05
-3.01385445e-05
-3.29116141e-05
-3.34085133e-05
-3.3858151e-05
-3.51906131e-05
-3.52135597e-05
-4.08491326e-05
-4.1253115e-05
-4.28872493e-05
-4.3880583e-05
-4.57929505e-05
-4.76430409e-05
-5.03353957e-05
-5.38245339e-05
-5.70269104e-05
-5.9064352e-05
-6.11328387e-05
-6.37661932e-05
-6.56982096e-05
-6.73577407e-05
-6.87947265e-05
-7.00737424e-05
-7.13293029e-05
-7.2586966e-05
-7.37406851e-05
-7.49828649e-05
-7.59139193e-05
-7.6774763e-05
-7.74904149e-05
-7.81843059e-05
-7.88138586e-05
-7.94528783e-05
-8.00115681e-05
-8.06058351e-05
-8.10972346e-05
-8.16248886e-05
-8.20627292e-05
-8.25524005e-05
-8.29378649e-05
-8.34033181e-05
-8.37401615e-05
-8.41940819e-05
-8.45124248e-05
-8.49590676e-05
-8.52672373e-05
-8.57342314e-05
-8.60654683e-05
-8.6501722e-05
-8.67168832e-05
-8.69655007e-05
-8.71620272e-05
-8.73906526e-05
-8.75778298e-05
-8.78061097e-05
-8.7985194e-05
-8.82002969e-05
-8.83645678e-05
-8.86174583e-05
-8.88215588e-05
-8.90817371e-05
-8.92675049e-05
-8.94691994e-05
-8.96267333e-05
-8.98117128e-05
-8.99551693e-05
-9.01204358e-05
-9.02551294e-05
-9.04095164e-05
-9.05398929e-05
-9.06875725e-05
-9.08135629e-05
-9.0954911e-05
-9.10695031e-05
-9.11967642e-05
-9.13220795e-05
-9.14572932e-05
-9.15760089e-05
-9.17046896e-05
-9.18194386e-05
-9.19388324e-05
-9.20448244e-05
-9.21546597e-05
-9.22533983e-05
-9.23537839e-05
-9.2440349e-05
-9.25301795e-05
-9.26131505e-05
-9.26987748e-05
-9.27784643e-05
-9.28603074e-05
-9.29378917e-05
-9.30194288e-05
-9.30967201e-05
-9.31760572e-05
-9.32516477e-05
-9.33289648e-05
-9.3403004e-05
-9.34784788e-05
-9.35562314e-05
-9.36334308e-05
-9.37049387e-05
-9.37696426e-05
-9.38336841e-05
-9.38956485e-05
-9.39570677e-05
-9.40164815e-05
-9.40757253e-05
-9.41330016e-05
-9.4189928e-05
)
;

boundaryField
{
    closed
    {
        type            calculated;
        value           nonuniform List<scalar> 0();
    }
    open
    {
        type            calculated;
        value           nonuniform List<scalar> 0();
    }
    sides
    {
        type            empty;
    }
    procBoundary4to3
    {
        type            processor;
        value           uniform -3.15050658e-05;
    }
    procBoundary4to5
    {
        type            processor;
        value           uniform -9.42448971e-05;
    }
}


// ************************************************************************* //
