/*--------------------------------*- C++ -*----------------------------------*\
| =========                 |                                                 |
| \\      /  F ield         | OpenFOAM: The Open Source CFD Toolbox           |
|  \\    /   O peration     | Version:  2306                                  |
|   \\  /    A nd           | Website:  www.openfoam.com                      |
|    \\/     M anipulation  |                                                 |
\*---------------------------------------------------------------------------*/
FoamFile
{
    version     2.0;
    format      ascii;
    arch        "LSB;label=32;scalar=64";
    class       volScalarField;
    location    "0.00168";
    object      prefDh_H2;
}
// * * * * * * * * * * * * * * * * * * * * * * * * * * * * * * * * * * * * * //

dimensions      [1 1 -3 0 0 0 0];

internalField   nonuniform List<scalar> 
531
(
28.9990739
23.9108262
24.5228925
17.0721849
17.2629642
37.6274924
38.1558211
37.7688247
38.2497072
38.0394068
26.7842918
21.8284588
37.9356865
37.9039222
29.2579553
16.3925874
17.5849909
37.553753
38.1929173
37.9247419
38.2199692
38.157024
29.2013839
26.0436062
22.1126219
22.1239528
37.4454574
38.150597
24.9929414
23.0613885
37.4073355
38.0925004
24.428978
23.7404432
37.3287425
38.0808482
37.9804564
27.0627998
22.5328888
37.5157291
37.9613837
38.1445121
38.0458389
29.0645758
24.0894799
23.8452341
22.0600021
15.6732792
15.7128858
37.0770451
38.1101675
37.8122424
38.3252765
38.1641333
28.8698757
23.1532614
23.19184
37.6961012
38.5019676
29.214644
26.9913103
37.7420133
38.3806556
29.0350455
28.0371533
23.526776
23.5334231
37.8413237
38.40932
38.449334
29.0276681
21.6986632
24.266919
19.1568119
19.2868892
37.5085234
38.3384706
38.144825
38.4569975
29.4171727
27.8147668
37.6427296
38.3105717
31.3397052
28.9653379
23.3170927
23.3305061
38.1633737
38.3763677
28.798362
22.1265045
22.7034975
38.1350846
38.6039922
26.8344928
26.2702565
38.0319681
38.4580145
38.4228255
28.9383079
25.7041674
23.4782465
24.309847
38.1928013
28.8050987
21.9450923
38.2259041
38.1417695
28.7462131
21.5390624
23.4339678
37.9021392
38.4289251
38.3044379
29.194835
23.716542
23.7562143
38.1632354
38.2187458
28.9609911
21.6079263
22.4445462
37.8768849
38.4645656
25.1389043
24.2103872
37.7012374
38.2428603
37.8482037
38.2577399
31.6763738
25.8930925
24.708881
22.1798608
22.5474527
38.0292265
38.0302366
28.9438905
21.1874033
24.7042464
37.8191961
28.7935862
22.3181614
38.2531411
38.1408214
28.9204873
19.4972525
21.7985834
37.7523053
38.5349299
38.0275296
38.5366776
38.2400307
28.8598209
23.801326
24.70234
38.175348
38.3213926
29.3702646
25.7168187
25.805056
22.3888444
22.3816953
38.0068437
38.296593
27.050638
24.0107748
38.1791406
38.1845031
28.9737875
20.5979297
22.6261762
37.937913
38.4547014
38.1821049
38.4712893
38.3140206
28.8595783
26.3472976
23.908797
23.3498462
38.0649933
38.2194607
26.9578838
17.4658945
19.0663421
38.0620486
38.4021611
38.3657253
38.434332
29.0144716
24.8814691
38.1182398
38.2582658
29.1877817
25.2136513
22.3026351
22.39607
38.0900019
38.1978581
38.4487319
38.2547421
28.9248989
26.2117132
25.0075617
24.6019367
38.04905
38.3207352
29.2441551
25.1950883
22.9905913
22.8973144
37.9685384
38.3510515
24.777219
23.8993661
38.1688508
38.3736335
24.3898942
24.5031236
38.2380551
38.4039617
38.409635
28.0348454
23.906442
38.5422808
38.287077
28.8980513
22.0842209
23.0210035
38.2480567
38.5802705
27.8396916
26.2096186
38.4085308
38.320969
28.890236
27.2953886
24.6306487
25.5188735
38.487999
29.2664718
22.310479
38.2574383
38.2953029
25.6345595
24.0799926
38.2522285
38.2509668
23.7426744
24.1564837
38.2666625
38.2244985
38.3584505
27.0842848
22.5887538
38.2218538
38.1953579
24.0306192
24.3697623
38.135766
38.1513693
38.1005811
29.4361325
22.6385375
20.0099709
20.2349251
37.94946
37.9236184
37.960312
25.91199
21.1963888
38.0885505
37.8421478
38.1496095
37.8861645
29.1766459
24.9215909
24.1946107
22.1785611
14.6278652
14.7131567
37.7914334
37.8290101
37.9990082
37.977377
38.1477152
38.1150517
29.0857162
22.9417998
38.2073405
37.9881274
29.2900128
20.9950312
22.4296272
37.9793938
38.2067333
38.1112313
29.228143
25.7919796
24.9542363
23.3590709
17.1547353
17.1707278
37.8524039
38.1307106
37.9688267
38.2875107
38.0797429
29.1600417
21.0493758
21.5376867
37.9324999
38.4041226
25.4441787
24.8737194
38.1407349
38.3857584
38.3436333
28.2681347
23.9133465
38.4626382
38.2357157
28.8071116
21.4195091
22.6600471
38.3257093
38.6527771
38.5752148
28.8232883
22.6011817
22.6238132
38.6586844
38.8141973
28.4939808
21.7557244
21.817596
39.0808725
39.2243905
27.3097916
23.1372443
39.5477035
39.5858581
27.608068
20.5145815
20.539574
40.3101551
40.5535527
25.0443131
20.1080753
41.2258014
41.5047328
24.8959247
15.2193902
16.5330053
41.3961139
42.0392744
41.71584
41.9642714
41.9962832
41.9827202
21.5144766
16.1523989
39.9719188
39.121358
40.0313073
37.1107262
14.6661199
35.4156496
39.5013316
37.0410118
39.2085408
38.0197084
39.2518175
38.6662475
39.4858619
39.2748987
39.957083
40.132254
40.9178056
41.774429
43.2421461
46.0680796
47.92209
45.4764096
43.542991
41.3051004
39.674295
37.8356913
36.5199126
35.1882355
34.2820431
32.938809
31.5944871
30.8912189
31.1556737
29.7248123
28.6423649
27.6083214
26.8889296
26.2747139
25.9316259
24.0207477
21.856664
19.1981549
17.208983
15.3298028
21.4282338
41.7946766
38.5509853
33.4800559
29.6273271
24.8656981
20.6776957
15.9820855
11.5742713
6.75826709
2.01368444
1.67463371
11.7624869
7.73797865
2.61457579
1.68370112
40.7119413
47.9837018
54.8234854
78.2150793
82.5428563
197.144433
208.728613
248.153261
275.400759
331.31205
393.241823
489.373753
629.769698
773.89158
873.665003
979.639174
1131.55986
1247.5254
1356.21385
1453.57816
1547.32506
1640.03344
1740.25845
1833.06314
1940.44593
2020.5871
2099.92523
2164.51671
2231.53551
2290.44176
2354.23864
2408.13199
2469.21339
2517.89486
2573.77074
2618.07442
2670.84539
2710.17638
2760.84736
2795.45732
2845.3294
2878.36013
2927.6551
2959.98869
3011.73989
3047.0243
3095.71083
3118.41009
3146.40511
3167.32746
3193.25034
3213.37621
3239.27653
3258.65491
3283.11148
3300.96702
3329.68299
3352.17156
3381.74834
3402.38129
3425.5878
3443.23579
3464.5451
3480.71667
3499.82195
3515.06647
3532.97166
3547.86574
3565.05111
3579.50434
3595.97134
3609.18524
3624.05788
3638.60087
3654.44936
3668.2898
3683.44597
3696.94909
3711.07271
3723.58896
3736.6053
3748.30573
3760.23466
3770.57367
3781.30088
3791.24441
3801.48554
3811.0675
3820.87227
3830.24756
3840.08551
3849.4851
3859.07352
3868.29224
3877.65272
3886.7071
3895.86103
3905.41789
3914.8265
3923.67312
3931.62635
3939.60206
3947.23365
3954.90166
3962.23383
3969.67494
3976.78795
3983.95858
)
;

boundaryField
{
    closed
    {
        type            calculated;
        value           nonuniform List<scalar> 0();
    }
    open
    {
        type            calculated;
        value           nonuniform List<scalar> 0();
    }
    sides
    {
        type            empty;
    }
    procBoundary4to3
    {
        type            processor;
        value           uniform 37.9541904;
    }
    procBoundary4to5
    {
        type            processor;
        value           uniform 3990.79828;
    }
}


// ************************************************************************* //
