/*--------------------------------*- C++ -*----------------------------------*\
| =========                 |                                                 |
| \\      /  F ield         | OpenFOAM: The Open Source CFD Toolbox           |
|  \\    /   O peration     | Version:  2306                                  |
|   \\  /    A nd           | Website:  www.openfoam.com                      |
|    \\/     M anipulation  |                                                 |
\*---------------------------------------------------------------------------*/
FoamFile
{
    version     2.0;
    format      ascii;
    arch        "LSB;label=32;scalar=64";
    class       volScalarField;
    location    "0.00168";
    object      prefDZ_T;
}
// * * * * * * * * * * * * * * * * * * * * * * * * * * * * * * * * * * * * * //

dimensions      [1 -1 -1 -1 0 0 0];

internalField   nonuniform List<scalar> 
531
(
-1.1980136e-09
-1.18792774e-09
-1.18794094e-09
-1.18356216e-09
-1.18325601e-09
-1.23204338e-09
-1.22822852e-09
-1.22987304e-09
-1.22740871e-09
-1.22762177e-09
-1.18931601e-09
-1.18649204e-09
-1.2296588e-09
-1.22880334e-09
-1.19089464e-09
-1.1831641e-09
-1.18338627e-09
-1.2312509e-09
-1.22778046e-09
-1.22885452e-09
-1.2266907e-09
-1.22677675e-09
-1.19488561e-09
-1.18914923e-09
-1.18658411e-09
-1.18646791e-09
-1.23126211e-09
-1.22767025e-09
-1.18839421e-09
-1.18706449e-09
-1.2312898e-09
-1.22753188e-09
-1.18803154e-09
-1.1875717e-09
-1.23181865e-09
-1.22708892e-09
-1.22858462e-09
-1.18954074e-09
-1.186917e-09
-1.23126957e-09
-1.22785619e-09
-1.22758797e-09
-1.2276241e-09
-1.19643084e-09
-1.18794356e-09
-1.18762508e-09
-1.18660029e-09
-1.18243927e-09
-1.18238379e-09
-1.23278416e-09
-1.22815138e-09
-1.22947368e-09
-1.22677249e-09
-1.22734272e-09
-1.19837144e-09
-1.18733742e-09
-1.18688528e-09
-1.22898899e-09
-1.22672622e-09
-1.19094417e-09
-1.18943443e-09
-1.22911733e-09
-1.22613164e-09
-1.20006304e-09
-1.19014786e-09
-1.18732364e-09
-1.18718865e-09
-1.23000821e-09
-1.22627976e-09
-1.22722809e-09
-1.19250208e-09
-1.18635302e-09
-1.18760579e-09
-1.18473559e-09
-1.18440844e-09
-1.23059368e-09
-1.22763377e-09
-1.22748728e-09
-1.22688658e-09
-1.19206199e-09
-1.19003638e-09
-1.22973297e-09
-1.22584779e-09
-1.21664517e-09
-1.19067063e-09
-1.18721004e-09
-1.18706871e-09
-1.22806312e-09
-1.22728662e-09
-1.19405135e-09
-1.18638418e-09
-1.18645282e-09
-1.22854578e-09
-1.22689504e-09
-1.18924195e-09
-1.18889684e-09
-1.2295265e-09
-1.22584186e-09
-1.22719537e-09
-1.20063061e-09
-1.18854971e-09
-1.18717455e-09
-1.18759208e-09
-1.22907286e-09
-1.19392282e-09
-1.18633373e-09
-1.22821146e-09
-1.22774908e-09
-1.19489803e-09
-1.18625648e-09
-1.18695955e-09
-1.22917124e-09
-1.22632888e-09
-1.22720751e-09
-1.2037017e-09
-1.18736063e-09
-1.18743067e-09
-1.22788985e-09
-1.22745943e-09
-1.19286159e-09
-1.18626199e-09
-1.1863796e-09
-1.22891561e-09
-1.22730258e-09
-1.18840422e-09
-1.18766391e-09
-1.23049677e-09
-1.22700614e-09
-1.22880421e-09
-1.22682158e-09
-1.21800564e-09
-1.18866889e-09
-1.1884642e-09
-1.18631525e-09
-1.18688382e-09
-1.22892649e-09
-1.2279761e-09
-1.19222639e-09
-1.18614948e-09
-1.18770275e-09
-1.22928531e-09
-1.20059422e-09
-1.18666996e-09
-1.22792378e-09
-1.22772916e-09
-1.19122143e-09
-1.18499593e-09
-1.18581664e-09
-1.22986096e-09
-1.22680868e-09
-1.22844824e-09
-1.22609098e-09
-1.22713808e-09
-1.19910038e-09
-1.18757938e-09
-1.1879457e-09
-1.22774896e-09
-1.22669218e-09
-1.2057756e-09
-1.1886194e-09
-1.18868005e-09
-1.18646089e-09
-1.18645263e-09
-1.22895957e-09
-1.22742873e-09
-1.1892673e-09
-1.18768182e-09
-1.22806199e-09
-1.22749824e-09
-1.19185415e-09
-1.18559677e-09
-1.18645311e-09
-1.22932229e-09
-1.22670553e-09
-1.22790669e-09
-1.22600694e-09
-1.22654643e-09
-1.1966137e-09
-1.18931372e-09
-1.18735499e-09
-1.18725909e-09
-1.22888838e-09
-1.22803218e-09
-1.18924347e-09
-1.18344242e-09
-1.18418448e-09
-1.22935626e-09
-1.22792192e-09
-1.22735922e-09
-1.22747206e-09
-1.19067637e-09
-1.18818359e-09
-1.22765349e-09
-1.22688049e-09
-1.19133191e-09
-1.18853913e-09
-1.18633665e-09
-1.18659343e-09
-1.22928724e-09
-1.22741781e-09
-1.22688609e-09
-1.22699022e-09
-1.19846085e-09
-1.18907023e-09
-1.18822319e-09
-1.18793665e-09
-1.22816349e-09
-1.2269875e-09
-1.19093259e-09
-1.18846397e-09
-1.18694298e-09
-1.18682837e-09
-1.22911569e-09
-1.2272764e-09
-1.18801826e-09
-1.18745091e-09
-1.22880832e-09
-1.22702619e-09
-1.18764573e-09
-1.18784485e-09
-1.22879379e-09
-1.22641211e-09
-1.22770295e-09
-1.18988074e-09
-1.18755868e-09
-1.22722274e-09
-1.22728933e-09
-1.19107396e-09
-1.18643845e-09
-1.18658587e-09
-1.22774725e-09
-1.22676288e-09
-1.18992922e-09
-1.18895139e-09
-1.22719174e-09
-1.22640631e-09
-1.19490847e-09
-1.18981079e-09
-1.18784275e-09
-1.18860196e-09
-1.22806328e-09
-1.19200666e-09
-1.18643753e-09
-1.22788354e-09
-1.22735084e-09
-1.18852157e-09
-1.18765676e-09
-1.22865422e-09
-1.22713218e-09
-1.18727106e-09
-1.1877253e-09
-1.22920061e-09
-1.2267846e-09
-1.22819535e-09
-1.18949675e-09
-1.18670143e-09
-1.22858034e-09
-1.22733353e-09
-1.18751074e-09
-1.18791746e-09
-1.22922731e-09
-1.22646163e-09
-1.22837611e-09
-1.19131538e-09
-1.18708301e-09
-1.18507267e-09
-1.18545944e-09
-1.23022458e-09
-1.22772483e-09
-1.22910874e-09
-1.18892365e-09
-1.18610846e-09
-1.22901736e-09
-1.22793263e-09
-1.22720554e-09
-1.2274778e-09
-1.19656862e-09
-1.18866045e-09
-1.18792635e-09
-1.18686805e-09
-1.18175242e-09
-1.18193894e-09
-1.23108366e-09
-1.22935608e-09
-1.22943678e-09
-1.22880416e-09
-1.22764843e-09
-1.22803206e-09
-1.19093111e-09
-1.18717136e-09
-1.22764662e-09
-1.22783992e-09
-1.19150918e-09
-1.18598077e-09
-1.1864971e-09
-1.22874977e-09
-1.22649569e-09
-1.22701421e-09
-1.19483574e-09
-1.18903719e-09
-1.18835199e-09
-1.18742629e-09
-1.18332027e-09
-1.18330136e-09
-1.23054292e-09
-1.22793746e-09
-1.22917735e-09
-1.22677996e-09
-1.22779881e-09
-1.19082348e-09
-1.18605656e-09
-1.18582668e-09
-1.22877485e-09
-1.22720197e-09
-1.1886047e-09
-1.18805412e-09
-1.229438e-09
-1.22633142e-09
-1.22740217e-09
-1.19016672e-09
-1.18758858e-09
-1.22767653e-09
-1.22753795e-09
-1.19324528e-09
-1.1859793e-09
-1.18633842e-09
-1.22866921e-09
-1.22615995e-09
-1.2269796e-09
-1.19223969e-09
-1.18644139e-09
-1.18623067e-09
-1.22765917e-09
-1.22715749e-09
-1.19306572e-09
-1.18559369e-09
-1.18541472e-09
-1.22730649e-09
-1.22665696e-09
-1.18873473e-09
-1.18609337e-09
-1.22692112e-09
-1.22648128e-09
-1.19179105e-09
-1.18383408e-09
-1.18357789e-09
-1.22658524e-09
-1.22589992e-09
-1.18593358e-09
-1.18260899e-09
-1.22588866e-09
-1.22571067e-09
-1.18497464e-09
-1.17822054e-09
-1.17872989e-09
-1.22553725e-09
-1.22358106e-09
-1.22274196e-09
-1.22203148e-09
-1.21982734e-09
-1.2204116e-09
-1.18209919e-09
-1.1757538e-09
-1.21669625e-09
-1.21869238e-09
-1.21249144e-09
-1.21662037e-09
-1.16964893e-09
-1.21475299e-09
-1.20430616e-09
-1.20869585e-09
-1.2002185e-09
-1.20222516e-09
-1.19564089e-09
-1.19569532e-09
-1.19071423e-09
-1.18937386e-09
-1.18559403e-09
-1.1834159e-09
-1.18052512e-09
-1.17810918e-09
-1.17609533e-09
-1.17495173e-09
-1.17409473e-09
-1.17011018e-09
-1.16653587e-09
-1.16180003e-09
-1.15775665e-09
-1.15244443e-09
-1.14771104e-09
-1.14193535e-09
-1.13635656e-09
-1.13041035e-09
-1.12496445e-09
-1.12111023e-09
-1.12022303e-09
-1.11506996e-09
-1.10911527e-09
-1.10164396e-09
-1.09375956e-09
-1.08439439e-09
-1.0751689e-09
-1.06255717e-09
-1.0512817e-09
-1.0371712e-09
-1.02629211e-09
-1.01215179e-09
-1.01246588e-09
-1.02126365e-09
-1.0088743e-09
-9.89431609e-10
-9.74592803e-10
-9.55876344e-10
-9.39341054e-10
-9.2049161e-10
-9.02676658e-10
-8.83144169e-10
-8.63854556e-10
-8.48472855e-10
-8.43526529e-10
-8.23504767e-10
-8.04044458e-10
-8.03046324e-10
-7.71421024e-10
-7.66231117e-10
-7.53051203e-10
-7.18456918e-10
-7.07202483e-10
-6.13926235e-10
-6.05827752e-10
-5.6531025e-10
-5.52040895e-10
-5.14455826e-10
-4.95557775e-10
-4.58055695e-10
-4.28962452e-10
-3.93990827e-10
-3.78543707e-10
-3.54435745e-10
-3.35335145e-10
-3.13857769e-10
-3.01419453e-10
-2.84518191e-10
-2.74592582e-10
-2.5987961e-10
-2.49859374e-10
-2.36646151e-10
-2.26622886e-10
-2.16007854e-10
-2.09140924e-10
-2.00887641e-10
-1.95498349e-10
-1.88544135e-10
-1.83852028e-10
-1.78057741e-10
-1.74056046e-10
-1.69368712e-10
-1.66229136e-10
-1.62431928e-10
-1.59733071e-10
-1.56420233e-10
-1.53902883e-10
-1.51067011e-10
-1.48751754e-10
-1.46249117e-10
-1.44073821e-10
-1.41861801e-10
-1.39753539e-10
-1.37646273e-10
-1.35797648e-10
-1.34367718e-10
-1.33395213e-10
-1.32167184e-10
-1.31298152e-10
-1.30202637e-10
-1.29349675e-10
-1.28349689e-10
-1.27557229e-10
-1.26665548e-10
-1.25722576e-10
-1.24730902e-10
-1.23746069e-10
-1.22868377e-10
-1.22143142e-10
-1.2142088e-10
-1.20743488e-10
-1.2010344e-10
-1.19496934e-10
-1.18902382e-10
-1.18328995e-10
-1.17772092e-10
-1.17220113e-10
-1.16691814e-10
-1.16157299e-10
-1.15681723e-10
-1.15193818e-10
-1.147012e-10
-1.1419569e-10
-1.13738799e-10
-1.13259328e-10
-1.12829126e-10
-1.12382877e-10
-1.11990623e-10
-1.11577448e-10
-1.11217165e-10
-1.10836877e-10
-1.10523059e-10
-1.10177361e-10
-1.09880777e-10
-1.09549729e-10
-1.09268909e-10
-1.0895159e-10
-1.08683221e-10
-1.08371695e-10
-1.08110691e-10
-1.07808923e-10
-1.07557966e-10
-1.07265713e-10
-1.07024174e-10
-1.06741167e-10
-1.06490337e-10
-1.06204209e-10
-1.05975835e-10
-1.05728937e-10
-1.0552508e-10
-1.05290469e-10
-1.05097714e-10
-1.04874763e-10
-1.04690192e-10
-1.04476257e-10
-1.04301417e-10
)
;

boundaryField
{
    closed
    {
        type            calculated;
        value           nonuniform List<scalar> 0();
    }
    open
    {
        type            calculated;
        value           nonuniform List<scalar> 0();
    }
    sides
    {
        type            empty;
    }
    procBoundary4to3
    {
        type            processor;
        value           uniform -1.22738692e-09;
    }
    procBoundary4to5
    {
        type            processor;
        value           uniform -1.04098571e-10;
    }
}


// ************************************************************************* //
