/*--------------------------------*- C++ -*----------------------------------*\
| =========                 |                                                 |
| \\      /  F ield         | OpenFOAM: The Open Source CFD Toolbox           |
|  \\    /   O peration     | Version:  2306                                  |
|   \\  /    A nd           | Website:  www.openfoam.com                      |
|    \\/     M anipulation  |                                                 |
\*---------------------------------------------------------------------------*/
FoamFile
{
    version     2.0;
    format      ascii;
    arch        "LSB;label=32;scalar=64";
    class       volScalarField;
    location    "0.00024";
    object      alpha;
}
// * * * * * * * * * * * * * * * * * * * * * * * * * * * * * * * * * * * * * //

dimensions      [1 -1 -1 0 0 0 0];

internalField   nonuniform List<scalar> 
530
(
3.60078244e-05
3.58632581e-05
3.58339319e-05
3.58338992e-05
3.5833887e-05
3.5833887e-05
3.5833887e-05
3.5833887e-05
3.5833887e-05
3.5833887e-05
3.5833887e-05
3.5833887e-05
3.5833887e-05
3.5833887e-05
3.5833887e-05
3.5833887e-05
3.5833887e-05
3.5833887e-05
3.5833887e-05
3.5833887e-05
3.5833887e-05
3.5833887e-05
3.5833887e-05
3.5833887e-05
3.5833887e-05
3.5833887e-05
3.5833887e-05
3.5833887e-05
3.5833887e-05
3.5833887e-05
3.5833887e-05
3.5833887e-05
3.5833887e-05
3.5833887e-05
3.5833887e-05
3.5833887e-05
3.5833887e-05
3.5833887e-05
3.5833887e-05
3.5833887e-05
3.5833887e-05
3.5833887e-05
3.5833887e-05
3.5833887e-05
3.5833887e-05
3.5833887e-05
3.5833887e-05
3.5833887e-05
3.5833887e-05
3.5833887e-05
3.5833887e-05
3.5833887e-05
3.5833887e-05
3.5833887e-05
3.5833887e-05
3.5833887e-05
3.5833887e-05
3.5833887e-05
3.5833887e-05
3.5833887e-05
3.5833887e-05
3.5833887e-05
3.5833887e-05
3.5833887e-05
3.5833887e-05
3.5833887e-05
3.5833887e-05
3.5833887e-05
3.5833887e-05
3.5833887e-05
3.5833887e-05
3.5833887e-05
3.5833887e-05
3.5833887e-05
3.5833887e-05
3.5833887e-05
3.5833887e-05
3.5833887e-05
3.5833887e-05
3.5833887e-05
3.5833887e-05
3.5833887e-05
3.5833887e-05
3.5833887e-05
3.5833887e-05
3.5833887e-05
3.5833887e-05
3.5833887e-05
3.5833887e-05
3.5833887e-05
3.5833887e-05
3.58338869e-05
3.58338868e-05
3.58338876e-05
3.58338888e-05
3.5833884e-05
3.5833877e-05
3.5833899e-05
3.58339308e-05
3.5833854e-05
3.58337428e-05
3.58339397e-05
3.58342298e-05
3.5833878e-05
3.58333445e-05
3.58337476e-05
3.5834457e-05
3.58341498e-05
3.58334056e-05
3.58335579e-05
3.58342709e-05
3.58342383e-05
3.58336096e-05
3.58335088e-05
3.5834024e-05
3.58343713e-05
3.58339458e-05
3.58332199e-05
3.58335092e-05
3.58347869e-05
3.58346954e-05
3.58328357e-05
3.58326489e-05
3.58348296e-05
3.5835593e-05
3.58333579e-05
3.5831804e-05
3.58336767e-05
3.58362167e-05
3.58351176e-05
3.58315878e-05
3.58318124e-05
3.58357246e-05
3.58363926e-05
3.58330877e-05
3.58311822e-05
3.58335113e-05
3.5836696e-05
3.58354918e-05
3.58311728e-05
3.58314219e-05
3.58361655e-05
3.58368106e-05
3.58325325e-05
3.58307751e-05
3.58342299e-05
3.58370484e-05
3.5834546e-05
3.58309901e-05
3.5832402e-05
3.58363914e-05
3.58359279e-05
3.58319468e-05
3.5831977e-05
3.58350028e-05
3.58354209e-05
3.58334372e-05
3.58328766e-05
3.58339804e-05
3.5834395e-05
3.58338476e-05
3.58337476e-05
3.58340852e-05
3.58338945e-05
3.5833395e-05
3.5833851e-05
3.58346112e-05
3.58340421e-05
3.58330622e-05
3.58336357e-05
3.58347336e-05
3.5834154e-05
3.58330132e-05
3.58336279e-05
3.58348905e-05
3.58342108e-05
3.5832704e-05
3.58333262e-05
3.58352315e-05
3.58348603e-05
3.58325431e-05
3.58326129e-05
3.58348937e-05
3.58352372e-05
3.58335194e-05
3.58326608e-05
3.58335806e-05
3.58348581e-05
3.58346463e-05
3.5833278e-05
3.58330939e-05
3.58340363e-05
3.58346167e-05
3.58340098e-05
3.58332418e-05
3.58336666e-05
3.58344686e-05
3.58341076e-05
3.58333295e-05
3.58337096e-05
3.58344806e-05
3.58340079e-05
3.58331874e-05
3.58338193e-05
3.5834771e-05
3.5833944e-05
3.58327583e-05
3.58337369e-05
3.58353226e-05
3.58342953e-05
3.58321557e-05
3.58330188e-05
3.58358885e-05
3.58354181e-05
3.58317631e-05
3.58318425e-05
3.58357793e-05
3.58363326e-05
3.58325809e-05
3.58312001e-05
3.58344444e-05
3.5836747e-05
3.58341645e-05
3.58310738e-05
3.58327888e-05
3.58365895e-05
3.58357007e-05
3.58314887e-05
3.58316962e-05
3.58358387e-05
3.5836105e-05
3.58326184e-05
3.58318085e-05
3.58345543e-05
3.58357821e-05
3.58337285e-05
3.58322644e-05
3.58336284e-05
3.58352417e-05
3.58344962e-05
3.58328152e-05
3.58330214e-05
3.58346624e-05
3.58347553e-05
3.58335977e-05
3.58330617e-05
3.5833726e-05
3.58346556e-05
3.5834422e-05
3.58332109e-05
3.58332249e-05
3.58343149e-05
3.5834522e-05
3.58337208e-05
3.58334145e-05
3.58338837e-05
3.5834111e-05
3.58339099e-05
3.58339026e-05
3.58340292e-05
3.58337234e-05
3.58334618e-05
3.58340532e-05
3.58345541e-05
3.58338631e-05
3.5833132e-05
3.58337264e-05
3.58345564e-05
3.58341349e-05
3.58334335e-05
3.5833704e-05
3.58341481e-05
3.58338974e-05
3.5833645e-05
3.58340882e-05
3.58342914e-05
3.58335349e-05
3.58332429e-05
3.58342405e-05
3.5834756e-05
3.58336922e-05
3.58328844e-05
3.58338181e-05
3.58349176e-05
3.58342586e-05
3.58329515e-05
3.58332382e-05
3.58346292e-05
3.58346005e-05
3.58335645e-05
3.58333104e-05
3.58336437e-05
3.58342371e-05
3.58343754e-05
3.58341294e-05
3.58332728e-05
3.58332009e-05
3.58343479e-05
3.58348762e-05
3.58337513e-05
3.58327551e-05
3.58336378e-05
3.58350067e-05
3.58344659e-05
3.58329362e-05
3.58331297e-05
3.58346012e-05
3.58345805e-05
3.58334658e-05
3.58333745e-05
3.58341211e-05
3.58342376e-05
3.5833692e-05
3.58336048e-05
3.58341383e-05
3.58342128e-05
3.58335636e-05
3.58334445e-05
3.5834244e-05
3.58344743e-05
3.58335499e-05
3.58331576e-05
3.58341655e-05
3.58347603e-05
3.58337045e-05
3.58328705e-05
3.58339188e-05
3.58350612e-05
3.5834075e-05
3.5832592e-05
3.58334013e-05
3.58352749e-05
3.58347489e-05
3.58324729e-05
3.58326459e-05
3.58352426e-05
3.58353574e-05
3.58328911e-05
3.58322139e-05
3.58343467e-05
3.58357697e-05
3.58342017e-05
3.58319193e-05
3.58325043e-05
3.58358498e-05
3.58358824e-05
3.58328248e-05
3.58315434e-05
3.58335562e-05
3.58363041e-05
3.58357463e-05
3.58319665e-05
3.58313626e-05
3.58342454e-05
3.58366748e-05
3.58354883e-05
3.58312093e-05
3.58312747e-05
3.58354699e-05
3.58370059e-05
3.58337589e-05
3.58306818e-05
3.58325925e-05
3.58370163e-05
3.58364086e-05
3.58311178e-05
3.5831029e-05
3.58357083e-05
3.58368697e-05
3.58330767e-05
3.58310564e-05
3.58338056e-05
3.58364641e-05
3.5834658e-05
3.5831748e-05
3.58326919e-05
3.58355868e-05
3.58352658e-05
3.58326072e-05
3.58326341e-05
3.58347442e-05
3.58349714e-05
3.58333676e-05
3.58329121e-05
3.58341242e-05
3.58348323e-05
3.58339858e-05
3.58329619e-05
3.58333539e-05
3.58347602e-05
3.58347095e-05
3.58333091e-05
3.58329318e-05
3.58340435e-05
3.58349114e-05
3.58341332e-05
3.58328466e-05
3.58332949e-05
3.58349424e-05
3.58347719e-05
3.58328381e-05
3.5832847e-05
3.58348163e-05
3.58350522e-05
3.5833144e-05
3.5832653e-05
3.5834397e-05
3.58351397e-05
3.58336379e-05
3.58327022e-05
3.58338936e-05
3.58349557e-05
3.58340831e-05
3.58329648e-05
3.58335346e-05
3.58346747e-05
3.58343674e-05
3.58332329e-05
3.58333124e-05
3.58343889e-05
3.58344556e-05
3.58336504e-05
3.58333667e-05
3.58338249e-05
3.58342803e-05
3.58341961e-05
3.58337458e-05
3.58335815e-05
3.58336489e-05
3.58340127e-05
3.58342938e-05
3.58341775e-05
3.58335037e-05
3.5833312e-05
3.58338255e-05
3.58345883e-05
3.58345073e-05
3.58334107e-05
3.58329137e-05
3.58336753e-05
3.58350567e-05
3.58348558e-05
3.58328355e-05
3.58325089e-05
3.58343721e-05
3.58354542e-05
3.58340733e-05
3.58323933e-05
3.58331639e-05
3.58351418e-05
3.58348495e-05
3.58329626e-05
3.58330322e-05
3.58345327e-05
3.58344965e-05
3.58333076e-05
3.58334026e-05
3.5834708e-05
3.58345232e-05
3.58326463e-05
3.58327388e-05
3.58355588e-05
3.58357151e-05
3.58322131e-05
3.5831325e-05
3.58350728e-05
3.58371485e-05
3.58337432e-05
3.58302901e-05
3.58326187e-05
3.58375323e-05
3.58367089e-05
3.58306385e-05
3.58306327e-05
3.58358246e-05
3.58371978e-05
3.58333316e-05
3.58309305e-05
3.58333728e-05
3.58363917e-05
3.58350742e-05
3.5831884e-05
3.58323498e-05
3.58355597e-05
3.58355021e-05
3.58325912e-05
3.5832244e-05
3.58347984e-05
3.5835674e-05
3.58334708e-05
3.58319779e-05
3.58336185e-05
3.5835837e-05
3.58349739e-05
3.58321034e-05
3.58322685e-05
3.58352081e-05
3.58356306e-05
3.583324e-05
3.58321864e-05
3.58340313e-05
3.5835583e-05
3.58340717e-05
3.58320884e-05
3.58333936e-05
3.58359776e-05
3.58348437e-05
3.58314721e-05
3.58322733e-05
3.58366235e-05
3.58362774e-05
3.58310183e-05
3.58310446e-05
3.58366609e-05
3.5837195e-05
3.58313224e-05
3.58300405e-05
3.58361781e-05
3.58387049e-05
3.58324124e-05
3.58281321e-05
3.58336782e-05
3.58406841e-05
3.58366015e-05
3.58271711e-05
3.58285009e-05
3.58400858e-05
3.58403298e-05
3.58304327e-05
3.58277403e-05
)
;

boundaryField
{
    closed
    {
        type            calculated;
        value           uniform 5.11945974e-05;
    }
    open
    {
        type            calculated;
        value           nonuniform List<scalar> 0();
    }
    sides
    {
        type            empty;
    }
    procBoundary0to1
    {
        type            processor;
        value           uniform 3.5834589e-05;
    }
}


// ************************************************************************* //
