/*--------------------------------*- C++ -*----------------------------------*\
| =========                 |                                                 |
| \\      /  F ield         | OpenFOAM: The Open Source CFD Toolbox           |
|  \\    /   O peration     | Version:  2306                                  |
|   \\  /    A nd           | Website:  www.openfoam.com                      |
|    \\/     M anipulation  |                                                 |
\*---------------------------------------------------------------------------*/
FoamFile
{
    version     2.0;
    format      ascii;
    arch        "LSB;label=32;scalar=64";
    class       volScalarField;
    location    "0.00024";
    object      prefDPV_T;
}
// * * * * * * * * * * * * * * * * * * * * * * * * * * * * * * * * * * * * * //

dimensions      [1 -1 -1 -1 0 0 0];

internalField   nonuniform List<scalar> 
530
(
5.98121329e-10
5.97583804e-10
5.97549715e-10
5.9754978e-10
5.97549775e-10
5.97549775e-10
5.97549775e-10
5.97549775e-10
5.97549775e-10
5.97549775e-10
5.97549775e-10
5.97549775e-10
5.97549775e-10
5.97549775e-10
5.97549775e-10
5.97549775e-10
5.97549775e-10
5.97549775e-10
5.97549775e-10
5.97549775e-10
5.97549775e-10
5.97549775e-10
5.97549775e-10
5.97549775e-10
5.97549775e-10
5.97549775e-10
5.97549775e-10
5.97549775e-10
5.97549775e-10
5.97549775e-10
5.97549775e-10
5.97549775e-10
5.97549775e-10
5.97549775e-10
5.97549775e-10
5.97549775e-10
5.97549775e-10
5.97549775e-10
5.97549775e-10
5.97549775e-10
5.97549775e-10
5.97549775e-10
5.97549775e-10
5.97549775e-10
5.97549775e-10
5.97549775e-10
5.97549775e-10
5.97549775e-10
5.97549775e-10
5.97549775e-10
5.97549775e-10
5.97549775e-10
5.97549775e-10
5.97549775e-10
5.97549775e-10
5.97549775e-10
5.97549775e-10
5.97549775e-10
5.97549775e-10
5.97549775e-10
5.97549775e-10
5.97549775e-10
5.97549775e-10
5.97549775e-10
5.97549775e-10
5.97549775e-10
5.97549775e-10
5.97549775e-10
5.97549775e-10
5.97549775e-10
5.97549775e-10
5.97549775e-10
5.97549775e-10
5.97549775e-10
5.97549775e-10
5.97549775e-10
5.97549775e-10
5.97549775e-10
5.97549775e-10
5.97549775e-10
5.97549775e-10
5.97549775e-10
5.97549775e-10
5.97549775e-10
5.97549775e-10
5.97549775e-10
5.97549775e-10
5.97549775e-10
5.97549774e-10
5.97549775e-10
5.97549775e-10
5.97549773e-10
5.97549769e-10
5.97549788e-10
5.97549818e-10
5.975497e-10
5.97549527e-10
5.97550071e-10
5.97550857e-10
5.97548958e-10
5.97546213e-10
5.97551076e-10
5.97558236e-10
5.97549551e-10
5.97536366e-10
5.97546331e-10
5.97563841e-10
5.97556264e-10
5.97537878e-10
5.97541642e-10
5.97559252e-10
5.97558448e-10
5.9754292e-10
5.97540429e-10
5.97553157e-10
5.97561726e-10
5.97551226e-10
5.97533282e-10
5.97540439e-10
5.97571971e-10
5.97569715e-10
5.97523769e-10
5.9751914e-10
5.97573024e-10
5.97591806e-10
5.97536695e-10
5.97498173e-10
5.97544578e-10
5.97607123e-10
5.97580114e-10
5.97492801e-10
5.97498383e-10
5.97595039e-10
5.97611437e-10
5.97530005e-10
5.97482709e-10
5.97540486e-10
5.97618876e-10
5.9758932e-10
5.97482475e-10
5.97488675e-10
5.97605865e-10
5.97621682e-10
5.97516253e-10
5.97472567e-10
5.97558237e-10
5.97627507e-10
5.97566035e-10
5.97477925e-10
5.97513022e-10
5.97611409e-10
5.97600038e-10
5.97501718e-10
5.97502471e-10
5.97577286e-10
5.97587575e-10
5.97538656e-10
5.9752478e-10
5.97552081e-10
5.97562309e-10
5.975488e-10
5.9754633e-10
5.97554667e-10
5.9754996e-10
5.97537614e-10
5.97548886e-10
5.97567643e-10
5.97553605e-10
5.9752938e-10
5.97543567e-10
5.97570657e-10
5.97556366e-10
5.97528164e-10
5.97543372e-10
5.97574523e-10
5.97557767e-10
5.97520506e-10
5.97535911e-10
5.97582919e-10
5.97573781e-10
5.9751652e-10
5.97518248e-10
5.97574603e-10
5.97583059e-10
5.9754069e-10
5.97519436e-10
5.97542204e-10
5.97573726e-10
5.97568509e-10
5.9753472e-10
5.97530164e-10
5.97553462e-10
5.97567778e-10
5.97552808e-10
5.97533825e-10
5.9754433e-10
5.97564126e-10
5.97555221e-10
5.97535994e-10
5.97545393e-10
5.97564423e-10
5.97552759e-10
5.97532477e-10
5.97548101e-10
5.97571579e-10
5.97551181e-10
5.97521851e-10
5.97546065e-10
5.97585157e-10
5.97559852e-10
5.97506907e-10
5.97528303e-10
5.97599067e-10
5.97587507e-10
5.97497157e-10
5.97499129e-10
5.97596385e-10
5.97609966e-10
5.97517454e-10
5.97483154e-10
5.97563528e-10
5.97620124e-10
5.97556624e-10
5.97480009e-10
5.97522609e-10
5.97616265e-10
5.97594455e-10
5.97490335e-10
5.97495495e-10
5.97597842e-10
5.9760438e-10
5.97518384e-10
5.97498285e-10
5.97566238e-10
5.97596451e-10
5.97545859e-10
5.97509604e-10
5.97543386e-10
5.97583167e-10
5.97564807e-10
5.97523261e-10
5.97528369e-10
5.97568904e-10
5.97571194e-10
5.97542626e-10
5.97529367e-10
5.97545797e-10
5.97568737e-10
5.97562978e-10
5.9753306e-10
5.97533407e-10
5.97560336e-10
5.97565445e-10
5.97545668e-10
5.97538097e-10
5.97549692e-10
5.97555305e-10
5.97550341e-10
5.97550159e-10
5.97553285e-10
5.97545734e-10
5.97539267e-10
5.97553879e-10
5.97566234e-10
5.97549184e-10
5.97531107e-10
5.97545808e-10
5.97566293e-10
5.97555895e-10
5.97538566e-10
5.97545253e-10
5.9755622e-10
5.97550031e-10
5.97543796e-10
5.97554742e-10
5.97559756e-10
5.97541075e-10
5.97533853e-10
5.975585e-10
5.9757121e-10
5.97544961e-10
5.97524977e-10
5.97548072e-10
5.97575192e-10
5.97558947e-10
5.97526638e-10
5.97533736e-10
5.97568087e-10
5.9756738e-10
5.97541804e-10
5.97535522e-10
5.97543763e-10
5.97558417e-10
5.97561828e-10
5.97555757e-10
5.97534593e-10
5.97532811e-10
5.97561151e-10
5.97574171e-10
5.97546421e-10
5.97521774e-10
5.97543617e-10
5.97577385e-10
5.97564062e-10
5.97526259e-10
5.9753105e-10
5.97567395e-10
5.97566887e-10
5.97539365e-10
5.97537108e-10
5.97555555e-10
5.97558429e-10
5.97544957e-10
5.97542801e-10
5.97555979e-10
5.97557816e-10
5.97541784e-10
5.9753884e-10
5.97558588e-10
5.97564268e-10
5.97541445e-10
5.9753174e-10
5.9755665e-10
5.97571316e-10
5.97545267e-10
5.9752463e-10
5.9755056e-10
5.97578725e-10
5.97554416e-10
5.9751773e-10
5.97537771e-10
5.97583984e-10
5.97571035e-10
5.97514779e-10
5.97519065e-10
5.9758319e-10
5.97586013e-10
5.97525142e-10
5.97508351e-10
5.97561118e-10
5.97596148e-10
5.9755754e-10
5.97501039e-10
5.97515556e-10
5.97598119e-10
5.97598916e-10
5.97523495e-10
5.97491696e-10
5.97541595e-10
5.9760927e-10
5.97595575e-10
5.97502208e-10
5.97487199e-10
5.97558613e-10
5.97618357e-10
5.97589233e-10
5.97483385e-10
5.97485011e-10
5.97588776e-10
5.97626465e-10
5.97546605e-10
5.97470243e-10
5.97517743e-10
5.9762672e-10
5.97611835e-10
5.97481105e-10
5.97478894e-10
5.97594637e-10
5.97623129e-10
5.97529736e-10
5.97479576e-10
5.97547764e-10
5.97613191e-10
5.97568797e-10
5.9749678e-10
5.97520209e-10
5.97591653e-10
5.97583761e-10
5.97518106e-10
5.97518772e-10
5.97570919e-10
5.97576515e-10
5.97536936e-10
5.97525662e-10
5.9755563e-10
5.97573091e-10
5.97552214e-10
5.97526896e-10
5.97536597e-10
5.97571313e-10
5.97570065e-10
5.97535488e-10
5.97526151e-10
5.97553638e-10
5.97575038e-10
5.97555853e-10
5.97524039e-10
5.97535138e-10
5.97575802e-10
5.97571601e-10
5.97523829e-10
5.97524051e-10
5.97572696e-10
5.97578504e-10
5.97531404e-10
5.97519243e-10
5.9756236e-10
5.97580658e-10
5.9754362e-10
5.97520461e-10
5.97549937e-10
5.97576129e-10
5.97554617e-10
5.97526966e-10
5.97541068e-10
5.97569208e-10
5.97561632e-10
5.97533604e-10
5.9753557e-10
5.97562162e-10
5.97563807e-10
5.97543928e-10
5.97536916e-10
5.97548239e-10
5.97559483e-10
5.97557406e-10
5.97546287e-10
5.97542225e-10
5.97543891e-10
5.97552879e-10
5.97559817e-10
5.97556947e-10
5.97540301e-10
5.97535561e-10
5.97548254e-10
5.97567078e-10
5.9756508e-10
5.97538003e-10
5.97525701e-10
5.97544542e-10
5.97578617e-10
5.9757367e-10
5.97523766e-10
5.97515672e-10
5.97561746e-10
5.97588395e-10
5.97554375e-10
5.97512804e-10
5.97531898e-10
5.97580711e-10
5.97573515e-10
5.97526911e-10
5.97528636e-10
5.97565706e-10
5.97564814e-10
5.97535451e-10
5.975378e-10
5.97570026e-10
5.97565472e-10
5.97519075e-10
5.97521366e-10
5.97590966e-10
5.97594805e-10
5.97508333e-10
5.9748626e-10
5.9757901e-10
5.97629955e-10
5.97546219e-10
5.97460475e-10
5.97518392e-10
5.97639348e-10
5.97619198e-10
5.97469166e-10
5.9746902e-10
5.97597492e-10
5.97631161e-10
5.97536041e-10
5.97476437e-10
5.97537065e-10
5.97611411e-10
5.97579047e-10
5.97500158e-10
5.97511726e-10
5.97590987e-10
5.97589572e-10
5.97517709e-10
5.97509097e-10
5.97572255e-10
5.97593796e-10
5.97539489e-10
5.97502493e-10
5.97543139e-10
5.97597802e-10
5.97576578e-10
5.9750561e-10
5.97509708e-10
5.97582341e-10
5.97592731e-10
5.97533779e-10
5.97507667e-10
5.97553336e-10
5.97591558e-10
5.97554335e-10
5.97505234e-10
5.97537579e-10
5.97601251e-10
5.97573368e-10
5.97489919e-10
5.97509825e-10
5.97617098e-10
5.97608611e-10
5.97478627e-10
5.97479279e-10
5.97618012e-10
5.97631085e-10
5.97486194e-10
5.97454224e-10
5.97606172e-10
5.97667948e-10
5.9751327e-10
5.97406428e-10
5.97544606e-10
5.97716068e-10
5.97616557e-10
5.97382277e-10
5.97415717e-10
5.97701554e-10
5.97707482e-10
5.97464007e-10
5.97396586e-10
)
;

boundaryField
{
    closed
    {
        type            calculated;
        value           uniform 7.29539621e-10;
    }
    open
    {
        type            calculated;
        value           nonuniform List<scalar> 0();
    }
    sides
    {
        type            empty;
    }
    procBoundary0to1
    {
        type            processor;
        value           uniform 5.97567079e-10;
    }
}


// ************************************************************************* //
