/*--------------------------------*- C++ -*----------------------------------*\
| =========                 |                                                 |
| \\      /  F ield         | OpenFOAM: The Open Source CFD Toolbox           |
|  \\    /   O peration     | Version:  2306                                  |
|   \\  /    A nd           | Website:  www.openfoam.com                      |
|    \\/     M anipulation  |                                                 |
\*---------------------------------------------------------------------------*/
FoamFile
{
    version     2.0;
    format      ascii;
    arch        "LSB;label=32;scalar=64";
    class       volScalarField;
    location    "0.00184";
    object      p;
}
// * * * * * * * * * * * * * * * * * * * * * * * * * * * * * * * * * * * * * //

dimensions      [1 -1 -2 0 0 0 0];

internalField   nonuniform List<scalar> 
530
(
101424.873
101424.867
101424.873
101424.854
101424.858
101424.914
101425.022
101425.15
101424.418
101424.274
101424.2
101424.145
101424.071
101423.957
101423.896
101423.87
101423.824
101423.75
101423.687
101423.652
101423.601
101423.528
101423.438
101423.27
101423.109
101422.991
101422.876
101422.812
101422.806
101422.833
101421.964
101421.68
101421.454
101421.237
101420.989
101420.682
101420.362
101420.052
101419.71
101419.325
101418.985
101419.547
101419.329
101419.098
101419.516
101419.25
101418.948
101418.639
101418.359
101418.09
101417.844
101417.606
101417.351
101417.088
101416.776
101416.422
101416.077
101415.753
101415.441
101415.904
101415.711
101415.534
101415.352
101415.174
101414.983
101414.74
101414.485
101414.234
101413.978
101413.73
101414.215
101414.086
101413.978
101413.897
101413.793
101413.656
101413.542
101413.434
101413.133
101412.818
101412.56
101413.079
101413.005
101412.981
101412.979
101413.015
101412.185
101411.936
101411.765
101411.61
101411.452
101411.281
101411.14
101411.022
101410.937
101410.886
101410.835
101410.774
101410.639
101410.509
101410.395
101409.811
101409.875
101409.891
101409.79
101409.685
101410.116
101409.917
101409.665
101409.399
101409.162
101408.908
101408.523
101408.107
101408.14
101408.148
101408.056
101407.946
101408.504
101408.463
101408.379
101408.297
101408.269
101408.228
101408.153
101408.1
101408.065
101408.019
101407.948
101407.864
101407.796
101407.718
101407.607
101407.493
101407.393
101407.308
101407.221
101407.127
101406.991
101406.894
101406.807
101406.683
101406.556
101406.474
101406.386
101406.252
101406.156
101406.083
101405.988
101405.857
101405.77
101405.708
101405.623
101405.5
101405.426
101405.383
101405.317
101405.229
101405.16
101405.099
101405.032
101404.983
101404.955
101404.904
101404.858
101404.835
101404.829
101404.751
101404.694
101405.141
101405.027
101404.89
101404.776
101404.724
101404.685
101404.601
101404.565
101404.572
101404.56
101404.506
101404.502
101404.534
101404.547
101404.536
101404.545
101404.564
101404.607
101404.678
101404.758
101404.875
101405.021
101404.441
101404.358
101404.304
101404.206
101404.129
101404.083
101404.022
101403.913
101403.835
101403.801
101403.824
101403.906
101403.901
101403.923
101403.975
101403.982
101403.979
101404
101404.019
101403.994
101403.969
101403.963
101403.96
101403.967
101403.967
101403.931
101403.903
101403.872
101403.857
101403.862
101403.844
101403.794
101403.771
101403.763
101403.739
101403.72
101403.711
101403.721
101403.687
101403.667
101404.087
101404.01
101403.935
101403.899
101403.935
101403.992
101404.027
101404.116
101404.242
101404.379
101403.695
101403.513
101403.328
101403.089
101403.139
101403.13
101403.093
101403.027
101402.946
101402.898
101402.833
101402.723
101402.636
101402.566
101402.479
101402.393
101402.314
101402.237
101402.121
101402.007
101401.883
101401.736
101401.584
101401.424
101401.263
101401.652
101401.558
101401.486
101401.443
101401.377
101401.281
101401.21
101401.154
101401.08
101401.008
101400.948
101400.896
101400.82
101400.746
101400.701
101400.625
101400.514
101400.398
101400.292
101400.183
101400.026
101399.879
101400.14
101399.964
101399.789
101399.609
101399.478
101399.376
101399.264
101399.126
101399.016
101398.92
101398.805
101398.677
101398.539
101398.328
101398.103
101397.89
101397.668
101397.435
101397.187
101396.94
101396.66
101396.417
101396.863
101396.789
101396.751
101396.731
101396.717
101395.966
101395.678
101395.445
101395.217
101394.97
101394.68
101394.407
101394.116
101393.794
101393.483
101393.749
101393.526
101393.297
101393.1
101392.902
101392.768
101392.644
101392.497
101392.369
101392.215
101392.032
101391.881
101391.73
101391.552
101391.351
101391.153
101390.952
101390.757
101390.566
101390.361
101390.169
101389.958
101389.723
101389.513
101389.292
101389.084
101388.883
101388.638
101388.405
101388.583
101388.287
101387.978
101387.696
101387.463
101387.232
101386.971
101386.738
101386.505
101386.282
101386.065
101385.827
101385.599
101385.393
101385.181
101384.657
101384.532
101384.409
101384.287
101383.617
101383.324
101383.057
101382.84
101382.666
101382.468
101382.254
101382.059
101381.878
101381.693
101381.517
101381.325
101381.138
101380.969
101380.82
101380.664
101380.527
101380.389
101379.659
101379.347
101379.039
101378.35
101378.168
101377.963
101377.742
101377.497
101376.907
101376.764
101376.606
101376.415
101376.212
101376.011
101375.803
101375.614
101375.468
101375.253
101375.031
101374.765
101374.484
101374.652
101374.448
101374.258
101374.066
101373.852
101373.623
101373.415
101373.198
101372.989
101372.788
101372.578
101372.376
101372.201
101372
101371.781
101371.544
101371.333
101371.119
101370.891
101370.657
101370.453
101370.251
101370.045
101369.845
101369.678
101369.52
101369.378
101368.818
101368.559
101368.327
101368.09
101367.877
101367.693
101367.469
101367.265
101367.065
101366.85
101366.624
101366.423
101366.219
101366.002
101365.776
101365.569
101365.353
101365.145
101364.948
101364.746
101364.562
101364.389
101364.222
101364.071
101363.933
101363.813
101363.713
101363.202
101363.002
101362.831
101362.631
101362.446
101362.518
101362.302
101362.08
101361.865
101361.642
101361.424
101361.241
101361.068
101360.883
101360.688
101360.519
101360.361
101360.191
101360.02
101359.861
101359.703
101359.555
101359.421
101359.288
101359.149
101358.996
101358.84
101358.706
101358.574
101358.432
101358.287
101358.153
101358.019
101357.895
101357.778
101357.665
101357.547
101357.418
101357.311
101357.217
101357.103
101356.994
101356.905
101356.805
101356.708
101356.633
101356.552
101356.466
101356.387
101356.328
101356.282
101356.242
101356.208
101356.169
101356.128
101356.109
101356.111
101356.098
101356.09
101356.088
101356.091
101356.092
101356.089
101356.082
)
;

boundaryField
{
    closed
    {
        type            zeroGradient;
    }
    open
    {
        type            waveTransmissive;
        gamma           1.25;
        fieldInf        101325;
        lInf            1;
        value           nonuniform List<scalar> 0();
    }
    sides
    {
        type            empty;
    }
    procBoundary2to1
    {
        type            processor;
        value           uniform 101424.888;
    }
    procBoundary2to3
    {
        type            processor;
        value           uniform 101356.082;
    }
}


// ************************************************************************* //
