/*--------------------------------*- C++ -*----------------------------------*\
| =========                 |                                                 |
| \\      /  F ield         | OpenFOAM: The Open Source CFD Toolbox           |
|  \\    /   O peration     | Version:  2306                                  |
|   \\  /    A nd           | Website:  www.openfoam.com                      |
|    \\/     M anipulation  |                                                 |
\*---------------------------------------------------------------------------*/
FoamFile
{
    version     2.0;
    format      ascii;
    arch        "LSB;label=32;scalar=64";
    class       volScalarField;
    location    "0.00136";
    object      H;
}
// * * * * * * * * * * * * * * * * * * * * * * * * * * * * * * * * * * * * * //

dimensions      [0 0 0 0 0 0 0];

internalField   nonuniform List<scalar> 
530
(
1.3960265e-08
2.19214353e-08
2.22867265e-08
2.22516243e-08
2.22483123e-08
2.22482515e-08
2.22482495e-08
2.22482494e-08
2.22482494e-08
2.22482494e-08
2.22482494e-08
2.22482494e-08
2.22482494e-08
2.22482494e-08
2.22482494e-08
2.22482494e-08
2.22482494e-08
2.22482494e-08
2.22482494e-08
2.22482494e-08
2.22482494e-08
2.22482494e-08
2.22482494e-08
2.22482494e-08
2.22482494e-08
2.22482494e-08
2.22482494e-08
2.22482494e-08
2.22482494e-08
2.22482494e-08
2.22482494e-08
2.22482494e-08
2.22482494e-08
2.22482494e-08
2.22482494e-08
2.22482494e-08
2.22482494e-08
2.22482494e-08
2.22482494e-08
2.22482494e-08
2.22482494e-08
2.22482494e-08
2.22482494e-08
2.22482494e-08
2.22482494e-08
2.22482494e-08
2.22482494e-08
2.22482494e-08
2.22482494e-08
2.22482494e-08
2.22482494e-08
2.22482494e-08
2.22482494e-08
2.22482494e-08
2.22482494e-08
2.22482494e-08
2.22482494e-08
2.22482494e-08
2.22482494e-08
2.22482494e-08
2.22482494e-08
2.22482494e-08
2.22482495e-08
2.22482497e-08
2.22482499e-08
2.22482514e-08
2.22482521e-08
2.22482615e-08
2.22482565e-08
2.22483296e-08
2.22483689e-08
2.22481228e-08
2.22482982e-08
2.22514239e-08
2.22509393e-08
2.22329198e-08
2.22150742e-08
2.22949069e-08
2.25669246e-08
2.23892065e-08
2.10161401e-08
2.10633764e-08
2.49504503e-08
2.49341911e-08
2.06885741e-08
2.03959301e-08
3.05907302e-08
4.07436415e-08
2.77445166e-08
7.2019447e-10
1.31323194e-09
5.00068258e-09
3.57478795e-08
5.03174026e-08
4.19180819e-08
1.19396831e-09
1.33058912e-09
4.54062347e-09
3.46380893e-08
5.16013376e-08
4.58932783e-08
5.25244643e-10
1.17762483e-09
9.92411653e-10
1.21595263e-09
1.5269589e-08
3.85013592e-08
4.27690086e-08
5.21148366e-08
4.56579312e-08
4.42642087e-10
1.31470032e-09
6.56459708e-10
3.60584282e-08
3.75268413e-08
4.98081743e-10
1.3753055e-09
1.02638379e-09
3.1029006e-08
4.36101012e-08
4.26235325e-08
4.3302846e-08
5.39591707e-08
5.22768041e-08
8.03486802e-10
1.17403266e-09
6.953654e-10
1.25486389e-09
9.52769669e-10
3.50895668e-08
3.54331785e-08
8.53601917e-10
1.35650566e-09
1.66019866e-08
3.79057495e-08
4.17483987e-08
5.05980785e-08
4.97613548e-08
6.7921231e-10
8.33895018e-10
4.03473207e-08
4.09306115e-08
7.60664802e-10
9.70816148e-10
3.92026995e-08
4.38249934e-08
3.53429982e-09
1.15513535e-09
9.86099996e-10
1.2001642e-09
1.65111226e-08
3.89441027e-08
4.16719243e-08
5.13418409e-08
5.12559095e-08
1.38663451e-09
9.23726429e-10
4.05041256e-08
4.32819492e-08
3.2474801e-09
1.26420297e-09
1.56965014e-09
3.91229202e-08
4.10217192e-08
6.3487292e-10
8.09886429e-10
4.05384886e-08
4.12461836e-08
6.80406757e-10
8.9619479e-10
3.86202125e-08
4.17563213e-08
4.58127886e-10
1.24091594e-09
1.50171842e-08
4.19283079e-08
4.18407762e-08
7.96159445e-10
1.09891147e-09
2.86037459e-08
4.23944705e-08
4.83182049e-08
4.70305183e-08
6.62928948e-10
5.21419391e-10
4.20361892e-08
3.44245733e-08
8.5966559e-10
9.77513124e-09
4.0352682e-08
2.98616912e-08
1.01586271e-09
1.17683424e-09
2.87816184e-08
4.7942282e-08
4.03716655e-08
6.85239891e-10
4.99752328e-09
4.01373832e-08
3.22140306e-08
9.27949271e-10
1.26261363e-09
2.50863745e-08
4.52285791e-08
3.52239408e-08
8.34683649e-10
9.46944337e-10
2.61806761e-08
4.49069207e-08
4.59954558e-08
2.48195639e-08
1.13842432e-08
3.57103242e-08
3.21251204e-08
8.90567723e-10
1.62968591e-08
4.00801712e-08
1.90908035e-08
1.09264743e-09
1.96400277e-08
3.7687183e-08
2.46754588e-08
1.06362133e-09
1.14991178e-09
1.92720444e-08
3.92339973e-08
4.52777339e-08
4.02223774e-08
6.18607468e-10
1.2782678e-09
1.25830042e-08
4.00215644e-08
4.90609808e-08
3.22899866e-08
7.78816545e-10
1.94495313e-08
4.06130484e-08
1.37055458e-08
1.11913485e-09
2.39762629e-08
3.97290234e-08
1.87145286e-08
1.16212736e-09
8.67837432e-10
3.24870288e-08
4.8514119e-08
3.8172519e-08
6.51700366e-10
1.60677293e-08
4.23447994e-08
1.71385344e-08
1.05632344e-09
2.58118173e-08
4.16986422e-08
1.3499168e-08
1.17607127e-09
4.88282371e-09
3.54605356e-08
4.76520188e-08
3.29536064e-08
7.59073809e-10
2.07620431e-08
4.15508813e-08
1.44914601e-08
1.17464539e-09
7.43521015e-10
3.38049341e-08
4.77534861e-08
3.24574931e-08
7.85528181e-10
2.21598639e-08
3.97571416e-08
5.20575465e-09
1.25118693e-09
1.75468263e-08
3.13511758e-08
4.66362908e-08
4.81920629e-08
1.85321389e-08
1.0402459e-09
7.61610223e-09
3.67427673e-08
4.51340774e-08
3.28853598e-08
8.68118556e-10
1.20307965e-09
2.55731254e-08
4.90256657e-08
4.75563191e-08
5.89777539e-10
1.05550305e-09
1.0291553e-09
1.03777715e-09
2.93252454e-08
5.18759407e-08
4.34508639e-08
6.65039106e-10
9.52435787e-10
3.46649912e-08
5.1538403e-08
3.51099976e-08
6.95280039e-10
2.18614811e-08
4.28779814e-08
7.95696976e-09
1.15440086e-09
1.19879602e-08
3.8167127e-08
4.71198872e-08
3.06269826e-08
8.19597521e-10
2.37513479e-08
4.24438975e-08
6.13886456e-09
1.1506851e-09
1.28492947e-08
4.00534895e-08
4.71781004e-08
2.93028555e-08
8.88545545e-10
1.1440768e-09
3.47363154e-08
4.77658269e-08
1.91966186e-08
1.02602057e-09
1.33449424e-08
3.59321009e-08
3.96293847e-08
4.97790729e-08
4.86071781e-08
4.55311902e-10
1.23145386e-09
1.03511591e-09
1.29265137e-09
2.46115836e-08
3.85397037e-08
2.14754844e-09
2.82063365e-09
5.10290834e-08
2.89571153e-08
8.16788697e-10
2.84081181e-08
4.51257565e-08
2.41208927e-09
1.1343305e-09
1.59518107e-08
4.26054886e-08
4.79216606e-08
2.5042894e-08
9.44242993e-10
2.84423791e-08
4.24576891e-08
2.05903092e-09
1.24417549e-09
1.29599608e-08
3.64267221e-08
4.3721572e-08
3.01865313e-08
9.46227603e-10
1.32578036e-09
2.87606533e-08
4.22554547e-08
1.44017745e-08
1.19209514e-09
4.39025348e-09
2.98599557e-08
4.06728681e-08
4.07307037e-08
4.47808469e-08
4.91150541e-08
3.10337596e-08
9.31237797e-10
1.33233097e-09
2.55816976e-08
4.09486663e-08
1.21589237e-08
1.05177095e-09
1.12250715e-09
1.13521458e-09
2.09465736e-08
4.16828668e-08
4.22639194e-08
4.42717916e-08
4.98969336e-08
3.33433417e-08
8.25726295e-10
2.9037284e-08
4.31690527e-08
7.45385792e-10
1.23837158e-09
1.13491369e-09
3.21424464e-08
4.20120518e-08
6.09886893e-10
1.24066303e-09
3.33666942e-08
4.0602657e-08
3.89065805e-10
1.3081433e-09
2.16759365e-08
3.42189201e-08
4.37920349e-08
4.66080233e-08
2.27241462e-08
9.7959639e-10
2.86650954e-08
4.49843146e-08
5.39664851e-09
1.1536661e-09
3.70883653e-08
3.43262258e-08
1.02576276e-09
1.13422873e-09
3.29082292e-08
5.1921917e-08
4.23920634e-08
5.0342526e-10
1.31135512e-09
9.39520715e-10
1.33185069e-09
1.29469011e-09
2.88566507e-08
4.37791971e-08
4.35309669e-08
4.64485617e-08
5.19475648e-08
3.59295132e-08
8.46438466e-10
1.41143102e-09
2.48208728e-08
3.76928489e-08
4.4201713e-10
1.3385859e-09
1.93445514e-08
3.20207648e-08
4.56998235e-08
4.65215257e-08
1.50132831e-08
1.05530741e-09
2.51295471e-08
4.37723659e-08
2.65942248e-08
9.1563228e-10
1.3734233e-09
1.28003483e-09
3.4092153e-08
4.88454243e-08
2.36271971e-08
8.95625364e-10
6.82876154e-09
4.9019086e-08
5.00530435e-08
4.39077096e-09
1.03561932e-09
1.78880875e-08
4.97955217e-08
4.99277734e-08
1.59281029e-09
1.05248834e-09
1.75434019e-08
4.92759682e-08
4.89545655e-08
6.81877224e-10
1.19946222e-09
2.38113567e-08
3.54542575e-08
5.16845771e-08
5.15389589e-08
9.6188771e-10
1.19284313e-09
1.14302541e-09
2.99405695e-08
3.81089746e-08
5.0633644e-10
1.32863282e-09
1.76134716e-08
3.09270351e-08
4.76066448e-08
4.72503617e-08
4.71964824e-10
2.19574615e-08
4.88410611e-08
3.55812321e-10
1.14642216e-09
3.5005586e-08
4.28376236e-08
4.38783929e-10
1.20606178e-09
3.38462562e-08
4.26649574e-08
4.59906353e-10
1.13810485e-09
1.85812334e-08
4.85111373e-08
4.89170111e-08
9.86718107e-09
1.10900001e-09
3.40352034e-08
4.39216611e-08
4.55665139e-10
1.19266673e-09
3.45840053e-08
4.32990018e-08
4.80107793e-10
1.12581789e-09
1.95470731e-08
4.87111491e-08
4.89046785e-08
8.5106288e-09
1.112137e-09
3.40595208e-08
4.35773989e-08
4.8558877e-10
1.19190259e-09
3.45287928e-08
4.3239472e-08
5.10273218e-10
1.14633118e-09
1.99918364e-08
4.70179058e-08
4.8396176e-08
1.54159961e-08
1.08262335e-09
3.31989404e-08
4.40790115e-08
4.95398443e-10
1.21899202e-09
3.57901761e-08
4.27416965e-08
5.00008137e-10
)
;

boundaryField
{
    closed
    {
        type            calculated;
        value           uniform 2.32369472e-12;
    }
    open
    {
        type            calculated;
        value           nonuniform List<scalar> 0();
    }
    sides
    {
        type            empty;
    }
    procBoundary0to1
    {
        type            processor;
        value           uniform 1.22138558e-09;
    }
}


// ************************************************************************* //
