/*--------------------------------*- C++ -*----------------------------------*\
| =========                 |                                                 |
| \\      /  F ield         | OpenFOAM: The Open Source CFD Toolbox           |
|  \\    /   O peration     | Version:  2306                                  |
|   \\  /    A nd           | Website:  www.openfoam.com                      |
|    \\/     M anipulation  |                                                 |
\*---------------------------------------------------------------------------*/
FoamFile
{
    version     2.0;
    format      ascii;
    arch        "LSB;label=32;scalar=64";
    class       volScalarField;
    location    "0.00184";
    object      alpha;
}
// * * * * * * * * * * * * * * * * * * * * * * * * * * * * * * * * * * * * * //

dimensions      [1 -1 -1 0 0 0 0];

internalField   nonuniform List<scalar> 
530
(
3.9078229e-05
3.63507595e-05
3.58484737e-05
3.58350794e-05
3.58339558e-05
3.58338923e-05
3.58338873e-05
3.5833887e-05
3.5833887e-05
3.5833887e-05
3.5833887e-05
3.5833887e-05
3.5833887e-05
3.5833887e-05
3.5833887e-05
3.5833887e-05
3.5833887e-05
3.5833887e-05
3.5833887e-05
3.5833887e-05
3.5833887e-05
3.5833887e-05
3.5833887e-05
3.5833887e-05
3.5833887e-05
3.5833887e-05
3.5833887e-05
3.5833887e-05
3.5833887e-05
3.5833887e-05
3.5833887e-05
3.5833887e-05
3.5833887e-05
3.5833887e-05
3.5833887e-05
3.5833887e-05
3.5833887e-05
3.5833887e-05
3.5833887e-05
3.5833887e-05
3.5833887e-05
3.5833887e-05
3.5833887e-05
3.5833887e-05
3.5833887e-05
3.5833887e-05
3.5833887e-05
3.5833887e-05
3.5833887e-05
3.5833887e-05
3.5833887e-05
3.5833887e-05
3.5833887e-05
3.5833887e-05
3.5833887e-05
3.5833887e-05
3.5833887e-05
3.5833887e-05
3.5833887e-05
3.5833887e-05
3.58338871e-05
3.58338872e-05
3.58338875e-05
3.58338883e-05
3.58338898e-05
3.58338935e-05
3.58338977e-05
3.5833914e-05
3.58339322e-05
3.58339936e-05
3.58340193e-05
3.5834158e-05
3.58343602e-05
3.58345544e-05
3.58347105e-05
3.58353034e-05
3.5835762e-05
3.58367144e-05
3.58371961e-05
3.58374841e-05
3.58374314e-05
3.58383873e-05
3.58443885e-05
3.58730001e-05
3.5874632e-05
3.57624201e-05
3.57446028e-05
3.57295511e-05
3.67660608e-05
3.68429843e-05
3.58773593e-05
3.54742454e-05
3.54282736e-05
3.53938203e-05
3.53098924e-05
3.57629741e-05
3.68089536e-05
3.68548439e-05
3.68014548e-05
3.6845929e-05
3.67983665e-05
3.58212184e-05
3.54294972e-05
3.53868808e-05
3.5327547e-05
3.52919699e-05
3.53160146e-05
3.50719012e-05
3.5566929e-05
3.68349647e-05
3.68196508e-05
3.68078584e-05
3.6821597e-05
3.68193081e-05
3.68119877e-05
3.57101172e-05
3.51537218e-05
3.52842548e-05
3.52544173e-05
3.50062091e-05
3.54239345e-05
3.68133823e-05
3.68254679e-05
3.67634079e-05
3.68375409e-05
3.67695573e-05
3.68377538e-05
3.68157249e-05
3.55373919e-05
3.51102055e-05
3.5288151e-05
3.53083943e-05
3.51761548e-05
3.55240997e-05
3.68286717e-05
3.68385888e-05
3.58488715e-05
3.55351665e-05
3.5293351e-05
3.57137358e-05
3.68119152e-05
3.68319735e-05
3.6835058e-05
3.68410744e-05
3.56906446e-05
3.47773657e-05
3.5080756e-05
3.67707856e-05
3.68110044e-05
3.58172342e-05
3.52776095e-05
3.53353925e-05
3.67551909e-05
3.68492443e-05
3.57291311e-05
3.5688617e-05
3.66404019e-05
3.68201562e-05
3.58586177e-05
3.53430149e-05
3.53539358e-05
3.66818887e-05
3.68063946e-05
3.58896904e-05
3.52266301e-05
3.52028924e-05
3.65515938e-05
3.67896144e-05
3.67946593e-05
3.663104e-05
3.55703677e-05
3.53078665e-05
3.62212223e-05
3.67914378e-05
3.60285093e-05
3.54467161e-05
3.53322675e-05
3.62822721e-05
3.68111926e-05
3.6106848e-05
3.56816832e-05
3.5464239e-05
3.54346333e-05
3.51545719e-05
3.51056557e-05
3.60585709e-05
3.6811379e-05
3.58083068e-05
3.55426246e-05
3.57553269e-05
3.67397754e-05
3.68476279e-05
3.58316732e-05
3.56459137e-05
3.60118019e-05
3.67877296e-05
3.6816799e-05
3.59546251e-05
3.55328162e-05
3.51968146e-05
3.5151927e-05
3.59592133e-05
3.67971772e-05
3.58045485e-05
3.55142292e-05
3.60242912e-05
3.68095138e-05
3.5807241e-05
3.55376862e-05
3.60510776e-05
3.68138499e-05
3.58011322e-05
3.55332443e-05
3.60754424e-05
3.68188743e-05
3.57910346e-05
3.55482359e-05
3.61212869e-05
3.67993504e-05
3.58594542e-05
3.51278771e-05
3.50259723e-05
3.61764898e-05
3.68212393e-05
3.57744268e-05
3.55159833e-05
3.61788967e-05
3.68052724e-05
3.58240265e-05
3.50482018e-05
3.49863935e-05
3.6235865e-05
3.682258e-05
3.57502579e-05
3.54244067e-05
3.61935744e-05
3.68314608e-05
3.57345675e-05
3.53990027e-05
3.62183739e-05
3.68309994e-05
3.57321628e-05
3.54032583e-05
3.6255609e-05
3.68344555e-05
3.57316772e-05
3.54224776e-05
3.63043554e-05
3.68362234e-05
3.57342178e-05
3.54589115e-05
3.63787641e-05
3.68068936e-05
3.5783119e-05
3.49852426e-05
3.50192048e-05
3.64914601e-05
3.6834213e-05
3.57549998e-05
3.5484209e-05
3.64346534e-05
3.68436003e-05
3.57459656e-05
3.5493203e-05
3.65026534e-05
3.68030997e-05
3.5786483e-05
3.50009725e-05
3.50943134e-05
3.67592475e-05
3.6839345e-05
3.57721689e-05
3.55168813e-05
3.65777395e-05
3.68112849e-05
3.5779538e-05
3.49960899e-05
3.50821012e-05
3.68087197e-05
3.68425505e-05
3.57720914e-05
3.54926257e-05
3.65998003e-05
3.68536082e-05
3.57664743e-05
3.5508115e-05
3.66987316e-05
3.68119171e-05
3.57886658e-05
3.50898317e-05
3.51868974e-05
3.68208802e-05
3.68570119e-05
3.57674404e-05
3.5549591e-05
3.67545861e-05
3.68272119e-05
3.57986477e-05
3.5383004e-05
3.54220455e-05
3.51442296e-05
3.51467549e-05
3.67927905e-05
3.68447875e-05
3.57720034e-05
3.55515327e-05
3.67656876e-05
3.68176014e-05
3.58124992e-05
3.52214935e-05
3.52672051e-05
3.68220895e-05
3.68167773e-05
3.58235098e-05
3.52469094e-05
3.52976591e-05
3.68245228e-05
3.68185398e-05
3.58294452e-05
3.5281139e-05
3.53528096e-05
3.68220778e-05
3.68122619e-05
3.58443094e-05
3.52108864e-05
3.52112637e-05
3.67858441e-05
3.68024696e-05
3.60534814e-05
3.54488378e-05
3.54443092e-05
3.67892324e-05
3.68303884e-05
3.58508606e-05
3.55313204e-05
3.52520726e-05
3.52538499e-05
3.67749009e-05
3.68476345e-05
3.57768549e-05
3.56294327e-05
3.67828116e-05
3.68199131e-05
3.58253612e-05
3.52524066e-05
3.5282506e-05
3.68100297e-05
3.68157263e-05
3.58536954e-05
3.52572382e-05
3.52597836e-05
3.68074278e-05
3.68175216e-05
3.58481921e-05
3.52337575e-05
3.52332294e-05
3.6798539e-05
3.68165204e-05
3.58646245e-05
3.52687575e-05
3.52655245e-05
3.67835083e-05
3.68322302e-05
3.58283769e-05
3.54441876e-05
3.51663853e-05
3.51682341e-05
3.67257418e-05
3.68358037e-05
3.57802676e-05
3.55717834e-05
3.67488982e-05
3.68148556e-05
3.5818431e-05
3.51780655e-05
3.51767263e-05
3.67250703e-05
3.68393657e-05
3.57876699e-05
3.5606855e-05
3.67412812e-05
3.68187725e-05
3.58222384e-05
3.519088e-05
3.51880758e-05
3.67185868e-05
3.68401735e-05
3.57745872e-05
3.55245483e-05
3.67102874e-05
3.6816843e-05
3.58296724e-05
3.51894516e-05
3.51876669e-05
3.66889596e-05
3.68417177e-05
3.57785444e-05
3.5535367e-05
3.66819874e-05
3.68199278e-05
3.58462668e-05
3.52481105e-05
3.52462886e-05
3.66886329e-05
3.68070601e-05
3.59105677e-05
3.53175021e-05
3.53069583e-05
3.66710507e-05
3.68073989e-05
3.5889919e-05
3.52210979e-05
3.5206279e-05
3.66113241e-05
3.68043457e-05
3.58505218e-05
3.50824565e-05
3.50665318e-05
3.65574005e-05
3.68358015e-05
3.57568786e-05
3.53502309e-05
3.64419091e-05
3.68399485e-05
3.57577417e-05
3.54112364e-05
3.64519333e-05
3.68339893e-05
3.57750189e-05
3.55225183e-05
3.6564227e-05
3.68120263e-05
3.58441752e-05
3.51776368e-05
3.51783765e-05
3.65650779e-05
3.68377839e-05
3.57949152e-05
3.55794312e-05
3.65352685e-05
3.68517619e-05
3.57949483e-05
3.56566416e-05
3.65928484e-05
3.68424084e-05
3.58856708e-05
3.55996603e-05
3.52610314e-05
3.52836335e-05
3.67748303e-05
3.68218349e-05
3.59314928e-05
3.54870793e-05
3.54412175e-05
3.51748807e-05
3.51794255e-05
3.66336183e-05
3.68355059e-05
3.57764981e-05
3.55237391e-05
3.65768336e-05
3.68193372e-05
3.58277168e-05
3.51686543e-05
3.51728572e-05
3.6732994e-05
3.68440791e-05
3.57860274e-05
3.55640041e-05
3.65810221e-05
3.68520976e-05
3.57827997e-05
3.55806186e-05
3.66121996e-05
3.68501272e-05
3.57826979e-05
3.56054322e-05
3.67054842e-05
3.6824618e-05
3.58124128e-05
3.51776794e-05
3.51782559e-05
3.67837694e-05
3.68211436e-05
3.58218767e-05
3.51613247e-05
3.51607258e-05
3.67842865e-05
3.68212974e-05
3.58187405e-05
3.51524581e-05
3.51507796e-05
3.67922769e-05
3.682028e-05
3.58150792e-05
3.51536782e-05
3.51552787e-05
3.67735957e-05
3.68489621e-05
3.57685507e-05
3.55819341e-05
3.67614566e-05
3.68261378e-05
3.57985867e-05
3.5160821e-05
3.51753507e-05
3.67743406e-05
3.68484401e-05
3.57692422e-05
3.55910875e-05
3.67593751e-05
3.68259325e-05
3.58107608e-05
3.51685788e-05
3.51708615e-05
3.67867998e-05
3.68060419e-05
3.58607262e-05
3.51388445e-05
3.52257506e-05
3.67814772e-05
3.68350503e-05
3.67849004e-05
3.58214849e-05
3.54682319e-05
3.54288312e-05
3.51253128e-05
3.51293709e-05
3.66932957e-05
3.6817224e-05
)
;

boundaryField
{
    closed
    {
        type            calculated;
        value           uniform 5.15212853e-05;
    }
    open
    {
        type            calculated;
        value           nonuniform List<scalar> 0();
    }
    sides
    {
        type            empty;
    }
    procBoundary0to1
    {
        type            processor;
        value           uniform 3.67653126e-05;
    }
}


// ************************************************************************* //
