/*--------------------------------*- C++ -*----------------------------------*\
| =========                 |                                                 |
| \\      /  F ield         | OpenFOAM: The Open Source CFD Toolbox           |
|  \\    /   O peration     | Version:  2306                                  |
|   \\  /    A nd           | Website:  www.openfoam.com                      |
|    \\/     M anipulation  |                                                 |
\*---------------------------------------------------------------------------*/
FoamFile
{
    version     2.0;
    format      ascii;
    arch        "LSB;label=32;scalar=64";
    class       volScalarField;
    location    "0.00184";
    object      H;
}
// * * * * * * * * * * * * * * * * * * * * * * * * * * * * * * * * * * * * * //

dimensions      [0 0 0 0 0 0 0];

internalField   nonuniform List<scalar> 
530
(
7.35488374e-09
2.11401676e-08
2.23351667e-08
2.22583801e-08
2.22485459e-08
2.22482587e-08
2.22482498e-08
2.22482494e-08
2.22482494e-08
2.22482494e-08
2.22482494e-08
2.22482494e-08
2.22482494e-08
2.22482494e-08
2.22482494e-08
2.22482494e-08
2.22482494e-08
2.22482494e-08
2.22482494e-08
2.22482494e-08
2.22482494e-08
2.22482494e-08
2.22482494e-08
2.22482494e-08
2.22482494e-08
2.22482494e-08
2.22482494e-08
2.22482494e-08
2.22482494e-08
2.22482494e-08
2.22482494e-08
2.22482494e-08
2.22482494e-08
2.22482494e-08
2.22482494e-08
2.22482494e-08
2.22482494e-08
2.22482494e-08
2.22482494e-08
2.22482494e-08
2.22482494e-08
2.22482494e-08
2.22482494e-08
2.22482494e-08
2.22482494e-08
2.22482494e-08
2.22482494e-08
2.22482494e-08
2.22482494e-08
2.22482494e-08
2.22482494e-08
2.22482494e-08
2.22482494e-08
2.22482494e-08
2.22482494e-08
2.22482494e-08
2.22482494e-08
2.22482494e-08
2.22482494e-08
2.22482495e-08
2.22482495e-08
2.22482497e-08
2.22482502e-08
2.22482517e-08
2.22482536e-08
2.22482561e-08
2.22482634e-08
2.22483554e-08
2.2248277e-08
2.22480069e-08
2.22492357e-08
2.22491425e-08
2.22469765e-08
2.22471205e-08
2.22549115e-08
2.22504773e-08
2.22456745e-08
2.22353157e-08
2.22469307e-08
2.22884329e-08
2.23464281e-08
2.23702719e-08
2.21646608e-08
2.10457647e-08
2.10714861e-08
2.69889764e-08
3.24203086e-08
3.07110745e-08
6.3690619e-10
1.07204328e-09
2.0777902e-08
4.02611482e-08
4.12954035e-08
4.18141771e-08
4.3906921e-08
2.61267366e-08
1.01203956e-09
1.26668197e-09
1.07017709e-09
1.28698347e-09
1.11598523e-09
2.33962921e-08
4.11292417e-08
4.19564136e-08
4.30931947e-08
4.40519999e-08
4.3351109e-08
4.8411846e-08
3.81531307e-08
9.68629543e-10
1.16282496e-09
9.87093639e-10
1.06222272e-09
1.18868291e-09
9.54113509e-10
3.5305905e-08
4.67300647e-08
4.41350929e-08
4.47118346e-08
4.96576485e-08
4.12460861e-08
9.31136439e-10
1.19118567e-09
8.35312541e-10
1.16965052e-09
8.7896544e-10
1.23576519e-09
9.90692245e-10
3.87895264e-08
4.76163717e-08
4.39413706e-08
4.36369565e-08
4.61888645e-08
3.91873523e-08
1.1023287e-09
1.28387196e-09
2.26798804e-08
3.87308555e-08
4.39652492e-08
3.46221124e-08
9.26079351e-10
1.18641667e-09
1.18093965e-09
1.11210531e-09
3.43601276e-08
5.38281828e-08
4.80917399e-08
7.35214416e-10
1.11266718e-09
2.45191584e-08
4.43782352e-08
4.319135e-08
7.83747229e-10
1.23603042e-09
3.10099242e-08
3.57730285e-08
1.80493275e-09
1.20226307e-09
2.23152304e-08
4.29662253e-08
4.2942982e-08
8.94355377e-10
1.15065272e-09
2.07764669e-08
4.54256483e-08
4.59043102e-08
3.74630274e-09
1.0920719e-09
1.13837199e-09
1.76339769e-09
3.80653439e-08
4.38170539e-08
1.07686293e-08
1.05165388e-09
1.58837009e-08
4.08628981e-08
4.3222353e-08
9.30071348e-09
1.15772779e-09
1.35291672e-08
3.55463398e-08
4.06076645e-08
4.10380207e-08
4.67083922e-08
4.75952554e-08
1.48474681e-08
1.00454916e-09
2.37296114e-08
3.88201896e-08
2.47538956e-08
8.30238512e-10
1.1959286e-09
2.30700203e-08
3.66146441e-08
1.60592962e-08
1.08545219e-09
1.20904197e-09
1.83256517e-08
3.92200691e-08
4.57983984e-08
4.67865454e-08
1.7646995e-08
9.52563181e-10
2.40812509e-08
3.95005834e-08
1.57825063e-08
1.01479232e-09
2.41797828e-08
3.90518766e-08
1.50547292e-08
1.04485297e-09
2.4553049e-08
3.91370468e-08
1.4399744e-08
1.06916764e-09
2.50421297e-08
3.89429328e-08
1.32146136e-08
1.02582475e-09
2.20140958e-08
4.72746681e-08
4.91207858e-08
1.18349979e-08
1.08274287e-09
2.62583141e-08
3.95561471e-08
1.18012225e-08
1.04912386e-09
2.37036641e-08
4.87982422e-08
4.98491992e-08
1.04202566e-08
1.08034506e-09
2.81734139e-08
4.13003659e-08
1.14503684e-08
1.11267951e-09
2.90510142e-08
4.18155769e-08
1.08662815e-08
1.11770168e-09
2.94947026e-08
4.17247301e-08
1.0010835e-08
1.13181511e-09
2.98711388e-08
4.13301388e-08
8.92032443e-09
1.15236753e-09
3.01837915e-08
4.07020554e-08
7.32481605e-09
1.1038945e-09
2.6429954e-08
5.00236297e-08
4.91508422e-08
4.9442887e-09
1.14951704e-09
3.04880148e-08
4.00566104e-08
6.12103702e-09
1.19735433e-09
3.12329901e-08
4.00052594e-08
4.78004706e-09
1.1336546e-09
2.66694853e-08
4.98075301e-08
4.76994587e-08
5.40792505e-10
1.19820488e-09
3.16142848e-08
3.94214203e-08
3.37378957e-09
1.15973796e-09
2.74381998e-08
4.98589224e-08
4.79682283e-08
7.87897297e-10
1.21328318e-09
3.20243101e-08
3.97705252e-08
2.88226408e-09
1.25412246e-09
3.24645652e-08
3.95732694e-08
1.20578606e-09
1.18698893e-09
2.6999331e-08
4.80293309e-08
4.5933574e-08
9.15045172e-10
1.25136067e-09
3.21582049e-08
3.85716459e-08
4.53367636e-10
1.25980612e-09
2.65171129e-08
4.22340785e-08
4.1363697e-08
4.70242419e-08
4.67771877e-08
8.00284328e-10
1.23996917e-09
3.20839549e-08
3.86169159e-08
4.86766937e-10
1.23272326e-09
2.57326318e-08
4.54386092e-08
4.44960441e-08
9.27428658e-10
1.22382212e-09
2.42070343e-08
4.48945212e-08
4.38701614e-08
9.41825988e-10
1.23809367e-09
2.38437365e-08
4.42178633e-08
4.28161542e-08
9.53954338e-10
1.23097162e-09
2.31806118e-08
4.56652758e-08
4.55597469e-08
7.25836204e-10
1.22928403e-09
1.51017237e-08
4.10401049e-08
4.0937398e-08
7.31645858e-10
1.29886434e-09
2.32325645e-08
3.89893109e-08
4.49270557e-08
4.46057118e-08
7.32622789e-10
1.28039023e-09
3.07578865e-08
3.69864789e-08
5.53600909e-10
1.24605533e-09
2.49383364e-08
4.48581308e-08
4.42749384e-08
8.73628284e-10
1.21889306e-09
2.2696909e-08
4.47011576e-08
4.46813841e-08
8.34818436e-10
1.21129456e-09
2.28492861e-08
4.51566377e-08
4.51763536e-08
7.88032434e-10
1.21070283e-09
2.20693699e-08
4.45009582e-08
4.45021891e-08
7.49772546e-10
1.25343128e-09
2.42467526e-08
4.08233322e-08
4.65814349e-08
4.63675887e-08
4.64009734e-10
1.22913031e-09
3.07496891e-08
3.82779551e-08
4.7816188e-10
1.19382029e-09
2.54279837e-08
4.64149126e-08
4.62353482e-08
5.05319934e-10
1.25248652e-09
2.96576912e-08
3.74835567e-08
5.830824e-10
1.20621287e-09
2.50979673e-08
4.61648333e-08
4.60424941e-08
4.70863907e-10
1.22532194e-09
3.10498698e-08
3.92030081e-08
1.20005534e-09
1.18853645e-09
2.44686286e-08
4.6189515e-08
4.59989013e-08
1.06644461e-09
1.23095984e-09
3.0557594e-08
3.89247132e-08
1.74085077e-09
1.20097444e-09
2.35750946e-08
4.50324497e-08
4.49539061e-08
1.19364918e-09
1.18718382e-09
2.03348364e-08
4.36736353e-08
4.37588012e-08
1.51612217e-09
1.17905612e-09
2.12992027e-08
4.55202469e-08
4.56918319e-08
2.83233352e-09
1.12046149e-09
2.29999312e-08
4.82087224e-08
4.82966137e-08
3.7935738e-09
1.15215133e-09
3.18487218e-08
4.26714619e-08
6.20944186e-09
1.16475994e-09
3.17781504e-08
4.14707048e-08
5.94044202e-09
1.19823381e-09
3.0504538e-08
3.93250997e-08
3.84324256e-09
1.15734431e-09
2.34147662e-08
4.64435638e-08
4.6117e-08
3.56395776e-09
1.22981951e-09
2.8884947e-08
3.78472899e-08
4.24436628e-09
1.29082086e-09
2.91788552e-08
3.62683662e-08
3.17567508e-09
1.29498629e-09
2.16156177e-08
3.75274082e-08
4.4800964e-08
4.42820114e-08
6.70113487e-10
1.25299554e-09
1.92795036e-08
3.99782137e-08
4.09192511e-08
4.65021584e-08
4.61553909e-08
2.28942102e-09
1.20938624e-09
3.01760321e-08
3.92168688e-08
3.60954221e-09
1.1642462e-09
2.41197559e-08
4.66275274e-08
4.62585431e-08
4.50633375e-10
1.23947207e-09
3.00811467e-08
3.82213664e-08
3.32183758e-09
1.26263823e-09
3.06258962e-08
3.79425811e-08
2.69155015e-09
1.26156331e-09
3.08758737e-08
3.75675623e-08
1.11433134e-09
1.19420064e-09
2.54145705e-08
4.63529693e-08
4.63063169e-08
6.72936978e-10
1.16745121e-09
2.43265627e-08
4.66249359e-08
4.66187298e-08
6.63594458e-10
1.16187207e-09
2.44717354e-08
4.67883779e-08
4.6816537e-08
6.93631462e-10
1.15977447e-09
2.4507195e-08
4.68140301e-08
4.66457206e-08
6.9047045e-10
1.23549424e-09
3.13030723e-08
3.80452487e-08
4.60143857e-10
1.19157722e-09
2.61103491e-08
4.67113995e-08
4.62917915e-08
7.12876632e-10
1.23623907e-09
3.12520273e-08
3.78838218e-08
4.68057932e-10
1.1940515e-09
2.55584699e-08
4.65161517e-08
4.64888072e-08
6.71657065e-10
1.14083214e-09
2.20987828e-08
4.72232337e-08
4.53090987e-08
5.30151828e-10
1.30565511e-09
1.21712245e-09
2.34531922e-08
4.07225231e-08
4.11035675e-08
4.75371904e-08
4.72337214e-08
1.41669672e-09
1.2480591e-09
)
;

boundaryField
{
    closed
    {
        type            calculated;
        value           uniform 5.68000469e-12;
    }
    open
    {
        type            calculated;
        value           nonuniform List<scalar> 0();
    }
    sides
    {
        type            empty;
    }
    procBoundary0to1
    {
        type            processor;
        value           uniform 1.15855161e-09;
    }
}


// ************************************************************************* //
