/*--------------------------------*- C++ -*----------------------------------*\
| =========                 |                                                 |
| \\      /  F ield         | OpenFOAM: The Open Source CFD Toolbox           |
|  \\    /   O peration     | Version:  2306                                  |
|   \\  /    A nd           | Website:  www.openfoam.com                      |
|    \\/     M anipulation  |                                                 |
\*---------------------------------------------------------------------------*/
FoamFile
{
    version     2.0;
    format      ascii;
    arch        "LSB;label=32;scalar=64";
    class       volScalarField;
    location    "0.00184";
    object      p;
}
// * * * * * * * * * * * * * * * * * * * * * * * * * * * * * * * * * * * * * //

dimensions      [1 -1 -2 0 0 0 0];

internalField   nonuniform List<scalar> 
530
(
101120.26
101186.806
101363.752
101456.795
101558.739
101667.093
101685.218
101601.579
101460.912
101360.478
101330.528
101255.66
101201.785
101317.81
101355.562
101185.462
101200.722
101526.689
101777.949
101673.485
101341.966
101318.252
101633.615
101664.78
101250.106
101044.554
101140.61
101242.606
101488.458
101881.864
101995.028
101751.056
101414.973
101078.534
100885.112
100979.341
101251.726
101507.704
101611.776
101688.598
101784.003
101781.253
101650.991
101511.738
101443.998
101430.044
101377.395
101219.924
100909.094
100416.222
99875.2778
99569.5002
99772.3691
100486.515
101258.141
101755.693
101826.306
101733.765
101678.454
101686.784
101679.885
101660.417
101626.972
101584.811
101537.143
101486.4
101433.266
101385.17
101344.977
101318.177
101307.756
101313.662
101335.182
101370.724
101417.42
101470.88
101526.316
101579.744
101629.769
101673.861
101712.253
101745.09
101772.71
101795.328
101813.353
101827.178
101837.105
101843.662
101847.494
101848.715
101847.807
101845.053
101840.724
101834.966
101828.004
101820.266
101811.854
101802.821
101793.147
101783.036
101772.528
101761.308
101749.859
101738.187
101726.439
101714.389
101701.786
101688.422
101674.705
101661.69
101647.932
101633.767
101619.232
101604.734
101590.165
101574.63
101558.174
101541.386
101524.643
101507.788
101490.805
101474.985
101459
101442.819
101426.494
101410.02
101393.294
101376.439
101358.769
101340.196
101321.289
101302.111
101282.493
101262.269
101242.993
101222.931
101201.767
101178.363
101151.894
101122.591
101090.406
101056.883
101023.648
100991.204
100957.5
100921.31
100882.986
100848.906
100814.729
100779.419
100741.057
100699.676
100659.422
100617.83
100576.841
100538.726
100505.49
100478.506
100455.143
100431.282
100407.443
100383.688
100382.733
100376.641
100370.312
100365.418
100372.687
100378.534
100391.916
100411.952
100435.067
100461.665
100490.121
100517.983
100546.976
100576.71
100607.733
100639.145
100669.107
100699.347
100729.731
100761.212
100793.481
100825.896
100858.667
100890.785
100920.793
100951.532
100982.282
101013.416
101043.391
101072.571
101101.802
101130.566
101158.656
101184.54
101209.001
101232.65
101255.623
101278.1
101299.651
101320.065
101338.394
101356.11
101373.322
101390.164
101405.348
101420.023
101434.545
101449.061
101461.962
101474.17
101486.315
101498.714
101509.175
101518.571
101527.839
101538.58
101546.556
101552.087
101558.728
101564.711
101570.011
101574.612
101579.177
101583.357
101586.877
101589.257
101591.137
101592.497
101593.46
101594.015
101594.005
101593.713
101593.062
101592.172
101590.632
101588.814
101586.761
101584.764
101582.373
101579.826
101577.068
101574.381
101571.098
101567.491
101563.413
101559.485
101554.832
101550.238
101544.854
101540.535
101534.37
101529.439
101524.224
101518.702
101513.603
101508.401
101503.575
101498.784
101494.323
101489.942
101485.836
101481.774
101478.012
101474.268
101470.751
101467.21
101463.531
101460.463
101457.233
101454.194
101451.199
101448.409
101445.567
101442.899
101440.13
101437.17
101434.578
101431.698
101428.785
101425.73
101422.513
101419.062
101415.511
101411.673
101407.794
101403.823
101400.128
101396.506
101392.959
101389.95
101387.065
101384.506
101382.174
101380.12
101378.21
101376.704
101375.362
101374.18
101372.85
101369.724
101373.047
101371.008
101370.457
101370.272
101370.218
101370.034
101370.075
101370.153
101370.252
101370.525
101370.631
101370.882
101371.097
101371.239
101371.412
101371.24
101371.016
101370.559
101369.845
101369.027
101367.676
101366.103
101364.62
101363.379
101359.135
101356.777
101353.921
101350.091
101345.742
101341.049
101336.017
101330.737
101325.054
101318.602
101311.382
101304.381
101296.642
101289.075
101281.562
101273.84
101266.145
101258.478
101250.696
101242.868
101235.953
101229.503
101223.875
101218.332
101211.624
101205.358
101199.442
101195.289
101191.316
101187.514
101184.808
101181.01
101177.397
101174.997
101173.819
101173.137
101172.652
101172.247
101171.685
101172.083
101173.935
101172.039
101173.588
101175.165
101175.824
101176.429
101177.398
101178.661
101179.586
101180.102
101180.18
101179.679
101179.316
101179.104
101178.941
101178.674
101178.616
101178.664
101178.7
101178.435
101177.482
101176.321
101174.7
101172.655
101170.827
101169.315
101168.097
101166.966
101165.563
101164.465
101163.372
101162.411
101161.801
101161.854
101162.39
101163.08
101163.794
101164.404
101165.325
101166.477
101167.726
101169.17
101170.78
101172.76
101175.055
101177.45
101179.854
101182.05
101184.266
101186.676
101189.274
101192.128
101195.064
101198.168
101201.618
101205.214
101208.801
101212.219
101215.799
101219.403
101222.919
101226.201
101229.625
101233.092
101236.566
101239.797
101243.265
101246.955
101250.876
101254.812
101258.563
101262.521
101266.598
101270.738
101274.511
101278.434
101282.429
101286.471
101290.085
101293.842
101297.694
101301.601
101305.52
101309.266
101312.596
101316
101319.304
101322.466
101325.752
101329.691
101329.281
101332.271
101334.432
101336.081
101337.571
101338.547
101339.391
101339.933
101338.84
101341.998
101340.765
101340.476
101340.117
101339.623
101338.851
101337.965
101336.945
101335.798
101334.504
101333.309
101332.297
101331.537
101330.708
101329.803
101328.265
101326.574
101325.771
101323.588
101321.22
101319.449
101318.687
101318.422
101318.013
101316.999
101314.829
101314.068
101313.774
101313.917
101313.293
101313.737
101313.886
101310.852
101309.876
101310.163
101310.436
101310.563
101310.344
101310.229
101310.099
101309.974
101310.019
101309.8
101309.786
101309.748
101309.655
101309.229
101308.87
101308.445
101308.178
101308.398
101308.009
101307.705
101307.524
101307.511
101307.882
101308.232
101309.285
101309.98
101311.502
101312.843
101313.169
101309.527
101317.58
101314.085
)
;

boundaryField
{
    closed
    {
        type            zeroGradient;
    }
    open
    {
        type            waveTransmissive;
        gamma           1.25;
        fieldInf        101325;
        lInf            1;
        value           nonuniform List<scalar> 0();
    }
    sides
    {
        type            empty;
    }
    procBoundary0to1
    {
        type            processor;
        value           uniform 101315.897;
    }
}


// ************************************************************************* //
