/*--------------------------------*- C++ -*----------------------------------*\
| =========                 |                                                 |
| \\      /  F ield         | OpenFOAM: The Open Source CFD Toolbox           |
|  \\    /   O peration     | Version:  2306                                  |
|   \\  /    A nd           | Website:  www.openfoam.com                      |
|    \\/     M anipulation  |                                                 |
\*---------------------------------------------------------------------------*/
FoamFile
{
    version     2.0;
    format      ascii;
    arch        "LSB;label=32;scalar=64";
    class       volScalarField;
    location    "0.00078";
    object      H2O;
}
// * * * * * * * * * * * * * * * * * * * * * * * * * * * * * * * * * * * * * //

dimensions      [0 0 0 0 0 0 0];

internalField   nonuniform List<scalar> 
531
(
0.000843719659
0.00646018888
0.00775493399
0.00686323941
0.000750228952
0.00151425066
0.00691460665
0.0065806754
0.000794982404
0.00153974715
0.00676220999
0.00639321028
0.00084016645
0.000877794384
0.00614557161
0.00724321894
0.00573244475
0.000881502917
0.001752011
0.00666293755
0.00609810056
0.000876451113
0.000902742306
0.00614758393
0.00733926248
0.00602389518
0.000863776404
0.00202563717
0.00670253053
0.00593528297
0.000905855885
0.000904093232
0.00607855934
0.0071044614
0.00552489729
0.000953178855
0.000891571043
0.00571850872
0.0070022702
0.00724667836
0.00613902852
0.000849000769
0.00102897394
0.00103436108
0.00104542957
0.00446432328
0.00682315758
0.00693157981
0.00714401822
0.00744777036
0.00552379088
0.000856863332
0.0010925376
0.000926839577
0.0062198539
0.00726592383
0.005457359
0.000968426922
0.000829364786
0.00659982082
0.00732240258
0.00534810002
0.000994953648
0.000874893845
0.0061693555
0.00711651197
0.00722579766
0.00547479126
0.000949860114
0.00104075923
0.00106005736
0.00105059599
0.00513354312
0.00676316765
0.00702100215
0.00722611627
0.00503845585
0.0010159396
0.000933366466
0.00670478092
0.00726106549
0.00477912061
0.00103262474
0.000772565332
0.00669026729
0.00723555296
0.00472172352
0.00103611228
0.000810823473
0.00665386986
0.00719673846
0.00482576877
0.00105474442
0.000894383247
0.00609969894
0.00721719533
0.00719827305
0.00436898029
0.000990110598
0.0046920651
0.00711805186
0.00373426641
0.00100338616
0.00502957201
0.00704681112
0.00369563105
0.00103380158
0.00282632977
0.00714203297
0.00715832358
0.00184809634
0.00103129274
0.00520661223
0.00710051629
0.0050703176
0.0010643802
0.00106001437
0.00511939093
0.00717069698
0.00710831573
0.00368299382
0.0010983934
0.00102790091
0.00593804699
0.00724516686
0.00724051794
0.0045936384
0.00101208532
0.00316797766
0.00736266464
0.00656825153
0.00096294487
0.00418778186
0.00724537426
0.00305483147
0.00101678379
0.00556553647
0.00713879101
0.00278347035
0.00102341187
0.00546497863
0.0070892742
0.00426494182
0.00106378276
0.000968099213
0.00704727211
0.00749812199
0.0037185219
0.00100491352
0.00531895545
0.00707218581
0.00420116166
0.00106642003
0.00090040348
0.00703582661
0.0075034122
0.00486394789
0.00104155444
0.000927914323
0.00717826138
0.00751378294
0.00347798743
0.00101854567
0.00523732495
0.00692221917
0.00384190166
0.00108061797
0.000933500673
0.00701673989
0.00744123829
0.00465159794
0.00105189546
0.000986785676
0.00698257433
0.007322304
0.00473519167
0.00107882965
0.00100800547
0.00640062049
0.0071721749
0.00686076976
0.00366973134
0.00109652965
0.000994284611
0.00673497885
0.00726274539
0.00483177112
0.00106924056
0.00096706871
0.00673323865
0.00766444375
0.00670999636
0.000973007873
0.00107306261
0.00101252255
0.0030517166
0.00689856338
0.00720960029
0.00730541857
0.00564275959
0.00102576402
0.000934688371
0.00723442822
0.0076850033
0.00459629395
0.000992175172
0.00498379997
0.00711767777
0.00290719269
0.00102443363
0.00561385542
0.00704902288
0.00238606081
0.00103584394
0.00557466493
0.00695334848
0.00411161316
0.00107907998
0.000942440069
0.0070350931
0.00751834282
0.00502564652
0.00105113138
0.00100859133
0.00700137248
0.00739643983
0.00507785857
0.00105610072
0.00100993848
0.00698213471
0.00740264394
0.00513426606
0.00105101924
0.00100602416
0.00706972165
0.0074785419
0.00428082229
0.00101646089
0.00488931259
0.00703369532
0.00438195765
0.00107666137
0.00095212103
0.0071176621
0.00765377216
0.00435969309
0.00100072067
0.00520362645
0.00718376905
0.00264557393
0.00103403156
0.00554204835
0.00705230312
0.00437052307
0.00107551216
0.000959219385
0.00711516942
0.00757988198
0.00384623101
0.00101810921
0.00526401721
0.00703753313
0.00408613925
0.00108695539
0.000980666282
0.00695884526
0.00739728784
0.00502272222
0.00107956096
0.000985302961
0.00679853376
0.00734968492
0.00732835468
0.00574030572
0.00105316302
0.00111365638
0.000996987248
0.00111228122
0.000951466473
0.00674698758
0.00720786874
0.00709972645
0.00757407174
0.00517735204
0.000966326877
0.00514663649
0.00744430557
0.00372629283
0.000998202492
0.00551613523
0.00712833919
0.0043367449
0.00105319995
0.000896535272
0.00731779309
0.00746466762
0.00119806087
0.00101025409
0.00637925274
0.00699683003
0.00222623973
0.00104445409
0.00265210396
0.0073921276
0.00741483216
0.000858328286
0.00101121096
0.00660112919
0.00704571085
0.00148239596
0.00103850843
0.0033291237
0.00733931076
0.00733199274
0.000868316556
0.00103238033
0.00412429409
0.00729810881
0.00723393949
0.000925766138
0.00103361476
0.00433788434
0.00730095975
0.00719691346
0.00094142476
0.00102761866
0.00456345601
0.00731500518
0.00715954799
0.000953407677
0.00102599794
0.00464294534
0.00726369272
0.00707833346
0.000967900259
0.00102507389
0.00476693193
0.00726595714
0.00704704596
0.000978897679
0.00102288038
0.00491867082
0.00725051458
0.00700756948
0.000985866431
0.00102064108
0.00523819906
0.00724739029
0.00705874092
0.000989664501
0.00100563851
0.00679129202
0.0068693632
0.000929315677
0.00101759901
0.00551142184
0.00730502103
0.00703437859
0.000997806711
0.00103426222
0.00465824145
0.00733842832
0.00709581151
0.000964264852
0.00102862291
0.00448499307
0.00755934388
0.00727218401
0.000910293725
0.00109487578
0.000984710042
0.00492157696
0.00758706951
0.00740163815
0.000993217451
0.00100079017
0.00560712536
0.00766027462
0.00744587269
0.000953494099
0.000986063527
0.00511401929
0.00813594303
0.00775695529
0.000622296126
0.000989048679
0.000797876696
0.00102553737
0.000910473759
0.00700565812
0.00855320137
0.00829507562
0.000918852767
0.00109213414
0.00768824079
0.00796190637
0.00113329871
0.0014653706
0.00141302372
0.00179208312
0.0018461319
0.00212338285
0.00218259003
0.00245897859
0.00259429773
0.00284982753
0.00303786346
0.00326495823
0.00345002543
0.00364431064
0.0037512322
0.00378116926
0.00358690252
0.00336617441
0.00363222501
0.00394197424
0.00428015659
0.0046658546
0.0050758739
0.00553589002
0.0059636213
0.00613305975
0.00565982011
0.00585831512
0.00615624166
0.00668692299
0.00732862738
0.00805311103
0.00904396557
0.00972090507
0.0104758464
0.00857338666
0.00523688088
0.00616835129
0.00774522358
0.00878384157
0.0102625514
0.0113708101
0.0126802269
0.0136199732
0.0140564931
0.0104439719
0.0141151062
0.01339918
0.0121584061
0.0120111348
0.0159635009
0.0179079467
0.0194537683
0.0241378573
0.0323592543
0.0366739759
0.0410621991
0.0497905674
0.0555623562
0.0597615897
0.0637025449
0.0673859061
0.0722729717
0.0767541417
0.0812615656
0.0856495436
0.090037094
0.0938471514
0.0977860359
0.101232565
0.104536254
0.107335239
0.109996293
0.111762936
0.113563021
0.115057378
0.116581885
0.117846009
0.119248059
0.120363646
0.121672871
0.122584649
0.123739728
0.12455507
0.125545122
0.12635559
0.127268454
0.127980843
0.128740642
0.129394715
0.130165874
0.130740033
0.131174236
0.131564472
0.131959529
0.132321793
0.132684551
0.133018509
0.133345592
0.133653863
0.133957067
0.134242353
0.13451659
0.13478283
0.135076399
0.135361144
0.135629975
0.135883105
0.136121498
0.136342892
0.136557142
0.13676278
0.136967532
0.137169846
0.137370352
0.137563515
0.137756428
0.137934079
0.138107915
0.138283729
0.138461656
0.138626203
0.138793932
0.138953254
0.139117667
0.139266958
0.139420004
0.139557822
0.139699483
0.139826508
0.139957052
0.140069608
0.140188029
0.140293909
0.140406282
)
;

boundaryField
{
    closed
    {
        type            calculated;
        value           nonuniform List<scalar> 0();
    }
    open
    {
        type            calculated;
        value           nonuniform List<scalar> 0();
    }
    sides
    {
        type            empty;
    }
    procBoundary4to3
    {
        type            processor;
        value           uniform 0.000997316961;
    }
    procBoundary4to5
    {
        type            processor;
        value           uniform 0.140505867;
    }
}


// ************************************************************************* //
