/*--------------------------------*- C++ -*----------------------------------*\
| =========                 |                                                 |
| \\      /  F ield         | OpenFOAM: The Open Source CFD Toolbox           |
|  \\    /   O peration     | Version:  2306                                  |
|   \\  /    A nd           | Website:  www.openfoam.com                      |
|    \\/     M anipulation  |                                                 |
\*---------------------------------------------------------------------------*/
FoamFile
{
    version     2.0;
    format      ascii;
    arch        "LSB;label=32;scalar=64";
    class       volScalarField;
    location    "0.00078";
    object      prefDPV_H2;
}
// * * * * * * * * * * * * * * * * * * * * * * * * * * * * * * * * * * * * * //

dimensions      [1 -1 -1 0 0 0 0];

internalField   nonuniform List<scalar> 
531
(
-3.13944228e-05
-3.08845916e-05
-3.03187242e-05
-3.07454811e-05
-3.13968759e-05
-3.12690647e-05
-3.07207374e-05
-3.08742956e-05
-3.14327032e-05
-3.12657564e-05
-3.07917138e-05
-3.09238487e-05
-3.14494713e-05
-3.1474322e-05
-3.08957101e-05
-3.05661526e-05
-3.08807918e-05
-3.14593882e-05
-3.12316502e-05
-3.08371902e-05
-3.09054761e-05
-3.14715817e-05
-3.14939983e-05
-3.08833072e-05
-3.05214234e-05
-3.08724054e-05
-3.14595427e-05
-3.11912569e-05
-3.08190151e-05
-3.08895235e-05
-3.14838572e-05
-3.1509012e-05
-3.08889138e-05
-3.06323473e-05
-3.08902169e-05
-3.14793049e-05
-3.14830858e-05
-3.09014291e-05
-3.06811533e-05
-3.05678901e-05
-3.08822916e-05
-3.14583183e-05
-3.15528494e-05
-3.15113701e-05
-3.15351557e-05
-3.09324269e-05
-3.07638064e-05
-3.0714188e-05
-3.06173737e-05
-3.0472377e-05
-3.08611758e-05
-3.14183135e-05
-3.15759378e-05
-3.14741784e-05
-3.08740118e-05
-3.05558327e-05
-3.08848675e-05
-3.15005704e-05
-3.14666397e-05
-3.08640854e-05
-3.0530205e-05
-3.08882382e-05
-3.1509057e-05
-3.13738981e-05
-3.09049568e-05
-3.06282141e-05
-3.05783781e-05
-3.08791244e-05
-3.15021489e-05
-3.15630523e-05
-3.15314207e-05
-3.15389557e-05
-3.0902479e-05
-3.07913165e-05
-3.06736374e-05
-3.05772963e-05
-3.09011754e-05
-3.15108353e-05
-3.13625793e-05
-3.08174279e-05
-3.05585509e-05
-3.09151916e-05
-3.15066912e-05
-3.13902052e-05
-3.08240175e-05
-3.05701545e-05
-3.09191149e-05
-3.15013131e-05
-3.14455159e-05
-3.08407304e-05
-3.05883583e-05
-3.09202947e-05
-3.15051148e-05
-3.15097998e-05
-3.09115481e-05
-3.05797823e-05
-3.0591057e-05
-3.0933604e-05
-3.15186207e-05
-3.09128879e-05
-3.06281954e-05
-3.09766657e-05
-3.1519006e-05
-3.08973662e-05
-3.06607186e-05
-3.09840631e-05
-3.1504291e-05
-3.108291e-05
-3.06155676e-05
-3.06089945e-05
-3.12185074e-05
-3.15183119e-05
-3.09038527e-05
-3.06365236e-05
-3.08935925e-05
-3.15527962e-05
-3.15608942e-05
-3.09059627e-05
-3.06039428e-05
-3.06331104e-05
-3.09933096e-05
-3.15324232e-05
-3.1532271e-05
-3.0915604e-05
-3.05690534e-05
-3.05712822e-05
-3.09256174e-05
-3.1512504e-05
-3.10416048e-05
-3.05128395e-05
-3.08793254e-05
-3.15290538e-05
-3.09462858e-05
-3.05687691e-05
-3.1052786e-05
-3.15205638e-05
-3.08879722e-05
-3.06182588e-05
-3.10862935e-05
-3.15280237e-05
-3.08890832e-05
-3.06414355e-05
-3.0939611e-05
-3.154068e-05
-3.15488099e-05
-3.06613226e-05
-3.04496925e-05
-3.09830818e-05
-3.15183416e-05
-3.08922044e-05
-3.06490653e-05
-3.09481018e-05
-3.15354223e-05
-3.15417724e-05
-3.06663711e-05
-3.0444926e-05
-3.09173926e-05
-3.15129199e-05
-3.1552197e-05
-3.06001851e-05
-3.044111e-05
-3.10087462e-05
-3.15165488e-05
-3.08996914e-05
-3.0718311e-05
-3.09760077e-05
-3.1540492e-05
-3.15449778e-05
-3.06753053e-05
-3.04759472e-05
-3.09196039e-05
-3.15259968e-05
-3.15607273e-05
-3.06908462e-05
-3.05336522e-05
-3.09158922e-05
-3.1544499e-05
-3.15597667e-05
-3.09150725e-05
-3.06026461e-05
-3.07466001e-05
-3.09947432e-05
-3.15532114e-05
-3.15360465e-05
-3.08037979e-05
-3.05604967e-05
-3.09152193e-05
-3.1533627e-05
-3.15422617e-05
-3.08048705e-05
-3.03679588e-05
-3.08153695e-05
-3.15053494e-05
-3.1522282e-05
-3.14873807e-05
-3.10567123e-05
-3.07281392e-05
-3.05853737e-05
-3.05394563e-05
-3.09146907e-05
-3.15257453e-05
-3.15388308e-05
-3.0574726e-05
-3.03580859e-05
-3.09243794e-05
-3.14992022e-05
-3.09035322e-05
-3.0627421e-05
-3.10715872e-05
-3.15219071e-05
-3.08974279e-05
-3.06598234e-05
-3.11399461e-05
-3.1529322e-05
-3.09014306e-05
-3.07040505e-05
-3.09567594e-05
-3.15351565e-05
-3.15415673e-05
-3.06667715e-05
-3.04389955e-05
-3.09103353e-05
-3.15161424e-05
-3.15465513e-05
-3.06819775e-05
-3.04982629e-05
-3.09104544e-05
-3.15301483e-05
-3.15461984e-05
-3.06909726e-05
-3.04955757e-05
-3.09068005e-05
-3.15344435e-05
-3.15462159e-05
-3.06508452e-05
-3.04598151e-05
-3.09409147e-05
-3.15196198e-05
-3.09047794e-05
-3.06670736e-05
-3.09347766e-05
-3.15422794e-05
-3.15452093e-05
-3.06291665e-05
-3.03766274e-05
-3.09324561e-05
-3.1510755e-05
-3.08893275e-05
-3.05977364e-05
-3.1104566e-05
-3.15262748e-05
-3.08893236e-05
-3.0658808e-05
-3.09334582e-05
-3.1546278e-05
-3.15487148e-05
-3.06301919e-05
-3.04124829e-05
-3.0973407e-05
-3.15085587e-05
-3.08912865e-05
-3.06653541e-05
-3.09522554e-05
-3.15406919e-05
-3.15418523e-05
-3.07017652e-05
-3.04985656e-05
-3.09047716e-05
-3.15221996e-05
-3.15533018e-05
-3.07749875e-05
-3.05224349e-05
-3.05296938e-05
-3.08893741e-05
-3.15502216e-05
-3.15713345e-05
-3.15109293e-05
-3.15642962e-05
-3.14602423e-05
-3.07984059e-05
-3.05836417e-05
-3.0637869e-05
-3.04124382e-05
-3.08884923e-05
-3.14920933e-05
-3.08833439e-05
-3.04760186e-05
-3.09812073e-05
-3.14976002e-05
-3.08860724e-05
-3.06227912e-05
-3.09387418e-05
-3.15033039e-05
-3.15201963e-05
-3.0532654e-05
-3.04655744e-05
-3.13206022e-05
-3.14843181e-05
-3.09604223e-05
-3.06833317e-05
-3.11621962e-05
-3.14840104e-05
-3.11048088e-05
-3.04993459e-05
-3.04891483e-05
-3.14684591e-05
-3.1509771e-05
-3.08658595e-05
-3.06610673e-05
-3.12771934e-05
-3.1494065e-05
-3.10301661e-05
-3.05246432e-05
-3.05270822e-05
-3.1480983e-05
-3.15001119e-05
-3.09617341e-05
-3.05438266e-05
-3.05734186e-05
-3.15057559e-05
-3.15047113e-05
-3.09463216e-05
-3.05428566e-05
-3.05912286e-05
-3.15134993e-05
-3.15045864e-05
-3.09323473e-05
-3.0536439e-05
-3.0609e-05
-3.15194215e-05
-3.15053994e-05
-3.09277052e-05
-3.05604513e-05
-3.06466886e-05
-3.15228709e-05
-3.15046363e-05
-3.09213077e-05
-3.05594791e-05
-3.06612471e-05
-3.15301098e-05
-3.15066547e-05
-3.09142947e-05
-3.05667574e-05
-3.06794688e-05
-3.15340119e-05
-3.15055401e-05
-3.09022865e-05
-3.05676553e-05
-3.06562939e-05
-3.1531771e-05
-3.15206925e-05
-3.07783995e-05
-3.0742693e-05
-3.15358235e-05
-3.15162696e-05
-3.09064808e-05
-3.05410163e-05
-3.06670569e-05
-3.15335502e-05
-3.15134589e-05
-3.09282562e-05
-3.05256593e-05
-3.06384357e-05
-3.15356083e-05
-3.15011157e-05
-3.09298716e-05
-3.04201774e-05
-3.05582454e-05
-3.15288445e-05
-3.15506228e-05
-3.15117037e-05
-3.09064489e-05
-3.04098149e-05
-3.04988344e-05
-3.15548865e-05
-3.1551906e-05
-3.08847808e-05
-3.0380136e-05
-3.04793727e-05
-3.15881049e-05
-3.15521642e-05
-3.08630556e-05
-3.0153829e-05
-3.03441642e-05
-3.15411119e-05
-3.16744364e-05
-3.15738776e-05
-3.17207921e-05
-3.16658865e-05
-3.06714764e-05
-2.99985955e-05
-3.01214836e-05
-3.17445315e-05
-3.17581167e-05
-3.03784571e-05
-3.02631877e-05
-3.16002149e-05
-3.16464368e-05
-3.15318794e-05
-3.1503276e-05
-3.14058995e-05
-3.14575502e-05
-3.14594299e-05
-3.14971653e-05
-3.15217341e-05
-3.15497488e-05
-3.1578564e-05
-3.16082764e-05
-3.16468715e-05
-3.16986396e-05
-3.17674461e-05
-3.18991407e-05
-3.21025964e-05
-3.22109149e-05
-3.20340665e-05
-3.18677758e-05
-3.17266472e-05
-3.16043928e-05
-3.15167844e-05
-3.14522614e-05
-3.13526373e-05
-3.12822178e-05
-3.12866712e-05
-3.11674925e-05
-3.11093365e-05
-3.10533402e-05
-3.10538828e-05
-3.10376253e-05
-3.08391626e-05
-3.07036646e-05
-3.05511958e-05
-3.11002693e-05
-3.22009129e-05
-3.19569417e-05
-3.15406367e-05
-3.12661546e-05
-3.08669376e-05
-3.05712317e-05
-3.01997129e-05
-2.99535091e-05
-3.18214839e-05
-3.2458075e-05
-3.4431023e-05
-3.58862878e-05
-3.64492767e-05
-3.72137215e-05
-4.03092089e-05
-4.19507204e-05
-4.33160315e-05
-4.64133483e-05
-5.14890962e-05
-5.40377094e-05
-5.64137525e-05
-6.07360245e-05
-6.32927814e-05
-6.50526287e-05
-6.66044546e-05
-6.79802003e-05
-6.96414467e-05
-7.10758535e-05
-7.24483273e-05
-7.3688922e-05
-7.48893733e-05
-7.59036666e-05
-7.69271462e-05
-7.78054943e-05
-7.86614578e-05
-7.93910191e-05
-8.0114181e-05
-8.05977949e-05
-8.11226839e-05
-8.15712498e-05
-8.20673117e-05
-8.24852897e-05
-8.29660887e-05
-8.33542905e-05
-8.38240382e-05
-8.41655854e-05
-8.46087491e-05
-8.49336779e-05
-8.53398294e-05
-8.56823506e-05
-8.6091275e-05
-8.64177285e-05
-8.67840984e-05
-8.71147262e-05
-8.75598009e-05
-8.78871719e-05
-8.81329997e-05
-8.8349685e-05
-8.85771107e-05
-8.87836771e-05
-8.9001705e-05
-8.91946971e-05
-8.93987961e-05
-8.95893632e-05
-8.97872205e-05
-8.9968038e-05
-9.0149331e-05
-9.0321035e-05
-9.05251163e-05
-9.07228803e-05
-9.09146322e-05
-9.10874196e-05
-9.12537963e-05
-9.13979016e-05
-9.1543757e-05
-9.16783133e-05
-9.18194864e-05
-9.19547837e-05
-9.20960686e-05
-9.22277469e-05
-9.23665949e-05
-9.24868712e-05
-9.26089559e-05
-9.27312576e-05
-9.28617178e-05
-9.29765607e-05
-9.31001286e-05
-9.32107697e-05
-9.3330474e-05
-9.34337845e-05
-9.35453701e-05
-9.36405893e-05
-9.37437293e-05
-9.38314699e-05
-9.39258698e-05
-9.39992433e-05
-9.40814187e-05
-9.41510849e-05
-9.42298772e-05
)
;

boundaryField
{
    closed
    {
        type            calculated;
        value           nonuniform List<scalar> 0();
    }
    open
    {
        type            calculated;
        value           nonuniform List<scalar> 0();
    }
    sides
    {
        type            empty;
    }
    procBoundary4to3
    {
        type            processor;
        value           uniform -3.15032611e-05;
    }
    procBoundary4to5
    {
        type            processor;
        value           uniform -9.42961257e-05;
    }
}


// ************************************************************************* //
