/*--------------------------------*- C++ -*----------------------------------*\
| =========                 |                                                 |
| \\      /  F ield         | OpenFOAM: The Open Source CFD Toolbox           |
|  \\    /   O peration     | Version:  2306                                  |
|   \\  /    A nd           | Website:  www.openfoam.com                      |
|    \\/     M anipulation  |                                                 |
\*---------------------------------------------------------------------------*/
FoamFile
{
    version     2.0;
    format      ascii;
    arch        "LSB;label=32;scalar=64";
    class       volScalarField;
    location    "0.00078";
    object      rho;
}
// * * * * * * * * * * * * * * * * * * * * * * * * * * * * * * * * * * * * * //

dimensions      [1 -3 0 0 0 0 0];

internalField   nonuniform List<scalar> 
531
(
0.912015805
0.944817566
0.971841952
0.95173107
0.911758166
0.918764027
0.953086375
0.945819918
0.91068273
0.919121398
0.949883737
0.943469114
0.910324756
0.909517675
0.944292006
0.960788744
0.944205982
0.910331273
0.921419776
0.948158604
0.94411547
0.910038966
0.909298677
0.945311772
0.963407779
0.945645502
0.910756959
0.924188962
0.949550516
0.945002941
0.910189385
0.909251707
0.945504072
0.958735967
0.944449731
0.910797491
0.910464931
0.944500261
0.956644508
0.96204591
0.946256487
0.911481371
0.908386069
0.910054422
0.909160129
0.940827567
0.952837529
0.955189966
0.959767434
0.966648341
0.945943285
0.913086809
0.907666698
0.911088079
0.94672277
0.962582611
0.944672561
0.91006653
0.91088677
0.947740688
0.963579182
0.944085029
0.90959105
0.914346291
0.944857909
0.958641174
0.96093114
0.944362276
0.909356062
0.907211967
0.908476986
0.908097309
0.942429404
0.950475317
0.955978375
0.960525643
0.942127263
0.908849572
0.914218308
0.948968928
0.961226186
0.940825059
0.908891086
0.912547139
0.948480276
0.960505643
0.940375202
0.908947543
0.910331849
0.947507987
0.959450026
0.940332557
0.908639798
0.907831301
0.943094063
0.9595928
0.958994897
0.938530486
0.907588278
0.939939405
0.956996023
0.93515668
0.907357644
0.940991375
0.955164811
0.934473765
0.90774628
0.928398202
0.956985259
0.957202767
0.920430134
0.906799525
0.940373808
0.955584168
0.940374403
0.905273185
0.904869932
0.93974697
0.956759112
0.955302575
0.932956089
0.905786645
0.905483358
0.94057141
0.957994448
0.95782305
0.937256387
0.9059012
0.929362983
0.960337292
0.942942324
0.904851003
0.935210095
0.95746422
0.928311527
0.905162699
0.940225848
0.954923581
0.926154455
0.904711479
0.939797363
0.953652068
0.935175842
0.904200448
0.903514405
0.952552925
0.962498061
0.932057075
0.904700748
0.939042021
0.952966783
0.934379344
0.904117081
0.903265496
0.952015941
0.962423013
0.936859128
0.904770243
0.902808628
0.954996283
0.962458972
0.930078175
0.904423818
0.938168873
0.949309526
0.932110178
0.90362332
0.902923172
0.951257672
0.96064629
0.936041742
0.904029194
0.902430095
0.950474684
0.9578789
0.936326164
0.903362883
0.902512675
0.939678342
0.954613132
0.947802885
0.930850158
0.903066486
0.903384481
0.945096658
0.956587366
0.936525471
0.903735257
0.903041298
0.945056181
0.965632421
0.944553304
0.904507161
0.904187919
0.905345568
0.926974859
0.948703706
0.955402698
0.957567619
0.938165233
0.903879977
0.903050561
0.95589209
0.966079345
0.935644068
0.904797688
0.937292811
0.953412497
0.926023463
0.90400999
0.938805032
0.951868677
0.922078992
0.903744538
0.93854398
0.949762824
0.933267588
0.903644056
0.902912764
0.951485486
0.962208124
0.937019801
0.904251608
0.90290012
0.950725361
0.959366647
0.937066009
0.903664676
0.902862726
0.950236772
0.959429321
0.93726698
0.903414007
0.902782416
0.952054606
0.961038813
0.93404131
0.90380918
0.936755309
0.951224622
0.934449279
0.903076381
0.902519423
0.95294961
0.964828381
0.934441712
0.904000401
0.937934756
0.954401214
0.923714306
0.90349679
0.938617365
0.951535435
0.93443576
0.902904482
0.902432856
0.952980396
0.963282686
0.931883454
0.904404672
0.938323632
0.951658942
0.933564919
0.903715666
0.903402385
0.95034683
0.960058208
0.938011928
0.904970824
0.903522851
0.947483544
0.959454433
0.959181308
0.940573465
0.904118177
0.90345058
0.905331
0.903500269
0.906848794
0.94577489
0.955624935
0.952675308
0.96289234
0.937263216
0.903541584
0.936461914
0.95795519
0.928459682
0.901460559
0.935049095
0.949041388
0.92956904
0.899678095
0.89814756
0.951754137
0.954621168
0.905833385
0.899125989
0.931069735
0.944233716
0.914676119
0.899735726
0.918459724
0.953912947
0.954789702
0.901130868
0.900444254
0.938470603
0.948585293
0.911862629
0.903009385
0.926891167
0.956886258
0.957245251
0.904614282
0.904767673
0.933332813
0.957885244
0.956796148
0.905281375
0.905883223
0.935565643
0.958915865
0.956736702
0.905653085
0.906338179
0.936945766
0.95942925
0.955990711
0.90547489
0.906250499
0.937198866
0.958153149
0.954033231
0.90519616
0.90606015
0.93747079
0.957928436
0.953059992
0.904672355
0.905687013
0.937762514
0.957255517
0.951851533
0.904198367
0.905361083
0.938515556
0.956802369
0.952513829
0.903888954
0.904297577
0.946510312
0.948085818
0.903190449
0.904188864
0.938133134
0.957304255
0.95129698
0.903194758
0.904064714
0.935238545
0.957782628
0.952441764
0.902827452
0.904385682
0.9346957
0.962648913
0.956142134
0.902868824
0.902655099
0.903807597
0.936566171
0.96316714
0.958989466
0.902193103
0.902352203
0.938924237
0.964645928
0.959990365
0.900832545
0.902372654
0.9389094
0.975355936
0.966419491
0.901621968
0.897619782
0.900942111
0.895930438
0.897716539
0.950826382
0.982849426
0.977039433
0.894669223
0.894715153
0.964781494
0.970245099
0.901107566
0.900396555
0.904733412
0.907106278
0.911106178
0.910009878
0.91014437
0.909592182
0.909090586
0.908855606
0.908368771
0.907984544
0.907121579
0.905795782
0.903527189
0.898616251
0.89023048
0.886185892
0.894950202
0.903281767
0.91045946
0.916818247
0.921565097
0.925302761
0.93128092
0.935851561
0.93743015
0.945516114
0.950072468
0.954265571
0.955354135
0.95713561
0.970071613
0.97919274
0.991612277
0.971193659
0.922270136
0.936525492
0.96104462
0.977645455
1.00175402
1.02024215
1.04372577
1.06076261
0.973491013
0.949837924
0.876273619
0.833924638
0.815712218
0.80069166
0.716104884
0.674445124
0.646894288
0.581908693
0.495948302
0.460563725
0.431391385
0.385104515
0.361120694
0.346011274
0.3332583
0.322394752
0.30981107
0.299362187
0.289717829
0.281326272
0.273470198
0.267023455
0.260716444
0.255440273
0.250464934
0.246318505
0.242343964
0.239758556
0.237023585
0.234710921
0.232221203
0.230155301
0.227840635
0.226028565
0.223875336
0.222368651
0.220433767
0.219058089
0.217356696
0.215944328
0.214308678
0.213020934
0.211621604
0.210368936
0.20872068
0.207525864
0.206666408
0.20590381
0.205123558
0.204409583
0.203678458
0.203020475
0.202352483
0.201723882
0.201084196
0.200498339
0.199925396
0.199376822
0.198727052
0.198102072
0.197503062
0.196961329
0.196446772
0.196005983
0.195562375
0.195153159
0.194727669
0.194323571
0.193900741
0.19350812
0.19309206
0.19273846
0.192382163
0.192028058
0.191647359
0.191316147
0.190956399
0.190640325
0.190295505
0.19000213
0.189681548
0.189413182
0.189119224
0.18887321
0.188605697
0.188405053
0.188176502
0.187986449
0.187767742
)
;

boundaryField
{
    closed
    {
        type            calculated;
        value           nonuniform List<scalar> 0();
    }
    open
    {
        type            calculated;
        value           nonuniform List<scalar> 0();
    }
    sides
    {
        type            empty;
    }
    procBoundary4to3
    {
        type            processor;
        value           uniform 0.908247358;
    }
    procBoundary4to5
    {
        type            processor;
        value           uniform 0.187587412;
    }
}


// ************************************************************************* //
