/*--------------------------------*- C++ -*----------------------------------*\
| =========                 |                                                 |
| \\      /  F ield         | OpenFOAM: The Open Source CFD Toolbox           |
|  \\    /   O peration     | Version:  2306                                  |
|   \\  /    A nd           | Website:  www.openfoam.com                      |
|    \\/     M anipulation  |                                                 |
\*---------------------------------------------------------------------------*/
FoamFile
{
    version     2.0;
    format      ascii;
    arch        "LSB;label=32;scalar=64";
    class       volScalarField;
    location    "0.00078";
    object      T;
}
// * * * * * * * * * * * * * * * * * * * * * * * * * * * * * * * * * * * * * //

dimensions      [0 0 0 1 0 0 0];

internalField   nonuniform List<scalar> 
531
(
337.978466
328.677572
319.588843
326.439397
338.064945
335.836052
326.07164
328.52382
338.583134
335.776848
327.210119
329.337143
338.812869
339.16896
328.915896
323.57705
328.740587
338.940901
335.181358
327.93246
329.085419
339.128188
339.453577
328.710719
322.849877
328.551994
338.952711
334.470618
327.635633
328.850102
339.29831
339.680312
328.815272
324.639493
328.931816
339.203907
339.294289
329.084185
325.412523
323.579804
328.695426
338.942059
340.277264
339.645534
339.99998
329.806777
326.737679
325.933973
324.355809
322.04463
328.4514
338.332644
340.592688
339.140479
328.544693
323.407573
328.85472
339.517735
339.078481
328.336607
322.986798
328.928913
339.631933
337.667211
329.064446
324.556888
323.742078
328.756723
339.551683
340.42559
339.935356
340.054765
329.200701
327.193908
325.264435
323.733344
329.19486
339.647469
337.471947
327.593389
323.448648
329.469906
339.575592
337.953044
327.700234
323.639118
329.544363
339.492218
338.768602
327.974836
323.934008
329.547029
339.539632
339.697464
329.185414
323.787471
323.947804
329.841233
339.779481
329.445663
324.547837
330.653484
339.77811
329.133156
325.079473
330.783027
339.538589
332.556498
324.360653
324.244057
334.947641
339.752396
329.211255
324.679044
329.063867
340.257091
340.382313
329.260794
324.15476
324.621069
330.940391
339.929507
339.96582
329.280508
323.594536
323.629928
329.673003
339.674851
331.81888
322.696079
328.596066
339.952338
330.080346
323.591629
332.02001
339.79443
328.887777
324.391512
332.615948
339.903885
328.923206
324.762592
329.957309
340.073688
340.249099
325.074005
321.672355
330.76352
339.767211
328.999483
324.889862
330.108651
339.992532
340.178899
325.160177
321.606854
329.492604
339.66509
340.322189
324.096901
321.539784
331.226829
339.732625
329.137176
326.007485
330.627932
340.061602
340.209687
325.300408
322.099577
329.563766
339.85761
340.419728
325.555197
323.018489
329.488651
340.123339
340.393617
329.19102
324.140559
326.448843
330.966293
340.245727
340.041356
327.374661
323.459529
329.461798
339.963769
340.150355
327.401625
320.364357
327.568166
339.587656
339.789717
339.294052
332.088415
326.192561
323.860259
323.12787
329.316459
339.868068
340.115834
323.679579
320.20498
329.651994
339.484144
329.242954
324.546956
332.354775
339.810621
329.035953
325.062969
333.565842
339.916783
329.108851
325.775193
330.26668
339.981557
340.153144
325.165264
321.505401
329.348863
339.708686
340.192859
325.417738
322.452377
329.342161
339.918235
340.186775
325.559447
322.407546
329.272197
339.986126
340.18917
324.908093
321.830891
329.976639
339.7803
329.279124
325.177085
329.858764
340.090875
340.203142
324.551489
320.489521
329.823532
339.654528
328.9711
324.056195
332.939865
339.871584
328.914124
325.037695
329.838565
340.152137
340.252465
324.570094
321.064408
330.583683
339.611796
328.993484
325.148368
330.195159
340.06115
340.136778
325.730215
322.452609
329.257092
339.784902
340.307897
326.937051
322.824945
322.963139
328.881145
340.224191
340.511201
339.659197
340.405179
338.916262
327.289393
323.853852
324.681971
321.076981
328.961623
339.390468
328.881369
322.091859
330.730952
339.456607
328.864723
324.468447
329.931832
339.513044
339.853869
323.024602
321.928263
336.736222
339.248909
329.943053
325.45351
333.959273
339.225625
332.946294
322.475867
322.308237
339.090594
339.633917
328.408166
325.087576
335.972856
339.381128
331.607586
322.881008
322.927265
339.274891
339.476058
330.347889
323.191524
323.672673
339.61932
339.545059
330.057977
323.173054
323.955278
339.728214
339.546435
329.789738
323.068324
324.237684
339.811494
339.559635
329.699809
323.455415
324.844276
339.855936
339.548578
329.573452
323.438999
325.07667
339.959706
339.58035
329.432208
323.55571
325.368815
340.01508
339.564683
329.180014
323.575171
324.987311
339.979048
339.802444
326.97781
326.386986
340.073134
339.72891
329.203187
323.142897
325.170822
340.001597
339.677237
329.706499
322.893043
324.713822
340.050991
339.493311
329.760994
321.198481
323.403311
339.977568
340.20738
339.677594
329.301557
321.017729
322.440116
340.327635
340.278312
328.827913
320.514575
322.118019
340.85323
340.29023
328.550293
316.867359
319.882286
340.316166
342.145698
340.720764
342.831187
342.058213
325.092125
314.240457
316.181141
343.248801
343.360186
320.294141
318.384082
340.930803
341.44991
339.737274
339.092084
337.585718
338.212668
338.207599
338.620282
338.912945
339.184677
339.505139
339.810768
340.27031
340.911809
341.85493
343.759293
346.844724
348.385134
345.379339
342.5196
340.048576
337.855674
336.205638
334.901053
333.038386
331.662898
331.492735
329.266663
328.017944
326.748915
326.354325
325.698612
321.929776
319.328163
316.164892
324.520766
341.258467
336.857801
329.32873
324.333547
317.056005
311.627602
304.75075
300
327.552594
336.689165
365.624879
388.570262
396.258486
407.550017
456.504289
483.367575
506.612134
561.951002
657.676175
706.992508
754.06519
843.582789
898.483529
937.215199
972.230678
1003.99154
1043.89529
1079.18521
1113.65901
1145.67338
1177.17842
1204.21837
1231.94719
1256.11727
1279.79196
1300.15467
1320.34198
1333.89587
1348.58449
1361.23051
1375.16257
1386.9351
1400.40321
1411.16715
1424.18346
1433.49552
1445.61228
1454.388
1465.38362
1474.68465
1485.66866
1494.43444
1504.14656
1512.94526
1524.73918
1533.40469
1539.73915
1545.40477
1551.26657
1556.64723
1562.24451
1567.26154
1572.48654
1577.41358
1582.47417
1587.1335
1591.75596
1596.17191
1601.41324
1606.49774
1611.4031
1615.84069
1620.09756
1623.78758
1627.51432
1630.95315
1634.5665
1638.03345
1641.66612
1645.04634
1648.62902
1651.70361
1654.82397
1657.93942
1661.28721
1664.21354
1667.38867
1670.21701
1673.30562
1675.94762
1678.82688
1681.26138
1683.92399
1686.16532
1688.59879
1690.45823
1692.56543
1694.32966
1696.34936
)
;

boundaryField
{
    closed
    {
        type            fixedValue;
        value           nonuniform List<scalar> 0();
    }
    open
    {
        type            zeroGradient;
    }
    sides
    {
        type            empty;
    }
    procBoundary4to3
    {
        type            processor;
        value           uniform 339.54284;
    }
    procBoundary4to5
    {
        type            processor;
        value           uniform 1698.02589;
    }
}


// ************************************************************************* //
