/*--------------------------------*- C++ -*----------------------------------*\
| =========                 |                                                 |
| \\      /  F ield         | OpenFOAM: The Open Source CFD Toolbox           |
|  \\    /   O peration     | Version:  2306                                  |
|   \\  /    A nd           | Website:  www.openfoam.com                      |
|    \\/     M anipulation  |                                                 |
\*---------------------------------------------------------------------------*/
FoamFile
{
    version     2.0;
    format      ascii;
    arch        "LSB;label=32;scalar=64";
    class       volScalarField;
    location    "0.00044";
    object      prefDh_H;
}
// * * * * * * * * * * * * * * * * * * * * * * * * * * * * * * * * * * * * * //

dimensions      [1 1 -3 0 0 0 0];

internalField   nonuniform List<scalar> 
530
(
23639.8296
23432.6226
23393.2219
23393.1446
23393.1165
23393.1163
23393.1163
23393.1163
23393.1163
23393.1163
23393.1163
23393.1163
23393.1163
23393.1163
23393.1163
23393.1163
23393.1163
23393.1163
23393.1163
23393.1163
23393.1163
23393.1163
23393.1163
23393.1163
23393.1163
23393.1163
23393.1163
23393.1163
23393.1163
23393.1163
23393.1163
23393.1163
23393.1163
23393.1163
23393.1163
23393.1163
23393.1163
23393.1163
23393.1163
23393.1163
23393.1163
23393.1163
23393.1163
23393.1163
23393.1163
23393.1163
23393.1163
23393.1163
23393.1163
23393.1163
23393.1163
23393.1163
23393.1163
23393.1163
23393.1163
23393.1163
23393.1163
23393.1163
23393.1163
23393.1163
23393.1163
23393.1163
23393.1163
23393.1163
23393.1163
23393.1163
23393.1163
23393.1163
23393.1163
23393.1163
23393.1163
23393.1163
23393.1163
23393.1163
23393.1163
23393.1163
23393.1163
23393.1164
23393.1166
23393.1169
23393.1185
23393.1205
23393.1295
23393.1424
23393.1869
23393.2144
23393.3415
23393.5315
23393.9425
23393.6777
23392.6877
23393.25
23406.5485
23407.3367
23375.9698
23377.4229
23452.618
23520.184
23387.7955
23284.2357
23214.748
23390.0783
23966.1249
23980.7409
23526.2628
23207.5297
23067.8516
23386.8824
23960.789
23958.6685
23199.8435
22980.883
23383.3917
23947.8014
23962.3513
23273.8764
23420.0016
23979.8219
23936.6335
23142.9733
22900.1394
23383.2053
23943.1505
23964.1716
23260.5906
23412.6969
23976.04
23937.4702
23162.9778
22929.5351
23385.4094
23942.0014
23963.1178
23246.501
23390.5726
23975.6814
23934.8929
23146.7649
22889.0415
23384.951
23940.6712
23963.223
23193.8537
23317.822
23974.0665
23940.6059
23200.3873
23333.204
23980.7812
23936.3481
23155.1551
22914.2595
23382.0192
23942.6167
23964.5278
23293.5737
23411.7186
23969.0939
23949.3844
23240.2829
23098.4898
23161.7716
23398.7449
23964.9275
23951.9106
23233.0558
22983.6914
23382.3018
23941.5882
23963.3142
23231.6863
23336.2562
23972.2406
23937.9819
23209.4903
23317.6483
23981.4026
23930.0504
23179.343
22873.9034
23382.8714
23933.8634
23954.8048
23224.6675
23349.3745
23969.7806
23925.6651
23183.1631
22870.2811
23390.9877
23926.0817
23943.2544
23149.7539
23272.9187
23951.8617
23909.8997
23102.4134
23220.1733
23954.5626
23898.6548
23072.7066
23200.8753
23953.5164
23897.1158
23091.4684
23219.6014
23955.7262
23902.559
23143.0544
23269.6133
23967.0383
23917.2524
23168.1633
22857.6746
23392.437
23927.2754
23935.273
23185.2015
23310.0134
23956.7303
23910.9108
23188.1189
23302.4834
23972.8396
23928.2989
23172.3916
22878.8612
23388.6785
23931.7756
23931.9564
23187.0592
23319.9649
23957.9563
23903.2654
23187.3745
23294.7073
23976.3761
23934.1115
23214.6487
22900.3186
23386.8582
23933.3408
23923.388
23215.2663
23322.9125
23971.6198
23941.9472
23275.0631
22938.8925
23382.6369
23935.0679
23916.9928
23264.2148
23340.7683
23968.4528
23963.654
23329.9648
23075.9916
23091.607
23374.23
23972.988
23974.4821
23387.3156
23195.5188
23408.2691
23961.6849
23880.9222
23305.6702
23363.5429
23979.825
23968.8914
23371.2406
23146.3054
23259.9732
23170.8418
23364.7498
23960.4083
23986.0378
23375.6227
23231.2872
23368.6399
23971.7624
23986.196
23368.3437
23007.1191
23360.2758
23953.4839
23991.9479
23365.1363
23041.366
23368.4432
23950.6445
23981.5513
23363.4418
22989.3863
23371.8154
23937.7442
24003.38
23337.6273
23271.2551
23935.1647
23968.7536
23319.6258
22954.3693
23361.359
23938.4164
24018.4718
23382.8713
23348.192
23936.0277
23991.9709
23371.4416
23362.5996
23382.42
23388.0099
23299.0406
23365.1272
23952.432
24002.0708
23376.854
23362.3046
23923.3124
23909.8857
23185.486
23250.7926
23924.4252
23956.3631
23300.5015
22970.8884
23342.8054
23914.8909
24020.1147
23286.7205
23367.8084
23929.994
23446.7624
23133.4411
23379.8968
23925.2117
23976.7938
23263.3567
22986.9992
23388.8356
23924.8157
23457.2601
23155.995
23374.8803
23922.4345
23979.2523
23363.4656
23078.7435
23379.7144
23917.7048
23970.8882
23328.4484
23023.381
23390.4634
23911.5332
23983.5686
23360.4437
23321.5565
23882.1054
23960.4864
23263.5197
22957.8602
23345.8549
23896.8432
23982.1263
23314.6148
23328.473
23887.267
23856.6506
23181.3221
23261.3045
23912.0473
23948.0856
23275.9145
22955.7382
23349.6841
23894.9045
23976.2671
23305.6023
23285.4641
23876.1286
23905.3609
23210.8282
23254.2949
23883.1024
23943.7792
23290.2738
22967.3512
23348.0708
23900.2318
23980.0601
23351.063
23301.519
23873.1644
23949.5441
23291.2012
22946.7403
23324.8781
23890.2865
23972.297
23293.9568
23206.8074
23854.6675
23959.8351
23250.1646
23171.815
23857.8039
23963.7987
23280.0942
23236.4587
23866.5278
23954.192
23313.707
22973.0871
23328.8688
23899.2834
23993.4207
23380.4412
23336.0298
23871.2749
23973.5249
23372.2402
23163.255
23175.946
23380.1693
23928.5179
23976.9689
23364.2627
23095.7529
23377.6159
23911.4223
23980.9297
23367.4428
23098.8764
23379.7324
23914.1174
23981.8161
23365.8805
23095.7196
23379.314
23916.5858
23986.2046
23357.5724
23074.8449
23361.7673
23914.8965
24007.3819
23378.0807
23365.2589
23371.3243
23380.6203
23373.1579
23936.4816
23982.0777
23359.9294
23013.1401
23226.8252
23897.6024
23993.0561
23381.8603
23282.1778
23852.1544
23952.4875
23375.1141
22970.676
23163.8292
23878.3811
23976.1099
23384.6212
23205.1984
23825.7345
23965.3134
23380.9674
23219.2847
23835.7996
23938.6181
23381.5895
22930.7087
23091.3021
23868.3518
23967.8462
23384.6976
23201.6669
23821.2049
23961.1257
23394.8054
23222.6917
23834.2516
23934.2958
23386.5897
22933.4829
23057.8182
23867.7528
23963.9202
23383.8983
23198.6688
23821.9396
23958.5852
23384.1477
23215.6785
23839.0211
23932.3618
23389.6384
22939.385
23016.1672
23870.5741
23960.6604
23373.7607
23165.9328
23822.1775
23953.4104
23361.7373
23138.4116
23821.441
23948.5644
23342.0491
23103.7759
23846.9161
23928.4533
23406.8872
22999.2072
23001.4979
23887.3559
23956.453
23422.1688
23181.4425
23867.5293
)
;

boundaryField
{
    closed
    {
        type            calculated;
        value           uniform 31655.2491;
    }
    open
    {
        type            calculated;
        value           nonuniform List<scalar> 0();
    }
    sides
    {
        type            empty;
    }
    procBoundary0to1
    {
        type            processor;
        value           uniform 23931.3931;
    }
}


// ************************************************************************* //
