/*--------------------------------*- C++ -*----------------------------------*\
| =========                 |                                                 |
| \\      /  F ield         | OpenFOAM: The Open Source CFD Toolbox           |
|  \\    /   O peration     | Version:  2306                                  |
|   \\  /    A nd           | Website:  www.openfoam.com                      |
|    \\/     M anipulation  |                                                 |
\*---------------------------------------------------------------------------*/
FoamFile
{
    version     2.0;
    format      ascii;
    arch        "LSB;label=32;scalar=64";
    class       volScalarField;
    location    "0.00168";
    object      mu;
}
// * * * * * * * * * * * * * * * * * * * * * * * * * * * * * * * * * * * * * //

dimensions      [1 -1 -1 0 0 0 0];

internalField   nonuniform List<scalar> 
530
(
2.02644389e-05
1.9753429e-05
1.95343419e-05
1.97400753e-05
2.03173633e-05
2.02654353e-05
1.97542293e-05
1.9537793e-05
1.97427339e-05
2.03168787e-05
2.02659959e-05
1.97545088e-05
1.95377544e-05
1.97441013e-05
2.03136486e-05
2.02685279e-05
1.97569509e-05
1.95190431e-05
1.97465214e-05
2.03126013e-05
2.02715204e-05
1.97529766e-05
1.94423232e-05
1.97081404e-05
2.02934732e-05
2.03058828e-05
2.02669939e-05
1.97373303e-05
1.94676823e-05
1.93955441e-05
1.95977995e-05
2.0296671e-05
2.02852573e-05
2.02835254e-05
2.0276766e-05
1.97742087e-05
1.97671194e-05
2.02999908e-05
2.02875883e-05
1.97713784e-05
1.96159954e-05
1.95425617e-05
1.9695686e-05
2.0295621e-05
2.02744386e-05
1.97580132e-05
1.94523403e-05
1.96280589e-05
2.02789409e-05
2.02940869e-05
1.97804872e-05
1.94883302e-05
1.93694443e-05
1.94762998e-05
2.02678086e-05
2.0299766e-05
2.02694179e-05
2.02948143e-05
2.02951684e-05
1.9755011e-05
1.9682536e-05
2.02771521e-05
2.02964392e-05
1.97619668e-05
1.9538967e-05
1.94593492e-05
1.95215297e-05
2.02880426e-05
2.0280739e-05
1.97644012e-05
1.9454889e-05
1.95433839e-05
2.02820401e-05
2.02855281e-05
1.97717361e-05
1.94994833e-05
1.95544159e-05
2.02784636e-05
2.0305545e-05
1.97719893e-05
1.97594013e-05
2.02747927e-05
2.03020072e-05
1.97810211e-05
1.96642877e-05
1.96625326e-05
1.95119734e-05
1.95190101e-05
2.02733727e-05
2.03006123e-05
2.02858046e-05
1.9783329e-05
1.94783252e-05
1.96172274e-05
2.0286773e-05
1.97706875e-05
1.96568021e-05
2.02737338e-05
2.03086187e-05
2.02806976e-05
1.97667531e-05
1.93666245e-05
1.95441893e-05
2.02810279e-05
1.97850444e-05
1.96046671e-05
2.02811827e-05
2.03097112e-05
1.9780185e-05
1.97375528e-05
2.02772521e-05
2.03094978e-05
1.98318087e-05
1.97467737e-05
1.95404293e-05
1.95523485e-05
2.02817243e-05
2.02917376e-05
1.97904019e-05
1.94898438e-05
1.95108712e-05
2.02828988e-05
2.02929014e-05
1.98004792e-05
1.94968432e-05
1.96558079e-05
2.02979502e-05
1.98073654e-05
1.97296526e-05
2.02951456e-05
2.03086199e-05
1.98312268e-05
1.97563191e-05
1.95585756e-05
1.95774049e-05
2.02880695e-05
2.02891457e-05
1.97990866e-05
1.95057557e-05
1.95352851e-05
2.02867717e-05
2.02900913e-05
1.97925059e-05
1.94765486e-05
1.95088686e-05
2.02907059e-05
2.02925442e-05
1.97991511e-05
1.94838263e-05
1.96557957e-05
2.03047011e-05
1.9809739e-05
1.97178372e-05
2.03049251e-05
2.03144535e-05
1.98176962e-05
1.97497361e-05
1.95770877e-05
1.97274578e-05
2.0306033e-05
1.98191574e-05
1.97531659e-05
2.02950221e-05
2.03138109e-05
1.985133e-05
1.9752981e-05
1.95371322e-05
1.95467386e-05
2.02922055e-05
2.02956679e-05
1.98129693e-05
1.9523361e-05
1.96837568e-05
2.03013963e-05
1.98212544e-05
1.97464622e-05
2.0289756e-05
2.03091727e-05
1.98447689e-05
1.9757197e-05
1.956635e-05
1.9567849e-05
2.02820983e-05
2.02856428e-05
1.98244152e-05
1.95488076e-05
1.95495593e-05
2.02794203e-05
2.02858718e-05
1.98247204e-05
1.95695089e-05
1.95700176e-05
2.02804307e-05
2.0293407e-05
1.98110906e-05
1.96390525e-05
1.96580978e-05
1.94918777e-05
1.95698649e-05
2.0289757e-05
1.98053862e-05
1.9612781e-05
2.0281215e-05
2.0313396e-05
1.97863404e-05
1.96965702e-05
2.02809281e-05
2.03129304e-05
1.9787669e-05
1.97246372e-05
1.95307647e-05
1.95753786e-05
2.0287528e-05
1.98003868e-05
1.95757571e-05
2.02752058e-05
2.03104412e-05
1.9777541e-05
1.95925564e-05
2.02638094e-05
2.03150668e-05
1.97668112e-05
1.95859043e-05
2.02587732e-05
2.03131877e-05
1.97767928e-05
1.9600983e-05
2.02593367e-05
2.03066203e-05
1.98005162e-05
1.96204197e-05
2.02740834e-05
2.02844367e-05
1.97829095e-05
1.93877482e-05
1.9395722e-05
2.02572779e-05
2.0295043e-05
1.97995182e-05
1.9622183e-05
2.02731145e-05
2.0283609e-05
1.97858204e-05
1.94251288e-05
1.94313296e-05
2.02580175e-05
2.0295831e-05
1.97988656e-05
1.96531861e-05
2.02702045e-05
2.0286326e-05
1.97951892e-05
1.94854404e-05
1.94873369e-05
2.02679479e-05
2.02753899e-05
1.98025243e-05
1.94599603e-05
1.94642528e-05
2.026035e-05
2.0293966e-05
1.97953529e-05
1.96568666e-05
2.02714704e-05
2.02844428e-05
1.97957781e-05
1.94308636e-05
1.94354791e-05
2.02577559e-05
2.02962852e-05
2.02610057e-05
1.97711046e-05
1.94737452e-05
1.94798352e-05
2.02564382e-05
2.02973156e-05
1.97973096e-05
1.96806626e-05
1.95353874e-05
1.95388332e-05
2.02461868e-05
2.02971303e-05
1.97996516e-05
1.96846042e-05
2.02538259e-05
1.97640842e-05
1.93773408e-05
2.00959393e-05
2.02609043e-05
2.0276573e-05
2.02661074e-05
1.9784467e-05
1.9339004e-05
1.93472003e-05
2.02466166e-05
2.02864272e-05
1.97208184e-05
1.94805529e-05
2.02685098e-05
2.02792466e-05
1.98093966e-05
1.94822131e-05
1.94840022e-05
2.02660886e-05
2.02741668e-05
1.98242327e-05
1.95149669e-05
1.95163137e-05
2.02697799e-05
2.0279781e-05
1.98103641e-05
1.95084664e-05
1.95099601e-05
2.02727823e-05
2.02788437e-05
1.97994835e-05
1.94761669e-05
1.94803042e-05
2.02642567e-05
2.03009008e-05
1.97915128e-05
1.96566886e-05
2.02737801e-05
2.02910397e-05
1.97874292e-05
1.9496873e-05
1.94989413e-05
2.02725693e-05
2.02876979e-05
1.97885105e-05
1.94686216e-05
1.94719509e-05
2.02726471e-05
2.03108471e-05
1.97929988e-05
1.96939626e-05
1.96120807e-05
1.96320701e-05
2.02808123e-05
2.03131407e-05
1.97849746e-05
1.97475166e-05
2.0275109e-05
2.03021147e-05
1.97864792e-05
1.94959112e-05
1.9497504e-05
2.02627777e-05
2.02848076e-05
1.97877567e-05
1.94526201e-05
1.94578498e-05
2.02476781e-05
2.02982389e-05
1.9792852e-05
1.96664829e-05
2.0256655e-05
2.02840601e-05
1.98028318e-05
1.95595004e-05
1.95610941e-05
2.02446255e-05
2.02956947e-05
1.98000847e-05
1.96447146e-05
1.94702433e-05
1.94756383e-05
2.02451864e-05
2.03049911e-05
1.97919765e-05
1.96208531e-05
2.02537532e-05
2.03050532e-05
1.97780191e-05
1.97102294e-05
1.95601412e-05
1.96054266e-05
2.02778011e-05
1.97887906e-05
1.95700628e-05
2.02490258e-05
2.03058499e-05
1.97743537e-05
1.95820658e-05
2.0241063e-05
2.03085315e-05
1.97629655e-05
1.95739706e-05
2.02357386e-05
2.03068475e-05
1.97701427e-05
1.95821355e-05
2.02340883e-05
2.03046996e-05
1.97831829e-05
1.95985925e-05
2.02361397e-05
2.02995975e-05
1.9794899e-05
1.96012551e-05
2.02448228e-05
2.02826553e-05
1.97734869e-05
1.93673729e-05
1.93784448e-05
2.02225311e-05
2.0299788e-05
1.97783608e-05
1.95499322e-05
2.02321996e-05
2.0302208e-05
1.97677047e-05
1.95803938e-05
2.0235523e-05
2.02976137e-05
1.97962307e-05
1.95924385e-05
2.02439243e-05
2.02815279e-05
1.9774195e-05
1.93749968e-05
1.93858784e-05
2.02239059e-05
2.02998948e-05
1.97887332e-05
1.95597198e-05
2.0233613e-05
2.03049049e-05
1.97817063e-05
1.95924353e-05
2.02378096e-05
2.03054061e-05
1.97969658e-05
1.96352025e-05
2.024319e-05
2.02996411e-05
1.97865683e-05
1.96574576e-05
1.95099901e-05
1.95132578e-05
2.02268026e-05
2.02878953e-05
2.02489122e-05
2.0292314e-05
1.98453272e-05
1.96285051e-05
1.9396585e-05
1.94036874e-05
2.02405303e-05
2.02959861e-05
1.97314143e-05
1.95160221e-05
2.02403213e-05
2.0283837e-05
1.97740102e-05
1.94126322e-05
1.94200986e-05
2.02252687e-05
2.02907293e-05
1.98005384e-05
1.96527537e-05
2.02354498e-05
2.02807955e-05
1.97960804e-05
1.9546842e-05
1.95492773e-05
2.02292084e-05
2.02833774e-05
1.98074086e-05
1.95266024e-05
1.9528724e-05
2.02336172e-05
2.02848488e-05
1.97894524e-05
1.94808984e-05
1.94846879e-05
2.0230604e-05
2.02998228e-05
1.97875864e-05
1.96397708e-05
2.02435936e-05
2.02929718e-05
1.97797605e-05
1.95014517e-05
1.9503882e-05
2.02368088e-05
2.02917292e-05
1.97780197e-05
1.94519159e-05
1.94559232e-05
2.02344122e-05
2.03006577e-05
1.97776839e-05
1.96059846e-05
2.02506482e-05
2.02923929e-05
1.97648471e-05
1.94516228e-05
1.94565396e-05
2.02329696e-05
2.03071035e-05
1.97818192e-05
1.96197866e-05
2.02456264e-05
2.0303505e-05
1.9778201e-05
1.96606022e-05
2.0250235e-05
2.02938687e-05
1.97802695e-05
1.9540736e-05
1.95418697e-05
2.02410149e-05
2.02923293e-05
1.97938444e-05
1.95291003e-05
1.95301762e-05
2.02422902e-05
2.0292552e-05
1.97902673e-05
1.95235281e-05
1.95246061e-05
2.02450115e-05
2.02931672e-05
1.97901432e-05
1.9523295e-05
1.95240026e-05
2.02479677e-05
2.02940431e-05
1.97898856e-05
)
;

boundaryField
{
    closed
    {
        type            calculated;
        value           nonuniform List<scalar> 0();
    }
    open
    {
        type            calculated;
        value           nonuniform List<scalar> 0();
    }
    sides
    {
        type            empty;
    }
    procBoundary2to1
    {
        type            processor;
        value           uniform 2.03177852e-05;
    }
    procBoundary2to3
    {
        type            processor;
        value           uniform 1.95228855e-05;
    }
}


// ************************************************************************* //
