/*--------------------------------*- C++ -*----------------------------------*\
| =========                 |                                                 |
| \\      /  F ield         | OpenFOAM: The Open Source CFD Toolbox           |
|  \\    /   O peration     | Version:  2306                                  |
|   \\  /    A nd           | Website:  www.openfoam.com                      |
|    \\/     M anipulation  |                                                 |
\*---------------------------------------------------------------------------*/
FoamFile
{
    version     2.0;
    format      ascii;
    arch        "LSB;label=32;scalar=64";
    class       volScalarField;
    location    "0.00168";
    object      prefDPV_T;
}
// * * * * * * * * * * * * * * * * * * * * * * * * * * * * * * * * * * * * * //

dimensions      [1 -1 -1 -1 0 0 0];

internalField   nonuniform List<scalar> 
530
(
6.09732437e-10
5.92396539e-10
5.89789618e-10
5.90940345e-10
6.08600723e-10
6.09723538e-10
5.92393705e-10
5.89832155e-10
5.91092643e-10
6.08632441e-10
6.09706109e-10
5.92392874e-10
5.8986792e-10
5.91143793e-10
6.08733144e-10
6.0969754e-10
5.92121058e-10
5.89768957e-10
5.90951012e-10
6.08891213e-10
6.09767972e-10
5.91592026e-10
5.89311509e-10
5.90485748e-10
6.09418738e-10
6.0817175e-10
6.1009545e-10
5.91025018e-10
5.89403071e-10
5.88899899e-10
5.89896299e-10
6.09946777e-10
6.0918811e-10
6.0926451e-10
6.09885543e-10
5.91927182e-10
5.91787963e-10
6.09258604e-10
6.0911545e-10
5.92019992e-10
5.90338148e-10
5.89909494e-10
5.90757834e-10
6.09594515e-10
6.09551648e-10
5.91993271e-10
5.89519653e-10
5.90238299e-10
6.09832582e-10
6.0929992e-10
5.91874534e-10
5.89509786e-10
5.88926892e-10
5.89305061e-10
6.10942109e-10
6.08808106e-10
6.10097242e-10
6.08592587e-10
6.09075373e-10
5.91032625e-10
5.90681521e-10
6.10599971e-10
6.09114549e-10
5.91957162e-10
5.89865669e-10
5.89350013e-10
5.89788658e-10
6.10080266e-10
6.09368131e-10
5.93297941e-10
5.89469639e-10
5.89860946e-10
6.10029717e-10
6.09123492e-10
5.94479914e-10
5.897076e-10
5.89846982e-10
6.09959932e-10
6.08564036e-10
5.93038229e-10
5.91634862e-10
6.10386859e-10
6.08379597e-10
5.95394385e-10
5.90604259e-10
5.90507846e-10
5.89741022e-10
5.89639098e-10
6.10462875e-10
6.08259604e-10
6.08743089e-10
5.95863561e-10
5.8955221e-10
5.90259073e-10
6.10244957e-10
5.94199092e-10
5.90444703e-10
6.1143637e-10
6.08090303e-10
6.0918747e-10
5.94604768e-10
5.888894e-10
5.89764617e-10
6.10509219e-10
5.95802946e-10
5.90171096e-10
6.10909732e-10
6.08474583e-10
5.92016821e-10
5.9089093e-10
6.10782307e-10
6.08093797e-10
5.98607472e-10
5.90948915e-10
5.89980972e-10
5.89814166e-10
6.1053836e-10
6.08871816e-10
5.96025893e-10
5.89599034e-10
5.89564983e-10
6.10642205e-10
6.08921509e-10
5.9687929e-10
5.89557621e-10
5.90511737e-10
6.09790029e-10
5.97393488e-10
5.90876537e-10
6.10566071e-10
6.08081141e-10
5.98605141e-10
5.91086501e-10
5.90127741e-10
5.89974703e-10
6.10337523e-10
6.08794497e-10
5.96630264e-10
5.89745815e-10
5.89724739e-10
6.10545174e-10
6.08881918e-10
5.9599716e-10
5.89551455e-10
5.89566562e-10
6.10523198e-10
6.08895457e-10
5.96712292e-10
5.89488596e-10
5.9052198e-10
6.09598283e-10
5.97558296e-10
5.90799562e-10
6.10374275e-10
6.08007964e-10
5.97899526e-10
5.91075907e-10
5.9009256e-10
5.90901313e-10
6.09373766e-10
5.98130911e-10
5.91152251e-10
6.10600288e-10
6.07952715e-10
5.99670565e-10
5.91230435e-10
5.90017733e-10
5.89785308e-10
6.10408805e-10
6.08736599e-10
5.97676501e-10
5.89700293e-10
5.90717629e-10
6.09606521e-10
5.98239904e-10
5.90973716e-10
6.10799293e-10
6.08002087e-10
5.99282477e-10
5.9141171e-10
5.90229955e-10
5.89978949e-10
6.10513835e-10
6.08716303e-10
5.98212859e-10
5.90027616e-10
5.89910747e-10
6.10705661e-10
6.08713214e-10
5.98191248e-10
5.90123893e-10
5.90032392e-10
6.10600358e-10
6.08547714e-10
5.97490746e-10
5.90398178e-10
5.90529592e-10
5.89561638e-10
5.90074013e-10
6.10103701e-10
5.9704694e-10
5.9015431e-10
6.1110909e-10
6.0828676e-10
5.92163664e-10
5.90584247e-10
6.10927282e-10
6.08131068e-10
5.95198894e-10
5.9087182e-10
5.89843245e-10
5.90106571e-10
6.10164389e-10
5.96558073e-10
5.89949014e-10
6.11306199e-10
6.08541968e-10
5.91547053e-10
5.89943824e-10
6.11593716e-10
6.08504696e-10
5.91556131e-10
5.89896509e-10
6.11758002e-10
6.08523463e-10
5.91649319e-10
5.90030151e-10
6.11725551e-10
6.08544185e-10
5.91732885e-10
5.90283377e-10
6.11364221e-10
6.08984618e-10
5.94688135e-10
5.89166853e-10
5.88901729e-10
6.1158553e-10
6.08861989e-10
5.92259856e-10
5.90330636e-10
6.11334386e-10
6.08935625e-10
5.95062115e-10
5.89386978e-10
5.89124521e-10
6.11426603e-10
6.08747185e-10
5.92592278e-10
5.90505701e-10
6.11251369e-10
6.08773696e-10
5.95745758e-10
5.89696705e-10
5.89583343e-10
6.11170543e-10
6.09074666e-10
5.96537871e-10
5.89588262e-10
5.8935178e-10
6.11284354e-10
6.08710869e-10
5.92506216e-10
5.90556361e-10
6.11166315e-10
6.08854089e-10
5.95951298e-10
5.89362846e-10
5.89167931e-10
6.11499189e-10
6.08460956e-10
6.09059478e-10
5.947073e-10
5.89718901e-10
5.89337826e-10
6.11072939e-10
6.08579983e-10
5.95148525e-10
5.9064639e-10
5.901122e-10
5.89777291e-10
6.11216482e-10
6.08551715e-10
5.91793887e-10
5.90665191e-10
6.11722405e-10
5.93611164e-10
5.89152237e-10
6.08706936e-10
6.09676902e-10
6.09593947e-10
6.09536634e-10
5.95118264e-10
5.88882755e-10
5.88647119e-10
6.11222213e-10
6.09140303e-10
5.91209607e-10
5.89487393e-10
6.11604972e-10
6.09097885e-10
5.96834706e-10
5.89708968e-10
5.89600788e-10
6.10969103e-10
6.08988298e-10
5.98022954e-10
5.89887231e-10
5.89748514e-10
6.10948952e-10
6.08906721e-10
5.97119664e-10
5.89810208e-10
5.8969504e-10
6.10893911e-10
6.08965831e-10
5.96499102e-10
5.89647189e-10
5.89385463e-10
6.11040551e-10
6.08602218e-10
5.92274506e-10
5.90481706e-10
6.10944706e-10
6.08661257e-10
5.95351711e-10
5.89697353e-10
5.89550768e-10
6.10956875e-10
6.08908124e-10
5.95787759e-10
5.89494215e-10
5.89252203e-10
6.10984452e-10
6.08423857e-10
5.96028387e-10
5.90530985e-10
5.90310731e-10
5.90226421e-10
6.097427e-10
6.07951144e-10
5.94469323e-10
5.90891892e-10
6.10814229e-10
6.08409002e-10
5.95478752e-10
5.89646506e-10
5.89520823e-10
6.11310489e-10
6.08983884e-10
5.95494428e-10
5.8949264e-10
5.89226956e-10
6.11503679e-10
6.08661171e-10
5.92433804e-10
5.90586286e-10
6.11307917e-10
6.08640964e-10
5.96627286e-10
5.90188759e-10
5.89928819e-10
6.11419962e-10
6.08571296e-10
5.95696947e-10
5.90375814e-10
5.89639656e-10
5.89302705e-10
6.11878283e-10
6.08655113e-10
5.91652813e-10
5.90176068e-10
6.11605112e-10
6.08355383e-10
5.94094774e-10
5.90823588e-10
5.89981655e-10
5.90318058e-10
6.10271541e-10
5.95414269e-10
5.89923332e-10
6.11739204e-10
6.08577535e-10
5.91482581e-10
5.89905372e-10
6.12011278e-10
6.08564544e-10
5.91463706e-10
5.89856247e-10
6.12136789e-10
6.08588025e-10
5.91535544e-10
5.89928525e-10
6.12148753e-10
6.08582377e-10
5.91612358e-10
5.9006714e-10
6.12075192e-10
6.08611737e-10
5.91737649e-10
5.90183087e-10
6.11852006e-10
6.09042007e-10
5.93580524e-10
5.89061895e-10
5.8870477e-10
6.12370344e-10
6.08938919e-10
5.91633259e-10
5.89764387e-10
6.12249676e-10
6.08679231e-10
5.9152784e-10
5.89968686e-10
6.12132468e-10
6.08669498e-10
5.91668495e-10
5.90141803e-10
6.11867161e-10
6.09057742e-10
5.93563888e-10
5.8912145e-10
5.88753591e-10
6.12262478e-10
6.08903122e-10
5.91712884e-10
5.89812614e-10
6.12152682e-10
6.08611057e-10
5.91617564e-10
5.89991295e-10
6.12026514e-10
6.08501361e-10
5.91935296e-10
5.90291676e-10
6.11743481e-10
6.08464245e-10
5.94323398e-10
5.90501651e-10
5.8990595e-10
5.89647577e-10
6.12278694e-10
6.08809939e-10
6.09673052e-10
6.08615117e-10
5.99291774e-10
5.90235672e-10
5.89154828e-10
5.88867674e-10
6.1228126e-10
6.08976469e-10
5.91238356e-10
5.89636102e-10
6.12050267e-10
6.09094848e-10
5.93295822e-10
5.89322233e-10
5.89010322e-10
6.11914709e-10
6.08791653e-10
5.92547578e-10
5.90551238e-10
6.1155668e-10
6.08714666e-10
5.95781638e-10
5.90137605e-10
5.8987865e-10
6.1169478e-10
6.08825381e-10
5.96741918e-10
5.89941073e-10
5.89737063e-10
6.11728932e-10
6.08907613e-10
5.95562224e-10
5.89644098e-10
5.89352346e-10
6.11763388e-10
6.0862315e-10
5.92337999e-10
5.90363065e-10
6.11389348e-10
6.08658758e-10
5.94742092e-10
5.8970654e-10
5.89490994e-10
6.11605886e-10
6.08893239e-10
5.94661131e-10
5.89380222e-10
5.89139507e-10
6.11646897e-10
6.08686936e-10
5.91888399e-10
5.90152439e-10
6.11275002e-10
6.08776084e-10
5.93644901e-10
5.89402153e-10
5.89082467e-10
6.11584425e-10
6.08592714e-10
5.91723452e-10
5.90158091e-10
6.11302231e-10
6.08361184e-10
5.9183383e-10
5.90480792e-10
6.11018672e-10
6.08537457e-10
5.9498688e-10
5.89923058e-10
5.89723803e-10
6.11171976e-10
6.08699385e-10
5.96129378e-10
5.89829539e-10
5.89656445e-10
6.11130238e-10
6.08721618e-10
5.95875952e-10
5.89784433e-10
5.89614545e-10
6.11016442e-10
6.0871907e-10
5.95915505e-10
5.89771426e-10
5.89605583e-10
6.10904966e-10
6.08708658e-10
5.95936213e-10
)
;

boundaryField
{
    closed
    {
        type            calculated;
        value           nonuniform List<scalar> 0();
    }
    open
    {
        type            calculated;
        value           nonuniform List<scalar> 0();
    }
    sides
    {
        type            empty;
    }
    procBoundary2to1
    {
        type            processor;
        value           uniform 6.08570887e-10;
    }
    procBoundary2to3
    {
        type            processor;
        value           uniform 5.89752326e-10;
    }
}


// ************************************************************************* //
