/*--------------------------------*- C++ -*----------------------------------*\
| =========                 |                                                 |
| \\      /  F ield         | OpenFOAM: The Open Source CFD Toolbox           |
|  \\    /   O peration     | Version:  2306                                  |
|   \\  /    A nd           | Website:  www.openfoam.com                      |
|    \\/     M anipulation  |                                                 |
\*---------------------------------------------------------------------------*/
FoamFile
{
    version     2.0;
    format      ascii;
    arch        "LSB;label=32;scalar=64";
    class       volScalarField;
    location    "0.00142";
    object      mu;
}
// * * * * * * * * * * * * * * * * * * * * * * * * * * * * * * * * * * * * * //

dimensions      [1 -1 -1 0 0 0 0];

internalField   nonuniform List<scalar> 
531
(
1.96242555e-05
1.94370722e-05
1.97372696e-05
2.02817926e-05
2.03227048e-05
2.02571683e-05
2.03094127e-05
2.01751938e-05
1.96520817e-05
1.9503112e-05
1.95062959e-05
1.97828035e-05
2.03045161e-05
2.01741309e-05
1.9545541e-05
1.97901995e-05
2.03085574e-05
2.02528238e-05
2.03007959e-05
2.02395015e-05
1.96424136e-05
1.94463292e-05
1.96204631e-05
1.94699208e-05
1.97473777e-05
2.03133906e-05
2.03104812e-05
1.98210592e-05
1.95833574e-05
1.9755383e-05
2.03218582e-05
2.0013168e-05
1.95248696e-05
1.97497517e-05
2.03208444e-05
2.0318814e-05
1.98386571e-05
1.96760543e-05
1.9750842e-05
2.03258498e-05
2.031353e-05
1.97576209e-05
1.95858782e-05
1.9600881e-05
1.95885029e-05
1.94037212e-05
1.97318281e-05
2.03025795e-05
2.03010048e-05
2.02903578e-05
2.02888191e-05
2.02738785e-05
2.00087598e-05
1.95646235e-05
1.95238441e-05
1.9434035e-05
1.97852947e-05
2.03029326e-05
2.02799573e-05
1.96155457e-05
1.97458641e-05
2.03113113e-05
2.02985807e-05
1.97238944e-05
1.95119413e-05
1.97612083e-05
2.03001504e-05
2.03065102e-05
1.96606807e-05
1.94767305e-05
1.95954809e-05
1.93826156e-05
1.97376794e-05
2.02709888e-05
2.03249374e-05
2.02431534e-05
2.03205059e-05
2.0250693e-05
1.97482567e-05
1.94175967e-05
1.97598389e-05
2.02873592e-05
2.03084635e-05
1.96688687e-05
1.94086573e-05
1.97751398e-05
2.03001154e-05
2.02989154e-05
1.95877899e-05
1.93462451e-05
1.97445955e-05
2.03009907e-05
2.03166171e-05
1.98321255e-05
1.96719616e-05
1.97735586e-05
2.03100278e-05
2.03085097e-05
1.96044017e-05
1.94764121e-05
1.94147865e-05
1.97619464e-05
2.02957798e-05
1.99577669e-05
1.9513853e-05
1.97578791e-05
2.03010187e-05
1.99677842e-05
1.96001304e-05
1.97519065e-05
2.02908535e-05
2.03216688e-05
1.9934667e-05
1.9700684e-05
1.95113534e-05
1.97691919e-05
2.03016874e-05
2.02818187e-05
1.96458507e-05
1.94211311e-05
1.97852643e-05
2.02832615e-05
1.9911628e-05
1.96593149e-05
1.9779473e-05
2.02512277e-05
2.03140951e-05
2.02296071e-05
1.97535768e-05
1.9537071e-05
1.96041803e-05
1.95776871e-05
1.9454405e-05
1.97547914e-05
2.03173814e-05
2.03111455e-05
1.97491291e-05
1.95079832e-05
1.97870608e-05
2.02942401e-05
1.99060491e-05
1.96475197e-05
1.97991412e-05
2.03016785e-05
1.99038272e-05
1.96287402e-05
1.97640476e-05
2.03049337e-05
2.02867232e-05
2.02960476e-05
2.00844055e-05
1.9715821e-05
1.95626505e-05
1.96194664e-05
1.95065184e-05
1.97494588e-05
2.0314528e-05
2.03227532e-05
1.97605373e-05
1.95559331e-05
1.95202193e-05
1.97469341e-05
2.03205532e-05
2.03177174e-05
1.98068956e-05
1.96091811e-05
1.97674401e-05
2.03137955e-05
1.99149002e-05
1.95718907e-05
1.97574469e-05
2.02993181e-05
2.02761053e-05
2.02922914e-05
2.02671053e-05
1.97612577e-05
1.95484307e-05
1.96123135e-05
1.95152112e-05
1.97803795e-05
2.02970115e-05
2.02479796e-05
1.97071771e-05
1.94304053e-05
1.94840831e-05
1.99198082e-05
2.02948052e-05
2.02999849e-05
1.98190612e-05
1.97406739e-05
1.97808524e-05
2.03069618e-05
2.03185176e-05
1.97675456e-05
1.95845132e-05
1.95327257e-05
1.9519909e-05
1.99300433e-05
2.0263135e-05
2.02896877e-05
2.00147444e-05
1.96999577e-05
1.9497979e-05
1.94744851e-05
1.97871513e-05
2.02997392e-05
2.00385456e-05
1.96775049e-05
1.96771088e-05
1.97932062e-05
1.97761302e-05
1.97487311e-05
2.00901826e-05
2.03208831e-05
1.97778416e-05
1.96481983e-05
2.00112451e-05
2.03053835e-05
1.97779232e-05
1.96895117e-05
2.00537307e-05
2.02800392e-05
1.98505938e-05
1.94849596e-05
1.94891467e-05
2.02593086e-05
2.02810636e-05
1.98075504e-05
1.94552214e-05
1.94592675e-05
2.00774543e-05
2.02986836e-05
1.97756771e-05
1.96234887e-05
2.00662097e-05
2.02807455e-05
1.98003335e-05
1.94281933e-05
1.94323732e-05
2.00609589e-05
2.0298444e-05
1.97702231e-05
1.95564317e-05
2.00090437e-05
2.02971633e-05
1.97740463e-05
1.96072573e-05
2.01259745e-05
2.03024972e-05
1.97888295e-05
1.96762504e-05
2.02160334e-05
2.02817579e-05
1.98048255e-05
1.94580244e-05
1.94643814e-05
2.02522757e-05
2.03062734e-05
1.97984702e-05
1.9703737e-05
2.01592573e-05
2.02968304e-05
1.98240001e-05
1.96523693e-05
1.94981969e-05
1.94998877e-05
1.99982542e-05
2.03007665e-05
2.03006176e-05
1.97590468e-05
1.96451601e-05
1.97883181e-05
2.02915129e-05
2.03164214e-05
1.98110661e-05
1.96031471e-05
1.9555541e-05
1.95434026e-05
1.93871824e-05
1.96030812e-05
2.0236039e-05
2.02761031e-05
2.0240042e-05
2.02748887e-05
2.02746865e-05
2.02770452e-05
1.97689086e-05
1.93424371e-05
1.93487893e-05
2.0103392e-05
2.0276201e-05
1.97737972e-05
1.9352799e-05
1.93969516e-05
1.99309159e-05
2.03008678e-05
2.02995401e-05
1.97545295e-05
1.94838214e-05
1.9530731e-05
1.94056732e-05
1.95509312e-05
2.01707037e-05
2.02923414e-05
2.02531538e-05
2.02969761e-05
2.0284595e-05
1.97899423e-05
1.95885243e-05
1.94234298e-05
1.94312248e-05
2.02317182e-05
2.02932404e-05
1.97917859e-05
1.97100561e-05
2.00935042e-05
2.02906959e-05
2.0264075e-05
1.98622668e-05
1.95674384e-05
1.95932067e-05
2.02587038e-05
2.02835586e-05
1.97789397e-05
1.94467861e-05
1.95412787e-05
2.02618554e-05
2.02820527e-05
1.97875203e-05
1.94878558e-05
1.95775391e-05
2.02774288e-05
2.02849388e-05
1.97945015e-05
1.95173589e-05
1.95959592e-05
2.02929787e-05
2.02874529e-05
1.97820323e-05
1.94877343e-05
1.95776316e-05
2.03009796e-05
2.02929614e-05
1.97610975e-05
1.93901073e-05
1.94709353e-05
2.02913705e-05
2.03112878e-05
1.96459941e-05
1.95215223e-05
2.02655396e-05
2.03368382e-05
1.95250146e-05
1.94776938e-05
2.02317741e-05
2.03834112e-05
2.03371753e-05
2.03975595e-05
2.0391139e-05
1.97564635e-05
1.9344297e-05
1.91502268e-05
1.93195973e-05
2.03753824e-05
2.04668272e-05
2.03941896e-05
1.94339339e-05
1.94082398e-05
2.03325736e-05
2.03909328e-05
2.0361061e-05
2.02931669e-05
1.93471204e-05
1.93246001e-05
2.02580434e-05
2.03060447e-05
2.02742526e-05
2.02940087e-05
2.02797471e-05
2.02895679e-05
2.02788144e-05
2.02871365e-05
2.02848577e-05
2.02964262e-05
2.03045355e-05
2.03281911e-05
2.03581988e-05
2.04133459e-05
2.05102019e-05
2.07256682e-05
2.06238467e-05
2.05106591e-05
2.04109473e-05
2.0313142e-05
2.02322939e-05
2.01532737e-05
2.00971213e-05
2.00446728e-05
1.99717583e-05
1.99021817e-05
1.99119523e-05
1.98623448e-05
1.98054877e-05
1.97452521e-05
1.97034531e-05
1.9669498e-05
1.96551134e-05
1.95544557e-05
1.9490669e-05
1.9298553e-05
1.92913868e-05
1.91196367e-05
2.07152208e-05
2.03915025e-05
2.03222414e-05
1.99493133e-05
1.97780945e-05
1.94762017e-05
1.92534859e-05
1.89854916e-05
1.87183889e-05
1.84926948e-05
1.84020265e-05
1.88367407e-05
1.88381211e-05
1.84601203e-05
1.91584328e-05
2.06366161e-05
2.08832692e-05
2.19466706e-05
2.39020885e-05
2.40748788e-05
2.48272362e-05
2.60449861e-05
2.68663763e-05
2.77547313e-05
2.92460225e-05
3.0721089e-05
3.24270557e-05
3.46293194e-05
3.59987574e-05
3.73888112e-05
3.91649815e-05
4.04417072e-05
4.15837315e-05
4.24811178e-05
4.3449062e-05
4.42894007e-05
4.52832458e-05
4.61006148e-05
4.68759803e-05
4.75058531e-05
4.807527e-05
4.85788634e-05
4.90829789e-05
4.95395891e-05
4.99884579e-05
5.03981215e-05
5.07911919e-05
5.11629056e-05
5.15165787e-05
5.18495334e-05
5.21743154e-05
5.24642718e-05
5.27958863e-05
5.30216762e-05
5.33408921e-05
5.36058137e-05
5.39063522e-05
5.41570427e-05
5.44117582e-05
5.4614719e-05
5.47859798e-05
5.49391867e-05
5.51054653e-05
5.5249628e-05
5.54080865e-05
5.5549341e-05
5.57128875e-05
5.58610043e-05
5.60133779e-05
5.61534177e-05
5.6310993e-05
5.64396035e-05
5.65659962e-05
5.66731395e-05
5.67849799e-05
5.68866685e-05
5.69937501e-05
5.70837745e-05
5.71770253e-05
5.72623394e-05
5.73506492e-05
5.74335346e-05
5.75200702e-05
5.76085483e-05
5.77074054e-05
5.77970124e-05
5.78812012e-05
5.79566492e-05
5.80343715e-05
5.81057133e-05
5.81791613e-05
5.82440694e-05
5.83095639e-05
5.83697905e-05
5.84318251e-05
5.84898001e-05
5.85501792e-05
5.86038356e-05
5.86594688e-05
5.87110654e-05
5.87650141e-05
5.88148057e-05
5.88672143e-05
5.89153988e-05
5.89703061e-05
5.90244555e-05
5.90808947e-05
5.91316657e-05
5.91844331e-05
5.9232246e-05
5.92817971e-05
5.93269834e-05
5.93736901e-05
5.94165707e-05
5.94607332e-05
5.94983889e-05
5.95367929e-05
5.95723004e-05
5.96092275e-05
)
;

boundaryField
{
    closed
    {
        type            calculated;
        value           nonuniform List<scalar> 0();
    }
    open
    {
        type            calculated;
        value           nonuniform List<scalar> 0();
    }
    sides
    {
        type            empty;
    }
    procBoundary4to3
    {
        type            processor;
        value           uniform 1.95417927e-05;
    }
    procBoundary4to5
    {
        type            processor;
        value           uniform 5.96432765e-05;
    }
}


// ************************************************************************* //
