/*--------------------------------*- C++ -*----------------------------------*\
| =========                 |                                                 |
| \\      /  F ield         | OpenFOAM: The Open Source CFD Toolbox           |
|  \\    /   O peration     | Version:  2306                                  |
|   \\  /    A nd           | Website:  www.openfoam.com                      |
|    \\/     M anipulation  |                                                 |
\*---------------------------------------------------------------------------*/
FoamFile
{
    version     2.0;
    format      ascii;
    arch        "LSB;label=32;scalar=64";
    class       surfaceScalarField;
    location    "0.00142";
    object      phi;
}
// * * * * * * * * * * * * * * * * * * * * * * * * * * * * * * * * * * * * * //

dimensions      [1 0 -1 0 0 0 0];

oriented        oriented;

internalField   nonuniform List<scalar> 
530
(
4.05441002e-07
3.8564299e-07
3.56601303e-07
2.96645048e-07
2.60785841e-07
2.0610202e-07
1.69981392e-07
3.51421122e-07
2.93887359e-07
1.83378919e-07
1.49495e-07
1.30598406e-07
6.22705273e-08
3.72960931e-07
3.07016663e-07
2.93565232e-07
2.33073371e-07
1.60908335e-07
9.93833553e-08
1.76121552e-07
9.58599621e-08
-6.37339221e-08
-1.08415024e-07
-1.69094128e-07
-2.27758879e-07
-2.90049524e-07
-3.42580282e-07
-4.0640697e-07
-4.66774771e-07
-5.16198345e-07
-5.59751638e-07
-4.57264102e-07
-5.00916364e-07
-5.2251248e-07
-5.53536891e-07
-5.81939842e-07
-6.07160854e-07
-6.23505626e-07
-6.37447079e-07
-6.52427983e-07
-6.62861769e-07
-6.71238076e-07
-6.69502273e-07
-6.66108897e-07
-6.50815647e-07
-6.20858565e-07
-6.18809437e-07
-6.00973303e-07
-5.93414052e-07
-5.6757623e-07
-5.58903653e-07
-5.34718142e-07
-4.59308014e-07
-4.98182689e-07
-5.04705689e-07
-4.63207208e-07
-4.52039998e-07
-4.34906116e-07
-3.04122305e-07
-3.07945488e-07
-3.9275592e-07
-3.75091434e-07
-3.58832485e-07
-3.60001132e-07
-3.28760741e-07
-3.0396105e-07
-2.7073336e-07
-2.27583923e-07
-2.20434613e-07
-1.84538698e-07
-1.08982728e-07
-5.92159346e-08
-1.64729336e-09
3.61981529e-08
9.56019323e-08
1.83775119e-07
2.36499691e-07
3.51944064e-07
4.02985493e-07
4.10857662e-07
4.41231845e-07
4.58004253e-07
5.15310696e-07
5.81166262e-07
5.96668016e-07
5.84718533e-07
5.67897552e-07
6.19107016e-07
6.12103422e-07
5.47095222e-07
4.78893875e-07
3.83041722e-07
2.9578107e-07
1.97926426e-07
7.0130062e-08
-7.65607477e-08
-1.9985881e-07
-2.7767026e-07
-4.68386097e-07
-6.33033958e-07
-7.61088098e-07
-9.03704045e-07
-1.04329675e-06
-1.13728586e-06
-1.29536037e-06
-1.41236142e-06
-1.52902841e-06
-1.5948906e-06
-1.71364269e-06
-1.78422875e-06
-1.79915712e-06
-1.86874446e-06
-1.93743269e-06
-2.02136799e-06
-2.00966629e-06
-2.0027111e-06
-1.97490869e-06
-1.89129651e-06
-1.96792047e-06
-1.93081844e-06
-1.84666045e-06
-1.81526933e-06
-1.77487285e-06
-1.7712917e-06
-1.70709047e-06
-1.62953783e-06
-1.58915328e-06
-1.45274539e-06
-1.41088364e-06
-1.45981064e-06
-1.42991304e-06
-1.40259669e-06
-1.35523153e-06
-1.34460072e-06
-1.32469863e-06
-1.34459435e-06
-1.35817685e-06
-1.35285997e-06
-1.33526946e-06
-1.33201202e-06
-1.34045841e-06
-1.38147494e-06
-1.37408438e-06
-1.37358753e-06
-1.37206403e-06
-1.40164835e-06
-1.37664076e-06
-1.34284918e-06
-1.34358401e-06
-1.31304109e-06
-1.17255612e-06
-1.23043011e-06
-1.27014685e-06
-1.21336851e-06
-1.15867487e-06
-1.12550883e-06
-1.05886923e-06
-1.03235007e-06
-1.00848957e-06
-9.64253899e-07
-8.96859545e-07
-8.61471297e-07
-8.05427036e-07
-7.87715028e-07
-7.98310954e-07
-8.04608695e-07
-7.90114103e-07
-7.76535699e-07
-7.31752705e-07
-7.83178723e-07
-7.76640487e-07
-7.51261392e-07
-7.31869314e-07
-7.10841738e-07
-6.29885272e-07
-6.08308302e-07
-6.56884333e-07
-5.80697112e-07
-5.28406873e-07
-4.7829117e-07
-3.97143863e-07
-1.44756273e-07
-1.0857359e-07
-7.6531542e-08
8.07909521e-08
2.3571798e-07
4.00324251e-07
5.6473205e-07
7.49842375e-07
8.86726049e-07
1.04384074e-06
1.22026e-06
1.38892542e-06
1.56096425e-06
1.73113154e-06
1.88847462e-06
2.00156504e-06
2.0241532e-06
2.09079895e-06
2.16648403e-06
2.37931442e-06
2.43332937e-06
2.44495666e-06
2.43228912e-06
2.3008578e-06
2.23383718e-06
2.43586018e-06
2.3698458e-06
2.20826551e-06
2.06279807e-06
1.9412899e-06
1.80147828e-06
1.80533288e-06
1.69083616e-06
1.56862797e-06
1.42088671e-06
1.39105339e-06
1.31765331e-06
1.23845588e-06
1.12899035e-06
1.19746841e-06
1.17564954e-06
1.15409794e-06
1.07655778e-06
1.05161721e-06
1.21952949e-06
1.25418864e-06
1.27506965e-06
1.27258095e-06
1.2858169e-06
1.45306539e-06
1.50484279e-06
1.55434195e-06
1.53434817e-06
1.66282828e-06
1.68474683e-06
1.69397352e-06
1.6708702e-06
1.63550184e-06
1.68714868e-06
1.67607431e-06
1.65666941e-06
1.5741914e-06
1.58568233e-06
1.55935714e-06
1.52689134e-06
1.42853246e-06
1.54832332e-06
1.50855696e-06
1.48638156e-06
1.37901215e-06
1.6218636e-06
1.56883468e-06
1.5033099e-06
1.38507671e-06
1.29447835e-06
1.36183418e-06
1.32323776e-06
1.29518519e-06
1.19401669e-06
1.37698224e-06
1.35802487e-06
1.32025179e-06
1.31040261e-06
1.3043873e-06
1.32486678e-06
1.33820853e-06
1.38430179e-06
1.43267155e-06
1.4907313e-06
1.52221348e-06
1.55689643e-06
1.64198548e-06
1.72973277e-06
1.83621065e-06
1.94504275e-06
2.03987098e-06
2.13791072e-06
2.16180976e-06
2.08790341e-06
2.2034502e-06
2.26051296e-06
2.32320911e-06
2.37260585e-06
2.39611719e-06
2.41353953e-06
2.44146991e-06
2.40906079e-06
2.30628672e-06
2.35984836e-06
2.3203639e-06
2.26747358e-06
2.20266823e-06
2.05710378e-06
1.86913441e-06
1.7344649e-06
1.56086573e-06
1.38528889e-06
1.18373424e-06
9.87786023e-07
6.64972482e-07
3.7320568e-07
2.94415223e-07
4.31648181e-08
-2.24622223e-07
-4.67818524e-07
-7.72610534e-07
-1.03432536e-06
-1.31598417e-06
-1.6070933e-06
-1.77376422e-06
-1.6983113e-06
-1.88189812e-06
-1.97252968e-06
-2.12693579e-06
-1.9534542e-06
-2.04081954e-06
-2.18924394e-06
-2.34362447e-06
-2.51838251e-06
-2.49769482e-06
-2.27740237e-06
-2.33844664e-06
-2.39852982e-06
-2.52234513e-06
-2.43515907e-06
-2.22635248e-06
-2.26908609e-06
-2.34619774e-06
-2.45097259e-06
-2.35202164e-06
-2.14524635e-06
-2.14293905e-06
-2.18976952e-06
-2.24808713e-06
-2.03608795e-06
-1.88240463e-06
-1.81317051e-06
-1.78553508e-06
-1.78525412e-06
-1.57378773e-06
-1.37454073e-06
-1.26133793e-06
-1.17441303e-06
-1.14154786e-06
-9.87871408e-07
-7.1267441e-07
-5.32628331e-07
-7.39790416e-07
-8.3913927e-07
-5.69721786e-07
-5.75751074e-07
-1.06935058e-06
-1.4198877e-06
-1.31386812e-06
-1.81449735e-06
-2.48366186e-06
-3.24570603e-06
-4.23715603e-06
-5.48933934e-06
-6.95483943e-06
-8.28055122e-06
-9.25325674e-06
-1.02724054e-05
-1.14895697e-05
-1.30059062e-05
-1.42675798e-05
-1.49748852e-05
-1.53576198e-05
-1.5901436e-05
-1.62618626e-05
-1.67989427e-05
-1.67333638e-05
-1.59185745e-05
-1.48681848e-05
-1.39678241e-05
-1.28445302e-05
-1.15857954e-05
-1.02054774e-05
-8.75694488e-06
-7.28921588e-06
-5.84143529e-06
-4.46185351e-06
-3.18249084e-06
-2.03066678e-06
-1.02289657e-06
-1.60166815e-07
5.64738269e-07
1.16818397e-06
1.65385914e-06
2.00611179e-06
2.32001792e-06
2.57943514e-06
2.80072305e-06
3.00085058e-06
3.18232319e-06
3.34584186e-06
3.49557477e-06
3.65471444e-06
3.78997234e-06
3.92704809e-06
4.09318928e-06
4.24953049e-06
4.40870821e-06
4.57865174e-06
4.77203113e-06
5.06917616e-06
5.58301423e-06
6.48499535e-06
7.8079234e-06
9.7128423e-06
1.21117257e-05
1.46424255e-05
1.77012313e-05
2.04235417e-05
2.29228904e-05
2.40196111e-05
2.31804308e-05
2.04316183e-05
1.63837878e-05
1.23961691e-05
1.05934859e-05
1.17482269e-05
1.45364133e-05
1.60967477e-05
1.45379723e-05
5.86996569e-06
3.01358257e-06
3.69199008e-06
1.25737548e-05
1.37643067e-05
1.54093921e-05
1.19861317e-05
8.63985211e-06
6.97420619e-06
7.28267743e-06
8.33244939e-06
9.06616153e-06
9.34970083e-06
8.196061e-06
7.13975497e-06
5.27335887e-06
3.83496544e-06
2.58864116e-06
1.65501825e-06
1.0697625e-06
8.20051866e-07
8.77293203e-07
1.18187599e-06
1.66598022e-06
2.27540316e-06
2.9600832e-06
3.68482379e-06
4.417063e-06
5.12875673e-06
5.80316639e-06
6.42607827e-06
6.99262323e-06
7.49737686e-06
7.93734445e-06
8.32248984e-06
8.6438028e-06
8.92893362e-06
9.15171091e-06
9.35290287e-06
9.50935977e-06
9.65696753e-06
9.76517662e-06
9.86815031e-06
9.96467021e-06
1.00567438e-05
1.01585799e-05
1.02551957e-05
1.03476821e-05
1.04337468e-05
1.05134495e-05
1.05849973e-05
1.06453694e-05
1.06939272e-05
1.07326997e-05
1.07580617e-05
1.07700625e-05
1.07685926e-05
1.07568365e-05
1.07339135e-05
1.07003033e-05
1.06553176e-05
1.05999819e-05
1.05374361e-05
1.04667177e-05
1.03889336e-05
1.03044191e-05
1.02143494e-05
1.01179733e-05
1.00165734e-05
9.90607743e-06
9.7910142e-06
9.6710638e-06
9.54747787e-06
9.41814592e-06
9.28268261e-06
9.14073745e-06
8.99217736e-06
8.83723943e-06
8.67517809e-06
8.50579003e-06
8.32898982e-06
8.14475291e-06
7.95331303e-06
7.75509263e-06
7.55002188e-06
7.33835642e-06
7.12046912e-06
6.89676052e-06
6.66754229e-06
6.43345347e-06
6.19358551e-06
5.94976671e-06
5.7021811e-06
5.45121536e-06
5.19713768e-06
4.94020249e-06
4.6806387e-06
4.41865503e-06
4.15440613e-06
3.888061e-06
3.61980581e-06
3.34971047e-06
3.07782603e-06
2.80424766e-06
)
;

boundaryField
{
    closed
    {
        type            calculated;
        value           nonuniform List<scalar> 0();
    }
    open
    {
        type            calculated;
        value           nonuniform List<scalar> 0();
    }
    sides
    {
        type            empty;
        value           nonuniform List<scalar> 0();
    }
    procBoundary4to3
    {
        type            processor;
        value           uniform -3.97921954e-07;
    }
    procBoundary4to5
    {
        type            processor;
        value           uniform 2.52904312e-06;
    }
}


// ************************************************************************* //
