/*--------------------------------*- C++ -*----------------------------------*\
| =========                 |                                                 |
| \\      /  F ield         | OpenFOAM: The Open Source CFD Toolbox           |
|  \\    /   O peration     | Version:  2306                                  |
|   \\  /    A nd           | Website:  www.openfoam.com                      |
|    \\/     M anipulation  |                                                 |
\*---------------------------------------------------------------------------*/
FoamFile
{
    version     2.0;
    format      ascii;
    arch        "LSB;label=32;scalar=64";
    class       volScalarField;
    location    "0.00142";
    object      sourcePV;
}
// * * * * * * * * * * * * * * * * * * * * * * * * * * * * * * * * * * * * * //

dimensions      [1 -3 -1 0 0 0 0];

internalField   nonuniform List<scalar> 
531
(
0.143869455
0.167313637
0.122535583
0.00519693526
0.00654472541
0.00435982818
0.00633765972
0.00818982656
0.141564869
0.160336319
0.15893468
0.118427329
0.00579733487
0.00902630305
0.154185086
0.125919866
0.00586556475
0.00498004717
0.00597170157
0.00285919915
0.142533088
0.166922864
0.14479909
0.163543996
0.120128896
0.00597547842
0.00641750816
0.0743640551
0.149263933
0.113081196
0.00592989452
0.0337479217
0.156113904
0.125155743
0.00623009969
0.00661966235
0.0693818518
0.137395444
0.118353753
0.00663101812
0.00620545062
0.125253821
0.149349794
0.148275265
0.149005885
0.171074668
0.131589086
0.00532227344
0.00602797768
0.00509406887
0.00539960712
0.00532875446
0.0340832718
0.152964268
0.157358678
0.167622457
0.126315544
0.00570956234
0.00381351598
0.145938564
0.131918959
0.00630926914
0.00569685369
0.132734405
0.158608823
0.112570418
0.00598971051
0.00575578802
0.140472014
0.162943746
0.147647013
0.17370118
0.126057941
0.00482382733
0.00663301717
0.00403424445
0.00661788944
0.00369772312
0.128425957
0.170116685
0.116796973
0.00571536478
0.00540146848
0.139995981
0.170577436
0.120381226
0.00564671618
0.0046428512
0.148686409
0.177614782
0.117672808
0.0057321116
0.00661725979
0.0728733282
0.138621589
0.113877608
0.00607722527
0.00468099762
0.147623695
0.162751673
0.169773983
0.113698687
0.00531388249
0.0432405282
0.158272824
0.107896505
0.00563177257
0.0414877156
0.14821199
0.108759386
0.00561104298
0.00670461621
0.0474513489
0.134617289
0.15893
0.107884531
0.0057520696
0.0040074876
0.141893719
0.169473868
0.0890919429
0.00549604258
0.0522731338
0.142088468
0.090926887
0.00472433222
0.00665097137
0.00300365928
0.126514318
0.156781149
0.147556693
0.150869762
0.165121922
0.125811118
0.00578124523
0.00586708271
0.120624586
0.15890126
0.0877522379
0.00551917261
0.0534513569
0.14245209
0.0827267456
0.0057580987
0.0538964419
0.144622027
0.101856525
0.00558066556
0.0056410806
0.00587038644
0.0213565679
0.133729076
0.153467211
0.145043016
0.159332714
0.114836475
0.00593143287
0.00608864182
0.117390368
0.15249499
0.157238876
0.117710261
0.00579068797
0.00642300815
0.0795353702
0.146239353
0.0950875151
0.00559625264
0.0515688965
0.151515705
0.109496652
0.00531663365
0.00521668283
0.00577198153
0.00377048103
0.127520734
0.155513674
0.146229583
0.158574323
0.0993928617
0.00565564845
0.00328280437
0.135294668
0.168549083
0.161699384
0.0505818895
0.00584236133
0.00589307292
0.0771482969
0.131156763
0.0907688017
0.00610037964
0.00613941733
0.107293603
0.15014345
0.156058167
0.15801807
0.0485394495
0.00514335297
0.00568534515
0.0321414057
0.136206478
0.160185095
0.162729636
0.0865738438
0.00541704433
0.0288903563
0.13791712
0.139361844
0.0854122114
0.111584718
0.125968898
0.0215252647
0.00599540203
0.103247646
0.142002203
0.033899367
0.00570774467
0.104143407
0.137786726
0.0270187323
0.00554208479
0.0687605311
0.162451903
0.161542362
0.00288211514
0.00535049672
0.0868054756
0.165607038
0.164695517
0.023282441
0.0052789063
0.11470442
0.145976765
0.0251943741
0.00533332059
0.0874945498
0.168582124
0.16765559
0.0258784626
0.00510674388
0.115661982
0.153742724
0.0342483141
0.0052497682
0.114513109
0.147699736
0.0160763582
0.005535062
0.118335823
0.139638932
0.0037619445
0.00552771183
0.0876897493
0.165573039
0.164158566
0.00299121062
0.00546998081
0.118208398
0.136118591
0.0107451238
0.00588553841
0.0796314371
0.14201584
0.160520546
0.159922402
0.0361746267
0.00588978752
0.00574731171
0.105710716
0.143027336
0.085479586
0.00560460433
0.00615318044
0.0814787704
0.147325016
0.153746101
0.154702957
0.173347033
0.148369322
0.00272675668
0.00541146966
0.00426765306
0.00504926335
0.00549473931
0.00507804128
0.117607899
0.178154148
0.177326154
0.0187229036
0.00471825007
0.105157033
0.176917123
0.171606781
0.0483265431
0.00568564316
0.00567023254
0.11429186
0.162202659
0.155931636
0.171316538
0.154022032
0.00882665515
0.00578988542
0.00471109505
0.00606087656
0.00589325533
0.0920072622
0.149843206
0.169105766
0.168175165
0.0024753978
0.00459634965
0.125048036
0.135911633
0.0201721315
0.00590040443
0.00531790559
0.0643734314
0.153183616
0.149241626
0.00318742703
0.00506400229
0.104226425
0.166798815
0.155220335
0.00336416478
0.00504976507
0.0947484946
0.162176217
0.150875026
0.00376439023
0.0051628582
0.0896769594
0.158715884
0.148653891
0.00414765169
0.00510108566
0.0952891349
0.161933193
0.150578398
0.00416902692
0.00493914614
0.105407758
0.172729297
0.162822707
0.00354536587
0.00412115622
0.142713323
0.156989466
0.00199858904
0.00402890382
0.155864094
0.160158595
0.00599910872
0.00601627819
0.00445787562
0.00619674502
0.00575032733
0.0826839391
0.173396403
0.19883367
0.174595881
0.00754569493
0.0100149141
0.00720055093
0.15315514
0.154455388
0.0174620097
0.0167907004
0.0172134705
0.0192970233
0.14035953
0.136502052
0.0314683845
0.0324112416
0.0336212152
0.0377166717
0.0394720337
0.0432038259
0.0454234349
0.0485246921
0.0505886632
0.053240528
0.0549802386
0.0564882465
0.0568749226
0.0559258607
0.0516272819
0.0381280023
0.0388160747
0.0406893639
0.0427126617
0.0452549619
0.0479154359
0.0514082058
0.0547109125
0.0591979353
0.0645059532
0.0673328832
0.0619984858
0.0519717503
0.0508514528
0.052190794
0.0554214238
0.062039251
0.0679538783
0.0742281844
0.0743960674
0.0768534009
0.0747706012
0.0734172093
0.0134798865
0.0117807143
0.0118117541
0.0134156577
0.0137900573
0.0145022923
0.0148146433
0.0149908049
0.0150830765
0.015265151
0.0118106072
0.00660112233
0.00386372634
0.00327176098
0.0023783803
0.00205367826
0.00119248731
0.00500762995
0.0250460583
0.0211527741
0.0245892263
0.0324101812
0.0409063044
0.0658974156
0.210962048
0.469989082
0.930544806
2.00844285
2.83956417
3.8225783
5.48111717
6.89294274
8.30956491
9.64157677
11.2045843
12.7373788
14.6766687
16.3719068
17.7043724
18.7729979
19.3247065
19.8134172
19.823233
19.8533071
19.4044235
19.0281472
18.2467258
17.6020566
16.6632123
15.8687551
14.7770466
13.8507747
12.5791145
11.7182782
10.4259199
9.43218956
8.23265024
7.32008051
6.40201116
5.73049999
5.16692523
4.71698084
4.25536063
3.8807504
3.51226344
3.21066564
2.88743722
2.61411403
2.37279288
2.16450082
1.93876083
1.76539653
1.58735599
1.47764841
1.37872167
1.29320395
1.19828633
1.14258261
1.08181712
1.02870722
0.972019204
0.931784749
0.889784456
0.847483967
0.800004346
0.758134342
0.726077651
0.699131596
0.672259131
0.647398445
0.622727226
0.602685527
0.584008394
0.566475087
0.549140967
0.532702166
0.516165004
0.502420164
0.488759947
0.475719621
0.46258385
0.450069063
0.437445353
0.425404339
0.413488158
0.401511212
0.389594095
0.37849699
0.367485025
0.357148524
0.346937444
0.337285433
0.327774455
0.318745228
0.309852239
0.302390429
0.295163589
0.288242251
0.281378402
)
;

boundaryField
{
    closed
    {
        type            calculated;
        value           nonuniform List<scalar> 0();
    }
    open
    {
        type            calculated;
        value           nonuniform List<scalar> 0();
    }
    sides
    {
        type            empty;
    }
    procBoundary4to3
    {
        type            processor;
        value           uniform 0;
    }
    procBoundary4to5
    {
        type            processor;
        value           uniform 0;
    }
}


// ************************************************************************* //
