/*--------------------------------*- C++ -*----------------------------------*\
| =========                 |                                                 |
| \\      /  F ield         | OpenFOAM: The Open Source CFD Toolbox           |
|  \\    /   O peration     | Version:  2306                                  |
|   \\  /    A nd           | Website:  www.openfoam.com                      |
|    \\/     M anipulation  |                                                 |
\*---------------------------------------------------------------------------*/
FoamFile
{
    version     2.0;
    format      ascii;
    arch        "LSB;label=32;scalar=64";
    class       volScalarField;
    location    "0.0017";
    object      H;
}
// * * * * * * * * * * * * * * * * * * * * * * * * * * * * * * * * * * * * * //

dimensions      [0 0 0 0 0 0 0];

internalField   nonuniform List<scalar> 
531
(
3.07228996e-08
4.71358652e-08
4.42774366e-08
5.48709974e-08
5.4511822e-08
7.43040818e-10
1.1484584e-09
9.98979594e-10
1.21794228e-09
1.1850044e-09
4.03508e-08
4.88023733e-08
8.67359976e-10
1.08929121e-09
3.865704e-08
5.62674019e-08
5.3060876e-08
8.32703065e-10
1.20124062e-09
1.0573158e-09
1.29718573e-09
1.24612512e-09
3.39208299e-08
4.37114977e-08
4.65397574e-08
4.64397902e-08
8.62869684e-10
1.18108948e-09
4.37810474e-08
4.64902364e-08
8.15745035e-10
1.18784971e-09
4.47571107e-08
4.5522526e-08
7.76763962e-10
1.24165993e-09
1.11366085e-09
4.03369258e-08
4.63071953e-08
8.3643428e-10
1.18625962e-09
1.15663391e-09
1.19741747e-09
3.27816825e-08
4.57119088e-08
4.55041779e-08
4.8972183e-08
5.66194234e-08
5.59717295e-08
8.09341368e-10
1.17966701e-09
1.05961283e-09
1.30066531e-09
1.29221505e-09
3.22169305e-08
4.65039743e-08
4.41331564e-08
1.0475724e-09
1.29841311e-09
3.49031773e-08
3.8881882e-08
9.64147432e-10
1.32441174e-09
2.99247769e-08
3.93628369e-08
4.36499226e-08
4.36369037e-08
9.82851579e-10
1.33360905e-09
1.2467129e-09
3.43783361e-08
4.87064641e-08
4.48123583e-08
5.23721097e-08
5.14236542e-08
8.3155832e-10
1.16083114e-09
1.13172579e-09
1.20815e-09
3.70091957e-08
4.05656775e-08
6.0995193e-10
1.3087455e-09
1.09023756e-09
3.43496409e-08
5.16946504e-08
4.66055049e-08
9.35404732e-10
1.20139915e-09
3.35739202e-08
4.77698487e-08
4.56594219e-08
9.48438792e-10
1.29129684e-09
3.78545015e-08
4.04157056e-08
7.65649179e-10
1.3715275e-09
1.22822848e-09
2.58676624e-08
4.24045553e-08
4.4426867e-08
4.26147123e-08
9.56646468e-10
3.27377931e-08
4.59218233e-08
8.32712642e-10
1.21329323e-09
3.3098251e-08
4.84026398e-08
4.44932644e-08
9.26281663e-10
1.36470703e-09
1.34013856e-09
2.462439e-08
4.47454937e-08
4.3988534e-08
1.03984972e-09
1.22115655e-09
3.48282642e-08
4.88108059e-08
4.69635157e-08
8.96159067e-10
1.22385273e-09
4.24272546e-08
4.55728074e-08
5.93932601e-10
1.2137521e-09
9.83877315e-10
1.24302384e-09
1.12334356e-09
3.91444105e-08
5.01968077e-08
4.80407348e-08
4.73215711e-08
8.35170661e-10
1.1332301e-09
3.49477218e-08
5.03359871e-08
4.0807866e-08
8.87958286e-10
2.81703403e-08
4.57198893e-08
8.75267305e-10
1.16065325e-09
3.59604227e-08
5.177419e-08
4.76117417e-08
8.5964683e-10
1.3043332e-09
1.14742647e-09
1.36889092e-09
1.36119032e-09
2.88727217e-08
4.47713342e-08
4.13273269e-08
1.06973269e-09
1.30405557e-09
2.16897888e-08
4.20747177e-08
4.18406988e-08
4.70128882e-08
4.67905259e-08
1.01330739e-09
1.23020689e-09
3.92684974e-08
4.35417248e-08
8.6361697e-10
1.1891138e-09
3.59099681e-08
5.00774593e-08
4.61166738e-08
9.1846337e-10
1.3076337e-09
1.17122323e-09
1.36651826e-09
1.33463324e-09
3.07264158e-08
4.21281006e-08
4.398967e-08
4.39689341e-08
8.72889975e-10
1.16876901e-09
4.05078495e-08
5.48114198e-08
5.12411216e-08
8.97648811e-10
1.18658528e-09
1.18250564e-09
1.22869611e-09
3.6441693e-08
4.18426918e-08
9.24645779e-10
1.25104833e-09
3.57735961e-08
4.37383728e-08
4.65363387e-08
4.63002744e-08
1.03021926e-09
1.23987717e-09
1.28669238e-09
1.27874905e-09
2.91523838e-08
4.158945e-08
4.20346321e-08
4.19810731e-08
9.5931799e-10
1.25771814e-09
3.65432929e-08
4.38094947e-08
4.62207494e-08
4.62183231e-08
9.29894535e-10
1.21955122e-09
4.21262976e-08
4.49493857e-08
8.60222906e-10
1.24679536e-09
4.27848113e-08
4.33315478e-08
9.00942359e-10
1.30529772e-09
1.16443857e-09
3.68609533e-08
4.37532646e-08
9.938671e-10
1.21632106e-09
3.58060707e-08
4.75006274e-08
4.51459313e-08
1.07765173e-09
1.2967143e-09
3.6782222e-08
3.99316015e-08
1.04570859e-09
1.31733596e-09
3.27864873e-08
3.95637074e-08
4.33664357e-08
4.0891969e-08
1.08542849e-09
3.4920992e-08
4.63123624e-08
9.78339918e-10
1.22710443e-09
4.15577849e-08
4.44290524e-08
9.19506734e-10
1.23576088e-09
4.43611303e-08
4.45747797e-08
9.09843122e-10
1.26512659e-09
1.12866647e-09
3.88629505e-08
4.67875411e-08
9.44989367e-10
1.21563322e-09
4.37894102e-08
4.41193437e-08
9.03648382e-10
1.2852108e-09
1.09195056e-09
3.5675562e-08
4.87295797e-08
5.05862238e-08
5.03816447e-08
8.91532973e-10
1.1837815e-09
1.07009606e-09
4.14959183e-08
4.88590927e-08
9.40072186e-10
1.16915414e-09
1.21751312e-09
1.2075448e-09
3.21305861e-08
4.46871642e-08
4.51903798e-08
4.90833192e-08
5.87293887e-08
5.85117052e-08
8.30577934e-10
1.02831624e-09
1.04254213e-09
1.07344066e-09
1.19065381e-09
1.13214927e-09
3.70765871e-08
4.62911965e-08
1.09541666e-09
1.16205339e-09
3.62716972e-08
4.91876745e-08
4.56242873e-08
1.06053536e-09
1.3105637e-09
1.25923666e-09
3.33524767e-08
4.30148597e-08
4.3654849e-08
4.69659165e-08
5.5185696e-08
5.49774931e-08
9.31401352e-10
1.15187374e-09
1.06526343e-09
1.24270443e-09
1.20399325e-09
3.84643054e-08
4.95833831e-08
4.87943567e-08
1.07542411e-09
1.23350655e-09
4.24477397e-08
4.31939769e-08
1.00127182e-09
1.32263969e-09
1.2002611e-09
3.68305856e-08
4.5208081e-08
1.19204125e-09
1.20206428e-09
3.43351386e-08
4.87663379e-08
4.54757038e-08
1.11412591e-09
1.35944161e-09
1.29235326e-09
3.53298357e-08
4.62327991e-08
4.59923489e-08
1.19790176e-09
1.27835386e-09
3.42480271e-08
4.76858637e-08
4.74832036e-08
1.24430574e-09
1.33827033e-09
3.79209696e-08
4.56669407e-08
1.31142234e-09
1.37071405e-09
3.48877677e-08
4.9450202e-08
4.91756259e-08
1.37009909e-09
1.4758551e-09
4.08724814e-08
5.03160069e-08
1.46975203e-09
1.5408803e-09
4.05244683e-08
5.84770524e-08
5.5718678e-08
2.34677264e-09
2.45480612e-09
2.98118673e-09
3.04454889e-09
3.673459e-09
3.75872487e-09
4.09768568e-08
5.35508142e-08
5.81833091e-09
6.17247537e-09
6.94122134e-09
7.48639477e-09
4.34509168e-08
9.43617921e-09
9.37946246e-09
1.03278523e-08
1.06814128e-08
1.13049323e-08
1.18339744e-08
1.23560819e-08
1.28605873e-08
1.33331403e-08
1.36517479e-08
1.396498e-08
1.38256648e-08
1.36223015e-08
1.1975395e-08
9.3920889e-09
8.98083966e-09
9.26012365e-09
9.71505717e-09
1.0119774e-08
1.07029062e-08
1.12425198e-08
1.1977158e-08
1.26591168e-08
1.37431961e-08
1.48296026e-08
1.524259e-08
1.2823784e-08
1.12446255e-08
1.07345248e-08
1.07615781e-08
1.14743736e-08
1.2062115e-08
1.39731019e-08
1.48710104e-08
1.54160636e-08
1.50405641e-08
1.53718636e-08
1.47819279e-08
1.29719656e-08
1.73385769e-09
1.57302823e-09
1.55090758e-09
1.63749274e-09
1.62739455e-09
1.64401035e-09
1.6304251e-09
1.58128432e-09
1.56576901e-09
1.46959779e-09
1.33663559e-09
7.15574445e-10
3.20014912e-10
2.04732968e-10
1.36996928e-10
8.84585439e-11
2.57613796e-10
9.87324886e-11
1.27319768e-10
3.06012866e-10
3.82157459e-08
3.84808032e-08
4.21531399e-08
5.62256282e-08
7.87407171e-08
2.10462843e-07
5.09397113e-07
1.43916508e-06
3.27177095e-06
9.042091e-06
1.33333245e-05
1.82464395e-05
2.93135995e-05
3.79551274e-05
4.85921931e-05
5.64609945e-05
6.80128342e-05
7.60541499e-05
8.98075996e-05
9.88007179e-05
0.000113930351
0.000121014477
0.000131976622
0.00013663008
0.000145405682
0.00014875444
0.000156131646
0.000158322652
0.000164520805
0.000165872854
0.000171079591
0.000171485211
0.000174901423
0.000173734978
0.000175222653
0.000172861581
0.000172833563
0.000169689072
0.000168181542
0.000164406898
0.0001615729
0.000157038127
0.000153528378
0.000149676026
0.000147044997
0.000143250813
0.000140591074
0.000136807077
0.000133901952
0.000130266184
0.000127332088
0.000123747311
0.000120072544
0.000116143897
0.00011235431
0.000108912818
0.000105844633
0.000102736509
9.98544957e-05
9.7045962e-05
9.43956961e-05
9.17422037e-05
8.92413287e-05
8.67453807e-05
8.43308577e-05
8.19318118e-05
7.96146955e-05
7.7504554e-05
7.54007744e-05
7.31956532e-05
7.10131885e-05
6.89419633e-05
6.6916568e-05
6.50211332e-05
6.31575954e-05
6.14015943e-05
5.9667177e-05
5.80287328e-05
5.64976958e-05
5.5121862e-05
5.37281535e-05
5.24122569e-05
5.10693294e-05
4.98087437e-05
4.85129084e-05
4.73454302e-05
4.61537426e-05
4.50482459e-05
4.38881309e-05
4.28190587e-05
4.16897206e-05
4.06548825e-05
3.95554499e-05
3.8504646e-05
3.7396126e-05
3.65210296e-05
3.56218109e-05
3.48132315e-05
3.39555623e-05
3.3188148e-05
3.23697073e-05
3.16405114e-05
3.08586452e-05
3.01604576e-05
)
;

boundaryField
{
    closed
    {
        type            calculated;
        value           nonuniform List<scalar> 0();
    }
    open
    {
        type            calculated;
        value           nonuniform List<scalar> 0();
    }
    sides
    {
        type            empty;
    }
    procBoundary4to3
    {
        type            processor;
        value           uniform 1.26676545e-09;
    }
    procBoundary4to5
    {
        type            processor;
        value           uniform 2.94104488e-05;
    }
}


// ************************************************************************* //
