/*--------------------------------*- C++ -*----------------------------------*\
| =========                 |                                                 |
| \\      /  F ield         | OpenFOAM: The Open Source CFD Toolbox           |
|  \\    /   O peration     | Version:  2306                                  |
|   \\  /    A nd           | Website:  www.openfoam.com                      |
|    \\/     M anipulation  |                                                 |
\*---------------------------------------------------------------------------*/
FoamFile
{
    version     2.0;
    format      ascii;
    arch        "LSB;label=32;scalar=64";
    class       volScalarField;
    location    "0.0017";
    object      rho;
}
// * * * * * * * * * * * * * * * * * * * * * * * * * * * * * * * * * * * * * //

dimensions      [1 -3 0 0 0 0 0];

internalField   nonuniform List<scalar> 
531
(
0.939450616
0.960223365
0.955459438
0.974325024
0.973703249
0.906234435
0.904578622
0.905591026
0.904486955
0.904571183
0.948533235
0.963356689
0.905540114
0.905117723
0.945731787
0.977056943
0.971126907
0.906177185
0.904656623
0.905702642
0.904470553
0.90471187
0.93987713
0.95417455
0.959115871
0.95901823
0.905691156
0.904721237
0.954017942
0.959065489
0.905714426
0.904563308
0.95565576
0.957265174
0.905623832
0.904612957
0.904763003
0.948063269
0.95845311
0.905505401
0.90451674
0.905289406
0.904388093
0.939162207
0.957112808
0.956937894
0.962924246
0.976911401
0.975664125
0.90503792
0.903787124
0.904176752
0.903351175
0.903133837
0.939130913
0.958140576
0.95429581
0.904772446
0.902748227
0.938340863
0.945130633
0.905109887
0.903238861
0.937787448
0.945768514
0.953057131
0.952988162
0.903906405
0.903125486
0.902815363
0.939409584
0.96180721
0.955178098
0.968389745
0.9667341
0.90553799
0.903255873
0.90456831
0.903023064
0.941237954
0.947493338
0.906620183
0.903724786
0.903302015
0.939285578
0.967132084
0.958170431
0.905516737
0.9031524
0.938815727
0.960186309
0.956681025
0.904870695
0.902385124
0.94352477
0.947832718
0.905788815
0.903222006
0.90310663
0.936818458
0.95138029
0.954721733
0.951604496
0.904219486
0.939393113
0.957328788
0.906110863
0.903382699
0.939623852
0.961573703
0.955091809
0.905295435
0.902974384
0.902986106
0.936390805
0.955327859
0.954024112
0.904827672
0.903600608
0.939864407
0.962309201
0.959276923
0.905988371
0.903157103
0.950991054
0.956772504
0.907476183
0.904087386
0.904864823
0.903668247
0.903676976
0.946205441
0.96471087
0.961026568
0.959438025
0.905681943
0.904625556
0.94002116
0.964853129
0.948683248
0.905339712
0.937945464
0.956643104
0.905357327
0.90366221
0.940893703
0.967484577
0.960361285
0.905647531
0.902656369
0.90388072
0.90259794
0.902431255
0.938167668
0.955003169
0.949249803
0.904369879
0.903061562
0.934152041
0.950555346
0.950152703
0.958986888
0.958608312
0.904170569
0.9028565
0.94570844
0.952900841
0.905132394
0.903294845
0.940348092
0.964244368
0.957496406
0.905052887
0.902827819
0.903687137
0.902753984
0.902712412
0.938409362
0.950280366
0.953554307
0.953493187
0.90473247
0.903054777
0.947975026
0.972877341
0.966449746
0.904526881
0.902673498
0.903565777
0.902481339
0.940709838
0.94982996
0.905116134
0.903078476
0.939716791
0.952932164
0.958021223
0.95738949
0.903573838
0.903111228
0.90286635
0.902852352
0.937704658
0.94930368
0.949973574
0.949985917
0.904887918
0.902936107
0.940893725
0.9530074
0.957254845
0.957272154
0.904611936
0.902682589
0.950216376
0.955140862
0.904655858
0.902589603
0.951363762
0.952260237
0.904125044
0.90292643
0.902788508
0.941576932
0.952941893
0.904013656
0.902946341
0.939973049
0.95934932
0.955566183
0.903861583
0.902014062
0.941091947
0.946479365
0.904106897
0.902739439
0.938271333
0.945582193
0.952281126
0.947777041
0.902683176
0.938277408
0.957328592
0.904277293
0.902637434
0.948980998
0.95398413
0.904009644
0.9027596
0.953885507
0.954138099
0.903662885
0.903108564
0.902622712
0.944427932
0.958025536
0.904029613
0.902857464
0.952725814
0.953198209
0.903946015
0.903324306
0.903131674
0.939021657
0.961205698
0.964654738
0.964179867
0.903754839
0.90342379
0.90303138
0.948621903
0.961414732
0.903975792
0.903484472
0.903426569
0.903524107
0.937321362
0.953749326
0.954932504
0.961666878
0.97954321
0.979191559
0.903674823
0.903349414
0.903004561
0.903069474
0.902906711
0.902883193
0.941000472
0.956691002
0.903372786
0.903332306
0.939762971
0.961789841
0.955713138
0.903447436
0.902881078
0.902987074
0.937472889
0.950825131
0.952166967
0.957851693
0.972830189
0.972436673
0.903004483
0.902916545
0.902808612
0.902705133
0.902618513
0.943401874
0.962460608
0.961259678
0.903258261
0.902113226
0.949919938
0.95142825
0.902582956
0.902246743
0.902130024
0.940767734
0.954738708
0.901846087
0.902256784
0.938589828
0.960973171
0.955559951
0.90181394
0.901237686
0.901242354
0.939035093
0.956712645
0.956570228
0.901204816
0.900445088
0.939442167
0.959508707
0.959375768
0.900070319
0.899334908
0.943946198
0.956561204
0.898616571
0.8982731
0.942200583
0.963282786
0.963113505
0.896565997
0.895517424
0.950756576
0.965576256
0.893946805
0.89259807
0.951785068
0.97892229
0.974845709
0.893791937
0.892325208
0.893248981
0.892878176
0.892989716
0.893759445
0.960877158
0.975658747
0.89917802
0.899527595
0.899460678
0.902071569
0.973530008
0.909038767
0.90164251
0.907149721
0.903006903
0.906043288
0.903568415
0.905279956
0.903547449
0.904419075
0.902714008
0.902674002
0.899985526
0.898188512
0.891150189
0.882412378
0.888329633
0.894009393
0.901640077
0.90677031
0.912750627
0.916772313
0.921032305
0.923533063
0.927095988
0.931280772
0.935321239
0.933172623
0.938971723
0.944169492
0.946973107
0.951046911
0.950964043
0.953403622
0.951871674
0.964418275
0.968705473
0.9818234
0.986679316
0.992113371
0.909297486
0.923403287
0.932267232
0.952544371
0.962255289
0.983108214
0.994180609
1.01542568
1.02812774
1.04998812
1.05941549
1.05756917
1.03711015
1.05540326
1.0672142
1.04106353
0.922918012
0.926180151
0.90503967
0.880218484
0.718915357
0.704219542
0.678002387
0.654856503
0.625487874
0.591133187
0.553709009
0.511712938
0.466010402
0.421967706
0.399205185
0.380924901
0.356354161
0.341029383
0.326871222
0.31758341
0.30681906
0.299285572
0.289517396
0.282870525
0.274045692
0.269083094
0.263254509
0.259720137
0.255126273
0.252130281
0.248107566
0.245541407
0.241980024
0.23980107
0.23678679
0.234913207
0.232262963
0.230691255
0.228297621
0.226983341
0.224764834
0.223551405
0.221480188
0.220338753
0.218275785
0.217057759
0.215279223
0.214558546
0.213519313
0.212868323
0.21196189
0.211344235
0.210464781
0.209898457
0.209091145
0.208544267
0.207628612
0.206993564
0.206053247
0.205498958
0.204780758
0.204302073
0.203661961
0.203234992
0.202670273
0.202266132
0.201747737
0.201359034
0.200870653
0.200489804
0.200030049
0.199692177
0.199276912
0.198893438
0.198449433
0.198079388
0.197652488
0.197290475
0.196898528
0.196558518
0.196196149
0.195874508
0.195550861
0.195268662
0.194972059
0.194698322
0.194415299
0.194150208
0.19388009
0.193621207
0.193358349
0.193104927
0.192850879
0.192603973
0.192358458
0.19211791
0.191880505
0.191634039
0.191394305
0.191177845
0.190977696
0.190775482
0.190585652
0.1903931
0.190212776
0.19002914
0.18985757
0.189682829
)
;

boundaryField
{
    closed
    {
        type            calculated;
        value           nonuniform List<scalar> 0();
    }
    open
    {
        type            calculated;
        value           nonuniform List<scalar> 0();
    }
    sides
    {
        type            empty;
    }
    procBoundary4to3
    {
        type            processor;
        value           uniform 0.904651071;
    }
    procBoundary4to5
    {
        type            processor;
        value           uniform 0.189519951;
    }
}


// ************************************************************************* //
