/*--------------------------------*- C++ -*----------------------------------*\
| =========                 |                                                 |
| \\      /  F ield         | OpenFOAM: The Open Source CFD Toolbox           |
|  \\    /   O peration     | Version:  2306                                  |
|   \\  /    A nd           | Website:  www.openfoam.com                      |
|    \\/     M anipulation  |                                                 |
\*---------------------------------------------------------------------------*/
FoamFile
{
    version     2.0;
    format      ascii;
    arch        "LSB;label=32;scalar=64";
    class       volScalarField;
    location    "0.00186";
    object      sourcePV;
}
// * * * * * * * * * * * * * * * * * * * * * * * * * * * * * * * * * * * * * //

dimensions      [1 -3 -1 0 0 0 0];

internalField   nonuniform List<scalar> 
530
(
0.00533041791
0.0537425539
0.168701272
0.168173062
0.00338642924
0.00543441577
0.070488091
0.163646697
0.163320616
0.00390629822
0.00546217861
0.0718786176
0.164033171
0.163014013
0.00369868492
0.00547676534
0.0765280791
0.164877818
0.163635216
0.00359640574
0.00547102826
0.0807003871
0.161894311
0.167649477
0.0680964578
0.00509345415
0.00607493023
0.00593269416
0.0907227139
0.156726487
0.180611066
0.179997201
0.00316777746
0.00574499005
0.00528279065
0.089523185
0.121868158
0.00403711739
0.00649926287
0.0813327718
0.130014464
0.165208341
0.164308515
0.00358675719
0.00546849997
0.0811046481
0.169320614
0.168947185
0.00374708819
0.00578770803
0.0768839065
0.143953588
0.14485818
0.17239012
0.171221266
0.00715259462
0.00567919615
0.0047676992
0.00615162242
0.0830649575
0.121254811
0.00366978206
0.00652032722
0.0855968323
0.133263347
0.16648302
0.165127677
0.00221561646
0.00538126446
0.0855907638
0.17228653
0.171580366
0.00267719332
0.00538287835
0.082385321
0.165069407
0.164082869
0.0184238772
0.00579353939
0.103147783
0.134384909
0.0302335286
0.00604655347
0.0441101732
0.134447795
0.147872033
0.1583402
0.169380905
0.0900316927
0.00494639408
0.00649910825
0.00637846133
0.105060642
0.144735614
0.0617285441
0.0878000743
0.161386906
0.097893468
0.0050081837
0.0066587395
0.00648771215
0.113129112
0.143788467
0.0402036104
0.0915290356
0.157606057
0.050568187
0.00564258945
0.107088576
0.13689101
0.00314996766
0.00620170937
0.0908444951
0.132083135
0.160044955
0.159467541
0.00325763452
0.00539719513
0.0859213036
0.17546134
0.174893624
0.00280891727
0.00581819053
0.00553935538
0.126377507
0.145361813
0.00265461681
0.0751040705
0.151948938
0.002821215
0.00599746516
0.0960933746
0.134499736
0.160282918
0.159329395
0.00322913555
0.00564461624
0.0802952601
0.159306988
0.158888854
0.00330878211
0.00561790966
0.0821554092
0.161868113
0.1613273
0.00324679485
0.00550886749
0.0929881629
0.169697229
0.169547068
0.00291480039
0.00431072461
0.0936480424
0.00337473202
0.00635408943
0.101148083
0.138771966
0.168588359
0.168080165
0.00258340687
0.00410673466
0.103471696
0.00293179398
0.00641790809
0.10136593
0.134505585
0.160697312
0.159493109
0.00288614872
0.00560433189
0.0668777114
0.157786205
0.156572768
0.00275315746
0.00592989264
0.117717427
0.14037729
0.00294224148
0.0057882031
0.0913424837
0.160907832
0.160087029
0.00281713614
0.00554389916
0.0770795573
0.160725757
0.159858047
0.00301898404
0.0055180693
0.0449542416
0.15881286
0.160889042
0.0288077617
0.00585779712
0.00581690757
0.104517908
0.158996369
0.173039843
0.17477269
0.0484910139
0.00518681946
0.1170036
0.152850585
0.0178019394
0.00562183178
0.120903538
0.149658334
0.0019899478
0.00544375194
0.101237324
0.169367152
0.168198758
0.0375166619
0.00541755035
0.115610589
0.153447082
0.0201620581
0.00573789483
0.118271286
0.149542785
0.0173258532
0.00585915642
0.117516238
0.144871673
0.0114091601
0.00599027723
0.117481794
0.137166718
0.00236116925
0.0531278844
0.150926115
0.011995119
0.00546226618
0.0930531872
0.165623135
0.164131626
0.0177084725
0.00569247353
0.115521291
0.145492303
0.002486896
0.00566030544
0.0937084777
0.16232157
0.161060434
0.0194954025
0.00574129952
0.112321639
0.14228724
0.00509115671
0.00574010985
0.08911499
0.157531109
0.156562597
0.0139407332
0.00550406615
0.0858189607
0.15954891
0.158451289
0.0229482564
0.00565015191
0.111238867
0.145092655
0.0123915243
0.00551159571
0.0949110032
0.1629121
0.166237143
0.0558448418
0.00478693815
0.00558989876
0.0053723721
0.11385089
0.168651375
0.0380836616
0.00519078588
0.0991584474
0.150082515
0.164296802
0.164386377
0.0382914832
0.00533422504
0.117780794
0.155930283
0.0267993213
0.00557167295
0.121483192
0.150943876
0.0263216996
0.00586799929
0.0057043771
0.0708021357
0.159802571
0.161021769
0.0257332986
0.00568307003
0.114613192
0.145529468
0.00638396721
0.00569702093
0.0959328215
0.15948925
0.158290632
0.00978740183
0.00561673123
0.0854155652
0.156749312
0.155546875
0.00923872382
0.00567502325
0.0843237766
0.156513152
0.155385786
0.00671944498
0.00565645797
0.0882924037
0.159003179
0.157498598
0.00918588825
0.0059048287
0.115145778
0.141933628
0.00235178693
0.00588155138
0.0901618408
0.155434956
0.15421143
0.00523023981
0.00578135912
0.0752041224
0.152514691
0.151210226
0.00735147045
0.0060434066
0.0861877572
0.136356695
0.157092201
0.155432296
0.00229750592
0.00597773394
0.117963759
0.140743682
0.00235058081
0.00594385935
0.0821009264
0.152023421
0.150826225
0.00547264347
0.00577338606
0.0894617479
0.158159768
0.156717955
0.00583614822
0.00594870349
0.115855675
0.141607026
0.00236027355
0.00595595964
0.0812955295
0.150954326
0.149449475
0.0058406575
0.00606190804
0.0929210786
0.139418716
0.157652501
0.156255337
0.00406992914
0.00597173736
0.119900108
0.141535848
0.00270242233
0.00610675025
0.101331008
0.136781309
0.156095775
0.155868395
0.00252314441
0.105615794
0.161126
0.00708865615
0.00579490594
0.123965394
0.150413162
0.00651879206
0.00596181374
0.124822128
0.148821548
0.00691218995
0.00601042574
0.124054
0.147610311
0.00660694851
0.00606645757
0.12293386
0.14549294
0.00534681568
0.00615823284
0.120275926
0.141092639
0.00309617867
0.00630159976
0.0988368489
0.131456758
0.147280853
0.146658909
0.00349228105
0.0942194858
0.15005682
0.00247043921
0.00612134244
0.123447434
0.145677673
0.00261965747
0.00622613699
0.123518784
0.142519158
0.00298988877
0.00635580874
0.102937092
0.132756277
0.146828098
0.145173266
0.00455176544
0.0971404408
0.149806205
0.00354135419
0.00619178596
0.126506678
0.143806961
0.00379633866
0.00626048029
0.125961358
0.139881878
0.004193748
0.00621804496
0.0899431255
0.141720191
0.140573708
0.162157047
0.161628592
0.00398987732
0.00576146489
0.00572136658
0.00583549846
0.106681454
0.169885939
0.169426331
0.00497083599
0.00576978318
0.137225551
0.158025828
0.00516755577
0.00569044798
0.123769998
0.169132555
0.167048267
0.00540684339
0.00585807024
0.134587558
0.15030408
0.00559187652
0.00583259746
0.113196523
0.158806638
0.156336385
0.00578161018
0.00579540218
0.10622367
0.159666558
0.156062198
0.00580711033
0.00573525828
0.109955872
0.163207342
0.157046445
0.00560599508
0.00583267674
0.134320298
0.144549578
0.00566271284
0.00579604729
0.114011517
0.160489715
0.155145356
0.00582653697
0.0057682062
0.116185381
0.167028794
0.158659628
0.0055881279
0.00576860963
0.137978535
0.148788271
0.00582505436
0.00574524731
0.119962818
0.166925062
0.15879056
0.00564590492
0.00592703806
0.139867796
0.144699803
0.00569634542
0.00607347735
0.137655612
0.140596102
0.00598971942
0.00594349708
0.108332134
0.157880598
0.150256101
0.00598188755
0.00585366662
0.102210859
0.159879777
0.151645956
0.00595590195
0.00580477597
0.103921536
0.160678701
0.152216445
0.00592595781
0.00577750722
0.103734823
0.160958453
0.152524704
0.00590348865
0.00575277285
0.103567922
)
;

boundaryField
{
    closed
    {
        type            calculated;
        value           nonuniform List<scalar> 0();
    }
    open
    {
        type            calculated;
        value           nonuniform List<scalar> 0();
    }
    sides
    {
        type            empty;
    }
    procBoundary2to1
    {
        type            processor;
        value           uniform 0;
    }
    procBoundary2to3
    {
        type            processor;
        value           uniform 0;
    }
}


// ************************************************************************* //
