/*--------------------------------*- C++ -*----------------------------------*\
| =========                 |                                                 |
| \\      /  F ield         | OpenFOAM: The Open Source CFD Toolbox           |
|  \\    /   O peration     | Version:  2306                                  |
|   \\  /    A nd           | Website:  www.openfoam.com                      |
|    \\/     M anipulation  |                                                 |
\*---------------------------------------------------------------------------*/
FoamFile
{
    version     2.0;
    format      ascii;
    arch        "LSB;label=32;scalar=64";
    class       volScalarField;
    location    "0.00076";
    object      prefDZ_H;
}
// * * * * * * * * * * * * * * * * * * * * * * * * * * * * * * * * * * * * * //

dimensions      [1 -1 -1 0 0 0 0];

internalField   nonuniform List<scalar> 
531
(
0.000107278808
0.000106557553
0.000107816817
0.000110379815
0.000110116188
0.000106957309
0.000106332624
0.000107792749
0.000110336591
0.000110009696
0.000106522755
0.000106549462
0.000108609189
0.000110148677
0.000107863197
0.000107070787
0.000107781107
0.00011038707
0.000110030064
0.000106831861
0.000106834011
0.000108379557
0.000110249768
0.000108369707
0.000107533219
0.000107850493
0.00011042442
0.000109996727
0.000107333918
0.000106447465
0.000106785266
0.000107198042
0.000109058601
0.000110130429
0.000107753428
0.000107092759
0.000107821132
0.000110338441
0.000109877766
0.000106439959
0.00010653031
0.000109293618
0.000110078953
0.000107888628
0.00010739757
0.000110148842
0.000110115026
0.000107834738
0.00010695231
0.000107804175
0.000110330689
0.00011015801
0.000106333191
0.000106332502
0.000108942732
0.000110108032
0.000107755958
0.000106622755
0.000107768293
0.000110294847
0.000110195833
0.000106233759
0.000106105322
0.000108925303
0.000110109443
0.000107497901
0.000106843379
0.000110103412
0.000110095666
0.000107081286
0.000106920298
0.000110103896
0.000110102983
0.000106942857
0.000106784139
0.000110066752
0.000110111146
0.000107015708
0.00010692049
0.000110192156
0.000110193635
0.000107825774
0.000106569483
0.000107786706
0.000110179656
0.000110363187
0.000106980206
0.000106145265
0.000109110781
0.000110243691
0.000107463537
0.000106808341
0.000109796672
0.000110246188
0.000107772333
0.000106753617
0.000107510944
0.00010984657
0.000110402635
0.000107792136
0.000106411838
0.000108825003
0.000110214356
0.000107893573
0.000106878211
0.000106848657
0.000109329399
0.000110345507
0.000107744373
0.000106630286
0.000108137866
0.000110105407
0.000108169124
0.000107367102
0.000107053972
0.000108602223
0.000110214658
0.000108262636
0.000107320251
0.000106815554
0.000108186419
0.000110117424
0.000108408604
0.000107405903
0.000106729161
0.000107968849
0.000110032086
0.000108554077
0.000107507009
0.000106645421
0.000107844459
0.000109965443
0.000108664098
0.000107543569
0.000106610373
0.000107798373
0.000109995452
0.000108339599
0.000107721929
0.000107707238
0.000109877411
0.000108790199
0.000107671285
0.000106677877
0.000107800164
0.00011004556
0.000108437377
0.00010782829
0.000107732521
0.000109978876
0.000108988952
0.000107801147
0.00010696056
0.000107854417
0.000110090306
0.000109062361
0.000107762859
0.000106962551
0.000106838687
0.000107768802
0.000110043209
0.000108887185
0.000107528815
0.000106615406
0.000107819549
0.00011009472
0.000108326533
0.000107673844
0.000107764327
0.000110044288
0.000108761106
0.000107352586
0.000106792725
0.000107992329
0.00011010727
0.000108124663
0.000107536258
0.000107795178
0.000110048031
0.000108613515
0.000107067772
0.000106892493
0.000108247838
0.00011004993
0.000107858465
0.000107427201
0.000107890002
0.000110083349
0.000108658675
0.000107059862
0.000106933043
0.000108114729
0.000110104294
0.000108496037
0.000106841626
0.000106875188
0.000108181811
0.000110040181
0.000108189327
0.000106729032
0.000107072372
0.000109019852
0.0001093868
0.000107828137
0.000107778582
0.000108993658
0.000108176249
0.000107801152
0.000107808985
0.000110221655
0.000109283898
0.000107261057
0.000107383413
0.000108453315
0.000110001547
0.000108075695
0.00010683407
0.000107226353
0.000108646747
0.000109894744
0.000107683788
0.000107492626
0.000108244986
0.000109963433
0.000107908699
0.000106803267
0.000107373458
0.000108852824
0.000109877949
0.000107704713
0.000107587379
0.000108421132
0.000109996387
0.000107894205
0.000106808428
0.000107491941
0.000108973761
0.000109975257
0.000107853773
0.000107014212
0.00010779794
0.000109525458
0.000109910851
0.000107779202
0.000107307328
0.000107795804
0.000110326736
0.000109863342
0.00010787421
0.000105760516
0.000106642109
0.000108847536
0.000109887987
0.00010780116
0.00010716064
0.000108848506
0.000109941667
0.000107817201
0.000107240423
0.000109073321
0.000109967426
0.000107928848
0.000107355483
0.000109626217
0.000109976171
0.000107493774
0.000107384511
0.000109861535
0.000110074272
0.000107904877
0.000107226789
0.000108783499
0.000110172145
0.000108018384
0.000106331253
0.000106982611
0.000109245073
0.000110152911
0.000107823798
0.000106307549
0.000107234038
0.000110057741
0.000110219454
0.000107769648
0.000107129672
0.000109227434
0.000110156123
0.000107844158
0.000106513487
0.000107391253
0.000110147554
0.000110247679
0.000107858496
0.000107101007
0.000108411868
0.000110214879
0.000108957273
0.000106652001
0.000106624624
0.000108215772
0.000110141023
0.00010859387
0.000106292195
0.000106769997
0.000109992923
0.000110141577
0.000107821272
0.000106151986
0.000107479186
0.000110137278
0.000110336537
0.00010731385
0.000107061707
0.000110067682
0.000110184999
0.000107830947
0.000106479223
0.000107788557
0.000110210952
0.000110384672
0.000107200957
0.000106976442
0.000110136313
0.000110214373
0.000107821084
0.000106432096
0.000107799988
0.000110285226
0.000110355467
0.000107627266
0.000106161638
0.000107845328
0.000110237774
0.000110251571
0.000107320795
0.000107629739
0.000110353399
0.000110308866
0.000107730875
0.000106211479
0.000107841432
0.000110248362
0.000110331745
0.000107372137
0.000107677977
0.000110387651
0.000110318676
0.000107826558
0.000106400852
0.000107798131
0.00011031878
0.000110374176
0.0001076092
0.000105944723
0.000107833211
0.000110270729
0.000110446204
0.000107281836
0.000107411589
0.00011042045
0.000110274443
0.000107623327
0.000105959013
0.000107764232
0.000110315978
0.000110481192
0.000107356259
0.000107575533
0.000110482744
0.000110292596
0.000107808065
0.000106323302
0.000107770738
0.000110408498
0.000110376984
0.000107745975
0.000106197064
0.000107754778
0.000110413652
0.000110439752
0.000107832564
0.000107053516
0.000107923094
0.000110413153
0.000110302298
0.000107788217
0.000106229689
0.000107750851
0.000110342869
0.000110373437
0.000107881879
0.000106457808
0.000106582709
0.000107596497
0.00011029077
0.000110458273
0.000110149438
0.000107728102
0.000106033413
0.00010774481
0.000110337294
0.000110315974
0.000107444613
0.000105967849
0.000107728643
0.000110338037
0.000110269561
0.000107234135
0.000107572093
0.000110459628
0.000110195843
0.000107346235
0.000105918011
0.000107667021
0.000110302047
0.00011026959
0.000106901661
0.000107175929
0.00011041754
0.000110226046
0.000106978462
0.00010753074
0.000110470774
0.00011021723
0.000107471873
0.000106099735
0.000107749987
0.00011034883
0.000110339997
0.00010715401
0.000107576631
0.000110489587
0.000110254666
0.000107586708
0.000106085485
0.000107690618
0.000110358868
0.000110380669
0.000107105452
0.000107521844
0.000110511107
0.000110293986
0.000107746044
0.00010634458
0.000107765903
0.000110434609
0.000110371369
0.000107738479
0.000106647478
0.000107761368
0.000110392511
0.000110384929
0.000107807127
0.000106718137
0.000106560189
0.000107230245
0.000110364027
0.00011036537
0.000106861018
0.000107088788
0.000110446205
0.000110239339
0.000107786767
0.000105901562
0.00010739724
0.000110260305
0.000110380873
0.000106794115
0.000106900428
0.000110321823
0.000110316435
0.000106710134
0.000106971421
0.000110344921
0.000110294313
0.000106734754
0.000106996288
0.000110469998
0.000110195163
0.000107757096
0.000105840749
0.000107372175
0.000110280503
0.000110393924
0.000106517382
0.000106974511
0.000110319888
0.000110253573
0.000106590044
0.000106915867
0.000110474334
0.000110144228
0.000107748876
0.00010595393
0.000107535546
0.000110271923
0.00011027437
0.000106402434
0.000107084537
0.000110259023
0.000110200759
0.00010637218
0.000106864145
0.000110436374
0.000110107421
0.000107791905
0.000105996547
0.000107260918
0.00011034196
0.000110217139
0.000107829376
0.00010604159
0.000107257174
0.000110360452
0.000110219572
0.000107831557
0.000105983041
0.000107039028
0.000110232096
0.00011022936
0.000107893775
0.000106046959
0.000106886367
0.000109912278
0.000110229791
0.000108003768
0.000106123975
0.000106714298
0.000109742756
0.000110208974
0.000108100062
)
;

boundaryField
{
    closed
    {
        type            calculated;
        value           nonuniform List<scalar> 0();
    }
    open
    {
        type            calculated;
        value           nonuniform List<scalar> 0();
    }
    sides
    {
        type            empty;
    }
    procBoundary1to0
    {
        type            processor;
        value           uniform 0.000110119312;
    }
    procBoundary1to2
    {
        type            processor;
        value           uniform 0.000106125096;
    }
}


// ************************************************************************* //
