/*--------------------------------*- C++ -*----------------------------------*\
| =========                 |                                                 |
| \\      /  F ield         | OpenFOAM: The Open Source CFD Toolbox           |
|  \\    /   O peration     | Version:  2306                                  |
|   \\  /    A nd           | Website:  www.openfoam.com                      |
|    \\/     M anipulation  |                                                 |
\*---------------------------------------------------------------------------*/
FoamFile
{
    version     2.0;
    format      ascii;
    arch        "LSB;label=32;scalar=64";
    class       volScalarField;
    location    "0.00076";
    object      rho;
}
// * * * * * * * * * * * * * * * * * * * * * * * * * * * * * * * * * * * * * //

dimensions      [1 -3 0 0 0 0 0];

internalField   nonuniform List<scalar> 
531
(
0.947313618
0.955691675
0.937716837
0.903820229
0.905515124
0.950841639
0.958074464
0.938152507
0.903923044
0.906095547
0.955659399
0.955296749
0.924082041
0.905249324
0.935545414
0.94903222
0.938086089
0.903114721
0.905629296
0.951606239
0.951517143
0.927055225
0.90401287
0.926947012
0.943100935
0.936609448
0.902378671
0.905565803
0.945176628
0.955443991
0.951461178
0.94659568
0.916570212
0.904312444
0.937355745
0.947629027
0.93612649
0.902507364
0.905732247
0.955034635
0.953941188
0.91290123
0.904217523
0.938007313
0.943686329
0.90323269
0.903916698
0.937586718
0.948701065
0.935996669
0.902092937
0.902977954
0.955732502
0.955672152
0.917218113
0.903486678
0.937130355
0.95200034
0.936510511
0.901782607
0.902026823
0.956122535
0.957494548
0.916621727
0.902488456
0.940940081
0.948400579
0.90193886
0.902136097
0.945179083
0.946872061
0.901349084
0.901370326
0.946020985
0.947626827
0.900806889
0.900382497
0.944148227
0.944930323
0.898572453
0.898604792
0.93272802
0.947488274
0.932250278
0.897216717
0.894872941
0.940704448
0.949680102
0.906454953
0.893413499
0.932360323
0.939086135
0.894581187
0.890576328
0.923523156
0.936451608
0.92688254
0.890713544
0.885024573
0.920480212
0.93604575
0.900437367
0.884091754
0.913980026
0.928670847
0.928602577
0.89078097
0.880723943
0.915201819
0.929824114
0.906983221
0.882469712
0.907273648
0.92195881
0.925850875
0.90169982
0.88329699
0.907735058
0.924812966
0.931248299
0.910650142
0.887076435
0.908820049
0.927348468
0.935903747
0.917712556
0.891427176
0.910512491
0.930159529
0.940905169
0.923720594
0.895752112
0.912716226
0.933548655
0.945073126
0.928164199
0.898822612
0.920853344
0.934829397
0.932456305
0.902120989
0.916529814
0.937595528
0.949638868
0.933291522
0.903033603
0.923875728
0.937888042
0.936301106
0.905026331
0.917310269
0.939356686
0.949693042
0.9356192
0.905560233
0.91758059
0.940701185
0.950923352
0.952607595
0.938625148
0.907209389
0.921387939
0.945361514
0.956259883
0.93847276
0.907663335
0.930572154
0.944696918
0.940543599
0.908894635
0.924997914
0.949280627
0.956046539
0.93732494
0.909248258
0.935409458
0.948066914
0.94156369
0.910477966
0.928740467
0.954206857
0.956418859
0.934670825
0.911049925
0.941190637
0.950666674
0.941117294
0.911382146
0.929191149
0.955384828
0.956969874
0.937763532
0.911638615
0.932015722
0.958431041
0.958091366
0.937013731
0.912461847
0.936901856
0.95985683
0.955824017
0.924675354
0.919553496
0.946240351
0.946100453
0.924948887
0.936957693
0.947047607
0.943340437
0.91040431
0.920575071
0.953083696
0.951545397
0.93219378
0.912035787
0.937799405
0.957557051
0.952841712
0.928772402
0.912138123
0.944501363
0.949223431
0.934247339
0.911142233
0.939501161
0.956694929
0.949846242
0.924519565
0.911017086
0.943360968
0.946706075
0.9301994
0.909566998
0.938382132
0.955251493
0.947117913
0.921528918
0.909263696
0.938685043
0.952287513
0.943011202
0.913379563
0.909339415
0.94094645
0.948451552
0.939520655
0.905462019
0.909145607
0.941463289
0.966147175
0.95581508
0.92218045
0.908580117
0.94132412
0.949546829
0.921980797
0.907947688
0.941127486
0.948430744
0.918635643
0.907562459
0.940131964
0.946879367
0.910819753
0.907228761
0.945111005
0.946329104
0.908035138
0.906390916
0.939795812
0.947951362
0.922097309
0.905566797
0.933621648
0.958200102
0.950574128
0.915407127
0.905483837
0.937401473
0.958305753
0.947499712
0.905930184
0.904597294
0.941254914
0.948750023
0.915631338
0.905543587
0.937061552
0.95608912
0.945915165
0.905597759
0.904761325
0.940645018
0.949569488
0.92780792
0.905708441
0.920013503
0.955053612
0.955414733
0.931100288
0.906505442
0.925401483
0.959394966
0.953839293
0.90730994
0.906343963
0.940117719
0.961004187
0.945504856
0.906250651
0.904375732
0.947374174
0.950287684
0.906485285
0.905803524
0.94020601
0.956955868
0.940919428
0.9055562
0.903734779
0.948425264
0.951016233
0.905646889
0.905309795
0.940003197
0.957254522
0.940520595
0.904667492
0.903865045
0.943217234
0.960304053
0.93983486
0.905037575
0.904318497
0.946746013
0.943139219
0.903913107
0.904336002
0.9419268
0.959659135
0.940002388
0.904912371
0.903630937
0.946132828
0.942569571
0.903668254
0.904312149
0.940670622
0.957481171
0.940355445
0.904354543
0.90367928
0.943378718
0.96280005
0.940766312
0.904742789
0.902893812
0.947267754
0.945772277
0.903455835
0.9047695
0.943331461
0.962770301
0.941711149
0.904525507
0.902809576
0.946541565
0.943995682
0.903078919
0.904780292
0.941246623
0.958660557
0.940998225
0.903888959
0.903978809
0.942040243
0.960137188
0.941525968
0.903794983
0.903416362
0.940738905
0.950078296
0.935759473
0.903954131
0.904531691
0.941396577
0.959582406
0.941097846
0.904362199
0.903830506
0.939523378
0.956778937
0.955278853
0.94338851
0.90452064
0.903269825
0.905372054
0.94085668
0.961405907
0.940949104
0.903869466
0.903779274
0.94474345
0.961906365
0.941294436
0.903540958
0.903836443
0.946927708
0.942928027
0.90224742
0.904478206
0.945437886
0.962037134
0.941605438
0.903509013
0.903451779
0.950467605
0.947241438
0.90233132
0.903766743
0.949488163
0.943024617
0.901882053
0.904010586
0.943657475
0.959636571
0.940363883
0.902895021
0.902636496
0.947284863
0.94233007
0.901618579
0.903534203
0.942149942
0.959636155
0.940884131
0.902618129
0.902114923
0.947669495
0.94278899
0.90126411
0.903056851
0.939781259
0.956453656
0.939315403
0.901885566
0.902385924
0.939074021
0.95288813
0.939194172
0.902324757
0.902320399
0.937682931
0.95209612
0.953952333
0.946158824
0.90243672
0.902273452
0.950541707
0.947917565
0.901924461
0.903728119
0.939510542
0.961879886
0.944503686
0.903679907
0.902453398
0.951678337
0.950488861
0.903351021
0.903235641
0.952853462
0.949855449
0.903341957
0.903632303
0.952752059
0.949741269
0.902432332
0.904872893
0.940058531
0.963325553
0.945502604
0.904131564
0.902872246
0.955530871
0.950207548
0.903920598
0.904192302
0.954695157
0.950880727
0.902517679
0.90547518
0.939488989
0.962003567
0.943537357
0.904086825
0.90354359
0.956640244
0.948633993
0.904145786
0.904216601
0.956741953
0.950921592
0.902097115
0.905214679
0.936744954
0.960605157
0.945768177
0.902107336
0.90363022
0.935710814
0.959410308
0.945104014
0.901254488
0.902859713
0.934769484
0.959194889
0.946728819
0.901295262
0.90182545
0.932447416
0.957375598
0.947410834
0.902850949
0.900754956
0.92919692
0.955325082
0.948260293
0.903278557
0.899873568
0.926422404
)
;

boundaryField
{
    closed
    {
        type            calculated;
        value           nonuniform List<scalar> 0();
    }
    open
    {
        type            calculated;
        value           nonuniform List<scalar> 0();
    }
    sides
    {
        type            empty;
    }
    procBoundary1to0
    {
        type            processor;
        value           uniform 0.905804869;
    }
    procBoundary1to2
    {
        type            processor;
        value           uniform 0.954234201;
    }
}


// ************************************************************************* //
