/*--------------------------------*- C++ -*----------------------------------*\
| =========                 |                                                 |
| \\      /  F ield         | OpenFOAM: The Open Source CFD Toolbox           |
|  \\    /   O peration     | Version:  2306                                  |
|   \\  /    A nd           | Website:  www.openfoam.com                      |
|    \\/     M anipulation  |                                                 |
\*---------------------------------------------------------------------------*/
FoamFile
{
    version     2.0;
    format      ascii;
    arch        "LSB;label=32;scalar=64";
    class       volScalarField;
    location    "0.00022";
    object      H;
}
// * * * * * * * * * * * * * * * * * * * * * * * * * * * * * * * * * * * * * //

dimensions      [0 0 0 0 0 0 0];

internalField   nonuniform List<scalar> 
530
(
2.27742598e-08
2.24831492e-08
2.19676156e-08
2.20587762e-08
2.23821879e-08
2.23673458e-08
2.21910998e-08
2.21909604e-08
2.22648653e-08
2.22727318e-08
2.22450265e-08
2.22387883e-08
2.22481841e-08
2.22515688e-08
2.22487115e-08
2.22472349e-08
2.22479679e-08
2.22484624e-08
2.22483348e-08
2.22482796e-08
2.22483219e-08
2.22481724e-08
2.22480768e-08
2.22482561e-08
2.22484638e-08
2.22483881e-08
2.22480398e-08
2.22480393e-08
2.22483306e-08
2.22484729e-08
2.22483276e-08
2.22480623e-08
2.22480833e-08
2.22483421e-08
2.22484057e-08
2.22482599e-08
2.22481481e-08
2.22482022e-08
2.22482878e-08
2.22482723e-08
2.22482409e-08
2.22482666e-08
2.22482839e-08
2.22482075e-08
2.22481668e-08
2.22482735e-08
2.22483691e-08
2.22482782e-08
2.22481213e-08
2.22481621e-08
2.224836e-08
2.22483552e-08
2.22481849e-08
2.22481564e-08
2.22482702e-08
2.22483194e-08
2.2248251e-08
2.22482016e-08
2.22482437e-08
2.22482861e-08
2.22482526e-08
2.22482103e-08
2.22482418e-08
2.2248299e-08
2.22482764e-08
2.22481923e-08
2.22481971e-08
2.22482974e-08
2.22483149e-08
2.22482311e-08
2.22481858e-08
2.22482363e-08
2.22482992e-08
2.2248279e-08
2.22482181e-08
2.22482211e-08
2.22482665e-08
2.22482688e-08
2.22482398e-08
2.22482353e-08
2.2248257e-08
2.22482622e-08
2.22482439e-08
2.22482377e-08
2.22482516e-08
2.22482585e-08
2.22482494e-08
2.22482437e-08
2.2248249e-08
2.22482538e-08
2.22482497e-08
2.22482449e-08
2.22482465e-08
2.22482539e-08
2.22482547e-08
2.22482516e-08
2.22482412e-08
2.22482386e-08
2.22482539e-08
2.22482699e-08
2.22482589e-08
2.22482218e-08
2.22482231e-08
2.22482711e-08
2.22482878e-08
2.22482493e-08
2.22482088e-08
2.22482203e-08
2.22482809e-08
2.22482887e-08
2.2248248e-08
2.22482152e-08
2.22482231e-08
2.22482682e-08
2.22482813e-08
2.22482558e-08
2.22482229e-08
2.22482272e-08
2.2248266e-08
2.22482723e-08
2.22482459e-08
2.22482315e-08
2.22482452e-08
2.2248261e-08
2.22482559e-08
2.22482429e-08
2.22482439e-08
2.22482526e-08
2.22482526e-08
2.22482485e-08
2.22482477e-08
2.22482496e-08
2.22482502e-08
2.22482494e-08
2.22482491e-08
2.22482494e-08
2.22482495e-08
2.22482494e-08
2.22482494e-08
2.22482494e-08
2.22482494e-08
2.22482494e-08
2.22482494e-08
2.22482494e-08
2.22482494e-08
2.22482494e-08
2.22482494e-08
2.22482494e-08
2.22482494e-08
2.22482494e-08
2.22482494e-08
2.22482494e-08
2.22482494e-08
2.22482494e-08
2.22482494e-08
2.22482494e-08
2.22482494e-08
2.22482494e-08
2.22482494e-08
2.22482494e-08
2.22482494e-08
2.22482494e-08
2.22482494e-08
2.22482494e-08
2.22482494e-08
2.22482494e-08
2.22482494e-08
2.22482494e-08
2.22482494e-08
2.22482494e-08
2.22482494e-08
2.22482494e-08
2.22482494e-08
2.22482494e-08
2.22482494e-08
2.22482494e-08
2.22482494e-08
2.22482494e-08
2.22482494e-08
2.22482494e-08
2.22482494e-08
2.22482494e-08
2.22482494e-08
2.22482494e-08
2.22482494e-08
2.22482494e-08
2.22482494e-08
2.22482494e-08
2.22482494e-08
2.22482494e-08
2.22482494e-08
2.22482494e-08
2.22482494e-08
2.22482494e-08
2.22482494e-08
2.22482494e-08
2.22482494e-08
2.22482494e-08
2.22482494e-08
2.22482494e-08
2.22482494e-08
2.22482495e-08
2.22482496e-08
2.22482494e-08
2.22482488e-08
2.22482489e-08
2.22482505e-08
2.22482508e-08
2.22482484e-08
2.22482457e-08
2.22482484e-08
2.22482564e-08
2.22482555e-08
2.22482401e-08
2.22482362e-08
2.22482552e-08
2.2248271e-08
2.22482549e-08
2.22482222e-08
2.22482266e-08
2.22482757e-08
2.22482823e-08
2.22482381e-08
2.2248214e-08
2.22482409e-08
2.22482801e-08
2.22482724e-08
2.22482284e-08
2.2248228e-08
2.22482542e-08
2.22482649e-08
2.22482539e-08
2.22482411e-08
2.22482424e-08
2.22482527e-08
2.2248254e-08
2.22482498e-08
2.22482474e-08
2.22482478e-08
2.22482504e-08
2.22482504e-08
2.22482493e-08
2.22482489e-08
2.22482493e-08
2.22482496e-08
2.22482495e-08
2.22482493e-08
2.22482494e-08
2.22482494e-08
2.22482494e-08
2.22482494e-08
2.22482494e-08
2.22482494e-08
2.22482494e-08
2.22482494e-08
2.22482494e-08
2.22482494e-08
2.22482494e-08
2.22482494e-08
2.22482494e-08
2.22482494e-08
2.22482494e-08
2.22482494e-08
2.22482494e-08
2.22482494e-08
2.22482494e-08
2.22482494e-08
2.22482494e-08
2.22482494e-08
2.22482494e-08
2.22482494e-08
2.22482494e-08
2.22482494e-08
2.22482494e-08
2.22482494e-08
2.22482494e-08
2.22482494e-08
2.22482494e-08
2.22482494e-08
2.22482494e-08
2.22482494e-08
2.22482494e-08
2.22482494e-08
2.22482494e-08
2.22482494e-08
2.22482494e-08
2.22482494e-08
2.22482494e-08
2.22482494e-08
2.22482494e-08
2.22482494e-08
2.22482494e-08
2.22482494e-08
2.22482494e-08
2.22482494e-08
2.22482494e-08
2.22482494e-08
2.22482494e-08
2.22482494e-08
2.22482494e-08
2.22482494e-08
2.22482494e-08
2.22482494e-08
2.22482494e-08
2.22482494e-08
2.22482494e-08
2.22482494e-08
2.22482494e-08
2.22482494e-08
2.22482494e-08
2.22482494e-08
2.22482494e-08
2.22482494e-08
2.22482494e-08
2.22482494e-08
2.22482494e-08
2.22482494e-08
2.22482494e-08
2.22482494e-08
2.22482494e-08
2.22482494e-08
2.22482494e-08
2.22482494e-08
2.22482494e-08
2.22482494e-08
2.22482494e-08
2.22482494e-08
2.22482494e-08
2.22482494e-08
2.22482494e-08
2.22482494e-08
2.22482494e-08
2.22482494e-08
2.22482494e-08
2.22482494e-08
2.22482494e-08
2.22482494e-08
2.22482494e-08
2.22482494e-08
2.22482494e-08
2.22482494e-08
2.22482494e-08
2.22482494e-08
2.22482494e-08
2.22482494e-08
2.22482494e-08
2.22482494e-08
2.22482494e-08
2.22482494e-08
2.22482494e-08
2.22482494e-08
2.22482494e-08
2.22482494e-08
2.22482494e-08
2.22482494e-08
2.22482494e-08
2.22482494e-08
2.22482494e-08
2.22482494e-08
2.22482494e-08
2.22482494e-08
2.22482494e-08
2.22482494e-08
2.22482494e-08
2.22482494e-08
2.22482494e-08
2.22482494e-08
2.22482494e-08
2.22482494e-08
2.22482494e-08
2.22482494e-08
2.22482494e-08
2.22482494e-08
2.22482494e-08
2.22482494e-08
2.22482494e-08
2.22482494e-08
2.22482494e-08
2.22482494e-08
2.22482494e-08
2.22482494e-08
2.22482494e-08
2.22482494e-08
2.22482494e-08
2.22482494e-08
2.22482494e-08
2.22482494e-08
2.22482494e-08
2.22482494e-08
2.22482494e-08
2.22482494e-08
2.22482494e-08
2.22482494e-08
2.22482494e-08
2.22482494e-08
2.22482494e-08
2.22482494e-08
2.22482494e-08
2.22482494e-08
2.22482494e-08
2.22482494e-08
2.22482494e-08
2.22482494e-08
2.22482494e-08
2.22482495e-08
2.22482494e-08
2.22482493e-08
2.22482493e-08
2.22482496e-08
2.22482498e-08
2.22482493e-08
2.22482485e-08
2.22482489e-08
2.22482511e-08
2.22482511e-08
2.22482473e-08
2.22482457e-08
2.22482505e-08
2.22482555e-08
2.22482514e-08
2.22482418e-08
2.22482429e-08
2.2248257e-08
2.22482581e-08
2.22482454e-08
2.22482404e-08
2.22482493e-08
2.22482572e-08
2.22482521e-08
2.2248244e-08
2.22482454e-08
2.2248253e-08
2.22482526e-08
2.22482478e-08
2.22482473e-08
2.224825e-08
2.22482505e-08
2.22482494e-08
2.22482489e-08
2.22482494e-08
2.22482496e-08
2.22482495e-08
2.22482493e-08
2.22482494e-08
2.22482494e-08
2.22482494e-08
2.22482494e-08
2.22482494e-08
2.22482494e-08
2.22482494e-08
2.22482494e-08
2.22482494e-08
2.22482494e-08
2.22482494e-08
2.22482494e-08
2.22482494e-08
2.22482494e-08
2.22482494e-08
2.22482494e-08
2.22482494e-08
2.22482494e-08
2.22482494e-08
2.22482494e-08
2.22482494e-08
2.22482494e-08
2.22482494e-08
2.22482494e-08
2.22482494e-08
2.22482494e-08
2.22482494e-08
2.22482494e-08
2.22482494e-08
2.22482494e-08
2.22482494e-08
2.22482494e-08
2.22482494e-08
2.22482495e-08
2.22482495e-08
2.22482492e-08
2.22482492e-08
2.22482498e-08
2.22482501e-08
2.22482493e-08
2.22482474e-08
2.22482472e-08
2.22482542e-08
2.22482605e-08
2.22482459e-08
2.22482049e-08
2.22482152e-08
2.22484008e-08
2.2248463e-08
2.22479075e-08
2.22472943e-08
2.2248475e-08
2.22516048e-08
2.2250658e-08
2.22386689e-08
2.22363505e-08
2.2265829e-08
2.22897109e-08
2.2237067e-08
2.21362012e-08
2.21753033e-08
2.24996317e-08
2.25244401e-08
2.19014814e-08
2.15543492e-08
2.2431391e-08
2.36308932e-08
2.29862704e-08
1.99668466e-08
2.01109369e-08
2.45619354e-08
2.5995944e-08
2.12467156e-08
1.65628519e-08
2.06879939e-08
2.77272e-08
2.6647999e-08
1.66728569e-08
1.60441044e-08
2.50646012e-08
2.74397115e-08
2.19640583e-08
1.77377078e-08
2.0951735e-08
2.5222718e-08
2.39956211e-08
2.04474238e-08
)
;

boundaryField
{
    closed
    {
        type            calculated;
        value           nonuniform List<scalar> 0();
    }
    open
    {
        type            calculated;
        value           nonuniform List<scalar> 0();
    }
    sides
    {
        type            empty;
    }
    procBoundary2to1
    {
        type            processor;
        value           uniform 2.20755306e-08;
    }
    procBoundary2to3
    {
        type            processor;
        value           uniform 2.06690628e-08;
    }
}


// ************************************************************************* //
