/*--------------------------------*- C++ -*----------------------------------*\
| =========                 |                                                 |
| \\      /  F ield         | OpenFOAM: The Open Source CFD Toolbox           |
|  \\    /   O peration     | Version:  2306                                  |
|   \\  /    A nd           | Website:  www.openfoam.com                      |
|    \\/     M anipulation  |                                                 |
\*---------------------------------------------------------------------------*/
FoamFile
{
    version     2.0;
    format      ascii;
    arch        "LSB;label=32;scalar=64";
    class       volScalarField;
    location    "0.00022";
    object      PV;
}
// * * * * * * * * * * * * * * * * * * * * * * * * * * * * * * * * * * * * * //

dimensions      [0 0 0 0 0 0 0];

internalField   nonuniform List<scalar> 
530
(
-0.00715745541
-0.00715582702
-0.0071529732
-0.00715347427
-0.00715526753
-0.00715518435
-0.00715420628
-0.00715420554
-0.007154615
-0.00715465868
-0.00715450488
-0.00715447033
-0.00715452241
-0.00715454118
-0.00715452533
-0.00715451714
-0.00715452121
-0.00715452396
-0.00715452325
-0.00715452295
-0.00715452319
-0.00715452236
-0.00715452183
-0.00715452283
-0.00715452398
-0.00715452357
-0.00715452164
-0.00715452164
-0.00715452326
-0.00715452405
-0.00715452325
-0.00715452178
-0.0071545219
-0.00715452334
-0.00715452369
-0.00715452289
-0.00715452227
-0.00715452257
-0.00715452305
-0.00715452297
-0.0071545228
-0.00715452294
-0.00715452304
-0.00715452262
-0.0071545224
-0.00715452299
-0.00715452352
-0.00715452302
-0.00715452216
-0.00715452239
-0.00715452349
-0.00715452346
-0.00715452252
-0.00715452237
-0.007154523
-0.00715452328
-0.0071545229
-0.00715452263
-0.00715452287
-0.00715452311
-0.00715452292
-0.00715452269
-0.00715452287
-0.00715452319
-0.00715452307
-0.00715452261
-0.00715452263
-0.0071545232
-0.0071545233
-0.00715452284
-0.00715452259
-0.00715452287
-0.00715452323
-0.00715452312
-0.00715452278
-0.0071545228
-0.00715452306
-0.00715452308
-0.00715452292
-0.0071545229
-0.00715452302
-0.00715452306
-0.00715452296
-0.00715452293
-0.00715452301
-0.00715452305
-0.00715452301
-0.00715452298
-0.00715452302
-0.00715452305
-0.00715452303
-0.00715452301
-0.00715452302
-0.00715452307
-0.00715452308
-0.00715452306
-0.00715452301
-0.007154523
-0.00715452309
-0.00715452319
-0.00715452313
-0.00715452293
-0.00715452294
-0.00715452322
-0.00715452331
-0.00715452311
-0.00715452289
-0.00715452296
-0.0071545233
-0.00715452335
-0.00715452313
-0.00715452296
-0.00715452301
-0.00715452327
-0.00715452334
-0.00715452321
-0.00715452304
-0.00715452307
-0.00715452329
-0.00715452333
-0.00715452319
-0.00715452312
-0.00715452321
-0.0071545233
-0.00715452328
-0.00715452322
-0.00715452323
-0.00715452329
-0.0071545233
-0.00715452329
-0.00715452329
-0.00715452331
-0.00715452332
-0.00715452333
-0.00715452333
-0.00715452335
-0.00715452336
-0.00715452337
-0.00715452337
-0.00715452339
-0.00715452339
-0.00715452341
-0.00715452342
-0.00715452343
-0.00715452344
-0.00715452345
-0.00715452346
-0.00715452347
-0.00715452348
-0.00715452349
-0.0071545235
-0.00715452351
-0.00715452352
-0.00715452353
-0.00715452354
-0.00715452355
-0.00715452356
-0.00715452357
-0.00715452359
-0.0071545236
-0.00715452361
-0.00715452362
-0.00715452363
-0.00715452364
-0.00715452365
-0.00715452366
-0.00715452367
-0.00715452368
-0.00715452369
-0.0071545237
-0.00715452371
-0.00715452372
-0.00715452373
-0.00715452374
-0.00715452374
-0.00715452375
-0.00715452376
-0.00715452377
-0.00715452378
-0.00715452379
-0.0071545238
-0.0071545238
-0.00715452381
-0.00715452382
-0.00715452383
-0.00715452383
-0.00715452384
-0.00715452385
-0.00715452386
-0.00715452386
-0.00715452387
-0.00715452387
-0.00715452388
-0.00715452389
-0.00715452389
-0.0071545239
-0.00715452391
-0.00715452391
-0.00715452392
-0.00715452392
-0.00715452393
-0.00715452393
-0.00715452394
-0.00715452394
-0.00715452394
-0.00715452395
-0.00715452396
-0.00715452397
-0.00715452396
-0.00715452395
-0.00715452397
-0.00715452402
-0.00715452402
-0.00715452394
-0.00715452392
-0.00715452403
-0.00715452412
-0.00715452403
-0.00715452386
-0.00715452388
-0.00715452416
-0.0071545242
-0.00715452396
-0.00715452383
-0.00715452399
-0.00715452421
-0.00715452417
-0.00715452393
-0.00715452393
-0.00715452408
-0.00715452414
-0.00715452409
-0.00715452402
-0.00715452403
-0.00715452409
-0.0071545241
-0.00715452409
-0.00715452408
-0.00715452408
-0.0071545241
-0.00715452411
-0.00715452411
-0.00715452411
-0.00715452412
-0.00715452412
-0.00715452413
-0.00715452413
-0.00715452413
-0.00715452414
-0.00715452414
-0.00715452415
-0.00715452415
-0.00715452416
-0.00715452416
-0.00715452417
-0.00715452418
-0.00715452418
-0.00715452419
-0.00715452419
-0.0071545242
-0.00715452421
-0.00715452421
-0.00715452422
-0.00715452422
-0.00715452423
-0.00715452423
-0.00715452424
-0.00715452424
-0.00715452425
-0.00715452426
-0.00715452426
-0.00715452427
-0.00715452427
-0.00715452428
-0.00715452428
-0.00715452429
-0.0071545243
-0.0071545243
-0.00715452431
-0.00715452431
-0.00715452432
-0.00715452432
-0.00715452433
-0.00715452433
-0.00715452434
-0.00715452434
-0.00715452435
-0.00715452435
-0.00715452436
-0.00715452436
-0.00715452437
-0.00715452437
-0.00715452438
-0.00715452438
-0.00715452439
-0.00715452439
-0.0071545244
-0.0071545244
-0.00715452441
-0.00715452441
-0.00715452442
-0.00715452442
-0.00715452442
-0.00715452443
-0.00715452443
-0.00715452444
-0.00715452444
-0.00715452444
-0.00715452445
-0.00715452445
-0.00715452446
-0.00715452446
-0.00715452446
-0.00715452447
-0.00715452447
-0.00715452447
-0.00715452448
-0.00715452448
-0.00715452448
-0.00715452449
-0.00715452449
-0.00715452449
-0.0071545245
-0.0071545245
-0.0071545245
-0.00715452451
-0.00715452451
-0.00715452451
-0.00715452452
-0.00715452452
-0.00715452452
-0.00715452452
-0.00715452453
-0.00715452453
-0.00715452453
-0.00715452454
-0.00715452454
-0.00715452454
-0.00715452455
-0.00715452455
-0.00715452455
-0.00715452456
-0.00715452456
-0.00715452456
-0.00715452457
-0.00715452457
-0.00715452457
-0.00715452458
-0.00715452458
-0.00715452458
-0.00715452459
-0.00715452459
-0.00715452459
-0.0071545246
-0.0071545246
-0.00715452461
-0.00715452461
-0.00715452461
-0.00715452462
-0.00715452462
-0.00715452463
-0.00715452463
-0.00715452463
-0.00715452464
-0.00715452464
-0.00715452464
-0.00715452465
-0.00715452465
-0.00715452466
-0.00715452466
-0.00715452466
-0.00715452467
-0.00715452467
-0.00715452468
-0.00715452468
-0.00715452469
-0.00715452469
-0.00715452469
-0.0071545247
-0.0071545247
-0.00715452471
-0.00715452471
-0.00715452472
-0.00715452472
-0.00715452473
-0.00715452473
-0.00715452474
-0.00715452474
-0.00715452475
-0.00715452475
-0.00715452476
-0.00715452476
-0.00715452477
-0.00715452477
-0.00715452477
-0.00715452478
-0.00715452478
-0.00715452479
-0.00715452479
-0.0071545248
-0.00715452481
-0.00715452481
-0.00715452482
-0.00715452482
-0.00715452483
-0.00715452483
-0.00715452484
-0.00715452484
-0.00715452485
-0.00715452486
-0.00715452486
-0.00715452487
-0.00715452487
-0.00715452489
-0.0071545249
-0.00715452489
-0.00715452488
-0.00715452492
-0.00715452495
-0.00715452493
-0.00715452489
-0.0071545249
-0.00715452499
-0.007154525
-0.00715452493
-0.00715452491
-0.00715452497
-0.00715452502
-0.007154525
-0.00715452496
-0.00715452498
-0.00715452503
-0.00715452503
-0.00715452501
-0.00715452502
-0.00715452504
-0.00715452505
-0.00715452505
-0.00715452505
-0.00715452507
-0.00715452507
-0.00715452508
-0.00715452509
-0.0071545251
-0.0071545251
-0.00715452511
-0.00715452512
-0.00715452513
-0.00715452513
-0.00715452514
-0.00715452515
-0.00715452515
-0.00715452516
-0.00715452517
-0.00715452518
-0.00715452518
-0.00715452519
-0.0071545252
-0.00715452521
-0.00715452521
-0.00715452522
-0.00715452523
-0.00715452523
-0.00715452524
-0.00715452525
-0.00715452525
-0.00715452526
-0.00715452527
-0.00715452527
-0.00715452528
-0.00715452529
-0.00715452529
-0.0071545253
-0.00715452531
-0.00715452531
-0.00715452532
-0.00715452533
-0.00715452533
-0.00715452534
-0.00715452534
-0.00715452535
-0.00715452536
-0.00715452536
-0.00715452535
-0.00715452536
-0.00715452541
-0.00715452544
-0.00715452537
-0.00715452515
-0.00715452521
-0.00715452625
-0.0071545266
-0.00715452353
-0.00715452014
-0.0071545267
-0.00715454408
-0.00715453887
-0.00715447245
-0.00715445965
-0.00715462329
-0.00715475609
-0.00715446468
-0.00715390628
-0.0071541242
-0.00715592586
-0.00715606855
-0.00715261741
-0.00715071466
-0.00715556502
-0.00716229785
-0.00715868985
-0.00714209506
-0.0071429367
-0.00716759331
-0.00717598951
-0.00714907058
-0.00712421489
-0.00714601658
-0.00718619546
-0.00717972349
-0.00712480044
-0.00712152026
-0.00717058901
-0.00718454709
-0.00715299563
-0.00713037673
-0.00714738978
-0.00717147928
-0.00716433641
-0.0071447284
)
;

boundaryField
{
    closed
    {
        type            zeroGradient;
    }
    open
    {
        type            zeroGradient;
    }
    sides
    {
        type            empty;
    }
    procBoundary2to1
    {
        type            processor;
        value           uniform -0.00715356695;
    }
    procBoundary2to3
    {
        type            processor;
        value           uniform -0.00714589373;
    }
}


// ************************************************************************* //
