/*--------------------------------*- C++ -*----------------------------------*\
| =========                 |                                                 |
| \\      /  F ield         | OpenFOAM: The Open Source CFD Toolbox           |
|  \\    /   O peration     | Version:  2306                                  |
|   \\  /    A nd           | Website:  www.openfoam.com                      |
|    \\/     M anipulation  |                                                 |
\*---------------------------------------------------------------------------*/
FoamFile
{
    version     2.0;
    format      ascii;
    arch        "LSB;label=32;scalar=64";
    class       volScalarField;
    location    "0.0005";
    object      alpha;
}
// * * * * * * * * * * * * * * * * * * * * * * * * * * * * * * * * * * * * * //

dimensions      [1 -1 -1 0 0 0 0];

internalField   nonuniform List<scalar> 
531
(
3.57328736e-05
3.68088979e-05
3.68252318e-05
3.54631957e-05
3.55593643e-05
3.68279837e-05
3.68258179e-05
3.53512153e-05
3.54370226e-05
3.68315823e-05
3.6830442e-05
3.53256857e-05
3.54300591e-05
3.68371803e-05
3.68217953e-05
3.53303116e-05
3.54991154e-05
3.68407073e-05
3.67587558e-05
3.54355191e-05
3.57330936e-05
3.6851062e-05
3.68590304e-05
3.56842085e-05
3.52587153e-05
3.5730695e-05
3.68182639e-05
3.68542524e-05
3.57797404e-05
3.56031951e-05
3.55070239e-05
3.53041943e-05
3.57089193e-05
3.68339251e-05
3.68475076e-05
3.5711124e-05
3.52621824e-05
3.57052713e-05
3.68048366e-05
3.68588461e-05
3.59747068e-05
3.5478752e-05
3.50304044e-05
3.5503802e-05
3.68239822e-05
3.68054284e-05
3.52872358e-05
3.561685e-05
3.68284904e-05
3.66007482e-05
3.5333005e-05
3.57386666e-05
3.68292234e-05
3.63346258e-05
3.53743832e-05
3.57242479e-05
3.68444661e-05
3.68499583e-05
3.5647995e-05
3.50849569e-05
3.57588749e-05
3.68135965e-05
3.6048638e-05
3.5304568e-05
3.57030919e-05
3.68477867e-05
3.68634646e-05
3.56851158e-05
3.51782545e-05
3.57120147e-05
3.68272787e-05
3.68682636e-05
3.57049665e-05
3.52655085e-05
3.57577037e-05
3.68142811e-05
3.6848522e-05
3.576034e-05
3.52035605e-05
3.51303199e-05
3.60470796e-05
3.67803008e-05
3.54796743e-05
3.53576158e-05
3.67961821e-05
3.67841958e-05
3.65136322e-05
3.51983807e-05
3.50019835e-05
3.68217063e-05
3.67718598e-05
3.51562408e-05
3.57026665e-05
3.68071764e-05
3.64558948e-05
3.53050762e-05
3.5728304e-05
3.68267817e-05
3.6445182e-05
3.53169092e-05
3.57140432e-05
3.68296968e-05
3.63066069e-05
3.54225046e-05
3.57217099e-05
3.68299969e-05
3.68612344e-05
3.56877305e-05
3.52447573e-05
3.57711065e-05
3.67957359e-05
3.68566429e-05
3.57534447e-05
3.53571011e-05
3.52861846e-05
3.57359228e-05
3.67974355e-05
3.68432364e-05
3.5343234e-05
3.51114113e-05
3.67845557e-05
3.65820117e-05
3.53555606e-05
3.57461169e-05
3.68049857e-05
3.68455057e-05
3.56955377e-05
3.52095432e-05
3.57313037e-05
3.67993797e-05
3.6842022e-05
3.57127935e-05
3.509666e-05
3.5658684e-05
3.68113113e-05
3.68518907e-05
3.57353438e-05
3.51532409e-05
3.56660222e-05
3.6819142e-05
3.68542254e-05
3.57162316e-05
3.51110311e-05
3.56937516e-05
3.67862859e-05
3.62988085e-05
3.54440099e-05
3.57214297e-05
3.68109371e-05
3.6846339e-05
3.57028653e-05
3.50555479e-05
3.55649205e-05
3.67992325e-05
3.68518836e-05
3.57633462e-05
3.51584288e-05
3.56861291e-05
3.67920592e-05
3.62526802e-05
3.5444979e-05
3.57049376e-05
3.67903254e-05
3.68399312e-05
3.58005595e-05
3.50762787e-05
3.50740146e-05
3.66812847e-05
3.67842983e-05
3.61515445e-05
3.51965877e-05
3.51686372e-05
3.66713508e-05
3.67922888e-05
3.60803572e-05
3.52310502e-05
3.52216035e-05
3.66376016e-05
3.6831616e-05
3.62460447e-05
3.56925811e-05
3.57653088e-05
3.57292728e-05
3.5491605e-05
3.54689836e-05
3.67203338e-05
3.67754268e-05
3.67782742e-05
3.68009123e-05
3.57188955e-05
3.55395007e-05
3.57250747e-05
3.53397758e-05
3.53416411e-05
3.66772346e-05
3.68043187e-05
3.67620554e-05
3.61519863e-05
3.50974618e-05
3.50576931e-05
3.65971528e-05
3.67948796e-05
3.59946082e-05
3.51916535e-05
3.51774878e-05
3.66402054e-05
3.67873628e-05
3.60312982e-05
3.52223149e-05
3.51936811e-05
3.6651831e-05
3.67860534e-05
3.60088184e-05
3.5180175e-05
3.51640934e-05
3.66858627e-05
3.68116825e-05
3.57670413e-05
3.52869183e-05
3.58327302e-05
3.67653248e-05
3.65561351e-05
3.51951551e-05
3.50905409e-05
3.65875306e-05
3.67745474e-05
3.59979657e-05
3.51468944e-05
3.51380169e-05
3.65871474e-05
3.67946395e-05
3.67737154e-05
3.58852288e-05
3.5116977e-05
3.51061207e-05
3.6648176e-05
3.67899745e-05
3.58443269e-05
3.49514122e-05
3.49465579e-05
3.6600481e-05
3.68143779e-05
3.57978159e-05
3.52709484e-05
3.66927562e-05
3.68172806e-05
3.57435756e-05
3.53235972e-05
3.67116712e-05
3.67937903e-05
3.60394486e-05
3.51817471e-05
3.51732524e-05
3.6709856e-05
3.68014806e-05
3.58611684e-05
3.53218868e-05
3.53207912e-05
3.67325024e-05
3.67908069e-05
3.59487455e-05
3.52448974e-05
3.52364126e-05
3.67206493e-05
3.68300881e-05
3.57586494e-05
3.51345915e-05
3.62375543e-05
3.68286144e-05
3.57385553e-05
3.53535796e-05
3.6688151e-05
3.68348034e-05
3.63623125e-05
3.56793265e-05
3.56048351e-05
3.57426232e-05
3.56407927e-05
3.55403022e-05
3.67757699e-05
3.68508228e-05
3.57599706e-05
3.54181208e-05
3.67815215e-05
3.68138549e-05
3.599649e-05
3.5187288e-05
3.51832613e-05
3.64818493e-05
3.68289696e-05
3.67936222e-05
3.5683706e-05
3.55063851e-05
3.57286281e-05
3.55951999e-05
3.55869702e-05
3.6797807e-05
3.68258328e-05
3.59453703e-05
3.53101994e-05
3.53111246e-05
3.68029294e-05
3.68358007e-05
3.68279044e-05
3.57237513e-05
3.54652615e-05
3.56903341e-05
3.54388365e-05
3.54369524e-05
3.68027494e-05
3.68204995e-05
3.60071957e-05
3.53972335e-05
3.54006937e-05
3.6756044e-05
3.68432206e-05
3.67937221e-05
3.56549493e-05
3.54624435e-05
3.57173742e-05
3.5721874e-05
3.56022998e-05
3.59337436e-05
3.6841485e-05
3.68303364e-05
3.58971943e-05
3.5178307e-05
3.51788937e-05
3.67888377e-05
3.68387822e-05
3.54505231e-05
3.51731881e-05
3.67892654e-05
3.67823661e-05
3.60326174e-05
3.50347018e-05
3.50470681e-05
3.68005232e-05
3.6827389e-05
3.61741314e-05
3.56486982e-05
3.56078393e-05
3.58166254e-05
3.55823387e-05
3.55690279e-05
3.68246796e-05
3.68006242e-05
3.67849094e-05
3.64178448e-05
3.55452277e-05
3.54506792e-05
3.57828022e-05
3.56316452e-05
3.56247097e-05
3.6830787e-05
3.68517436e-05
3.61332558e-05
3.55653258e-05
3.52794255e-05
3.57192715e-05
3.67887159e-05
3.68671576e-05
3.5494148e-05
3.51182176e-05
3.68453392e-05
3.68278484e-05
3.58617014e-05
3.54725962e-05
3.52832183e-05
3.57042883e-05
3.68416738e-05
3.68415403e-05
3.56882506e-05
3.50329612e-05
3.56841797e-05
3.67507341e-05
3.6853266e-05
3.68004592e-05
3.56646802e-05
3.51198178e-05
3.51248642e-05
3.57337055e-05
3.6866804e-05
3.5665063e-05
3.5148707e-05
3.69295741e-05
3.68844653e-05
3.5599373e-05
3.50519071e-05
3.57696319e-05
3.69295192e-05
3.7037062e-05
3.69753143e-05
3.53490749e-05
3.41474504e-05
3.49777744e-05
3.70132628e-05
3.70752502e-05
3.69629552e-05
3.69889773e-05
3.69136199e-05
3.45193387e-05
3.42033567e-05
3.66569859e-05
3.67962513e-05
3.67021615e-05
3.67432759e-05
3.67007118e-05
3.67055445e-05
3.66860104e-05
3.66851791e-05
3.6682485e-05
3.67053962e-05
3.67430484e-05
3.68487739e-05
3.70217534e-05
3.72255933e-05
3.69744806e-05
3.66961336e-05
3.64776652e-05
3.62403756e-05
3.60743867e-05
3.58981725e-05
3.57752639e-05
3.55578023e-05
3.55314736e-05
3.54073482e-05
3.52618256e-05
3.51062127e-05
3.50157755e-05
3.49762134e-05
3.45470098e-05
3.69288963e-05
3.67972287e-05
3.36666342e-05
3.30583076e-05
3.27704219e-05
3.57331941e-05
3.59580663e-05
3.55955976e-05
3.68866872e-05
3.68739146e-05
3.71607764e-05
3.76167174e-05
3.78187593e-05
4.14621534e-05
4.39468788e-05
4.49301999e-05
4.71589631e-05
4.86228227e-05
4.99600835e-05
5.13443071e-05
5.26418768e-05
5.40493923e-05
5.52728019e-05
5.64750531e-05
5.7169067e-05
5.81614268e-05
5.8542259e-05
5.9564514e-05
6.00235771e-05
6.10440122e-05
6.15719941e-05
6.2557208e-05
6.31406767e-05
6.41373941e-05
6.48337759e-05
6.57731644e-05
6.6342756e-05
6.69971074e-05
6.74718984e-05
6.80549454e-05
6.86209838e-05
6.86790763e-05
6.91950621e-05
6.98951323e-05
7.04415592e-05
7.03051713e-05
7.06513478e-05
7.11987153e-05
7.14219907e-05
7.11725815e-05
7.14138746e-05
7.22259971e-05
7.24647528e-05
7.18224403e-05
7.2510897e-05
7.31344496e-05
7.31562291e-05
7.25544145e-05
7.33369543e-05
7.41480426e-05
7.32911345e-05
7.33575936e-05
7.42560747e-05
7.46899345e-05
7.39096286e-05
7.3011865e-05
7.46463208e-05
7.49685772e-05
7.43945047e-05
7.36597832e-05
7.5057326e-05
7.53837584e-05
7.49103746e-05
7.43480484e-05
7.53533659e-05
7.55721401e-05
7.52486317e-05
7.5256083e-05
7.55875558e-05
7.56779806e-05
7.54841995e-05
7.56552891e-05
7.57571867e-05
7.57440237e-05
7.56805306e-05
7.59302295e-05
7.59000277e-05
7.59178209e-05
7.58425671e-05
7.61511621e-05
7.60369333e-05
7.59902227e-05
7.60103364e-05
7.6279024e-05
7.61634551e-05
7.61143695e-05
7.61603954e-05
7.63748357e-05
7.62788536e-05
)
;

boundaryField
{
    closed
    {
        type            calculated;
        value           nonuniform List<scalar> 0();
    }
    open
    {
        type            calculated;
        value           nonuniform List<scalar> 0();
    }
    sides
    {
        type            empty;
    }
    procBoundary4to3
    {
        type            processor;
        value           uniform 3.53274594e-05;
    }
    procBoundary4to5
    {
        type            processor;
        value           uniform 7.6219674e-05;
    }
}


// ************************************************************************* //
