/*--------------------------------*- C++ -*----------------------------------*\
| =========                 |                                                 |
| \\      /  F ield         | OpenFOAM: The Open Source CFD Toolbox           |
|  \\    /   O peration     | Version:  2306                                  |
|   \\  /    A nd           | Website:  www.openfoam.com                      |
|    \\/     M anipulation  |                                                 |
\*---------------------------------------------------------------------------*/
FoamFile
{
    version     2.0;
    format      ascii;
    arch        "LSB;label=32;scalar=64";
    class       volScalarField;
    location    "0.0005";
    object      prefDZ_H2O;
}
// * * * * * * * * * * * * * * * * * * * * * * * * * * * * * * * * * * * * * //

dimensions      [1 -1 -1 0 0 0 0];

internalField   nonuniform List<scalar> 
531
(
-7.43741331e-07
-7.75130828e-07
-7.77134481e-07
-7.37069445e-07
-7.382769e-07
-7.75500975e-07
-7.77094841e-07
-7.36081703e-07
-7.37225792e-07
-7.75648615e-07
-7.77045347e-07
-7.35884644e-07
-7.37168317e-07
-7.75467671e-07
-7.77569792e-07
-7.35908619e-07
-7.37739818e-07
-7.75172365e-07
-7.79764654e-07
-7.36766483e-07
-7.39394227e-07
-7.74517959e-07
-7.74498369e-07
-7.39763103e-07
-7.35492716e-07
-7.45793353e-07
-7.74561872e-07
-7.7329739e-07
-7.47651607e-07
-7.38331223e-07
-7.37223927e-07
-7.35859556e-07
-7.42530903e-07
-7.7450098e-07
-7.74081013e-07
-7.42023013e-07
-7.35610928e-07
-7.43063894e-07
-7.75183362e-07
-7.72993634e-07
-7.5722359e-07
-7.36963128e-07
-7.33654238e-07
-7.37524191e-07
-7.75675212e-07
-7.78148214e-07
-7.35711689e-07
-7.38705952e-07
-7.75068613e-07
-7.76931053e-07
-7.36030967e-07
-7.40734162e-07
-7.74909506e-07
-7.69557839e-07
-7.36346795e-07
-7.41275087e-07
-7.743551e-07
-7.74647616e-07
-7.38385322e-07
-7.34092958e-07
-7.47852875e-07
-7.75207195e-07
-7.60564276e-07
-7.35772951e-07
-7.4216603e-07
-7.74265425e-07
-7.74293841e-07
-7.38948532e-07
-7.34792391e-07
-7.43627303e-07
-7.74517854e-07
-7.74399339e-07
-7.3918703e-07
-7.35528334e-07
-7.46744954e-07
-7.74200361e-07
-7.74259304e-07
-7.43947112e-07
-7.35002742e-07
-7.34549732e-07
-7.60305665e-07
-7.78682209e-07
-7.37377934e-07
-7.36545239e-07
-7.77354673e-07
-7.74283206e-07
-7.74832071e-07
-7.35031738e-07
-7.33881782e-07
-7.77494674e-07
-7.78602341e-07
-7.34801979e-07
-7.39329446e-07
-7.75401451e-07
-7.73004416e-07
-7.35808944e-07
-7.40167393e-07
-7.75142593e-07
-7.72671125e-07
-7.35789324e-07
-7.4106288e-07
-7.75020405e-07
-7.68728154e-07
-7.366708e-07
-7.42227003e-07
-7.74581711e-07
-7.75276732e-07
-7.38787454e-07
-7.35464363e-07
-7.4786583e-07
-7.74596063e-07
-7.74425407e-07
-7.44414479e-07
-7.36212291e-07
-7.35655688e-07
-7.41232314e-07
-7.75772883e-07
-7.75237154e-07
-7.36188209e-07
-7.34470816e-07
-7.78406343e-07
-7.7654601e-07
-7.3633918e-07
-7.42012674e-07
-7.75110289e-07
-7.75412575e-07
-7.40011536e-07
-7.352395e-07
-7.44429142e-07
-7.7527036e-07
-7.74192727e-07
-7.43038419e-07
-7.3416131e-07
-7.38490928e-07
-7.76060763e-07
-7.73825668e-07
-7.44914888e-07
-7.34484447e-07
-7.38562775e-07
-7.75989281e-07
-7.73976371e-07
-7.43903334e-07
-7.34199669e-07
-7.40409231e-07
-7.7647543e-07
-7.68518833e-07
-7.36976241e-07
-7.41889944e-07
-7.75449879e-07
-7.74315416e-07
-7.43056039e-07
-7.33835132e-07
-7.37722328e-07
-7.76673356e-07
-7.73814401e-07
-7.47267059e-07
-7.34485291e-07
-7.40318534e-07
-7.7660814e-07
-7.67124829e-07
-7.36952013e-07
-7.41029827e-07
-7.75814798e-07
-7.74041301e-07
-7.48540994e-07
-7.34107118e-07
-7.33876713e-07
-7.78983137e-07
-7.74993885e-07
-7.63820729e-07
-7.3508036e-07
-7.34747895e-07
-7.78527466e-07
-7.74909087e-07
-7.6134587e-07
-7.35339897e-07
-7.34996152e-07
-7.7771938e-07
-7.73746882e-07
-7.66950606e-07
-7.41687036e-07
-7.39857665e-07
-7.44017716e-07
-7.37564597e-07
-7.37098127e-07
-7.79775832e-07
-7.75833926e-07
-7.75840856e-07
-7.77025409e-07
-7.42028823e-07
-7.38181481e-07
-7.39796477e-07
-7.36453507e-07
-7.36031487e-07
-7.7876314e-07
-7.74443814e-07
-7.7557139e-07
-7.6389799e-07
-7.34330161e-07
-7.33723297e-07
-7.76627948e-07
-7.75104359e-07
-7.57886437e-07
-7.35044456e-07
-7.34805621e-07
-7.77840171e-07
-7.74983732e-07
-7.5938081e-07
-7.35315251e-07
-7.3495994e-07
-7.7815071e-07
-7.75013428e-07
-7.58519758e-07
-7.34964425e-07
-7.34587741e-07
-7.78991975e-07
-7.74758818e-07
-7.45842292e-07
-7.35689517e-07
-7.51904562e-07
-7.76057147e-07
-7.75955075e-07
-7.35071566e-07
-7.3425088e-07
-7.76355479e-07
-7.75312986e-07
-7.57960537e-07
-7.34773291e-07
-7.34464047e-07
-7.76440994e-07
-7.74256766e-07
-7.74785408e-07
-7.53070694e-07
-7.34572792e-07
-7.34124108e-07
-7.78143514e-07
-7.75334981e-07
-7.5025625e-07
-7.33179261e-07
-7.32729606e-07
-7.76899379e-07
-7.74985987e-07
-7.40594285e-07
-7.35457156e-07
-7.79167045e-07
-7.74596268e-07
-7.39816175e-07
-7.35969881e-07
-7.79700226e-07
-7.747551e-07
-7.59697442e-07
-7.34964839e-07
-7.34713e-07
-7.79621506e-07
-7.74728834e-07
-7.51461674e-07
-7.36121209e-07
-7.35972222e-07
-7.7928129e-07
-7.7445456e-07
-7.56060993e-07
-7.35527474e-07
-7.35083687e-07
-7.80075389e-07
-7.74587306e-07
-7.41272215e-07
-7.34176134e-07
-7.66660179e-07
-7.74926694e-07
-7.39523688e-07
-7.36026386e-07
-7.79035344e-07
-7.73547532e-07
-7.70515749e-07
-7.40534918e-07
-7.38593625e-07
-7.46446121e-07
-7.38863993e-07
-7.37430215e-07
-7.79217514e-07
-7.73578814e-07
-7.39854174e-07
-7.36548146e-07
-7.79497599e-07
-7.7433217e-07
-7.58200527e-07
-7.34907136e-07
-7.3462794e-07
-7.73650734e-07
-7.7375539e-07
-7.77008225e-07
-7.41732333e-07
-7.37824389e-07
-7.45260799e-07
-7.3846354e-07
-7.37905884e-07
-7.78539239e-07
-7.73722692e-07
-7.56216817e-07
-7.3588509e-07
-7.35708951e-07
-7.78571653e-07
-7.73287105e-07
-7.74562706e-07
-7.45240415e-07
-7.37204689e-07
-7.3971758e-07
-7.37112807e-07
-7.36699204e-07
-7.77583561e-07
-7.73725994e-07
-7.58764251e-07
-7.36681824e-07
-7.36430487e-07
-7.79162751e-07
-7.7306585e-07
-7.77199133e-07
-7.40580751e-07
-7.3731428e-07
-7.45741855e-07
-7.39732229e-07
-7.37896252e-07
-7.56440509e-07
-7.7373766e-07
-7.73855783e-07
-7.54324212e-07
-7.34712075e-07
-7.34558645e-07
-7.77495546e-07
-7.74632973e-07
-7.37148709e-07
-7.34691375e-07
-7.78405404e-07
-7.74900023e-07
-7.59527407e-07
-7.33720852e-07
-7.33568754e-07
-7.78448349e-07
-7.73880313e-07
-7.64629045e-07
-7.38373084e-07
-7.38579951e-07
-7.50912436e-07
-7.38411675e-07
-7.37826669e-07
-7.78620729e-07
-7.74733733e-07
-7.75823299e-07
-7.7197592e-07
-7.37655183e-07
-7.37124528e-07
-7.48801477e-07
-7.38619049e-07
-7.38215867e-07
-7.76595528e-07
-7.7292706e-07
-7.63287334e-07
-7.37489088e-07
-7.35712818e-07
-7.45807458e-07
-7.75151094e-07
-7.73558816e-07
-7.37490779e-07
-7.33960526e-07
-7.77932014e-07
-7.74222365e-07
-7.51955276e-07
-7.3701373e-07
-7.35570616e-07
-7.39012335e-07
-7.74713428e-07
-7.73991788e-07
-7.41810842e-07
-7.33755762e-07
-7.41716265e-07
-7.77850013e-07
-7.72534833e-07
-7.7706157e-07
-7.3928028e-07
-7.3431455e-07
-7.33849526e-07
-7.45776797e-07
-7.75033938e-07
-7.41888754e-07
-7.34007729e-07
-7.75650611e-07
-7.74070323e-07
-7.39688499e-07
-7.33015866e-07
-7.51624241e-07
-7.75032378e-07
-7.71910877e-07
-7.73783697e-07
-7.34080811e-07
-7.24421168e-07
-7.30390886e-07
-7.76217482e-07
-7.69664739e-07
-7.7304305e-07
-7.67972425e-07
-7.69775295e-07
-7.23922565e-07
-7.20641264e-07
-7.66268805e-07
-7.61336258e-07
-7.60502525e-07
-7.56184347e-07
-7.54751077e-07
-7.5052432e-07
-7.48631212e-07
-7.44512515e-07
-7.4220054e-07
-7.38473655e-07
-7.35975627e-07
-7.33070408e-07
-7.3147048e-07
-7.30227606e-07
-7.26835674e-07
-7.22407088e-07
-7.18313867e-07
-7.12818915e-07
-7.08127985e-07
-7.01484972e-07
-6.96220319e-07
-6.8974593e-07
-6.87800366e-07
-6.84645544e-07
-6.79388741e-07
-6.71636821e-07
-6.63312538e-07
-6.5660351e-07
-6.39870755e-07
-7.07243878e-07
-5.89060625e-07
-6.08462278e-07
-5.86866201e-07
-5.74204476e-07
-6.17167525e-07
-4.91045596e-07
-5.89548193e-07
-4.62748105e-07
-4.66009873e-07
-4.03188494e-07
-4.02772876e-07
-3.78368809e-07
-2.67506025e-07
-2.06133533e-07
-1.57470655e-07
-8.54971635e-08
-2.15699119e-08
3.43745197e-08
1.02646806e-07
1.64099755e-07
2.400449e-07
3.06660629e-07
3.81053909e-07
4.3117968e-07
4.99557094e-07
5.37944929e-07
6.10047178e-07
6.54459093e-07
7.27310582e-07
7.76295603e-07
8.45415932e-07
8.96340928e-07
9.60877804e-07
1.01394919e-06
1.07276902e-06
1.11971379e-06
1.16629247e-06
1.21089089e-06
1.24870306e-06
1.29200217e-06
1.32533399e-06
1.37724488e-06
1.37058492e-06
1.39698145e-06
1.49806753e-06
1.54368056e-06
1.47373204e-06
1.5084615e-06
1.6086333e-06
1.63046477e-06
1.58904933e-06
1.63054076e-06
1.67398067e-06
1.68779518e-06
1.66512043e-06
1.72245323e-06
1.79320455e-06
1.75393738e-06
1.65808322e-06
1.79710922e-06
1.97368318e-06
1.80095999e-06
1.70885654e-06
1.96310265e-06
1.98570202e-06
1.8512863e-06
1.78736617e-06
2.02557116e-06
2.00448253e-06
1.90020471e-06
1.87370744e-06
2.0403207e-06
2.02429009e-06
1.93887251e-06
1.92159004e-06
2.04998365e-06
2.05020555e-06
1.9664823e-06
1.96916408e-06
2.05667399e-06
2.02716074e-06
1.99188271e-06
2.04050362e-06
2.06226013e-06
2.00218782e-06
2.01131652e-06
2.06898864e-06
2.06688392e-06
2.00144628e-06
2.02195496e-06
2.07105487e-06
2.07162689e-06
2.00922786e-06
2.02979708e-06
2.074577e-06
2.07587495e-06
2.01635382e-06
2.03595348e-06
)
;

boundaryField
{
    closed
    {
        type            calculated;
        value           nonuniform List<scalar> 0();
    }
    open
    {
        type            calculated;
        value           nonuniform List<scalar> 0();
    }
    sides
    {
        type            empty;
    }
    procBoundary4to3
    {
        type            processor;
        value           uniform -7.36014032e-07;
    }
    procBoundary4to5
    {
        type            processor;
        value           uniform 2.07757217e-06;
    }
}


// ************************************************************************* //
