/*--------------------------------*- C++ -*----------------------------------*\
| =========                 |                                                 |
| \\      /  F ield         | OpenFOAM: The Open Source CFD Toolbox           |
|  \\    /   O peration     | Version:  2306                                  |
|   \\  /    A nd           | Website:  www.openfoam.com                      |
|    \\/     M anipulation  |                                                 |
\*---------------------------------------------------------------------------*/
FoamFile
{
    version     2.0;
    format      ascii;
    arch        "LSB;label=32;scalar=64";
    class       volScalarField;
    location    "0.0005";
    object      prefDPV_H2O;
}
// * * * * * * * * * * * * * * * * * * * * * * * * * * * * * * * * * * * * * //

dimensions      [1 -1 -1 0 0 0 0];

internalField   nonuniform List<scalar> 
531
(
-3.68930291e-07
-3.84500941e-07
-3.85494847e-07
-3.65620725e-07
-3.66219679e-07
-3.84684552e-07
-3.85475183e-07
-3.65130759e-07
-3.65698281e-07
-3.84757788e-07
-3.85450632e-07
-3.65033009e-07
-3.65669771e-07
-3.84668031e-07
-3.85710781e-07
-3.65044901e-07
-3.65953261e-07
-3.84521546e-07
-3.86799535e-07
-3.65470442e-07
-3.66773925e-07
-3.8419693e-07
-3.84187212e-07
-3.66956905e-07
-3.64838594e-07
-3.6994819e-07
-3.84218713e-07
-3.83591471e-07
-3.7086997e-07
-3.66246626e-07
-3.65697355e-07
-3.65020564e-07
-3.68329863e-07
-3.84188508e-07
-3.83980185e-07
-3.68077925e-07
-3.64897233e-07
-3.68594251e-07
-3.84527001e-07
-3.83440794e-07
-3.75618118e-07
-3.65567987e-07
-3.63926624e-07
-3.658463e-07
-3.84770981e-07
-3.85997705e-07
-3.64947215e-07
-3.66432509e-07
-3.8447008e-07
-3.85393937e-07
-3.65105592e-07
-3.67438595e-07
-3.84391155e-07
-3.8173648e-07
-3.65262257e-07
-3.67706919e-07
-3.84116144e-07
-3.84261246e-07
-3.66273461e-07
-3.64144249e-07
-3.70969808e-07
-3.84538823e-07
-3.77275254e-07
-3.64977604e-07
-3.68148868e-07
-3.84071661e-07
-3.84085757e-07
-3.6655284e-07
-3.64491201e-07
-3.68873728e-07
-3.84196878e-07
-3.84138089e-07
-3.66671146e-07
-3.64856262e-07
-3.70420228e-07
-3.84039387e-07
-3.84068625e-07
-3.69032368e-07
-3.64595545e-07
-3.64370831e-07
-3.77146971e-07
-3.86262592e-07
-3.6577375e-07
-3.65360695e-07
-3.85604072e-07
-3.84080481e-07
-3.84352744e-07
-3.64609928e-07
-3.64039496e-07
-3.85673519e-07
-3.86222973e-07
-3.64495957e-07
-3.66741791e-07
-3.84635183e-07
-3.83446142e-07
-3.64995458e-07
-3.67157452e-07
-3.84506777e-07
-3.83280814e-07
-3.64985726e-07
-3.67601655e-07
-3.84446167e-07
-3.81324917e-07
-3.65422979e-07
-3.68179114e-07
-3.84228554e-07
-3.84573317e-07
-3.66472938e-07
-3.6482453e-07
-3.70976235e-07
-3.84235673e-07
-3.8415102e-07
-3.69264204e-07
-3.65195537e-07
-3.64919436e-07
-3.67685702e-07
-3.84819431e-07
-3.84553684e-07
-3.65183591e-07
-3.64331684e-07
-3.86125749e-07
-3.85202938e-07
-3.6525848e-07
-3.68072797e-07
-3.84490753e-07
-3.84640701e-07
-3.67080139e-07
-3.64712987e-07
-3.69271477e-07
-3.84570156e-07
-3.840356e-07
-3.68581614e-07
-3.64178155e-07
-3.66325847e-07
-3.84962232e-07
-3.83853521e-07
-3.6951243e-07
-3.64338446e-07
-3.66361486e-07
-3.84926774e-07
-3.83928277e-07
-3.69010652e-07
-3.64197183e-07
-3.67277415e-07
-3.85167927e-07
-3.81221084e-07
-3.65574492e-07
-3.68011917e-07
-3.84659206e-07
-3.84096459e-07
-3.68590355e-07
-3.64016356e-07
-3.65944586e-07
-3.85266107e-07
-3.83847932e-07
-3.70679216e-07
-3.64338865e-07
-3.67232424e-07
-3.85233757e-07
-3.80529594e-07
-3.65562474e-07
-3.67585259e-07
-3.84840222e-07
-3.83960486e-07
-3.71311147e-07
-3.64151273e-07
-3.64036982e-07
-3.86411866e-07
-3.84433011e-07
-3.78890606e-07
-3.64634047e-07
-3.64469129e-07
-3.86185832e-07
-3.84390948e-07
-3.77662961e-07
-3.64762789e-07
-3.64592276e-07
-3.85784984e-07
-3.8381444e-07
-3.80443171e-07
-3.67911265e-07
-3.67003812e-07
-3.69067391e-07
-3.65866344e-07
-3.65634953e-07
-3.86805079e-07
-3.84849711e-07
-3.84853148e-07
-3.85440742e-07
-3.68080807e-07
-3.66172347e-07
-3.6697346e-07
-3.65315191e-07
-3.6510585e-07
-3.86302737e-07
-3.84160151e-07
-3.84719481e-07
-3.78928932e-07
-3.64261913e-07
-3.6396088e-07
-3.85243583e-07
-3.84487811e-07
-3.75946921e-07
-3.64616237e-07
-3.64497764e-07
-3.85844902e-07
-3.84427975e-07
-3.766882e-07
-3.64750563e-07
-3.64574313e-07
-3.85998944e-07
-3.84442706e-07
-3.76261078e-07
-3.64576537e-07
-3.64389685e-07
-3.8641625e-07
-3.84316407e-07
-3.69972466e-07
-3.64936217e-07
-3.72979633e-07
-3.84960439e-07
-3.84909807e-07
-3.64629684e-07
-3.64222586e-07
-3.85108425e-07
-3.845913e-07
-3.75983678e-07
-3.64481726e-07
-3.64328327e-07
-3.85150845e-07
-3.84067366e-07
-3.84329597e-07
-3.73558089e-07
-3.64382269e-07
-3.64159701e-07
-3.85995374e-07
-3.84602211e-07
-3.72161994e-07
-3.63691013e-07
-3.63467964e-07
-3.85378225e-07
-3.84429094e-07
-3.6736921e-07
-3.64820955e-07
-3.86503093e-07
-3.84235775e-07
-3.66983231e-07
-3.6507529e-07
-3.86767576e-07
-3.84314563e-07
-3.76845264e-07
-3.64576743e-07
-3.64451819e-07
-3.86728526e-07
-3.84301534e-07
-3.7275994e-07
-3.65150356e-07
-3.65076452e-07
-3.86559764e-07
-3.84165481e-07
-3.75041416e-07
-3.64855836e-07
-3.64635697e-07
-3.86953674e-07
-3.8423133e-07
-3.67705495e-07
-3.64185509e-07
-3.80299106e-07
-3.84399682e-07
-3.66838144e-07
-3.65103319e-07
-3.86437763e-07
-3.83715553e-07
-3.82211648e-07
-3.67339761e-07
-3.6637679e-07
-3.70271993e-07
-3.66510904e-07
-3.65799684e-07
-3.86528128e-07
-3.8373107e-07
-3.6700208e-07
-3.65362137e-07
-3.86667063e-07
-3.8410477e-07
-3.76102725e-07
-3.64548119e-07
-3.64409626e-07
-3.83766746e-07
-3.83818661e-07
-3.85432218e-07
-3.67933734e-07
-3.65995212e-07
-3.69684018e-07
-3.66312261e-07
-3.66035638e-07
-3.86191672e-07
-3.8380244e-07
-3.75118712e-07
-3.6503323e-07
-3.64945857e-07
-3.86207751e-07
-3.83586369e-07
-3.84219127e-07
-3.69673906e-07
-3.65687813e-07
-3.66934324e-07
-3.65642235e-07
-3.65437069e-07
-3.85717611e-07
-3.83804078e-07
-3.76382358e-07
-3.65428447e-07
-3.65303772e-07
-3.86500963e-07
-3.83476617e-07
-3.85526917e-07
-3.67362496e-07
-3.65742175e-07
-3.69922644e-07
-3.6694159e-07
-3.6603086e-07
-3.75229674e-07
-3.83809866e-07
-3.8386846e-07
-3.74179892e-07
-3.6445136e-07
-3.64375252e-07
-3.85673952e-07
-3.84253982e-07
-3.65660044e-07
-3.64441092e-07
-3.86125283e-07
-3.84386451e-07
-3.76760919e-07
-3.63959667e-07
-3.6388422e-07
-3.86146586e-07
-3.83880628e-07
-3.79291569e-07
-3.66267391e-07
-3.66370007e-07
-3.72487493e-07
-3.66286534e-07
-3.65996344e-07
-3.86232095e-07
-3.84303964e-07
-3.84844439e-07
-3.8293596e-07
-3.65911279e-07
-3.65648049e-07
-3.71440359e-07
-3.66389401e-07
-3.66189404e-07
-3.85227501e-07
-3.8340777e-07
-3.78626018e-07
-3.65828888e-07
-3.64947775e-07
-3.69955186e-07
-3.84510995e-07
-3.83721151e-07
-3.65829727e-07
-3.64078557e-07
-3.8589046e-07
-3.84050302e-07
-3.7300479e-07
-3.65593088e-07
-3.64877236e-07
-3.66584489e-07
-3.84293892e-07
-3.83935925e-07
-3.67972679e-07
-3.63976985e-07
-3.67925764e-07
-3.85849784e-07
-3.83213207e-07
-3.8545868e-07
-3.66717402e-07
-3.64254169e-07
-3.64023496e-07
-3.69939977e-07
-3.84452879e-07
-3.68011327e-07
-3.64101972e-07
-3.84758778e-07
-3.83974882e-07
-3.66919898e-07
-3.63609961e-07
-3.72840581e-07
-3.84452106e-07
-3.82903696e-07
-3.83832702e-07
-3.64138224e-07
-3.59346592e-07
-3.6230785e-07
-3.85039973e-07
-3.81789507e-07
-3.83465307e-07
-3.80950041e-07
-3.81844348e-07
-3.59099261e-07
-3.57471583e-07
-3.80104966e-07
-3.77658193e-07
-3.77244623e-07
-3.75102606e-07
-3.74391637e-07
-3.72294969e-07
-3.713559e-07
-3.69312834e-07
-3.68165987e-07
-3.66317279e-07
-3.65078141e-07
-3.63637017e-07
-3.62843378e-07
-3.62226855e-07
-3.60544299e-07
-3.58347514e-07
-3.56317086e-07
-3.53591335e-07
-3.51264415e-07
-3.47969172e-07
-3.45357659e-07
-3.42146061e-07
-3.41180971e-07
-3.39616032e-07
-3.37008414e-07
-3.33163101e-07
-3.29033869e-07
-3.25705879e-07
-3.17405654e-07
-3.50825857e-07
-2.92201467e-07
-3.01825589e-07
-2.9111293e-07
-2.84832126e-07
-3.06143796e-07
-2.43581454e-07
-2.92443323e-07
-2.29544582e-07
-2.31162571e-07
-2.00000245e-07
-1.99794079e-07
-1.87688527e-07
-1.3269543e-07
-1.0225182e-07
-7.81127687e-08
-4.24105695e-08
-1.06996795e-08
1.70513605e-08
5.091759e-08
8.14011105e-08
1.19073435e-07
1.52117934e-07
1.89020461e-07
2.13885175e-07
2.47803553e-07
2.66845704e-07
3.02611773e-07
3.24642149e-07
3.60779876e-07
3.85078724e-07
4.19365622e-07
4.44626789e-07
4.76640081e-07
5.02965957e-07
5.3214333e-07
5.55430115e-07
5.78535309e-07
6.00658198e-07
6.19414794e-07
6.40893169e-07
6.57427297e-07
6.83177515e-07
6.79873865e-07
6.92967773e-07
7.43111171e-07
7.65737352e-07
7.31039633e-07
7.48267062e-07
7.97956932e-07
8.08786359e-07
7.88242374e-07
8.08824052e-07
8.30372266e-07
8.3722491e-07
8.25977179e-07
8.54416913e-07
8.89512858e-07
8.70034514e-07
8.22486395e-07
8.91449755e-07
9.7903865e-07
8.93359917e-07
8.47672323e-07
9.73790216e-07
9.85000557e-07
9.18324107e-07
8.86616751e-07
1.0047775e-06
9.94316562e-07
9.42589913e-07
9.29446034e-07
1.01209396e-06
1.00414203e-06
9.61770939e-07
9.53198031e-07
1.01688723e-06
1.01699731e-06
9.75466678e-07
9.7679697e-07
1.02020596e-06
1.00556601e-06
9.88066467e-07
1.0121847e-06
1.02297694e-06
9.93178278e-07
9.97706541e-07
1.02631459e-06
1.02527055e-06
9.92810441e-07
1.0029837e-06
1.02733954e-06
1.02762329e-06
9.96670465e-07
1.00687376e-06
1.02908668e-06
1.02973052e-06
1.00020528e-06
1.00992762e-06
)
;

boundaryField
{
    closed
    {
        type            calculated;
        value           nonuniform List<scalar> 0();
    }
    open
    {
        type            calculated;
        value           nonuniform List<scalar> 0();
    }
    sides
    {
        type            empty;
    }
    procBoundary4to3
    {
        type            processor;
        value           uniform -3.65097192e-07;
    }
    procBoundary4to5
    {
        type            processor;
        value           uniform 1.03057242e-06;
    }
}


// ************************************************************************* //
