/*--------------------------------*- C++ -*----------------------------------*\
| =========                 |                                                 |
| \\      /  F ield         | OpenFOAM: The Open Source CFD Toolbox           |
|  \\    /   O peration     | Version:  2306                                  |
|   \\  /    A nd           | Website:  www.openfoam.com                      |
|    \\/     M anipulation  |                                                 |
\*---------------------------------------------------------------------------*/
FoamFile
{
    version     2.0;
    format      ascii;
    arch        "LSB;label=32;scalar=64";
    class       volVectorField;
    location    "0.00084";
    object      U;
}
// * * * * * * * * * * * * * * * * * * * * * * * * * * * * * * * * * * * * * //

dimensions      [0 1 -1 0 0 0 0];

internalField   nonuniform List<vector> 
531
(
(-0.41423269 0 0)
(-0.36674064 0 0)
(-0.316451853 0 0)
(-0.276754585 0 0)
(-0.253100549 0 0)
(-0.230724762 0 0)
(-0.198753175 0 0)
(-0.172889206 0 0)
(-0.151070011 0 0)
(-0.13768915 0 0)
(-0.122877636 0 0)
(-0.100731658 0 0)
(-0.0997506144 0 0)
(-0.11052828 0 0)
(-0.0953151502 0 0)
(-0.0694012905 0 0)
(-0.0739075474 0 0)
(-0.088307552 0 0)
(-0.0731524613 0 0)
(-0.0474093088 0 0)
(-0.0532274092 0 0)
(-0.054119875 0 0)
(-0.0519369172 0 0)
(-0.0460075552 0 0)
(-0.0337929618 0 0)
(-0.0277902219 0 0)
(-0.0233371218 0 0)
(-0.0253123319 0 0)
(-0.0201128313 0 0)
(-0.00670180318 0 0)
(-0.00689343812 0 0)
(-0.00443407616 0 0)
(-0.0124980528 0 0)
(-0.0108893163 0 0)
(-0.008682985 0 0)
(-0.00561531364 0 0)
(-0.00142721668 0 0)
(0.00272117212 0 0)
(-0.00025784878 0 0)
(0.00360857156 0 0)
(0.0136128308 0 0)
(0.0164850954 0 0)
(0.0210492047 0 0)
(0.0221844374 0 0)
(0.0302202917 0 0)
(0.0490228917 0 0)
(0.0406427982 0 0)
(0.0427553061 0 0)
(0.0532830605 0 0)
(0.0588988678 0 0)
(0.0673010395 0 0)
(0.0815093996 0 0)
(0.0920037173 0 0)
(0.0952210991 0 0)
(0.108268785 0 0)
(0.127292206 0 0)
(0.128482077 0 0)
(0.133100111 0 0)
(0.138411431 0 0)
(0.141793968 0 0)
(0.146076666 0 0)
(0.160281167 0 0)
(0.164307243 0 0)
(0.168332342 0 0)
(0.16723123 0 0)
(0.169100275 0 0)
(0.173052889 0 0)
(0.177684395 0 0)
(0.176196627 0 0)
(0.176675836 0 0)
(0.180770431 0 0)
(0.177953225 0 0)
(0.179858868 0 0)
(0.182189317 0 0)
(0.190453485 0 0)
(0.193732367 0 0)
(0.190592697 0 0)
(0.191084153 0 0)
(0.193178769 0 0)
(0.200554963 0 0)
(0.202094098 0 0)
(0.198131386 0 0)
(0.200753937 0 0)
(0.198443717 0 0)
(0.199766376 0 0)
(0.201639726 0 0)
(0.199138343 0 0)
(0.203877812 0 0)
(0.20421043 0 0)
(0.208604037 0 0)
(0.213363659 0 0)
(0.21342105 0 0)
(0.22079748 0 0)
(0.231809409 0 0)
(0.24706487 0 0)
(0.254029817 0 0)
(0.2548543 0 0)
(0.26412109 0 0)
(0.278053855 0 0)
(0.296288479 0 0)
(0.304098978 0 0)
(0.304799344 0 0)
(0.316181576 0 0)
(0.333480309 0 0)
(0.354519218 0 0)
(0.362135281 0 0)
(0.360934016 0 0)
(0.371886594 0 0)
(0.378418838 0 0)
(0.386550664 0 0)
(0.389847338 0 0)
(0.38377221 0 0)
(0.389118437 0 0)
(0.392110096 0 0)
(0.39830083 0 0)
(0.404136998 0 0)
(0.403133064 0 0)
(0.403370033 0 0)
(0.416339054 0 0)
(0.422444703 0 0)
(0.414849364 0 0)
(0.415648616 0 0)
(0.410916142 0 0)
(0.394835271 0 0)
(0.393722012 0 0)
(0.388727175 0 0)
(0.386501681 0 0)
(0.380555648 0 0)
(0.374196608 0 0)
(0.377883436 0 0)
(0.379609433 0 0)
(0.369921483 0 0)
(0.365080138 0 0)
(0.375752824 0 0)
(0.370456363 0 0)
(0.366890002 0 0)
(0.362712903 0 0)
(0.350128642 0 0)
(0.351641656 0 0)
(0.351902765 0 0)
(0.355242857 0 0)
(0.359162791 0 0)
(0.363634212 0 0)
(0.378177117 0 0)
(0.39395732 0 0)
(0.400166907 0 0)
(0.400110365 0 0)
(0.413967596 0 0)
(0.441076436 0 0)
(0.478610157 0 0)
(0.506248793 0 0)
(0.520259285 0 0)
(0.547924704 0 0)
(0.573048383 0 0)
(0.611786199 0 0)
(0.655241986 0 0)
(0.681425625 0 0)
(0.723395338 0 0)
(0.758500484 0 0)
(0.809359857 0 0)
(0.864910079 0 0)
(0.89513224 0 0)
(0.943384372 0 0)
(0.97927227 0 0)
(1.03373376 0 0)
(1.09086936 0 0)
(1.11155668 0 0)
(1.1557861 0 0)
(1.20801065 0 0)
(1.22148215 0 0)
(1.26465152 0 0)
(1.30123082 0 0)
(1.29360154 0 0)
(1.31566373 0 0)
(1.36451207 0 0)
(1.37499079 0 0)
(1.36010002 0 0)
(1.37692926 0 0)
(1.38321802 0 0)
(1.40828044 0 0)
(1.42681163 0 0)
(1.40523715 0 0)
(1.41255707 0 0)
(1.40685531 0 0)
(1.41333517 0 0)
(1.40705212 0 0)
(1.36225906 0 0)
(1.34601307 0 0)
(1.31957194 0 0)
(1.30742501 0 0)
(1.28511419 0 0)
(1.22838849 0 0)
(1.20300624 0 0)
(1.19838849 0 0)
(1.15513646 0 0)
(1.09278426 0 0)
(1.0583123 0 0)
(1.01675917 0 0)
(0.982253871 0 0)
(0.942965116 0 0)
(0.888700583 0 0)
(0.856069857 0 0)
(0.818350039 0 0)
(0.782043591 0 0)
(0.738077059 0 0)
(0.683223573 0 0)
(0.644818379 0 0)
(0.604919094 0 0)
(0.566548895 0 0)
(0.526570931 0 0)
(0.484783245 0 0)
(0.457166838 0 0)
(0.435641864 0 0)
(0.405115512 0 0)
(0.367924406 0 0)
(0.34228499 0 0)
(0.317671273 0 0)
(0.292164356 0 0)
(0.26864885 0 0)
(0.243939341 0 0)
(0.226186521 0 0)
(0.204894701 0 0)
(0.181177476 0 0)
(0.174893505 0 0)
(0.169895969 0 0)
(0.138700647 0 0)
(0.11371312 0 0)
(0.111139104 0 0)
(0.109105478 0 0)
(0.0897288794 0 0)
(0.0719784044 0 0)
(0.055750131 0 0)
(0.0412159648 0 0)
(0.0211221293 0 0)
(-0.00505737153 0 0)
(-0.0298233457 0 0)
(-0.0502388797 0 0)
(-0.0683628888 0 0)
(-0.125134301 0 0)
(-0.158032835 0 0)
(-0.154519025 0 0)
(-0.214955887 0 0)
(-0.307174162 0 0)
(-0.348816816 0 0)
(-0.386439128 0 0)
(-0.45784664 0 0)
(-0.516002732 0 0)
(-0.583222208 0 0)
(-0.658910657 0 0)
(-0.740641043 0 0)
(-0.84036525 0 0)
(-0.928015605 0 0)
(-1.00816816 0 0)
(-1.07941344 0 0)
(-1.18979654 0 0)
(-1.28317037 0 0)
(-1.37025549 0 0)
(-1.45173187 0 0)
(-1.5520274 0 0)
(-1.6005037 0 0)
(-1.67719864 0 0)
(-1.78358305 0 0)
(-1.82641715 0 0)
(-1.85573547 0 0)
(-1.82168394 0 0)
(-1.88421198 0 0)
(-2.02135567 0 0)
(-2.07084235 0 0)
(-2.02103972 0 0)
(-2.05928297 0 0)
(-2.11869103 0 0)
(-2.08907918 0 0)
(-2.05036001 0 0)
(-1.94702566 0 0)
(-1.92481176 0 0)
(-1.96154141 0 0)
(-1.92582513 0 0)
(-1.87529869 0 0)
(-1.89661915 0 0)
(-1.87570375 0 0)
(-1.77884725 0 0)
(-1.68557992 0 0)
(-1.55016519 0 0)
(-1.46673424 0 0)
(-1.41037938 0 0)
(-1.31450821 0 0)
(-1.23531713 0 0)
(-1.12910947 0 0)
(-1.0573773 0 0)
(-1.01056169 0 0)
(-0.939845422 0 0)
(-0.863232231 0 0)
(-0.813649407 0 0)
(-0.766548027 0 0)
(-0.730254705 0 0)
(-0.715345282 0 0)
(-0.668835051 0 0)
(-0.633559429 0 0)
(-0.592475198 0 0)
(-0.546552363 0 0)
(-0.527576602 0 0)
(-0.49491137 0 0)
(-0.469018248 0 0)
(-0.437728606 0 0)
(-0.409822984 0 0)
(-0.387436986 0 0)
(-0.358164686 0 0)
(-0.325015568 0 0)
(-0.301244647 0 0)
(-0.294270403 0 0)
(-0.256908947 0 0)
(-0.216558829 0 0)
(-0.170950017 0 0)
(-0.133727932 0 0)
(-0.127414082 0 0)
(-0.101530024 0 0)
(-0.0721928951 0 0)
(-0.0264744478 0 0)
(-0.00168843137 0 0)
(0.000911778231 0 0)
(0.0228883704 0 0)
(0.0489281072 0 0)
(0.0653187714 0 0)
(0.054622049 0 0)
(0.0629692452 0 0)
(0.0749283647 0 0)
(0.099539175 0 0)
(0.118350491 0 0)
(0.10874223 0 0)
(0.118664062 0 0)
(0.134473352 0 0)
(0.160434089 0 0)
(0.181147455 0 0)
(0.171991984 0 0)
(0.197041647 0 0)
(0.210488889 0 0)
(0.256461577 0 0)
(0.290586838 0 0)
(0.295645346 0 0)
(0.330505379 0 0)
(0.362976294 0 0)
(0.381353093 0 0)
(0.392057047 0 0)
(0.41104212 0 0)
(0.433476102 0 0)
(0.454443484 0 0)
(0.470005648 0 0)
(0.506001035 0 0)
(0.546545415 0 0)
(0.56744416 0 0)
(0.567954625 0 0)
(0.583943525 0 0)
(0.5923932 0 0)
(0.640096821 0 0)
(0.673166478 0 0)
(0.656321999 0 0)
(0.655708508 0 0)
(0.700745152 0 0)
(0.717085485 0 0)
(0.696326533 0 0)
(0.699462901 0 0)
(0.714735703 0 0)
(0.732673977 0 0)
(0.756159124 0 0)
(0.755859124 0 0)
(0.759619701 0 0)
(0.787472945 0 0)
(0.806358989 0 0)
(0.817869502 0 0)
(0.83170227 0 0)
(0.83601493 0 0)
(0.853048256 0 0)
(0.876339435 0 0)
(0.870767952 0 0)
(0.869393073 0 0)
(0.883053155 0 0)
(0.888680623 0 0)
(0.89409104 0 0)
(0.897452639 0 0)
(0.883734926 0 0)
(0.88341412 0 0)
(0.890371527 0 0)
(0.868057464 0 0)
(0.851051286 0 0)
(0.842519242 0 0)
(0.830902747 0 0)
(0.82359099 0 0)
(0.81488943 0 0)
(0.787440582 0 0)
(0.742199773 0 0)
(0.705773851 0 0)
(0.671319371 0 0)
(0.642203791 0 0)
(0.616767068 0 0)
(0.586984901 0 0)
(0.558054312 0 0)
(0.529186495 0 0)
(0.496210056 0 0)
(0.460932301 0 0)
(0.429726397 0 0)
(0.402061767 0 0)
(0.374765478 0 0)
(0.343586926 0 0)
(0.312290407 0 0)
(0.288153204 0 0)
(0.267348317 0 0)
(0.24201195 0 0)
(0.222242577 0 0)
(0.201828204 0 0)
(0.180514276 0 0)
(0.168137436 0 0)
(0.147127462 0 0)
(0.118618487 0 0)
(0.108823352 0 0)
(0.110512461 0 0)
(0.0902303445 0 0)
(0.0621228118 0 0)
(0.0608953313 0 0)
(0.0690140066 0 0)
(0.0628726978 0 0)
(0.0597624413 0 0)
(0.0589122034 0 0)
(0.0617187158 0 0)
(0.0699380278 0 0)
(0.0740595755 0 0)
(0.0677973281 0 0)
(0.0747925284 0 0)
(0.087572247 0 0)
(0.0861870588 0 0)
(0.0849141999 0 0)
(0.0850222406 0 0)
(0.0866138958 0 0)
(0.0895963265 0 0)
(0.0856792247 0 0)
(0.0786444048 0 0)
(0.0725953488 0 0)
(0.0652741173 0 0)
(0.0580098733 0 0)
(0.0529127204 0 0)
(0.0396821564 0 0)
(0.0266603793 0 0)
(0.0170610958 0 0)
(0.00646110337 0 0)
(0.000802677127 0 0)
(-0.0268852766 0 0)
(-0.0651021002 0 0)
(-0.0735367458 0 0)
(-0.0711773327 0 0)
(-0.107252275 0 0)
(-0.14778224 0 0)
(-0.156873789 0 0)
(-0.159506805 0 0)
(-0.1961867 0 0)
(-0.232228018 0 0)
(-0.239109054 0 0)
(-0.248339538 0 0)
(-0.265576236 0 0)
(-0.276461311 0 0)
(-0.284122684 0 0)
(-0.297688153 0 0)
(-0.307872176 0 0)
(-0.338908464 0 0)
(-0.373275857 0 0)
(-0.383188449 0 0)
(-0.38588467 0 0)
(-0.41839152 0 0)
(-0.450715269 0 0)
(-0.459484936 0 0)
(-0.462190286 0 0)
(-0.492857557 0 0)
(-0.524291623 0 0)
(-0.535770462 0 0)
(-0.550766224 0 0)
(-0.578157893 0 0)
(-0.586373071 0 0)
(-0.592587179 0 0)
(-0.607303349 0 0)
(-0.614713257 0 0)
(-0.619711694 0 0)
(-0.610001845 0 0)
(-0.617678043 0 0)
(-0.636947812 0 0)
(-0.640964106 0 0)
(-0.646581292 0 0)
(-0.633735578 0 0)
(-0.637374317 0 0)
(-0.652001524 0 0)
(-0.649509274 0 0)
(-0.645864151 0 0)
(-0.627021534 0 0)
(-0.626891359 0 0)
(-0.632765076 0 0)
(-0.634504986 0 0)
(-0.63797689 0 0)
(-0.622295872 0 0)
(-0.616770315 0 0)
(-0.616818176 0 0)
(-0.588886708 0 0)
(-0.578474428 0 0)
(-0.573466353 0 0)
(-0.554866584 0 0)
(-0.537445889 0 0)
(-0.509641872 0 0)
(-0.492279428 0 0)
(-0.484187896 0 0)
(-0.466507057 0 0)
(-0.453214854 0 0)
(-0.430525784 0 0)
(-0.41379978 0 0)
(-0.404358198 0 0)
(-0.389792198 0 0)
(-0.379818953 0 0)
(-0.362009901 0 0)
(-0.347796348 0 0)
(-0.338715741 0 0)
(-0.326646607 0 0)
(-0.318901788 0 0)
(-0.304760853 0 0)
(-0.292491924 0 0)
(-0.283749952 0 0)
(-0.273078815 0 0)
(-0.266507827 0 0)
(-0.255077566 0 0)
(-0.243482903 0 0)
(-0.233256778 0 0)
(-0.220787339 0 0)
(-0.213496752 0 0)
(-0.202395205 0 0)
(-0.188270064 0 0)
(-0.179171393 0 0)
(-0.168458273 0 0)
)
;

boundaryField
{
    closed
    {
        type            noSlip;
    }
    open
    {
        type            inletOutlet;
        inletValue      nonuniform List<vector> 0();
        value           nonuniform List<vector> 0();
    }
    sides
    {
        type            empty;
    }
    procBoundary3to2
    {
        type            processor;
        value           uniform (-0.444377689 0 0);
    }
    procBoundary3to4
    {
        type            processor;
        value           uniform (-0.152335257 0 0);
    }
}


// ************************************************************************* //
