/*--------------------------------*- C++ -*----------------------------------*\
| =========                 |                                                 |
| \\      /  F ield         | OpenFOAM: The Open Source CFD Toolbox           |
|  \\    /   O peration     | Version:  2306                                  |
|   \\  /    A nd           | Website:  www.openfoam.com                      |
|    \\/     M anipulation  |                                                 |
\*---------------------------------------------------------------------------*/
FoamFile
{
    version     2.0;
    format      ascii;
    arch        "LSB;label=32;scalar=64";
    class       volScalarField;
    location    "0.00164";
    object      prefDPV_T;
}
// * * * * * * * * * * * * * * * * * * * * * * * * * * * * * * * * * * * * * //

dimensions      [1 -1 -1 -1 0 0 0];

internalField   nonuniform List<scalar> 
531
(
6.10533603e-10
6.08951208e-10
5.90518285e-10
5.90177847e-10
6.10975404e-10
6.08259817e-10
6.09364802e-10
5.94596292e-10
5.89120643e-10
5.88967849e-10
6.10154211e-10
6.09156631e-10
5.95676771e-10
5.89121654e-10
5.89428543e-10
6.10242152e-10
5.92139934e-10
5.89066111e-10
6.11275967e-10
6.08986794e-10
6.1028609e-10
6.08616447e-10
6.05499213e-10
5.90987129e-10
5.90345194e-10
5.90049968e-10
5.88964622e-10
5.88719955e-10
6.10737101e-10
6.08904793e-10
5.90633372e-10
5.90386381e-10
6.10755379e-10
6.08299467e-10
6.09038517e-10
5.95756305e-10
5.90389824e-10
5.89282377e-10
5.89110377e-10
6.10861098e-10
6.0899149e-10
5.90548947e-10
5.89487931e-10
6.10869311e-10
6.08889031e-10
5.90443019e-10
5.89391366e-10
6.11039058e-10
6.08938626e-10
5.89812483e-10
5.88980211e-10
6.11616913e-10
6.09035755e-10
6.09988931e-10
6.08930072e-10
5.91287707e-10
5.89703233e-10
6.10427822e-10
6.08609815e-10
5.90492836e-10
5.90347795e-10
6.1040001e-10
5.92347573e-10
5.89024566e-10
6.10643666e-10
6.08671336e-10
6.09358899e-10
5.94853873e-10
5.90128506e-10
5.89138544e-10
5.8912558e-10
6.10503702e-10
6.09547557e-10
5.91564473e-10
5.88239025e-10
5.88006864e-10
6.10536285e-10
6.09269466e-10
5.90458547e-10
5.89179637e-10
6.10849794e-10
6.08990208e-10
5.89814118e-10
5.89453369e-10
6.11090038e-10
6.08853186e-10
6.0951595e-10
5.90277663e-10
5.89189969e-10
6.10999397e-10
6.08989981e-10
6.09534217e-10
6.08749882e-10
5.96932664e-10
5.90510781e-10
5.89403989e-10
5.8933551e-10
6.10091346e-10
6.0913726e-10
5.938602e-10
5.89058067e-10
5.89436089e-10
6.10030886e-10
5.93813168e-10
5.89332872e-10
6.10129563e-10
6.0882786e-10
5.90466571e-10
5.90359105e-10
6.10631535e-10
6.08337258e-10
6.09234847e-10
5.91872561e-10
5.89508812e-10
5.88804738e-10
5.88828466e-10
6.10515776e-10
6.08978961e-10
5.90445395e-10
5.90428747e-10
6.1014221e-10
5.92435567e-10
5.89010755e-10
6.10569314e-10
6.08746349e-10
6.09677377e-10
5.91070102e-10
5.89552213e-10
6.10431292e-10
6.08464112e-10
6.0941776e-10
5.91188369e-10
5.89394343e-10
6.09558448e-10
6.08777787e-10
5.93159218e-10
5.90348859e-10
5.89417246e-10
5.89436174e-10
6.09954484e-10
5.947169e-10
5.89033983e-10
6.09761276e-10
6.09110248e-10
5.99248906e-10
5.89318904e-10
5.89321163e-10
6.09823761e-10
5.91497943e-10
5.89409018e-10
6.10443984e-10
6.08669552e-10
6.09703132e-10
5.91338388e-10
5.8940831e-10
6.11108486e-10
6.08753326e-10
6.11064647e-10
6.08437007e-10
6.10974567e-10
5.91071289e-10
5.89640152e-10
5.89843951e-10
5.88711052e-10
5.88569864e-10
6.10295165e-10
5.91963655e-10
5.88675604e-10
6.09785859e-10
6.09198237e-10
5.90840276e-10
5.89867997e-10
6.09596652e-10
6.09059767e-10
5.96308028e-10
5.89316962e-10
5.89224714e-10
6.10003575e-10
6.08676539e-10
6.09169503e-10
5.99399809e-10
5.8940951e-10
5.89374942e-10
6.09663698e-10
6.09168039e-10
5.94241444e-10
5.88860041e-10
5.88806572e-10
6.10178451e-10
6.09756829e-10
6.09383961e-10
6.09011397e-10
5.90465412e-10
5.89916684e-10
5.88955564e-10
5.88838995e-10
6.10057618e-10
6.08843708e-10
5.9077934e-10
5.89929124e-10
6.09857581e-10
6.08502355e-10
5.90790023e-10
5.90054558e-10
6.09912492e-10
6.08510999e-10
5.90188408e-10
5.89750389e-10
6.10371978e-10
6.08582148e-10
6.09299995e-10
6.08488299e-10
5.98897573e-10
5.90663323e-10
5.90839763e-10
5.90250069e-10
5.90245316e-10
5.88831918e-10
5.88820555e-10
6.10449082e-10
6.09064887e-10
6.09682971e-10
5.89966577e-10
5.89083563e-10
6.10555608e-10
6.08712041e-10
6.09564107e-10
5.91086623e-10
5.89315576e-10
6.09300173e-10
6.09275773e-10
5.92904183e-10
5.88566545e-10
5.88406347e-10
6.09588828e-10
6.09060964e-10
5.90713308e-10
5.89484844e-10
6.09317044e-10
6.09008938e-10
5.93998164e-10
5.89162651e-10
5.89120673e-10
6.09255833e-10
6.0916321e-10
5.94268935e-10
5.88891861e-10
5.88776128e-10
6.09537508e-10
6.08763521e-10
5.90435158e-10
5.90403449e-10
6.09804501e-10
5.94951938e-10
5.88591419e-10
6.09426887e-10
6.09027472e-10
5.90349413e-10
5.89696891e-10
6.09487219e-10
6.08684379e-10
5.90681851e-10
5.90339073e-10
6.09144814e-10
6.0853599e-10
5.92854656e-10
5.90683652e-10
5.89095227e-10
5.8920763e-10
6.1008753e-10
6.0854206e-10
6.09522931e-10
5.92828641e-10
5.89427687e-10
6.09348823e-10
6.08860894e-10
5.9032264e-10
5.89541159e-10
6.09722827e-10
6.08773103e-10
5.89809899e-10
5.89374669e-10
6.09859926e-10
6.08749435e-10
5.8950599e-10
5.8951923e-10
6.09754099e-10
6.08352899e-10
6.09036461e-10
5.91996392e-10
5.89710341e-10
5.88291825e-10
5.88476122e-10
6.10181946e-10
6.08694069e-10
6.09542832e-10
5.92824534e-10
5.87983058e-10
5.88529748e-10
6.09931509e-10
6.08738524e-10
6.09164234e-10
5.91204335e-10
5.9053331e-10
6.09447548e-10
5.98782388e-10
5.89115593e-10
6.09298334e-10
6.0878187e-10
5.9062301e-10
5.90223729e-10
6.08968178e-10
6.08557878e-10
5.93289205e-10
5.90760272e-10
5.89406994e-10
5.89481345e-10
6.09973524e-10
6.09149057e-10
6.03572003e-10
5.88875802e-10
5.88948246e-10
6.09943697e-10
5.90684333e-10
5.87926671e-10
6.09736122e-10
6.09522475e-10
6.0893509e-10
6.09189066e-10
5.9565876e-10
5.88687031e-10
5.88634068e-10
6.09164465e-10
6.09173103e-10
5.92349016e-10
5.88793887e-10
5.887443e-10
6.09104768e-10
6.09160339e-10
5.92991435e-10
5.8837062e-10
5.88798195e-10
6.09856877e-10
6.08707841e-10
6.09183818e-10
5.91138763e-10
5.89574538e-10
6.08901678e-10
6.09068282e-10
5.93124011e-10
5.88376744e-10
5.88610678e-10
6.09805759e-10
6.08756031e-10
6.09134895e-10
5.90740188e-10
5.89475475e-10
6.08931466e-10
6.09112127e-10
5.93030566e-10
5.88986311e-10
5.88883928e-10
6.09026798e-10
6.090409e-10
5.93603588e-10
5.88941228e-10
5.88939681e-10
6.08932906e-10
6.09024916e-10
5.93568169e-10
5.88754998e-10
5.8868844e-10
6.09239587e-10
6.08903613e-10
5.90700278e-10
5.89864359e-10
6.09002521e-10
6.08698141e-10
5.9156828e-10
5.90205261e-10
5.88485241e-10
5.88462195e-10
6.1026095e-10
6.0888278e-10
6.09856283e-10
6.08371326e-10
6.09319819e-10
5.94167299e-10
5.88788497e-10
5.88643763e-10
6.09382792e-10
6.08961782e-10
5.90200168e-10
5.8936502e-10
6.09289093e-10
6.08881208e-10
5.90396798e-10
5.89610339e-10
6.0888591e-10
6.09039584e-10
5.93300852e-10
5.89004509e-10
5.88939805e-10
6.09120332e-10
6.09021961e-10
5.90807514e-10
5.89639338e-10
6.08834752e-10
6.08988752e-10
5.93280121e-10
5.88684793e-10
5.88615626e-10
6.09142381e-10
6.0916949e-10
5.90788994e-10
6.09382341e-10
6.08523443e-10
5.91475593e-10
5.89332686e-10
5.89372075e-10
6.08961658e-10
6.09084073e-10
5.93557215e-10
5.88947324e-10
5.88860845e-10
6.08986819e-10
6.09133289e-10
5.92073929e-10
5.87770211e-10
5.88320183e-10
6.10032146e-10
6.08894069e-10
6.09511153e-10
5.90441338e-10
5.89566498e-10
6.09726511e-10
6.08457775e-10
6.094735e-10
5.96329418e-10
5.87846408e-10
5.88466106e-10
6.09795576e-10
6.08563338e-10
6.09220502e-10
5.92041144e-10
5.89942448e-10
6.08569442e-10
6.08553542e-10
5.93629555e-10
5.90580193e-10
5.8946399e-10
5.89485957e-10
6.0930915e-10
6.08704692e-10
5.90481852e-10
5.90088779e-10
6.0883645e-10
6.08568601e-10
5.92018955e-10
5.90374144e-10
5.89088719e-10
5.89055729e-10
6.09640288e-10
6.08944449e-10
5.89579454e-10
5.89286788e-10
6.09583432e-10
6.08860288e-10
5.89297088e-10
5.89419956e-10
6.09601007e-10
6.08606826e-10
6.09375681e-10
5.90489493e-10
5.89263923e-10
6.08969556e-10
6.09098808e-10
5.90295945e-10
5.8941744e-10
6.08752007e-10
6.0932512e-10
5.91923299e-10
5.87968798e-10
5.88224797e-10
6.10578193e-10
6.09530157e-10
6.10407491e-10
6.0952439e-10
6.09811742e-10
5.88509192e-10
5.88792181e-10
6.09954929e-10
5.90714099e-10
5.88656594e-10
6.09562368e-10
6.08782646e-10
6.09296117e-10
5.97476014e-10
5.89570827e-10
5.90008276e-10
5.88430987e-10
5.88412063e-10
6.09494047e-10
6.09143081e-10
5.89411627e-10
5.89602394e-10
6.09473449e-10
6.08567037e-10
6.0930624e-10
5.9098216e-10
5.89635566e-10
6.0884253e-10
6.08776666e-10
5.89934375e-10
5.90255048e-10
6.09056074e-10
6.0828146e-10
6.08949531e-10
5.95523233e-10
5.90101164e-10
5.89287549e-10
5.89009099e-10
6.09067508e-10
6.09394333e-10
5.90591135e-10
5.87411002e-10
5.87979322e-10
6.09855865e-10
6.08738657e-10
6.09487753e-10
5.90466697e-10
)
;

boundaryField
{
    closed
    {
        type            calculated;
        value           nonuniform List<scalar> 0();
    }
    open
    {
        type            calculated;
        value           nonuniform List<scalar> 0();
    }
    sides
    {
        type            empty;
    }
    procBoundary1to0
    {
        type            processor;
        value           uniform 5.88924552e-10;
    }
    procBoundary1to2
    {
        type            processor;
        value           uniform 5.88826489e-10;
    }
}


// ************************************************************************* //
