/*--------------------------------*- C++ -*----------------------------------*\
| =========                 |                                                 |
| \\      /  F ield         | OpenFOAM: The Open Source CFD Toolbox           |
|  \\    /   O peration     | Version:  2306                                  |
|   \\  /    A nd           | Website:  www.openfoam.com                      |
|    \\/     M anipulation  |                                                 |
\*---------------------------------------------------------------------------*/
FoamFile
{
    version     2.0;
    format      ascii;
    arch        "LSB;label=32;scalar=64";
    class       volScalarField;
    location    "0.00164";
    object      prefDPV_H2;
}
// * * * * * * * * * * * * * * * * * * * * * * * * * * * * * * * * * * * * * //

dimensions      [1 -1 -1 0 0 0 0];

internalField   nonuniform List<scalar> 
531
(
-3.1498936e-05
-3.1514576e-05
-3.07363957e-05
-3.0689838e-05
-3.14866667e-05
-3.15280787e-05
-3.14929389e-05
-3.09147282e-05
-3.04204164e-05
-3.04309038e-05
-3.14976753e-05
-3.15097802e-05
-3.09274164e-05
-3.04351637e-05
-3.05087186e-05
-3.15000728e-05
-3.09414465e-05
-3.04241436e-05
-3.14670278e-05
-3.15082275e-05
-3.14545371e-05
-3.15191421e-05
-3.11335911e-05
-3.08784806e-05
-3.06448263e-05
-3.06633167e-05
-3.03625553e-05
-3.03761625e-05
-3.14744829e-05
-3.15181092e-05
-3.07424464e-05
-3.07233916e-05
-3.1487294e-05
-3.15136895e-05
-3.15016242e-05
-3.09336939e-05
-3.07144972e-05
-3.04480109e-05
-3.04559504e-05
-3.14705713e-05
-3.15194922e-05
-3.07104527e-05
-3.05442452e-05
-3.14671609e-05
-3.15237278e-05
-3.06801221e-05
-3.05289906e-05
-3.14634169e-05
-3.15254048e-05
-3.05429899e-05
-3.04501056e-05
-3.14619739e-05
-3.1528342e-05
-3.14756717e-05
-3.15351201e-05
-3.08867818e-05
-3.06012299e-05
-3.14908742e-05
-3.15303517e-05
-3.07277293e-05
-3.0727265e-05
-3.15023113e-05
-3.09173646e-05
-3.04069756e-05
-3.15059094e-05
-3.15037433e-05
-3.15000962e-05
-3.0928396e-05
-3.06437499e-05
-3.04394375e-05
-3.04364811e-05
-3.14964061e-05
-3.14942723e-05
-3.09331314e-05
-3.0203905e-05
-3.02239536e-05
-3.1472684e-05
-3.15159141e-05
-3.0696725e-05
-3.04717071e-05
-3.14759339e-05
-3.15164451e-05
-3.05676955e-05
-3.05279599e-05
-3.14867374e-05
-3.15083703e-05
-3.14984249e-05
-3.06934741e-05
-3.04609141e-05
-3.14927838e-05
-3.15137361e-05
-3.14997681e-05
-3.1520125e-05
-3.09381471e-05
-3.07560808e-05
-3.05039293e-05
-3.05045522e-05
-3.15090967e-05
-3.15098948e-05
-3.0918576e-05
-3.04180913e-05
-3.05237659e-05
-3.15029281e-05
-3.09241422e-05
-3.04892978e-05
-3.14985164e-05
-3.15136288e-05
-3.07225758e-05
-3.07178908e-05
-3.15017673e-05
-3.15184259e-05
-3.15094015e-05
-3.09340406e-05
-3.05061998e-05
-3.03724545e-05
-3.03720155e-05
-3.14924093e-05
-3.15057395e-05
-3.07206866e-05
-3.07219383e-05
-3.15066908e-05
-3.09230244e-05
-3.04163996e-05
-3.15115401e-05
-3.15132446e-05
-3.15137434e-05
-3.08899767e-05
-3.05490459e-05
-3.15194251e-05
-3.15271477e-05
-3.15207988e-05
-3.09195165e-05
-3.05194226e-05
-3.15340744e-05
-3.15237359e-05
-3.0909677e-05
-3.07171921e-05
-3.05270504e-05
-3.05292903e-05
-3.15138062e-05
-3.09136761e-05
-3.04293648e-05
-3.15209847e-05
-3.15076349e-05
-3.09648197e-05
-3.04950301e-05
-3.05082526e-05
-3.15164238e-05
-3.09264416e-05
-3.05088705e-05
-3.15124928e-05
-3.15109072e-05
-3.15133786e-05
-3.09147682e-05
-3.05149822e-05
-3.14637728e-05
-3.15202846e-05
-3.14286479e-05
-3.15305556e-05
-3.14458849e-05
-3.09147623e-05
-3.04575287e-05
-3.06303189e-05
-3.03117694e-05
-3.0352582e-05
-3.14943286e-05
-3.09182217e-05
-3.03337786e-05
-3.15194023e-05
-3.15046522e-05
-3.08386585e-05
-3.0589054e-05
-3.15191478e-05
-3.14989631e-05
-3.09258411e-05
-3.04695737e-05
-3.04801139e-05
-3.14999404e-05
-3.15122735e-05
-3.15008088e-05
-3.09713786e-05
-3.05058869e-05
-3.05072556e-05
-3.15131826e-05
-3.15079796e-05
-3.09173144e-05
-3.03739429e-05
-3.03774283e-05
-3.14913779e-05
-3.14706874e-05
-3.14883338e-05
-3.12599592e-05
-3.07274191e-05
-3.05817591e-05
-3.0396751e-05
-3.03999193e-05
-3.14977634e-05
-3.15301607e-05
-3.07971237e-05
-3.06550924e-05
-3.15040157e-05
-3.15396803e-05
-3.08023958e-05
-3.06880927e-05
-3.15063234e-05
-3.15406709e-05
-3.06803602e-05
-3.06245602e-05
-3.15100766e-05
-3.15349087e-05
-3.15136891e-05
-3.15312137e-05
-3.09620304e-05
-3.07925295e-05
-3.08131312e-05
-3.06827008e-05
-3.06793151e-05
-3.03671353e-05
-3.03725153e-05
-3.14923329e-05
-3.15018341e-05
-3.15000975e-05
-3.06392457e-05
-3.0432857e-05
-3.1506222e-05
-3.15110355e-05
-3.15074414e-05
-3.08901221e-05
-3.04728271e-05
-3.15275999e-05
-3.15047301e-05
-3.09085378e-05
-3.03224729e-05
-3.03330225e-05
-3.15153729e-05
-3.15274115e-05
-3.08147736e-05
-3.05363594e-05
-3.15262271e-05
-3.15162035e-05
-3.09136282e-05
-3.04625401e-05
-3.04629769e-05
-3.15252437e-05
-3.15119497e-05
-3.09103823e-05
-3.03938326e-05
-3.04065163e-05
-3.15110933e-05
-3.15281389e-05
-3.07421086e-05
-3.07440716e-05
-3.15195148e-05
-3.09112079e-05
-3.03538079e-05
-3.15315683e-05
-3.15234601e-05
-3.07488491e-05
-3.05867261e-05
-3.15289158e-05
-3.15242648e-05
-3.0812786e-05
-3.07167463e-05
-3.15306255e-05
-3.15176297e-05
-3.09154635e-05
-3.07748898e-05
-3.04578993e-05
-3.04705941e-05
-3.1513555e-05
-3.15185345e-05
-3.15161376e-05
-3.09191734e-05
-3.05213144e-05
-3.15236939e-05
-3.15227548e-05
-3.07269666e-05
-3.05624068e-05
-3.15200866e-05
-3.15315242e-05
-3.06172333e-05
-3.05379941e-05
-3.15228589e-05
-3.15325673e-05
-3.05611124e-05
-3.05648167e-05
-3.15281593e-05
-3.15322638e-05
-3.15237445e-05
-3.09166464e-05
-3.05694049e-05
-3.03035346e-05
-3.03142768e-05
-3.15229387e-05
-3.1514522e-05
-3.15202291e-05
-3.09260027e-05
-3.02017763e-05
-3.03372446e-05
-3.15101279e-05
-3.1514469e-05
-3.1515425e-05
-3.09068962e-05
-3.07507714e-05
-3.15246289e-05
-3.09578775e-05
-3.04781871e-05
-3.15299786e-05
-3.15261843e-05
-3.08034943e-05
-3.06908679e-05
-3.15349816e-05
-3.15144791e-05
-3.09157281e-05
-3.07854667e-05
-3.05116443e-05
-3.05165689e-05
-3.14997356e-05
-3.14980238e-05
-3.10734804e-05
-3.03948797e-05
-3.04005656e-05
-3.15080949e-05
-3.07940961e-05
-3.01723991e-05
-3.15226533e-05
-3.14980939e-05
-3.15280542e-05
-3.15079819e-05
-3.09210193e-05
-3.03551825e-05
-3.0359204e-05
-3.15178376e-05
-3.15179413e-05
-3.09292113e-05
-3.03706952e-05
-3.03756748e-05
-3.15153667e-05
-3.15142561e-05
-3.09251577e-05
-3.02730327e-05
-3.03918969e-05
-3.15054786e-05
-3.1512904e-05
-3.15105634e-05
-3.0893541e-05
-3.05291423e-05
-3.15286981e-05
-3.15097053e-05
-3.09150511e-05
-3.02788068e-05
-3.03663094e-05
-3.15111626e-05
-3.15209626e-05
-3.15167961e-05
-3.08207047e-05
-3.0518621e-05
-3.15346674e-05
-3.1509696e-05
-3.09113341e-05
-3.04192074e-05
-3.04253094e-05
-3.15238916e-05
-3.15248328e-05
-3.09164353e-05
-3.04254038e-05
-3.04278744e-05
-3.15337042e-05
-3.1522862e-05
-3.09071969e-05
-3.03754938e-05
-3.03957388e-05
-3.15203222e-05
-3.15299058e-05
-3.08098761e-05
-3.06215072e-05
-3.15296936e-05
-3.15197957e-05
-3.09300685e-05
-3.06776686e-05
-3.0320785e-05
-3.03240099e-05
-3.15079283e-05
-3.15247455e-05
-3.15013037e-05
-3.15358528e-05
-3.14996093e-05
-3.09059358e-05
-3.03639493e-05
-3.0390917e-05
-3.15145508e-05
-3.15322143e-05
-3.07024942e-05
-3.05235926e-05
-3.15315128e-05
-3.15226822e-05
-3.07578593e-05
-3.05576466e-05
-3.15386808e-05
-3.15134179e-05
-3.09101114e-05
-3.04242909e-05
-3.0435012e-05
-3.15210655e-05
-3.15175027e-05
-3.08324532e-05
-3.05533357e-05
-3.15314256e-05
-3.15150618e-05
-3.09161128e-05
-3.03612551e-05
-3.03665488e-05
-3.15302089e-05
-3.15304864e-05
-3.08427181e-05
-3.15274544e-05
-3.15331008e-05
-3.09348057e-05
-3.05097208e-05
-3.05126521e-05
-3.153158e-05
-3.15147032e-05
-3.0912183e-05
-3.04141186e-05
-3.04200614e-05
-3.15253491e-05
-3.15257454e-05
-3.09251806e-05
-3.01610223e-05
-3.03023548e-05
-3.15132169e-05
-3.15186301e-05
-3.15169335e-05
-3.07556654e-05
-3.0547674e-05
-3.15293039e-05
-3.15192376e-05
-3.15224455e-05
-3.09253201e-05
-3.01944709e-05
-3.03447873e-05
-3.15237859e-05
-3.15315354e-05
-3.15248616e-05
-3.09122495e-05
-3.06327847e-05
-3.1548839e-05
-3.15207845e-05
-3.09049905e-05
-3.07711519e-05
-3.05531827e-05
-3.055405e-05
-3.15311457e-05
-3.15296286e-05
-3.07691634e-05
-3.06723704e-05
-3.15365154e-05
-3.15233661e-05
-3.09224141e-05
-3.07223159e-05
-3.0457174e-05
-3.04575418e-05
-3.15201636e-05
-3.15251236e-05
-3.05641723e-05
-3.05067072e-05
-3.1525321e-05
-3.15227462e-05
-3.0512738e-05
-3.05312723e-05
-3.15314502e-05
-3.15253001e-05
-3.15203951e-05
-3.07791046e-05
-3.04754588e-05
-3.15418417e-05
-3.15056441e-05
-3.07420741e-05
-3.04891704e-05
-3.15374748e-05
-3.14921827e-05
-3.09271086e-05
-3.01382729e-05
-3.02637537e-05
-3.14629566e-05
-3.14921449e-05
-3.14691329e-05
-3.14890723e-05
-3.14820905e-05
-3.03092258e-05
-3.0337945e-05
-3.15131028e-05
-3.07642441e-05
-3.03283883e-05
-3.15066535e-05
-3.14992676e-05
-3.14999269e-05
-3.09450103e-05
-3.05263879e-05
-3.06371637e-05
-3.02920678e-05
-3.03003216e-05
-3.15130559e-05
-3.15079663e-05
-3.05245532e-05
-3.05484499e-05
-3.15304527e-05
-3.15128007e-05
-3.15235664e-05
-3.08661971e-05
-3.05545557e-05
-3.15374385e-05
-3.15106942e-05
-3.06553553e-05
-3.0689222e-05
-3.15378037e-05
-3.15172824e-05
-3.15191869e-05
-3.09221629e-05
-3.06527137e-05
-3.05061693e-05
-3.04260557e-05
-3.1530526e-05
-3.15121467e-05
-3.07858247e-05
-3.00669509e-05
-3.02483629e-05
-3.15006875e-05
-3.15394854e-05
-3.14979369e-05
-3.08058426e-05
)
;

boundaryField
{
    closed
    {
        type            calculated;
        value           nonuniform List<scalar> 0();
    }
    open
    {
        type            calculated;
        value           nonuniform List<scalar> 0();
    }
    sides
    {
        type            empty;
    }
    procBoundary1to0
    {
        type            processor;
        value           uniform -3.03934948e-05;
    }
    procBoundary1to2
    {
        type            processor;
        value           uniform -3.03496827e-05;
    }
}


// ************************************************************************* //
