/*--------------------------------*- C++ -*----------------------------------*\
| =========                 |                                                 |
| \\      /  F ield         | OpenFOAM: The Open Source CFD Toolbox           |
|  \\    /   O peration     | Version:  2306                                  |
|   \\  /    A nd           | Website:  www.openfoam.com                      |
|    \\/     M anipulation  |                                                 |
\*---------------------------------------------------------------------------*/
FoamFile
{
    version     2.0;
    format      ascii;
    arch        "LSB;label=32;scalar=64";
    class       volScalarField;
    location    "0.00164";
    object      T;
}
// * * * * * * * * * * * * * * * * * * * * * * * * * * * * * * * * * * * * * //

dimensions      [0 0 0 1 0 0 0];

internalField   nonuniform List<scalar> 
531
(
339.546161
339.683471
326.312576
325.548999
339.383435
339.848367
339.371425
329.357034
321.208517
321.361471
339.500251
339.622135
329.619558
321.441487
322.628236
339.544024
329.660318
321.262879
339.095046
339.58601
338.830498
339.732284
333.461692
328.592238
324.853634
325.119819
320.28169
320.476645
339.175348
339.73588
326.418022
326.096065
339.378196
339.624637
339.485652
329.725832
325.956185
321.657659
321.768721
339.122314
339.763614
325.906275
323.193821
339.069215
339.823221
325.418806
322.944972
339.021961
339.853028
323.201418
321.665596
339.038928
339.905938
339.142632
340.005339
328.750099
324.110979
339.41203
339.908246
326.173754
326.153714
339.590097
329.280997
320.988329
339.663458
339.49372
339.483653
329.592651
324.81809
321.510368
321.462613
339.504294
339.404982
329.494687
317.715505
318.014063
339.133243
339.726431
325.68198
322.023216
339.205921
339.71557
323.591472
322.93396
339.39242
339.57906
339.468158
325.615017
321.853713
339.481342
339.672921
339.490552
339.756941
329.858681
326.62211
322.550586
322.554658
339.675665
339.622605
329.380894
321.166639
322.866325
339.574434
329.468785
322.313692
339.511793
339.660073
326.090227
326.006982
339.597444
339.701783
339.621558
329.525948
322.595216
320.42504
320.420047
339.44223
339.546316
326.058599
326.076871
339.6413
329.37747
321.136018
339.746959
339.648414
339.720329
328.780716
323.275015
339.861563
339.847787
339.813507
329.253893
322.794266
340.032112
339.815691
329.199402
325.995073
322.916555
322.953497
339.74037
329.346227
321.342661
339.840057
339.585181
330.40844
322.402991
322.61184
339.772577
329.38271
322.628991
339.753341
339.606341
339.716359
329.195313
322.725378
339.03233
339.759689
338.476641
339.899555
338.741667
329.170833
321.837479
324.581761
319.458572
320.091924
339.457273
329.274406
319.803517
339.816844
339.544297
327.952086
323.93304
339.799828
339.445235
329.626325
322.001002
322.159677
339.525541
339.628325
339.481834
330.523271
322.581946
322.600638
339.710563
339.594584
329.380469
320.453077
320.503749
339.402818
339.048237
339.300275
335.682084
326.166465
323.822079
320.82117
320.861601
339.494997
339.921343
327.292501
324.979672
339.579635
340.047665
327.376504
325.510705
339.619726
340.06385
325.400525
324.482876
339.710371
339.978061
339.693516
339.913444
330.346124
327.209819
327.550035
325.442782
325.388993
320.343239
320.427295
339.436444
339.49077
339.505967
324.733104
321.401909
339.662328
339.611286
339.613363
328.784507
322.052249
339.912452
339.550859
329.167409
319.616034
319.769624
339.739884
339.893028
327.5646
323.06915
339.892008
339.713057
329.30781
321.877102
321.88049
339.87232
339.656731
329.269289
320.769839
320.960555
339.669004
339.884002
326.395294
326.423424
339.819897
329.318322
320.113052
339.983622
339.828536
326.493901
323.881713
339.946027
339.817583
327.530483
325.98719
339.94938
339.70294
329.277146
326.933735
321.798219
322.00799
339.745563
339.717599
339.747386
329.335947
322.826933
339.854327
339.805971
326.146799
323.484834
339.823279
339.937941
324.372506
323.085583
339.876334
339.952729
323.461416
323.520971
339.952474
339.920647
339.833631
329.250615
323.609637
319.294526
319.479202
339.899723
339.664918
339.813144
329.446506
317.661583
319.846397
339.680906
339.667145
339.711494
329.059223
326.540442
339.875832
330.272517
322.12011
339.94976
339.854504
327.378899
325.569236
340.005781
339.654864
329.304486
327.107158
322.672594
322.756569
339.520252
339.4366
332.388201
320.785054
320.880813
339.64975
327.236365
317.192596
339.864587
339.463397
339.89448
339.596066
329.514511
320.142588
320.20177
339.749478
339.751704
329.473166
320.396362
320.470944
339.706484
339.69283
329.441684
318.818936
320.731557
339.602608
339.640403
339.636332
328.843055
322.962845
339.902314
339.614876
329.284748
318.910686
320.312062
339.688543
339.770546
339.731053
327.660405
322.78846
339.99831
339.617747
329.21948
321.178336
321.26618
339.835281
339.851063
329.332593
321.272432
321.311307
339.983251
339.818948
329.180738
320.468964
320.783144
339.793749
339.921454
327.486312
324.444591
339.924923
339.748196
329.445257
325.359557
319.582763
319.631832
339.668934
339.838807
339.536868
339.978401
339.473303
329.191721
320.289363
320.703322
339.712773
339.96179
325.750414
322.857579
339.97327
339.806227
326.640029
323.415637
340.05834
339.671327
329.213944
321.260108
321.42399
339.79724
339.734401
327.851438
323.350086
339.940633
339.693701
329.310248
320.238322
320.31625
339.942656
339.948889
328.011374
339.915815
339.945565
329.517047
322.635979
322.685556
339.951798
339.694618
329.261113
321.094759
321.181416
339.855467
339.871785
329.393115
317.000349
319.278193
339.736436
339.74334
339.759101
326.609422
323.254582
339.96859
339.722859
339.843257
329.618925
317.535232
319.960319
339.886499
339.923675
339.863875
329.181716
324.629148
340.196431
339.7538
329.148145
326.865689
323.332762
323.348316
339.968873
339.903398
326.825637
325.265909
340.020856
339.795467
329.345327
326.078039
321.786228
321.789275
339.818816
339.849002
323.515949
322.584555
339.896071
339.805794
322.680578
322.983394
339.993738
339.828537
339.804259
326.982886
322.089482
340.113844
339.553063
326.382442
322.318754
340.030142
339.356795
329.416309
316.656066
318.660566
338.983057
339.370308
339.068513
339.321559
339.231454
319.402075
319.878806
339.729332
326.768662
319.716804
339.600843
339.430949
339.47667
329.998037
322.919063
324.703874
319.124626
319.25352
339.696901
339.592656
322.876679
323.269867
339.969268
339.629081
339.849391
328.398437
323.369015
340.035801
339.610365
324.984272
325.546019
340.056246
339.679941
339.755921
329.526128
324.957088
322.576132
321.288352
339.942495
339.675734
327.097786
315.484239
318.397601
339.527141
340.060867
339.458538
327.40181
)
;

boundaryField
{
    closed
    {
        type            fixedValue;
        value           nonuniform List<scalar> 0();
    }
    open
    {
        type            zeroGradient;
    }
    sides
    {
        type            empty;
    }
    procBoundary1to0
    {
        type            processor;
        value           uniform 320.767193;
    }
    procBoundary1to2
    {
        type            processor;
        value           uniform 320.067064;
    }
}


// ************************************************************************* //
