/*--------------------------------*- C++ -*----------------------------------*\
| =========                 |                                                 |
| \\      /  F ield         | OpenFOAM: The Open Source CFD Toolbox           |
|  \\    /   O peration     | Version:  2306                                  |
|   \\  /    A nd           | Website:  www.openfoam.com                      |
|    \\/     M anipulation  |                                                 |
\*---------------------------------------------------------------------------*/
FoamFile
{
    version     2.0;
    format      ascii;
    arch        "LSB;label=32;scalar=64";
    class       volScalarField;
    location    "0.00076";
    object      prefDZ_H2O;
}
// * * * * * * * * * * * * * * * * * * * * * * * * * * * * * * * * * * * * * //

dimensions      [1 -1 -1 0 0 0 0];

internalField   nonuniform List<scalar> 
531
(
-7.37475296e-07
-7.33328538e-07
-7.40847096e-07
-7.76547026e-07
-7.6268456e-07
-7.35046386e-07
-7.43982195e-07
-7.75760947e-07
-7.60283979e-07
-7.36202325e-07
-7.44061417e-07
-7.75086368e-07
-7.75329595e-07
-7.37719695e-07
-7.34283969e-07
-7.54040568e-07
-7.75119386e-07
-7.55515842e-07
-7.36858679e-07
-7.46773997e-07
-7.74433133e-07
-7.75148355e-07
-7.37648035e-07
-7.33514351e-07
-7.48180456e-07
-7.75316792e-07
-7.57685066e-07
-7.36473923e-07
-7.46005958e-07
-7.74374579e-07
-7.74541861e-07
-7.38451129e-07
-7.35012127e-07
-7.48824611e-07
-7.74351085e-07
-7.7492994e-07
-7.42106816e-07
-7.35242968e-07
-7.34632053e-07
-7.41890112e-07
-7.75681666e-07
-7.73704857e-07
-7.74484618e-07
-7.74134228e-07
-7.50791738e-07
-7.36680968e-07
-7.36668213e-07
-7.35126655e-07
-7.33490701e-07
-7.4382696e-07
-7.76151695e-07
-7.72642615e-07
-7.74729733e-07
-7.41353348e-07
-7.35024642e-07
-7.42699406e-07
-7.7504083e-07
-7.74629066e-07
-7.38287207e-07
-7.34083039e-07
-7.4223992e-07
-7.75025863e-07
-7.74341953e-07
-7.42269487e-07
-7.35168693e-07
-7.34803212e-07
-7.42926229e-07
-7.75449703e-07
-7.73853191e-07
-7.74362093e-07
-7.74376609e-07
-7.50275367e-07
-7.3784503e-07
-7.3615411e-07
-7.35013743e-07
-7.44270497e-07
-7.74780405e-07
-7.74631834e-07
-7.3852624e-07
-7.3484142e-07
-7.44120064e-07
-7.74613921e-07
-7.74512723e-07
-7.39139726e-07
-7.3501128e-07
-7.43809452e-07
-7.74373397e-07
-7.74354052e-07
-7.40040815e-07
-7.35193506e-07
-7.42666811e-07
-7.74062262e-07
-7.73824521e-07
-7.46410001e-07
-7.3614392e-07
-7.34967281e-07
-7.44547509e-07
-7.7529159e-07
-7.63040515e-07
-7.35567482e-07
-7.44799303e-07
-7.75159947e-07
-7.6269606e-07
-7.35986725e-07
-7.42833162e-07
-7.74518605e-07
-7.75009797e-07
-7.37446127e-07
-7.35273988e-07
-7.54790284e-07
-7.75137888e-07
-7.68384418e-07
-7.35195889e-07
-7.36112445e-07
-7.75930542e-07
-7.74059547e-07
-7.60267456e-07
-7.37290627e-07
-7.35700215e-07
-7.47194408e-07
-7.73999728e-07
-7.73579187e-07
-7.53127901e-07
-7.37118542e-07
-7.34529421e-07
-7.37129001e-07
-7.75294161e-07
-7.75638781e-07
-7.37403318e-07
-7.34579567e-07
-7.66354158e-07
-7.76237778e-07
-7.38285971e-07
-7.36675741e-07
-7.75680332e-07
-7.76274145e-07
-7.36596984e-07
-7.36658187e-07
-7.75617515e-07
-7.76240506e-07
-7.36652009e-07
-7.36630848e-07
-7.76503482e-07
-7.74868076e-07
-7.52129373e-07
-7.34745348e-07
-7.36236608e-07
-7.75816548e-07
-7.76607339e-07
-7.36085041e-07
-7.37345501e-07
-7.74693622e-07
-7.74672518e-07
-7.47335828e-07
-7.34401029e-07
-7.36858971e-07
-7.7516974e-07
-7.74691956e-07
-7.45758821e-07
-7.34740342e-07
-7.37146788e-07
-7.75563499e-07
-7.75621945e-07
-7.37565899e-07
-7.37800658e-07
-7.75118389e-07
-7.74446307e-07
-7.49403716e-07
-7.34713787e-07
-7.36405575e-07
-7.75790596e-07
-7.74434701e-07
-7.51385097e-07
-7.34840557e-07
-7.36000947e-07
-7.75972028e-07
-7.73819172e-07
-7.54433066e-07
-7.37284273e-07
-7.35934089e-07
-7.44527142e-07
-7.74974823e-07
-7.73705664e-07
-7.53116745e-07
-7.34920598e-07
-7.35393607e-07
-7.76602491e-07
-7.74379249e-07
-7.52814749e-07
-7.35747316e-07
-7.35293939e-07
-7.56490095e-07
-7.76529221e-07
-7.73963705e-07
-7.75046785e-07
-7.42818519e-07
-7.3646021e-07
-7.33965247e-07
-7.34143173e-07
-7.78339418e-07
-7.75396125e-07
-7.49244166e-07
-7.34432008e-07
-7.34504558e-07
-7.78154347e-07
-7.75618539e-07
-7.39334371e-07
-7.36820119e-07
-7.79894841e-07
-7.75521405e-07
-7.39373083e-07
-7.36887662e-07
-7.8021292e-07
-7.75570163e-07
-7.39575399e-07
-7.37419611e-07
-7.80307524e-07
-7.74748094e-07
-7.5262181e-07
-7.35141349e-07
-7.35051088e-07
-7.79315367e-07
-7.74831884e-07
-7.54763992e-07
-7.35439134e-07
-7.35354754e-07
-7.79670365e-07
-7.74799621e-07
-7.54879157e-07
-7.35448037e-07
-7.35353579e-07
-7.79808495e-07
-7.74855136e-07
-7.54012383e-07
-7.35242044e-07
-7.35113863e-07
-7.79808086e-07
-7.75744659e-07
-7.40019685e-07
-7.37525652e-07
-7.79367133e-07
-7.74866196e-07
-7.5195083e-07
-7.34690922e-07
-7.34590093e-07
-7.79834647e-07
-7.76186043e-07
-7.3929699e-07
-7.36986173e-07
-7.78411173e-07
-7.76472657e-07
-7.39181121e-07
-7.37211469e-07
-7.79151129e-07
-7.74889019e-07
-7.52256358e-07
-7.3519932e-07
-7.35638011e-07
-7.78896818e-07
-7.76694321e-07
-7.3931303e-07
-7.37543155e-07
-7.79875188e-07
-7.74660226e-07
-7.53845371e-07
-7.35693912e-07
-7.35608299e-07
-7.79095437e-07
-7.74645004e-07
-7.53744146e-07
-7.37184154e-07
-7.34673379e-07
-7.35592216e-07
-7.75042241e-07
-7.74611126e-07
-7.76289726e-07
-7.74097622e-07
-7.74437066e-07
-7.51871922e-07
-7.37801121e-07
-7.36549656e-07
-7.33610296e-07
-7.33833039e-07
-7.79647725e-07
-7.78785472e-07
-7.37301747e-07
-7.36367119e-07
-7.79267023e-07
-7.79367534e-07
-7.38106848e-07
-7.37953277e-07
-7.78497965e-07
-7.75162247e-07
-7.4692359e-07
-7.35420398e-07
-7.43078387e-07
-7.77562419e-07
-7.69496429e-07
-7.38001236e-07
-7.40260092e-07
-7.77756106e-07
-7.75553251e-07
-7.43030297e-07
-7.34825942e-07
-7.45670273e-07
-7.77365852e-07
-7.64667193e-07
-7.37512305e-07
-7.41311557e-07
-7.77727421e-07
-7.7579442e-07
-7.4228554e-07
-7.3508829e-07
-7.4518098e-07
-7.7725599e-07
-7.76555228e-07
-7.40517307e-07
-7.35468037e-07
-7.46441867e-07
-7.77142148e-07
-7.77040417e-07
-7.39594556e-07
-7.35411431e-07
-7.46974147e-07
-7.77178346e-07
-7.77555403e-07
-7.38753313e-07
-7.35404204e-07
-7.47546787e-07
-7.77180816e-07
-7.78611381e-07
-7.38752922e-07
-7.35781089e-07
-7.4998913e-07
-7.76927241e-07
-7.77387245e-07
-7.38444012e-07
-7.35732015e-07
-7.51593799e-07
-7.76803071e-07
-7.7422401e-07
-7.38132175e-07
-7.35796036e-07
-7.54950078e-07
-7.76525429e-07
-7.67678836e-07
-7.37490521e-07
-7.35802825e-07
-7.633546e-07
-7.75487256e-07
-7.4991236e-07
-7.35757181e-07
-7.56216029e-07
-7.76382969e-07
-7.65066754e-07
-7.37420939e-07
-7.36056244e-07
-7.59624689e-07
-7.75847489e-07
-7.70426001e-07
-7.37376074e-07
-7.3526891e-07
-7.56124496e-07
-7.76437225e-07
-7.75708739e-07
-7.36628064e-07
-7.34284841e-07
-7.56073196e-07
-7.7628559e-07
-7.74807091e-07
-7.66613851e-07
-7.35639906e-07
-7.33541083e-07
-7.59376536e-07
-7.76149833e-07
-7.62243511e-07
-7.34562964e-07
-7.33312559e-07
-7.62719086e-07
-7.75978101e-07
-7.65371066e-07
-7.33056732e-07
-7.31295311e-07
-7.59144625e-07
-7.75536753e-07
-7.75928997e-07
-7.73574929e-07
-7.74064317e-07
-7.44550216e-07
-7.25799142e-07
-7.25025382e-07
-7.78210038e-07
-7.71646824e-07
-7.37028014e-07
-7.3422903e-07
-7.75098414e-07
-7.68930528e-07
-7.66816173e-07
-7.60271965e-07
-7.32642114e-07
-7.68585815e-07
-7.5816105e-07
-7.60016728e-07
-7.53685492e-07
-7.52516934e-07
-7.48315147e-07
-7.46384363e-07
-7.42492195e-07
-7.40162613e-07
-7.36531366e-07
-7.34344444e-07
-7.31798707e-07
-7.30935555e-07
-7.29245137e-07
-7.24076966e-07
-7.20987426e-07
-7.1459404e-07
-7.10644038e-07
-7.02987857e-07
-6.98653066e-07
-6.90376094e-07
-6.87543992e-07
-6.85111308e-07
-6.80700076e-07
-6.71386911e-07
-6.65489515e-07
-6.52187678e-07
-6.45231843e-07
-6.2686897e-07
-6.21044153e-07
-6.03194487e-07
-6.31178451e-07
-6.06048257e-07
-5.96601152e-07
-5.74555932e-07
-5.58575082e-07
-5.42704265e-07
-5.22394244e-07
-5.1254035e-07
-4.93211334e-07
-5.03809078e-07
-4.11519772e-07
-4.19313878e-07
-2.828358e-07
-3.93887067e-07
-1.94293291e-07
-1.64767416e-07
-1.27659597e-07
-6.94034922e-08
1.14784164e-07
2.12924966e-07
3.19622948e-07
4.65181902e-07
6.25328334e-07
7.14696639e-07
7.97393737e-07
8.63846722e-07
9.37798918e-07
1.0104948e-06
1.07853042e-06
1.1404536e-06
1.20209675e-06
1.25593085e-06
1.30840521e-06
1.35560934e-06
1.40071878e-06
1.43964e-06
1.47725189e-06
1.50569394e-06
1.53203747e-06
1.55494242e-06
1.57801639e-06
1.59819433e-06
1.61977802e-06
1.63936286e-06
1.66039883e-06
1.67957747e-06
1.69843784e-06
1.71656391e-06
1.73499107e-06
1.75263601e-06
1.77109484e-06
1.78726564e-06
1.80444387e-06
1.819642e-06
1.83850271e-06
1.85575488e-06
1.86806325e-06
1.87866203e-06
1.88974314e-06
1.89965211e-06
1.910277e-06
1.91982048e-06
1.92954703e-06
1.93883866e-06
1.94840707e-06
1.95744324e-06
1.96627666e-06
1.97464448e-06
1.98392425e-06
1.99322448e-06
2.00226635e-06
2.01075067e-06
2.01876605e-06
2.02606326e-06
2.03297978e-06
2.03971486e-06
2.04620839e-06
2.0529216e-06
2.05943652e-06
2.06597746e-06
2.0722613e-06
2.07863954e-06
2.08426355e-06
2.09072495e-06
2.09659493e-06
2.1026832e-06
2.10819103e-06
2.11394861e-06
2.1192311e-06
2.12472865e-06
2.1296068e-06
2.13470714e-06
2.13920901e-06
2.14396202e-06
2.14813926e-06
2.15243356e-06
2.15608548e-06
2.16004559e-06
2.1635143e-06
2.16731274e-06
)
;

boundaryField
{
    closed
    {
        type            calculated;
        value           nonuniform List<scalar> 0();
    }
    open
    {
        type            calculated;
        value           nonuniform List<scalar> 0();
    }
    sides
    {
        type            empty;
    }
    procBoundary4to3
    {
        type            processor;
        value           uniform -7.66491554e-07;
    }
    procBoundary4to5
    {
        type            processor;
        value           uniform 2.1706113e-06;
    }
}


// ************************************************************************* //
