/*--------------------------------*- C++ -*----------------------------------*\
| =========                 |                                                 |
| \\      /  F ield         | OpenFOAM: The Open Source CFD Toolbox           |
|  \\    /   O peration     | Version:  2306                                  |
|   \\  /    A nd           | Website:  www.openfoam.com                      |
|    \\/     M anipulation  |                                                 |
\*---------------------------------------------------------------------------*/
FoamFile
{
    version     2.0;
    format      ascii;
    arch        "LSB;label=32;scalar=64";
    class       volScalarField;
    location    "0.00096";
    object      prefDZ_H2;
}
// * * * * * * * * * * * * * * * * * * * * * * * * * * * * * * * * * * * * * //

dimensions      [1 -1 -1 0 0 0 0];

internalField   nonuniform List<scalar> 
531
(
6.16829483e-05
6.23031135e-05
6.35832042e-05
6.36132921e-05
6.19215801e-05
6.16261158e-05
6.23021549e-05
6.35825752e-05
6.36017219e-05
6.18460167e-05
6.1572498e-05
6.23072325e-05
6.35999349e-05
6.36003416e-05
6.21430821e-05
6.23449445e-05
6.36324648e-05
6.35610065e-05
6.17139518e-05
6.15703133e-05
6.23159323e-05
6.35868778e-05
6.35410327e-05
6.21993377e-05
6.23550874e-05
6.362113e-05
6.35154439e-05
6.16028969e-05
6.14698799e-05
6.23182044e-05
6.35477634e-05
6.35072092e-05
6.14699416e-05
6.1357105e-05
6.23175836e-05
6.35566398e-05
6.3490538e-05
6.16155837e-05
6.15519338e-05
6.23417869e-05
6.35666704e-05
6.34011769e-05
6.21444933e-05
6.2372712e-05
6.35895312e-05
6.28547496e-05
6.18887588e-05
6.23682749e-05
6.35949823e-05
6.33081247e-05
6.15734724e-05
6.15572978e-05
6.24414829e-05
6.3474777e-05
6.24526249e-05
6.18594879e-05
6.23349523e-05
6.34655982e-05
6.23234248e-05
6.16144262e-05
6.22813662e-05
6.35042089e-05
6.24832396e-05
6.15969235e-05
6.23003376e-05
6.35782114e-05
6.32519085e-05
6.17359317e-05
6.17563706e-05
6.25238625e-05
6.34674665e-05
6.24142204e-05
6.19307039e-05
6.2345893e-05
6.34786572e-05
6.23361032e-05
6.18711054e-05
6.23912874e-05
6.34496958e-05
6.22816575e-05
6.18557115e-05
6.24652337e-05
6.3387119e-05
6.22398468e-05
6.14100837e-05
6.22469835e-05
6.35481821e-05
6.29426296e-05
6.1996734e-05
6.23145653e-05
6.3598938e-05
6.31785879e-05
6.18747176e-05
6.19059798e-05
6.24592833e-05
6.3473801e-05
6.26271102e-05
6.14721014e-05
6.22713479e-05
6.35951453e-05
6.32896975e-05
6.19257894e-05
6.193036e-05
6.24159033e-05
6.35069483e-05
6.280542e-05
6.15282032e-05
6.21727017e-05
6.35100418e-05
6.33537212e-05
6.23564324e-05
6.20290968e-05
6.23630548e-05
6.35830453e-05
6.33333701e-05
6.16540955e-05
6.16569256e-05
6.23493465e-05
6.3570564e-05
6.33177848e-05
6.16873614e-05
6.16899864e-05
6.23503499e-05
6.35712561e-05
6.33380015e-05
6.1668882e-05
6.16674822e-05
6.23403398e-05
6.35726534e-05
6.33481053e-05
6.16442188e-05
6.1623834e-05
6.23301123e-05
6.35701986e-05
6.33253799e-05
6.1666232e-05
6.16700211e-05
6.23589738e-05
6.35586133e-05
6.31453157e-05
6.21251773e-05
6.23331972e-05
6.36022303e-05
6.33525801e-05
6.16437273e-05
6.16136941e-05
6.23259475e-05
6.35724562e-05
6.32702423e-05
6.2275808e-05
6.23254622e-05
6.36150846e-05
6.33721917e-05
6.16598221e-05
6.15933872e-05
6.2311136e-05
6.35549505e-05
6.3351957e-05
6.17026918e-05
6.1683695e-05
6.18781162e-05
6.23374917e-05
6.3580096e-05
6.34214311e-05
6.17932173e-05
6.16927391e-05
6.23190259e-05
6.3579585e-05
6.33577221e-05
6.21740632e-05
6.23210794e-05
6.36147553e-05
6.34388369e-05
6.16334469e-05
6.15823746e-05
6.23791147e-05
6.35254549e-05
6.29664384e-05
6.1947039e-05
6.23453011e-05
6.36012745e-05
6.34721966e-05
6.16325793e-05
6.1566389e-05
6.25083893e-05
6.35157178e-05
6.25362155e-05
6.19334617e-05
6.22939064e-05
6.36126641e-05
6.35255992e-05
6.18342582e-05
6.14695353e-05
6.22741305e-05
6.35971438e-05
6.35506962e-05
6.18817452e-05
6.15567944e-05
6.22828312e-05
6.35950751e-05
6.35684726e-05
6.20464143e-05
6.16587448e-05
6.23051286e-05
6.35738314e-05
6.35822654e-05
6.19475405e-05
6.14968373e-05
6.18587428e-05
6.24543687e-05
6.35774507e-05
6.35347536e-05
6.23049903e-05
6.15854987e-05
6.18232668e-05
6.36022066e-05
6.35937847e-05
6.22906879e-05
6.18788697e-05
6.24312061e-05
6.35475909e-05
6.24385562e-05
6.17450726e-05
6.21193995e-05
6.35284123e-05
6.36297579e-05
6.22706493e-05
6.16993008e-05
6.22821088e-05
6.34972704e-05
6.36263831e-05
6.22604951e-05
6.15364244e-05
6.22972364e-05
6.34406689e-05
6.3604015e-05
6.22678262e-05
6.15163992e-05
6.23361541e-05
6.33899208e-05
6.36318793e-05
6.22834144e-05
6.17665628e-05
6.29087212e-05
6.35562451e-05
6.22670242e-05
6.17893743e-05
6.22929022e-05
6.33897629e-05
6.36516742e-05
6.22913859e-05
6.21614784e-05
6.22889498e-05
6.2329609e-05
6.2330249e-05
6.22994595e-05
6.34711387e-05
6.35426011e-05
6.2271377e-05
6.20060919e-05
6.29108346e-05
6.35815664e-05
6.22581401e-05
6.20668642e-05
6.28114914e-05
6.3518765e-05
6.2255968e-05
6.17744506e-05
6.229184e-05
6.33343755e-05
6.35505877e-05
6.22406888e-05
6.15755666e-05
6.23231437e-05
6.32902599e-05
6.35361478e-05
6.2223931e-05
6.1478188e-05
6.22532442e-05
6.3364579e-05
6.29126342e-05
6.22362304e-05
6.21965614e-05
6.31318929e-05
6.35272295e-05
6.22199719e-05
6.14074826e-05
6.23266802e-05
6.34126332e-05
6.26578153e-05
6.22493207e-05
6.23043188e-05
6.32576416e-05
6.35483309e-05
6.22329674e-05
6.15373063e-05
6.23111227e-05
6.32682683e-05
6.35288411e-05
6.22392239e-05
6.15208049e-05
6.23442192e-05
6.32502642e-05
6.35293462e-05
6.2223833e-05
6.1444004e-05
6.22570533e-05
6.33330037e-05
6.30604463e-05
6.22446375e-05
6.21584311e-05
6.31027555e-05
6.3555697e-05
6.22144019e-05
6.13788337e-05
6.22985681e-05
6.33049291e-05
6.35054828e-05
6.2314267e-05
6.20938112e-05
6.3050603e-05
6.3545329e-05
6.22280342e-05
6.13337503e-05
6.22845279e-05
6.33479553e-05
6.36024539e-05
6.23100847e-05
6.23478774e-05
6.32984791e-05
6.28763248e-05
6.18343514e-05
6.15628116e-05
6.23385589e-05
6.34756812e-05
6.29703732e-05
6.21345339e-05
6.22351662e-05
6.34464254e-05
6.3565755e-05
6.2170978e-05
6.13640981e-05
6.22809285e-05
6.34462797e-05
6.36223488e-05
6.23503185e-05
6.21455375e-05
6.34068335e-05
6.34972472e-05
6.19130915e-05
6.13081685e-05
6.2307548e-05
6.34690219e-05
6.34839368e-05
6.18574274e-05
6.13658429e-05
6.22908166e-05
6.35069903e-05
6.36654583e-05
6.22302035e-05
6.21272128e-05
6.35346691e-05
6.33935842e-05
6.17131646e-05
6.13258973e-05
6.23040275e-05
6.35242493e-05
6.3685884e-05
6.21143646e-05
6.23289793e-05
6.35235198e-05
6.29951024e-05
6.1291392e-05
6.13952328e-05
6.35090694e-05
6.34760358e-05
6.23900029e-05
6.14530087e-05
6.17564214e-05
6.35905553e-05
6.34970854e-05
6.23559469e-05
6.15894788e-05
6.19516982e-05
6.35985174e-05
6.34997834e-05
6.2321707e-05
6.15409964e-05
6.19660547e-05
6.36024276e-05
6.3525892e-05
6.23344168e-05
6.16554577e-05
6.1535356e-05
6.218998e-05
6.3583606e-05
6.36066985e-05
6.34022963e-05
6.2273774e-05
6.13481627e-05
6.20117402e-05
6.36043269e-05
6.3483893e-05
6.22962642e-05
6.13785156e-05
6.21489474e-05
6.35936905e-05
6.35194102e-05
6.23445049e-05
6.21465531e-05
6.35622541e-05
6.34660677e-05
6.23006098e-05
6.13204026e-05
6.21657127e-05
6.35803101e-05
6.34504781e-05
6.22203556e-05
6.22898424e-05
6.36244253e-05
6.33953906e-05
6.20451273e-05
6.22938211e-05
6.36427309e-05
6.34513377e-05
6.20718254e-05
6.13493099e-05
6.22925416e-05
6.357865e-05
6.34049506e-05
6.22080129e-05
6.23178865e-05
6.36674452e-05
6.34567237e-05
6.21353201e-05
6.1456867e-05
6.22868222e-05
6.35856348e-05
6.34054308e-05
6.22614475e-05
6.23153257e-05
6.36709679e-05
6.34677474e-05
6.22553713e-05
6.15680261e-05
6.22877718e-05
6.36187317e-05
6.34799745e-05
6.22987258e-05
6.16116444e-05
6.22735138e-05
6.36083446e-05
6.35090814e-05
6.22314811e-05
6.17316973e-05
6.17872901e-05
6.23122824e-05
6.36128234e-05
6.34188769e-05
6.20292529e-05
6.23182243e-05
6.36852023e-05
6.35108331e-05
6.20866466e-05
6.16272673e-05
6.22920679e-05
6.3602785e-05
6.3487017e-05
6.21684443e-05
6.23266997e-05
6.24692868e-05
6.23014396e-05
6.229017e-05
6.36965346e-05
6.35177553e-05
6.22605405e-05
6.16188749e-05
6.2283384e-05
6.35852763e-05
6.34462463e-05
6.17996038e-05
6.20372561e-05
6.36323679e-05
6.34841564e-05
6.23218719e-05
6.15766288e-05
6.23173844e-05
6.35572858e-05
6.34638776e-05
6.17209575e-05
6.20650932e-05
6.36171491e-05
6.34601757e-05
6.18301303e-05
6.18889942e-05
6.34433121e-05
6.34992639e-05
6.23152029e-05
6.16164173e-05
6.22975555e-05
6.36358907e-05
6.35478874e-05
6.22784775e-05
6.15487205e-05
6.22858589e-05
6.36392299e-05
6.35640786e-05
6.22795624e-05
6.15995777e-05
6.22935076e-05
6.36398541e-05
6.35650913e-05
6.22750836e-05
6.15487861e-05
6.22962252e-05
6.36410012e-05
6.3573686e-05
6.22758894e-05
6.15249139e-05
6.23025961e-05
6.36415236e-05
6.35800846e-05
6.2272192e-05
6.1502427e-05
6.22975248e-05
6.36417169e-05
6.36036195e-05
6.22686037e-05
6.16001961e-05
6.22856751e-05
6.36102353e-05
)
;

boundaryField
{
    closed
    {
        type            calculated;
        value           nonuniform List<scalar> 0();
    }
    open
    {
        type            calculated;
        value           nonuniform List<scalar> 0();
    }
    sides
    {
        type            empty;
    }
    procBoundary1to0
    {
        type            processor;
        value           uniform 6.19650252e-05;
    }
    procBoundary1to2
    {
        type            processor;
        value           uniform 6.36276216e-05;
    }
}


// ************************************************************************* //
