/*--------------------------------*- C++ -*----------------------------------*\
| =========                 |                                                 |
| \\      /  F ield         | OpenFOAM: The Open Source CFD Toolbox           |
|  \\    /   O peration     | Version:  2306                                  |
|   \\  /    A nd           | Website:  www.openfoam.com                      |
|    \\/     M anipulation  |                                                 |
\*---------------------------------------------------------------------------*/
FoamFile
{
    version     2.0;
    format      ascii;
    arch        "LSB;label=32;scalar=64";
    class       volScalarField;
    location    "0.00096";
    object      prefDPV_H2O;
}
// * * * * * * * * * * * * * * * * * * * * * * * * * * * * * * * * * * * * * //

dimensions      [1 -1 -1 0 0 0 0];

internalField   nonuniform List<scalar> 
531
(
-3.64749836e-07
-3.70519482e-07
-3.83953901e-07
-3.84227622e-07
-3.65417215e-07
-3.64610378e-07
-3.70106652e-07
-3.83989123e-07
-3.84360215e-07
-3.65216679e-07
-3.64474539e-07
-3.69420357e-07
-3.83867109e-07
-3.84723024e-07
-3.66026337e-07
-3.67422764e-07
-3.8374639e-07
-3.84710095e-07
-3.64817175e-07
-3.6452064e-07
-3.69815364e-07
-3.83890575e-07
-3.85183025e-07
-3.66214846e-07
-3.67933208e-07
-3.83819636e-07
-3.85092725e-07
-3.64536747e-07
-3.64292034e-07
-3.70166836e-07
-3.84300249e-07
-3.85304415e-07
-3.64237371e-07
-3.63961641e-07
-3.69513133e-07
-3.84274079e-07
-3.85370768e-07
-3.64674151e-07
-3.64527156e-07
-3.70612679e-07
-3.84116637e-07
-3.86505859e-07
-3.66120594e-07
-3.68504927e-07
-3.84147473e-07
-3.81757759e-07
-3.65329412e-07
-3.6852873e-07
-3.8409719e-07
-3.86874e-07
-3.64476488e-07
-3.64661697e-07
-3.75194785e-07
-3.84915223e-07
-3.75903359e-07
-3.65424784e-07
-3.72645866e-07
-3.85141764e-07
-3.73078529e-07
-3.64731753e-07
-3.70667595e-07
-3.85041747e-07
-3.76495534e-07
-3.64575842e-07
-3.68482312e-07
-3.84271338e-07
-3.86536566e-07
-3.65014516e-07
-3.65192779e-07
-3.76805998e-07
-3.85004864e-07
-3.75219346e-07
-3.65588915e-07
-3.73006877e-07
-3.85123888e-07
-3.73588386e-07
-3.65400687e-07
-3.74305275e-07
-3.8537246e-07
-3.71969401e-07
-3.65415262e-07
-3.75868122e-07
-3.85901668e-07
-3.69353855e-07
-3.64159515e-07
-3.68862987e-07
-3.84649991e-07
-3.82828367e-07
-3.65695812e-07
-3.69058701e-07
-3.84229915e-07
-3.85779804e-07
-3.65459805e-07
-3.6563531e-07
-3.75343745e-07
-3.84927854e-07
-3.78745167e-07
-3.64242669e-07
-3.67627661e-07
-3.84491821e-07
-3.86654758e-07
-3.65642757e-07
-3.6566731e-07
-3.74303877e-07
-3.84643266e-07
-3.81116321e-07
-3.64476435e-07
-3.66067045e-07
-3.85332495e-07
-3.85962838e-07
-3.67331563e-07
-3.65858623e-07
-3.72944577e-07
-3.8402259e-07
-3.86586613e-07
-3.64775617e-07
-3.64779884e-07
-3.72556963e-07
-3.84178874e-07
-3.8662643e-07
-3.64888613e-07
-3.64879288e-07
-3.72466717e-07
-3.84172432e-07
-3.86441483e-07
-3.64840841e-07
-3.64821496e-07
-3.72118042e-07
-3.84193244e-07
-3.86373867e-07
-3.64762528e-07
-3.64700189e-07
-3.71783593e-07
-3.84231644e-07
-3.86528655e-07
-3.64836045e-07
-3.64847705e-07
-3.72428419e-07
-3.84337817e-07
-3.85213448e-07
-3.66062733e-07
-3.68848037e-07
-3.84145998e-07
-3.86250993e-07
-3.64744734e-07
-3.64703772e-07
-3.71167981e-07
-3.84129782e-07
-3.86686886e-07
-3.66478765e-07
-3.68835706e-07
-3.84115306e-07
-3.86010133e-07
-3.64769347e-07
-3.64659695e-07
-3.70901364e-07
-3.84244622e-07
-3.86338642e-07
-3.64934033e-07
-3.64831808e-07
-3.65357378e-07
-3.719535e-07
-3.840236e-07
-3.85591448e-07
-3.65151095e-07
-3.64884286e-07
-3.70901566e-07
-3.84085315e-07
-3.86527984e-07
-3.66191958e-07
-3.67689231e-07
-3.84145345e-07
-3.85549979e-07
-3.64683073e-07
-3.64587835e-07
-3.73313113e-07
-3.84448284e-07
-3.83125674e-07
-3.65574531e-07
-3.67320376e-07
-3.84048369e-07
-3.85272541e-07
-3.64629301e-07
-3.64459757e-07
-3.7660651e-07
-3.84525732e-07
-3.7722338e-07
-3.65525818e-07
-3.68050238e-07
-3.83960972e-07
-3.84839098e-07
-3.65142809e-07
-3.64173769e-07
-3.69689172e-07
-3.84084954e-07
-3.84561491e-07
-3.65316675e-07
-3.64419829e-07
-3.69546765e-07
-3.84062878e-07
-3.84399606e-07
-3.65782629e-07
-3.64725243e-07
-3.71457127e-07
-3.84201127e-07
-3.84401968e-07
-3.65499268e-07
-3.64267299e-07
-3.65247069e-07
-3.75455749e-07
-3.83823904e-07
-3.8411647e-07
-3.70965743e-07
-3.64588173e-07
-3.65121686e-07
-3.8468332e-07
-3.84056533e-07
-3.69224152e-07
-3.65328565e-07
-3.75357363e-07
-3.84483806e-07
-3.75317609e-07
-3.65027089e-07
-3.65996497e-07
-3.84874097e-07
-3.84076878e-07
-3.67674723e-07
-3.64900615e-07
-3.68512373e-07
-3.84908981e-07
-3.84210336e-07
-3.67751844e-07
-3.64504715e-07
-3.6798997e-07
-3.85311372e-07
-3.84334775e-07
-3.68303831e-07
-3.64512352e-07
-3.66771594e-07
-3.858041e-07
-3.84428444e-07
-3.67199145e-07
-3.65053952e-07
-3.82442567e-07
-3.84664534e-07
-3.69581763e-07
-3.6521758e-07
-3.67377062e-07
-3.85699429e-07
-3.84081474e-07
-3.71454507e-07
-3.66130003e-07
-3.67554093e-07
-3.67415074e-07
-3.66986734e-07
-3.70940135e-07
-3.85075293e-07
-3.85169829e-07
-3.66916393e-07
-3.65814486e-07
-3.82499449e-07
-3.84775912e-07
-3.69047451e-07
-3.65981756e-07
-3.81231635e-07
-3.8504678e-07
-3.69877587e-07
-3.65253636e-07
-3.68491457e-07
-3.85966053e-07
-3.84926358e-07
-3.69029947e-07
-3.64700516e-07
-3.6736772e-07
-3.86423192e-07
-3.8510103e-07
-3.68079813e-07
-3.64372652e-07
-3.70819773e-07
-3.85798042e-07
-3.82617181e-07
-3.66486771e-07
-3.66435068e-07
-3.85285728e-07
-3.85260559e-07
-3.67801282e-07
-3.64140222e-07
-3.73656319e-07
-3.85434351e-07
-3.79041747e-07
-3.66552271e-07
-3.66728607e-07
-3.86664992e-07
-3.85004985e-07
-3.69368738e-07
-3.64570027e-07
-3.67506056e-07
-3.86492892e-07
-3.85115813e-07
-3.68984619e-07
-3.64573865e-07
-3.67147612e-07
-3.86632856e-07
-3.85150291e-07
-3.68191274e-07
-3.64295505e-07
-3.69998911e-07
-3.85920853e-07
-3.84461931e-07
-3.66492098e-07
-3.6633545e-07
-3.84929851e-07
-3.85053239e-07
-3.68270855e-07
-3.64097079e-07
-3.67688431e-07
-3.86130125e-07
-3.85326573e-07
-3.67587744e-07
-3.66173079e-07
-3.84276435e-07
-3.85044062e-07
-3.67634666e-07
-3.63986118e-07
-3.67847875e-07
-3.85812696e-07
-3.84822171e-07
-3.67298702e-07
-3.66781722e-07
-3.86506237e-07
-3.82124492e-07
-3.65215893e-07
-3.64513409e-07
-3.73074132e-07
-3.84811564e-07
-3.83316629e-07
-3.6612749e-07
-3.66545562e-07
-3.85298848e-07
-3.85013679e-07
-3.65993572e-07
-3.64051911e-07
-3.69549122e-07
-3.84946468e-07
-3.84470917e-07
-3.66736901e-07
-3.66312847e-07
-3.8566413e-07
-3.85375054e-07
-3.65364451e-07
-3.63951026e-07
-3.70710568e-07
-3.8482491e-07
-3.8577185e-07
-3.65249629e-07
-3.64091107e-07
-3.70180533e-07
-3.84508407e-07
-3.84046095e-07
-3.66373018e-07
-3.66240096e-07
-3.84641436e-07
-3.86333561e-07
-3.64808477e-07
-3.63981362e-07
-3.71663409e-07
-3.84292663e-07
-3.84007129e-07
-3.66111706e-07
-3.66727971e-07
-3.8447691e-07
-3.83581651e-07
-3.6388726e-07
-3.6413463e-07
-3.85728536e-07
-3.84553849e-07
-3.73632891e-07
-3.64305929e-07
-3.65040586e-07
-3.84609609e-07
-3.84449606e-07
-3.72778136e-07
-3.64656504e-07
-3.65563758e-07
-3.84390088e-07
-3.84502549e-07
-3.71670784e-07
-3.64496535e-07
-3.65529227e-07
-3.84253061e-07
-3.84559557e-07
-3.6965164e-07
-3.64754512e-07
-3.64503392e-07
-3.66181093e-07
-3.84457395e-07
-3.83575299e-07
-3.85436208e-07
-3.70339014e-07
-3.640457e-07
-3.65571156e-07
-3.84317671e-07
-3.85025708e-07
-3.68046863e-07
-3.64043151e-07
-3.6595698e-07
-3.84256865e-07
-3.84759495e-07
-3.66808909e-07
-3.66098955e-07
-3.85276001e-07
-3.8517119e-07
-3.66591009e-07
-3.63890828e-07
-3.66021096e-07
-3.84268199e-07
-3.8549179e-07
-3.66400402e-07
-3.66481433e-07
-3.8440122e-07
-3.85908206e-07
-3.65888603e-07
-3.66505213e-07
-3.84318906e-07
-3.85319987e-07
-3.65917699e-07
-3.6397232e-07
-3.66471377e-07
-3.84221233e-07
-3.85804531e-07
-3.66304995e-07
-3.66982406e-07
-3.84029167e-07
-3.85230327e-07
-3.6605572e-07
-3.64256103e-07
-3.66968078e-07
-3.84102953e-07
-3.8574999e-07
-3.66434168e-07
-3.67371617e-07
-3.83869214e-07
-3.85084495e-07
-3.66384203e-07
-3.64530887e-07
-3.67706172e-07
-3.83947819e-07
-3.84937723e-07
-3.67208803e-07
-3.64637916e-07
-3.67667151e-07
-3.83926064e-07
-3.84855956e-07
-3.6638307e-07
-3.64929439e-07
-3.65058905e-07
-3.67361838e-07
-3.83941365e-07
-3.85739181e-07
-3.65688873e-07
-3.66551143e-07
-3.83778544e-07
-3.84931101e-07
-3.65861967e-07
-3.64643798e-07
-3.69850546e-07
-3.83923633e-07
-3.8567586e-07
-3.66142732e-07
-3.67756506e-07
-3.75976986e-07
-3.67479529e-07
-3.68938015e-07
-3.83447992e-07
-3.84657093e-07
-3.67287307e-07
-3.64627326e-07
-3.67109784e-07
-3.8410106e-07
-3.85731848e-07
-3.65155975e-07
-3.65786827e-07
-3.84495572e-07
-3.84903595e-07
-3.67465164e-07
-3.64623411e-07
-3.6727561e-07
-3.84221476e-07
-3.85784543e-07
-3.64883722e-07
-3.65876066e-07
-3.84180616e-07
-3.8535194e-07
-3.65378239e-07
-3.65438307e-07
-3.85985581e-07
-3.84680155e-07
-3.69130978e-07
-3.64638048e-07
-3.67201219e-07
-3.83778815e-07
-3.84523559e-07
-3.67569524e-07
-3.64417757e-07
-3.67098372e-07
-3.83794033e-07
-3.84406081e-07
-3.67741661e-07
-3.64551765e-07
-3.67254547e-07
-3.837539e-07
-3.84348316e-07
-3.67926517e-07
-3.64409329e-07
-3.66941086e-07
-3.83778491e-07
-3.842885e-07
-3.67958654e-07
-3.64341509e-07
-3.66769288e-07
-3.83784878e-07
-3.84224784e-07
-3.6801602e-07
-3.64274632e-07
-3.66561536e-07
-3.83799989e-07
-3.8407987e-07
-3.68013062e-07
-3.64534654e-07
-3.66757906e-07
-3.8387105e-07
)
;

boundaryField
{
    closed
    {
        type            calculated;
        value           nonuniform List<scalar> 0();
    }
    open
    {
        type            calculated;
        value           nonuniform List<scalar> 0();
    }
    sides
    {
        type            empty;
    }
    procBoundary1to0
    {
        type            processor;
        value           uniform -3.65529755e-07;
    }
    procBoundary1to2
    {
        type            processor;
        value           uniform -3.8401895e-07;
    }
}


// ************************************************************************* //
