/*--------------------------------*- C++ -*----------------------------------*\
| =========                 |                                                 |
| \\      /  F ield         | OpenFOAM: The Open Source CFD Toolbox           |
|  \\    /   O peration     | Version:  2306                                  |
|   \\  /    A nd           | Website:  www.openfoam.com                      |
|    \\/     M anipulation  |                                                 |
\*---------------------------------------------------------------------------*/
FoamFile
{
    version     2.0;
    format      ascii;
    arch        "LSB;label=32;scalar=64";
    class       volScalarField;
    location    "0.0016";
    object      H2O;
}
// * * * * * * * * * * * * * * * * * * * * * * * * * * * * * * * * * * * * * //

dimensions      [0 0 0 0 0 0 0];

internalField   nonuniform List<scalar> 
530
(
0.124500386
0.124463394
0.12588863
0.125858011
0.124709453
0.12470714
0.126064362
0.125996971
0.124900798
0.124920699
0.126182154
0.126116365
0.125044729
0.125115533
0.126265501
0.126197813
0.125143977
0.125296762
0.126317957
0.1262767
0.125233109
0.125421472
0.126380122
0.126345968
0.12534619
0.125505118
0.126437986
0.126401776
0.125448258
0.125572052
0.126486449
0.126446978
0.125528739
0.125639875
0.126527176
0.126482943
0.125591608
0.125694577
0.12655336
0.126514926
0.12564366
0.125739446
0.126540941
0.126535391
0.125678384
0.125776103
0.126516818
0.126549214
0.125709726
0.125798062
0.126513114
0.126552924
0.125742949
0.125807292
0.126518791
0.126529437
0.125761156
0.125811785
0.126534034
0.126526256
0.125750827
0.125803008
0.126497979
0.126494827
0.125732481
0.125775582
0.12645755
0.126455599
0.125709143
0.125746235
0.126414789
0.126412734
0.12568129
0.125716944
0.126374525
0.12637048
0.125652697
0.12568671
0.126332044
0.12632643
0.1256205
0.125657717
0.126287593
0.126281318
0.125583235
0.125632801
0.126247291
0.126235052
0.12554146
0.125598272
0.12620431
0.126191876
0.12551409
0.125562131
0.126164385
0.126151555
0.125489373
0.125538302
0.126120923
0.12611499
0.125465386
0.125516299
0.126083847
0.126079475
0.125441234
0.125492128
0.126046814
0.126043103
0.125417876
0.125466954
0.12600918
0.126007206
0.125394315
0.125442616
0.125974113
0.125973949
0.125372207
0.125419475
0.12594085
0.125942202
0.125351531
0.125397219
0.125908546
0.125912215
0.125332412
0.125376957
0.125877698
0.12588365
0.125312861
0.12535783
0.125848887
0.125857459
0.125295434
0.125340653
0.125822629
0.125833258
0.125279871
0.125326191
0.125799043
0.125811684
0.125266556
0.125314358
0.125778515
0.125792953
0.125256002
0.125304947
0.125761594
0.125777003
0.125249075
0.125298236
0.125748586
0.125764048
0.125245881
0.12529411
0.125739398
0.1257542
0.125242877
0.125293605
0.125737228
0.125750438
0.125251194
0.125297048
0.125740419
0.125754508
0.125266797
0.125314936
0.12574886
0.125763832
0.125285105
0.125334858
0.125762074
0.125777141
0.125307493
0.125356811
0.125779628
0.125793564
0.12533357
0.125381412
0.12580146
0.125813695
0.125363712
0.125409319
0.125827075
0.125837618
0.125398082
0.125440119
0.12585719
0.125863881
0.125440481
0.125471871
0.125880502
0.125888159
0.125474241
0.125506006
0.125901463
0.125908387
0.125501506
0.125530485
0.125921691
0.125929648
0.125532706
0.125560751
0.12594515
0.125954017
0.125567581
0.125596168
0.125973356
0.125982153
0.125606457
0.125636287
0.126006181
0.126014072
0.125648706
0.125680177
0.126041866
0.12605006
0.125694162
0.125727473
0.126079546
0.126088393
0.125742655
0.125777657
0.126119457
0.126129157
0.125792345
0.125829912
0.126164259
0.126172965
0.125845662
0.125882179
0.126214035
0.126221262
0.125904952
0.125941725
0.126266434
0.126272987
0.125964729
0.126002513
0.126318578
0.126326867
0.126025661
0.126063957
0.126371529
0.126382128
0.126087521
0.126126516
0.126425729
0.126438418
0.126150565
0.126190436
0.126480216
0.126496449
0.126213972
0.126255231
0.1265351
0.126554507
0.126277849
0.126320301
0.126590071
0.12661111
0.126341819
0.126386418
0.126646101
0.126667773
0.126406787
0.126446332
0.126702976
0.126722407
0.126471694
0.126509143
0.126762144
0.126784716
0.126540369
0.126575928
0.12682363
0.126847687
0.126609612
0.126643494
0.126886666
0.126911335
0.126679584
0.126711287
0.126951639
0.126975762
0.126750275
0.126779803
0.127019119
0.127040282
0.126821503
0.126851722
0.127089393
0.127104169
0.126892418
0.126929714
0.12716245
0.127173816
0.126964132
0.12699959
0.12723356
0.12723751
0.127031768
0.127067759
0.127297323
0.127298951
0.127097236
0.127135545
0.127357903
0.12736029
0.127164064
0.12720388
0.127418661
0.127422494
0.127232779
0.127273016
0.127480463
0.127486282
0.127302499
0.127342785
0.127542944
0.127550833
0.127372174
0.127412932
0.127605475
0.127611988
0.127440984
0.127484071
0.127667549
0.127670582
0.127508469
0.127553361
0.127729042
0.127728645
0.127574696
0.127621019
0.127787458
0.12778566
0.127641608
0.127686492
0.127842405
0.127841305
0.127707687
0.127750247
0.12789674
0.127895907
0.127772946
0.127812517
0.127950263
0.12794946
0.127836746
0.127873321
0.12800279
0.128001944
0.127898849
0.127932705
0.128054213
0.128053373
0.127959166
0.127990529
0.128104429
0.128103639
0.128017448
0.128046758
0.12815338
0.12815265
0.128073837
0.128101307
0.128201013
0.1282003
0.128128125
0.128154041
0.128247229
0.128246637
0.128180508
0.128204875
0.128292022
0.128291482
0.128230784
0.128253625
0.128335285
0.128334955
0.128279244
0.128300854
0.128377216
0.128377101
0.128325982
0.128346345
0.128417686
0.128417727
0.128370907
0.128390022
0.128456655
0.12845681
0.128414041
0.128431916
0.128494154
0.12849438
0.128455395
0.128472051
0.128530181
0.128530445
0.128494977
0.128510453
0.128564739
0.128565019
0.128532804
0.128547156
0.128597834
0.128598117
0.128568898
0.12858219
0.12862948
0.12862976
0.128603293
0.128615591
0.128659697
0.12865997
0.128636024
0.128647393
0.128688509
0.128688775
0.128667138
0.128677638
0.128715948
0.128716205
0.12869668
0.128706371
0.128742046
0.128742298
0.128724701
0.128733644
0.128766836
0.128767099
0.128751248
0.128759517
0.128790353
0.128790661
0.128776361
0.128784054
0.128812643
0.128813065
0.128800072
0.128807326
0.128833819
0.128834475
0.128822266
0.128829424
0.128854582
0.128855654
0.128843961
0.128851023
0.128877623
0.128878839
0.128863453
0.128871505
0.128894322
0.128899313
0.128895347
0.128902237
0.128909342
0.128916577
0.12892125
0.128928993
0.128934763
0.128942859
0.128949283
0.128957595
0.128964755
0.128973161
0.128981021
0.128989388
0.128997886
0.12900603
0.1290151
0.129023421
0.129032184
0.129040471
0.129048705
0.129056675
0.129064184
0.129071544
0.129078137
0.129084611
0.129090132
0.129095498
0.129099866
0.129104
0.129107221
0.129110136
0.129112315
0.129114164
0.129115494
0.129116535
0.129117257
0.12911769
0.129117855
0.129117947
0.129117986
0.129118001
0.129118004
0.129118002
0.129118
0.129117998
0.129117997
0.129117996
0.129117996
0.129117996
0.129117996
0.129117996
0.129117996
0.129117996
0.129117996
0.129117996
0.129117996
0.129117996
0.129117996
0.129117996
0.129117996
0.129117996
0.129117996
0.129117996
0.129117996
0.129117996
0.129117996
0.129117996
0.129117996
0.129117996
0.129117996
0.129117996
0.129117996
0.129117996
)
;

boundaryField
{
    closed
    {
        type            calculated;
        value           nonuniform List<scalar> 0();
    }
    open
    {
        type            calculated;
        value           uniform 0.129117996;
    }
    sides
    {
        type            empty;
    }
    procBoundary5to4
    {
        type            processor;
        value           uniform 0.12569811;
    }
}


// ************************************************************************* //
