/*--------------------------------*- C++ -*----------------------------------*\
| =========                 |                                                 |
| \\      /  F ield         | OpenFOAM: The Open Source CFD Toolbox           |
|  \\    /   O peration     | Version:  2306                                  |
|   \\  /    A nd           | Website:  www.openfoam.com                      |
|    \\/     M anipulation  |                                                 |
\*---------------------------------------------------------------------------*/
FoamFile
{
    version     2.0;
    format      ascii;
    arch        "LSB;label=32;scalar=64";
    class       volScalarField;
    location    "0.0016";
    object      prefDPV_H2;
}
// * * * * * * * * * * * * * * * * * * * * * * * * * * * * * * * * * * * * * //

dimensions      [1 -1 -1 0 0 0 0];

internalField   nonuniform List<scalar> 
530
(
-8.60783513e-05
-8.61304309e-05
-8.66643788e-05
-8.66753717e-05
-8.62647458e-05
-8.63084749e-05
-8.68375773e-05
-8.68283011e-05
-8.64312186e-05
-8.64726406e-05
-8.69786081e-05
-8.69693631e-05
-8.65758081e-05
-8.662826e-05
-8.71008094e-05
-8.70867171e-05
-8.66972598e-05
-8.67779615e-05
-8.72066819e-05
-8.72058498e-05
-8.68156345e-05
-8.69077921e-05
-8.73225502e-05
-8.73201302e-05
-8.6948175e-05
-8.70220964e-05
-8.74388504e-05
-8.74293752e-05
-8.7077248e-05
-8.71323236e-05
-8.75507542e-05
-8.75370824e-05
-8.71975299e-05
-8.72471158e-05
-8.7660515e-05
-8.76433204e-05
-8.73114925e-05
-8.73587299e-05
-8.77651262e-05
-8.77503811e-05
-8.74227466e-05
-8.74683488e-05
-8.78531191e-05
-8.78543738e-05
-8.75282562e-05
-8.75761077e-05
-8.79376519e-05
-8.79561684e-05
-8.7634432e-05
-8.76781682e-05
-8.80295461e-05
-8.80537694e-05
-8.774198e-05
-8.77751737e-05
-8.81265029e-05
-8.81379916e-05
-8.78430265e-05
-8.78691741e-05
-8.82284808e-05
-8.82299223e-05
-8.79292503e-05
-8.79567094e-05
-8.83057725e-05
-8.83084111e-05
-8.80121077e-05
-8.80347703e-05
-8.83810329e-05
-8.8383571e-05
-8.80930284e-05
-8.81124709e-05
-8.84550707e-05
-8.84570454e-05
-8.8172361e-05
-8.81909075e-05
-8.85308065e-05
-8.85313456e-05
-8.82513726e-05
-8.82691303e-05
-8.86048581e-05
-8.86047034e-05
-8.83284117e-05
-8.83478986e-05
-8.86769497e-05
-8.86771756e-05
-8.84023413e-05
-8.84289013e-05
-8.87517705e-05
-8.87485674e-05
-8.84746968e-05
-8.85048998e-05
-8.88267044e-05
-8.88228529e-05
-8.85547714e-05
-8.85807397e-05
-8.89034077e-05
-8.88994035e-05
-8.86362166e-05
-8.86628861e-05
-8.89778462e-05
-8.89777872e-05
-8.87181473e-05
-8.8746174e-05
-8.90556608e-05
-8.90566638e-05
-8.87996657e-05
-8.88281792e-05
-8.91331941e-05
-8.91345496e-05
-8.88814248e-05
-8.89091252e-05
-8.92099964e-05
-8.92122077e-05
-8.8962888e-05
-8.89905485e-05
-8.92873227e-05
-8.92905424e-05
-8.90447656e-05
-8.90722343e-05
-8.93651808e-05
-8.93690523e-05
-8.9127096e-05
-8.91538776e-05
-8.94428353e-05
-8.94480003e-05
-8.92095144e-05
-8.9236079e-05
-8.95204119e-05
-8.95268749e-05
-8.92904248e-05
-8.93178708e-05
-8.95983193e-05
-8.96063206e-05
-8.9371746e-05
-8.9399766e-05
-8.96767846e-05
-8.96857881e-05
-8.94532486e-05
-8.94822657e-05
-8.97557963e-05
-8.9765718e-05
-8.95350698e-05
-8.95653615e-05
-8.98353407e-05
-8.98461414e-05
-8.96174178e-05
-8.96488649e-05
-8.99154651e-05
-8.99268347e-05
-8.97007728e-05
-8.97328411e-05
-8.99967043e-05
-9.00081487e-05
-8.97852172e-05
-8.98171632e-05
-9.00792971e-05
-9.00900434e-05
-8.98693301e-05
-8.99026259e-05
-9.01661604e-05
-9.01753529e-05
-8.99585917e-05
-8.99902246e-05
-9.02549577e-05
-9.02647461e-05
-9.0051057e-05
-9.00839405e-05
-9.03456121e-05
-9.03560225e-05
-9.01441744e-05
-9.01776134e-05
-9.04377099e-05
-9.04482085e-05
-9.02386294e-05
-9.02712164e-05
-9.05305451e-05
-9.0540326e-05
-9.03341438e-05
-9.03650135e-05
-9.06242332e-05
-9.06328465e-05
-9.04307138e-05
-9.04591843e-05
-9.07183939e-05
-9.07259827e-05
-9.05271695e-05
-9.05533329e-05
-9.08134692e-05
-9.08185363e-05
-9.06255235e-05
-9.06457761e-05
-9.09007568e-05
-9.09069255e-05
-9.07155464e-05
-9.07358574e-05
-9.0983944e-05
-9.09897832e-05
-9.07988292e-05
-9.08177363e-05
-9.10642176e-05
-9.10705799e-05
-9.08816853e-05
-9.09001524e-05
-9.11440241e-05
-9.11507535e-05
-9.09642888e-05
-9.0982957e-05
-9.12234897e-05
-9.12301308e-05
-9.10467217e-05
-9.10658566e-05
-9.13027691e-05
-9.1309095e-05
-9.11285244e-05
-9.11484682e-05
-9.13810363e-05
-9.13877731e-05
-9.12094303e-05
-9.1230512e-05
-9.14578858e-05
-9.14649411e-05
-9.12894125e-05
-9.13116568e-05
-9.15334579e-05
-9.15409754e-05
-9.1367856e-05
-9.13915656e-05
-9.16098912e-05
-9.16164647e-05
-9.14462568e-05
-9.14694965e-05
-9.16869948e-05
-9.16925027e-05
-9.15255783e-05
-9.15490019e-05
-9.17633063e-05
-9.176819e-05
-9.16029886e-05
-9.16270665e-05
-9.18371246e-05
-9.18428407e-05
-9.16787689e-05
-9.17033361e-05
-9.19090722e-05
-9.19158156e-05
-9.17529261e-05
-9.17780938e-05
-9.1979274e-05
-9.19868219e-05
-9.18256175e-05
-9.18515471e-05
-9.20475411e-05
-9.20566444e-05
-9.18963815e-05
-9.19234291e-05
-9.2114147e-05
-9.21245915e-05
-9.19654433e-05
-9.19932569e-05
-9.21788833e-05
-9.21899979e-05
-9.20324689e-05
-9.20614889e-05
-9.22421897e-05
-9.22536376e-05
-9.20984431e-05
-9.21245525e-05
-9.23042632e-05
-9.23140337e-05
-9.21622282e-05
-9.21877945e-05
-9.23654202e-05
-9.23765771e-05
-9.22267916e-05
-9.22516914e-05
-9.24256662e-05
-9.24375681e-05
-9.22893139e-05
-9.23139311e-05
-9.24848692e-05
-9.24970945e-05
-9.23506664e-05
-9.23742682e-05
-9.2543274e-05
-9.25552903e-05
-9.2411197e-05
-9.24334463e-05
-9.26011952e-05
-9.261189e-05
-9.24709818e-05
-9.24925634e-05
-9.2658694e-05
-9.26664692e-05
-9.25295155e-05
-9.25536352e-05
-9.27155006e-05
-9.27222878e-05
-9.25875237e-05
-9.26091529e-05
-9.27702079e-05
-9.27736176e-05
-9.26409716e-05
-9.26620131e-05
-9.28200522e-05
-9.28224901e-05
-9.26912257e-05
-9.27132373e-05
-9.2867118e-05
-9.28699847e-05
-9.27406555e-05
-9.27635665e-05
-9.29128827e-05
-9.29165398e-05
-9.27899328e-05
-9.28133629e-05
-9.29578607e-05
-9.29626146e-05
-9.2838842e-05
-9.28625954e-05
-9.30019568e-05
-9.30078653e-05
-9.28868447e-05
-9.29110035e-05
-9.30448958e-05
-9.30501974e-05
-9.29334635e-05
-9.29586728e-05
-9.30864947e-05
-9.30902886e-05
-9.29784418e-05
-9.30042888e-05
-9.31268058e-05
-9.31290574e-05
-9.3021824e-05
-9.30480733e-05
-9.31646998e-05
-9.31662768e-05
-9.30644314e-05
-9.30897192e-05
-9.31999006e-05
-9.32018032e-05
-9.31057119e-05
-9.3129596e-05
-9.32339703e-05
-9.32358697e-05
-9.31458205e-05
-9.31679133e-05
-9.32667839e-05
-9.32685398e-05
-9.31844318e-05
-9.32047402e-05
-9.32982718e-05
-9.32998629e-05
-9.32214222e-05
-9.32401487e-05
-9.33284079e-05
-9.33298838e-05
-9.32567664e-05
-9.32741011e-05
-9.33571828e-05
-9.33585995e-05
-9.32903553e-05
-9.33065884e-05
-9.33846075e-05
-9.33859901e-05
-9.33223121e-05
-9.33375711e-05
-9.34107069e-05
-9.34120513e-05
-9.33525642e-05
-9.33670039e-05
-9.34354904e-05
-9.34368274e-05
-9.33812597e-05
-9.33948694e-05
-9.34590093e-05
-9.34602805e-05
-9.34083287e-05
-9.34211046e-05
-9.34812591e-05
-9.34825156e-05
-9.34339846e-05
-9.34460872e-05
-9.35023646e-05
-9.35036137e-05
-9.34583197e-05
-9.34697146e-05
-9.35223004e-05
-9.35235123e-05
-9.34813017e-05
-9.34919843e-05
-9.35410273e-05
-9.35421952e-05
-9.35029752e-05
-9.35129497e-05
-9.3558661e-05
-9.35597739e-05
-9.35233804e-05
-9.3532661e-05
-9.3575236e-05
-9.35762879e-05
-9.35425539e-05
-9.35511666e-05
-9.35907881e-05
-9.35917766e-05
-9.35605373e-05
-9.35685149e-05
-9.36053552e-05
-9.360628e-05
-9.35773749e-05
-9.35847534e-05
-9.36189768e-05
-9.36198384e-05
-9.35931139e-05
-9.35999292e-05
-9.36316932e-05
-9.36324928e-05
-9.36078037e-05
-9.36140898e-05
-9.36435457e-05
-9.36442847e-05
-9.36214945e-05
-9.36272832e-05
-9.36545754e-05
-9.3655256e-05
-9.36342374e-05
-9.36395583e-05
-9.36648235e-05
-9.36654488e-05
-9.36460827e-05
-9.36509649e-05
-9.36743305e-05
-9.36749061e-05
-9.36570794e-05
-9.36615546e-05
-9.36831355e-05
-9.36836725e-05
-9.36672726e-05
-9.36713847e-05
-9.36912794e-05
-9.36918014e-05
-9.36767159e-05
-9.36805295e-05
-9.36988132e-05
-9.36993667e-05
-9.36854383e-05
-9.36891305e-05
-9.37060794e-05
-9.37067295e-05
-9.36943289e-05
-9.36979266e-05
-9.37142696e-05
-9.37148224e-05
-9.37036169e-05
-9.37076007e-05
-9.37198151e-05
-9.3722147e-05
-9.37178901e-05
-9.37209633e-05
-9.37230644e-05
-9.3726074e-05
-9.37267636e-05
-9.37297836e-05
-9.37309989e-05
-9.37339541e-05
-9.37354176e-05
-9.37382581e-05
-9.37399749e-05
-9.37426731e-05
-9.37445846e-05
-9.37471217e-05
-9.37491569e-05
-9.37515096e-05
-9.37535908e-05
-9.3755897e-05
-9.37577476e-05
-9.37599276e-05
-9.37615087e-05
-9.3763471e-05
-9.37647627e-05
-9.37664298e-05
-9.3767425e-05
-9.37687443e-05
-9.37694566e-05
-9.37704102e-05
-9.37708754e-05
-9.37714876e-05
-9.3771758e-05
-9.37720931e-05
-9.37722287e-05
-9.37723759e-05
-9.37724348e-05
-9.37724854e-05
-9.37725124e-05
-9.37724741e-05
-9.37723844e-05
-9.37723181e-05
-9.37722753e-05
-9.37722472e-05
-9.37722321e-05
-9.37722231e-05
-9.37722185e-05
-9.37722165e-05
-9.37722157e-05
-9.37722154e-05
-9.37722153e-05
-9.37722152e-05
-9.37722152e-05
-9.37722152e-05
-9.37722152e-05
-9.37722152e-05
-9.37722152e-05
-9.37722152e-05
-9.37722152e-05
-9.37722152e-05
-9.37722152e-05
-9.37722152e-05
-9.37722152e-05
-9.37722152e-05
-9.37722152e-05
-9.37722152e-05
-9.37722152e-05
-9.37722152e-05
-9.37722152e-05
-9.37722152e-05
-9.37722152e-05
-9.37722152e-05
-9.37722152e-05
-9.37722152e-05
-9.37722152e-05
-9.37722152e-05
)
;

boundaryField
{
    closed
    {
        type            calculated;
        value           nonuniform List<scalar> 0();
    }
    open
    {
        type            calculated;
        value           uniform -9.37722152e-05;
    }
    sides
    {
        type            empty;
    }
    procBoundary5to4
    {
        type            processor;
        value           uniform -8.65084179e-05;
    }
}


// ************************************************************************* //
