/*--------------------------------*- C++ -*----------------------------------*\
| =========                 |                                                 |
| \\      /  F ield         | OpenFOAM: The Open Source CFD Toolbox           |
|  \\    /   O peration     | Version:  2306                                  |
|   \\  /    A nd           | Website:  www.openfoam.com                      |
|    \\/     M anipulation  |                                                 |
\*---------------------------------------------------------------------------*/
FoamFile
{
    version     2.0;
    format      ascii;
    arch        "LSB;label=32;scalar=64";
    class       volScalarField;
    location    "0.0016";
    object      prefDh_T;
}
// * * * * * * * * * * * * * * * * * * * * * * * * * * * * * * * * * * * * * //

dimensions      [1 1 -3 -1 0 0 0];

internalField   nonuniform List<scalar> 
530
(
0.00788999927
0.00756450132
0.00852861991
0.00852642589
0.00789879709
0.00768579335
0.00852618214
0.0085234867
0.00790776455
0.00779441119
0.00852293276
0.0085203202
0.00789923972
0.00789866384
0.0085191873
0.00851679782
0.00787437821
0.00798902065
0.00851497104
0.00851302279
0.0078638878
0.00804077831
0.00851046388
0.00850895966
0.00788651814
0.00806380094
0.00850566847
0.00850453032
0.00791822381
0.00807601945
0.00850057278
0.00849965293
0.00794531414
0.00809063323
0.00849525352
0.00849434967
0.00796536118
0.00810243614
0.00848936551
0.00848880365
0.00798370687
0.00811414197
0.00847937886
0.00848292626
0.00799333841
0.00812511572
0.00846828612
0.00847687336
0.00800584246
0.00812830063
0.00846200505
0.00847051016
0.00802423069
0.00812397483
0.00845831704
0.00846148367
0.00804230791
0.00811790268
0.00845795235
0.00845725635
0.00804976452
0.00811460172
0.00845113659
0.0084508165
0.00805275513
0.00810763266
0.00844426289
0.00844400447
0.00805386338
0.00810172172
0.00843733175
0.00843710136
0.00805397206
0.00809826517
0.00843034555
0.00843011601
0.00805496727
0.00809578213
0.00842333933
0.00842308032
0.00805452259
0.00809502857
0.00841630207
0.00841598591
0.00805114275
0.00809729556
0.00840928391
0.00840891594
0.00804564011
0.00809436359
0.00840213568
0.00840180328
0.00804638919
0.00809088282
0.00839501911
0.00839467905
0.00804701302
0.00809055019
0.00838789354
0.00838761499
0.00804798559
0.00809194055
0.00838084859
0.00838057267
0.00804789638
0.00809196155
0.0083738301
0.00837356204
0.008047927
0.0080909537
0.00836681339
0.00836656668
0.0080475176
0.00809024825
0.00835980568
0.00835957562
0.00804751213
0.00808970653
0.00835285191
0.00835264887
0.00804748816
0.00808888071
0.0083459623
0.0083457798
0.00804735602
0.00808820619
0.0083391515
0.0083389873
0.00804618
0.00808723381
0.00833241842
0.00833227161
0.00804483686
0.00808614648
0.00832577127
0.00832565189
0.00804309452
0.00808526218
0.00831921597
0.0083191274
0.00804102998
0.00808436253
0.00831274235
0.00831266659
0.00803905693
0.0080832218
0.00830632654
0.00830625567
0.00803764699
0.0080818452
0.00830001902
0.00829994439
0.00803678034
0.00808023075
0.00829379794
0.00829374014
0.00803412928
0.00807904567
0.00828760796
0.00828758329
0.00803309055
0.00807772618
0.0082815337
0.00828150738
0.00803306518
0.00807787671
0.0082755741
0.00827554433
0.00803326831
0.00807727678
0.00826973466
0.00826970185
0.0080344969
0.00807615019
0.0082639703
0.00826392499
0.00803647918
0.00807478204
0.00825830749
0.00825826472
0.00803922487
0.00807355856
0.00825278386
0.00825273417
0.00804039101
0.00807205136
0.00824740044
0.00824735038
0.0080432756
0.00806903709
0.00824225189
0.00824216751
0.00804382853
0.00806720144
0.00823728357
0.00823718801
0.00804101113
0.00806256089
0.00823248636
0.00823240081
0.0080381992
0.00805911827
0.00822786948
0.00822779916
0.00803592089
0.00805679395
0.00822341557
0.0082233417
0.0080345205
0.00805551287
0.00821917665
0.00821908293
0.00803370532
0.00805500146
0.00821513958
0.00821502934
0.00803324883
0.00805513449
0.00821129343
0.00821118962
0.00803317488
0.00805567033
0.0082076388
0.00820754
0.00803295765
0.00805620092
0.0082041425
0.00820406575
0.00803310356
0.00805597454
0.00820082139
0.00820075329
0.00803428491
0.00805700538
0.00819767291
0.00819761871
0.0080348713
0.00805811385
0.00819468845
0.00819465284
0.00803537323
0.00805902804
0.008191835
0.00819182445
0.0080358305
0.00806000556
0.00818902577
0.00818901778
0.00803636989
0.0080612179
0.00818632533
0.00818635498
0.00803659878
0.00806247825
0.00818375994
0.00818382665
0.00803664169
0.00806327359
0.0081813318
0.00818141817
0.00803633804
0.00806407118
0.00817905063
0.00817913826
0.00803649148
0.00806163431
0.00817689257
0.00817700669
0.00803645503
0.00806090012
0.00817489684
0.00817504238
0.00803860505
0.00806228872
0.00817306398
0.00817321677
0.00804100569
0.0080641313
0.00817137061
0.00817152423
0.00804402516
0.00806624141
0.00816981521
0.00816995935
0.00804788191
0.00806886427
0.00816839869
0.00816851243
0.00805267945
0.00807032423
0.00816711615
0.00816716577
0.0080579604
0.00807292965
0.0081659631
0.00816593918
0.00806325817
0.00807374156
0.00816487974
0.00816479115
0.00806401642
0.00807420829
0.00816384355
0.00816372824
0.00806416201
0.00807483184
0.00816287712
0.00816276176
0.00806486481
0.00807590784
0.00816201365
0.00816190026
0.00806641054
0.00807761683
0.00816125152
0.00816113992
0.00806865992
0.0080799247
0.00816058229
0.00816047146
0.00807134606
0.00808267035
0.00815999998
0.00815987568
0.00807422368
0.00808601461
0.00815949689
0.00815933739
0.00807710773
0.00808899928
0.00815906391
0.00815887435
0.00807980503
0.00809188887
0.00815868025
0.00815848184
0.00808310695
0.00809461074
0.00815835069
0.00815815734
0.00808654498
0.00809731664
0.008158079
0.00815789735
0.0080901502
0.00810006265
0.00815786638
0.00815769695
0.00809375899
0.00810284711
0.00815771049
0.0081575518
0.00809730967
0.00810567669
0.00815760887
0.00815745923
0.00810078253
0.00810851649
0.00815755806
0.00815741507
0.00810411969
0.00811134456
0.00815755489
0.00815741706
0.00810734877
0.00811412668
0.00815759548
0.00815746126
0.00811043633
0.00811682335
0.00815767495
0.00815754644
0.008113452
0.00811944952
0.0081577893
0.00815766804
0.00811631043
0.00812193589
0.0081579345
0.00815782335
0.00811908062
0.00812440358
0.00815810958
0.0081580082
0.0081217816
0.00812679311
0.00815831052
0.00815821738
0.0081243867
0.00812908516
0.00815852679
0.00815844198
0.00812689754
0.00813128434
0.00815876443
0.00815868695
0.00812931293
0.00813339349
0.00815902077
0.00815894969
0.00813162983
0.00813541484
0.00815929324
0.00815922779
0.00813384697
0.00813735069
0.00815957928
0.00815951894
0.00813596421
0.00813920277
0.00815987648
0.00815982092
0.00813798279
0.00814097244
0.00816018258
0.0081601316
0.00813990511
0.00814266111
0.00816049555
0.00816044893
0.00814173446
0.00814427055
0.0081608135
0.00816077109
0.00814347463
0.0081458031
0.00816113469
0.00816109642
0.00814512952
0.00814726188
0.00816145745
0.00816142355
0.00814670287
0.00814865092
0.00816178024
0.0081617513
0.00814819749
0.00814997644
0.00816210184
0.008162079
0.00814962017
0.00815125082
0.00816242322
0.00816240798
0.00815096399
0.00815251127
0.0081627477
0.00816274279
0.00815258994
0.00815403943
0.00816309761
0.00816310658
0.00815449829
0.00815603508
0.00816066568
0.00816136052
0.00815867348
0.00815961265
0.00815979881
0.0081606141
0.00816017014
0.00816091754
0.00816071095
0.00816138122
0.00816128178
0.0081618786
0.00816188915
0.00816242834
0.00816252528
0.00816303031
0.00816318354
0.00816367987
0.00816385585
0.00816438065
0.00816454847
0.0081650861
0.00816524921
0.00816577606
0.00816593938
0.00816643115
0.00816659662
0.00816703137
0.00816719715
0.00816755831
0.00816771848
0.00816799826
0.00816814362
0.0081683445
0.00816846562
0.00816859904
0.00816869054
0.00816877344
0.00816883531
0.0081688753
0.00816888952
0.00816889872
0.0081689038
0.00816890668
0.00816890798
0.00816890862
0.00816890887
0.00816890895
0.00816890897
0.00816890897
0.00816890897
0.00816890897
0.00816890897
0.00816890897
0.00816890897
0.00816890897
0.00816890897
0.00816890897
0.00816890897
0.00816890897
0.00816890897
0.00816890897
0.00816890897
0.00816890897
0.00816890897
0.00816890897
0.00816890897
0.00816890897
0.00816890897
0.00816890897
0.00816890897
0.00816890897
0.00816890897
0.00816890897
0.00816890897
0.00816890897
)
;

boundaryField
{
    closed
    {
        type            calculated;
        value           nonuniform List<scalar> 0();
    }
    open
    {
        type            calculated;
        value           uniform 0.00816890897;
    }
    sides
    {
        type            empty;
    }
    procBoundary5to4
    {
        type            processor;
        value           uniform 0.00852919726;
    }
}


// ************************************************************************* //
