/*--------------------------------*- C++ -*----------------------------------*\
| =========                 |                                                 |
| \\      /  F ield         | OpenFOAM: The Open Source CFD Toolbox           |
|  \\    /   O peration     | Version:  2306                                  |
|   \\  /    A nd           | Website:  www.openfoam.com                      |
|    \\/     M anipulation  |                                                 |
\*---------------------------------------------------------------------------*/
FoamFile
{
    version     2.0;
    format      ascii;
    arch        "LSB;label=32;scalar=64";
    class       volScalarField;
    location    "0.0016";
    object      prefDPV_H2O;
}
// * * * * * * * * * * * * * * * * * * * * * * * * * * * * * * * * * * * * * //

dimensions      [1 -1 -1 0 0 0 0];

internalField   nonuniform List<scalar> 
530
(
1.01081401e-06
1.0053386e-06
1.03412218e-06
1.03425417e-06
1.01350321e-06
1.0100048e-06
1.03646052e-06
1.03631267e-06
1.01591995e-06
1.01428487e-06
1.03835339e-06
1.03820686e-06
1.01771035e-06
1.01839793e-06
1.03998551e-06
1.03977504e-06
1.01888107e-06
1.02224121e-06
1.04139149e-06
1.04136491e-06
1.02029334e-06
1.02505612e-06
1.04292578e-06
1.04288098e-06
1.02253443e-06
1.02710523e-06
1.04446156e-06
1.04432432e-06
1.02493675e-06
1.02889666e-06
1.04593371e-06
1.0457427e-06
1.02713286e-06
1.03080051e-06
1.04737506e-06
1.04713682e-06
1.02910614e-06
1.0326062e-06
1.04873394e-06
1.04854006e-06
1.03101212e-06
1.03438752e-06
1.04971072e-06
1.04989945e-06
1.0326698e-06
1.03613152e-06
1.05060276e-06
1.0512273e-06
1.03441015e-06
1.03763465e-06
1.05179191e-06
1.05249082e-06
1.03631487e-06
1.03891104e-06
1.05316187e-06
1.05346864e-06
1.03812844e-06
1.04010992e-06
1.05474434e-06
1.05474952e-06
1.03951733e-06
1.04128353e-06
1.05573257e-06
1.05576571e-06
1.0407665e-06
1.04225339e-06
1.05669338e-06
1.05672561e-06
1.04195055e-06
1.04324257e-06
1.05763713e-06
1.05766193e-06
1.04309336e-06
1.04429559e-06
1.05860265e-06
1.05860818e-06
1.04425136e-06
1.04536741e-06
1.05954406e-06
1.05954001e-06
1.04535255e-06
1.04649476e-06
1.06045559e-06
1.06045622e-06
1.04634937e-06
1.04773378e-06
1.06140401e-06
1.06135838e-06
1.04728093e-06
1.04878255e-06
1.06235318e-06
1.06229916e-06
1.04844483e-06
1.04981671e-06
1.06332646e-06
1.06327038e-06
1.04962154e-06
1.05100445e-06
1.0642696e-06
1.06426676e-06
1.05081994e-06
1.05224895e-06
1.06525868e-06
1.06527009e-06
1.05200517e-06
1.05344353e-06
1.06624439e-06
1.06626058e-06
1.05319613e-06
1.05459876e-06
1.0672193e-06
1.06724693e-06
1.05437232e-06
1.05576751e-06
1.06819735e-06
1.06823853e-06
1.05556309e-06
1.05694305e-06
1.06918305e-06
1.0692331e-06
1.05675874e-06
1.05811037e-06
1.07016667e-06
1.07023409e-06
1.05795165e-06
1.05928776e-06
1.07114999e-06
1.0712348e-06
1.05909427e-06
1.06044883e-06
1.07213842e-06
1.07224381e-06
1.06023694e-06
1.06160536e-06
1.07313503e-06
1.07325392e-06
1.06137095e-06
1.06277324e-06
1.07413967e-06
1.07427096e-06
1.06249983e-06
1.06394711e-06
1.07515059e-06
1.07529308e-06
1.06363619e-06
1.06511894e-06
1.07616581e-06
1.07631583e-06
1.06479764e-06
1.06628958e-06
1.07719664e-06
1.07734758e-06
1.06598478e-06
1.06745725e-06
1.07824604e-06
1.07838783e-06
1.06712362e-06
1.06864867e-06
1.0793522e-06
1.07947362e-06
1.06836297e-06
1.06986282e-06
1.08048474e-06
1.08061399e-06
1.0696652e-06
1.07121983e-06
1.08164257e-06
1.08177998e-06
1.07097988e-06
1.07255953e-06
1.08282023e-06
1.08295874e-06
1.07233504e-06
1.07388019e-06
1.08400404e-06
1.08413245e-06
1.07372039e-06
1.07519353e-06
1.08519776e-06
1.08531078e-06
1.07513578e-06
1.07651295e-06
1.08639851e-06
1.08649796e-06
1.07654162e-06
1.07782037e-06
1.08761206e-06
1.08767832e-06
1.07802895e-06
1.07905687e-06
1.08872466e-06
1.08880515e-06
1.07933214e-06
1.08028999e-06
1.08978446e-06
1.08986053e-06
1.08044222e-06
1.08132782e-06
1.09080702e-06
1.09088999e-06
1.0815418e-06
1.08240278e-06
1.0918245e-06
1.09191237e-06
1.08264935e-06
1.08351092e-06
1.092834e-06
1.09292032e-06
1.08377592e-06
1.08464615e-06
1.09384182e-06
1.09392387e-06
1.08490673e-06
1.08579569e-06
1.09483759e-06
1.09492487e-06
1.08603135e-06
1.08695212e-06
1.09581593e-06
1.09590737e-06
1.08715028e-06
1.08810397e-06
1.09677865e-06
1.09687613e-06
1.08824092e-06
1.08923513e-06
1.09775344e-06
1.09783872e-06
1.08933702e-06
1.09031446e-06
1.09873789e-06
1.0988093e-06
1.09046953e-06
1.09144407e-06
1.09971289e-06
1.09977622e-06
1.09155546e-06
1.09255306e-06
1.10065618e-06
1.10073046e-06
1.09261335e-06
1.09362891e-06
1.1015735e-06
1.10166096e-06
1.09364479e-06
1.09468294e-06
1.10246467e-06
1.10256207e-06
1.0946556e-06
1.09572302e-06
1.1033306e-06
1.10344825e-06
1.09562841e-06
1.0967403e-06
1.10417562e-06
1.10431073e-06
1.09657012e-06
1.09771335e-06
1.10499706e-06
1.10514087e-06
1.09747159e-06
1.09866184e-06
1.10580065e-06
1.1059487e-06
1.09836986e-06
1.09944636e-06
1.10658881e-06
1.10671533e-06
1.09923049e-06
1.10028028e-06
1.10736582e-06
1.10751032e-06
1.10016236e-06
1.10118164e-06
1.10813176e-06
1.10828584e-06
1.10106875e-06
1.10206918e-06
1.1088848e-06
1.10904298e-06
1.10197405e-06
1.10293372e-06
1.10962808e-06
1.10978346e-06
1.10289014e-06
1.10379497e-06
1.11036566e-06
1.11050382e-06
1.10382134e-06
1.10466016e-06
1.11109748e-06
1.11119734e-06
1.1047479e-06
1.1056139e-06
1.11181854e-06
1.11190531e-06
1.10568149e-06
1.10641487e-06
1.11251287e-06
1.11255603e-06
1.10645097e-06
1.10716086e-06
1.11314502e-06
1.11317558e-06
1.10714642e-06
1.10788755e-06
1.11374182e-06
1.11377786e-06
1.10784966e-06
1.10861783e-06
1.11432238e-06
1.11436853e-06
1.10858266e-06
1.10936474e-06
1.11489328e-06
1.11495344e-06
1.10933753e-06
1.11012663e-06
1.11545325e-06
1.11552815e-06
1.11009612e-06
1.11089293e-06
1.11599875e-06
1.11606581e-06
1.11084186e-06
1.11167086e-06
1.11652741e-06
1.116575e-06
1.11156364e-06
1.11240361e-06
1.11703986e-06
1.11706759e-06
1.11225391e-06
1.11310567e-06
1.11752158e-06
1.11754065e-06
1.11295613e-06
1.11377011e-06
1.1179691e-06
1.11799234e-06
1.11364422e-06
1.1144085e-06
1.11840239e-06
1.11842565e-06
1.11432198e-06
1.11502621e-06
1.11881987e-06
1.11884136e-06
1.11497842e-06
1.11562426e-06
1.11922065e-06
1.1192401e-06
1.11560942e-06
1.11620404e-06
1.11960439e-06
1.11962241e-06
1.11621392e-06
1.11676373e-06
1.11997097e-06
1.11998827e-06
1.11678822e-06
1.11730234e-06
1.12032051e-06
1.12033741e-06
1.11733522e-06
1.11781798e-06
1.12065333e-06
1.12066976e-06
1.11785244e-06
1.11830851e-06
1.12096953e-06
1.12098588e-06
1.11834414e-06
1.11877353e-06
1.12126974e-06
1.12128529e-06
1.11880723e-06
1.11921019e-06
1.12155389e-06
1.12156931e-06
1.11924748e-06
1.11962903e-06
1.12182359e-06
1.12183896e-06
1.11966701e-06
1.12002624e-06
1.12207845e-06
1.1220933e-06
1.1200643e-06
1.12040106e-06
1.12231713e-06
1.12233147e-06
1.12044007e-06
1.12075449e-06
1.12254203e-06
1.12255572e-06
1.12079489e-06
1.12108737e-06
1.12275359e-06
1.12276653e-06
1.12112917e-06
1.12140051e-06
1.12295224e-06
1.12296441e-06
1.12144347e-06
1.1216947e-06
1.12313845e-06
1.12314984e-06
1.12173845e-06
1.12197071e-06
1.12331273e-06
1.12332334e-06
1.12201483e-06
1.12222927e-06
1.12347556e-06
1.12348541e-06
1.12227342e-06
1.12247111e-06
1.12362747e-06
1.12363657e-06
1.12251508e-06
1.12269701e-06
1.12376896e-06
1.12377735e-06
1.12274068e-06
1.12290774e-06
1.12390056e-06
1.12390827e-06
1.12295109e-06
1.12310413e-06
1.12402277e-06
1.12402987e-06
1.12314717e-06
1.12328706e-06
1.12413607e-06
1.12414272e-06
1.12332966e-06
1.12345758e-06
1.12424099e-06
1.12424748e-06
1.12349964e-06
1.12361727e-06
1.12433818e-06
1.1243451e-06
1.12365746e-06
1.12376978e-06
1.12443198e-06
1.12444019e-06
1.12383079e-06
1.12393762e-06
1.12453762e-06
1.12454467e-06
1.124026e-06
1.12414099e-06
1.12449309e-06
1.12455119e-06
1.12437608e-06
1.12445314e-06
1.12448244e-06
1.12455265e-06
1.12453686e-06
1.12460351e-06
1.12460431e-06
1.12466608e-06
1.12467429e-06
1.12473077e-06
1.12474646e-06
1.12479811e-06
1.12481941e-06
1.12486714e-06
1.12489175e-06
1.1249366e-06
1.12496198e-06
1.12500704e-06
1.12502897e-06
1.12507266e-06
1.12509104e-06
1.12513138e-06
1.12514642e-06
1.12518165e-06
1.12519363e-06
1.12522242e-06
1.12523173e-06
1.12525344e-06
1.12526052e-06
1.1252754e-06
1.12528065e-06
1.12528979e-06
1.12529359e-06
1.12529862e-06
1.12530132e-06
1.12530398e-06
1.12530589e-06
1.12530631e-06
1.12530525e-06
1.12530447e-06
1.12530395e-06
1.12530361e-06
1.12530343e-06
1.12530332e-06
1.12530326e-06
1.12530324e-06
1.12530323e-06
1.12530322e-06
1.12530322e-06
1.12530322e-06
1.12530322e-06
1.12530322e-06
1.12530322e-06
1.12530322e-06
1.12530322e-06
1.12530322e-06
1.12530322e-06
1.12530322e-06
1.12530322e-06
1.12530322e-06
1.12530322e-06
1.12530322e-06
1.12530322e-06
1.12530322e-06
1.12530322e-06
1.12530322e-06
1.12530322e-06
1.12530322e-06
1.12530322e-06
1.12530322e-06
1.12530322e-06
1.12530322e-06
1.12530322e-06
1.12530322e-06
)
;

boundaryField
{
    closed
    {
        type            calculated;
        value           nonuniform List<scalar> 0();
    }
    open
    {
        type            calculated;
        value           uniform 1.12530322e-06;
    }
    sides
    {
        type            empty;
    }
    procBoundary5to4
    {
        type            processor;
        value           uniform 1.03200211e-06;
    }
}


// ************************************************************************* //
