/*--------------------------------*- C++ -*----------------------------------*\
| =========                 |                                                 |
| \\      /  F ield         | OpenFOAM: The Open Source CFD Toolbox           |
|  \\    /   O peration     | Version:  2306                                  |
|   \\  /    A nd           | Website:  www.openfoam.com                      |
|    \\/     M anipulation  |                                                 |
\*---------------------------------------------------------------------------*/
FoamFile
{
    version     2.0;
    format      ascii;
    arch        "LSB;label=32;scalar=64";
    class       volScalarField;
    location    "0.00188";
    object      prefDZ_H;
}
// * * * * * * * * * * * * * * * * * * * * * * * * * * * * * * * * * * * * * //

dimensions      [1 -1 -1 0 0 0 0];

internalField   nonuniform List<scalar> 
531
(
0.000107783041
0.00010606053
0.000106465039
0.000104930317
0.000105002398
0.000109973412
0.000110288639
0.00011019646
0.000110309803
0.000110303259
0.000107221261
0.000106141305
0.000109904024
0.000110239236
0.000107431318
0.00010486243
0.000105408625
0.000109988706
0.000110296647
0.00011019815
0.000110302433
0.000110285685
0.000107826906
0.000106667749
0.000106290266
0.000106302799
0.000109968355
0.000110270019
0.000106636777
0.000106246003
0.000109950378
0.000110272537
0.000106352948
0.000106307203
0.000110027795
0.000110274681
0.000110270328
0.000107148417
0.00010620687
0.000110033043
0.000110250862
0.000110314851
0.000110307449
0.000107782126
0.000106624698
0.000106579203
0.000106055229
0.000104830657
0.000105061871
0.000110110897
0.000110298464
0.000110237151
0.000110312804
0.000110337513
0.000107636125
0.000106177208
0.000106513097
0.000110135296
0.000110352972
0.000107603542
0.000107151489
0.000110124882
0.000110305511
0.000107851032
0.000107085538
0.000106659213
0.000106795245
0.000110214581
0.000110291133
0.000110304394
0.000107837044
0.000106001796
0.000106578984
0.000105082849
0.000105314689
0.000110180337
0.000110290094
0.000110258138
0.000110310169
0.0001067953
0.000106823666
0.00011025286
0.000110270907
0.000110291189
0.00010788147
0.000106041218
0.000106336061
0.000110220307
0.000110272152
0.00010731038
0.000105648474
0.000106019762
0.00011021567
0.000110260275
0.000106413516
0.000106123568
0.000110322742
0.000110198739
0.000110354812
0.00011020781
0.000107831265
0.000105489161
0.000107060406
0.000110220369
0.000107507214
0.000105189928
0.000110324267
0.000110161002
0.000106790508
0.000104728038
0.000105258188
0.000110211739
0.000110236376
0.00011024493
0.00011022848
0.000107208339
0.000105955571
0.000110320251
0.00011016362
0.000107041014
0.000105270455
0.000105777271
0.000110196881
0.000110281393
0.000105968629
0.000106214772
0.000110290958
0.000110288757
0.00011025236
0.000110302108
0.000110190803
0.000107862721
0.000106833367
0.000106741986
0.000106470213
0.000110391087
0.000110142022
0.000107448853
0.000105278288
0.000106955802
0.000110155336
0.000107366652
0.000105115734
0.000110336538
0.00011004041
0.000106495723
0.000104001229
0.000104856208
0.000110189996
0.000110246182
0.000110159963
0.000110233379
0.000110155277
0.000110166199
0.000106710184
0.000106913957
0.000110273501
0.000110243725
0.000110196008
0.000107599709
0.000105980121
0.000105938827
0.000105991407
0.000110324692
0.000110144393
0.000106106577
0.000105872835
0.000110329034
0.000110119878
0.000106724417
0.00010487512
0.000105777724
0.000110273274
0.000110284733
0.000110210491
0.000110294248
0.000110160322
0.000107839603
0.000106979663
0.000106690977
0.000106631974
0.000110366457
0.000110217145
0.000106834375
0.000105173834
0.000105623296
0.000110304689
0.000110298968
0.000110296516
0.000110294947
0.000107547076
0.000106825648
0.000110365228
0.000110263962
0.000107516825
0.000106670823
0.000106110653
0.000106311591
0.000110347824
0.000110271432
0.000110308936
0.000110274318
0.000107949782
0.000107059069
0.000106620188
0.000106706602
0.000110323512
0.000110307324
0.000107424551
0.000106563168
0.000106112625
0.000106199302
0.00011031537
0.00011029139
0.000106390972
0.000106360227
0.000110311107
0.000110301673
0.000106411082
0.00010664045
0.00011033856
0.000110320885
0.000110299722
0.000107501513
0.000106517541
0.000110399053
0.000110284846
0.000107722178
0.000106240956
0.000106396229
0.000110280082
0.000110349329
0.000107539355
0.000107042723
0.000110344355
0.000110287588
0.000107837342
0.000107115587
0.000106556187
0.00010673521
0.000110343757
0.000107632664
0.000105904872
0.000110275982
0.000110272966
0.000106741466
0.000106345373
0.000110276081
0.000110276479
0.000106347111
0.000106430034
0.000110295072
0.000110282063
0.000110272371
0.000107553955
0.000106150632
0.000110298013
0.000110274328
0.000106667855
0.00010670978
0.000110278057
0.000110288941
0.000110258609
0.000107864311
0.000106050872
0.000105635721
0.000105651637
0.000110173802
0.000110210535
0.000110195172
0.000106948821
0.000105668284
0.00010995514
0.000110193862
0.000109848352
0.000110216399
0.00010989487
0.000107119683
0.000105941771
0.000106104522
0.000106012668
0.000104818125
0.00010485287
0.00011009808
0.000110226289
0.00011016579
0.00011028207
0.000110237303
0.000107819233
0.000106755903
0.00011024272
0.000110203742
0.000107824505
0.000106251985
0.000106533446
0.000110258256
0.000110322242
0.000110239603
0.000107804836
0.00010682454
0.000106632654
0.000106120056
0.000104735337
0.000104883673
0.000110158284
0.000110279577
0.000110174896
0.000110333359
0.000110243468
0.000107529045
0.000105683427
0.000105842052
0.000110186061
0.000110340646
0.000106900033
0.000106688351
0.000110254109
0.000110382157
0.000110292224
0.000107674827
0.000106461356
0.000110369497
0.000110349116
0.000107735796
0.00010591287
0.000106198779
0.00011039494
0.000110520744
0.00011046524
0.000107615495
0.000106235219
0.000106291144
0.000110516778
0.000110628026
0.000107546687
0.000105945985
0.000106007997
0.00011067929
0.000110845355
0.000107220533
0.000106223965
0.000110845046
0.000111036717
0.000107276056
0.000105587054
0.000105589971
0.00011126047
0.000111370827
0.000106565013
0.000105444201
0.000111242655
0.000111320237
0.000106532176
0.00010411516
0.000104248897
0.000110701046
0.000110890955
0.000110714327
0.000110689595
0.000110608361
0.000110455838
0.000110476734
0.000110285858
0.000110386722
0.000110292046
0.000110411253
0.000110430342
0.000110533889
0.000110617873
0.000110714756
0.000110830144
0.000110945558
0.000111106638
0.000111278162
0.000111550485
0.000111866977
0.000112498273
0.000113410684
0.000113165315
0.000112672701
0.000112163816
0.000111714307
0.000111334757
0.000110972955
0.000110715408
0.000110479402
0.000110348957
0.000110032917
0.000109767665
0.000109680451
0.000109751957
0.000109439719
0.000109198153
0.000109068013
0.000108928831
0.000108971078
0.000108943884
0.000108858033
0.000108201357
0.000107863967
0.000107210135
0.000106863957
0.000107202452
0.000114509596
0.000113608864
0.000112894279
0.000111730082
0.000110934841
0.000109813729
0.00010892741
0.000107836531
0.000106848317
0.000105776424
0.000104880698
0.000105086327
0.000108140757
0.000106977313
0.000105807147
0.000105918805
0.000111557889
0.000119878268
0.000119903965
0.000123804626
0.000126835341
0.000149749904
0.000152570004
0.000157740271
0.000161660649
0.000167566076
0.000174212949
0.000182785926
0.000193365741
0.000204812613
0.000222979577
0.000231138135
0.000239236347
0.000247966631
0.000256552845
0.000263580211
0.000269512718
0.000274684183
0.00028009747
0.000284709897
0.000289867364
0.000294608581
0.000299060903
0.000303441771
0.000306757938
0.000309611831
0.000312647875
0.000315126627
0.000317890509
0.000320151356
0.000322693934
0.000324767285
0.000327041961
0.000328821714
0.000330831854
0.00033243887
0.000334228253
0.000335707087
0.000337410254
0.000338771858
0.000340424483
0.000341728602
0.000343455444
0.00034483786
0.00034649915
0.000347330594
0.000348430576
0.000349163634
0.000350153271
0.000350818123
0.000351701515
0.00035228839
0.000353161316
0.000353842256
0.000354789894
0.000355475087
0.000356375268
0.000357040216
0.000357878741
0.000358474047
0.000359219365
0.000359756835
0.000360435453
0.000360935034
0.000361568811
0.000362046219
0.000362646761
0.000363082627
0.000363614472
0.00036402347
0.000364527448
0.000364920357
0.000365477769
0.000365969681
0.000366518939
0.000366965598
0.000367461823
0.000367871767
0.000368324659
0.000368668713
0.000369049496
0.000369377112
0.00036973783
0.000370051765
0.000370394458
0.000370696079
0.000371024194
0.000371317923
0.000371634906
0.000371922179
0.000372229001
0.000372510409
0.000372808045
0.000373084187
0.000373373589
0.000373628146
0.000373880373
0.000374118026
0.000374361308
0.00037460881
0.000374854699
0.000375093599
0.000375328958
0.00037555899
0.000375784627
0.000376006447
0.000376223127
0.000376437324
)
;

boundaryField
{
    closed
    {
        type            calculated;
        value           nonuniform List<scalar> 0();
    }
    open
    {
        type            calculated;
        value           nonuniform List<scalar> 0();
    }
    sides
    {
        type            empty;
    }
    procBoundary4to3
    {
        type            processor;
        value           uniform 0.000110352649;
    }
    procBoundary4to5
    {
        type            processor;
        value           uniform 0.000376634563;
    }
}


// ************************************************************************* //
