/*--------------------------------*- C++ -*----------------------------------*\
| =========                 |                                                 |
| \\      /  F ield         | OpenFOAM: The Open Source CFD Toolbox           |
|  \\    /   O peration     | Version:  2306                                  |
|   \\  /    A nd           | Website:  www.openfoam.com                      |
|    \\/     M anipulation  |                                                 |
\*---------------------------------------------------------------------------*/
FoamFile
{
    version     2.0;
    format      ascii;
    arch        "LSB;label=32;scalar=64";
    class       volScalarField;
    location    "0.00188";
    object      PV;
}
// * * * * * * * * * * * * * * * * * * * * * * * * * * * * * * * * * * * * * //

dimensions      [0 0 0 0 0 0 0];

internalField   nonuniform List<scalar> 
531
(
-0.00706529537
-0.00713282801
-0.00711950996
-0.00715925482
-0.00715477102
-0.00689732617
-0.00688777032
-0.00689099861
-0.00688780817
-0.00688772146
-0.00710407158
-0.00713285885
-0.00690071151
-0.00689073617
-0.00709713572
-0.00716388114
-0.00714704041
-0.00689915242
-0.00688913816
-0.00689257452
-0.00688930577
-0.00688930023
-0.0070843475
-0.00712172304
-0.00712973554
-0.0071288478
-0.00689965681
-0.00688906892
-0.00711981668
-0.00713041929
-0.00690012605
-0.00688987191
-0.00712599887
-0.00713012427
-0.00689757581
-0.00689117683
-0.00688979942
-0.0071071205
-0.00713153694
-0.00689836248
-0.00689095771
-0.00688894284
-0.00688834094
-0.00705830641
-0.00712093969
-0.007120381
-0.00713242092
-0.007161055
-0.00715446644
-0.00689413633
-0.00688789613
-0.00689073751
-0.00688754796
-0.00688758735
-0.00709258484
-0.0071341845
-0.00712014054
-0.0068938348
-0.00688523383
-0.00709635276
-0.00710641071
-0.00689328329
-0.00688666243
-0.00708289366
-0.00710874867
-0.00711825329
-0.00711476589
-0.00688948513
-0.00688650707
-0.00688647952
-0.00707421062
-0.007135152
-0.00711752467
-0.00715543099
-0.00714695326
-0.00689052403
-0.00688700462
-0.00688876853
-0.00688655212
-0.0071151977
-0.00711542528
-0.00688882235
-0.00688841249
-0.00688762251
-0.00708633921
-0.00713454035
-0.00712515366
-0.00688880871
-0.00688784032
-0.00710153532
-0.00714382969
-0.00713147528
-0.00688956308
-0.00688715141
-0.00712318683
-0.00713192397
-0.00688557072
-0.00689064062
-0.0068846638
-0.00689006979
-0.00708085723
-0.00714813782
-0.00710567701
-0.00688819029
-0.00709527868
-0.00715359449
-0.00688394381
-0.00689090309
-0.00711168781
-0.00716512675
-0.00714783117
-0.006889343
-0.00688823456
-0.00688872839
-0.00688874943
-0.00710522177
-0.00713709726
-0.00688499006
-0.00689166867
-0.0071062645
-0.00715420187
-0.00713538636
-0.00689039878
-0.00688652039
-0.00713567015
-0.00712811991
-0.00688718203
-0.00688821839
-0.00688891888
-0.006887674
-0.00689059358
-0.00708593637
-0.00711772587
-0.00711410644
-0.0071246155
-0.00688251937
-0.00689124397
-0.0070956566
-0.00715347523
-0.00710696906
-0.00689006072
-0.00709910388
-0.00715658804
-0.0068837421
-0.00689545338
-0.00711978103
-0.00718340717
-0.00715751392
-0.00689136278
-0.0068896132
-0.00689343528
-0.00689089923
-0.00689404726
-0.00689313824
-0.00712165356
-0.00711467322
-0.00688899181
-0.00689078104
-0.00689107637
-0.00709873701
-0.00713692383
-0.00713589257
-0.00713474922
-0.00688628179
-0.0068920132
-0.00713095918
-0.00713926099
-0.0068854342
-0.00689413411
-0.00711604154
-0.00716389297
-0.00713741013
-0.00688934579
-0.00688883155
-0.006891909
-0.00688889788
-0.00689336803
-0.00707210272
-0.00711499157
-0.00711792864
-0.00712087762
-0.00688507162
-0.00689125257
-0.00711279608
-0.00715566186
-0.00714018263
-0.00688840637
-0.00688800313
-0.00688907696
-0.0068880845
-0.00709882684
-0.00711534716
-0.00688577434
-0.00688866586
-0.00709792188
-0.00711947452
-0.00713109801
-0.00712586504
-0.00688556729
-0.00688809256
-0.0068871453
-0.0068875411
-0.00700863741
-0.00710733014
-0.0071196534
-0.00711412997
-0.00688520814
-0.00688487749
-0.00709935036
-0.00711862113
-0.00713024862
-0.00712583892
-0.00688492455
-0.00688527928
-0.0071230781
-0.00712341905
-0.00688534407
-0.00688613691
-0.00712268008
-0.00711781465
-0.00688489653
-0.00688684062
-0.00688661158
-0.00709657902
-0.00712226853
-0.0068830906
-0.00688787281
-0.00708867221
-0.00713036826
-0.00712041206
-0.00688764984
-0.00688440609
-0.00709699603
-0.00710828272
-0.00688471404
-0.00688676015
-0.00708147535
-0.00710849117
-0.00711856686
-0.00711679968
-0.00688370696
-0.00709572545
-0.00713447704
-0.00688740259
-0.00688725844
-0.00711683709
-0.00712602186
-0.00688787922
-0.00688851049
-0.00712631206
-0.00712550321
-0.00688771459
-0.00689006281
-0.00688893486
-0.00709915571
-0.00713215406
-0.00688891907
-0.00688947074
-0.00712019069
-0.00711940292
-0.00688903319
-0.00688966819
-0.00688966724
-0.00708469558
-0.00713530952
-0.00714412885
-0.00714378488
-0.00689201861
-0.00689184713
-0.00689157991
-0.00711581123
-0.00714455618
-0.00689965938
-0.00689244617
-0.00690346666
-0.00689131796
-0.00690095188
-0.00710752772
-0.0071430452
-0.00713225168
-0.00713679433
-0.00716265276
-0.00716096899
-0.00689380631
-0.00689054084
-0.00689258888
-0.00688922668
-0.00689033405
-0.00709220537
-0.00711840202
-0.00688946374
-0.00689145974
-0.00707142297
-0.00713159264
-0.00711966476
-0.00688851983
-0.00688632519
-0.0068886022
-0.00706455182
-0.00711404496
-0.00711756067
-0.00712924822
-0.00716287827
-0.00715657194
-0.00689099348
-0.00688728187
-0.0068916702
-0.00688585215
-0.00688987201
-0.00709417086
-0.00714430369
-0.00713397398
-0.00689164331
-0.00688582573
-0.00711513997
-0.00711596035
-0.00688923223
-0.00688591425
-0.00688834443
-0.00709267162
-0.00712242098
-0.00688509702
-0.00688688985
-0.00707803548
-0.00713573579
-0.00712283755
-0.00688482492
-0.0068797396
-0.00688237728
-0.00706812903
-0.00712338104
-0.00711639516
-0.0068790876
-0.00687580604
-0.00706312382
-0.00712456485
-0.00711766584
-0.00687354815
-0.00686763091
-0.00708635482
-0.0071074863
-0.00686677568
-0.00686218611
-0.00704082929
-0.00711726553
-0.00711338572
-0.00685451189
-0.00685007431
-0.00707936309
-0.00710693784
-0.0068481333
-0.00684555287
-0.00705099285
-0.00713052066
-0.00712062008
-0.0068468598
-0.00683934555
-0.00684000102
-0.00683578332
-0.00683311305
-0.00683076113
-0.00682533592
-0.00682335446
-0.00681564448
-0.0068121874
-0.00680296015
-0.00679714182
-0.00678696683
-0.00677852902
-0.00676717329
-0.00675659807
-0.00674343154
-0.00673002967
-0.00671415981
-0.00669655389
-0.00667542601
-0.00664704097
-0.00661022784
-0.00658398055
-0.00656479567
-0.00654391096
-0.00652132832
-0.00650007476
-0.00647455885
-0.00645194545
-0.00642397138
-0.00639880023
-0.00636747308
-0.00633134483
-0.0062835492
-0.00621220979
-0.00615895606
-0.00610786723
-0.00605577159
-0.00599958744
-0.00594837888
-0.00588675833
-0.00584097511
-0.00578996437
-0.00574784515
-0.00568850011
-0.00563803471
-0.00553633218
-0.00526578118
-0.00518828758
-0.00512489873
-0.0050427813
-0.00496419682
-0.0048689115
-0.0047709927
-0.00465501936
-0.00453643137
-0.00440043714
-0.00424746458
-0.00404428865
-0.00376104684
-0.00357372945
-0.00332146149
-0.00295756217
-0.00275920329
-0.00240940709
-0.00207175133
-0.00167717274
-0.00136686492
-0.00134717111
-0.00108504997
-0.000760313725
-0.000445909062
-0.000100932944
0.000244962222
0.000577939991
0.000911783555
0.00119981614
0.00138328991
0.00168099537
0.0019698132
0.0022283358
0.00245894677
0.0027206357
0.00298362233
0.00325170263
0.00350328297
0.00374968973
0.00397416611
0.00416896722
0.00437821568
0.00454334431
0.00475311604
0.00493749981
0.00512312331
0.00528664249
0.00545027885
0.00559020843
0.00573280931
0.00585214514
0.00597624681
0.00607874208
0.00618157017
0.00626625247
0.0063491675
0.00641594141
0.00648520644
0.00653714095
0.00659417348
0.00663442283
0.00667893563
0.00670797712
0.006745848
0.00677784272
0.00681801117
0.00684593832
0.00688213478
0.00690701234
0.00693948139
0.00696189089
0.006990345
0.00700935537
0.00703354338
0.00704979454
0.00707140306
0.0070861242
0.00710604206
0.00711985707
0.00713876993
0.00715190833
0.00716969044
0.00718207165
0.00719871388
0.0072103642
0.00722597766
0.0072370435
0.00725183637
0.00726236751
0.00727633211
0.00728636448
0.0072987386
0.0073071199
0.00731856213
0.00732680589
0.00733787409
0.00734598057
0.00735668247
0.00736474009
0.00737513797
0.00738296449
0.00739292795
0.0074005344
0.00741009211
0.0074174929
0.00742642119
0.00743334648
0.00744184124
0.00744852886
0.00745663667
0.00746309726
0.00747084165
0.00747708598
0.00748448995
0.00749055054
0.00749767831
0.00750356533
0.00751040653
0.0075159235
0.00752235837
0.00752772882
0.00753393586
0.00753917817
0.00754517261
0.00755029375
0.00755609003
0.007561097
)
;

boundaryField
{
    closed
    {
        type            zeroGradient;
    }
    open
    {
        type            zeroGradient;
    }
    sides
    {
        type            empty;
    }
    procBoundary4to3
    {
        type            processor;
        value           uniform -0.00688444003;
    }
    procBoundary4to5
    {
        type            processor;
        value           uniform 0.00756671079;
    }
}


// ************************************************************************* //
