/*--------------------------------*- C++ -*----------------------------------*\
| =========                 |                                                 |
| \\      /  F ield         | OpenFOAM: The Open Source CFD Toolbox           |
|  \\    /   O peration     | Version:  2306                                  |
|   \\  /    A nd           | Website:  www.openfoam.com                      |
|    \\/     M anipulation  |                                                 |
\*---------------------------------------------------------------------------*/
FoamFile
{
    version     2.0;
    format      ascii;
    arch        "LSB;label=32;scalar=64";
    class       volScalarField;
    location    "0.0019";
    object      H2;
}
// * * * * * * * * * * * * * * * * * * * * * * * * * * * * * * * * * * * * * //

dimensions      [0 0 0 0 0 0 0];

internalField   nonuniform List<scalar> 
531
(
0.0106513762
0.0106689524
0.0110155209
0.0110219493
0.0107747058
0.0106510297
0.0106680284
0.0110157965
0.0110227071
0.0107563347
0.0106483509
0.0106661726
0.0110160843
0.0110248704
0.0107489941
0.010645783
0.0106588712
0.0110254266
0.011023973
0.0106824546
0.0106759901
0.011016767
0.011015985
0.0106841173
0.010680782
0.0110112745
0.0110207021
0.0107574923
0.0106471404
0.0106625754
0.011037936
0.0110068768
0.0110323977
0.0108077369
0.0106762358
0.010669598
0.0106641982
0.0106335229
0.0106474944
0.0110363853
0.0110181514
0.0110311785
0.0110176468
0.0110139406
0.0110204692
0.0106935891
0.010651838
0.0110110087
0.0110252731
0.0107084668
0.0106280641
0.0106386243
0.0110360747
0.0110103816
0.0110315088
0.0107082803
0.0106716124
0.0110236822
0.0110105463
0.0106838418
0.0106782769
0.0110465949
0.0109999099
0.0110308013
0.0107541116
0.010672283
0.0106656365
0.01066588
0.0106333333
0.010633447
0.0108488238
0.0110238906
0.0110040586
0.0110125735
0.0107342672
0.0106804775
0.0110301881
0.0110117509
0.0108763509
0.0106640683
0.010666755
0.0110356952
0.0110178095
0.0107755447
0.0106531277
0.0106549696
0.0110329788
0.0110211508
0.0107664099
0.0106408172
0.0106445966
0.0110465576
0.0110093348
0.0110174356
0.0107286199
0.0106793528
0.0110370417
0.0110031305
0.0107750443
0.0106891182
0.0106582939
0.0106533881
0.0110494235
0.0110140274
0.0106994214
0.0106702329
0.0110488414
0.0110171203
0.0107753168
0.0106563631
0.0106542757
0.0110480743
0.0110217494
0.0107737965
0.0106522302
0.0106489174
0.0110553533
0.0110225322
0.0107526676
0.0106452084
0.0106433472
0.0108185725
0.0110322712
0.0110275195
0.0110217165
0.0110302544
0.0106767441
0.010648792
0.0109902416
0.0110221798
0.0107121258
0.0106723648
0.0110699737
0.011018234
0.0107912281
0.0106611828
0.0106569147
0.0110719723
0.0110206142
0.0107913555
0.0106584501
0.010654829
0.0110747061
0.011022033
0.0107927439
0.0106538026
0.0106495433
0.0110511805
0.0110113132
0.011022249
0.010818212
0.0106662221
0.0106581622
0.0110601124
0.0110135403
0.010722767
0.0106759709
0.0110741757
0.0110148926
0.0108128468
0.0106677005
0.0106646064
0.0110845816
0.0110180966
0.0108293807
0.010667673
0.0106626266
0.0110571131
0.0110115278
0.0107271198
0.010682469
0.0110694919
0.0110043612
0.0107903488
0.0106939095
0.0106661879
0.0106599408
0.0110818055
0.0110221759
0.0107562804
0.0106435831
0.0106408084
0.0109845589
0.0110155498
0.0110158586
0.0107067481
0.0106801506
0.0110675513
0.0107439213
0.0106362796
0.0109521051
0.0110271537
0.0110240287
0.0110147284
0.0107210207
0.0106844482
0.0110766258
0.0107416427
0.0106549092
0.0110462537
0.0110117711
0.0110188974
0.0107596755
0.010651554
0.0106464746
0.0110099113
0.011027174
0.0107556933
0.0106397939
0.0106363116
0.0110347954
0.0110156652
0.0110159074
0.010711256
0.0106867735
0.0110773876
0.0107405597
0.0106590621
0.0110550566
0.011011462
0.0110193681
0.0107584783
0.0106554626
0.0106498193
0.0110361837
0.0110264098
0.010748071
0.0106457145
0.010641671
0.0110277611
0.0110332991
0.0107300968
0.0106147504
0.0106119049
0.0109105383
0.0110327546
0.0110341104
0.0110206782
0.0110231661
0.0110081241
0.0110093139
0.0107697241
0.0106804478
0.0106493174
0.0106454619
0.0110692712
0.0110198521
0.0106838625
0.0106591476
0.0110393701
0.0110107143
0.0110259641
0.0108297037
0.0106458386
0.0106440836
0.0110646491
0.010721068
0.0106465678
0.0110836161
0.0110197019
0.0106916592
0.0106689344
0.0110739539
0.0110066412
0.0110235175
0.0107951164
0.0106541608
0.0106484083
0.0110764345
0.0110081754
0.011014261
0.0107731016
0.0106688799
0.0106653063
0.0106312867
0.0106271847
0.0109951941
0.0110217154
0.0110352398
0.0110101332
0.0110113243
0.0107226041
0.0106771645
0.0110611903
0.0110085736
0.010746258
0.0106816379
0.010660255
0.0106565873
0.0110715135
0.0110155064
0.0106998104
0.0106650928
0.0110676718
0.0110181991
0.0107376049
0.0106559985
0.0106496358
0.0110693826
0.011015996
0.0107077194
0.0106648088
0.0110657435
0.0110190514
0.0107343214
0.0106504208
0.0106437246
0.011073867
0.0110152467
0.0106899556
0.0106648163
0.0110804611
0.011006647
0.0110141009
0.0106962143
0.0106690699
0.0110720341
0.0110032064
0.0110120801
0.0107337303
0.0106509007
0.0106439299
0.0110722031
0.0110140098
0.0107000504
0.0106642863
0.0110677261
0.0110097018
0.0107015898
0.010671774
0.011062501
0.0110088034
0.0107284506
0.0106762466
0.0106570924
0.0106523411
0.0110741642
0.0110153209
0.0106874241
0.0106596934
0.0110752488
0.0110136354
0.0106837096
0.0106619385
0.0110799173
0.0110125722
0.0110258696
0.01100891
0.0107920704
0.0106826972
0.0106655416
0.0106622068
0.0110638939
0.0110197572
0.010707503
0.0106422914
0.0106364944
0.0110684324
0.0110177187
0.0106856509
0.010654485
0.0110700369
0.0110133918
0.0106753706
0.0106609982
0.0110726871
0.0110062285
0.0110158577
0.0106955671
0.010660502
0.0110556599
0.0110141027
0.0106934303
0.0106649203
0.011051682
0.0110166318
0.010720072
0.0106536965
0.0106485229
0.011054382
0.0110138499
0.0106969507
0.0106639868
0.0110483356
0.0110152141
0.0107236061
0.0106554683
0.0106515073
0.0110495523
0.011013783
0.010695572
0.010664742
0.0110443009
0.0110161747
0.0107202495
0.0106536659
0.0106479816
0.011049216
0.0110114082
0.0106904494
0.0106647632
0.0110485149
0.0110082593
0.0106871944
0.0106684566
0.0110455313
0.0110091514
0.0106892746
0.0106668467
0.011040164
0.0110146674
0.0107152632
0.0106517473
0.0106464668
0.0110464475
0.0110106801
0.010685102
0.0106627089
0.0110481311
0.0110066259
0.0106768455
0.0106690634
0.0110495193
0.0110006309
0.0110093965
0.0107001787
0.0106681227
0.0110342628
0.0110120092
0.0107355556
0.0106606059
0.0106556999
0.0110388047
0.0110056961
0.0106999806
0.0106796616
0.0110348478
0.0110005008
0.0107718204
0.0106884853
0.0106734511
0.0106719562
0.0110406441
0.0110055487
0.0107316889
0.0106817517
0.0106631289
0.0106639525
0.0110471894
0.0107150068
0.0106499911
0.011048581
0.0110172236
0.0106854727
0.0106578238
0.0110492818
0.0110228902
0.0107013556
0.0106309724
0.0106288627
0.0110552494
0.0110133848
0.0110257811
0.0110039735
0.0110060423
0.0107442298
0.0106642839
0.0106597736
0.011049005
0.011016578
0.0107451152
0.0106452776
0.0106578618
0.0110435253
0.0106982426
0.0106415532
0.0110530121
0.0110188018
0.010667215
0.0106505628
0.0110611787
0.0110160594
0.0110252648
0.011014444
0.0106993217
0.0106651537
0.0110317106
0.0110167972
0.0107190322
0.0106467285
0.0106469215
0.0110313146
0.0110056704
0.0110127475
0.0107039914
0.0106687225
0.0106441406
0.0106461742
0.0110458563
0.011007424
0.0110284827
0.0107086125
0.0106654605
0.0110253607
0.0110098304
0.0106949066
0.0106829504
0.0110219989
0.0110044776
0.0107550872
0.0106879712
0.0106711742
0.0106716182
0.0110264542
0.0110143625
0.010726093
0.0106621109
0.0106622449
0.0110261528
0.0110155022
0.010735186
0.0106597139
0.0106618375
0.0110264959
0.0110177925
0.0107312265
0.0106516081
0.0106540625
0.0110273255
0.0110034497
0.0110173679
)
;

boundaryField
{
    closed
    {
        type            calculated;
        value           nonuniform List<scalar> 0();
    }
    open
    {
        type            calculated;
        value           nonuniform List<scalar> 0();
    }
    sides
    {
        type            empty;
    }
    procBoundary3to2
    {
        type            processor;
        value           uniform 0.0107806931;
    }
    procBoundary3to4
    {
        type            processor;
        value           uniform 0.0107419196;
    }
}


// ************************************************************************* //
