/*--------------------------------*- C++ -*----------------------------------*\
| =========                 |                                                 |
| \\      /  F ield         | OpenFOAM: The Open Source CFD Toolbox           |
|  \\    /   O peration     | Version:  2306                                  |
|   \\  /    A nd           | Website:  www.openfoam.com                      |
|    \\/     M anipulation  |                                                 |
\*---------------------------------------------------------------------------*/
FoamFile
{
    version     2.0;
    format      ascii;
    arch        "LSB;label=32;scalar=64";
    class       volScalarField;
    location    "0.0019";
    object      prefDh_H;
}
// * * * * * * * * * * * * * * * * * * * * * * * * * * * * * * * * * * * * * //

dimensions      [1 1 -3 0 0 0 0];

internalField   nonuniform List<scalar> 
531
(
22955.1925
23147.794
23981.8652
23908.9787
23390.0821
22951.0182
23143.604
23982.1294
23911.353
23386.9271
22929.4728
23122.9343
23986.8936
23905.4901
23379.1825
22881.0781
23085.1525
23956.2812
23923.9396
23238.3271
23229.4454
23966.747
23931.4447
23267.6136
23256.1831
23987.5911
23909.2822
23386.2284
22890.9165
23109.0175
23945.9906
23942.8019
23896.4379
23413.7973
23181.6396
23129.2191
23094.1802
22785.9878
22959.5852
23947.3291
23940.2317
23928.8144
23944.6202
23935.5444
23944.1213
23392.7494
22997.8671
24025.8872
23932.9937
23382.207
22720.1921
22874.6627
23742.7717
23932.7066
23905.6841
23418.2504
23148.9309
23966.4055
23941.0234
23224.0059
23233.43
23931.0383
23951.4827
23888.8178
23388.4629
23124.5835
23121.7892
23080.9983
22837.6283
22790.4165
23437.9532
23929.0477
23969.0364
23939.4327
23396.2185
23229.186
23958.0963
23918.6102
23482.2024
23054.3239
23083.6956
23957.2257
23916.6107
23402.894
22952.085
22986.2658
23958.4794
23920.7901
23397.4115
22838.3611
22900.3709
23942.9036
23934.8728
23930.3497
23406.5247
23237.0036
23944.9612
23953.4704
23407.962
23338.5239
22987.2992
22995.2458
23918.8976
23943.3833
23381.4789
23136.4602
23922.3732
23919.0133
23406.402
22964.2092
22968.9408
23924.3653
23911.0917
23406.5193
22914.4684
22922.3856
23912.1213
23925.8468
23405.5616
22912.5719
22880.5457
23407.7183
23905.0813
23932.2342
23917.0949
23919.1148
23216.1776
22910.691
23657.8373
23918.0631
23433.9887
23141.6978
23876.821
23913.3026
23415.3323
22989.8938
22998.8667
23874.4641
23915.1423
23415.9205
22967.9011
22979.0666
23872.8389
23914.8688
23414.6277
22932.1642
22948.0602
23773.2673
23938.7095
23883.6407
23420.6719
23030.0767
23047.9046
23788.6016
23945.9782
23447.7374
23199.0187
23860.8537
23921.7146
23428.557
23057.6122
23073.3395
23839.0575
23915.6339
23437.7213
23060.6119
23075.2216
23782.2485
23945.4419
23446.6362
23272.6438
23864.8676
23948.9105
23423.9277
23380.0834
23034.3339
23043.5452
23833.4102
23923.473
23404.785
22859.9017
22867.2324
23648.3076
23931.2738
23932.7365
23421.5336
23248.2003
23805.9043
23375.5367
22777.739
23591.4082
23915.4459
23926.9277
23939.1009
23420.1617
23291.4024
23859.6706
23385.3886
22949.0995
23766.2702
23927.1388
23908.1441
23394.2866
22917.3773
22927.9018
23693.1247
23916.7583
23402.7465
22803.7419
22814.1447
23741.1489
23921.466
23919.3906
23432.2162
23288.9074
23847.2333
23396.293
22978.1864
23781.6346
23919.7291
23897.9033
23399.1868
22932.3309
22944.6896
23741.1279
23908.6913
23410.4285
22842.66
22854.1694
23725.6783
23906.0144
23408.2716
22585.9465
22592.2387
23523.2524
23910.7444
23917.9116
23927.8216
23917.7536
23938.2254
23930.155
23401.0943
23234.5003
22895.4738
22904.6582
23808.318
23929.5015
23223.4021
23039.8836
23750.8207
23929.2824
23899.0101
23435.9488
22870.649
22874.7274
23866.4041
23409.5518
22880.1637
23836.4651
23921.4548
23280.835
23125.8953
23817.5087
23934.2893
23890.8401
23409.5636
22927.5835
22940.1417
23836.1034
23935.7296
23902.924
23397.3632
23103.5752
23108.4631
22738.9554
22752.5051
23667.6579
23930.9646
23903.4365
23940.6811
23932.8319
23405.7413
23212.9074
23870.2528
23938.9219
23404.3875
23250.4856
23011.2349
23016.7424
23856.8795
23935.7683
23389.2812
23091.536
23859.3963
23923.1001
23397.5312
22951.4408
22963.2401
23845.2521
23939.3514
23438.1834
23090.1157
23857.9808
23923.1068
23396.3597
22898.2133
22913.0484
23837.5937
23944.0415
23284.9108
23111.7471
23851.3344
23946.6886
23939.3188
23396.6559
23147.6618
23866.78
23951.0621
23929.4804
23380.9922
22919.5157
22933.3436
23837.5876
23952.7535
23386.7657
23113.8553
23849.9588
23950.8695
23409.8373
23176.7651
23855.0996
23945.5358
23409.846
23206.6682
22977.0375
22985.262
23837.9428
23939.5949
23262.3535
23057.6052
23835.2925
23940.4382
23228.4138
23077.3684
23831.8436
23936.8921
23896.6391
23940.2468
23410.8409
23270.6693
23070.4653
23074.1062
23860.5192
23928.1527
23398.6936
22833.7311
22849.3026
23837.7599
23943.666
23260.2585
23014.9746
23848.3442
23944.6018
23173.5472
23077.6077
23857.1804
23947.0393
23939.5937
23403.6744
23054.3952
23875.4321
23936.4077
23377.6336
23091.1936
23880.5271
23930.3425
23387.4927
22958.8138
22968.004
23861.5303
23946.0655
23402.0574
23091.7354
23880.3867
23934.8031
23389.9845
22984.6405
22989.9036
23872.0376
23942.7368
23400.5473
23092.3548
23890.3846
23930.8669
23383.7957
22961.8707
22971.1
23867.6887
23955.072
23337.8062
23120.6076
23881.6482
23953.1801
23318.5582
23149.9016
23890.8371
23948.5567
23356.2616
23121.6155
23901.09
23938.1605
23378.5198
22957.0547
22965.8615
23876.4596
23961.1502
23301.0135
23111.8715
23887.419
23960.3073
23233.4686
23169.5541
23895.0351
23960.5699
23955.949
23383.2755
23133.9502
23913.1694
23940.1933
23372.1345
23051.9944
23056.4425
23888.9778
23964.0037
23397.4974
23262.7092
23901.4862
23955.3261
23392.7157
23341.9518
23185.3423
23185.5589
23889.8296
23948.9031
23386.0789
23259.6228
23090.4931
23093.5541
23889.17
23389.1593
22952.9956
23880.1082
23932.7713
23328.6216
23016.7599
23880.1004
23922.8898
23385.9983
22738.8844
22773.7561
23873.7309
23946.3042
23918.1107
23953.14
23940.0274
23385.0369
23063.2606
23066.803
23865.9632
23936.5123
23396.569
22897.2595
23028.0543
23908.3724
23403.4013
22865.0337
23887.1366
23932.7582
23106.5244
22970.2821
23889.1303
23940.0314
23919.0954
23944.6196
23409.2094
23101.3033
23927.7853
23933.2369
23391.8614
22910.9659
22947.3954
23933.2567
23948.7847
23932.2146
23395.9913
23129.0867
22902.0923
22928.589
23929.2976
23941.2387
23922.0869
23402.1719
23107.213
23947.8924
23940.6219
23368.99
23276.8757
23950.6549
23940.1928
23395.3542
23318.4634
23142.8072
23172.9171
23946.3819
23929.0476
23394.4391
23040.5308
23092.8475
23937.9339
23932.2298
23398.0578
23023.8213
23081.0356
23941.1356
23927.8784
23395.0829
22947.4067
23016.4573
23937.9377
23948.957
23913.8015
)
;

boundaryField
{
    closed
    {
        type            calculated;
        value           nonuniform List<scalar> 0();
    }
    open
    {
        type            calculated;
        value           nonuniform List<scalar> 0();
    }
    sides
    {
        type            empty;
    }
    procBoundary3to2
    {
        type            processor;
        value           uniform 23393.1558;
    }
    procBoundary3to4
    {
        type            processor;
        value           uniform 23385.9816;
    }
}


// ************************************************************************* //
