/*--------------------------------*- C++ -*----------------------------------*\
| =========                 |                                                 |
| \\      /  F ield         | OpenFOAM: The Open Source CFD Toolbox           |
|  \\    /   O peration     | Version:  2306                                  |
|   \\  /    A nd           | Website:  www.openfoam.com                      |
|    \\/     M anipulation  |                                                 |
\*---------------------------------------------------------------------------*/
FoamFile
{
    version     2.0;
    format      ascii;
    arch        "LSB;label=32;scalar=64";
    class       volScalarField;
    location    "0.0019";
    object      prefDh_H2O;
}
// * * * * * * * * * * * * * * * * * * * * * * * * * * * * * * * * * * * * * //

dimensions      [1 1 -3 0 0 0 0];

internalField   nonuniform List<scalar> 
531
(
87.7196729
87.9495082
92.3853768
92.4678735
89.4189321
87.7150278
87.9404008
92.3881448
92.4751364
89.1651296
87.6839461
87.9156809
92.3899765
92.4986183
89.0733237
87.6422708
87.8410043
92.493067
92.4853769
88.0976104
88.0456395
92.4017006
92.4017168
88.125714
88.0952518
92.3404333
92.4550075
89.1824434
87.6574937
87.8813756
92.6240948
92.3057784
92.5778942
89.8488309
88.0215989
87.9447542
87.8860252
87.502049
87.6908917
92.607828
92.4219723
92.5583559
92.4158021
92.3798276
92.4448905
88.2748832
87.7432196
92.3284547
92.4967276
88.499283
87.430682
87.5812208
92.5846698
92.3439801
92.5667817
88.4439139
87.9700317
92.4728191
92.3437866
88.1002757
88.0644401
92.716611
92.232447
92.5630989
89.131599
87.9628495
87.9110528
87.8923813
87.5219539
87.5031771
90.3928159
92.483401
92.2708275
92.3649306
88.841232
88.0781848
92.5416218
92.3611653
90.7145431
87.8655448
87.9004375
92.5985003
92.4237257
89.4117417
87.7323011
87.7623693
92.5702521
92.4570929
89.291348
87.583786
87.6408602
92.7136254
92.3327639
92.4168436
88.7467609
88.0742355
92.6151152
92.264954
89.3971965
88.2018845
87.7892314
87.7540968
92.7484007
92.378945
88.2992431
87.953243
92.7416501
92.4161262
89.4033383
87.7635907
87.7489862
92.7333114
92.4653624
89.3817787
87.7089039
87.685391
92.8110185
92.4701588
89.0860952
87.6511721
87.6221458
90.0109063
92.5747488
92.5199812
92.4637117
92.5509792
88.0437768
87.6793253
92.0632403
92.4682558
88.4749049
87.9720149
92.969324
92.4288064
89.6139909
87.8134483
87.7835418
92.9904603
92.452826
89.6149096
87.7819693
87.7579645
93.0190584
92.4674482
89.6363774
87.7291347
87.7018268
92.7531187
92.3521729
92.4763806
89.9862351
87.8713287
87.8166866
92.8562116
92.3733585
88.6042156
88.0288107
93.0159498
92.392682
89.898725
87.8954654
87.878837
93.1278468
92.4268853
90.1181009
87.8966351
87.8645301
92.8231694
92.3528424
88.6669442
88.1166618
92.9667348
92.2786109
89.5888468
88.2599896
87.8729634
87.8283076
93.0965871
92.4670251
89.1380255
87.615427
87.5957466
91.9973475
92.3972911
92.4001314
88.4175991
88.0862291
92.9361071
89.0073645
87.5220246
91.6236163
92.519912
92.4852891
92.3871055
88.6200378
88.1414953
93.0415239
88.9608176
87.7453291
92.6943762
92.3594724
92.4367389
89.2012484
87.7046134
87.6681934
92.2885796
92.5198342
89.1327761
87.5615597
87.5365951
92.5691651
92.4006596
92.4036028
88.4652821
88.1567281
93.0518271
88.9295537
87.7913486
92.7956178
92.3579565
92.4437848
89.1771802
87.7426967
87.7025099
92.5882904
92.513736
89.0143289
87.6261824
87.5973186
92.4923021
92.5851176
88.7649462
87.2682616
87.2452396
91.1373955
92.5785013
92.5908953
92.4506859
92.4784502
92.3195995
92.3336142
89.3325205
88.0808471
87.6772012
87.6497329
92.9566655
92.4418327
88.1001156
87.8203851
92.6196279
92.3481601
92.5112438
90.125345
87.6384101
87.6256969
92.9163966
88.6362394
87.6483228
93.1183433
92.4420751
88.1878173
87.9380434
93.0091855
92.305302
92.48787
89.6773289
87.7301162
87.6891831
93.0441044
92.3206918
92.3903351
89.3855598
87.926474
87.9016913
87.465121
87.4356045
92.1188804
92.460636
92.6056285
92.3396303
92.3536147
88.6634001
88.0450771
92.8799128
92.3240469
88.9977354
88.0982761
87.8155966
87.7893485
92.9892067
92.3958369
88.3064874
87.8915261
92.9490108
92.4262904
88.8862074
87.755126
87.7095244
92.9694538
92.400053
88.4069073
87.888647
92.9293721
92.4350345
88.8417873
87.6873711
87.6394604
93.0172737
92.3913034
88.177552
87.8996717
93.0828345
92.3025351
92.3806197
88.2858862
87.9503164
92.9926329
92.2662893
92.362115
88.8560622
87.7002103
87.650393
93.0000757
92.3766278
88.3067136
87.8967681
92.951425
92.3328806
88.3309288
87.9858769
92.8964616
92.3248947
88.7395118
88.0349591
87.7750793
87.741162
93.0202793
92.3930721
88.146929
87.8332712
93.0319984
92.375592
88.1015961
87.860331
93.0809382
92.3654912
92.5107802
92.327193
89.6325312
88.1171844
87.8846799
87.8607572
92.9097698
92.4411587
88.4616057
87.5941608
87.5528225
92.9610837
92.416756
88.1328308
87.7721107
92.975614
92.3721494
88.0109321
87.8532706
93.0012801
92.2981665
92.3985787
88.2866931
87.8379225
92.8217998
92.3812957
88.2552024
87.8900368
92.779739
92.4085992
88.65458
87.7398373
87.7029714
92.8114247
92.376515
88.2942215
87.8831829
92.7452782
92.3930556
88.7005792
87.7655753
87.7368141
92.7595228
92.3765854
88.2838442
87.8892551
92.7016444
92.4037921
88.6624965
87.7409529
87.7001876
92.7569407
92.34941
88.2108083
87.9038757
92.7468662
92.3175631
88.1766544
87.9469244
92.7142235
92.3277693
88.2135707
87.9200783
92.6567972
92.3866915
88.6001729
87.723473
87.6857909
92.7266339
92.3405394
88.151673
87.8838753
92.7417192
92.2991732
88.0540835
87.9619746
92.7544411
92.23771
92.3285808
88.3812917
87.9360591
92.5934893
92.3589726
88.894753
87.8375549
87.8021195
92.6453607
92.2887844
88.3577044
88.0908976
92.6020134
92.2376018
89.3744184
88.199496
88.002875
87.9919719
92.6641112
92.2907746
88.8198944
88.104174
87.8760211
87.8838383
92.731652
88.5809738
87.7076362
92.7478641
92.4141278
88.1705338
87.7990294
92.7550875
92.4744883
88.3938386
87.4624184
87.4581843
92.8179109
92.3716897
92.5052285
92.2736638
92.2978636
88.9977056
87.8714775
87.8384731
92.7551155
92.406664
88.9931753
87.6450264
87.8046948
92.6898621
88.3246644
87.6008994
92.792093
92.4303257
87.9152106
87.72013
92.8759537
92.4005496
92.4997091
92.3829376
88.3313283
87.8968937
92.5640549
92.4096485
88.6335649
87.6627279
87.6806638
92.5587757
92.2920483
92.3683427
88.4162373
87.9380703
87.6379292
87.6660994
92.7093756
92.3117417
92.5321184
88.4720988
87.9022221
92.494291
92.3365399
88.2603198
88.1225119
92.4591222
92.2818025
89.1351528
88.1820877
87.9635889
87.9826627
92.5058707
92.3856122
88.728987
87.8437637
87.8705044
92.5046667
92.3965885
88.8514424
87.8171579
87.8614031
92.5074772
92.4210568
88.8001716
87.7180446
87.7695468
92.516719
92.2692666
92.4198136
)
;

boundaryField
{
    closed
    {
        type            calculated;
        value           nonuniform List<scalar> 0();
    }
    open
    {
        type            calculated;
        value           nonuniform List<scalar> 0();
    }
    sides
    {
        type            empty;
    }
    procBoundary3to2
    {
        type            processor;
        value           uniform 89.4986519;
    }
    procBoundary3to4
    {
        type            processor;
        value           uniform 88.9638374;
    }
}


// ************************************************************************* //
