/*--------------------------------*- C++ -*----------------------------------*\
| =========                 |                                                 |
| \\      /  F ield         | OpenFOAM: The Open Source CFD Toolbox           |
|  \\    /   O peration     | Version:  2306                                  |
|   \\  /    A nd           | Website:  www.openfoam.com                      |
|    \\/     M anipulation  |                                                 |
\*---------------------------------------------------------------------------*/
FoamFile
{
    version     2.0;
    format      ascii;
    arch        "LSB;label=32;scalar=64";
    class       volScalarField;
    location    "0.00188";
    object      H2O;
}
// * * * * * * * * * * * * * * * * * * * * * * * * * * * * * * * * * * * * * //

dimensions      [0 0 0 0 0 0 0];

internalField   nonuniform List<scalar> 
531
(
0.00106662336
0.000945336542
0.00110023545
0.00109976093
0.00594965358
0.00707459356
0.00763232921
0.00763157683
0.000796344436
0.00102921686
0.00694262646
0.00740065843
0.000790943185
0.00103684206
0.00687789334
0.00742756313
0.000817407152
0.0010135783
0.00628698247
0.00790713677
0.00788141083
0.000827513462
0.00102368553
0.00691970928
0.00728856696
0.000754754172
0.00107599973
0.001042108
0.00683433501
0.0071794283
0.000755255482
0.00110527807
0.00101140173
0.00597398903
0.00794262117
0.00791832344
0.000815214918
0.00106371559
0.00102224245
0.0065721656
0.00710267127
0.000788656868
0.00111002837
0.00104277503
0.00589496714
0.00758570219
0.00757485517
0.000866473956
0.00103738268
0.00612213315
0.00718906452
0.00780474989
0.00779342432
0.000750028746
0.00107296939
0.000989445746
0.00646838985
0.00734895442
0.000823212875
0.00105208281
0.0067339422
0.00711800063
0.000819443973
0.00108108178
0.00677442372
0.00678133931
0.000804562435
0.00568887706
0.00766096553
0.000831749025
0.00103695794
0.00656267897
0.00723000043
0.000852159118
0.00103845562
0.00591707455
0.00764289743
0.00762940737
0.000851138039
0.00108371166
0.0010775632
0.00650117937
0.00707218132
0.000865213776
0.00105768955
0.00573202194
0.00729805486
0.00720800406
0.00811053398
0.00807770653
0.000714918197
0.00101976241
0.000920604989
0.00107724203
0.00107592738
0.00580244842
0.00763171034
0.00760225956
0.000846693514
0.00103861218
0.0066988631
0.0071474588
0.000825539823
0.00107758247
0.00684223809
0.00683736825
0.000803424398
0.00595521713
0.00776497784
0.000818985471
0.00103270577
0.00681586295
0.00723908076
0.000813365947
0.00106217742
0.00692840165
0.00706005361
0.000778294532
0.00111518176
0.00102276649
0.00556046962
0.0075501953
0.0075355394
0.000888964541
0.00102729524
0.00579797717
0.00757980902
0.00756451457
0.000890281662
0.00104793496
0.00655987189
0.00706161988
0.000866260651
0.00107561309
0.00656223343
0.0069697286
0.000886820509
0.00108276985
0.00598475147
0.00692874824
0.00753490664
0.00753013989
0.000832493249
0.00104837679
0.00698507339
0.00714501204
0.000775091637
0.00110127612
0.00100754305
0.00652894903
0.00727666605
0.000850324901
0.00105604515
0.00678159393
0.00714997249
0.000839586486
0.00107279258
0.00690531523
0.00697201043
0.000801858532
0.00112658537
0.00102959787
0.00504224067
0.00705257524
0.00755720621
0.00754773363
0.000827490724
0.00103430971
0.00698350254
0.00738414666
0.000811152105
0.00104458274
0.00715857096
0.00727984954
0.000764227284
0.0011005289
0.000989996574
0.00607871094
0.0079728627
0.00793861223
0.000877511939
0.00102128396
0.00691999924
0.00728427179
0.000782124222
0.00105893248
0.000984201328
0.00107651479
0.00437591059
0.00680373358
0.0069750418
0.00712401287
0.00801850633
0.00800515986
0.000786954878
0.00100635078
0.0009858895
0.00103164866
0.00564181316
0.00717235593
0.00773182996
0.00773027879
0.000801303253
0.00106953057
0.000991184757
0.00661590812
0.00706585638
0.000829863177
0.00112241457
0.00102327834
0.0057005848
0.00758828546
0.00757786596
0.000922842102
0.00101563203
0.00595594168
0.00775744245
0.00774078127
0.00090047615
0.00103970736
0.00688333161
0.0071129619
0.000816105583
0.00111560222
0.00100925246
0.00596774968
0.00784477628
0.00780163286
0.000887149386
0.00106647531
0.00105967921
0.00671988193
0.00749867546
0.00090202334
0.000947278565
0.00619150987
0.000865390194
0.00111336178
0.00634122321
0.00692053787
0.00758891976
0.00757665496
0.000853058937
0.00109694049
0.00104174392
0.00587169514
0.00740956879
0.00727289297
0.00817484714
0.00817135115
0.000799572073
0.00102517459
0.000980000306
0.00713606838
0.00766553517
0.000741051077
0.00101644216
0.000953734243
0.00102336907
0.00650984903
0.0073123408
0.00091602314
0.00102571529
0.00617870878
0.0077932823
0.00777773243
0.000911317628
0.00104214687
0.00686458141
0.00707560048
0.000830110272
0.00111361775
0.00101936756
0.00438862837
0.00732612024
0.00724793036
0.00821746747
0.00819296529
0.000768986867
0.00102010558
0.000925174917
0.00108087053
0.00106365551
0.00601686234
0.00770145931
0.0076777842
0.000898381711
0.00104700093
0.00685435371
0.0070339046
0.000836600845
0.00112667368
0.00103350127
0.00543889291
0.00741133691
0.00722734155
0.00817294977
0.00815292567
0.000783407869
0.00102578836
0.000970866479
0.00718679748
0.00783337558
0.000709227645
0.0010032097
0.000930081622
0.0010111104
0.00683790539
0.00747604804
0.00159364605
0.00103781365
0.00092967502
0.00106261878
0.00104367156
0.00670988336
0.00765321282
0.00816609056
0.00817579258
0.000785979959
0.000996452461
0.00738650936
0.00775640302
0.000722589555
0.00100349267
0.000956933065
0.00101048422
0.00611635538
0.00741075512
0.00800785094
0.00800367003
0.000742006737
0.00104219611
0.000948054211
0.00680805094
0.00744618607
0.000770081081
0.00108559319
0.00099477514
0.00630492253
0.00808750651
0.00805158729
0.000810251578
0.000977617518
0.0073031515
0.00788032711
0.000674394378
0.000949208185
0.000907497249
0.000934902516
0.00673519744
0.00820327567
0.00917309195
0.00913916945
0.000453160919
0.00083483625
0.000669592873
0.000873679336
0.000812070399
0.000959603317
0.00095442622
0.0074345535
0.00824040802
0.00103671003
0.00121608908
0.00121882232
0.00793537072
0.00866193277
0.0013091689
0.00160697579
0.00151074455
0.0018100614
0.00178123092
0.00204791048
0.00209205846
0.00232708816
0.00241885982
0.00262367483
0.00271196644
0.0028961389
0.00298190978
0.00315702028
0.00325949506
0.00341062825
0.00352297014
0.00364930394
0.00374497681
0.00382653293
0.00385269166
0.00382916227
0.00357910991
0.00326012985
0.00346831839
0.00361858071
0.00385037356
0.00403999926
0.00428775125
0.00451900451
0.00478404733
0.0050589208
0.00534218423
0.00565857173
0.00589916583
0.00605740412
0.00588215022
0.00544429246
0.00554015537
0.00564982369
0.00594789681
0.00613374013
0.0066023955
0.00684258756
0.00746629998
0.00779617235
0.00857720305
0.00885414468
0.00968713544
0.0098778097
0.0107981065
0.0108732876
0.0118215206
0.00403295003
0.00570897247
0.00586445243
0.00721511926
0.00768017996
0.00882112357
0.00950933475
0.0105545636
0.0114380666
0.0124951958
0.0137595323
0.0145057628
0.0145556473
0.014560724
0.0145860085
0.014633722
0.0146316197
0.0147046329
0.0146823661
0.0119827194
0.0118731228
0.0129704391
0.0139233466
0.0147139789
0.0165979687
0.0176141794
0.0133488833
0.0148886297
0.0227079882
0.0241854165
0.0262786738
0.0278259336
0.0296729895
0.0309673826
0.0324080747
0.0337107263
0.0358632369
0.037454788
0.0402993874
0.0420617945
0.0454233663
0.0472562132
0.0509731977
0.0528010445
0.0567027845
0.0584592072
0.0624076851
0.0640872387
0.068023179
0.0696015889
0.0734605595
0.0749382618
0.0786774145
0.0800301798
0.0835813252
0.0848011871
0.088115519
0.0892553888
0.0923006647
0.0934048934
0.0961838081
0.0972053243
0.0997421873
0.100692439
0.103061126
0.103796122
0.105845557
0.106501036
0.108389928
0.108797057
0.110415988
0.11063204
0.112060641
0.113226204
0.115062965
0.113375164
0.115597802
0.116935453
0.119052255
0.115748398
0.117674478
0.120371154
0.122067888
0.117784311
0.119104442
0.122569237
0.12275875
0.120258472
0.120326991
0.123462672
0.123576512
0.121703967
0.121470578
0.123618243
0.124171641
0.123248515
0.122327536
0.12299188
0.12465011
0.124613042
0.123023423
0.123145229
0.125032078
0.124900213
0.123504044
0.123649922
0.125337886
0.125180644
0.123881397
0.124071056
0.125547191
)
;

boundaryField
{
    closed
    {
        type            calculated;
        value           nonuniform List<scalar> 0();
    }
    open
    {
        type            calculated;
        value           nonuniform List<scalar> 0();
    }
    sides
    {
        type            empty;
    }
    procBoundary4to3
    {
        type            processor;
        value           uniform 0.000724655879;
    }
    procBoundary4to5
    {
        type            processor;
        value           uniform 0.125480846;
    }
}


// ************************************************************************* //
