/*--------------------------------*- C++ -*----------------------------------*\
| =========                 |                                                 |
| \\      /  F ield         | OpenFOAM: The Open Source CFD Toolbox           |
|  \\    /   O peration     | Version:  2306                                  |
|   \\  /    A nd           | Website:  www.openfoam.com                      |
|    \\/     M anipulation  |                                                 |
\*---------------------------------------------------------------------------*/
FoamFile
{
    version     2.0;
    format      ascii;
    arch        "LSB;label=32;scalar=64";
    class       volScalarField;
    location    "0.00188";
    object      prefDZ_T;
}
// * * * * * * * * * * * * * * * * * * * * * * * * * * * * * * * * * * * * * //

dimensions      [1 -1 -1 -1 0 0 0];

internalField   nonuniform List<scalar> 
531
(
-1.2271197e-09
-1.23005355e-09
-1.22650126e-09
-1.22685523e-09
-1.19443274e-09
-1.18854707e-09
-1.18619939e-09
-1.18591859e-09
-1.23250606e-09
-1.2279087e-09
-1.18956881e-09
-1.18696368e-09
-1.23269013e-09
-1.22781192e-09
-1.18978295e-09
-1.18697775e-09
-1.23193464e-09
-1.22853674e-09
-1.19230756e-09
-1.18527429e-09
-1.18475147e-09
-1.23219838e-09
-1.22804093e-09
-1.18975579e-09
-1.18752904e-09
-1.23310135e-09
-1.22726981e-09
-1.2278898e-09
-1.18979778e-09
-1.1880065e-09
-1.23295224e-09
-1.22652217e-09
-1.2287078e-09
-1.19423602e-09
-1.18488384e-09
-1.18457917e-09
-1.23199054e-09
-1.22742662e-09
-1.2281627e-09
-1.19083077e-09
-1.18832501e-09
-1.23223138e-09
-1.22635302e-09
-1.22813625e-09
-1.19468046e-09
-1.18659363e-09
-1.18605818e-09
-1.23098683e-09
-1.22769651e-09
-1.19348126e-09
-1.18808211e-09
-1.18539869e-09
-1.1852789e-09
-1.23295185e-09
-1.22737901e-09
-1.22884976e-09
-1.19143931e-09
-1.18728332e-09
-1.23189623e-09
-1.22743396e-09
-1.19052544e-09
-1.1881936e-09
-1.23211904e-09
-1.22689531e-09
-1.190428e-09
-1.18980826e-09
-1.23239157e-09
-1.19617682e-09
-1.18623699e-09
-1.23163657e-09
-1.22809273e-09
-1.19116841e-09
-1.1879999e-09
-1.23120982e-09
-1.22808668e-09
-1.19474457e-09
-1.18633584e-09
-1.18603545e-09
-1.23121794e-09
-1.22715891e-09
-1.22729519e-09
-1.19122444e-09
-1.18865751e-09
-1.23071921e-09
-1.22762183e-09
-1.19584132e-09
-1.18787002e-09
-1.18777131e-09
-1.18430443e-09
-1.1837544e-09
-1.23416921e-09
-1.22792785e-09
-1.2308189e-09
-1.22675589e-09
-1.22784417e-09
-1.19517884e-09
-1.18655286e-09
-1.18573141e-09
-1.23167862e-09
-1.22741926e-09
-1.19076241e-09
-1.18793965e-09
-1.23200687e-09
-1.22685655e-09
-1.1900885e-09
-1.1894959e-09
-1.23223239e-09
-1.19437468e-09
-1.18569594e-09
-1.23179481e-09
-1.22803449e-09
-1.19011344e-09
-1.18768441e-09
-1.23214132e-09
-1.22713153e-09
-1.18965733e-09
-1.18831853e-09
-1.23264954e-09
-1.22616977e-09
-1.22866088e-09
-1.19691942e-09
-1.18672122e-09
-1.18636003e-09
-1.23036899e-09
-1.2282096e-09
-1.19539747e-09
-1.18664878e-09
-1.18609674e-09
-1.23074415e-09
-1.22735994e-09
-1.1912937e-09
-1.18836571e-09
-1.23115988e-09
-1.22685569e-09
-1.19122712e-09
-1.18882605e-09
-1.23062508e-09
-1.22684467e-09
-1.19444143e-09
-1.18918111e-09
-1.18680758e-09
-1.18640244e-09
-1.23173045e-09
-1.22758321e-09
-1.18930096e-09
-1.18817111e-09
-1.23246794e-09
-1.22684288e-09
-1.22852751e-09
-1.1911811e-09
-1.18761377e-09
-1.23133975e-09
-1.22734124e-09
-1.19028879e-09
-1.18801548e-09
-1.23167671e-09
-1.22698972e-09
-1.1897411e-09
-1.18886158e-09
-1.23213814e-09
-1.22624903e-09
-1.22829866e-09
-1.20063342e-09
-1.18876994e-09
-1.18663368e-09
-1.1863242e-09
-1.23191008e-09
-1.22774701e-09
-1.18939468e-09
-1.18690712e-09
-1.23221479e-09
-1.22739554e-09
-1.18863743e-09
-1.18728052e-09
-1.23303995e-09
-1.22638858e-09
-1.22940859e-09
-1.19342215e-09
-1.18503418e-09
-1.18431973e-09
-1.23118451e-09
-1.22793239e-09
-1.18976958e-09
-1.18746444e-09
-1.23276209e-09
-1.22738715e-09
-1.22935046e-09
-1.2270588e-09
-1.20542088e-09
-1.18967452e-09
-1.18932468e-09
-1.18830104e-09
-1.18451504e-09
-1.18426955e-09
-1.23246315e-09
-1.22847332e-09
-1.22902719e-09
-1.22796934e-09
-1.19658915e-09
-1.18822656e-09
-1.18563277e-09
-1.18562447e-09
-1.23201902e-09
-1.22750829e-09
-1.22878972e-09
-1.19071098e-09
-1.18861917e-09
-1.23154756e-09
-1.22630111e-09
-1.22843275e-09
-1.19606964e-09
-1.18651556e-09
-1.18623772e-09
-1.22996555e-09
-1.22844857e-09
-1.19438571e-09
-1.18577845e-09
-1.18532779e-09
-1.23063961e-09
-1.22758279e-09
-1.18971876e-09
-1.18813037e-09
-1.23202467e-09
-1.22622864e-09
-1.22881426e-09
-1.19421807e-09
-1.1854454e-09
-1.18507211e-09
-1.23072574e-09
-1.22734996e-09
-1.22773791e-09
-1.19000657e-09
-1.18703717e-09
-1.22992579e-09
-1.22993645e-09
-1.19256103e-09
-1.2313371e-09
-1.22603751e-09
-1.19227733e-09
-1.18910915e-09
-1.18652209e-09
-1.18612111e-09
-1.23139478e-09
-1.22672377e-09
-1.22812785e-09
-1.19491688e-09
-1.18743833e-09
-1.18758552e-09
-1.18378983e-09
-1.1835525e-09
-1.23236276e-09
-1.22845164e-09
-1.22922497e-09
-1.18856167e-09
-1.18597317e-09
-1.23342378e-09
-1.22837406e-09
-1.22984913e-09
-1.22816606e-09
-1.1912577e-09
-1.18769105e-09
-1.22996555e-09
-1.2284308e-09
-1.1929176e-09
-1.18575077e-09
-1.18518622e-09
-1.23063459e-09
-1.22762753e-09
-1.18996967e-09
-1.18841078e-09
-1.2320283e-09
-1.22644633e-09
-1.22887017e-09
-1.20516828e-09
-1.18794191e-09
-1.18765739e-09
-1.18376782e-09
-1.18326331e-09
-1.23312637e-09
-1.22801243e-09
-1.2304995e-09
-1.22681409e-09
-1.22802471e-09
-1.19385008e-09
-1.18622844e-09
-1.18548914e-09
-1.23094168e-09
-1.22744264e-09
-1.18997973e-09
-1.18856534e-09
-1.23182785e-09
-1.22618894e-09
-1.22845448e-09
-1.19782304e-09
-1.18749238e-09
-1.18784514e-09
-1.18388063e-09
-1.18367351e-09
-1.23286779e-09
-1.2285416e-09
-1.22946649e-09
-1.18845774e-09
-1.18524244e-09
-1.23435557e-09
-1.2286962e-09
-1.23070071e-09
-1.22842884e-09
-1.19018947e-09
-1.18681641e-09
-1.22722192e-09
-1.22806454e-09
-1.23012693e-09
-1.22746146e-09
-1.22794161e-09
-1.19018102e-09
-1.18620885e-09
-1.18376433e-09
-1.18366594e-09
-1.23290691e-09
-1.22879286e-09
-1.18759579e-09
-1.18539225e-09
-1.23385709e-09
-1.22840482e-09
-1.22962322e-09
-1.22817534e-09
-1.1934533e-09
-1.18703224e-09
-1.18428532e-09
-1.18418291e-09
-1.23301125e-09
-1.22766804e-09
-1.22934516e-09
-1.18950549e-09
-1.18655539e-09
-1.23230865e-09
-1.22643079e-09
-1.22843645e-09
-1.19169756e-09
-1.18387526e-09
-1.18327967e-09
-1.23172867e-09
-1.22782184e-09
-1.18710719e-09
-1.1837529e-09
-1.23335406e-09
-1.22775024e-09
-1.2288112e-09
-1.22762727e-09
-1.18835794e-09
-1.18158278e-09
-1.17718992e-09
-1.17679408e-09
-1.23564629e-09
-1.22786472e-09
-1.23136446e-09
-1.22649956e-09
-1.22790794e-09
-1.22446161e-09
-1.22472926e-09
-1.18195103e-09
-1.17811355e-09
-1.22664974e-09
-1.22130831e-09
-1.22201405e-09
-1.17798296e-09
-1.17401968e-09
-1.22463481e-09
-1.21730472e-09
-1.22044047e-09
-1.21487532e-09
-1.21638062e-09
-1.21189776e-09
-1.21228921e-09
-1.2083821e-09
-1.20794853e-09
-1.20435e-09
-1.20328738e-09
-1.19989743e-09
-1.19827449e-09
-1.19499742e-09
-1.19284004e-09
-1.18988731e-09
-1.18740621e-09
-1.18468481e-09
-1.18210632e-09
-1.17970112e-09
-1.17739516e-09
-1.17563215e-09
-1.17466577e-09
-1.17477892e-09
-1.17080887e-09
-1.16799769e-09
-1.16373205e-09
-1.16030324e-09
-1.15588581e-09
-1.15182605e-09
-1.14723305e-09
-1.14253076e-09
-1.13774903e-09
-1.13250968e-09
-1.12808094e-09
-1.12366255e-09
-1.12192878e-09
-1.1216518e-09
-1.11673356e-09
-1.11305965e-09
-1.10580713e-09
-1.10149316e-09
-1.09239679e-09
-1.08768137e-09
-1.07679731e-09
-1.07061696e-09
-1.05677782e-09
-1.05123915e-09
-1.03609464e-09
-1.03196908e-09
-1.01462536e-09
-1.01302847e-09
-9.92676338e-10
-1.03601781e-09
-1.00846438e-09
-1.00582858e-09
-9.83059261e-10
-9.7549479e-10
-9.56094736e-10
-9.45026201e-10
-9.27556757e-10
-9.13797161e-10
-8.97148344e-10
-8.79824053e-10
-8.65700789e-10
-8.53100299e-10
-8.42645004e-10
-8.28833548e-10
-8.18219512e-10
-8.03175075e-10
-7.92780966e-10
-7.76452558e-10
-7.80183323e-10
-7.64042813e-10
-7.45669559e-10
-7.25867003e-10
-7.0670999e-10
-6.89302933e-10
-6.70693871e-10
-6.78541753e-10
-6.48734093e-10
-6.02718049e-10
-5.83270746e-10
-5.57154552e-10
-5.40091265e-10
-5.13455042e-10
-4.98303708e-10
-4.72385423e-10
-4.5859652e-10
-4.33814718e-10
-4.21229152e-10
-3.97731323e-10
-3.86478107e-10
-3.64730049e-10
-3.54821863e-10
-3.34905745e-10
-3.26240882e-10
-3.0824268e-10
-3.007606e-10
-2.84647178e-10
-2.78075402e-10
-2.63586934e-10
-2.57796244e-10
-2.44771691e-10
-2.39621981e-10
-2.27875629e-10
-2.23301285e-10
-2.12754209e-10
-2.08697056e-10
-1.99276841e-10
-1.95522924e-10
-1.87080968e-10
-1.83643127e-10
-1.76212358e-10
-1.72813457e-10
-1.65961253e-10
-1.63197481e-10
-1.57278856e-10
-1.54100581e-10
-1.48122973e-10
-1.47150438e-10
-1.4326515e-10
-1.38258343e-10
-1.32302987e-10
-1.36411247e-10
-1.36132991e-10
-1.2290267e-10
-1.15290661e-10
-1.32052977e-10
-1.34349088e-10
-1.06685716e-10
-9.38701203e-11
-1.28328575e-10
-1.28975529e-10
-9.05886178e-11
-8.59495234e-11
-1.16033605e-10
-1.1905267e-10
-8.62025048e-11
-8.62925804e-11
-1.04400358e-10
-1.12325526e-10
-8.66361793e-11
-8.66858574e-11
-9.84189623e-11
-1.06287698e-10
-8.89467531e-11
-8.69664414e-11
-9.25013328e-11
-1.02332236e-10
-9.4828396e-11
-8.71875792e-11
-8.75956473e-11
-9.931286e-11
-9.59483319e-11
-8.73615392e-11
-8.72994912e-11
-9.77499996e-11
-9.50361542e-11
-8.74997414e-11
-8.74253708e-11
-9.67036551e-11
-9.4177787e-11
-8.75923601e-11
)
;

boundaryField
{
    closed
    {
        type            calculated;
        value           nonuniform List<scalar> 0();
    }
    open
    {
        type            calculated;
        value           nonuniform List<scalar> 0();
    }
    sides
    {
        type            empty;
    }
    procBoundary4to3
    {
        type            processor;
        value           uniform -1.23403014e-09;
    }
    procBoundary4to5
    {
        type            processor;
        value           uniform -8.7559987e-11;
    }
}


// ************************************************************************* //
