/*--------------------------------*- C++ -*----------------------------------*\
| =========                 |                                                 |
| \\      /  F ield         | OpenFOAM: The Open Source CFD Toolbox           |
|  \\    /   O peration     | Version:  2306                                  |
|   \\  /    A nd           | Website:  www.openfoam.com                      |
|    \\/     M anipulation  |                                                 |
\*---------------------------------------------------------------------------*/
FoamFile
{
    version     2.0;
    format      ascii;
    arch        "LSB;label=32;scalar=64";
    class       surfaceScalarField;
    location    "0.00198";
    object      phi;
}
// * * * * * * * * * * * * * * * * * * * * * * * * * * * * * * * * * * * * * //

dimensions      [1 0 -1 0 0 0 0];

oriented        oriented;

internalField   nonuniform List<scalar> 
530
(
2.40184764e-06
2.39213913e-06
2.37486005e-06
2.43341698e-06
2.44011714e-06
2.46658789e-06
2.45684861e-06
2.48085365e-06
2.51304893e-06
2.5334613e-06
2.56745527e-06
2.56894434e-06
2.54879524e-06
2.61660125e-06
2.63391602e-06
2.68499545e-06
2.69352079e-06
2.71957528e-06
2.74281439e-06
2.77224794e-06
2.76878185e-06
2.79202972e-06
2.8020213e-06
2.81472528e-06
2.82656062e-06
2.83506237e-06
2.84299818e-06
2.91838207e-06
2.93203591e-06
2.8807726e-06
2.83038367e-06
2.84492655e-06
2.85630992e-06
2.84540442e-06
2.84868268e-06
2.86884134e-06
2.89261487e-06
2.88747529e-06
2.90016032e-06
2.90982295e-06
2.72330407e-06
2.72247499e-06
2.70523265e-06
2.69180141e-06
2.68894221e-06
2.70730804e-06
2.73685408e-06
2.75146539e-06
2.76364956e-06
2.80888505e-06
2.82410593e-06
2.81258194e-06
2.78728007e-06
2.83146852e-06
2.84377364e-06
2.87699117e-06
2.89354913e-06
2.91518595e-06
2.93100474e-06
2.98044735e-06
3.01546983e-06
3.00279596e-06
3.01751242e-06
3.07926737e-06
3.10739489e-06
3.17974747e-06
3.29111958e-06
3.32997175e-06
3.33944444e-06
3.35591293e-06
3.35112096e-06
3.16933997e-06
3.16288558e-06
3.14555436e-06
3.15737803e-06
3.17091974e-06
3.16985106e-06
3.16545572e-06
3.1577844e-06
3.17231304e-06
3.19948099e-06
3.19563732e-06
3.2012065e-06
3.23627965e-06
3.31706716e-06
3.3274888e-06
3.11188095e-06
3.11757405e-06
3.10285951e-06
3.13899862e-06
3.16659216e-06
2.98978758e-06
2.99198384e-06
2.97630775e-06
2.98446948e-06
3.00744299e-06
3.00490585e-06
3.00474014e-06
3.04044578e-06
3.03841705e-06
3.09113744e-06
3.09309238e-06
2.99999889e-06
2.98371669e-06
2.97707408e-06
2.96745801e-06
2.94609537e-06
2.93443156e-06
2.97016675e-06
3.0340692e-06
3.01314316e-06
2.80292129e-06
2.7970583e-06
2.76972662e-06
2.78458723e-06
2.80092501e-06
2.77453728e-06
2.76738342e-06
3.18239117e-06
3.21036582e-06
3.14878344e-06
3.15082498e-06
2.99275084e-06
2.98782998e-06
2.98107228e-06
2.96662097e-06
2.99127075e-06
3.01701183e-06
3.00109557e-06
3.00373895e-06
3.05142616e-06
3.0614816e-06
3.02182732e-06
3.01537073e-06
3.04852412e-06
3.11871261e-06
3.1086971e-06
3.08247277e-06
3.05893065e-06
3.03838152e-06
3.04951994e-06
3.07536896e-06
3.04613451e-06
3.02218934e-06
3.41686642e-06
3.46540349e-06
3.36606073e-06
3.24647005e-06
3.19710747e-06
3.19049731e-06
3.18968154e-06
3.27467078e-06
3.27648105e-06
3.20850769e-06
3.19899967e-06
3.18928444e-06
3.19587418e-06
3.10571111e-06
3.06784771e-06
3.05109992e-06
3.05053972e-06
3.06768075e-06
2.89206261e-06
2.84780136e-06
2.81768972e-06
2.841899e-06
2.86804461e-06
2.80032382e-06
2.76068811e-06
2.74948267e-06
2.73572652e-06
2.65629355e-06
2.64023517e-06
2.62336817e-06
2.59308992e-06
2.58560183e-06
2.61255528e-06
2.5054604e-06
2.48754108e-06
2.47406057e-06
2.49960462e-06
2.51182017e-06
2.35433781e-06
2.32404567e-06
2.29668165e-06
2.26895298e-06
2.27316054e-06
2.22106851e-06
2.20674929e-06
2.18114267e-06
2.17583239e-06
2.08932978e-06
2.06554708e-06
2.05123798e-06
2.02850697e-06
1.94973812e-06
1.91352863e-06
2.1726182e-06
2.18017868e-06
2.12256038e-06
2.10600722e-06
2.09073785e-06
2.08282002e-06
2.16471938e-06
2.1853505e-06
2.1246727e-06
2.11371988e-06
2.19758111e-06
2.27326132e-06
2.27663592e-06
2.19581274e-06
2.17564899e-06
2.16530902e-06
2.14854681e-06
2.11047701e-06
2.08985405e-06
2.23027584e-06
2.22056405e-06
2.18090886e-06
2.17851298e-06
2.16455702e-06
2.17667438e-06
2.20177548e-06
2.21794822e-06
2.21674246e-06
2.21451262e-06
2.1992102e-06
2.19108764e-06
2.15172504e-06
2.16793868e-06
2.15431894e-06
2.14980569e-06
2.14006011e-06
2.13238046e-06
2.10492432e-06
2.06775739e-06
2.06185247e-06
2.05283415e-06
2.03092523e-06
2.02402716e-06
2.00016443e-06
1.99490907e-06
2.16090649e-06
2.16976771e-06
2.12570753e-06
2.06183829e-06
2.09815339e-06
2.0982225e-06
2.11251405e-06
2.13105101e-06
2.11376966e-06
2.13716015e-06
2.14066898e-06
2.15065493e-06
2.17734329e-06
2.19330996e-06
2.21028191e-06
2.22448821e-06
2.24437758e-06
2.25687619e-06
2.26533724e-06
2.25197412e-06
2.21396098e-06
2.24696835e-06
2.25405471e-06
2.25062869e-06
2.26785639e-06
2.28109266e-06
2.28163313e-06
2.28476263e-06
2.26519699e-06
2.25576218e-06
2.3418889e-06
2.39028496e-06
2.36826684e-06
2.38889584e-06
2.40139408e-06
2.25147129e-06
2.24852294e-06
2.23188721e-06
2.20751564e-06
2.20572758e-06
2.1995584e-06
2.20290219e-06
2.19692816e-06
2.18810401e-06
2.17798326e-06
2.17089886e-06
2.15483217e-06
2.16881505e-06
2.15735786e-06
2.12456549e-06
2.1110247e-06
2.11489475e-06
2.10823896e-06
2.09982805e-06
2.08885368e-06
2.06578637e-06
2.08536177e-06
2.07670965e-06
2.04128021e-06
2.02669257e-06
2.03320513e-06
2.03364684e-06
2.02976847e-06
2.01734374e-06
2.01820718e-06
2.02057394e-06
2.0283292e-06
1.98273274e-06
1.9844888e-06
2.02376166e-06
2.03324225e-06
2.03829069e-06
2.04791685e-06
2.05040951e-06
2.02165397e-06
2.02812242e-06
2.03680078e-06
2.04324796e-06
2.0519312e-06
2.09723464e-06
2.03743642e-06
2.04049991e-06
2.02969026e-06
2.02878641e-06
2.03025608e-06
2.03146557e-06
2.01952355e-06
2.01722454e-06
2.01109602e-06
2.00634222e-06
1.99187405e-06
1.98047264e-06
1.98466257e-06
1.97431133e-06
1.95610815e-06
1.94501489e-06
1.9187505e-06
1.90079898e-06
1.87761524e-06
1.87185635e-06
1.85162545e-06
1.88529319e-06
1.89548906e-06
1.75874106e-06
1.73839692e-06
1.76136674e-06
1.7426784e-06
1.74610585e-06
1.83257872e-06
1.7954773e-06
1.78038698e-06
1.76511864e-06
1.73033751e-06
1.76769428e-06
1.79250502e-06
1.69176215e-06
1.6805687e-06
1.67552693e-06
1.65894155e-06
1.66813063e-06
1.65900542e-06
1.59807758e-06
1.58800359e-06
1.59348582e-06
1.58708913e-06
1.59319362e-06
1.54837466e-06
1.53259872e-06
1.54557789e-06
1.54179434e-06
1.4858213e-06
1.47931455e-06
1.49847204e-06
1.50205315e-06
1.49116703e-06
1.48911712e-06
1.48037434e-06
1.51141729e-06
1.51191676e-06
1.46133934e-06
1.46026966e-06
1.49364611e-06
1.508651e-06
1.51169467e-06
1.51459672e-06
1.49800077e-06
1.55329485e-06
1.56992748e-06
1.53167115e-06
1.53766253e-06
1.5781182e-06
1.59954273e-06
1.60964376e-06
1.61936456e-06
1.62626526e-06
1.67991834e-06
1.70050158e-06
1.67732211e-06
1.69816021e-06
1.74101146e-06
1.76913701e-06
1.7619007e-06
1.78982383e-06
1.83300719e-06
1.8648792e-06
1.87071303e-06
1.90006877e-06
1.93691165e-06
1.97523871e-06
2.02115005e-06
2.06420154e-06
2.07754941e-06
2.13264727e-06
2.16647543e-06
2.19393463e-06
2.23054766e-06
2.26091356e-06
2.30124342e-06
2.35075092e-06
2.39672183e-06
2.42530539e-06
2.47821812e-06
2.54078078e-06
2.57345497e-06
2.62412881e-06
2.55919978e-06
2.60373979e-06
2.66081389e-06
2.81435514e-06
2.87811196e-06
2.91295202e-06
2.95911157e-06
3.03458948e-06
3.07560436e-06
3.07317464e-06
3.11466436e-06
3.17884336e-06
3.22937899e-06
3.28943022e-06
3.31997084e-06
3.31883666e-06
3.3558329e-06
3.41621509e-06
3.49468195e-06
3.54170785e-06
3.59597661e-06
3.56450451e-06
3.62319986e-06
3.6838357e-06
3.65041342e-06
3.6881323e-06
3.82633721e-06
3.87407309e-06
3.84437784e-06
3.87740204e-06
3.93782941e-06
3.99557971e-06
4.11186369e-06
4.15928772e-06
4.1648816e-06
4.1588194e-06
4.17665335e-06
4.19161563e-06
4.21409921e-06
4.25935156e-06
4.31644547e-06
4.25560684e-06
4.26808156e-06
4.34181003e-06
4.39939372e-06
4.4013734e-06
4.35314387e-06
4.36650244e-06
4.37172104e-06
4.2917024e-06
4.27736517e-06
4.30807076e-06
4.3116442e-06
4.26605031e-06
4.22971559e-06
4.20724572e-06
4.15658214e-06
4.16537701e-06
4.15830964e-06
4.08063262e-06
4.05423067e-06
4.18839362e-06
4.23291382e-06
4.20134681e-06
3.98898684e-06
3.96008787e-06
3.9391112e-06
3.92785337e-06
3.95058635e-06
3.93837785e-06
3.87574963e-06
3.75143828e-06
3.70626352e-06
3.67851624e-06
3.67120741e-06
3.65746948e-06
3.63350768e-06
3.60939013e-06
3.61003027e-06
3.59046337e-06
3.57172693e-06
3.55268308e-06
3.55112139e-06
3.53367822e-06
3.47570911e-06
3.45898127e-06
3.43428808e-06
3.4212516e-06
3.4271603e-06
3.38386922e-06
3.40042357e-06
3.35696568e-06
3.35204402e-06
3.36082275e-06
3.34022689e-06
3.27633035e-06
3.30475813e-06
3.28428976e-06
3.27685722e-06
3.32886718e-06
3.36009494e-06
3.07925655e-06
3.06014438e-06
)
;

boundaryField
{
    closed
    {
        type            calculated;
        value           nonuniform List<scalar> 0();
    }
    open
    {
        type            calculated;
        value           nonuniform List<scalar> 0();
    }
    sides
    {
        type            empty;
        value           nonuniform List<scalar> 0();
    }
    procBoundary3to2
    {
        type            processor;
        value           uniform -2.38697448e-06;
    }
    procBoundary3to4
    {
        type            processor;
        value           uniform 3.07300282e-06;
    }
}


// ************************************************************************* //
