/*--------------------------------*- C++ -*----------------------------------*\
| =========                 |                                                 |
| \\      /  F ield         | OpenFOAM: The Open Source CFD Toolbox           |
|  \\    /   O peration     | Version:  2306                                  |
|   \\  /    A nd           | Website:  www.openfoam.com                      |
|    \\/     M anipulation  |                                                 |
\*---------------------------------------------------------------------------*/
FoamFile
{
    version     2.0;
    format      ascii;
    arch        "LSB;label=32;scalar=64";
    class       volScalarField;
    location    "0.00198";
    object      T;
}
// * * * * * * * * * * * * * * * * * * * * * * * * * * * * * * * * * * * * * //

dimensions      [0 0 0 1 0 0 0];

internalField   nonuniform List<scalar> 
531
(
330.803597
322.004284
322.065217
338.796249
339.458043
330.664269
321.94884
322.013363
338.871138
339.499488
330.153082
321.660516
321.749158
338.703266
339.57388
331.576095
322.349062
322.370842
338.908323
329.667453
322.505591
338.88207
339.932445
328.005497
326.205896
338.437168
339.838513
334.532243
329.373359
319.600717
319.835577
338.251439
339.355839
339.104057
339.728122
329.229426
322.575265
324.188738
323.686805
319.918712
326.836449
339.35749
340.844294
339.717688
340.87145
330.086138
328.297721
339.128549
340.600648
331.568939
328.711499
321.686288
321.843544
339.076645
340.266719
329.44089
325.710376
339.368231
340.126202
329.008005
324.332028
328.931773
339.507544
339.6909
339.774151
339.929369
329.075004
322.522317
323.816917
323.398392
320.061306
323.631861
339.096613
340.11033
329.599043
326.942962
339.099406
340.04025
340.005693
329.400258
324.28892
338.896476
339.907774
330.449161
326.838126
323.438757
328.378895
339.870485
340.273131
328.346256
320.323462
327.127881
339.088046
340.605947
329.661208
328.00284
339.050727
340.279625
330.763756
329.088837
325.223911
323.948443
329.649035
339.680235
329.163395
324.258062
338.988581
340.029149
332.135672
327.95042
323.043921
328.687074
339.596439
340.368708
328.650173
321.182776
328.835726
339.206517
336.163827
327.303762
325.143033
322.048496
326.318244
339.798543
340.214594
340.171955
329.158686
326.47569
339.458454
340.274427
329.003377
325.005113
339.158073
340.14652
331.507063
327.49078
323.443199
329.015818
339.661929
340.41316
328.788665
321.409782
329.115508
339.1939
336.741783
329.458818
318.918442
319.253368
339.25788
339.488043
339.461337
329.493647
323.545892
339.589395
339.737235
329.154425
324.129438
329.313119
339.873234
340.210748
328.877977
320.791522
325.580716
339.496215
340.074004
329.785666
323.572658
329.177302
339.823191
329.017816
325.424023
339.927213
339.723379
329.778485
329.652262
321.873023
321.960378
339.56238
340.08165
329.658571
325.012512
322.619268
326.039387
339.675509
340.391452
329.280486
324.28898
340.348872
340.221132
328.727168
323.787913
329.775553
339.533616
340.358627
329.727302
326.830807
339.213167
334.340234
319.53223
328.757293
339.169418
340.929313
339.568869
327.918185
318.817804
328.854607
339.387748
331.448438
320.403951
319.292257
328.816842
339.336212
340.586017
329.927534
326.756939
338.873481
332.122509
318.648962
328.942999
338.750474
340.061804
339.287027
321.250374
318.377203
339.179453
339.145951
329.709233
318.04535
318.136237
339.418019
339.413617
329.530567
324.661325
325.290106
319.471033
319.650965
338.654456
339.708212
338.721715
339.863626
338.589146
339.869534
335.308451
329.306448
319.001828
319.215685
339.746687
339.627621
328.90469
322.46553
328.787945
339.18059
340.564724
329.92301
327.672503
339.03175
329.456419
316.304183
339.505299
339.12138
329.508106
318.386485
318.687696
338.91467
339.95788
339.23761
328.924846
322.04219
328.733713
339.430551
340.273416
339.867226
331.803377
325.93219
323.368503
323.166928
319.012678
325.587384
339.749438
340.003278
339.960949
329.630451
329.224117
339.487047
340.043094
330.253911
329.374834
321.171834
321.324046
339.044388
339.692792
328.196932
323.093016
339.252623
339.299836
330.075635
319.312495
319.440222
339.051857
339.495593
328.264403
322.707111
339.207446
339.140575
330.06801
318.219021
318.431973
338.932584
339.61404
325.288868
323.067743
338.69279
339.967506
338.941728
328.869522
322.061903
328.792933
339.62913
340.800224
340.069038
328.655594
321.057173
330.356049
339.728043
329.158563
322.57734
339.643099
339.767723
328.071914
325.40569
339.37691
339.694575
329.816569
328.398355
319.958337
320.108893
339.291195
339.613869
326.791055
322.58892
339.564114
339.43137
329.74238
322.385821
322.267563
331.068789
339.041318
338.991533
338.951045
338.937155
320.381085
318.742909
339.432318
339.277096
329.592185
320.001049
319.864169
330.64773
339.677201
328.508798
321.879721
339.517624
339.760545
324.647846
323.398679
339.445217
339.561496
339.353508
328.3024
323.802614
339.501483
339.579516
328.515026
324.003834
339.573556
339.228504
330.169332
319.709076
319.845208
339.43268
339.561687
328.007687
323.227771
339.474088
339.22547
330.055523
319.782803
319.902931
339.400286
339.527814
328.165146
323.302347
339.468154
339.166224
330.108588
319.50878
319.727906
339.183827
339.754762
327.381468
323.59329
339.094773
339.844295
327.908278
324.5258
339.220733
339.732618
328.63544
324.505568
339.405271
339.273441
330.418817
319.806344
319.982254
339.141632
339.807848
326.81288
323.489036
339.076099
339.875734
326.298163
325.004835
339.260097
339.730181
339.469896
329.53057
324.846573
332.682964
339.351947
339.709937
326.886532
320.141382
337.163832
339.569798
327.997028
325.983126
339.090815
339.712158
330.645089
329.470668
323.044728
323.110723
339.116249
339.665677
329.829452
329.000822
321.867455
321.926597
339.001461
329.402719
319.383265
339.141082
339.63701
328.000839
324.025681
339.221621
339.698059
329.325632
327.199595
325.160578
321.61124
328.586458
339.262147
340.557786
339.718315
340.168133
329.347011
324.451175
339.052047
339.561809
330.324848
319.97756
320.103493
338.348241
329.226154
318.452338
338.830866
339.285205
329.866023
320.431739
320.543479
338.38363
339.506331
339.483699
329.762938
326.516686
338.307128
339.3446
333.907726
320.959243
320.543614
337.655125
339.697985
339.462095
329.593977
326.900026
318.086422
318.095741
338.068782
339.555696
339.511149
329.627282
324.051524
338.537814
339.761148
330.005485
327.008768
338.53644
339.667861
330.47926
329.658016
322.778283
322.869459
338.325296
339.245044
330.444109
321.571846
321.665969
338.089557
339.166517
330.456053
321.177141
321.275451
337.937803
339.145474
330.164038
317.853823
317.910692
334.343434
339.286659
339.356082
)
;

boundaryField
{
    closed
    {
        type            fixedValue;
        value           nonuniform List<scalar> 0();
    }
    open
    {
        type            zeroGradient;
    }
    sides
    {
        type            empty;
    }
    procBoundary3to2
    {
        type            processor;
        value           uniform 339.380131;
    }
    procBoundary3to4
    {
        type            processor;
        value           uniform 339.41882;
    }
}


// ************************************************************************* //
