/*--------------------------------*- C++ -*----------------------------------*\
| =========                 |                                                 |
| \\      /  F ield         | OpenFOAM: The Open Source CFD Toolbox           |
|  \\    /   O peration     | Version:  2306                                  |
|   \\  /    A nd           | Website:  www.openfoam.com                      |
|    \\/     M anipulation  |                                                 |
\*---------------------------------------------------------------------------*/
FoamFile
{
    version     2.0;
    format      ascii;
    arch        "LSB;label=32;scalar=64";
    class       volScalarField;
    location    "0.00066";
    object      prefDPV_H2;
}
// * * * * * * * * * * * * * * * * * * * * * * * * * * * * * * * * * * * * * //

dimensions      [1 -1 -1 0 0 0 0];

internalField   nonuniform List<scalar> 
531
(
-3.06440181e-05
-3.08933131e-05
-3.1535499e-05
-3.10535853e-05
-3.06971281e-05
-3.08925627e-05
-3.15598922e-05
-3.15745187e-05
-3.08945546e-05
-3.05815506e-05
-3.08955802e-05
-3.15527393e-05
-3.15666529e-05
-3.07701262e-05
-3.04016978e-05
-3.08976473e-05
-3.15328936e-05
-3.09555805e-05
-3.06492043e-05
-3.09308707e-05
-3.15526758e-05
-3.09874648e-05
-3.07225505e-05
-3.08850285e-05
-3.15638014e-05
-3.15835436e-05
-3.09121218e-05
-3.06633359e-05
-3.05798986e-05
-3.08996908e-05
-3.15547015e-05
-3.15574216e-05
-3.15511604e-05
-3.15493296e-05
-3.09100864e-05
-3.07078455e-05
-3.0722082e-05
-3.06198326e-05
-3.03724555e-05
-3.08508498e-05
-3.1532259e-05
-3.1514158e-05
-3.15235553e-05
-3.1252612e-05
-3.07556907e-05
-3.04843347e-05
-3.09137226e-05
-3.15258669e-05
-3.15338456e-05
-3.0730672e-05
-3.04860966e-05
-3.09216426e-05
-3.1523185e-05
-3.14836867e-05
-3.07572872e-05
-3.03889393e-05
-3.08988628e-05
-3.15247803e-05
-3.15532171e-05
-3.15397153e-05
-3.15417482e-05
-3.09046017e-05
-3.06574942e-05
-3.06861597e-05
-3.04676124e-05
-3.08876262e-05
-3.15409249e-05
-3.15667905e-05
-3.09882731e-05
-3.07148661e-05
-3.06408426e-05
-3.09773412e-05
-3.15377378e-05
-3.12732789e-05
-3.07989051e-05
-3.05746091e-05
-3.09122326e-05
-3.15363414e-05
-3.15510721e-05
-3.08643376e-05
-3.05352522e-05
-3.08998955e-05
-3.15310245e-05
-3.15642376e-05
-3.09301776e-05
-3.06304251e-05
-3.05548276e-05
-3.09371174e-05
-3.15301615e-05
-3.09033511e-05
-3.06500732e-05
-3.10275447e-05
-3.15350843e-05
-3.09070992e-05
-3.07064229e-05
-3.09068769e-05
-3.15498473e-05
-3.15427903e-05
-3.07778936e-05
-3.04462678e-05
-3.09584793e-05
-3.15220021e-05
-3.09117301e-05
-3.07024585e-05
-3.08995993e-05
-3.15568109e-05
-3.15383784e-05
-3.08987705e-05
-3.04313886e-05
-3.0787407e-05
-3.14778496e-05
-3.15512514e-05
-3.12130658e-05
-3.09159998e-05
-3.06402445e-05
-3.05788298e-05
-3.09141849e-05
-3.15550114e-05
-3.15444575e-05
-3.08609086e-05
-3.04965394e-05
-3.09387228e-05
-3.15136175e-05
-3.09001605e-05
-3.06365242e-05
-3.10122485e-05
-3.15268246e-05
-3.08908663e-05
-3.06427792e-05
-3.10420245e-05
-3.1535929e-05
-3.08952789e-05
-3.06955933e-05
-3.09170639e-05
-3.15465951e-05
-3.15094969e-05
-3.07758286e-05
-3.04194946e-05
-3.09616502e-05
-3.15134547e-05
-3.08897881e-05
-3.06869783e-05
-3.09467263e-05
-3.15375507e-05
-3.13430537e-05
-3.07410605e-05
-3.04559675e-05
-3.09869603e-05
-3.15168761e-05
-3.08955422e-05
-3.06944172e-05
-3.09046014e-05
-3.15452082e-05
-3.15585123e-05
-3.08329719e-05
-3.05638921e-05
-3.10436182e-05
-3.15141608e-05
-3.09394318e-05
-3.06092044e-05
-3.09016907e-05
-3.15384199e-05
-3.15307105e-05
-3.09299097e-05
-3.0540667e-05
-3.06040324e-05
-3.13445808e-05
-3.15289924e-05
-3.10251064e-05
-3.07016494e-05
-3.0652e-05
-3.10169518e-05
-3.15387307e-05
-3.12487616e-05
-3.07835139e-05
-3.06383455e-05
-3.0954743e-05
-3.15455037e-05
-3.1514647e-05
-3.0902669e-05
-3.04318007e-05
-3.07010549e-05
-3.12035366e-05
-3.15427553e-05
-3.14985235e-05
-3.09191222e-05
-3.08535307e-05
-3.07395401e-05
-3.05941017e-05
-3.09087053e-05
-3.15300916e-05
-3.1515623e-05
-3.09044191e-05
-3.0525826e-05
-3.08952794e-05
-3.14821917e-05
-3.11140289e-05
-3.07095132e-05
-3.09196756e-05
-3.14936208e-05
-3.12408177e-05
-3.07141067e-05
-3.08884735e-05
-3.14976022e-05
-3.14823483e-05
-3.07512199e-05
-3.0754588e-05
-3.15056129e-05
-3.15104062e-05
-3.09275525e-05
-3.05423497e-05
-3.06374443e-05
-3.1388454e-05
-3.15167543e-05
-3.09535188e-05
-3.06103241e-05
-3.07043497e-05
-3.14589295e-05
-3.15152105e-05
-3.09283902e-05
-3.05879593e-05
-3.07513773e-05
-3.1467411e-05
-3.15132715e-05
-3.09143069e-05
-3.05844617e-05
-3.08514359e-05
-3.14530506e-05
-3.14584157e-05
-3.08429356e-05
-3.08370408e-05
-3.14595555e-05
-3.14950925e-05
-3.08995175e-05
-3.0488967e-05
-3.08033997e-05
-3.14290664e-05
-3.13877384e-05
-3.08123033e-05
-3.09120359e-05
-3.14436806e-05
-3.13207e-05
-3.08267503e-05
-3.08638036e-05
-3.1441728e-05
-3.15007447e-05
-3.0889862e-05
-3.06042119e-05
-3.08846706e-05
-3.14398751e-05
-3.11501168e-05
-3.08097155e-05
-3.09292237e-05
-3.14307992e-05
-3.14922847e-05
-3.0891833e-05
-3.06154175e-05
-3.09068403e-05
-3.14190933e-05
-3.14805429e-05
-3.08838989e-05
-3.042849e-05
-3.06778802e-05
-3.11983506e-05
-3.15290182e-05
-3.14593271e-05
-3.15234392e-05
-3.14996597e-05
-3.0893004e-05
-3.07365223e-05
-3.07109507e-05
-3.06125496e-05
-3.04985849e-05
-3.08822784e-05
-3.13459866e-05
-3.09427796e-05
-3.08206228e-05
-3.0913301e-05
-3.14344999e-05
-3.09982885e-05
-3.08512014e-05
-3.08950627e-05
-3.14244115e-05
-3.14635466e-05
-3.08937639e-05
-3.06820742e-05
-3.08858185e-05
-3.14273406e-05
-3.12537168e-05
-3.07737766e-05
-3.08480364e-05
-3.13591332e-05
-3.13770011e-05
-3.09071732e-05
-3.07140098e-05
-3.09048575e-05
-3.14378035e-05
-3.11949221e-05
-3.07515083e-05
-3.08612819e-05
-3.13622002e-05
-3.13087679e-05
-3.09169657e-05
-3.07262109e-05
-3.09304351e-05
-3.14615298e-05
-3.13295685e-05
-3.0891827e-05
-3.06338156e-05
-3.08930192e-05
-3.14397339e-05
-3.12674615e-05
-3.08800425e-05
-3.06351427e-05
-3.09147857e-05
-3.14514215e-05
-3.12222956e-05
-3.08510266e-05
-3.06400948e-05
-3.09410486e-05
-3.14603956e-05
-3.1170308e-05
-3.08084277e-05
-3.0661341e-05
-3.10045373e-05
-3.1479075e-05
-3.10972745e-05
-3.07412485e-05
-3.06726636e-05
-3.10958055e-05
-3.14931775e-05
-3.09992525e-05
-3.06530181e-05
-3.08362455e-05
-3.12678341e-05
-3.1481324e-05
-3.08928889e-05
-3.05487923e-05
-3.08464998e-05
-3.138844e-05
-3.13916502e-05
-3.09065145e-05
-3.05804577e-05
-3.08738865e-05
-3.14316629e-05
-3.09431293e-05
-3.07451137e-05
-3.09026295e-05
-3.14606659e-05
-3.14390636e-05
-3.08794909e-05
-3.05921041e-05
-3.05910775e-05
-3.12710151e-05
-3.1518769e-05
-3.09985989e-05
-3.06044643e-05
-3.07914297e-05
-3.12489678e-05
-3.1542291e-05
-3.15254457e-05
-3.09372771e-05
-3.04126506e-05
-3.02877255e-05
-3.09508357e-05
-3.14718506e-05
-3.09603943e-05
-3.06311317e-05
-3.06896318e-05
-3.13803825e-05
-3.15475289e-05
-3.09169137e-05
-3.04690882e-05
-3.08288637e-05
-3.14332453e-05
-3.16390403e-05
-3.16020532e-05
-3.0839405e-05
-3.0227854e-05
-3.03997211e-05
-3.14796474e-05
-3.08229156e-05
-3.04329642e-05
-3.13510227e-05
-3.17189982e-05
-3.17047626e-05
-3.08004743e-05
-3.04604011e-05
-3.15308051e-05
-3.17775887e-05
-3.05909219e-05
-3.01366478e-05
-3.10721e-05
-3.15903165e-05
-3.15016038e-05
-3.15457174e-05
-3.15085842e-05
-3.15313174e-05
-3.15230396e-05
-3.15495048e-05
-3.15655151e-05
-3.16004482e-05
-3.16418393e-05
-3.16951945e-05
-3.17897156e-05
-3.19171353e-05
-3.22434444e-05
-3.21840793e-05
-3.19594455e-05
-3.18182279e-05
-3.16503526e-05
-3.15549868e-05
-3.14494171e-05
-3.14124563e-05
-3.12794818e-05
-3.12929049e-05
-3.11776681e-05
-3.11020935e-05
-3.10495143e-05
-3.10198537e-05
-3.10540357e-05
-3.08596558e-05
-3.0750436e-05
-3.05592384e-05
-3.22613245e-05
-3.22809949e-05
-3.08364984e-05
-3.17051573e-05
-3.12395326e-05
-3.09408109e-05
-3.05929396e-05
-3.14024427e-05
-3.33275865e-05
-3.36539279e-05
-3.49499796e-05
-3.52311048e-05
-3.59527399e-05
-3.77968745e-05
-4.09025248e-05
-4.18641509e-05
-4.65444014e-05
-4.9806028e-05
-5.23101735e-05
-5.46709746e-05
-6.03180989e-05
-6.21774295e-05
-6.38824477e-05
-6.54207661e-05
-6.70134548e-05
-6.86549533e-05
-7.02137283e-05
-7.15248871e-05
-7.2909545e-05
-7.40734236e-05
-7.52471779e-05
-7.6236958e-05
-7.72523991e-05
-7.80790469e-05
-7.8930984e-05
-7.95634571e-05
-8.0193499e-05
-8.06923661e-05
-8.12696516e-05
-8.17209885e-05
-8.22442392e-05
-8.26398325e-05
-8.31416636e-05
-8.34973735e-05
-8.3983876e-05
-8.42872673e-05
-8.47986662e-05
-8.51276648e-05
-8.56003514e-05
-8.59060441e-05
-8.63240356e-05
-8.66324348e-05
-8.70314746e-05
-8.73583264e-05
-8.77467589e-05
-8.79628019e-05
-8.82276792e-05
-8.84279777e-05
-8.86748735e-05
-8.88674598e-05
-8.90989179e-05
-8.92830595e-05
-8.95010587e-05
-8.96915487e-05
-8.9908751e-05
-9.00984017e-05
-9.03131006e-05
-9.05053959e-05
-9.070485e-05
-9.08775373e-05
-9.10550059e-05
-9.12098086e-05
-9.13701388e-05
-9.15043354e-05
-9.16462343e-05
-9.1772322e-05
-9.19094358e-05
-9.2040128e-05
-9.2182747e-05
-9.23109091e-05
-9.24564662e-05
-9.26046331e-05
-9.2744254e-05
-9.28592205e-05
-9.2986977e-05
-9.30938731e-05
-9.32142949e-05
-9.33142456e-05
-9.34293026e-05
-9.3523263e-05
-9.36305151e-05
-9.3717176e-05
-9.38172726e-05
-9.38976468e-05
-9.39915133e-05
-9.4064198e-05
-9.41454342e-05
-9.42099344e-05
-9.4287881e-05
-9.43491339e-05
-9.44240151e-05
-9.44822482e-05
-9.45542755e-05
-9.46097065e-05
-9.46762487e-05
-9.47264093e-05
-9.47930592e-05
)
;

boundaryField
{
    closed
    {
        type            calculated;
        value           nonuniform List<scalar> 0();
    }
    open
    {
        type            calculated;
        value           nonuniform List<scalar> 0();
    }
    sides
    {
        type            empty;
    }
    procBoundary4to3
    {
        type            processor;
        value           uniform -3.10319741e-05;
    }
    procBoundary4to5
    {
        type            processor;
        value           uniform -9.48442437e-05;
    }
}


// ************************************************************************* //
