/*--------------------------------*- C++ -*----------------------------------*\
| =========                 |                                                 |
| \\      /  F ield         | OpenFOAM: The Open Source CFD Toolbox           |
|  \\    /   O peration     | Version:  2306                                  |
|   \\  /    A nd           | Website:  www.openfoam.com                      |
|    \\/     M anipulation  |                                                 |
\*---------------------------------------------------------------------------*/
FoamFile
{
    version     2.0;
    format      ascii;
    arch        "LSB;label=32;scalar=64";
    class       volScalarField;
    location    "0.00096";
    object      h;
}
// * * * * * * * * * * * * * * * * * * * * * * * * * * * * * * * * * * * * * //

dimensions      [0 2 -2 0 0 0 0];

internalField   nonuniform List<scalar> 
530
(
-1745.78699
-1114.97856
-600.276796
17.4905236
523.219716
1129.94375
1542.52624
2039.31104
2428.6427
2922.95092
3298.64336
3789.23305
4207.63768
4755.44134
5163.2989
5701.48243
6102.07037
6632.40839
7023.87449
7515.77273
7824.27133
8253.64136
8554.74897
8974.67565
9266.0864
9678.28709
9960.77889
10365.1114
10640.236
11036.8255
11305.4578
11695.2689
11957.4291
12342.2851
12597.2772
12979.9181
13226.6123
13610.5223
13847.9498
14187.6835
14371.6943
14671.3998
14876.104
15126.5468
15325.5303
15545.1473
15784.9983
16010.4432
16228.6721
16466.7398
16665.4356
16908.5337
17099.5381
17336.2598
17530.193
17753.5258
17955.084
18163.3835
18372.7363
18567.3586
18782.9943
18965.9154
19186.5991
19359.0998
19584.7729
19746.8967
19979.1531
20129.2875
20339.908
20444.2866
20635.1613
20752.6379
20911.0351
21041.6095
21159.6894
21308.0949
21456.3228
21564.9718
21734.4892
21823.1399
21997.871
22081.6037
22250.1974
22334.699
22494.3025
22580.5905
22731.5177
22818.6764
22962.1142
23048.9605
23185.987
23271.6573
23402.9829
23487.0118
23613.0227
23695.2393
23816.1217
23896.5222
24012.3741
24091.0236
24201.9297
24278.9045
24384.9746
24460.3363
24561.7206
24635.51
24732.399
24804.6411
24897.2593
24967.9684
25056.5705
25125.7445
25210.6237
25278.2202
25359.7254
25425.771
25504.0011
25562.2759
25611.5871
25647.5462
25693.8867
25727.0961
25768.897
25799.3807
25836.7768
25864.3643
25897.422
25922.0879
25950.731
25972.5162
25996.637
26015.5717
26035.1172
26051.1841
26066.219
26079.3507
26090.0789
26100.2108
26106.8712
26114.0345
26116.7557
26119.8404
26121.6772
26120.775
26118.1725
26114.021
26107.2398
26099.9564
26088.0506
26077.9757
26061.3658
26048.1286
26027.4915
26010.8652
25986.5747
25966.6083
25938.7442
25915.5813
25884.0994
25857.8353
25822.7028
25793.3477
25754.5998
25722.1047
25679.8401
25644.1379
25598.4886
25559.5259
25510.6265
25468.3798
25416.358
25373.2441
25320.5656
25274.4366
25218.9183
25169.653
25111.3763
25059.034
24998.0772
24942.722
24879.1624
24820.8625
24754.7774
24693.6052
24625.0721
24561.104
24490.2021
24423.5181
24350.3281
24281.0126
24205.6168
24133.7583
24056.2407
23981.9321
23902.3785
23825.7176
23744.2155
23665.3046
23581.944
23500.8894
23415.7636
23332.6754
23245.8813
23160.873
23072.5114
22985.752
22896.5112
22808.4115
22717.4748
22627.4493
22534.958
22443.1461
22349.2491
22255.7965
22160.6433
22065.7116
21969.4426
21873.2181
21775.9609
21678.6486
21580.534
21482.3282
21374.714
21262.3469
21150.069
21036.3666
20922.6759
20807.7098
20692.7086
20576.5485
20460.3385
20343.0477
20225.7342
20107.3748
19989.0634
19869.7027
19750.8633
19632.3472
19514.0949
19395.0409
19276.2114
19156.6672
19037.3364
18917.3541
18797.5929
18677.2285
18557.1034
18436.4157
18315.9898
18195.0384
18074.3729
17953.2174
17832.3717
17711.0711
17590.1038
17468.7161
17347.6849
17226.2672
17105.2289
16983.8372
16862.8478
16741.5373
16620.6519
16499.4766
16378.7494
16257.7627
16137.247
16016.501
15896.2494
15775.7955
15655.8594
15535.7481
15416.1781
15296.4588
15177.3048
15058.026
14939.3368
14820.546
14702.3697
14584.1134
14466.497
14348.8209
14231.8101
14114.7598
13998.3983
13882.0194
13766.3485
13650.6874
13535.7456
13420.8489
13306.6736
13192.5834
13079.217
12965.9627
12853.461
12741.0526
12630.5678
12520.5805
12411.3373
12302.1758
12193.7661
12085.4591
11977.9374
11870.5254
11763.9349
11657.4613
11551.8406
11446.3477
11341.7335
11237.2612
11133.689
11030.2748
10927.7791
10825.4587
10724.0726
10622.8798
10522.6346
10422.6018
10323.5273
10224.6851
10126.8098
10029.1866
9932.53826
9836.1595
9740.76624
9645.65332
9551.54361
9457.71414
9364.91521
9272.30991
9180.43812
9088.88383
8998.38049
8908.23285
8819.12044
8730.38958
8642.68652
8555.38349
8469.10437
8383.24058
8298.39733
8213.9837
8130.58646
8047.63288
7965.69044
7884.2055
7803.72541
7723.71636
7644.70499
7566.17773
7488.64023
7411.59936
7335.53968
7259.9885
7185.40935
7111.34988
7038.2528
6965.6858
6894.07107
6822.99605
6752.86281
6683.27804
6614.62421
6546.52673
6479.34909
6412.73475
6347.02889
6281.89236
6217.65277
6153.98755
6091.2076
6029.00607
5967.67805
5906.93147
5847.04664
5787.74522
5729.29378
5671.42672
5614.39791
5557.9534
5502.3355
5447.3008
5393.08121
5339.44269
5286.60791
5234.35108
5182.88681
5131.9964
5081.88755
5032.34754
4983.57829
4935.37195
4887.92579
4841.03576
4794.89555
4749.30386
4704.45185
4660.13999
4616.55787
4573.50683
4531.17578
4489.36609
4448.26684
4407.67862
4367.79144
4328.40444
4289.70923
4251.50286
4213.97915
4176.93255
4140.55955
4104.65159
4069.40821
4034.61752
4000.48244
3966.78748
3933.73911
3901.11817
3869.13476
3837.56597
3806.62557
3776.08699
3746.16752
3716.63708
3687.71633
3659.17193
3631.2276
3603.64707
3576.65679
3550.01797
3523.95932
3498.24003
3473.09057
3448.26867
3424.00596
3400.05934
3376.66098
3353.56759
3331.01122
3308.7491
3287.01244
3265.55974
3244.6206
3223.95559
3203.7919
3183.893
3164.48286
3145.32863
3126.6503
3108.21953
3090.25148
3072.52315
3055.22591
3037.53563
3019.09679
2999.67075
2979.49117
2958.3081
2936.38909
2913.47855
2889.87839
2865.33597
2840.18507
2814.18821
2787.70401
2760.52685
2733.02664
2705.05108
2676.95978
2648.67926
2620.52854
2592.53979
2564.9548
2537.93301
2511.60298
2486.2569
2461.8873
2438.89465
2417.14048
2397.07039
2378.45382
2361.69176
2346.51626
2333.21093
2321.50204
2311.54538
2303.06013
2296.09643
2290.40782
2285.89268
2282.39173
2280.2753
2277.53538
2275.5566
2274.54399
2274.11579
2273.95294
2273.90249
2273.89177
2273.89133
2273.89272
2273.89377
2273.89432
2273.89452
2273.89458
2273.8946
2273.89461
2273.89461
2273.89461
2273.89461
2273.89461
2273.89461
2273.89461
2273.89461
2273.89461
2273.89461
2273.89461
2273.89461
2273.89461
2273.89461
2273.89461
2273.89461
2273.89461
2273.89461
2273.89461
2273.89461
2273.89461
2273.89461
2273.89461
2273.89461
)
;

boundaryField
{
    closed
    {
        type            lookUpEnthalpy;
        h0              nonuniform List<scalar> 0();
        value           nonuniform List<scalar> 0();
    }
    open
    {
        type            zeroGradient;
    }
    sides
    {
        type            empty;
    }
    procBoundary5to4
    {
        type            processor;
        value           uniform -2275.02314;
    }
}


// ************************************************************************* //
