/*--------------------------------*- C++ -*----------------------------------*\
| =========                 |                                                 |
| \\      /  F ield         | OpenFOAM: The Open Source CFD Toolbox           |
|  \\    /   O peration     | Version:  2306                                  |
|   \\  /    A nd           | Website:  www.openfoam.com                      |
|    \\/     M anipulation  |                                                 |
\*---------------------------------------------------------------------------*/
FoamFile
{
    version     2.0;
    format      ascii;
    arch        "LSB;label=32;scalar=64";
    class       volScalarField;
    location    "0.00096";
    object      prefDPV_T;
}
// * * * * * * * * * * * * * * * * * * * * * * * * * * * * * * * * * * * * * //

dimensions      [1 -1 -1 -1 0 0 0];

internalField   nonuniform List<scalar> 
530
(
-3.7791139e-11
-3.79236224e-11
-3.8043559e-11
-3.81701453e-11
-3.82844626e-11
-3.8405495e-11
-3.85171187e-11
-3.86360048e-11
-3.87432145e-11
-3.88572135e-11
-3.89600921e-11
-3.90695237e-11
-3.91737514e-11
-3.92856415e-11
-3.9385197e-11
-3.94927789e-11
-3.95879002e-11
-3.96914629e-11
-3.97824229e-11
-3.98825738e-11
-3.99705695e-11
-4.00677056e-11
-4.01518854e-11
-4.02455088e-11
-4.03260205e-11
-4.04162978e-11
-4.04932639e-11
-4.05803777e-11
-4.06539076e-11
-4.07380364e-11
-4.08082513e-11
-4.08895408e-11
-4.09566088e-11
-4.10351312e-11
-4.1099313e-11
-4.11750129e-11
-4.12367095e-11
-4.13093489e-11
-4.1369128e-11
-4.14388512e-11
-4.14980213e-11
-4.15640486e-11
-4.16229794e-11
-4.16840394e-11
-4.17405371e-11
-4.17984819e-11
-4.18549689e-11
-4.19116728e-11
-4.19651715e-11
-4.20206226e-11
-4.20713129e-11
-4.21255677e-11
-4.21736897e-11
-4.2226509e-11
-4.22725236e-11
-4.23235279e-11
-4.2367957e-11
-4.24167838e-11
-4.24600787e-11
-4.25064713e-11
-4.25489506e-11
-4.25927925e-11
-4.26346227e-11
-4.26759529e-11
-4.27171301e-11
-4.27561783e-11
-4.27964789e-11
-4.28337507e-11
-4.2873167e-11
-4.29101781e-11
-4.29475315e-11
-4.29850536e-11
-4.30185682e-11
-4.30551937e-11
-4.30864213e-11
-4.31226736e-11
-4.31547672e-11
-4.31872807e-11
-4.32204952e-11
-4.32496101e-11
-4.32834027e-11
-4.3309851e-11
-4.33434932e-11
-4.33680366e-11
-4.34009409e-11
-4.34241321e-11
-4.34559334e-11
-4.3478108e-11
-4.35086258e-11
-4.35299608e-11
-4.35591367e-11
-4.35797126e-11
-4.36075574e-11
-4.36274029e-11
-4.36539613e-11
-4.36730821e-11
-4.36984111e-11
-4.37168062e-11
-4.37409637e-11
-4.37586336e-11
-4.37816731e-11
-4.37986231e-11
-4.38205922e-11
-4.38368328e-11
-4.3857773e-11
-4.38733195e-11
-4.38932675e-11
-4.39081386e-11
-4.3927127e-11
-4.39413443e-11
-4.39594024e-11
-4.39729898e-11
-4.39901435e-11
-4.40031247e-11
-4.40194002e-11
-4.40317865e-11
-4.404723e-11
-4.4059093e-11
-4.40741067e-11
-4.4085787e-11
-4.4099962e-11
-4.41111669e-11
-4.41245713e-11
-4.41352994e-11
-4.41479507e-11
-4.415822e-11
-4.41701207e-11
-4.41799509e-11
-4.41911046e-11
-4.42005117e-11
-4.42109269e-11
-4.42199222e-11
-4.42296132e-11
-4.42382042e-11
-4.424719e-11
-4.42553836e-11
-4.42636817e-11
-4.42714955e-11
-4.42791049e-11
-4.42865835e-11
-4.42934682e-11
-4.43006394e-11
-4.43068488e-11
-4.43135554e-11
-4.43193716e-11
-4.43254843e-11
-4.43308864e-11
-4.43364629e-11
-4.4341374e-11
-4.43464807e-11
-4.43508921e-11
-4.43555425e-11
-4.43594821e-11
-4.43636725e-11
-4.43671694e-11
-4.43709025e-11
-4.43739748e-11
-4.43772635e-11
-4.43799189e-11
-4.4382782e-11
-4.43850225e-11
-4.43874798e-11
-4.43893066e-11
-4.43913758e-11
-4.4392792e-11
-4.43944876e-11
-4.43954996e-11
-4.43968325e-11
-4.43974503e-11
-4.43984291e-11
-4.43986633e-11
-4.43990618e-11
-4.43987055e-11
-4.43987583e-11
-4.4398055e-11
-4.43977876e-11
-4.43967527e-11
-4.43961731e-11
-4.43948217e-11
-4.43939386e-11
-4.43922846e-11
-4.43911077e-11
-4.43891646e-11
-4.43877039e-11
-4.43854845e-11
-4.43837506e-11
-4.43812675e-11
-4.4379271e-11
-4.43765366e-11
-4.43742881e-11
-4.43713148e-11
-4.4368825e-11
-4.4365625e-11
-4.43629044e-11
-4.43594899e-11
-4.43565491e-11
-4.43529323e-11
-4.43497816e-11
-4.43459746e-11
-4.43426245e-11
-4.43386392e-11
-4.43351001e-11
-4.43309482e-11
-4.43272309e-11
-4.43229238e-11
-4.43190531e-11
-4.43147642e-11
-4.43108637e-11
-4.43063713e-11
-4.43022703e-11
-4.42975879e-11
-4.42932985e-11
-4.42884401e-11
-4.4283974e-11
-4.42789537e-11
-4.42743222e-11
-4.42691545e-11
-4.42643688e-11
-4.42590676e-11
-4.42541396e-11
-4.4248718e-11
-4.42436604e-11
-4.42380421e-11
-4.42327696e-11
-4.42270758e-11
-4.4221736e-11
-4.42160033e-11
-4.42106046e-11
-4.42048388e-11
-4.41993893e-11
-4.41935958e-11
-4.4188104e-11
-4.41822875e-11
-4.41767622e-11
-4.41709269e-11
-4.41653765e-11
-4.41594612e-11
-4.41536111e-11
-4.41475128e-11
-4.41416951e-11
-4.41356544e-11
-4.41298752e-11
-4.41238937e-11
-4.41181583e-11
-4.41122378e-11
-4.41065509e-11
-4.41006936e-11
-4.40950591e-11
-4.40892673e-11
-4.40836887e-11
-4.40779651e-11
-4.40724456e-11
-4.40667926e-11
-4.4061335e-11
-4.40557551e-11
-4.40503623e-11
-4.40448579e-11
-4.40395325e-11
-4.40341056e-11
-4.40288502e-11
-4.40235028e-11
-4.40183199e-11
-4.4013054e-11
-4.40079458e-11
-4.40027631e-11
-4.39977318e-11
-4.39926341e-11
-4.39876817e-11
-4.39826703e-11
-4.39777987e-11
-4.39728753e-11
-4.39680862e-11
-4.39632519e-11
-4.39585471e-11
-4.39538031e-11
-4.39491841e-11
-4.39445314e-11
-4.39399996e-11
-4.39354391e-11
-4.39309959e-11
-4.39265285e-11
-4.39221748e-11
-4.39178014e-11
-4.3913538e-11
-4.39092596e-11
-4.39050869e-11
-4.39009046e-11
-4.38968227e-11
-4.38927377e-11
-4.38887466e-11
-4.38847595e-11
-4.38808603e-11
-4.38769702e-11
-4.38731656e-11
-4.38693699e-11
-4.38656641e-11
-4.38621159e-11
-4.3858719e-11
-4.38553217e-11
-4.38519954e-11
-4.38486764e-11
-4.38454257e-11
-4.38421845e-11
-4.38390122e-11
-4.38358496e-11
-4.38327571e-11
-4.38296746e-11
-4.38266628e-11
-4.38236619e-11
-4.38207316e-11
-4.38178134e-11
-4.38149654e-11
-4.3812131e-11
-4.38093658e-11
-4.38066158e-11
-4.38039341e-11
-4.38012691e-11
-4.37986711e-11
-4.37960915e-11
-4.37935774e-11
-4.37910833e-11
-4.37886533e-11
-4.37862446e-11
-4.37838991e-11
-4.3781575e-11
-4.37793146e-11
-4.37770741e-11
-4.37748997e-11
-4.37727415e-11
-4.3770588e-11
-4.37681573e-11
-4.37658004e-11
-4.37634691e-11
-4.37612058e-11
-4.37589712e-11
-4.3756801e-11
-4.37546608e-11
-4.37525829e-11
-4.37505351e-11
-4.37485483e-11
-4.37465912e-11
-4.37446939e-11
-4.37428259e-11
-4.37410165e-11
-4.3739236e-11
-4.37375129e-11
-4.37358181e-11
-4.37341795e-11
-4.37325688e-11
-4.3731013e-11
-4.37294845e-11
-4.37280097e-11
-4.37265617e-11
-4.37251661e-11
-4.37237967e-11
-4.37224785e-11
-4.37211858e-11
-4.37199431e-11
-4.37187253e-11
-4.37175563e-11
-4.37164114e-11
-4.37153141e-11
-4.37142403e-11
-4.37132129e-11
-4.37122082e-11
-4.37112488e-11
-4.37103112e-11
-4.37094178e-11
-4.37085455e-11
-4.37077162e-11
-4.37069072e-11
-4.37061401e-11
-4.37053924e-11
-4.37046855e-11
-4.37039973e-11
-4.37033488e-11
-4.3702718e-11
-4.37021259e-11
-4.37015508e-11
-4.37010132e-11
-4.37004917e-11
-4.37000067e-11
-4.36995371e-11
-4.36991028e-11
-4.36986831e-11
-4.36982977e-11
-4.36979261e-11
-4.36975878e-11
-4.36972624e-11
-4.36969693e-11
-4.36966884e-11
-4.36964387e-11
-4.36962005e-11
-4.36959925e-11
-4.36957951e-11
-4.36956271e-11
-4.36954689e-11
-4.36953391e-11
-4.36952184e-11
-4.36951251e-11
-4.36950402e-11
-4.36949818e-11
-4.36949311e-11
-4.36949059e-11
-4.36948878e-11
-4.36948943e-11
-4.36949072e-11
-4.36949437e-11
-4.36949861e-11
-4.36950512e-11
-4.36951215e-11
-4.36952137e-11
-4.36953106e-11
-4.36954284e-11
-4.36955502e-11
-4.36956922e-11
-4.36958377e-11
-4.36960025e-11
-4.36961703e-11
-4.36963565e-11
-4.36965453e-11
-4.36967516e-11
-4.369696e-11
-4.36971852e-11
-4.36974119e-11
-4.36976547e-11
-4.36978986e-11
-4.36981577e-11
-4.36984176e-11
-4.36986919e-11
-4.36989665e-11
-4.3699255e-11
-4.36995432e-11
-4.36998446e-11
-4.37001455e-11
-4.37004587e-11
-4.37007711e-11
-4.37010952e-11
-4.37014181e-11
-4.3701752e-11
-4.37020845e-11
-4.37024273e-11
-4.37027683e-11
-4.37031191e-11
-4.37034678e-11
-4.37038256e-11
-4.37041811e-11
-4.37045451e-11
-4.37049066e-11
-4.3705276e-11
-4.37056427e-11
-4.37060166e-11
-4.37063881e-11
-4.37067801e-11
-4.37071969e-11
-4.37076509e-11
-4.37081335e-11
-4.37086585e-11
-4.37092164e-11
-4.37098219e-11
-4.37104652e-11
-4.37111615e-11
-4.37119003e-11
-4.37126973e-11
-4.37135414e-11
-4.37144482e-11
-4.37154059e-11
-4.37164292e-11
-4.3717506e-11
-4.37186489e-11
-4.37198455e-11
-4.37211051e-11
-4.37224151e-11
-4.372378e-11
-4.37251876e-11
-4.37266353e-11
-4.37281123e-11
-4.37296073e-11
-4.37311116e-11
-4.37326046e-11
-4.37340808e-11
-4.37355107e-11
-4.37368943e-11
-4.37381954e-11
-4.3739421e-11
-4.37405351e-11
-4.37415486e-11
-4.37424397e-11
-4.37432108e-11
-4.37438688e-11
-4.37444338e-11
-4.37448018e-11
-4.37450645e-11
-4.37450193e-11
-4.37449916e-11
-4.37449763e-11
-4.37449682e-11
-4.37449643e-11
-4.37449625e-11
-4.37449619e-11
-4.37449615e-11
-4.37449614e-11
-4.37449614e-11
-4.37449614e-11
-4.37449614e-11
-4.37449614e-11
-4.37449614e-11
-4.37449614e-11
-4.37449614e-11
-4.37449614e-11
-4.37449614e-11
-4.37449614e-11
-4.37449614e-11
-4.37449614e-11
-4.37449614e-11
-4.37449614e-11
-4.37449614e-11
-4.37449614e-11
-4.37449614e-11
-4.37449614e-11
-4.37449614e-11
-4.37449614e-11
-4.37449614e-11
-4.37449614e-11
-4.37449614e-11
-4.37449614e-11
-4.37449614e-11
-4.37449614e-11
-4.37449614e-11
-4.37449614e-11
)
;

boundaryField
{
    closed
    {
        type            calculated;
        value           nonuniform List<scalar> 0();
    }
    open
    {
        type            calculated;
        value           uniform -4.37449614e-11;
    }
    sides
    {
        type            empty;
    }
    procBoundary5to4
    {
        type            processor;
        value           uniform -3.76652025e-11;
    }
}


// ************************************************************************* //
