/*--------------------------------*- C++ -*----------------------------------*\
| =========                 |                                                 |
| \\      /  F ield         | OpenFOAM: The Open Source CFD Toolbox           |
|  \\    /   O peration     | Version:  2306                                  |
|   \\  /    A nd           | Website:  www.openfoam.com                      |
|    \\/     M anipulation  |                                                 |
\*---------------------------------------------------------------------------*/
FoamFile
{
    version     2.0;
    format      ascii;
    arch        "LSB;label=32;scalar=64";
    class       volScalarField;
    location    "0.00184";
    object      prefDZ_H2;
}
// * * * * * * * * * * * * * * * * * * * * * * * * * * * * * * * * * * * * * //

dimensions      [1 -1 -1 0 0 0 0];

internalField   nonuniform List<scalar> 
530
(
6.69404227e-05
6.30456694e-05
6.23525803e-05
6.23323526e-05
6.23305641e-05
6.23304675e-05
6.23304602e-05
6.23304598e-05
6.23304597e-05
6.23304597e-05
6.23304597e-05
6.23304597e-05
6.23304597e-05
6.23304597e-05
6.23304597e-05
6.23304597e-05
6.23304597e-05
6.23304597e-05
6.23304597e-05
6.23304597e-05
6.23304597e-05
6.23304597e-05
6.23304597e-05
6.23304597e-05
6.23304597e-05
6.23304597e-05
6.23304597e-05
6.23304597e-05
6.23304597e-05
6.23304597e-05
6.23304597e-05
6.23304597e-05
6.23304597e-05
6.23304597e-05
6.23304597e-05
6.23304597e-05
6.23304597e-05
6.23304597e-05
6.23304597e-05
6.23304597e-05
6.23304597e-05
6.23304597e-05
6.23304597e-05
6.23304597e-05
6.23304597e-05
6.23304597e-05
6.23304597e-05
6.23304597e-05
6.23304597e-05
6.23304597e-05
6.23304597e-05
6.23304597e-05
6.23304597e-05
6.23304597e-05
6.23304597e-05
6.23304597e-05
6.23304597e-05
6.23304598e-05
6.23304598e-05
6.23304599e-05
6.233046e-05
6.23304606e-05
6.23304609e-05
6.23304649e-05
6.23304656e-05
6.23304842e-05
6.2330492e-05
6.23305526e-05
6.23306141e-05
6.23307678e-05
6.23308376e-05
6.23311293e-05
6.23313653e-05
6.23345736e-05
6.23355821e-05
6.23252155e-05
6.23224368e-05
6.23705651e-05
6.24042478e-05
6.22990015e-05
6.23058564e-05
6.22677911e-05
6.35217953e-05
6.36400689e-05
6.22525612e-05
6.22994034e-05
6.22879786e-05
6.23560293e-05
6.23015028e-05
6.20079298e-05
6.17342285e-05
6.22408691e-05
6.34748854e-05
6.36930731e-05
6.35635168e-05
6.22087462e-05
6.13050376e-05
6.22037607e-05
6.34303491e-05
6.36374928e-05
6.35795238e-05
6.23028421e-05
6.16229313e-05
6.09357858e-05
6.09394968e-05
6.33732039e-05
6.35027442e-05
6.34319697e-05
6.35409247e-05
6.35222977e-05
6.20327472e-05
6.13308552e-05
6.34849926e-05
6.35698156e-05
6.23505197e-05
6.19292433e-05
6.12140733e-05
6.12481049e-05
6.33656318e-05
6.35563848e-05
6.34369246e-05
6.35950349e-05
6.3509437e-05
6.22827962e-05
6.14687642e-05
6.15580166e-05
6.08837766e-05
6.0916085e-05
6.33907229e-05
6.34889622e-05
6.26016456e-05
6.15697469e-05
6.15704132e-05
6.33570714e-05
6.35248026e-05
6.34323516e-05
6.35523492e-05
6.2049704e-05
6.11350916e-05
6.34440615e-05
6.3556029e-05
6.19664566e-05
6.16183821e-05
6.34475576e-05
6.35162606e-05
6.23700144e-05
6.20391682e-05
6.2034361e-05
6.13543983e-05
6.13738741e-05
6.33458113e-05
6.34987626e-05
6.34284251e-05
6.35159529e-05
6.23682906e-05
6.13292501e-05
6.34506745e-05
6.3490476e-05
6.23793418e-05
6.12517507e-05
6.12628711e-05
6.34294297e-05
6.23504002e-05
6.11483019e-05
6.34106157e-05
6.35168383e-05
6.20419292e-05
6.15544915e-05
6.3389329e-05
6.35576561e-05
6.18655919e-05
6.17521616e-05
6.3376818e-05
6.35696646e-05
6.34186404e-05
6.2365305e-05
6.14800283e-05
6.16827446e-05
6.33698894e-05
6.34946381e-05
6.34112666e-05
6.35323643e-05
6.17217422e-05
6.12668201e-05
6.2977188e-05
6.23334368e-05
6.05996834e-05
6.34174041e-05
6.34231339e-05
6.23637487e-05
6.05037598e-05
6.05613479e-05
6.33713226e-05
6.34700737e-05
6.34627824e-05
6.21675086e-05
6.19224044e-05
6.33963036e-05
6.23467949e-05
6.08990101e-05
6.34164375e-05
6.35266971e-05
6.34651668e-05
6.23064011e-05
6.13301133e-05
6.2317419e-05
6.34085271e-05
6.35658558e-05
6.34742866e-05
6.35372359e-05
6.23733146e-05
6.14998082e-05
6.06944438e-05
6.06868991e-05
6.33373549e-05
6.34591948e-05
6.20833502e-05
6.12926787e-05
6.33688338e-05
6.34346005e-05
6.23875866e-05
6.06611342e-05
6.06803515e-05
6.3032183e-05
6.34362742e-05
6.34090055e-05
6.34307714e-05
6.26065182e-05
6.10145814e-05
6.10185382e-05
6.33705612e-05
6.34632798e-05
6.34589745e-05
6.24482283e-05
6.20737389e-05
6.33620924e-05
6.23959718e-05
6.09960565e-05
6.34069884e-05
6.34233032e-05
6.23646407e-05
6.07027581e-05
6.07429591e-05
6.33520057e-05
6.34784292e-05
6.34238509e-05
6.2041783e-05
6.09888003e-05
6.33969159e-05
6.33760312e-05
6.23558266e-05
6.33372307e-05
6.35141231e-05
6.24195266e-05
6.06146898e-05
6.06344745e-05
6.33624025e-05
6.34586098e-05
6.34485591e-05
6.22870639e-05
6.1304921e-05
6.33486842e-05
6.34739841e-05
6.17550779e-05
6.14785379e-05
6.33555623e-05
6.34743628e-05
6.34699296e-05
6.22120911e-05
6.17377315e-05
6.33369693e-05
6.26019621e-05
6.06215871e-05
6.21232961e-05
6.33943442e-05
6.36070034e-05
6.34513988e-05
6.23193298e-05
6.10790301e-05
6.11206219e-05
6.33701247e-05
6.35020732e-05
6.23810204e-05
6.05670202e-05
6.0591616e-05
6.34029111e-05
6.35103359e-05
6.34927915e-05
6.23525067e-05
6.17289434e-05
6.12410998e-05
6.12454211e-05
6.33546716e-05
6.35170488e-05
6.34243205e-05
6.35448398e-05
6.23811451e-05
6.16684688e-05
6.3424373e-05
6.35679908e-05
6.21102093e-05
6.15027634e-05
6.34052083e-05
6.35413077e-05
6.2180221e-05
6.1524151e-05
6.3415537e-05
6.34824e-05
6.2350395e-05
6.11527043e-05
6.11833947e-05
6.33668442e-05
6.35151283e-05
6.24067814e-05
6.16919979e-05
6.34019195e-05
6.34795224e-05
6.23656558e-05
6.13715962e-05
6.13846982e-05
6.33992439e-05
6.34905657e-05
6.23612674e-05
6.12002208e-05
6.1214643e-05
6.34178529e-05
6.35322224e-05
6.35069214e-05
6.23413337e-05
6.19245617e-05
6.10207535e-05
6.10188273e-05
6.34240272e-05
6.35204655e-05
6.35017901e-05
6.23807163e-05
6.15548991e-05
6.34126584e-05
6.3540565e-05
6.23182067e-05
6.17848105e-05
6.34083351e-05
6.35365823e-05
6.24172199e-05
6.18601046e-05
6.34279112e-05
6.34874979e-05
6.23648141e-05
6.15067175e-05
6.15228165e-05
6.33734795e-05
6.35462818e-05
6.24426066e-05
6.19454493e-05
6.33904964e-05
6.35373122e-05
6.23914149e-05
6.20891258e-05
6.1283605e-05
6.13164432e-05
6.33241301e-05
6.35190937e-05
6.16957821e-05
6.14538913e-05
6.31991905e-05
6.35437542e-05
6.34295956e-05
6.35672176e-05
6.3495341e-05
6.23165209e-05
6.1719931e-05
6.08433738e-05
6.08540505e-05
6.34206024e-05
6.3493575e-05
6.23359957e-05
6.09069575e-05
6.10686018e-05
6.33919907e-05
6.35183213e-05
6.34345949e-05
6.35371308e-05
6.34721755e-05
6.35484598e-05
6.25517664e-05
6.20386499e-05
6.16533222e-05
6.15547685e-05
6.05069257e-05
6.05303307e-05
6.33847325e-05
6.34986727e-05
6.34849764e-05
6.24072737e-05
6.15721882e-05
6.33917881e-05
6.35149263e-05
6.24208941e-05
6.19113069e-05
6.34002453e-05
6.35195148e-05
6.23825236e-05
6.20998735e-05
6.1440158e-05
6.14475789e-05
6.33748278e-05
6.35221528e-05
6.21487606e-05
6.15836423e-05
6.33829962e-05
6.35216718e-05
6.21701835e-05
6.13459088e-05
6.34130558e-05
6.34816723e-05
6.23518443e-05
6.04020096e-05
6.04624601e-05
6.32685364e-05
6.35199208e-05
6.34053932e-05
6.3538587e-05
6.34712945e-05
6.35501396e-05
6.35231273e-05
6.23593013e-05
6.20857344e-05
6.14108912e-05
6.14106005e-05
6.34377465e-05
6.35596515e-05
6.22277124e-05
6.17305893e-05
6.34412505e-05
6.35532862e-05
6.23515169e-05
6.19528363e-05
6.14436452e-05
6.14491503e-05
6.34341109e-05
6.3512642e-05
6.23417928e-05
6.11996639e-05
6.12119924e-05
6.34415659e-05
6.35270579e-05
6.35190305e-05
6.23809232e-05
6.19005316e-05
6.3460744e-05
6.35085741e-05
6.2353372e-05
6.1633389e-05
6.16373431e-05
6.34421658e-05
6.35153297e-05
6.23483071e-05
6.15533016e-05
6.15593213e-05
6.34482264e-05
6.35065428e-05
6.23389647e-05
6.14729799e-05
6.14837786e-05
6.34346455e-05
6.35321559e-05
6.23644476e-05
6.17950316e-05
6.10920924e-05
6.11070451e-05
6.34058464e-05
6.34990204e-05
6.34863754e-05
6.20195328e-05
6.13029295e-05
6.33834937e-05
6.35402388e-05
6.34403491e-05
6.35626959e-05
6.35099764e-05
6.23268042e-05
6.16904946e-05
6.10912413e-05
6.09457252e-05
6.34318555e-05
6.34368609e-05
6.22510975e-05
6.33964405e-05
6.35564885e-05
6.23921023e-05
6.13694832e-05
6.13774611e-05
6.345302e-05
6.3490386e-05
6.23293703e-05
6.13196979e-05
6.13533768e-05
6.34083097e-05
6.35557685e-05
6.23621469e-05
6.17746174e-05
6.34338899e-05
6.35555217e-05
6.23946578e-05
6.18263629e-05
6.34588944e-05
6.3527802e-05
6.23624099e-05
6.15408099e-05
6.15394106e-05
6.34883642e-05
6.23366886e-05
6.14019298e-05
6.34595498e-05
6.35573958e-05
6.20289528e-05
6.18376093e-05
6.34464673e-05
6.35839421e-05
6.34972448e-05
6.22972757e-05
6.13420595e-05
6.13727037e-05
6.3434981e-05
6.35765628e-05
6.21546098e-05
6.20696669e-05
6.34466123e-05
6.23145806e-05
6.12424725e-05
)
;

boundaryField
{
    closed
    {
        type            calculated;
        value           uniform 8.16596177e-05;
    }
    open
    {
        type            calculated;
        value           nonuniform List<scalar> 0();
    }
    sides
    {
        type            empty;
    }
    procBoundary0to1
    {
        type            processor;
        value           uniform 6.34619383e-05;
    }
}


// ************************************************************************* //
