/*--------------------------------*- C++ -*----------------------------------*\
| =========                 |                                                 |
| \\      /  F ield         | OpenFOAM: The Open Source CFD Toolbox           |
|  \\    /   O peration     | Version:  2306                                  |
|   \\  /    A nd           | Website:  www.openfoam.com                      |
|    \\/     M anipulation  |                                                 |
\*---------------------------------------------------------------------------*/
FoamFile
{
    version     2.0;
    format      ascii;
    arch        "LSB;label=32;scalar=64";
    class       volScalarField;
    location    "0.00184";
    object      prefDh_H;
}
// * * * * * * * * * * * * * * * * * * * * * * * * * * * * * * * * * * * * * //

dimensions      [1 1 -3 0 0 0 0];

internalField   nonuniform List<scalar> 
530
(
25456.5003
23713.6594
23403.0592
23393.9676
23393.1632
23393.1197
23393.1165
23393.1163
23393.1163
23393.1163
23393.1163
23393.1163
23393.1163
23393.1163
23393.1163
23393.1163
23393.1163
23393.1163
23393.1163
23393.1163
23393.1163
23393.1163
23393.1163
23393.1163
23393.1163
23393.1163
23393.1163
23393.1163
23393.1163
23393.1163
23393.1163
23393.1163
23393.1163
23393.1163
23393.1163
23393.1163
23393.1163
23393.1163
23393.1163
23393.1163
23393.1163
23393.1163
23393.1163
23393.1163
23393.1163
23393.1163
23393.1163
23393.1163
23393.1163
23393.1163
23393.1163
23393.1163
23393.1163
23393.1163
23393.1163
23393.1163
23393.1163
23393.1163
23393.1163
23393.1163
23393.1164
23393.1167
23393.1168
23393.1186
23393.1189
23393.1273
23393.1308
23393.158
23393.1855
23393.2545
23393.2864
23393.4186
23393.5242
23394.9445
23395.3942
23390.8655
23389.67
23410.8278
23425.6925
23379.5048
23384.0764
23366.361
23927.8254
23982.8709
23359.1949
23381.172
23374.6897
23404.6408
23381.4591
23249.6294
23125.3889
23353.7259
23906.0068
24008.3578
23948.6443
23340.0239
22931.0325
23338.3775
23884.4738
23983.0594
23955.5807
23382.8035
23074.9462
22764.2104
22765.883
23856.8716
23919.8159
23886.1217
23937.7379
23929.1235
23260.5768
22943.1408
23909.15
23951.036
23403.387
23213.6944
22889.8442
22905.6501
23853.503
23944.8484
23888.5512
23963.0655
23923.5644
23373.3419
23005.2237
23045.9547
22740.5792
22755.4927
23865.5222
23913.6181
23513.1386
23050.7159
23051.2317
23850.0256
23930.162
23886.9092
23942.6552
23268.0387
22854.6394
23889.7986
23944.4036
23230.3261
23073.0459
23892.1804
23926.7054
23411.136
23263.1066
23261.0639
22953.2139
22962.3493
23844.8555
23918.1185
23885.2767
23925.9792
23412.0943
22942.1839
23893.5354
23914.2246
23415.2086
22906.9568
22912.1363
23884.0567
23403.2979
22860.2513
23874.8969
23926.4167
23264.2685
23044.181
23864.9182
23945.5411
23184.4735
23133.6846
23858.788
23951.5867
23881.0543
23408.8448
23009.9388
23101.9615
23857.1848
23916.2164
23877.4499
23933.2587
23119.636
22914.0805
23679.9689
23395.8955
22611.9801
23878.1297
23882.4519
23409.1776
22568.5164
22594.8761
23856.298
23904.9826
23901.3759
23321.0944
23210.3593
23868.1112
23402.12
22747.469
23876.7095
23931.376
23902.368
23383.6037
22942.2601
23389.1492
23875.5095
23949.3397
23907.0485
23935.701
23414.3892
23019.0897
22654.88
22651.5325
23840.4596
23899.5125
23282.8444
22925.4082
23855.7335
23888.2105
23419.8708
22639.6798
22648.611
23704.4248
23888.7293
23876.0065
23886.4391
23515.3291
22799.5853
22801.4808
23855.7878
23902.2379
23899.7008
23447.9374
23278.7087
23852.7187
23422.5038
22791.1744
23873.3695
23882.9068
23409.539
22658.435
22677.0026
23847.5565
23908.8529
23883.6453
23264.3028
22787.8468
23868.5157
23860.0826
23406.6214
23840.8923
23925.3367
23434.7142
22618.8091
22627.8479
23851.7877
23899.7923
23894.4173
23375.0991
22930.982
23846.0437
23906.7365
23134.3778
23009.5832
23848.4792
23907.3672
23904.4684
23341.1806
23126.8743
23840.6134
23513.2538
22621.7464
23301.586
23868.5198
23969.2242
23896.9674
23388.7803
22828.7088
22848.0298
23855.9409
23919.0603
23417.3256
22597.2923
22608.6111
23870.8657
23923.768
23915.4399
23404.2277
23122.9038
22902.1136
22904.2917
23848.7061
23926.5955
23883.4849
23939.5414
23417.384
23095.8216
23881.4497
23950.179
23295.2749
23020.8577
23872.2422
23937.799
23326.9104
23030.3361
23877.342
23910.5622
23403.1593
22862.0258
22876.2881
23854.9326
23925.6951
23429.2503
23106.1582
23871.3608
23909.4784
23409.584
22961.061
22967.2503
23870.0452
23914.3171
23407.6328
22883.646
22890.4088
23878.3587
23934.15
23922.4821
23399.4346
23211.3734
22802.6341
22801.8398
23880.311
23928.5433
23919.1286
23417.6034
23044.2988
23876.0634
23937.6487
23389.3057
23148.306
23874.2065
23935.9891
23434.0977
23182.2377
23883.4394
23913.3333
23408.8547
23022.1547
23029.8541
23858.2395
23940.3874
23445.3471
23220.9514
23866.3592
23936.5942
23421.5905
23285.8599
22921.157
22936.4445
23834.6748
23927.5443
23107.5932
22998.6895
23778.7796
23939.0401
23885.1151
23950.2441
23917.1256
23388.5213
23118.7714
22722.5726
22727.3477
23878.8159
23915.1581
23397.2893
22750.9808
22824.3773
23866.6351
23927.2528
23887.958
23936.1333
23906.2045
23941.6627
23491.0608
23263.2528
23088.6701
23044.2953
22570.2433
22580.9722
23862.0386
23918.2868
23911.3482
23429.5833
23051.9957
23866.69
23925.9419
23435.6512
23205.3962
23870.9243
23928.3946
23417.612
23290.672
22992.0414
22995.7214
23858.6152
23929.0656
23312.5451
23057.2849
23862.3176
23928.7545
23322.3552
22949.7124
23876.2298
23909.7616
23404.4532
22522.5978
22550.3711
23809.6402
23927.3515
23873.6177
23936.4101
23905.2073
23942.4472
23930.0171
23406.3159
23284.4508
22979.0677
22979.1674
23887.7444
23946.3789
23348.4808
23123.872
23889.6329
23943.7443
23403.9184
23224.2863
22993.8498
22996.5
23886.1129
23924.4933
23399.6954
22883.4494
22889.2517
23889.7134
23931.7428
23928.0069
23417.7904
23200.549
23898.9633
23923.1569
23403.8601
23079.6001
23081.6056
23890.426
23926.0869
23401.8993
23043.4043
23046.2897
23893.2386
23921.9474
23397.8855
23007.0332
23012.19
23886.9749
23933.8167
23409.9458
23152.8109
22834.846
22841.7099
23872.2747
23918.4969
23911.8477
23254.3164
22930.3649
23861.6812
23937.4226
23890.1921
23948.2098
23923.9256
23393.1779
23105.452
22834.6108
22768.6807
23884.5564
23888.2205
23359.4048
23868.4495
23945.1877
23422.681
22960.3279
22963.9783
23895.3372
23914.2803
23394.0532
22937.6225
22953.2981
23874.828
23944.6161
23409.1634
23143.7691
23886.5896
23944.7429
23423.9504
23167.1027
23898.2622
23931.9266
23407.8056
23037.8795
23037.291
23911.9433
23397.4915
22975.1539
23898.0923
23945.4396
23258.6126
23172.3501
23891.6661
23958.3217
23917.5931
23379.5316
22947.8363
22962.1553
23887.0944
23954.3931
23315.3742
23277.2713
23892.0186
23387.3087
22902.9318
)
;

boundaryField
{
    closed
    {
        type            calculated;
        value           uniform 31826.3329;
    }
    open
    {
        type            calculated;
        value           nonuniform List<scalar> 0();
    }
    sides
    {
        type            empty;
    }
    procBoundary0to1
    {
        type            processor;
        value           uniform 23899.2047;
    }
}


// ************************************************************************* //
