/*--------------------------------*- C++ -*----------------------------------*\
| =========                 |                                                 |
| \\      /  F ield         | OpenFOAM: The Open Source CFD Toolbox           |
|  \\    /   O peration     | Version:  2306                                  |
|   \\  /    A nd           | Website:  www.openfoam.com                      |
|    \\/     M anipulation  |                                                 |
\*---------------------------------------------------------------------------*/
FoamFile
{
    version     2.0;
    format      ascii;
    arch        "LSB;label=32;scalar=64";
    class       volScalarField;
    location    "0.00054";
    object      mu;
}
// * * * * * * * * * * * * * * * * * * * * * * * * * * * * * * * * * * * * * //

dimensions      [1 -1 -1 0 0 0 0];

internalField   nonuniform List<scalar> 
531
(
2.02299262e-05
2.02423763e-05
1.96984663e-05
1.96705731e-05
2.02245903e-05
2.02889876e-05
1.97570029e-05
1.94588246e-05
1.97439186e-05
2.02336245e-05
2.0161359e-05
1.96739379e-05
1.96548927e-05
2.02116525e-05
2.02860402e-05
1.97915662e-05
1.94837881e-05
1.96420164e-05
2.02194609e-05
2.0281519e-05
1.97554578e-05
1.94597035e-05
1.97461742e-05
2.02430402e-05
2.00438936e-05
1.96553382e-05
1.96245664e-05
2.01189298e-05
2.02835871e-05
1.98332976e-05
1.95231087e-05
1.95757175e-05
2.01847229e-05
2.02855665e-05
1.97909225e-05
1.94943309e-05
1.97465153e-05
2.02231264e-05
2.01655627e-05
1.97012132e-05
1.96537669e-05
2.01098544e-05
2.02834059e-05
1.98396251e-05
1.95280902e-05
1.9535411e-05
2.01384377e-05
2.02817534e-05
1.97852435e-05
1.94791047e-05
1.97337507e-05
2.02278844e-05
2.01688426e-05
1.97109104e-05
1.95990993e-05
1.9944545e-05
2.02768115e-05
1.9928242e-05
1.95957445e-05
1.95466958e-05
2.00598483e-05
2.02776274e-05
1.98522275e-05
1.95285012e-05
1.95150519e-05
2.01398232e-05
2.02842081e-05
1.97922522e-05
1.95166128e-05
1.97411646e-05
2.02328698e-05
2.00714265e-05
1.96691174e-05
1.958446e-05
2.00177651e-05
2.02802789e-05
1.98612526e-05
1.95122553e-05
1.95910109e-05
2.01989435e-05
2.02107573e-05
1.97049148e-05
1.97122765e-05
2.01923695e-05
2.02367106e-05
1.97401137e-05
1.96093592e-05
1.99925221e-05
2.02790848e-05
1.98777487e-05
1.95220171e-05
1.95528948e-05
2.018248e-05
2.02819057e-05
1.97585506e-05
1.95383987e-05
1.98050796e-05
2.02494005e-05
1.99097677e-05
1.95673747e-05
1.95820801e-05
2.02006488e-05
2.02612376e-05
1.97655591e-05
1.96162901e-05
2.00637055e-05
2.02551962e-05
1.97616762e-05
1.96034471e-05
1.99680218e-05
2.02784321e-05
1.98982669e-05
1.95600682e-05
1.95584775e-05
2.02055828e-05
2.02866849e-05
1.97646644e-05
1.96415415e-05
1.98877468e-05
2.02703012e-05
2.01155304e-05
1.97640469e-05
1.96812555e-05
1.94907321e-05
1.94867654e-05
2.01884895e-05
2.02612383e-05
1.97718794e-05
1.96012189e-05
1.99953416e-05
2.02785524e-05
1.98281453e-05
1.95648347e-05
1.97450983e-05
2.02464851e-05
1.99990248e-05
1.96444619e-05
1.96054088e-05
2.00928905e-05
2.02860142e-05
1.98374356e-05
1.95152424e-05
1.97409692e-05
2.02318369e-05
2.00551334e-05
1.96344916e-05
1.95944146e-05
2.0112428e-05
2.02807277e-05
1.98722534e-05
1.95457435e-05
1.95158444e-05
2.01436122e-05
2.02901488e-05
1.97820745e-05
1.94188248e-05
1.97393268e-05
2.02471911e-05
1.97861578e-05
1.95655122e-05
1.99438675e-05
2.02776134e-05
1.9779299e-05
1.96103321e-05
2.00556459e-05
2.02704806e-05
1.99279909e-05
1.95425495e-05
1.94783254e-05
1.99659796e-05
2.0282969e-05
1.97828575e-05
1.95912957e-05
2.01539808e-05
2.02707788e-05
1.98488661e-05
1.94436496e-05
1.94299659e-05
2.00927351e-05
2.02881647e-05
1.97945508e-05
1.95798105e-05
2.02005419e-05
2.02719145e-05
1.98403576e-05
1.94405856e-05
1.94377376e-05
2.01689101e-05
2.0290641e-05
1.97983252e-05
1.95907923e-05
2.02310363e-05
2.02737284e-05
1.98393039e-05
1.94470379e-05
1.94459701e-05
2.0213159e-05
2.02929836e-05
1.97994911e-05
1.9600803e-05
2.02377586e-05
2.02771674e-05
1.98857188e-05
1.95217802e-05
1.95149068e-05
2.02370197e-05
2.02900295e-05
1.98308564e-05
1.97175171e-05
1.94181803e-05
1.94275762e-05
2.02342743e-05
2.02916569e-05
1.97435517e-05
1.95920832e-05
2.02521997e-05
2.02751298e-05
1.98735301e-05
1.94950099e-05
1.94935558e-05
2.02576187e-05
2.02697388e-05
1.983362e-05
1.94322974e-05
1.94311968e-05
2.02620641e-05
2.02903207e-05
1.97240545e-05
1.95828546e-05
2.02740614e-05
2.02780592e-05
1.98294714e-05
1.94460783e-05
1.94501684e-05
2.02838537e-05
2.02695221e-05
1.98086986e-05
1.93748871e-05
1.94013212e-05
2.02797554e-05
2.02977533e-05
1.96560077e-05
1.95257058e-05
2.02713052e-05
2.02998127e-05
1.96581081e-05
1.95544076e-05
2.02799534e-05
2.02947547e-05
1.96519759e-05
1.95748936e-05
2.03029857e-05
2.02724784e-05
1.9786604e-05
1.93494688e-05
1.94328943e-05
2.0284612e-05
2.02986181e-05
1.9596625e-05
1.95160501e-05
2.02825982e-05
2.02929306e-05
1.96128152e-05
1.95805278e-05
2.03087198e-05
2.02708765e-05
1.97930419e-05
1.9365092e-05
1.94646824e-05
2.02803119e-05
2.02988792e-05
1.95739625e-05
1.95170856e-05
2.02891862e-05
2.02951653e-05
1.95931618e-05
1.95732726e-05
2.02870531e-05
2.02874437e-05
1.98589837e-05
1.95741906e-05
1.95582494e-05
1.98752496e-05
2.02982163e-05
2.02931172e-05
1.97774498e-05
1.96034036e-05
1.96027501e-05
1.94726459e-05
1.97550448e-05
2.03107038e-05
2.03150462e-05
1.97493021e-05
1.95351583e-05
1.97587312e-05
2.03124196e-05
2.03144404e-05
1.97189922e-05
1.94621074e-05
1.97566325e-05
2.02964541e-05
2.03134124e-05
1.95864861e-05
1.94149931e-05
1.99813381e-05
2.02909595e-05
1.97606883e-05
1.95251382e-05
1.97890714e-05
2.02907502e-05
2.0312329e-05
1.95900351e-05
1.94162011e-05
2.00034818e-05
2.02936382e-05
1.97597078e-05
1.95235865e-05
1.97635347e-05
2.03063337e-05
2.03171264e-05
1.97512864e-05
1.94944323e-05
1.97534096e-05
2.03117638e-05
2.03193238e-05
1.96630035e-05
1.94184553e-05
1.97497803e-05
2.0314834e-05
2.03164664e-05
1.97474346e-05
1.94750993e-05
1.97482693e-05
2.03161377e-05
2.03173689e-05
1.97482577e-05
1.95236363e-05
1.97497541e-05
2.03177841e-05
2.03159745e-05
1.97492317e-05
1.95404341e-05
1.97489983e-05
2.03100016e-05
2.0321621e-05
1.97627109e-05
1.95646898e-05
1.94824832e-05
1.97723059e-05
2.03002803e-05
1.98634488e-05
1.95271118e-05
1.97513427e-05
2.03136003e-05
2.03131372e-05
1.97598135e-05
1.95423156e-05
1.97491942e-05
2.03225861e-05
2.03154598e-05
1.97419106e-05
1.94503929e-05
1.98188323e-05
2.02997175e-05
1.97780249e-05
1.95784564e-05
1.98138134e-05
2.02896697e-05
2.01737558e-05
1.95514912e-05
1.93812874e-05
1.99367108e-05
2.0291781e-05
1.97831115e-05
1.95916288e-05
2.01746178e-05
2.02842758e-05
1.98455052e-05
1.95178406e-05
1.94753074e-05
2.00153775e-05
2.03003227e-05
1.97341675e-05
1.95918665e-05
2.03088325e-05
2.0284171e-05
1.97978149e-05
1.95001271e-05
1.95010675e-05
2.00512032e-05
2.03030521e-05
1.97040247e-05
1.96009508e-05
2.03089992e-05
2.02886927e-05
1.97858157e-05
1.95153412e-05
1.94789555e-05
1.99745891e-05
2.0297552e-05
1.97149277e-05
1.9515809e-05
2.02951768e-05
2.02977221e-05
1.96020967e-05
1.9543898e-05
2.03079759e-05
2.02915675e-05
1.97554903e-05
1.94923874e-05
1.98763627e-05
2.02865577e-05
1.97658753e-05
1.94897823e-05
1.98947981e-05
2.02891161e-05
1.9762443e-05
1.9493229e-05
1.99569165e-05
2.02924822e-05
1.97819633e-05
1.95355046e-05
2.02581096e-05
2.0281622e-05
1.97964014e-05
1.94923102e-05
1.96306496e-05
2.03076261e-05
2.0293874e-05
1.97522334e-05
1.94351653e-05
1.9790691e-05
2.02188645e-05
1.97540222e-05
1.95621027e-05
2.03023684e-05
2.03011711e-05
1.95864582e-05
1.95397276e-05
2.03042936e-05
2.02860394e-05
1.97681554e-05
1.95018842e-05
1.97678627e-05
2.02800653e-05
2.03069737e-05
1.95445275e-05
1.94923226e-05
2.03015449e-05
2.02790095e-05
1.97613031e-05
1.94312932e-05
1.97751244e-05
2.02817232e-05
2.02141862e-05
1.95702443e-05
1.96950944e-05
2.0303664e-05
2.0286872e-05
1.976918e-05
1.93615665e-05
1.95053537e-05
2.02838617e-05
2.0226364e-05
1.95695211e-05
1.97829988e-05
2.02835148e-05
2.00622586e-05
1.95935475e-05
1.97713936e-05
2.0305535e-05
2.03004826e-05
1.97527274e-05
1.93932834e-05
1.97315849e-05
2.02815024e-05
2.00738719e-05
1.95439241e-05
1.9757731e-05
2.02885337e-05
1.99367313e-05
1.95991714e-05
1.97733325e-05
2.02929502e-05
1.99288667e-05
1.96620567e-05
1.97620153e-05
2.02909064e-05
2.03155603e-05
1.97794422e-05
1.95910713e-05
1.94882707e-05
1.97144239e-05
2.02985801e-05
2.02969966e-05
1.97536027e-05
1.93983066e-05
1.97589291e-05
2.0270865e-05
2.00688289e-05
1.96032301e-05
1.97699539e-05
2.02931233e-05
2.02978789e-05
1.97550019e-05
1.9406916e-05
1.97523367e-05
2.0269997e-05
2.00205142e-05
1.95801227e-05
1.97578623e-05
2.0280603e-05
1.99426967e-05
1.95973881e-05
1.97603722e-05
2.0282966e-05
1.99366483e-05
1.96172256e-05
1.97621952e-05
2.02911304e-05
2.02966689e-05
1.97442399e-05
1.93762894e-05
1.97460528e-05
2.02629769e-05
2.00139374e-05
1.95554866e-05
1.97515924e-05
2.02734174e-05
1.99913251e-05
1.95492203e-05
)
;

boundaryField
{
    closed
    {
        type            calculated;
        value           nonuniform List<scalar> 0();
    }
    open
    {
        type            calculated;
        value           nonuniform List<scalar> 0();
    }
    sides
    {
        type            empty;
    }
    procBoundary1to0
    {
        type            processor;
        value           uniform 1.96728837e-05;
    }
    procBoundary1to2
    {
        type            processor;
        value           uniform 1.97479723e-05;
    }
}


// ************************************************************************* //
