/*--------------------------------*- C++ -*----------------------------------*\
| =========                 |                                                 |
| \\      /  F ield         | OpenFOAM: The Open Source CFD Toolbox           |
|  \\    /   O peration     | Version:  2306                                  |
|   \\  /    A nd           | Website:  www.openfoam.com                      |
|    \\/     M anipulation  |                                                 |
\*---------------------------------------------------------------------------*/
FoamFile
{
    version     2.0;
    format      ascii;
    arch        "LSB;label=32;scalar=64";
    class       surfaceScalarField;
    location    "0.00054";
    object      phi;
}
// * * * * * * * * * * * * * * * * * * * * * * * * * * * * * * * * * * * * * //

dimensions      [1 0 -1 0 0 0 0];

oriented        oriented;

internalField   nonuniform List<scalar> 
530
(
4.6011765e-06
4.74447181e-06
4.86555274e-06
4.69391453e-06
4.64662725e-06
4.62261568e-06
4.66590139e-06
4.63979895e-06
4.65178205e-06
4.65679525e-06
5.18033059e-06
5.13082425e-06
4.96550143e-06
4.90214081e-06
4.87390793e-06
4.93281146e-06
4.91253559e-06
4.62364397e-06
4.70527347e-06
4.73104095e-06
4.76757957e-06
4.75325129e-06
4.67693332e-06
4.69411491e-06
5.0732827e-06
5.07716693e-06
4.9880496e-06
4.83423199e-06
4.83691395e-06
4.94577268e-06
4.96703246e-06
4.75163162e-06
4.88422028e-06
4.91800192e-06
5.03590519e-06
5.07893576e-06
5.18402755e-06
5.275205e-06
5.89201283e-06
5.95791705e-06
5.87803929e-06
5.70697154e-06
5.75695128e-06
5.94867629e-06
6.06539473e-06
5.87206064e-06
5.94672105e-06
6.02502932e-06
6.21748209e-06
6.34014596e-06
6.45367024e-06
6.56481789e-06
7.29243112e-06
7.51346249e-06
7.50403278e-06
7.21831117e-06
7.28152472e-06
7.66252145e-06
7.90104581e-06
7.97299824e-06
7.62405138e-06
7.70371873e-06
8.00174625e-06
8.21876528e-06
7.96384952e-06
7.93117137e-06
8.02519905e-06
8.27986922e-06
8.47186935e-06
8.48687489e-06
8.56303577e-06
9.2341995e-06
9.51622111e-06
9.54127205e-06
9.08747851e-06
9.13696133e-06
9.50054142e-06
9.73646561e-06
9.27870183e-06
9.26371493e-06
9.68165653e-06
1.01978556e-05
1.00217443e-05
9.69198425e-06
9.90004943e-06
1.05097114e-05
1.04773754e-05
9.94668873e-06
9.94164892e-06
1.0308948e-05
1.05366591e-05
1.00864911e-05
9.98749223e-06
1.00503235e-05
1.01566431e-05
1.02416587e-05
9.93752076e-06
9.91394469e-06
1.03318609e-05
1.05063512e-05
1.00081937e-05
9.912706e-06
1.00107442e-05
1.00149925e-05
9.92008019e-06
9.42102528e-06
9.48928501e-06
9.47330729e-06
9.43978531e-06
8.9516402e-06
8.90817371e-06
9.21820293e-06
9.36490309e-06
8.91546616e-06
8.83479249e-06
8.88926268e-06
8.93703604e-06
8.94772153e-06
8.53243841e-06
8.50748156e-06
9.07916454e-06
9.11648971e-06
9.15549276e-06
9.16557524e-06
8.70372991e-06
8.5639641e-06
8.64254919e-06
8.61318499e-06
8.56958072e-06
8.14131681e-06
8.10475929e-06
8.29938485e-06
8.41178461e-06
8.2851179e-06
8.25583464e-06
8.71970191e-06
8.83892853e-06
8.77705148e-06
8.28301688e-06
8.24497951e-06
8.44670848e-06
8.57377978e-06
8.58510421e-06
8.53538722e-06
9.07102452e-06
9.1888087e-06
9.10037673e-06
8.54739071e-06
8.49199989e-06
8.68245181e-06
8.80914217e-06
8.78362481e-06
8.24022656e-06
8.1858445e-06
8.29160492e-06
8.38920677e-06
8.2692041e-06
8.20053224e-06
8.30106822e-06
8.32299943e-06
7.88749787e-06
7.82883745e-06
7.80078443e-06
7.80162169e-06
7.33066874e-06
7.28595862e-06
7.48511908e-06
7.64009504e-06
7.59108324e-06
7.11463812e-06
7.04128687e-06
6.97788417e-06
6.95126547e-06
6.58594994e-06
6.53150734e-06
6.59595335e-06
6.6610678e-06
6.63141868e-06
6.15941295e-06
6.08894006e-06
6.00967534e-06
5.96243315e-06
5.70093022e-06
5.63915913e-06
5.66263649e-06
5.66625994e-06
5.63353288e-06
5.28365868e-06
5.21732883e-06
5.16132585e-06
5.10670805e-06
4.9910197e-06
4.93171991e-06
4.94193874e-06
4.91457775e-06
4.88753331e-06
4.66073666e-06
4.60208315e-06
4.6484008e-06
4.59603074e-06
4.47913944e-06
4.42379073e-06
4.45125528e-06
4.42381711e-06
4.38317009e-06
4.24847498e-06
4.19261789e-06
4.1717452e-06
4.1833555e-06
4.12229934e-06
4.09953791e-06
3.95225392e-06
3.89486202e-06
3.93996077e-06
3.88214522e-06
3.76138912e-06
3.71234953e-06
3.72252473e-06
3.7012952e-06
3.65948739e-06
3.52431377e-06
3.47762852e-06
3.4730859e-06
3.45603798e-06
3.44106291e-06
3.28266052e-06
3.2306767e-06
3.28332897e-06
3.22751294e-06
3.10372784e-06
3.06249142e-06
3.05263264e-06
3.04557164e-06
3.02719364e-06
2.86450745e-06
2.82428276e-06
2.81057084e-06
2.80522877e-06
2.65925183e-06
2.5810339e-06
2.53598657e-06
2.58165652e-06
2.53469817e-06
2.42649544e-06
2.38380562e-06
2.41969472e-06
2.37550907e-06
2.26707874e-06
2.22393271e-06
2.27096861e-06
2.2186811e-06
2.09587777e-06
2.06395259e-06
2.03825612e-06
2.02874641e-06
1.91978943e-06
1.85410821e-06
1.81843957e-06
1.83617085e-06
1.78681906e-06
1.69371348e-06
1.66020356e-06
1.67477415e-06
1.61585179e-06
1.51850831e-06
1.4903435e-06
1.45823571e-06
1.42504873e-06
1.34304018e-06
1.31404806e-06
1.28842769e-06
1.26599732e-06
1.21224139e-06
1.12275046e-06
1.10418525e-06
1.05196008e-06
1.00266911e-06
9.98147193e-07
9.73529767e-07
9.34229483e-07
9.180365e-07
9.01489392e-07
8.4025577e-07
8.08025407e-07
8.01919005e-07
7.74117449e-07
7.37720468e-07
7.54641345e-07
7.62344425e-07
7.21694266e-07
6.84266598e-07
6.72760407e-07
6.49338357e-07
6.42592624e-07
6.06423118e-07
5.76748968e-07
5.66215887e-07
5.83785932e-07
5.79042383e-07
5.45336508e-07
5.15648574e-07
5.08800154e-07
4.81503116e-07
4.62987204e-07
5.20274479e-07
5.12556354e-07
5.00319931e-07
4.76595398e-07
4.43402119e-07
4.17188136e-07
4.14784349e-07
3.81071426e-07
3.65417698e-07
4.5722512e-07
4.54318714e-07
4.46142776e-07
4.35721414e-07
4.15507333e-07
3.99172938e-07
3.99888318e-07
3.90155072e-07
3.98664412e-07
3.81204948e-07
3.69930266e-07
3.72146578e-07
3.96621264e-07
4.19561336e-07
4.09016587e-07
3.9944379e-07
4.03358818e-07
3.97120053e-07
4.20053956e-07
4.12142694e-07
4.04006893e-07
4.09189205e-07
4.06582452e-07
4.26705097e-07
4.20979361e-07
4.15486119e-07
4.21303947e-07
4.1993313e-07
4.41904873e-07
4.35957539e-07
4.29650844e-07
4.37008808e-07
4.3370258e-07
4.72467914e-07
5.06799484e-07
4.90533171e-07
4.94597531e-07
5.56520701e-07
5.66432784e-07
5.69343686e-07
5.68474912e-07
5.77946629e-07
5.87191433e-07
6.11546899e-07
6.12927012e-07
6.12309863e-07
6.20604568e-07
6.25764211e-07
6.44934253e-07
6.45063679e-07
6.50526439e-07
6.67380812e-07
6.56547023e-07
6.02884954e-07
6.03935028e-07
9.58436875e-07
9.73487028e-07
8.87255463e-07
8.95030842e-07
8.89855696e-07
9.16750905e-07
9.00059974e-07
1.16319016e-06
1.16233486e-06
1.13764236e-06
1.1277238e-06
1.14440649e-06
1.17527192e-06
1.1757993e-06
1.14421525e-06
1.12984499e-06
1.12627507e-06
1.12719538e-06
1.12217873e-06
1.0951088e-06
1.11604348e-06
1.17197999e-06
1.17061775e-06
1.14915953e-06
1.13007644e-06
1.10569619e-06
1.10528933e-06
1.10103023e-06
1.09446251e-06
1.11556958e-06
1.11383163e-06
1.11354151e-06
1.09319755e-06
1.07676323e-06
1.06598292e-06
1.06329883e-06
1.06836873e-06
1.04635196e-06
1.02834289e-06
1.02785483e-06
1.01988459e-06
1.00966447e-06
1.0050273e-06
9.98314654e-07
9.9603822e-07
9.7886488e-07
9.85483215e-07
9.78131309e-07
9.72018728e-07
9.49704016e-07
9.80688529e-07
9.7001301e-07
9.68585852e-07
9.40547746e-07
1.09104784e-06
1.08514543e-06
1.05583687e-06
1.05054639e-06
9.90884313e-07
9.80730257e-07
9.55417305e-07
9.45815659e-07
8.45096918e-07
8.21415779e-07
1.06546159e-06
1.04729854e-06
9.08373984e-07
9.06272417e-07
8.78032447e-07
8.58571467e-07
8.21173685e-07
8.18489631e-07
8.03499116e-07
7.86343129e-07
7.62304456e-07
7.28854326e-07
7.2522543e-07
7.41185265e-07
7.26893855e-07
6.68200736e-07
6.69709819e-07
6.50485105e-07
6.3694315e-07
6.1326323e-07
6.31497121e-07
6.25265836e-07
1.04819918e-06
1.01289074e-06
8.0128493e-07
7.95655501e-07
7.63857217e-07
7.5220595e-07
7.40291912e-07
6.04849187e-07
6.07559382e-07
9.3740085e-07
8.80063221e-07
9.10253933e-07
9.05832228e-07
1.13707033e-06
1.09931599e-06
1.10399414e-06
1.1034521e-06
1.07720434e-06
1.06821361e-06
1.05412001e-06
8.91387709e-07
8.9147021e-07
1.16125668e-06
1.09901377e-06
1.08571449e-06
1.08038291e-06
1.201677e-06
1.14711459e-06
1.09519309e-06
1.08808766e-06
1.20071527e-06
1.1537398e-06
1.12109982e-06
1.1245578e-06
1.11873631e-06
1.10558476e-06
1.11728876e-06
1.11982214e-06
1.00002629e-06
1.02393708e-06
1.00873689e-06
1.00329522e-06
9.83189019e-07
9.94634581e-07
1.01081431e-06
1.2749792e-06
1.21392377e-06
1.22035018e-06
1.24227764e-06
1.2328257e-06
1.23536403e-06
1.22024698e-06
1.23100458e-06
1.25183761e-06
1.48584265e-06
1.42247636e-06
1.41119825e-06
1.4227056e-06
1.5815641e-06
1.53316595e-06
1.50643778e-06
1.52054205e-06
1.6764613e-06
1.63943401e-06
1.62829763e-06
1.6624018e-06
1.69132021e-06
1.70451203e-06
1.68707195e-06
1.70692022e-06
1.73445595e-06
2.00067788e-06
1.95618397e-06
1.97486867e-06
1.9999778e-06
2.25691833e-06
)
;

boundaryField
{
    closed
    {
        type            calculated;
        value           nonuniform List<scalar> 0();
    }
    open
    {
        type            calculated;
        value           nonuniform List<scalar> 0();
    }
    sides
    {
        type            empty;
        value           nonuniform List<scalar> 0();
    }
    procBoundary1to0
    {
        type            processor;
        value           uniform -4.59544526e-06;
    }
    procBoundary1to2
    {
        type            processor;
        value           uniform 2.23138578e-06;
    }
}


// ************************************************************************* //
