/*--------------------------------*- C++ -*----------------------------------*\
| =========                 |                                                 |
| \\      /  F ield         | OpenFOAM: The Open Source CFD Toolbox           |
|  \\    /   O peration     | Version:  2306                                  |
|   \\  /    A nd           | Website:  www.openfoam.com                      |
|    \\/     M anipulation  |                                                 |
\*---------------------------------------------------------------------------*/
FoamFile
{
    version     2.0;
    format      ascii;
    arch        "LSB;label=32;scalar=64";
    class       volScalarField;
    location    "8e-05";
    object      PV;
}
// * * * * * * * * * * * * * * * * * * * * * * * * * * * * * * * * * * * * * //

dimensions      [0 0 0 0 0 0 0];

internalField   nonuniform List<scalar> 
531
(
-0.00716670965
-0.00716670967
-0.00716670971
-0.00716670971
-0.0071667097
-0.0071667097
-0.00716670972
-0.00716670972
-0.00716670973
-0.00716670973
-0.00716670974
-0.00716670975
-0.00716670975
-0.00716670976
-0.00716670977
-0.00716670977
-0.00716670978
-0.00716670978
-0.00716670979
-0.0071667098
-0.0071667098
-0.00716670981
-0.00716670981
-0.00716670982
-0.00716670983
-0.00716670983
-0.00716670984
-0.00716670985
-0.00716670985
-0.00716670986
-0.00716670986
-0.00716670987
-0.00716670987
-0.00716670988
-0.00716670989
-0.00716670989
-0.0071667099
-0.00716670991
-0.00716670991
-0.00716670992
-0.00716670993
-0.00716670993
-0.00716670994
-0.00716670994
-0.00716670995
-0.00716670995
-0.00716670996
-0.00716670996
-0.00716670997
-0.00716670998
-0.00716670998
-0.00716670999
-0.00716671
-0.00716671
-0.00716671001
-0.00716671002
-0.00716671002
-0.00716671003
-0.00716671003
-0.00716671004
-0.00716671004
-0.00716671005
-0.00716671006
-0.00716671006
-0.00716671007
-0.00716671007
-0.00716671008
-0.00716671008
-0.00716671009
-0.0071667101
-0.0071667101
-0.00716671011
-0.00716671011
-0.00716671012
-0.00716671013
-0.00716671013
-0.00716671014
-0.00716671014
-0.00716671015
-0.00716671015
-0.00716671016
-0.00716671017
-0.00716671018
-0.00716671018
-0.00716671019
-0.00716671019
-0.0071667102
-0.00716671021
-0.00716671021
-0.00716671022
-0.00716671022
-0.00716671023
-0.00716671023
-0.00716671024
-0.00716671025
-0.00716671025
-0.00716671026
-0.00716671026
-0.00716671027
-0.00716671028
-0.00716671028
-0.00716671029
-0.0071667103
-0.0071667103
-0.00716671031
-0.00716671031
-0.00716671032
-0.00716671033
-0.00716671033
-0.00716671034
-0.00716671035
-0.00716671035
-0.00716671036
-0.00716671036
-0.00716671037
-0.00716671038
-0.00716671038
-0.00716671039
-0.00716671039
-0.0071667104
-0.00716671041
-0.00716671041
-0.00716671042
-0.00716671043
-0.00716671043
-0.00716671044
-0.00716671045
-0.00716671045
-0.00716671046
-0.00716671046
-0.00716671047
-0.00716671048
-0.00716671048
-0.00716671049
-0.00716671049
-0.0071667105
-0.00716671051
-0.00716671052
-0.00716671052
-0.00716671053
-0.00716671053
-0.00716671054
-0.00716671055
-0.00716671055
-0.00716671056
-0.00716671057
-0.00716671057
-0.00716671058
-0.00716671059
-0.00716671059
-0.0071667106
-0.00716671061
-0.00716671061
-0.00716671062
-0.00716671062
-0.00716671063
-0.00716671064
-0.00716671064
-0.00716671065
-0.00716671066
-0.00716671066
-0.00716671067
-0.00716671068
-0.00716671068
-0.00716671069
-0.00716671069
-0.0071667107
-0.00716671071
-0.00716671071
-0.00716671072
-0.00716671073
-0.00716671073
-0.00716671074
-0.00716671075
-0.00716671075
-0.00716671076
-0.00716671076
-0.00716671077
-0.00716671078
-0.00716671078
-0.00716671079
-0.0071667108
-0.0071667108
-0.00716671081
-0.00716671081
-0.00716671082
-0.00716671083
-0.00716671083
-0.00716671084
-0.00716671085
-0.00716671085
-0.00716671086
-0.00716671086
-0.00716671087
-0.00716671088
-0.00716671088
-0.00716671089
-0.0071667109
-0.0071667109
-0.00716671091
-0.00716671091
-0.00716671092
-0.00716671093
-0.00716671093
-0.00716671094
-0.00716671094
-0.00716671095
-0.00716671096
-0.00716671096
-0.00716671097
-0.00716671097
-0.00716671098
-0.00716671099
-0.00716671099
-0.007166711
-0.007166711
-0.00716671101
-0.00716671101
-0.00716671102
-0.00716671103
-0.00716671103
-0.00716671104
-0.00716671105
-0.00716671105
-0.00716671106
-0.00716671106
-0.00716671107
-0.00716671107
-0.00716671108
-0.00716671109
-0.00716671109
-0.0071667111
-0.0071667111
-0.00716671111
-0.00716671111
-0.00716671112
-0.00716671113
-0.00716671113
-0.00716671114
-0.00716671114
-0.00716671115
-0.00716671115
-0.00716671116
-0.00716671116
-0.00716671117
-0.00716671118
-0.00716671118
-0.00716671119
-0.00716671119
-0.0071667112
-0.0071667112
-0.00716671121
-0.00716671121
-0.00716671122
-0.00716671123
-0.00716671123
-0.00716671124
-0.00716671124
-0.00716671125
-0.00716671125
-0.00716671126
-0.00716671126
-0.00716671127
-0.00716671128
-0.00716671128
-0.00716671129
-0.00716671129
-0.0071667113
-0.0071667113
-0.00716671131
-0.00716671131
-0.00716671132
-0.00716671132
-0.00716671133
-0.00716671134
-0.00716671134
-0.00716671135
-0.00716671135
-0.00716671136
-0.00716671136
-0.00716671137
-0.00716671137
-0.00716671138
-0.00716671139
-0.00716671139
-0.0071667114
-0.0071667114
-0.00716671141
-0.00716671141
-0.00716671142
-0.00716671143
-0.00716671143
-0.00716671144
-0.00716671144
-0.00716671145
-0.00716671145
-0.00716671146
-0.00716671147
-0.00716671147
-0.00716671148
-0.00716671149
-0.00716671149
-0.0071667115
-0.0071667115
-0.00716671151
-0.00716671151
-0.00716671152
-0.00716671153
-0.00716671153
-0.00716671154
-0.00716671154
-0.00716671155
-0.00716671156
-0.00716671156
-0.00716671157
-0.00716671157
-0.00716671158
-0.00716671159
-0.00716671159
-0.0071667116
-0.00716671161
-0.00716671161
-0.00716671162
-0.00716671163
-0.00716671163
-0.00716671164
-0.00716671164
-0.00716671165
-0.00716671166
-0.00716671167
-0.00716671167
-0.00716671168
-0.00716671168
-0.00716671169
-0.0071667117
-0.0071667117
-0.00716671171
-0.00716671172
-0.00716671172
-0.00716671173
-0.00716671174
-0.00716671175
-0.00716671175
-0.00716671176
-0.00716671177
-0.00716671177
-0.00716671178
-0.00716671179
-0.00716671179
-0.0071667118
-0.00716671181
-0.00716671182
-0.00716671182
-0.00716671183
-0.00716671184
-0.00716671185
-0.00716671185
-0.00716671186
-0.00716671187
-0.00716671187
-0.00716671188
-0.00716671189
-0.0071667119
-0.0071667119
-0.00716671191
-0.00716671192
-0.00716671193
-0.00716671193
-0.00716671194
-0.00716671195
-0.00716671196
-0.00716671196
-0.00716671197
-0.00716671198
-0.00716671199
-0.00716671199
-0.007166712
-0.00716671201
-0.00716671202
-0.00716671202
-0.00716671203
-0.00716671204
-0.00716671205
-0.00716671205
-0.00716671206
-0.00716671207
-0.00716671208
-0.00716671209
-0.00716671209
-0.0071667121
-0.00716671211
-0.00716671212
-0.00716671212
-0.00716671214
-0.00716671214
-0.00716671215
-0.00716671216
-0.00716671216
-0.00716671217
-0.00716671218
-0.00716671219
-0.0071667122
-0.0071667122
-0.00716671221
-0.00716671222
-0.00716671223
-0.00716671224
-0.00716671224
-0.00716671225
-0.00716671226
-0.00716671227
-0.00716671228
-0.00716671228
-0.00716671229
-0.0071667123
-0.0071667123
-0.00716671231
-0.00716671232
-0.00716671233
-0.00716671234
-0.00716671234
-0.00716671235
-0.00716671236
-0.00716671237
-0.00716671238
-0.00716671238
-0.00716671239
-0.0071667124
-0.0071667124
-0.00716671241
-0.00716671242
-0.00716671243
-0.00716671243
-0.00716671244
-0.00716671245
-0.00716671246
-0.00716671247
-0.00716671247
-0.00716671248
-0.00716671248
-0.00716671249
-0.0071667125
-0.00716671251
-0.00716671251
-0.00716671252
-0.00716671253
-0.00716671254
-0.00716671254
-0.00716671255
-0.00716671256
-0.00716671256
-0.00716671257
-0.00716671258
-0.00716671258
-0.00716671259
-0.0071667126
-0.0071667126
-0.00716671261
-0.00716671262
-0.00716671262
-0.00716671263
-0.00716671264
-0.00716671264
-0.00716671265
-0.00716671266
-0.00716671266
-0.00716671267
-0.00716671267
-0.00716671268
-0.00716671269
-0.00716671269
-0.0071667127
-0.00716671271
-0.00716671271
-0.00716671272
-0.00716671272
-0.00716671273
-0.00716671273
-0.00716671274
-0.00716671274
-0.00716671275
-0.00716671276
-0.00716671276
-0.00716671277
-0.00716671278
-0.00716671278
-0.00716671279
-0.00716671279
-0.0071667128
-0.0071667128
-0.00716671281
-0.00716671281
-0.00716671282
-0.00716671283
-0.00716671283
-0.00716671284
-0.00716671284
-0.00716671285
-0.00716671285
-0.00716671286
-0.00716671286
-0.00716671287
-0.00716671287
-0.00716671288
-0.00716671288
-0.00716671289
-0.00716671289
-0.0071667129
-0.0071667129
-0.00716671291
-0.00716671291
-0.00716671292
-0.00716671292
-0.00716671292
-0.00716671292
-0.00716671298
-0.00716671302
-0.00716671289
-0.00716671267
-0.00716671283
-0.00716671369
-0.00716671367
-0.00716671191
-0.00716671126
-0.00716671351
-0.00716671562
-0.00716671392
-0.00716671042
-0.00716671096
-0.00716671482
-0.00716671479
)
;

boundaryField
{
    closed
    {
        type            zeroGradient;
    }
    open
    {
        type            zeroGradient;
    }
    sides
    {
        type            empty;
    }
    procBoundary3to2
    {
        type            processor;
        value           uniform -0.00716670969;
    }
    procBoundary3to4
    {
        type            processor;
        value           uniform -0.00716671228;
    }
}


// ************************************************************************* //
