/*--------------------------------*- C++ -*----------------------------------*\
| =========                 |                                                 |
| \\      /  F ield         | OpenFOAM: The Open Source CFD Toolbox           |
|  \\    /   O peration     | Version:  2306                                  |
|   \\  /    A nd           | Website:  www.openfoam.com                      |
|    \\/     M anipulation  |                                                 |
\*---------------------------------------------------------------------------*/
FoamFile
{
    version     2.0;
    format      ascii;
    arch        "LSB;label=32;scalar=64";
    class       volScalarField;
    location    "8e-05";
    object      rho;
}
// * * * * * * * * * * * * * * * * * * * * * * * * * * * * * * * * * * * * * //

dimensions      [1 -3 0 0 0 0 0];

internalField   nonuniform List<scalar> 
531
(
0.936471094
0.936467153
0.936463238
0.936459346
0.93645548
0.936451649
0.936447851
0.936444089
0.936440365
0.936436682
0.936433043
0.936429449
0.936425904
0.936422409
0.936418966
0.936415579
0.936412248
0.936408977
0.936405768
0.936402622
0.936399543
0.936396531
0.936393588
0.936390718
0.936387921
0.9363852
0.936382556
0.936379992
0.936377508
0.936375106
0.936372788
0.936370556
0.93636841
0.936366353
0.936364385
0.936362509
0.936360724
0.936359032
0.936357434
0.936355931
0.936354523
0.936353213
0.936351999
0.936350884
0.936349867
0.936348949
0.93634813
0.936347411
0.936346791
0.936346272
0.936345852
0.936345532
0.936345312
0.936345192
0.936345171
0.936345248
0.936345424
0.936345698
0.936346068
0.936346536
0.936347098
0.936347755
0.936348506
0.936349349
0.936350284
0.936351308
0.936352422
0.936353622
0.936354908
0.936356279
0.936357732
0.936359266
0.936360879
0.936362568
0.936364333
0.936366171
0.93636808
0.936370058
0.936372102
0.93637421
0.93637638
0.936378609
0.936380896
0.936383236
0.936385629
0.93638807
0.936390558
0.936393089
0.936395661
0.936398271
0.936400915
0.936403592
0.936406298
0.93640903
0.936411785
0.936414561
0.936417353
0.936420158
0.936422975
0.936425799
0.936428628
0.936431457
0.936434285
0.936437108
0.936439922
0.936442725
0.936445514
0.936448284
0.936451033
0.936453759
0.936456457
0.936459125
0.936461759
0.936464357
0.936466915
0.936469431
0.936471901
0.936474323
0.936476693
0.936479009
0.936481269
0.936483468
0.936485605
0.936487677
0.936489681
0.936491614
0.936493475
0.936495261
0.936496969
0.936498597
0.936500144
0.936501605
0.936502981
0.936504268
0.936505465
0.93650657
0.936507581
0.936508496
0.936509314
0.936510034
0.936510653
0.936511171
0.936511587
0.936511898
0.936512105
0.936512206
0.9365122
0.936512086
0.936511865
0.936511534
0.936511095
0.936510545
0.936509886
0.936509117
0.936508238
0.936507248
0.936506149
0.93650494
0.936503621
0.936502193
0.936500657
0.936499013
0.936497262
0.936495404
0.936493441
0.936491373
0.936489203
0.93648693
0.936484556
0.936482084
0.936479513
0.936476846
0.936474085
0.93647123
0.936468285
0.936465251
0.93646213
0.936458925
0.936455636
0.936452268
0.936448821
0.936445299
0.936441704
0.936438038
0.936434305
0.936430507
0.936426647
0.936422727
0.936418752
0.936414722
0.936410643
0.936406516
0.936402345
0.936398134
0.936393885
0.936389602
0.936385287
0.936380946
0.93637658
0.936372194
0.936367791
0.936363374
0.936358948
0.936354515
0.936350079
0.936345645
0.936341215
0.936336793
0.936332384
0.93632799
0.936323616
0.936319265
0.93631494
0.936310647
0.936306388
0.936302167
0.936297987
0.936293854
0.936289769
0.936285737
0.936281762
0.936277847
0.936273996
0.936270212
0.936266499
0.936262861
0.936259301
0.936255822
0.936252428
0.936249123
0.936245909
0.93624279
0.936239769
0.93623685
0.936234036
0.936231329
0.936228733
0.936226251
0.936223886
0.936221641
0.936219518
0.93621752
0.93621565
0.936213911
0.936212305
0.936210835
0.936209503
0.936208312
0.936207263
0.936206359
0.936205603
0.936204995
0.936204539
0.936204236
0.936204087
0.936204095
0.936204261
0.936204587
0.936205074
0.936205724
0.936206537
0.936207516
0.936208661
0.936209972
0.936211452
0.9362131
0.936214918
0.936216907
0.936219066
0.936221396
0.936223897
0.93622657
0.936229415
0.936232432
0.936235621
0.936238981
0.936242513
0.936246215
0.936250088
0.936254131
0.936258343
0.936262723
0.936267271
0.936271985
0.936276865
0.936281909
0.936287115
0.936292484
0.936298012
0.936303698
0.936309541
0.936315539
0.936321689
0.93632799
0.93633444
0.936341036
0.936347775
0.936354657
0.936361677
0.936368833
0.936376123
0.936383544
0.936391092
0.936398764
0.936406558
0.93641447
0.936422497
0.936430635
0.936438881
0.93644723
0.93645568
0.936464226
0.936472865
0.936481592
0.936490404
0.936499295
0.936508263
0.936517302
0.936526407
0.936535576
0.936544802
0.936554081
0.936563409
0.93657278
0.93658219
0.936591633
0.936601105
0.936610601
0.936620114
0.936629641
0.936639176
0.936648713
0.936658247
0.936667773
0.936677285
0.936686777
0.936696245
0.936705682
0.936715083
0.936724442
0.936733753
0.936743011
0.93675221
0.936761345
0.936770409
0.936779397
0.936788303
0.936797122
0.936805846
0.936814472
0.936822993
0.936831403
0.936839697
0.936847869
0.936855914
0.936863825
0.936871598
0.936879226
0.936886705
0.936894028
0.936901192
0.936908189
0.936915016
0.936921666
0.936928136
0.936934419
0.936940511
0.936946408
0.936952104
0.936957594
0.936962875
0.936967942
0.93697279
0.936977416
0.936981815
0.936985984
0.936989918
0.936993614
0.936997068
0.937000277
0.937003237
0.937005946
0.937008401
0.937010598
0.937012536
0.93701421
0.93701562
0.937016763
0.937017637
0.93701824
0.93701857
0.937018627
0.937018407
0.937017912
0.937017139
0.937016087
0.937014757
0.937013147
0.937011258
0.937009089
0.937006641
0.937003914
0.937000908
0.936997625
0.936994064
0.936990227
0.936986116
0.936981732
0.936977076
0.936972151
0.936966958
0.9369615
0.936955778
0.936949796
0.936943557
0.936937062
0.936930316
0.936923321
0.936916082
0.9369086
0.936900882
0.936892929
0.936884747
0.93687634
0.936867711
0.936858867
0.93684981
0.936840546
0.936831081
0.936821418
0.936811564
0.936801524
0.936791303
0.936780906
0.93677034
0.93675961
0.936748723
0.936737683
0.936726498
0.936715173
0.936703715
0.93669213
0.936680425
0.936668605
0.936656678
0.93664465
0.936632528
0.936620319
0.936608028
0.936595664
0.936583233
0.936570742
0.936558197
0.936545606
0.936532976
0.936520313
0.936507624
0.936494918
0.936482199
0.936469476
0.936456756
0.936444045
0.93643135
0.936418678
0.936406037
0.936393433
0.936380872
0.936368362
0.93635591
0.936343522
0.936331205
0.936318966
0.936306811
0.936294746
0.93628278
0.936270917
0.936259164
0.936247528
0.936236015
0.936224631
0.936213383
0.936202276
0.936191317
0.936180511
0.936169865
0.936159385
0.936149075
0.936138943
0.936128993
0.936119231
0.936109663
0.936100294
0.936091129
0.936082175
0.936073434
0.936064914
0.936056619
0.936048554
0.936040723
0.936033132
0.936025785
0.936018686
0.936011841
0.936005253
0.935998927
0.935992866
0.935987076
0.93598156
0.935976321
0.935971364
0.935966692
0.935962309
0.935958217
0.935954418
0.93595092
0.935947731
0.935944843
0.935942238
0.935939931
0.935937988
0.93593645
0.935935111
0.935933858
0.935933073
0.935932995
0.935933221
0.935933263
0.935933388
0.935934379
0.935936134
0.9359377
)
;

boundaryField
{
    closed
    {
        type            calculated;
        value           nonuniform List<scalar> 0();
    }
    open
    {
        type            calculated;
        value           nonuniform List<scalar> 0();
    }
    sides
    {
        type            empty;
    }
    procBoundary3to2
    {
        type            processor;
        value           uniform 0.936475061;
    }
    procBoundary3to4
    {
        type            processor;
        value           uniform 0.935939262;
    }
}


// ************************************************************************* //
