/*--------------------------------*- C++ -*----------------------------------*\
| =========                 |                                                 |
| \\      /  F ield         | OpenFOAM: The Open Source CFD Toolbox           |
|  \\    /   O peration     | Version:  2306                                  |
|   \\  /    A nd           | Website:  www.openfoam.com                      |
|    \\/     M anipulation  |                                                 |
\*---------------------------------------------------------------------------*/
FoamFile
{
    version     2.0;
    format      ascii;
    arch        "LSB;label=32;scalar=64";
    class       volScalarField;
    location    "0.0006";
    object      prefDh_H2O;
}
// * * * * * * * * * * * * * * * * * * * * * * * * * * * * * * * * * * * * * //

dimensions      [1 1 -3 0 0 0 0];

internalField   nonuniform List<scalar> 
530
(
90.2153644
89.8221896
89.818944
89.8195303
89.8195741
89.8195748
89.8195748
89.8195748
89.8195748
89.8195748
89.8195748
89.8195748
89.8195748
89.8195748
89.8195748
89.8195748
89.8195748
89.8195748
89.8195748
89.8195748
89.8195748
89.8195748
89.8195748
89.8195748
89.8195748
89.8195748
89.8195748
89.8195748
89.8195748
89.8195748
89.8195748
89.8195748
89.8195748
89.8195748
89.8195748
89.8195748
89.8195748
89.8195748
89.8195748
89.8195748
89.8195748
89.8195748
89.8195748
89.8195748
89.8195748
89.8195748
89.8195748
89.8195748
89.8195748
89.8195748
89.8195748
89.8195748
89.8195748
89.8195748
89.8195748
89.8195748
89.8195748
89.8195748
89.8195748
89.8195748
89.8195748
89.8195748
89.8195748
89.8195748
89.8195748
89.8195748
89.8195748
89.8195748
89.8195748
89.8195748
89.8195748
89.8195748
89.8195748
89.8195748
89.8195748
89.8195747
89.8195747
89.8195746
89.8195737
89.819572
89.8195834
89.8195629
89.8195181
89.8195948
89.8197064
89.8196938
89.8190479
89.817692
89.818116
89.8278515
89.8427657
89.8322839
89.685765
89.6610042
89.964037
90.3032967
90.2981911
88.7519363
88.3144557
88.6997469
92.9227621
92.3778187
90.8050697
88.1336222
87.8841918
87.8834661
90.0254076
92.6972773
92.332677
91.9064899
88.6036492
88.041216
87.9781653
89.5776711
92.7680817
91.0889605
88.4407842
89.7643915
92.8055009
91.5871456
88.0844622
87.7761494
89.1706544
92.9019851
91.1037006
88.2163211
89.2038514
92.9373489
91.1310747
88.1911238
89.0493285
92.9918742
91.1879384
88.1711314
88.9131112
93.0329874
91.2818302
88.1734287
88.8316615
93.0466252
91.4196142
88.2062013
88.822244
93.0313126
91.5679023
88.2773229
88.9002524
93.0264027
92.2255232
88.1695298
87.7685955
88.5299574
92.998285
91.8166084
88.3349358
88.8649132
93.0078149
92.4443353
88.21141
87.7770422
88.4291841
92.9773136
91.9335915
88.2658967
88.633071
93.0329783
91.9794878
88.2422094
88.564651
93.0366251
92.0085405
88.2199243
88.5026306
93.0290847
92.0749163
88.2243522
88.4974624
92.9967151
92.1518439
88.2672463
88.5669738
92.9581598
92.8386525
88.2011818
87.7343387
88.2507558
93.0042788
92.3159944
88.2781007
88.55911
92.8770745
92.3969458
88.3231506
88.6400292
92.8370036
92.9696381
88.248118
87.7865973
88.3241704
92.9049579
92.4882086
88.3159739
88.6111143
92.7915232
92.9411212
88.2275636
87.7503456
88.2619488
92.8895502
92.5335416
88.2321165
88.4526382
92.790288
92.5423824
88.2088188
88.4157887
92.7769807
92.5740667
88.1976671
88.3943659
92.756966
92.6019609
88.2140485
88.4192627
92.7224732
92.8730446
88.1614347
87.6684416
88.2034201
92.8076738
92.7628313
88.1749123
88.3268164
92.6933409
92.8846877
88.1801354
88.3277673
92.6663919
92.9535794
88.2031048
88.3599974
92.6298186
92.7308721
88.1695416
87.676886
88.2074463
92.7097098
92.9893643
88.1965491
88.3293816
92.5780052
92.8923542
88.2478892
88.4105036
92.5327822
92.5789903
88.2501608
87.7876668
88.3152573
92.6040629
92.7096988
88.3815437
88.5920852
92.4564045
92.4593697
88.606853
88.1610647
88.0869551
87.9506958
88.4881546
92.5181163
92.4938633
88.4080473
87.8376232
88.4033863
92.5241036
92.6004779
88.2871396
88.4383542
92.4006104
92.5967706
88.3967725
88.5896947
92.3666313
92.4306328
88.5679179
88.0515464
88.0988962
87.9777833
87.8857224
89.137271
92.7312666
92.1606444
92.7544008
88.3865408
88.3846749
92.3590367
92.6447236
88.1831333
88.3365923
92.3664163
92.5162375
88.1721799
87.7098681
88.3084865
92.4806344
92.4753846
88.1897819
87.7272926
88.2772862
92.4780022
92.556578
88.2232005
88.4264495
92.331606
92.4674181
88.2400472
87.8155009
88.5455059
92.4214716
92.4296077
88.3057797
87.8613567
88.6651266
92.3994545
92.4038125
88.4147219
87.9251767
88.837509
92.3753139
92.3697749
88.6648131
88.0705781
87.9957079
88.6079152
92.3577708
92.4289449
88.3154268
87.859892
88.6543939
92.395409
92.4436715
88.2249173
87.7688587
88.3693615
92.4409808
92.5446406
88.1657423
88.306694
92.3255203
92.5827809
88.1751422
88.3784428
92.3011966
92.4970776
88.1517863
87.738186
88.4221388
92.4302856
92.4700219
88.170457
87.7302158
88.3369074
92.4479542
92.5348595
88.1845148
88.3897827
92.3073916
92.4738281
88.1592448
87.7362585
88.3318192
92.4462732
92.5189379
88.1900197
88.3920575
92.3018815
92.4508955
88.1935108
87.780681
88.5041778
92.4106893
92.4346483
88.2246392
87.7762624
88.4642672
92.4165542
92.4419806
88.1883067
87.7099601
88.2699882
92.4608628
92.5064377
88.1187785
88.2494345
92.3528674
92.5518171
88.1057059
88.2655243
92.3349701
92.4809684
88.1017052
87.6189477
88.1881054
92.4961023
92.5318666
88.0757939
88.2089169
92.3794121
92.548516
88.0992538
88.2492106
92.363076
92.4220048
88.1321467
87.6599348
88.2268103
92.5272637
92.5515558
88.1430698
88.25777
92.4095071
92.4315844
88.1863611
87.6849558
88.2445438
92.5717389
92.588764
88.1639131
88.2661434
92.5028303
92.4838529
88.1902662
87.6434804
88.201909
92.6402404
92.6847266
88.1114296
88.2248064
92.6081414
92.7065818
88.0979382
88.2406694
92.615238
92.760585
88.1039739
88.2444569
92.6496563
92.5416351
88.2893705
87.6692027
88.2502993
92.7188435
92.842549
88.18438
88.3049184
92.6572748
92.5030237
88.5370055
87.7552297
88.2752216
92.7436268
92.5062517
88.5722619
87.7530701
88.5666863
92.7157566
92.7129994
88.2071317
88.4531912
92.6587021
92.532617
88.4593302
87.745448
88.7648909
92.7024801
92.1018393
88.2093548
88.5719679
92.646642
92.4703591
88.6314846
87.8288632
88.7782751
92.6762768
92.6193325
88.6375217
87.6672351
87.6446349
92.2033743
92.6246552
92.57119
92.551813
89.0705446
88.0340343
88.117313
88.0794607
88.0268894
89.2335259
92.4958255
92.6765063
88.63158
88.6687231
92.6328906
92.359588
88.73373
87.8255407
88.7228476
92.6354041
92.4512585
88.7040987
87.8724357
87.8368805
88.771355
92.5925914
92.6910335
88.3768576
88.3607994
92.7738092
92.3485719
88.7532787
87.8336325
88.7778826
92.6438248
92.4193142
88.6766563
87.762335
88.3907863
92.7138446
92.4202148
)
;

boundaryField
{
    closed
    {
        type            calculated;
        value           uniform 120.144205;
    }
    open
    {
        type            calculated;
        value           nonuniform List<scalar> 0();
    }
    sides
    {
        type            empty;
    }
    procBoundary0to1
    {
        type            processor;
        value           uniform 88.5784111;
    }
}


// ************************************************************************* //
