/*--------------------------------*- C++ -*----------------------------------*\
| =========                 |                                                 |
| \\      /  F ield         | OpenFOAM: The Open Source CFD Toolbox           |
|  \\    /   O peration     | Version:  2306                                  |
|   \\  /    A nd           | Website:  www.openfoam.com                      |
|    \\/     M anipulation  |                                                 |
\*---------------------------------------------------------------------------*/
FoamFile
{
    version     2.0;
    format      ascii;
    arch        "LSB;label=32;scalar=64";
    class       volScalarField;
    location    "0.0006";
    object      prefDPV_T;
}
// * * * * * * * * * * * * * * * * * * * * * * * * * * * * * * * * * * * * * //

dimensions      [1 -1 -1 -1 0 0 0];

internalField   nonuniform List<scalar> 
530
(
6.00271192e-10
5.97723617e-10
5.97549059e-10
5.97549753e-10
5.97549775e-10
5.97549775e-10
5.97549775e-10
5.97549775e-10
5.97549775e-10
5.97549775e-10
5.97549775e-10
5.97549775e-10
5.97549775e-10
5.97549775e-10
5.97549775e-10
5.97549775e-10
5.97549775e-10
5.97549775e-10
5.97549775e-10
5.97549775e-10
5.97549775e-10
5.97549775e-10
5.97549775e-10
5.97549775e-10
5.97549775e-10
5.97549775e-10
5.97549775e-10
5.97549775e-10
5.97549775e-10
5.97549775e-10
5.97549775e-10
5.97549775e-10
5.97549775e-10
5.97549775e-10
5.97549775e-10
5.97549775e-10
5.97549775e-10
5.97549775e-10
5.97549775e-10
5.97549775e-10
5.97549775e-10
5.97549775e-10
5.97549775e-10
5.97549775e-10
5.97549775e-10
5.97549775e-10
5.97549775e-10
5.97549775e-10
5.97549775e-10
5.97549775e-10
5.97549775e-10
5.97549775e-10
5.97549775e-10
5.97549775e-10
5.97549775e-10
5.97549775e-10
5.97549775e-10
5.97549775e-10
5.97549775e-10
5.97549775e-10
5.97549775e-10
5.97549775e-10
5.97549775e-10
5.97549775e-10
5.97549775e-10
5.97549775e-10
5.97549775e-10
5.97549775e-10
5.97549775e-10
5.97549775e-10
5.97549775e-10
5.97549775e-10
5.97549775e-10
5.97549775e-10
5.97549775e-10
5.97549775e-10
5.97549775e-10
5.97549776e-10
5.97549774e-10
5.9754977e-10
5.97549832e-10
5.97549763e-10
5.9754961e-10
5.97550037e-10
5.97550631e-10
5.97550764e-10
5.97548246e-10
5.97542961e-10
5.97545543e-10
5.97588369e-10
5.97655396e-10
5.97610394e-10
5.96980427e-10
5.96877458e-10
5.98190938e-10
5.99685475e-10
5.9966486e-10
5.93067843e-10
5.91325866e-10
5.92835014e-10
6.11633683e-10
6.08960052e-10
6.01924476e-10
5.90501724e-10
5.89684248e-10
5.89737021e-10
5.98415251e-10
6.10493247e-10
6.08705689e-10
6.06914841e-10
5.92466574e-10
5.90317251e-10
5.90088812e-10
5.96479884e-10
6.10858054e-10
6.03201722e-10
5.9183549e-10
5.9729562e-10
6.11039893e-10
6.0546041e-10
5.90411861e-10
5.89334327e-10
5.94718261e-10
6.11520138e-10
6.03267982e-10
5.90937641e-10
5.94874498e-10
6.11696493e-10
6.0339173e-10
5.90862822e-10
5.942213e-10
6.11964189e-10
6.03649601e-10
5.90799978e-10
5.93651497e-10
6.1216637e-10
6.04076365e-10
5.90816107e-10
5.93318442e-10
6.12232614e-10
6.04703892e-10
5.90945424e-10
5.93290114e-10
6.12155059e-10
6.05380667e-10
5.91240988e-10
5.93636697e-10
6.12125969e-10
6.08390637e-10
5.90732914e-10
5.89356826e-10
5.92085391e-10
6.11998081e-10
6.06517894e-10
5.91484005e-10
5.93522467e-10
6.12034309e-10
6.09400317e-10
5.90895931e-10
5.89412026e-10
5.91696912e-10
6.11904264e-10
6.07056859e-10
5.91226065e-10
5.92571757e-10
6.12165533e-10
6.07271029e-10
5.91143684e-10
5.92291444e-10
6.12185397e-10
6.07406809e-10
5.91064555e-10
5.92040081e-10
6.12150086e-10
6.07714389e-10
5.91085407e-10
5.92022709e-10
6.11990766e-10
6.08070193e-10
5.91267439e-10
5.92333206e-10
6.11800578e-10
6.11243321e-10
5.90858648e-10
5.8926853e-10
5.90999818e-10
6.12026806e-10
6.08827971e-10
5.91309591e-10
5.92310377e-10
6.11403059e-10
6.09203324e-10
5.91491375e-10
5.92669313e-10
6.11205593e-10
6.11843474e-10
5.91047954e-10
5.89498506e-10
5.91315913e-10
6.11537673e-10
6.09627419e-10
5.91484474e-10
5.92569377e-10
6.10984621e-10
6.11705298e-10
5.90975733e-10
5.89365277e-10
5.91076982e-10
6.11465782e-10
6.09841779e-10
5.91165382e-10
5.91915725e-10
6.10982385e-10
6.09884636e-10
5.91065619e-10
5.91769168e-10
6.10917826e-10
6.10033566e-10
5.91024801e-10
5.91685488e-10
6.10819081e-10
6.10164381e-10
5.9109611e-10
5.91820676e-10
6.10652171e-10
6.11378027e-10
5.90731209e-10
5.89043095e-10
5.90883546e-10
6.11067957e-10
6.10917656e-10
5.90949343e-10
5.91452106e-10
6.1050904e-10
6.11487581e-10
5.9094626e-10
5.91464425e-10
6.10376008e-10
6.11810991e-10
5.9103186e-10
5.916086e-10
6.10200206e-10
6.1068592e-10
5.90748796e-10
5.89056934e-10
5.90918619e-10
6.10587772e-10
6.11965293e-10
5.90993202e-10
5.91511813e-10
6.09942497e-10
6.11490025e-10
5.91162009e-10
5.91810566e-10
6.09723028e-10
6.09942166e-10
5.910415e-10
5.89466366e-10
5.91325089e-10
6.10063061e-10
6.10596885e-10
5.91665929e-10
5.92521782e-10
6.09339472e-10
6.09353595e-10
5.92506627e-10
5.90880323e-10
5.90433773e-10
5.90050237e-10
5.92022128e-10
6.09644708e-10
6.09523152e-10
5.91681162e-10
5.89628667e-10
5.91672655e-10
6.09671233e-10
6.10065233e-10
5.91251962e-10
5.91913256e-10
6.09070241e-10
6.10043724e-10
5.91656063e-10
5.92496128e-10
6.08903985e-10
6.09217027e-10
5.92324783e-10
5.90380568e-10
5.90528487e-10
5.89986397e-10
5.89799462e-10
5.94601194e-10
6.10677065e-10
6.07872444e-10
6.10802248e-10
5.91564484e-10
5.91738963e-10
6.08869711e-10
6.10282186e-10
5.90826728e-10
5.91507814e-10
6.08909184e-10
6.09634827e-10
5.90711604e-10
5.89125498e-10
5.91263421e-10
6.09463799e-10
6.09439619e-10
5.90825224e-10
5.89178932e-10
5.91159139e-10
6.09443678e-10
6.09852843e-10
5.91024053e-10
5.9184127e-10
6.08731875e-10
6.09390151e-10
5.90978569e-10
5.89521015e-10
5.92221888e-10
6.09166275e-10
6.09208254e-10
5.91271041e-10
5.89686723e-10
5.92711507e-10
6.09054136e-10
6.09079723e-10
5.91720287e-10
5.89924275e-10
5.93426074e-10
6.08928393e-10
6.08913876e-10
5.9277759e-10
5.90430941e-10
5.90145103e-10
5.92527144e-10
6.08854224e-10
6.09197812e-10
5.91308262e-10
5.89677475e-10
5.92677606e-10
6.09035504e-10
6.09276251e-10
5.90964862e-10
5.89322211e-10
5.91527095e-10
6.09259537e-10
6.09791189e-10
5.90790348e-10
5.91368447e-10
6.08695668e-10
6.09974045e-10
5.9077883e-10
5.9165145e-10
6.0858252e-10
6.09535935e-10
5.90645468e-10
5.89211188e-10
5.91723868e-10
6.09210518e-10
6.09409789e-10
5.90764438e-10
5.89174978e-10
5.91398891e-10
6.09291072e-10
6.09741827e-10
5.90866549e-10
5.9168746e-10
6.08607774e-10
6.09420507e-10
5.90686063e-10
5.89206258e-10
5.91376185e-10
6.09280978e-10
6.09662323e-10
5.90890977e-10
5.91702744e-10
6.08577735e-10
6.0930485e-10
5.90822587e-10
5.89377566e-10
5.92076512e-10
6.09106549e-10
6.09230086e-10
5.9098296e-10
5.89359444e-10
5.919273e-10
6.09135594e-10
6.09267627e-10
5.90843135e-10
5.89104901e-10
5.91157653e-10
6.09350276e-10
6.09600722e-10
5.90629657e-10
5.91192117e-10
6.08821926e-10
6.09817663e-10
5.90530966e-10
5.91265075e-10
6.08743768e-10
6.09457331e-10
5.90459473e-10
5.88755823e-10
5.90859114e-10
6.09524875e-10
6.09728566e-10
5.90459426e-10
5.91058096e-10
6.08952056e-10
6.09802892e-10
5.90504852e-10
5.91209704e-10
6.08879626e-10
6.09168326e-10
5.90567643e-10
5.88917554e-10
5.91023158e-10
6.09672273e-10
6.09821326e-10
5.90700944e-10
5.91252776e-10
6.09102892e-10
6.09214066e-10
5.90755479e-10
5.8902142e-10
5.91099368e-10
6.09887648e-10
6.10002032e-10
5.90770061e-10
5.91303984e-10
6.09559185e-10
6.0947278e-10
5.90734973e-10
5.88859891e-10
5.90942833e-10
6.10226627e-10
6.10476508e-10
5.90553945e-10
5.91150444e-10
6.10071077e-10
6.10579782e-10
5.90478489e-10
5.91209917e-10
6.1010615e-10
6.1084038e-10
5.90500854e-10
5.9122186e-10
6.10280504e-10
6.09764069e-10
5.91091718e-10
5.88954578e-10
5.91096969e-10
6.10608105e-10
6.11239893e-10
5.90832116e-10
5.91444034e-10
6.1031068e-10
6.09570789e-10
5.9212414e-10
5.89292635e-10
5.91177816e-10
6.10731401e-10
6.09591744e-10
5.92263399e-10
5.89267045e-10
5.92305681e-10
6.10589292e-10
6.10672167e-10
5.90916187e-10
5.91955317e-10
6.10317962e-10
6.09722127e-10
5.91759097e-10
5.89223289e-10
5.93074294e-10
6.10526268e-10
6.07833597e-10
5.90927937e-10
5.92383265e-10
6.10255785e-10
6.09418111e-10
5.92499171e-10
5.89547241e-10
5.93182368e-10
6.10390549e-10
6.10137672e-10
5.9262383e-10
5.89025009e-10
5.88885575e-10
6.0832784e-10
6.10144127e-10
6.09877744e-10
6.09795344e-10
5.94412758e-10
5.90380044e-10
5.90600243e-10
5.90502326e-10
5.90251561e-10
5.95096746e-10
6.09507492e-10
6.10426099e-10
5.92580452e-10
5.92810337e-10
6.10187481e-10
6.08865922e-10
5.929266e-10
5.89497024e-10
5.92920221e-10
6.10195579e-10
6.09329223e-10
5.92837992e-10
5.89662009e-10
5.8948832e-10
5.93208105e-10
6.09989825e-10
6.10501127e-10
5.91540804e-10
5.91571773e-10
6.10881144e-10
6.08809966e-10
5.93017007e-10
5.89514483e-10
5.93142242e-10
6.10240056e-10
6.09168272e-10
5.92699678e-10
5.8927318e-10
5.91588949e-10
6.10587742e-10
6.09176385e-10
)
;

boundaryField
{
    closed
    {
        type            calculated;
        value           uniform 7.28736077e-10;
    }
    open
    {
        type            calculated;
        value           nonuniform List<scalar> 0();
    }
    sides
    {
        type            empty;
    }
    procBoundary0to1
    {
        type            processor;
        value           uniform 5.92279318e-10;
    }
}


// ************************************************************************* //
