/*--------------------------------*- C++ -*----------------------------------*\
| =========                 |                                                 |
| \\      /  F ield         | OpenFOAM: The Open Source CFD Toolbox           |
|  \\    /   O peration     | Version:  2306                                  |
|   \\  /    A nd           | Website:  www.openfoam.com                      |
|    \\/     M anipulation  |                                                 |
\*---------------------------------------------------------------------------*/
FoamFile
{
    version     2.0;
    format      ascii;
    arch        "LSB;label=32;scalar=64";
    class       volScalarField;
    location    "0.00112";
    object      mu;
}
// * * * * * * * * * * * * * * * * * * * * * * * * * * * * * * * * * * * * * //

dimensions      [1 -1 -1 0 0 0 0];

internalField   nonuniform List<scalar> 
531
(
2.02753555e-05
1.97961631e-05
1.93451849e-05
1.93524259e-05
2.01520785e-05
2.02858749e-05
2.02553357e-05
2.02903777e-05
1.98404149e-05
1.96399958e-05
1.93689065e-05
1.93748186e-05
2.02607119e-05
2.02952645e-05
1.97161777e-05
1.95299138e-05
2.02507041e-05
2.02929033e-05
1.97973336e-05
1.95702573e-05
2.02589268e-05
2.02756473e-05
1.97964498e-05
1.94468146e-05
1.94514007e-05
2.02535751e-05
2.02925569e-05
1.98057183e-05
1.95896335e-05
2.02513248e-05
2.02759304e-05
1.9812346e-05
1.94860222e-05
1.9492022e-05
2.02518065e-05
2.0277062e-05
1.9838728e-05
1.94818093e-05
1.94868687e-05
2.02489882e-05
2.02881107e-05
2.02654978e-05
1.98031765e-05
1.96884023e-05
1.94711248e-05
1.94760715e-05
2.0255543e-05
2.02814982e-05
1.97845314e-05
1.93487121e-05
1.9358604e-05
2.02451372e-05
2.02952262e-05
2.02641366e-05
1.9777283e-05
1.93794526e-05
1.93875771e-05
2.02351729e-05
2.03015339e-05
1.97607635e-05
1.95253811e-05
2.02319981e-05
2.02979351e-05
1.97594953e-05
1.95586437e-05
2.02316732e-05
2.02950618e-05
1.97609536e-05
1.95548572e-05
2.02300206e-05
2.02920578e-05
1.97484191e-05
1.95114888e-05
2.0227241e-05
2.0289974e-05
1.97486959e-05
1.94447309e-05
2.02268037e-05
2.02761864e-05
1.97872147e-05
1.93841825e-05
1.9390927e-05
2.02239685e-05
2.02663267e-05
1.98011335e-05
1.92836609e-05
1.92934341e-05
2.01757252e-05
2.02832115e-05
2.02558784e-05
2.02955222e-05
2.02793297e-05
1.97618904e-05
1.94865609e-05
1.95456559e-05
1.93668115e-05
1.93755366e-05
2.02034664e-05
2.02919467e-05
1.98046141e-05
1.95785914e-05
2.02181848e-05
2.02946991e-05
1.98028629e-05
1.95986147e-05
2.02244492e-05
2.02958427e-05
1.97893144e-05
1.9583819e-05
2.0225023e-05
2.02939963e-05
1.97709669e-05
1.95397659e-05
2.02225287e-05
2.02921018e-05
1.97658044e-05
1.94677194e-05
2.02166762e-05
2.02805138e-05
1.97811018e-05
1.9435336e-05
1.94325675e-05
2.02143621e-05
2.02797029e-05
1.98026716e-05
1.93578431e-05
1.93604099e-05
2.02207694e-05
2.02855235e-05
2.02841178e-05
1.978047e-05
1.94703211e-05
2.02135022e-05
2.02817015e-05
1.98008485e-05
1.9535307e-05
2.02157957e-05
2.02756018e-05
1.97750469e-05
1.94006428e-05
1.94025778e-05
2.02141984e-05
2.02855322e-05
1.980674e-05
1.94615017e-05
1.94634415e-05
2.02153981e-05
2.02933443e-05
1.97880357e-05
1.9563651e-05
2.02267664e-05
2.02853096e-05
1.98115746e-05
1.95135191e-05
1.9514825e-05
2.02169034e-05
2.03023839e-05
1.97865304e-05
1.96336674e-05
2.02308366e-05
2.02947708e-05
1.97867948e-05
1.96824645e-05
1.95434227e-05
1.95400796e-05
2.02351474e-05
2.02957986e-05
1.97818196e-05
1.95820531e-05
2.02294728e-05
2.02876978e-05
1.97939538e-05
1.95220357e-05
1.95210325e-05
2.02222826e-05
2.02943892e-05
1.97895494e-05
1.94950959e-05
1.94947035e-05
2.02210859e-05
2.02936421e-05
1.9783049e-05
1.94762475e-05
1.94781527e-05
2.02190665e-05
2.02822146e-05
1.97802253e-05
1.92940091e-05
1.93071498e-05
2.024096e-05
2.02844116e-05
2.02705661e-05
2.02919382e-05
2.02864309e-05
1.96882297e-05
1.9353521e-05
1.92401906e-05
1.92368805e-05
2.02104304e-05
2.0277796e-05
2.02605506e-05
2.02862462e-05
2.02824257e-05
1.98138077e-05
1.96195359e-05
1.95317274e-05
1.95023083e-05
2.02349484e-05
2.02905432e-05
1.97657411e-05
1.94784085e-05
1.94826722e-05
2.02320379e-05
2.02978083e-05
1.97758956e-05
1.94903862e-05
1.948753e-05
2.02440442e-05
2.02951066e-05
1.97794373e-05
1.94948632e-05
1.94919134e-05
2.02437201e-05
2.02981705e-05
1.97694325e-05
1.95715341e-05
2.02504104e-05
2.02907076e-05
1.97760567e-05
1.95305042e-05
1.95260813e-05
2.02501029e-05
2.02960679e-05
1.97832133e-05
1.9524553e-05
1.95196469e-05
2.02487433e-05
2.02980508e-05
1.97680307e-05
1.95903663e-05
1.95049284e-05
1.9499531e-05
2.0256296e-05
2.02953055e-05
1.95758364e-05
1.95137338e-05
2.02519171e-05
2.02965731e-05
2.02864777e-05
2.03017911e-05
2.03022831e-05
1.9751882e-05
1.95636135e-05
1.94920704e-05
1.94395875e-05
2.02642949e-05
2.02904853e-05
1.97058436e-05
1.93442599e-05
1.93608074e-05
2.02668533e-05
2.02983557e-05
1.96080871e-05
1.9549198e-05
2.02573283e-05
2.02924314e-05
2.02967143e-05
1.97825646e-05
1.944958e-05
1.94483334e-05
2.02669517e-05
2.02922734e-05
1.97623184e-05
1.94130018e-05
1.94970249e-05
2.02734994e-05
2.02940543e-05
2.02928476e-05
1.97792754e-05
1.9501983e-05
1.95754703e-05
1.9338678e-05
1.93370032e-05
2.02572021e-05
2.02895399e-05
2.0284936e-05
2.02917705e-05
1.98359589e-05
1.94397108e-05
1.94378598e-05
2.02680028e-05
2.02904872e-05
1.97596792e-05
1.93710889e-05
1.94843016e-05
2.02777948e-05
2.02992382e-05
2.02950145e-05
1.97701177e-05
1.94460658e-05
1.95297618e-05
2.02839442e-05
2.02971408e-05
2.02967235e-05
1.97664748e-05
1.96224941e-05
1.95811008e-05
1.95583456e-05
2.02806534e-05
2.02914222e-05
1.97601262e-05
1.95776595e-05
1.94681062e-05
1.94748866e-05
2.02851336e-05
2.02887417e-05
2.0298091e-05
2.02902057e-05
1.97675473e-05
1.95608604e-05
1.95259064e-05
1.94555727e-05
2.02845284e-05
2.02926406e-05
1.97391722e-05
1.93391611e-05
1.9381684e-05
2.02848038e-05
2.0295463e-05
2.02929867e-05
2.02954904e-05
1.97700107e-05
1.95460998e-05
1.9480522e-05
1.94796308e-05
2.02814465e-05
2.02934588e-05
1.95376959e-05
1.9533497e-05
2.0283592e-05
2.02923448e-05
2.02970608e-05
1.97623221e-05
1.93958522e-05
1.93992815e-05
2.02857314e-05
2.02997342e-05
1.97595332e-05
1.93426586e-05
1.93892284e-05
2.02984432e-05
2.03036095e-05
2.03052776e-05
2.03049865e-05
1.97654132e-05
1.94670853e-05
1.9533587e-05
1.92999729e-05
1.93022994e-05
2.03014709e-05
2.03123185e-05
2.03102958e-05
2.03162794e-05
1.97429014e-05
1.92722771e-05
1.92804017e-05
2.03198531e-05
2.03378481e-05
2.03349848e-05
2.03511052e-05
1.93510711e-05
1.91861132e-05
2.03610242e-05
2.03855931e-05
1.92969697e-05
1.92439122e-05
2.04123707e-05
2.04604638e-05
2.04552832e-05
1.9220803e-05
1.90296949e-05
2.03780684e-05
2.0423591e-05
2.03790332e-05
1.9188533e-05
1.89965149e-05
2.03116194e-05
2.03329427e-05
2.03023529e-05
2.03168487e-05
2.02906192e-05
2.02996798e-05
2.02780405e-05
2.02846593e-05
2.02663465e-05
2.02738249e-05
2.02601461e-05
2.02722639e-05
2.0266818e-05
2.02899808e-05
2.03010714e-05
2.03514085e-05
2.04035465e-05
2.05544052e-05
2.06941573e-05
2.05678449e-05
2.04783083e-05
2.03646942e-05
2.02918969e-05
2.02007908e-05
2.0147472e-05
2.00860976e-05
2.00261792e-05
1.99393131e-05
1.99114508e-05
1.99259653e-05
1.98713358e-05
1.98023224e-05
1.97731077e-05
1.9726586e-05
1.97231505e-05
1.96423151e-05
1.95447602e-05
1.93920913e-05
1.92865085e-05
1.91454497e-05
1.90258017e-05
1.92249144e-05
2.03381308e-05
2.01249633e-05
1.99326348e-05
1.96851482e-05
1.95018794e-05
1.92237776e-05
1.90327426e-05
1.87135288e-05
1.84900887e-05
1.83909322e-05
1.83905181e-05
1.83919903e-05
1.83910372e-05
1.83934039e-05
1.83918344e-05
1.90457774e-05
2.08079206e-05
2.09027927e-05
2.13191406e-05
2.29802382e-05
2.42101572e-05
2.53301402e-05
2.62586583e-05
2.71056313e-05
2.81375402e-05
2.89223586e-05
3.05788073e-05
3.11552215e-05
3.22404138e-05
3.3024726e-05
3.41083537e-05
3.49469888e-05
3.60615322e-05
3.69027822e-05
3.79968079e-05
3.87427362e-05
3.97453264e-05
4.04072272e-05
4.13545584e-05
4.19613999e-05
4.28813417e-05
4.34707649e-05
4.39463582e-05
4.4478206e-05
4.54259825e-05
4.58784103e-05
4.62369192e-05
4.66752239e-05
4.72584417e-05
4.75196172e-05
4.80396706e-05
4.82665487e-05
4.85752036e-05
4.87201528e-05
4.90991835e-05
4.91812941e-05
4.95192729e-05
4.95192432e-05
4.98064966e-05
4.994434e-05
5.04007151e-05
5.01239054e-05
5.04688982e-05
5.0628199e-05
5.11658342e-05
5.10152456e-05
5.13859401e-05
5.13627463e-05
5.1619403e-05
5.17445147e-05
5.20706973e-05
5.16234639e-05
5.21884193e-05
5.21272373e-05
5.22809367e-05
5.21042064e-05
5.24382471e-05
5.24542148e-05
5.26861503e-05
5.24997054e-05
5.27310686e-05
5.28112811e-05
5.29359982e-05
5.27961262e-05
5.2981826e-05
5.30923733e-05
5.31725854e-05
5.30283673e-05
5.31801925e-05
5.331227e-05
5.33543931e-05
5.3217631e-05
5.33347426e-05
5.34891382e-05
5.34991875e-05
5.33739346e-05
5.34611073e-05
5.36313684e-05
5.36227522e-05
5.35094988e-05
5.35692852e-05
5.37409634e-05
5.3733126e-05
)
;

boundaryField
{
    closed
    {
        type            calculated;
        value           nonuniform List<scalar> 0();
    }
    open
    {
        type            calculated;
        value           nonuniform List<scalar> 0();
    }
    sides
    {
        type            empty;
    }
    procBoundary4to3
    {
        type            processor;
        value           uniform 2.02665499e-05;
    }
    procBoundary4to5
    {
        type            processor;
        value           uniform 5.36264844e-05;
    }
}


// ************************************************************************* //
