/*--------------------------------*- C++ -*----------------------------------*\
| =========                 |                                                 |
| \\      /  F ield         | OpenFOAM: The Open Source CFD Toolbox           |
|  \\    /   O peration     | Version:  2306                                  |
|   \\  /    A nd           | Website:  www.openfoam.com                      |
|    \\/     M anipulation  |                                                 |
\*---------------------------------------------------------------------------*/
FoamFile
{
    version     2.0;
    format      ascii;
    arch        "LSB;label=32;scalar=64";
    class       surfaceScalarField;
    location    "0.00112";
    object      phi;
}
// * * * * * * * * * * * * * * * * * * * * * * * * * * * * * * * * * * * * * //

dimensions      [1 0 -1 0 0 0 0];

oriented        oriented;

internalField   nonuniform List<scalar> 
530
(
2.17258303e-06
2.18286499e-06
2.16622612e-06
2.12649336e-06
2.19370816e-06
2.21027093e-06
2.22968416e-06
2.24723701e-06
2.28486083e-06
2.32834043e-06
2.31596969e-06
2.24948834e-06
2.33326303e-06
2.35181437e-06
2.3244879e-06
2.33463496e-06
2.37764681e-06
2.39502716e-06
2.36116073e-06
2.37587075e-06
2.42434894e-06
2.43653109e-06
2.45751067e-06
2.44116175e-06
2.37843111e-06
2.46294135e-06
2.4776663e-06
2.49167547e-06
2.50653882e-06
2.55125169e-06
2.56068454e-06
2.58338508e-06
2.56708929e-06
2.60930837e-06
2.61193103e-06
2.61546224e-06
2.64266292e-06
2.62649007e-06
2.67997285e-06
2.67201788e-06
2.68083341e-06
2.69841866e-06
2.73252386e-06
2.77558004e-06
2.75419387e-06
2.78323518e-06
2.79945128e-06
2.81123636e-06
2.83656554e-06
2.83094139e-06
2.7860475e-06
2.85699268e-06
2.87321406e-06
2.86563774e-06
2.90569787e-06
2.89930082e-06
2.82036978e-06
2.92311e-06
2.94170873e-06
2.94671586e-06
2.9666731e-06
2.99790959e-06
3.01582332e-06
3.03359282e-06
3.05278695e-06
3.08301836e-06
3.10093079e-06
3.12360232e-06
3.14308738e-06
3.17261725e-06
3.19058305e-06
3.21780463e-06
3.24022719e-06
3.26962279e-06
3.28565013e-06
3.31454534e-06
3.34595637e-06
3.38454081e-06
3.38838951e-06
3.41461141e-06
3.38326352e-06
3.42732353e-06
3.41734364e-06
3.42354358e-06
3.45227065e-06
3.46943035e-06
3.54577534e-06
3.36197853e-06
3.37287691e-06
3.37293992e-06
3.38197075e-06
3.43274182e-06
3.46434982e-06
3.52757132e-06
3.54177194e-06
3.51078963e-06
3.36995461e-06
3.47150703e-06
3.48115765e-06
3.52269147e-06
3.53645042e-06
3.55314961e-06
3.56300943e-06
3.61555009e-06
3.6338666e-06
3.64949126e-06
3.6604811e-06
3.72166715e-06
3.74090481e-06
3.75644358e-06
3.7685962e-06
3.83693082e-06
3.85912046e-06
3.87384623e-06
3.88552865e-06
3.96284255e-06
3.99917333e-06
4.00579568e-06
4.00585623e-06
4.04383117e-06
4.02163663e-06
3.87571396e-06
3.98117277e-06
3.97748317e-06
4.01306178e-06
4.01176838e-06
4.08092293e-06
4.00941902e-06
4.00871615e-06
4.03325954e-06
4.07732602e-06
4.12266074e-06
4.11623632e-06
4.12751882e-06
4.17655927e-06
4.20211847e-06
4.21027493e-06
4.20836341e-06
4.24891916e-06
4.22993385e-06
4.07416915e-06
4.17315086e-06
4.16536614e-06
4.20839458e-06
4.19912212e-06
4.23459702e-06
4.19667703e-06
4.19467365e-06
4.24386379e-06
4.2644568e-06
4.24364843e-06
4.23274653e-06
4.28818287e-06
4.28154004e-06
4.30334277e-06
4.26918592e-06
4.2649016e-06
4.31248045e-06
4.32734996e-06
4.30104983e-06
4.30278881e-06
4.35132354e-06
4.40863983e-06
4.36318802e-06
4.18831728e-06
4.26928029e-06
4.26853859e-06
4.31780747e-06
4.33436294e-06
4.30028693e-06
4.28695187e-06
4.33630968e-06
4.33109842e-06
4.35138711e-06
4.3008391e-06
4.28381463e-06
4.32826342e-06
4.32408565e-06
4.34782141e-06
4.29062652e-06
4.27279813e-06
4.31014251e-06
4.29994703e-06
4.32052033e-06
4.25911213e-06
4.24620174e-06
4.28362897e-06
4.31711589e-06
4.14937888e-06
4.10972697e-06
4.09800678e-06
4.07868873e-06
4.07986815e-06
4.02062514e-06
4.33373221e-06
4.39790256e-06
4.34608896e-06
4.35797107e-06
4.16463608e-06
4.15234997e-06
4.11033234e-06
4.09614868e-06
4.05608832e-06
4.13184639e-06
4.19981993e-06
4.15376451e-06
4.15373159e-06
4.07609176e-06
4.05616978e-06
4.0799353e-06
4.0707832e-06
4.09293681e-06
3.99276677e-06
3.96943639e-06
3.99620058e-06
3.99492896e-06
4.01788113e-06
3.91000045e-06
3.88550634e-06
3.91660665e-06
3.91820291e-06
3.93611355e-06
3.82399835e-06
3.80400547e-06
3.83096996e-06
3.83299973e-06
3.74417784e-06
3.71840009e-06
3.74249924e-06
3.74037655e-06
3.75437538e-06
3.64321083e-06
3.61567339e-06
3.64260768e-06
3.64632765e-06
3.65978555e-06
3.55368035e-06
3.53381764e-06
3.54580523e-06
3.56315864e-06
3.52209063e-06
3.34993017e-06
3.36418361e-06
3.34470819e-06
3.49103444e-06
3.47835776e-06
3.37451771e-06
3.34925157e-06
3.28530905e-06
3.26060273e-06
3.29853642e-06
3.28209656e-06
3.28298439e-06
3.24616931e-06
3.23064791e-06
3.13443434e-06
3.10688382e-06
3.25388249e-06
3.24817014e-06
3.10342045e-06
3.04319367e-06
3.01510655e-06
3.15448726e-06
3.13887863e-06
3.04332009e-06
3.0186335e-06
3.00449323e-06
3.00072393e-06
3.01167046e-06
3.02691208e-06
2.89668506e-06
2.86232119e-06
2.85740918e-06
2.85738395e-06
2.73545269e-06
2.68331284e-06
2.65272894e-06
2.63566104e-06
2.62219386e-06
2.63244689e-06
2.59262634e-06
2.56959276e-06
2.56504495e-06
2.45340071e-06
2.42608871e-06
2.37207336e-06
2.34009167e-06
2.36610887e-06
2.37554237e-06
2.37211523e-06
2.29072299e-06
2.26138656e-06
2.25191998e-06
2.24672524e-06
2.15329894e-06
2.11233844e-06
2.08694007e-06
2.07085789e-06
2.05704828e-06
2.06201362e-06
1.98000977e-06
1.93579822e-06
1.9105248e-06
1.90653091e-06
1.88780383e-06
1.87801913e-06
1.85437908e-06
1.83752972e-06
1.78224574e-06
1.76194431e-06
1.7491661e-06
1.73615428e-06
1.71581592e-06
1.70672168e-06
1.64710516e-06
1.62768372e-06
1.59621173e-06
1.57744126e-06
1.56955622e-06
1.56218027e-06
1.54880719e-06
1.53680364e-06
1.49380544e-06
1.47523153e-06
1.49944761e-06
1.49621839e-06
1.44282214e-06
1.41238896e-06
1.39460658e-06
1.37287108e-06
1.35666737e-06
1.34468043e-06
1.33768148e-06
1.32205415e-06
1.31312501e-06
1.27760282e-06
1.26206634e-06
1.27672559e-06
1.26939316e-06
1.23124324e-06
1.21611968e-06
1.21060699e-06
1.19288093e-06
1.18508429e-06
1.20829169e-06
1.15559099e-06
1.13919542e-06
1.12434625e-06
1.11741281e-06
1.0918432e-06
1.07085509e-06
1.05738445e-06
1.04023821e-06
1.01229599e-06
1.00152462e-06
9.95545587e-07
9.80243489e-07
9.68898288e-07
9.81198406e-07
9.4380731e-07
9.27694023e-07
9.09826556e-07
9.0854598e-07
8.88652137e-07
8.7475872e-07
8.61558498e-07
8.49433704e-07
8.38216666e-07
8.27011154e-07
8.16648022e-07
8.20569978e-07
8.16551209e-07
8.0874103e-07
8.01742931e-07
7.72437381e-07
7.50079327e-07
7.44172905e-07
7.35845343e-07
7.27982234e-07
7.22333789e-07
7.16815362e-07
7.09132076e-07
6.94009874e-07
6.79820398e-07
6.57406419e-07
6.47564735e-07
6.41752798e-07
6.26427828e-07
6.13565163e-07
5.99543969e-07
5.8689106e-07
5.74244191e-07
5.62125717e-07
5.50710607e-07
5.39411945e-07
5.29268824e-07
5.19568497e-07
5.11142027e-07
5.0345815e-07
4.97700322e-07
4.9355765e-07
4.93414259e-07
5.0286027e-07
5.2340238e-07
4.89240625e-07
4.64905264e-07
4.38857221e-07
4.17357592e-07
3.97602911e-07
3.82011883e-07
3.70938213e-07
3.62537649e-07
3.49539698e-07
3.39601402e-07
3.41985002e-07
3.27223951e-07
3.22345817e-07
3.20926716e-07
3.2494751e-07
3.35920995e-07
3.48855768e-07
3.52473462e-07
3.48037013e-07
3.60192897e-07
3.58285492e-07
3.79428361e-07
3.77483629e-07
5.06459222e-07
5.00058236e-07
5.05875629e-07
4.72954845e-07
4.49123968e-07
3.8996865e-07
3.21327372e-07
2.07555413e-07
6.47901778e-08
-1.42549382e-07
-3.75292405e-07
-6.89439064e-07
-1.10578927e-06
-1.65481184e-06
-2.37222179e-06
-3.32767647e-06
-8.20036802e-06
-9.21943399e-06
3.92725333e-06
7.07008996e-06
4.96784033e-06
3.84208358e-06
2.97560099e-06
2.29478338e-06
1.77107117e-06
1.37196001e-06
1.06490335e-06
8.36101075e-07
6.5462126e-07
5.33864795e-07
4.46770204e-07
3.90984035e-07
3.55026707e-07
3.40273518e-07
3.33832143e-07
3.34662198e-07
3.42155758e-07
3.65378433e-07
3.45068759e-07
2.69223617e-07
1.54843735e-07
5.99137607e-07
1.13477165e-06
3.92761961e-07
-2.77183083e-07
4.86323833e-07
1.12601922e-06
6.21563891e-07
5.4494465e-07
5.70411654e-07
3.78751248e-07
6.16885665e-07
8.81586054e-07
6.57277759e-07
5.89706847e-07
6.5287109e-07
7.18235365e-07
8.19425357e-07
6.92240384e-07
3.48583621e-07
6.85156428e-07
1.53031581e-06
1.04920562e-06
1.14864851e-07
3.92253976e-07
9.90787367e-07
7.71821966e-07
4.70334506e-07
6.92793903e-07
9.16722093e-07
1.12030699e-06
9.89114514e-07
3.53594209e-07
7.41853594e-07
1.15648319e-06
8.29197397e-07
6.81726104e-07
7.9518403e-07
9.1234212e-07
8.82658676e-07
7.26615415e-07
7.82986913e-07
9.77923329e-07
9.41993058e-07
7.20217986e-07
7.2477831e-07
9.82599494e-07
1.00204815e-06
7.24563972e-07
6.90523275e-07
9.80228977e-07
1.03316612e-06
7.3502755e-07
6.70728084e-07
9.77784483e-07
1.05875879e-06
7.50552587e-07
6.56500385e-07
9.58481399e-07
1.06744005e-06
7.73045771e-07
6.50468866e-07
9.19099497e-07
)
;

boundaryField
{
    closed
    {
        type            calculated;
        value           nonuniform List<scalar> 0();
    }
    open
    {
        type            calculated;
        value           nonuniform List<scalar> 0();
    }
    sides
    {
        type            empty;
        value           nonuniform List<scalar> 0();
    }
    procBoundary4to3
    {
        type            processor;
        value           uniform -2.16516625e-06;
    }
    procBoundary4to5
    {
        type            processor;
        value           uniform 1.05296037e-06;
    }
}


// ************************************************************************* //
