/*--------------------------------*- C++ -*----------------------------------*\
| =========                 |                                                 |
| \\      /  F ield         | OpenFOAM: The Open Source CFD Toolbox           |
|  \\    /   O peration     | Version:  2306                                  |
|   \\  /    A nd           | Website:  www.openfoam.com                      |
|    \\/     M anipulation  |                                                 |
\*---------------------------------------------------------------------------*/
FoamFile
{
    version     2.0;
    format      ascii;
    arch        "LSB;label=32;scalar=64";
    class       volScalarField;
    location    "0.00112";
    object      prefDPV_H2;
}
// * * * * * * * * * * * * * * * * * * * * * * * * * * * * * * * * * * * * * //

dimensions      [1 -1 -1 0 0 0 0];

internalField   nonuniform List<scalar> 
531
(
-3.15031029e-05
-3.09308874e-05
-3.03525148e-05
-3.03635951e-05
-3.13238176e-05
-3.15185414e-05
-3.14715486e-05
-3.15272768e-05
-3.09681114e-05
-3.07532717e-05
-3.0384661e-05
-3.03943424e-05
-3.14670938e-05
-3.15330418e-05
-3.08544727e-05
-3.0604148e-05
-3.14529078e-05
-3.15308596e-05
-3.09642514e-05
-3.06583221e-05
-3.14664547e-05
-3.15052933e-05
-3.09292495e-05
-3.04899055e-05
-3.04977058e-05
-3.14587078e-05
-3.15301069e-05
-3.09714855e-05
-3.06845926e-05
-3.14554376e-05
-3.15062683e-05
-3.09426425e-05
-3.05430901e-05
-3.05523743e-05
-3.14551959e-05
-3.15072481e-05
-3.09660978e-05
-3.05375942e-05
-3.05455249e-05
-3.14500686e-05
-3.15260186e-05
-3.14917203e-05
-3.09317187e-05
-3.08181422e-05
-3.05232952e-05
-3.05310444e-05
-3.14594479e-05
-3.1512263e-05
-3.09221119e-05
-3.03575326e-05
-3.03723307e-05
-3.1444212e-05
-3.15356877e-05
-3.14887287e-05
-3.09062016e-05
-3.0398724e-05
-3.04121505e-05
-3.14288049e-05
-3.15422823e-05
-3.09145417e-05
-3.05983131e-05
-3.14243714e-05
-3.15383019e-05
-3.0912879e-05
-3.06431586e-05
-3.14239459e-05
-3.15342918e-05
-3.09148716e-05
-3.06378934e-05
-3.14210236e-05
-3.15294232e-05
-3.08979443e-05
-3.05791213e-05
-3.14158582e-05
-3.15252886e-05
-3.0898347e-05
-3.04886e-05
-3.14149136e-05
-3.1504193e-05
-3.09348802e-05
-3.04047995e-05
-3.04152695e-05
-3.14122709e-05
-3.14890262e-05
-3.09380495e-05
-3.0268775e-05
-3.02835727e-05
-3.13519615e-05
-3.15153076e-05
-3.14708182e-05
-3.15361861e-05
-3.151232e-05
-3.08984745e-05
-3.05443902e-05
-3.0625706e-05
-3.03811886e-05
-3.03953001e-05
-3.13846145e-05
-3.15286789e-05
-3.09736921e-05
-3.0670014e-05
-3.14047894e-05
-3.15343782e-05
-3.09717095e-05
-3.06972033e-05
-3.14137837e-05
-3.15360706e-05
-3.09536307e-05
-3.06771784e-05
-3.14138579e-05
-3.15328083e-05
-3.09289241e-05
-3.06175054e-05
-3.14090394e-05
-3.1528892e-05
-3.09219878e-05
-3.05199045e-05
-3.14011403e-05
-3.15111952e-05
-3.09242665e-05
-3.04743399e-05
-3.04721608e-05
-3.1398651e-05
-3.15095807e-05
-3.09372932e-05
-3.03700256e-05
-3.03743553e-05
-3.14067312e-05
-3.15208397e-05
-3.1517746e-05
-3.09396122e-05
-3.05231616e-05
-3.13969349e-05
-3.15136089e-05
-3.09670295e-05
-3.06108564e-05
-3.1400938e-05
-3.1504474e-05
-3.09233428e-05
-3.04274079e-05
-3.04318694e-05
-3.13981687e-05
-3.15187476e-05
-3.09370852e-05
-3.05105133e-05
-3.05143798e-05
-3.14001697e-05
-3.15312002e-05
-3.09476824e-05
-3.06497373e-05
-3.14185158e-05
-3.15201843e-05
-3.09379703e-05
-3.05810106e-05
-3.05843841e-05
-3.1402851e-05
-3.15455713e-05
-3.09442282e-05
-3.07447604e-05
-3.14263508e-05
-3.15360004e-05
-3.09200308e-05
-3.08106652e-05
-3.06217527e-05
-3.06180927e-05
-3.14312365e-05
-3.15357193e-05
-3.09416567e-05
-3.06747079e-05
-3.14241887e-05
-3.15240339e-05
-3.09234652e-05
-3.05926331e-05
-3.0592612e-05
-3.14129531e-05
-3.15331347e-05
-3.09207447e-05
-3.05563449e-05
-3.05569854e-05
-3.14116336e-05
-3.15316408e-05
-3.09193804e-05
-3.0530735e-05
-3.05342057e-05
-3.1408808e-05
-3.15135595e-05
-3.09209125e-05
-3.02837697e-05
-3.03022734e-05
-3.14411557e-05
-3.15171036e-05
-3.14931057e-05
-3.15294778e-05
-3.15206334e-05
-3.08189853e-05
-3.03647144e-05
-3.02113319e-05
-3.0206835e-05
-3.13933783e-05
-3.15073799e-05
-3.14790068e-05
-3.15228176e-05
-3.15163824e-05
-3.0939537e-05
-3.07252873e-05
-3.06061121e-05
-3.05668866e-05
-3.14339098e-05
-3.15272114e-05
-3.09090106e-05
-3.05338035e-05
-3.05408145e-05
-3.14315743e-05
-3.15379634e-05
-3.09117981e-05
-3.05504735e-05
-3.05472306e-05
-3.14503575e-05
-3.1534415e-05
-3.09107154e-05
-3.05564959e-05
-3.05532683e-05
-3.14499477e-05
-3.15391405e-05
-3.09250452e-05
-3.06604936e-05
-3.14613487e-05
-3.15289026e-05
-3.09092036e-05
-3.06046232e-05
-3.0599441e-05
-3.14607761e-05
-3.15364481e-05
-3.09129795e-05
-3.05967129e-05
-3.05907764e-05
-3.14592455e-05
-3.15394338e-05
-3.09130255e-05
-3.06859623e-05
-3.05701037e-05
-3.05632241e-05
-3.14671977e-05
-3.15348467e-05
-3.0666335e-05
-3.05825459e-05
-3.14596685e-05
-3.15381252e-05
-3.15198361e-05
-3.1547427e-05
-3.15468349e-05
-3.08967116e-05
-3.06496448e-05
-3.05534247e-05
-3.04820308e-05
-3.14803096e-05
-3.15257264e-05
-3.08429202e-05
-3.03524465e-05
-3.03758624e-05
-3.1487074e-05
-3.15387857e-05
-3.07098944e-05
-3.06304135e-05
-3.14697452e-05
-3.15336875e-05
-3.15359784e-05
-3.09127996e-05
-3.04955378e-05
-3.04940386e-05
-3.14889889e-05
-3.15297085e-05
-3.09070717e-05
-3.04455242e-05
-3.05598934e-05
-3.14974422e-05
-3.15359436e-05
-3.15322988e-05
-3.09124272e-05
-3.05659756e-05
-3.06657648e-05
-3.03448476e-05
-3.03431387e-05
-3.1469723e-05
-3.15242595e-05
-3.15184812e-05
-3.15287236e-05
-3.09602228e-05
-3.04822455e-05
-3.04798295e-05
-3.14893551e-05
-3.15264551e-05
-3.09101162e-05
-3.0388713e-05
-3.05429015e-05
-3.15034736e-05
-3.15433978e-05
-3.15343259e-05
-3.09034243e-05
-3.04904756e-05
-3.06042905e-05
-3.15145308e-05
-3.15407012e-05
-3.15387799e-05
-3.0905073e-05
-3.07293173e-05
-3.06735087e-05
-3.06426591e-05
-3.15094704e-05
-3.15298623e-05
-3.09143832e-05
-3.06683446e-05
-3.05208135e-05
-3.05295692e-05
-3.15131122e-05
-3.15249307e-05
-3.15392772e-05
-3.15278243e-05
-3.09002534e-05
-3.06458327e-05
-3.05991075e-05
-3.0503621e-05
-3.15146354e-05
-3.15289816e-05
-3.0887586e-05
-3.03457551e-05
-3.04039758e-05
-3.15151889e-05
-3.15339529e-05
-3.15325062e-05
-3.15349044e-05
-3.090738e-05
-3.06260688e-05
-3.053732e-05
-3.05363314e-05
-3.15079641e-05
-3.15321895e-05
-3.06147238e-05
-3.06090415e-05
-3.15110187e-05
-3.15334784e-05
-3.15349723e-05
-3.09069858e-05
-3.04227327e-05
-3.04279356e-05
-3.15185891e-05
-3.15390466e-05
-3.09104222e-05
-3.03509779e-05
-3.04144089e-05
-3.15352895e-05
-3.15462528e-05
-3.15502848e-05
-3.15497461e-05
-3.08956336e-05
-3.0519734e-05
-3.06100182e-05
-3.02936897e-05
-3.02972796e-05
-3.15371948e-05
-3.15572019e-05
-3.15564873e-05
-3.1563984e-05
-3.08831154e-05
-3.02567539e-05
-3.02684733e-05
-3.15633691e-05
-3.15926492e-05
-3.15880354e-05
-3.16119624e-05
-3.03653956e-05
-3.01430878e-05
-3.16216357e-05
-3.1663419e-05
-3.02938896e-05
-3.02240494e-05
-3.16944343e-05
-3.1773531e-05
-3.17609508e-05
-3.01971258e-05
-2.99400834e-05
-3.16598576e-05
-3.17338928e-05
-3.16709958e-05
-3.01601765e-05
-2.99039652e-05
-3.15892257e-05
-3.16295802e-05
-3.15895815e-05
-3.16202811e-05
-3.15878271e-05
-3.16106349e-05
-3.15858549e-05
-3.16051962e-05
-3.15862176e-05
-3.16067466e-05
-3.15952509e-05
-3.16222791e-05
-3.16230823e-05
-3.16654129e-05
-3.16896801e-05
-3.17692291e-05
-3.18497482e-05
-3.20658784e-05
-3.2262485e-05
-3.20972788e-05
-3.19817518e-05
-3.18373091e-05
-3.1747071e-05
-3.16372604e-05
-3.15764093e-05
-3.15116004e-05
-3.14429463e-05
-3.13416119e-05
-3.13117889e-05
-3.13339398e-05
-3.12694534e-05
-3.1195771e-05
-3.11724634e-05
-3.11392212e-05
-3.11560432e-05
-3.10838753e-05
-3.09766518e-05
-3.0807266e-05
-3.0692115e-05
-3.05371785e-05
-3.04073547e-05
-3.07006799e-05
-3.22128325e-05
-3.19614007e-05
-3.17350257e-05
-3.1443179e-05
-3.12275789e-05
-3.08996373e-05
-3.06739566e-05
-3.02958074e-05
-3.00289704e-05
-2.99462974e-05
-2.99762181e-05
-3.00325389e-05
-3.00637009e-05
-3.01250984e-05
-3.01565026e-05
-3.12160432e-05
-3.37410102e-05
-3.40332493e-05
-3.46739708e-05
-3.73455001e-05
-3.92129566e-05
-4.09951726e-05
-4.2424998e-05
-4.38031302e-05
-4.54135299e-05
-4.67013431e-05
-4.93037588e-05
-5.02698916e-05
-5.20022028e-05
-5.32996294e-05
-5.50454371e-05
-5.64362681e-05
-5.82431045e-05
-5.96410915e-05
-6.14137416e-05
-6.26534862e-05
-6.42725389e-05
-6.53638606e-05
-6.68380818e-05
-6.78117377e-05
-6.92776909e-05
-7.02156989e-05
-7.08338335e-05
-7.16672097e-05
-7.32388396e-05
-7.3936454e-05
-7.43256181e-05
-7.50296632e-05
-7.60067857e-05
-7.63859821e-05
-7.70968218e-05
-7.74753783e-05
-7.79529237e-05
-7.81963142e-05
-7.87585589e-05
-7.89190312e-05
-7.94240637e-05
-7.947242e-05
-7.99094355e-05
-8.01320768e-05
-8.07796828e-05
-8.05132472e-05
-8.10812807e-05
-8.11499595e-05
-8.17895914e-05
-8.2071653e-05
-8.28038214e-05
-8.21864944e-05
-8.2416143e-05
-8.35045938e-05
-8.41001585e-05
-8.27356447e-05
-8.34778708e-05
-8.42176193e-05
-8.44427111e-05
-8.36430217e-05
-8.39927958e-05
-8.46976124e-05
-8.5037229e-05
-8.43500142e-05
-8.45387201e-05
-8.52233379e-05
-8.54069491e-05
-8.48651051e-05
-8.49912229e-05
-8.56392536e-05
-8.57579583e-05
-8.52564128e-05
-8.5345547e-05
-8.59659265e-05
-8.60292788e-05
-8.55666989e-05
-8.56239789e-05
-8.62297048e-05
-8.62466528e-05
-8.58142148e-05
-8.58548955e-05
-8.64429365e-05
-8.64329907e-05
-8.60222102e-05
-8.60544948e-05
-8.66088572e-05
-8.66000129e-05
)
;

boundaryField
{
    closed
    {
        type            calculated;
        value           nonuniform List<scalar> 0();
    }
    open
    {
        type            calculated;
        value           nonuniform List<scalar> 0();
    }
    sides
    {
        type            empty;
    }
    procBoundary4to3
    {
        type            processor;
        value           uniform -3.14778447e-05;
    }
    procBoundary4to5
    {
        type            processor;
        value           uniform -8.6200436e-05;
    }
}


// ************************************************************************* //
