/*--------------------------------*- C++ -*----------------------------------*\
| =========                 |                                                 |
| \\      /  F ield         | OpenFOAM: The Open Source CFD Toolbox           |
|  \\    /   O peration     | Version:  2306                                  |
|   \\  /    A nd           | Website:  www.openfoam.com                      |
|    \\/     M anipulation  |                                                 |
\*---------------------------------------------------------------------------*/
FoamFile
{
    version     2.0;
    format      ascii;
    arch        "LSB;label=32;scalar=64";
    class       volScalarField;
    location    "0.00112";
    object      prefDZ_H2O;
}
// * * * * * * * * * * * * * * * * * * * * * * * * * * * * * * * * * * * * * //

dimensions      [1 -1 -1 0 0 0 0];

internalField   nonuniform List<scalar> 
531
(
-7.75116207e-07
-7.48177818e-07
-7.32995424e-07
-7.32758304e-07
-7.7654985e-07
-7.74959188e-07
-7.75990051e-07
-7.74329207e-07
-7.54658396e-07
-7.37135297e-07
-7.33356798e-07
-7.32988744e-07
-7.79174643e-07
-7.74628559e-07
-7.38858196e-07
-7.35448963e-07
-7.79191535e-07
-7.74324267e-07
-7.40146101e-07
-7.36199458e-07
-7.78677599e-07
-7.74645605e-07
-7.48695318e-07
-7.34634473e-07
-7.34268092e-07
-7.78729169e-07
-7.7439407e-07
-7.4132242e-07
-7.36490255e-07
-7.78754217e-07
-7.74493326e-07
-7.51019242e-07
-7.35216864e-07
-7.34990332e-07
-7.78997859e-07
-7.74656612e-07
-7.54561434e-07
-7.35094064e-07
-7.34874988e-07
-7.79302038e-07
-7.73815558e-07
-7.74447177e-07
-7.504872e-07
-7.38072189e-07
-7.34881911e-07
-7.34669118e-07
-7.79267712e-07
-7.74986147e-07
-7.46216553e-07
-7.32983953e-07
-7.32752617e-07
-7.79413737e-07
-7.7391414e-07
-7.74730486e-07
-7.47638027e-07
-7.33580091e-07
-7.3304034e-07
-7.79769808e-07
-7.74524559e-07
-7.396332e-07
-7.35295087e-07
-7.79757543e-07
-7.74233962e-07
-7.3959836e-07
-7.35863963e-07
-7.7974882e-07
-7.74222116e-07
-7.39615966e-07
-7.35843533e-07
-7.79904914e-07
-7.74388625e-07
-7.39409204e-07
-7.35185062e-07
-7.80233611e-07
-7.74704511e-07
-7.39405719e-07
-7.3418518e-07
-7.80320205e-07
-7.75137999e-07
-7.43945737e-07
-7.33743736e-07
-7.33481568e-07
-7.79961197e-07
-7.75469533e-07
-7.48151999e-07
-7.32157798e-07
-7.31882012e-07
-7.7792225e-07
-7.74820301e-07
-7.76385827e-07
-7.73892782e-07
-7.74161336e-07
-7.44059099e-07
-7.35068078e-07
-7.35625852e-07
-7.33498426e-07
-7.33003875e-07
-7.79627361e-07
-7.74544075e-07
-7.40375395e-07
-7.36215866e-07
-7.79781493e-07
-7.74063797e-07
-7.40239785e-07
-7.36504692e-07
-7.79740521e-07
-7.74043027e-07
-7.39955542e-07
-7.36273018e-07
-7.79935e-07
-7.74216797e-07
-7.39633276e-07
-7.35596895e-07
-7.8027842e-07
-7.74545608e-07
-7.39538295e-07
-7.34492942e-07
-7.8018441e-07
-7.74901124e-07
-7.44436211e-07
-7.34462582e-07
-7.33988072e-07
-7.79978335e-07
-7.75025503e-07
-7.48896434e-07
-7.33090407e-07
-7.32896078e-07
-7.80232342e-07
-7.74219835e-07
-7.74513558e-07
-7.40315019e-07
-7.34606516e-07
-7.80111745e-07
-7.74705942e-07
-7.4069857e-07
-7.35696805e-07
-7.79908469e-07
-7.7484538e-07
-7.42490124e-07
-7.33911575e-07
-7.33435941e-07
-7.80044786e-07
-7.74776631e-07
-7.50410682e-07
-7.34664233e-07
-7.34352825e-07
-7.79963286e-07
-7.74398811e-07
-7.40992794e-07
-7.35997304e-07
-7.79353853e-07
-7.74313393e-07
-7.5192181e-07
-7.3545386e-07
-7.35030807e-07
-7.79815955e-07
-7.73971713e-07
-7.41327194e-07
-7.3702131e-07
-7.78800778e-07
-7.73661322e-07
-7.4755755e-07
-7.37823492e-07
-7.35848231e-07
-7.35556828e-07
-7.79117354e-07
-7.74119513e-07
-7.40282356e-07
-7.36267666e-07
-7.7886362e-07
-7.74186551e-07
-7.49261402e-07
-7.35560929e-07
-7.35175988e-07
-7.79151793e-07
-7.74277145e-07
-7.48367056e-07
-7.35090812e-07
-7.34761358e-07
-7.79054165e-07
-7.74393422e-07
-7.46375181e-07
-7.34822759e-07
-7.34606755e-07
-7.7904784e-07
-7.74910591e-07
-7.44970909e-07
-7.32050027e-07
-7.32059694e-07
-7.78663287e-07
-7.74793196e-07
-7.75972971e-07
-7.74329515e-07
-7.74613252e-07
-7.37769445e-07
-7.32874936e-07
-7.31095015e-07
-7.31047679e-07
-7.79907528e-07
-7.7489581e-07
-7.75963783e-07
-7.73966361e-07
-7.74242525e-07
-7.52327122e-07
-7.36896501e-07
-7.35612938e-07
-7.34988602e-07
-7.7833617e-07
-7.74408276e-07
-7.42774162e-07
-7.34817057e-07
-7.34541796e-07
-7.77867656e-07
-7.74276156e-07
-7.45722456e-07
-7.34878287e-07
-7.34661675e-07
-7.77380705e-07
-7.74206265e-07
-7.47270239e-07
-7.3495868e-07
-7.34701346e-07
-7.77368161e-07
-7.74099952e-07
-7.40035453e-07
-7.36096719e-07
-7.76849662e-07
-7.74022193e-07
-7.46437458e-07
-7.35547726e-07
-7.35256224e-07
-7.76886374e-07
-7.74027249e-07
-7.48054482e-07
-7.35414613e-07
-7.35143289e-07
-7.76783729e-07
-7.73977657e-07
-7.42580398e-07
-7.36396992e-07
-7.35120478e-07
-7.34918457e-07
-7.77499363e-07
-7.74166311e-07
-7.36158948e-07
-7.35113572e-07
-7.7785641e-07
-7.73772112e-07
-7.74841684e-07
-7.73259262e-07
-7.73599708e-07
-7.40902903e-07
-7.36008294e-07
-7.34719289e-07
-7.33996597e-07
-7.77016838e-07
-7.7477957e-07
-7.38018077e-07
-7.32656613e-07
-7.32636313e-07
-7.76182568e-07
-7.74262998e-07
-7.36688826e-07
-7.35705271e-07
-7.77210862e-07
-7.73399751e-07
-7.74392899e-07
-7.47866888e-07
-7.3415798e-07
-7.34086649e-07
-7.75712733e-07
-7.74393612e-07
-7.42033428e-07
-7.33724059e-07
-7.34862333e-07
-7.75920816e-07
-7.73408762e-07
-7.73922665e-07
-7.46778721e-07
-7.35113413e-07
-7.36173916e-07
-7.32581123e-07
-7.32401935e-07
-7.7716963e-07
-7.74814703e-07
-7.74624513e-07
-7.74466436e-07
-7.55047883e-07
-7.33985362e-07
-7.33931784e-07
-7.76008225e-07
-7.74587509e-07
-7.40310389e-07
-7.33089859e-07
-7.34599979e-07
-7.75928807e-07
-7.73372149e-07
-7.74195414e-07
-7.45765013e-07
-7.34187163e-07
-7.35350343e-07
-7.75299394e-07
-7.73302458e-07
-7.73655055e-07
-7.4403663e-07
-7.36935522e-07
-7.36227869e-07
-7.3588591e-07
-7.75409576e-07
-7.740351e-07
-7.39388493e-07
-7.363143e-07
-7.34392724e-07
-7.3461511e-07
-7.76118649e-07
-7.74339068e-07
-7.74034123e-07
-7.74120092e-07
-7.45643566e-07
-7.35988937e-07
-7.35280231e-07
-7.34259502e-07
-7.75489805e-07
-7.74723074e-07
-7.38662652e-07
-7.32519156e-07
-7.33002579e-07
-7.75446219e-07
-7.744616e-07
-7.73919697e-07
-7.74220054e-07
-7.44724455e-07
-7.35698635e-07
-7.34669357e-07
-7.34595383e-07
-7.761041e-07
-7.74179792e-07
-7.35558933e-07
-7.35492974e-07
-7.76096994e-07
-7.73422709e-07
-7.74788463e-07
-7.42056548e-07
-7.3333983e-07
-7.33239201e-07
-7.74892962e-07
-7.74708695e-07
-7.40180153e-07
-7.32439894e-07
-7.33059773e-07
-7.75220658e-07
-7.74249045e-07
-7.73805072e-07
-7.73838906e-07
-7.46045859e-07
-7.34293374e-07
-7.35257867e-07
-7.31637681e-07
-7.31553248e-07
-7.75846889e-07
-7.74603964e-07
-7.74037766e-07
-7.74288494e-07
-7.41117534e-07
-7.31053076e-07
-7.30982245e-07
-7.75785311e-07
-7.74757818e-07
-7.74909325e-07
-7.74598077e-07
-7.31738454e-07
-7.2889499e-07
-7.75742088e-07
-7.73861881e-07
-7.30419652e-07
-7.29048515e-07
-7.75654175e-07
-7.72687451e-07
-7.74080625e-07
-7.27487235e-07
-7.24070684e-07
-7.71970973e-07
-7.69385018e-07
-7.6937758e-07
-7.25114394e-07
-7.2113585e-07
-7.65814631e-07
-7.63096275e-07
-7.62247561e-07
-7.59532081e-07
-7.58314989e-07
-7.55656165e-07
-7.54122271e-07
-7.51467242e-07
-7.49639531e-07
-7.46990027e-07
-7.4491166e-07
-7.42273816e-07
-7.400143e-07
-7.37450824e-07
-7.35156667e-07
-7.3289188e-07
-7.31040929e-07
-7.30173945e-07
-7.30302372e-07
-7.26752734e-07
-7.23814986e-07
-7.19516948e-07
-7.16147032e-07
-7.11099846e-07
-7.07237257e-07
-7.01398711e-07
-6.97140557e-07
-6.91422448e-07
-6.88818869e-07
-6.88204473e-07
-6.84825679e-07
-6.78475491e-07
-6.7367274e-07
-6.64995119e-07
-6.59184968e-07
-6.48023789e-07
-6.3998181e-07
-6.27796844e-07
-6.18861564e-07
-6.07196491e-07
-5.96895139e-07
-5.93368528e-07
-6.07880269e-07
-5.94995474e-07
-5.83254046e-07
-5.68278108e-07
-5.57067671e-07
-5.40243223e-07
-5.28803217e-07
-5.09941928e-07
-4.97298621e-07
-4.82293426e-07
-4.74281624e-07
-4.60038706e-07
-4.51504946e-07
-4.36307672e-07
-4.27515733e-07
-3.90619017e-07
-3.74931655e-07
-3.32737497e-07
-3.15565104e-07
-2.20920317e-07
-1.77747953e-07
-1.15806469e-07
-7.74397007e-08
-2.25496981e-08
2.62518763e-08
8.11207447e-08
1.66049559e-07
2.12997698e-07
2.78136704e-07
3.38286827e-07
4.09424332e-07
4.7624662e-07
5.55316448e-07
6.25806253e-07
7.07304995e-07
7.72945119e-07
8.50894294e-07
9.10432668e-07
9.75614267e-07
1.02707721e-06
1.10521538e-06
1.15685051e-06
1.16451273e-06
1.21030184e-06
1.31539266e-06
1.35394131e-06
1.34539556e-06
1.39098861e-06
1.46246506e-06
1.48076712e-06
1.50566422e-06
1.53373677e-06
1.56274744e-06
1.58110154e-06
1.60981335e-06
1.6257432e-06
1.65166537e-06
1.66375866e-06
1.68704598e-06
1.70097718e-06
1.72536462e-06
1.74007664e-06
1.7773553e-06
1.74864033e-06
1.74953457e-06
1.85518543e-06
1.91761644e-06
1.78459796e-06
1.76909448e-06
1.97326564e-06
2.00966873e-06
1.83741795e-06
1.85163066e-06
2.01701127e-06
2.02334616e-06
1.90796101e-06
1.89543583e-06
2.03047945e-06
2.03997716e-06
1.95380781e-06
1.93369441e-06
2.04509559e-06
2.05018713e-06
1.98329123e-06
1.96229748e-06
2.05656558e-06
2.05982187e-06
2.00289097e-06
1.98345713e-06
2.0654914e-06
2.06720212e-06
2.01661663e-06
1.99988521e-06
2.0726641e-06
2.07307868e-06
2.02597769e-06
2.01344344e-06
2.07842315e-06
2.07808538e-06
2.03271096e-06
2.0250381e-06
2.08284951e-06
2.08254424e-06
)
;

boundaryField
{
    closed
    {
        type            calculated;
        value           nonuniform List<scalar> 0();
    }
    open
    {
        type            calculated;
        value           nonuniform List<scalar> 0();
    }
    sides
    {
        type            empty;
    }
    procBoundary4to3
    {
        type            processor;
        value           uniform -7.7851027e-07;
    }
    procBoundary4to5
    {
        type            processor;
        value           uniform 2.03819845e-06;
    }
}


// ************************************************************************* //
