/*--------------------------------*- C++ -*----------------------------------*\
| =========                 |                                                 |
| \\      /  F ield         | OpenFOAM: The Open Source CFD Toolbox           |
|  \\    /   O peration     | Version:  2306                                  |
|   \\  /    A nd           | Website:  www.openfoam.com                      |
|    \\/     M anipulation  |                                                 |
\*---------------------------------------------------------------------------*/
FoamFile
{
    version     2.0;
    format      ascii;
    arch        "LSB;label=32;scalar=64";
    class       volScalarField;
    location    "0.00068";
    object      prefDPV_H2O;
}
// * * * * * * * * * * * * * * * * * * * * * * * * * * * * * * * * * * * * * //

dimensions      [1 -1 -1 0 0 0 0];

internalField   nonuniform List<scalar> 
531
(
-3.69778231e-07
-3.65027191e-07
-3.65265942e-07
-3.83975198e-07
-3.83877885e-07
-3.71588134e-07
-3.64514127e-07
-3.64484036e-07
-3.8440662e-07
-3.84004315e-07
-3.65361231e-07
-3.647544e-07
-3.84352059e-07
-3.84133139e-07
-3.71709135e-07
-3.64263128e-07
-3.66080343e-07
-3.84555715e-07
-3.67525763e-07
-3.64350885e-07
-3.85760938e-07
-3.83790583e-07
-3.84921316e-07
-3.66445286e-07
-3.63721068e-07
-3.68590717e-07
-3.8431372e-07
-3.83869774e-07
-3.6631331e-07
-3.63679283e-07
-3.66890642e-07
-3.84947123e-07
-3.83715859e-07
-3.6455235e-07
-3.63582223e-07
-3.85665969e-07
-3.84238487e-07
-3.6462756e-07
-3.6442439e-07
-3.86086351e-07
-3.83911884e-07
-3.85275442e-07
-3.6595854e-07
-3.63500839e-07
-3.67956632e-07
-3.84481619e-07
-3.83838583e-07
-3.67056296e-07
-3.63888744e-07
-3.66605499e-07
-3.84905707e-07
-3.83675572e-07
-3.65040083e-07
-3.63859946e-07
-3.85601138e-07
-3.84120481e-07
-3.65214738e-07
-3.64677003e-07
-3.85417008e-07
-3.83822289e-07
-3.76626691e-07
-3.6592569e-07
-3.64826942e-07
-3.66574293e-07
-3.84249696e-07
-3.83808828e-07
-3.68154202e-07
-3.64151246e-07
-3.66829081e-07
-3.84908813e-07
-3.83665335e-07
-3.65150508e-07
-3.63684226e-07
-3.86005518e-07
-3.84164723e-07
-3.6467165e-07
-3.64409046e-07
-3.86383777e-07
-3.8375926e-07
-3.84849673e-07
-3.66445768e-07
-3.63741654e-07
-3.67225665e-07
-3.8466063e-07
-3.83446434e-07
-3.7244636e-07
-3.65793717e-07
-3.66280901e-07
-3.64537752e-07
-3.64569746e-07
-3.84952855e-07
-3.83638343e-07
-3.83936653e-07
-3.68069443e-07
-3.64271713e-07
-3.68511469e-07
-3.84876335e-07
-3.83682951e-07
-3.65321819e-07
-3.63535598e-07
-3.86129572e-07
-3.84302276e-07
-3.6525191e-07
-3.64451378e-07
-3.86217933e-07
-3.84433857e-07
-3.79961804e-07
-3.63731648e-07
-3.63599191e-07
-3.86318886e-07
-3.84323814e-07
-3.65591857e-07
-3.64504153e-07
-3.85706903e-07
-3.84132271e-07
-3.66637777e-07
-3.64834777e-07
-3.72866181e-07
-3.84085435e-07
-3.8397783e-07
-3.68116153e-07
-3.64034523e-07
-3.68512948e-07
-3.8447805e-07
-3.83670036e-07
-3.68774722e-07
-3.64608686e-07
-3.66817532e-07
-3.84576918e-07
-3.83555447e-07
-3.6993189e-07
-3.64962923e-07
-3.64420286e-07
-3.7007658e-07
-3.8480771e-07
-3.67965716e-07
-3.64379442e-07
-3.85468839e-07
-3.84285204e-07
-3.68219074e-07
-3.64764496e-07
-3.68461065e-07
-3.84868098e-07
-3.83676366e-07
-3.66095585e-07
-3.63944559e-07
-3.86436255e-07
-3.84163827e-07
-3.65765185e-07
-3.64797104e-07
-3.86418935e-07
-3.83776725e-07
-3.77693444e-07
-3.66470118e-07
-3.64889806e-07
-3.65387217e-07
-3.84919642e-07
-3.83901935e-07
-3.67580281e-07
-3.64094692e-07
-3.75589582e-07
-3.84588562e-07
-3.66697379e-07
-3.64370754e-07
-3.86231296e-07
-3.84203001e-07
-3.66022497e-07
-3.64614827e-07
-3.86480998e-07
-3.84198066e-07
-3.6593481e-07
-3.64778768e-07
-3.87014658e-07
-3.84340151e-07
-3.82600502e-07
-3.64269367e-07
-3.63830252e-07
-3.86907047e-07
-3.84400773e-07
-3.66254409e-07
-3.64779682e-07
-3.86382272e-07
-3.84366787e-07
-3.74851087e-07
-3.64120009e-07
-3.63986692e-07
-3.86672018e-07
-3.84312053e-07
-3.66447169e-07
-3.64713953e-07
-3.86432857e-07
-3.84361673e-07
-3.75055574e-07
-3.6410162e-07
-3.63957065e-07
-3.8682542e-07
-3.84287837e-07
-3.66377232e-07
-3.64722182e-07
-3.86777429e-07
-3.8427204e-07
-3.78155277e-07
-3.64524124e-07
-3.64397686e-07
-3.86742986e-07
-3.84402246e-07
-3.72489436e-07
-3.64520264e-07
-3.64353431e-07
-3.86237471e-07
-3.84252669e-07
-3.85451271e-07
-3.65214654e-07
-3.64394134e-07
-3.86735392e-07
-3.84460086e-07
-3.7225445e-07
-3.64173644e-07
-3.64032094e-07
-3.86588866e-07
-3.84373086e-07
-3.7128567e-07
-3.64375246e-07
-3.64251456e-07
-3.86520208e-07
-3.84313328e-07
-3.76343605e-07
-3.6462086e-07
-3.64485867e-07
-3.8684389e-07
-3.84174266e-07
-3.67025556e-07
-3.6498687e-07
-3.864099e-07
-3.84199669e-07
-3.71836523e-07
-3.6475207e-07
-3.64637547e-07
-3.86484987e-07
-3.84318262e-07
-3.75346598e-07
-3.64513387e-07
-3.64307482e-07
-3.86971425e-07
-3.84236806e-07
-3.6651529e-07
-3.64398059e-07
-3.87006504e-07
-3.8422562e-07
-3.66131855e-07
-3.64371056e-07
-3.87005616e-07
-3.84216662e-07
-3.66566118e-07
-3.64852678e-07
-3.86661916e-07
-3.84283864e-07
-3.72388232e-07
-3.6477343e-07
-3.64574661e-07
-3.86766115e-07
-3.84168466e-07
-3.66940486e-07
-3.64650003e-07
-3.86900422e-07
-3.8419566e-07
-3.66536325e-07
-3.64602866e-07
-3.86784196e-07
-3.84279517e-07
-3.72332122e-07
-3.64537199e-07
-3.6437956e-07
-3.8650764e-07
-3.84208478e-07
-3.71559763e-07
-3.64791272e-07
-3.687789e-07
-3.85197887e-07
-3.69657678e-07
-3.64641728e-07
-3.86913013e-07
-3.8448016e-07
-3.783673e-07
-3.63934796e-07
-3.63778351e-07
-3.86156416e-07
-3.83975023e-07
-3.84507936e-07
-3.70880785e-07
-3.63592301e-07
-3.63499979e-07
-3.86359975e-07
-3.83980513e-07
-3.84072267e-07
-3.69897405e-07
-3.6560229e-07
-3.64096054e-07
-3.63990393e-07
-3.87047151e-07
-3.84439611e-07
-3.66075403e-07
-3.64450902e-07
-3.82617814e-07
-3.84384205e-07
-3.84700878e-07
-3.65591317e-07
-3.63436621e-07
-3.87132277e-07
-3.84678482e-07
-3.71848114e-07
-3.64371499e-07
-3.64181255e-07
-3.86688592e-07
-3.84224685e-07
-3.67246635e-07
-3.64995702e-07
-3.86523389e-07
-3.84224345e-07
-3.72714056e-07
-3.64652234e-07
-3.64524262e-07
-3.86610581e-07
-3.84207041e-07
-3.75762036e-07
-3.64842834e-07
-3.64727363e-07
-3.86552334e-07
-3.84080686e-07
-3.72558437e-07
-3.65199446e-07
-3.65157882e-07
-3.8582647e-07
-3.83961349e-07
-3.72592807e-07
-3.64821731e-07
-3.64728981e-07
-3.8610355e-07
-3.84025154e-07
-3.7178346e-07
-3.6483768e-07
-3.64744474e-07
-3.85822182e-07
-3.83987179e-07
-3.72567923e-07
-3.65049167e-07
-3.6496917e-07
-3.85919667e-07
-3.83974041e-07
-3.73162812e-07
-3.65370085e-07
-3.65243989e-07
-3.86114766e-07
-3.84174514e-07
-3.72420708e-07
-3.64032009e-07
-3.63903528e-07
-3.86463212e-07
-3.84343166e-07
-3.72334834e-07
-3.64337534e-07
-3.64237332e-07
-3.86252051e-07
-3.8416451e-07
-3.72789924e-07
-3.65117256e-07
-3.65069121e-07
-3.85032915e-07
-3.83886562e-07
-3.67491673e-07
-3.64745951e-07
-3.86147679e-07
-3.84201841e-07
-3.72142485e-07
-3.64580668e-07
-3.64678499e-07
-3.86068313e-07
-3.8366509e-07
-3.84407003e-07
-3.70619802e-07
-3.65612303e-07
-3.66115434e-07
-3.64834304e-07
-3.64642387e-07
-3.86564181e-07
-3.84048418e-07
-3.84515886e-07
-3.66082964e-07
-3.64156997e-07
-3.86607832e-07
-3.84349378e-07
-3.66459244e-07
-3.64748867e-07
-3.86301151e-07
-3.84302909e-07
-3.72425032e-07
-3.64378978e-07
-3.64212412e-07
-3.86280067e-07
-3.84221542e-07
-3.6678974e-07
-3.64742999e-07
-3.86268004e-07
-3.84338732e-07
-3.72634554e-07
-3.64216864e-07
-3.64045687e-07
-3.86579066e-07
-3.8422114e-07
-3.66398815e-07
-3.64488888e-07
-3.86613535e-07
-3.84164694e-07
-3.66408398e-07
-3.64629498e-07
-3.86398363e-07
-3.84141988e-07
-3.72337414e-07
-3.65275805e-07
-3.65115494e-07
-3.85898156e-07
-3.83788165e-07
-3.7357032e-07
-3.66529161e-07
-3.63983259e-07
-3.63862032e-07
-3.86920444e-07
-3.84254994e-07
-3.84434501e-07
-3.65809928e-07
-3.64061774e-07
-3.87200069e-07
-3.84555729e-07
-3.80439086e-07
-3.64082811e-07
-3.63979994e-07
-3.87091536e-07
-3.84016431e-07
-3.84334418e-07
-3.70112791e-07
-3.6544895e-07
-3.63660668e-07
-3.63596922e-07
-3.8525337e-07
-3.84484297e-07
-3.85169054e-07
-3.6520243e-07
-3.64106987e-07
-3.86926775e-07
-3.84507081e-07
-3.74466938e-07
-3.6479188e-07
-3.64618875e-07
-3.86585106e-07
-3.84189784e-07
-3.66947356e-07
-3.64953601e-07
-3.8640632e-07
-3.84285955e-07
-3.73169469e-07
-3.64318201e-07
-3.64168718e-07
-3.86676765e-07
-3.84270651e-07
-3.66901492e-07
-3.64843754e-07
-3.86471829e-07
-3.84387493e-07
-3.72824904e-07
-3.64133881e-07
-3.63921982e-07
-3.86832582e-07
-3.84284528e-07
-3.66633613e-07
-3.64616751e-07
-3.86861078e-07
-3.84217259e-07
-3.66593344e-07
-3.64780614e-07
-3.86697708e-07
-3.84346991e-07
-3.73240228e-07
-3.64377577e-07
-3.64220703e-07
-3.86965823e-07
-3.84070914e-07
-3.66891298e-07
-3.66132823e-07
-3.86833072e-07
-3.70663214e-07
-3.64411238e-07
-3.86621863e-07
-3.84382402e-07
-3.85149664e-07
-3.65975458e-07
-3.64094308e-07
-3.77551596e-07
-3.84368792e-07
-3.8484024e-07
-3.6961097e-07
-3.63226296e-07
-3.63119483e-07
-3.86600907e-07
-3.84658887e-07
-3.73629941e-07
-3.64202108e-07
-3.64027933e-07
-3.86941084e-07
-3.84379895e-07
-3.66984247e-07
-3.64738413e-07
-3.86926174e-07
-3.84402258e-07
-3.73916109e-07
-3.64324988e-07
-3.64145696e-07
-3.86655667e-07
-3.84075294e-07
-3.66869178e-07
-3.65975786e-07
-3.87007357e-07
-3.7290393e-07
-3.64671287e-07
-3.87139473e-07
-3.84397234e-07
-3.76906873e-07
-3.64876056e-07
-3.64712768e-07
-3.86373509e-07
-3.84414584e-07
-3.76933947e-07
)
;

boundaryField
{
    closed
    {
        type            calculated;
        value           nonuniform List<scalar> 0();
    }
    open
    {
        type            calculated;
        value           nonuniform List<scalar> 0();
    }
    sides
    {
        type            empty;
    }
    procBoundary1to0
    {
        type            processor;
        value           uniform -3.83917432e-07;
    }
    procBoundary1to2
    {
        type            processor;
        value           uniform -3.6449421e-07;
    }
}


// ************************************************************************* //
