/*--------------------------------*- C++ -*----------------------------------*\
| =========                 |                                                 |
| \\      /  F ield         | OpenFOAM: The Open Source CFD Toolbox           |
|  \\    /   O peration     | Version:  2306                                  |
|   \\  /    A nd           | Website:  www.openfoam.com                      |
|    \\/     M anipulation  |                                                 |
\*---------------------------------------------------------------------------*/
FoamFile
{
    version     2.0;
    format      ascii;
    arch        "LSB;label=32;scalar=64";
    class       volScalarField;
    location    "0.00068";
    object      prefDh_T;
}
// * * * * * * * * * * * * * * * * * * * * * * * * * * * * * * * * * * * * * //

dimensions      [1 1 -3 -1 0 0 0];

internalField   nonuniform List<scalar> 
531
(
-0.000588101584
-0.000531406619
-0.00054397374
-0.000745396664
-0.000744778679
-0.000592036656
-0.000509201564
-0.000509287456
-0.00074423694
-0.000745607748
-0.000548447121
-0.00051842719
-0.000745063163
-0.000740894223
-0.000592669704
-0.000494989407
-0.000576278654
-0.000744066644
-0.000604810853
-0.00050154585
-0.000743018265
-0.000744672564
-0.00073722927
-0.000596679172
-0.000466667085
-0.000591004325
-0.000741995084
-0.000747009222
-0.000591127699
-0.000465257901
-0.000595674534
-0.000732818235
-0.000748427085
-0.000501943651
-0.000469675146
-0.000729432069
-0.000741833707
-0.000501856705
-0.00050206628
-0.000725942229
-0.000741070647
-0.000735349727
-0.000575657699
-0.000450942153
-0.000593395014
-0.000736715102
-0.000745890033
-0.000598327438
-0.000475156464
-0.000597325893
-0.00073481362
-0.000748968258
-0.000526023011
-0.000483063719
-0.000733639707
-0.000745106698
-0.000534115029
-0.000515853988
-0.000734407969
-0.000743937757
-0.000613862455
-0.000573422988
-0.00051945969
-0.000600513502
-0.000744524748
-0.000744748341
-0.000590627016
-0.000487876491
-0.000593211958
-0.000735246308
-0.000750950827
-0.000530265522
-0.00047599769
-0.000728946594
-0.000744970425
-0.000505363367
-0.000504681866
-0.000729906605
-0.000746357261
-0.000738169938
-0.000592935271
-0.000463877341
-0.000592611965
-0.000732988791
-0.000747454413
-0.000598401236
-0.000565115791
-0.000584321089
-0.000507583197
-0.000509973846
-0.000741916849
-0.000746090443
-0.000743007027
-0.000589073206
-0.000491904148
-0.000585209628
-0.000733275938
-0.000752749524
-0.000538539745
-0.000468723268
-0.000730577605
-0.000742022415
-0.00053307694
-0.000500877361
-0.000725840847
-0.000733176925
-0.000639242688
-0.000465773042
-0.000463968423
-0.000727700468
-0.000740443476
-0.00054946471
-0.000506349402
-0.000733197575
-0.000742100675
-0.000601105058
-0.000521236891
-0.000590977507
-0.00074399167
-0.000748816628
-0.000588573377
-0.000485729162
-0.000585568816
-0.000740577713
-0.000751804886
-0.000592105595
-0.000511097841
-0.000596601138
-0.000737033441
-0.000750033826
-0.000596425615
-0.00053332956
-0.00050295724
-0.000586924942
-0.000739003373
-0.000592068243
-0.000499296394
-0.000740493726
-0.000739341941
-0.000590269907
-0.000512378853
-0.00058710932
-0.000731724916
-0.000751435325
-0.000572580318
-0.000486555867
-0.000727260726
-0.000744680094
-0.000555379743
-0.000521020837
-0.000724307125
-0.000744026692
-0.000621866042
-0.000596996547
-0.000517381043
-0.000547040658
-0.00073610855
-0.000746027708
-0.000597979636
-0.000491181847
-0.00060439334
-0.000742199622
-0.0006029597
-0.00050071628
-0.000729626007
-0.000741797112
-0.000568056339
-0.000511050356
-0.000724710761
-0.000739902215
-0.000561405643
-0.000516026543
-0.000718285408
-0.00073468272
-0.00066402624
-0.000490209754
-0.00047085085
-0.00072200188
-0.000736963968
-0.000577033397
-0.000514871716
-0.000725088769
-0.000735041778
-0.000605772269
-0.000482162718
-0.000482987536
-0.000722867563
-0.000740285551
-0.000586807849
-0.000513300656
-0.000725803925
-0.000735912861
-0.000606321901
-0.000481273861
-0.000482413128
-0.000720983089
-0.000741278882
-0.00058230873
-0.000514750611
-0.000721933118
-0.000737071762
-0.000625005689
-0.000502174124
-0.000498926114
-0.00072331073
-0.000734958989
-0.00059962849
-0.000496094877
-0.000496812675
-0.000705999676
-0.000735051635
-0.000694432353
-0.00053385081
-0.000492220439
-0.000722470714
-0.000733929536
-0.000598944634
-0.00048407776
-0.000485049907
-0.0007231186
-0.000738615255
-0.000598022283
-0.000493719966
-0.000493569324
-0.000722932462
-0.000736709356
-0.000613142177
-0.000505396389
-0.000506044702
-0.000720728304
-0.000742738504
-0.00061222318
-0.000527349089
-0.000725265766
-0.000738493847
-0.000598034775
-0.000510747078
-0.000510369985
-0.00072350025
-0.000735501916
-0.00060790136
-0.000498441211
-0.000498230368
-0.000718336701
-0.000743362387
-0.00058741038
-0.000503384661
-0.000720717305
-0.000743766729
-0.000571950953
-0.000502116786
-0.000722327059
-0.000742704316
-0.000592239493
-0.000520739352
-0.000724849818
-0.000736364217
-0.000597952261
-0.000509444159
-0.000510369211
-0.000718990825
-0.000743478766
-0.000607191728
-0.000514253352
-0.000723287813
-0.000743721662
-0.000591267181
-0.000511159777
-0.000724944947
-0.00073934065
-0.000597785175
-0.000502411953
-0.000501311781
-0.000728231244
-0.000741893693
-0.00059409044
-0.000516931594
-0.00059052567
-0.000732893805
-0.000593016904
-0.000508044845
-0.00072539051
-0.000734315782
-0.000626325765
-0.000473723475
-0.000473877292
-0.000707681972
-0.000740991532
-0.000731416719
-0.000595483072
-0.000457729896
-0.000458960998
-0.000724978881
-0.000737554437
-0.000734928116
-0.000600032915
-0.000551359985
-0.000477904382
-0.000479676675
-0.0007173815
-0.000736566938
-0.000568175831
-0.000500557571
-0.000666316901
-0.000736359643
-0.000737370798
-0.000552338984
-0.000452403233
-0.000724191513
-0.000731157817
-0.000598795029
-0.000489061489
-0.000491494211
-0.000721595602
-0.000742322023
-0.000616227392
-0.000527620258
-0.00072701644
-0.000738469067
-0.000598757867
-0.000506169847
-0.000506867768
-0.00072601259
-0.000738994586
-0.000609902101
-0.000516805546
-0.000516419605
-0.000729161223
-0.000742414114
-0.000597846646
-0.000535490955
-0.000535928926
-0.000729545834
-0.00074247107
-0.000596184684
-0.000519384114
-0.000519022813
-0.000731095183
-0.000743908219
-0.000594615397
-0.00052044568
-0.000518976473
-0.000732506901
-0.000742854812
-0.000596062775
-0.000528984269
-0.000528341581
-0.000730044617
-0.000740429703
-0.000598481805
-0.000540315188
-0.000539547576
-0.000727668073
-0.000739657063
-0.000598166461
-0.000480343834
-0.000480349691
-0.000730153294
-0.000740557543
-0.000597551962
-0.000494497153
-0.00049477637
-0.000731163549
-0.000741290721
-0.000597555871
-0.000532225588
-0.000531346614
-0.000738791735
-0.000745912079
-0.000601828247
-0.000520201899
-0.000736399418
-0.000741208475
-0.000594429981
-0.000503198625
-0.000514305505
-0.000730480413
-0.000743493448
-0.000737480631
-0.000590810577
-0.000545939588
-0.000577624064
-0.000507963994
-0.00051028408
-0.000725308295
-0.000738426906
-0.000737110533
-0.000574591191
-0.000488082527
-0.000728872232
-0.000738576158
-0.000588497644
-0.00051486185
-0.000730276122
-0.000737553184
-0.000597217739
-0.000494666354
-0.000494108472
-0.000728688275
-0.000742487115
-0.000603289804
-0.000515715915
-0.000730334112
-0.000737079416
-0.000597561274
-0.000485894569
-0.000487423935
-0.000724160137
-0.000744050337
-0.000584257952
-0.000507801364
-0.00072736424
-0.000744612601
-0.000587003689
-0.000512953971
-0.000730885662
-0.000740263646
-0.000596648811
-0.000535289954
-0.000533513097
-0.000725754827
-0.000741253202
-0.000603091962
-0.000595759689
-0.000475021489
-0.000476736541
-0.000725844339
-0.000738048031
-0.000735754935
-0.000560276187
-0.000482110543
-0.000720501786
-0.000732646246
-0.000643415724
-0.000480137755
-0.000478843375
-0.000719421197
-0.000737169989
-0.000733960489
-0.000600250448
-0.000543403469
-0.000459075667
-0.000460403685
-0.000696503694
-0.000732770798
-0.000733639431
-0.000533884299
-0.000478253804
-0.000723091519
-0.000729701805
-0.000604563911
-0.000510555889
-0.000510420521
-0.000722684257
-0.000741246138
-0.000610285733
-0.000524820141
-0.000727825055
-0.000737628162
-0.000599135399
-0.000492036199
-0.00049177607
-0.000723035536
-0.000741245806
-0.000608629568
-0.000519064843
-0.000726642163
-0.000735857196
-0.000598437077
-0.000481576196
-0.000480844358
-0.000719940007
-0.00074244695
-0.000594628095
-0.00051183476
-0.000722349447
-0.000741904492
-0.000594693237
-0.000517001552
-0.000724728275
-0.000736522861
-0.00059961239
-0.000493346803
-0.000494441694
-0.0007168888
-0.000742038727
-0.000604850771
-0.000577009535
-0.000718037886
-0.000597248316
-0.000492238203
-0.00071422193
-0.000732918305
-0.000732792496
-0.000573495267
-0.000480663301
-0.000617550966
-0.000731497516
-0.000737393066
-0.000597869846
-0.000436075756
-0.000439897018
-0.000709929216
-0.00073185408
-0.000603104605
-0.000483661889
-0.000483006808
-0.000715481615
-0.000739322408
-0.000611757782
-0.000513952609
-0.000721622896
-0.000736037391
-0.000601707693
-0.000491170206
-0.00049156121
-0.00071237436
-0.000743662558
-0.000605061735
-0.000572067023
-0.000716641342
-0.000596827788
-0.000506770315
-0.000719125017
-0.00073391177
-0.000616603378
-0.000516335898
-0.000512404881
-0.000709377276
-0.000734417543
-0.000616915889
)
;

boundaryField
{
    closed
    {
        type            calculated;
        value           nonuniform List<scalar> 0();
    }
    open
    {
        type            calculated;
        value           nonuniform List<scalar> 0();
    }
    sides
    {
        type            empty;
    }
    procBoundary1to0
    {
        type            processor;
        value           uniform -0.000745389117;
    }
    procBoundary1to2
    {
        type            processor;
        value           uniform -0.000499019535;
    }
}


// ************************************************************************* //
