/*--------------------------------*- C++ -*----------------------------------*\
| =========                 |                                                 |
| \\      /  F ield         | OpenFOAM: The Open Source CFD Toolbox           |
|  \\    /   O peration     | Version:  2306                                  |
|   \\  /    A nd           | Website:  www.openfoam.com                      |
|    \\/     M anipulation  |                                                 |
\*---------------------------------------------------------------------------*/
FoamFile
{
    version     2.0;
    format      ascii;
    arch        "LSB;label=32;scalar=64";
    class       volScalarField;
    location    "0.00068";
    object      PV;
}
// * * * * * * * * * * * * * * * * * * * * * * * * * * * * * * * * * * * * * //

dimensions      [0 0 0 0 0 0 0];

internalField   nonuniform List<scalar> 
531
(
-0.00715143164
-0.00722130766
-0.00721395308
-0.00699072584
-0.00699108462
-0.00713367424
-0.00722922263
-0.00722696771
-0.00699199738
-0.00699031096
-0.00721238479
-0.00722618187
-0.00699106156
-0.00699343635
-0.00713272606
-0.00723614307
-0.00720468392
-0.0069918114
-0.00718568941
-0.00723159403
-0.00699384531
-0.00699097203
-0.00699616019
-0.00719231127
-0.0072487352
-0.00716583364
-0.00699268795
-0.00698929733
-0.00719392289
-0.00724893988
-0.00718586047
-0.00699877559
-0.00698777824
-0.00723737322
-0.00724133754
-0.00700086304
-0.00699246102
-0.00723927693
-0.00723337588
-0.00700312184
-0.00699301731
-0.00699723424
-0.00720045353
-0.00725737307
-0.00717399425
-0.00699566668
-0.00698994732
-0.00718586541
-0.00724517051
-0.00718973732
-0.00699767546
-0.00698753617
-0.0072271385
-0.0072357387
-0.00699855139
-0.00699059087
-0.00722353318
-0.00722634181
-0.00699774765
-0.00699113503
-0.00708663588
-0.00720216908
-0.00722718178
-0.00719247984
-0.00699109891
-0.00699058188
-0.00717003309
-0.00724007344
-0.00718515885
-0.00699748746
-0.00698648176
-0.007226145
-0.00723786387
-0.00700161824
-0.00699073179
-0.00723711174
-0.00723016793
-0.00700133692
-0.0069900985
-0.00699531387
-0.00718956
-0.00725177942
-0.00718120926
-0.00699793473
-0.00698854045
-0.00712823932
-0.00720762365
-0.00720178608
-0.00723082024
-0.00722881456
-0.00699339527
-0.00698985564
-0.00699190576
-0.0071704331
-0.00723977676
-0.00716318677
-0.00699876893
-0.00698586518
-0.00722287697
-0.00724122146
-0.00700103095
-0.00699273889
-0.00722610916
-0.00723567262
-0.00700340367
-0.00699831267
-0.00705963889
-0.00725046138
-0.00724758278
-0.00700312761
-0.00699350859
-0.00721950411
-0.00723134167
-0.00699919293
-0.00699286003
-0.0071921904
-0.00722624434
-0.00711732987
-0.00699188074
-0.00698884907
-0.00716986768
-0.00723897127
-0.00716360393
-0.00699397203
-0.00698667643
-0.00716486117
-0.00722947403
-0.00718773046
-0.00699543114
-0.00698738144
-0.00715456339
-0.00721589358
-0.00723129686
-0.00714707628
-0.00699386206
-0.00717317262
-0.00723402125
-0.00699423847
-0.0069938937
-0.00716888361
-0.00723314732
-0.00716446371
-0.00699935689
-0.0069863171
-0.0072103083
-0.00723464682
-0.00700314739
-0.00699096261
-0.00721840912
-0.0072246207
-0.00700469038
-0.0069910958
-0.00707950253
-0.00719310402
-0.00723178948
-0.00721444264
-0.00699697405
-0.00698993093
-0.00718116558
-0.00723462114
-0.00709215831
-0.00699264628
-0.00719305716
-0.00723282617
-0.00700186694
-0.00699267099
-0.00721304969
-0.00722975832
-0.00700481315
-0.0069939851
-0.00721758632
-0.00722999409
-0.00700866906
-0.00699757675
-0.00704068634
-0.00724183482
-0.00724744961
-0.00700698205
-0.0069957173
-0.00721076623
-0.00723106491
-0.0070041867
-0.00699716857
-0.00710436897
-0.00724536174
-0.00723962749
-0.00700613098
-0.00699360971
-0.00720591809
-0.00723049524
-0.00700370406
-0.00699656372
-0.00710193388
-0.0072456252
-0.00723926675
-0.00700728682
-0.0069929778
-0.00720880027
-0.00722916342
-0.00700627862
-0.00699576361
-0.00707502328
-0.00723673898
-0.00723564495
-0.00700559457
-0.00699687273
-0.00712871746
-0.00724266642
-0.00723633161
-0.00701507784
-0.00699658361
-0.00702146694
-0.00722435437
-0.00724218859
-0.00700576942
-0.0069972305
-0.00713053273
-0.00724422235
-0.00723837375
-0.00700491885
-0.00699423562
-0.00714061656
-0.00724026135
-0.00723603837
-0.00700494797
-0.00699533066
-0.00708995496
-0.00723599774
-0.00723026388
-0.00700716948
-0.00699178454
-0.00719615903
-0.00722356112
-0.00700384571
-0.00699458327
-0.00713482304
-0.00723453943
-0.00723062848
-0.00700500809
-0.00699635198
-0.00709934397
-0.00724023977
-0.00723318479
-0.00700900331
-0.00699150515
-0.0072079979
-0.00723074556
-0.00700754736
-0.00699149749
-0.00721228
-0.00723156088
-0.00700653732
-0.00699241429
-0.00720364662
-0.00722706692
-0.00700456331
-0.00699643735
-0.00712860597
-0.00723726455
-0.00722883429
-0.00700887068
-0.00699174943
-0.00720008297
-0.0072272904
-0.00700625923
-0.00699183949
-0.00720390189
-0.0072294235
-0.00700466123
-0.00699469868
-0.00712908968
-0.0072371943
-0.00723239181
-0.00700309736
-0.0069927051
-0.00713590599
-0.00722910707
-0.00716419166
-0.00699861294
-0.00715646055
-0.00723370898
-0.0070046125
-0.00699755036
-0.0070726409
-0.00724829673
-0.00724304226
-0.00701420395
-0.00699303352
-0.00699911232
-0.00714405597
-0.00725395416
-0.00724956322
-0.00700414136
-0.00699475088
-0.00699580602
-0.00715779434
-0.00721650124
-0.0072476598
-0.00724212817
-0.00700863965
-0.0069949512
-0.00721383184
-0.00723529979
-0.00703589525
-0.00699593799
-0.00699496565
-0.00721588732
-0.00725399227
-0.00700492904
-0.00699913531
-0.00713503325
-0.00724530643
-0.00723627463
-0.0070066711
-0.00699217095
-0.00719461338
-0.00722365449
-0.00700313183
-0.00699475143
-0.00712526189
-0.00723640198
-0.0072309466
-0.00700393894
-0.00699434527
-0.00709569026
-0.00723109323
-0.00722714776
-0.00700221766
-0.00699229852
-0.00712655912
-0.00722208143
-0.00721948549
-0.00700121149
-0.00699206187
-0.00712468524
-0.00722747326
-0.00722404828
-0.00700050142
-0.00699122815
-0.00713294175
-0.00722672612
-0.00722455498
-0.00699939319
-0.00699174248
-0.00712479894
-0.00722422864
-0.0072215238
-0.00700090344
-0.00699298975
-0.00711957022
-0.00722214199
-0.0072180917
-0.00700218814
-0.00699361839
-0.00712792368
-0.00724383771
-0.00723937598
-0.00700084221
-0.00699321119
-0.00712829758
-0.00723854621
-0.00723446581
-0.0070003788
-0.00699277704
-0.00712324501
-0.00722305814
-0.00722148509
-0.00699572982
-0.00698995905
-0.00718439815
-0.00722376249
-0.00699775965
-0.00699335357
-0.00712878132
-0.00723745795
-0.00722784431
-0.00700130688
-0.00699118258
-0.00699541645
-0.00714378219
-0.00722384999
-0.00720395848
-0.00723937734
-0.00723093566
-0.00700407714
-0.00699476108
-0.00699537563
-0.00720764419
-0.0072395995
-0.00700274708
-0.00699469404
-0.00720433749
-0.00722994064
-0.00700114939
-0.00699557984
-0.0071274398
-0.00724028676
-0.00723468923
-0.00700250321
-0.00699219221
-0.00719844508
-0.00722863557
-0.00700100624
-0.00699576541
-0.00712513565
-0.00724429912
-0.00723657497
-0.00700536669
-0.00699125593
-0.00720746794
-0.00722905212
-0.00700353379
-0.00699126706
-0.00720427185
-0.00722829181
-0.00700110042
-0.00699402522
-0.00712834714
-0.0072253733
-0.0072209504
-0.00700392869
-0.00699248497
-0.00711927954
-0.00719740478
-0.00724798238
-0.00724251433
-0.00700435501
-0.00699542491
-0.00699628107
-0.00721492054
-0.007243263
-0.00700777677
-0.00699877341
-0.00705705477
-0.00724623633
-0.0072440968
-0.00700837591
-0.00699544445
-0.00699711593
-0.00715603817
-0.00722088443
-0.00725405839
-0.00725062096
-0.00701916283
-0.00699811666
-0.00699786732
-0.00722391763
-0.0072479493
-0.00700584747
-0.00700006256
-0.007108498
-0.00723638552
-0.00723024019
-0.00700629044
-0.00699304317
-0.00719583044
-0.00722563524
-0.00700267451
-0.00699550012
-0.00712003113
-0.00724112543
-0.00723584753
-0.00700599255
-0.00699293291
-0.0071959201
-0.00722819636
-0.00700320145
-0.00699643271
-0.00712347376
-0.0072461052
-0.00723960479
-0.00700787149
-0.00699212757
-0.0072034651
-0.00722863565
-0.00700643039
-0.00699266757
-0.00720159492
-0.00722860055
-0.00700463746
-0.00699617047
-0.0071196478
-0.00724153505
-0.00723484479
-0.00700974828
-0.00699255241
-0.0072005421
-0.00720631625
-0.00700873336
-0.00714868819
-0.00724310567
-0.00701083368
-0.00699850722
-0.00699890145
-0.00720480739
-0.00724555082
-0.00707430184
-0.00699855684
-0.00699608776
-0.0071592082
-0.00726382489
-0.00725703758
-0.0070123569
-0.00699840954
-0.00711717086
-0.00724545974
-0.00724014996
-0.0070100014
-0.00699364348
-0.00719484437
-0.00722995098
-0.00700621036
-0.00699598075
-0.00711256149
-0.00724173625
-0.00723526091
-0.00701166433
-0.0069913911
-0.00719905518
-0.00720619701
-0.00700945163
-0.00712235272
-0.00723587152
-0.00700862714
-0.00699762904
-0.00708597645
-0.00723283069
-0.0072313568
-0.0070133656
-0.0069973718
-0.00708585485
)
;

boundaryField
{
    closed
    {
        type            zeroGradient;
    }
    open
    {
        type            zeroGradient;
    }
    sides
    {
        type            empty;
    }
    procBoundary1to0
    {
        type            processor;
        value           uniform -0.00699089385;
    }
    procBoundary1to2
    {
        type            processor;
        value           uniform -0.00723918216;
    }
}


// ************************************************************************* //
