/*--------------------------------*- C++ -*----------------------------------*\
| =========                 |                                                 |
| \\      /  F ield         | OpenFOAM: The Open Source CFD Toolbox           |
|  \\    /   O peration     | Version:  2306                                  |
|   \\  /    A nd           | Website:  www.openfoam.com                      |
|    \\/     M anipulation  |                                                 |
\*---------------------------------------------------------------------------*/
FoamFile
{
    version     2.0;
    format      ascii;
    arch        "LSB;label=32;scalar=64";
    class       volScalarField;
    location    "0.00068";
    object      T;
}
// * * * * * * * * * * * * * * * * * * * * * * * * * * * * * * * * * * * * * //

dimensions      [0 0 0 1 0 0 0];

internalField   nonuniform List<scalar> 
531
(
328.955411
324.784752
325.5931
340.053202
340.019954
329.411701
323.387407
323.401387
339.960668
340.064765
325.878158
323.960266
340.01421
339.768161
329.461655
322.475341
327.608144
339.942936
329.52652
322.90257
339.820846
340.017739
339.503914
328.942569
320.677496
328.945079
339.827113
340.157667
328.591984
320.591101
328.958493
339.230687
340.252535
322.881362
320.907922
338.987295
339.820856
322.858617
322.919983
338.751953
339.789948
339.371006
327.610333
319.670416
328.984115
339.493577
340.090313
329.120879
321.214217
329.006577
339.355736
340.287831
324.40747
321.756301
339.250004
340.02821
324.918782
323.803348
339.306159
339.970931
331.25935
327.461448
324.011941
329.167813
339.986047
340.021501
328.865429
322.017424
328.820346
339.382265
340.410328
324.670308
321.314904
338.941253
340.01765
323.086162
323.103359
338.982786
340.122996
339.56536
328.753416
320.487508
328.842929
339.255126
340.206067
329.864272
326.913988
328.11026
323.269868
323.42603
339.791321
340.11257
339.907968
328.772029
322.263687
328.629292
339.262341
340.520119
325.195236
320.853419
339.036099
339.829356
324.836723
322.832307
338.7395
339.277824
333.060836
320.615743
320.519977
338.849602
339.731036
325.876119
323.193675
339.21771
339.842513
329.210131
324.132672
329.533925
339.96127
340.263602
328.752117
321.897723
328.648394
339.731774
340.462642
329.028245
323.493275
328.99733
339.508545
340.359351
329.414157
324.939695
322.982018
328.934642
339.618758
328.915502
322.741571
339.678982
339.665064
328.855515
323.541758
328.722337
339.16709
340.439592
327.339014
321.974957
338.816964
339.999816
326.236397
324.128186
338.635353
339.978664
331.82807
328.954942
323.852778
325.770055
339.434903
340.095661
329.174107
322.255382
330.619045
339.826328
329.315998
322.840738
338.972588
339.820342
327.043898
323.488411
338.657385
339.70386
326.605239
323.788158
338.235535
339.375249
334.734685
322.149547
320.936757
338.470224
339.512871
327.599949
323.70862
338.685348
339.396071
330.58535
321.6385
321.722309
338.534616
339.721883
328.226332
323.617556
338.727153
339.45001
330.642892
321.582489
321.689886
338.411044
339.784262
327.931224
323.715115
338.47198
339.525832
332.058016
322.903534
322.712004
338.558701
339.389227
329.934566
322.493028
322.578442
337.458015
339.402294
336.734984
324.900498
322.258636
338.507151
339.322933
329.866199
321.756328
321.852147
338.553997
339.615984
329.684121
322.363836
322.381338
338.5457
339.50147
331.180973
323.100141
323.177389
338.394442
339.879734
329.830899
324.513908
338.694987
339.617015
329.760727
323.433412
323.435845
338.582422
339.426816
330.76635
322.652815
322.686069
338.240706
339.915093
328.244832
323.016948
338.386239
339.940543
327.282261
322.936691
338.485768
339.875549
328.570707
324.093362
338.65755
339.48165
329.832687
323.339719
323.451979
338.290667
339.925609
329.501222
323.699975
338.549994
339.939234
328.512218
323.499058
338.657756
339.665264
329.816157
322.916668
322.879354
338.873571
339.826022
329.515535
323.847158
328.945683
339.223255
329.197277
323.275672
338.679329
339.345759
332.157722
321.108998
321.15066
337.53932
339.781952
339.165664
329.495015
320.10492
320.203465
338.679604
339.569965
339.403597
329.599134
326.005389
321.357784
321.497747
338.173232
339.486501
327.035097
322.810631
334.864171
339.47644
339.523309
326.077492
319.777836
338.595157
339.14135
329.802218
322.050951
322.256316
338.455252
339.85161
330.090093
324.530229
338.797817
339.614275
329.920071
323.145412
323.224171
338.731761
339.647503
330.929504
323.8252
323.828807
338.928919
339.864354
329.850741
325.018733
325.061602
338.9867
339.873744
329.768435
324.008124
324.008624
339.069268
339.959096
329.574002
324.07714
324.00107
339.169641
339.896101
329.758592
324.609759
324.588022
339.01308
339.747397
329.968001
325.30463
325.28863
338.857178
339.689916
329.848413
321.534102
321.561736
338.994317
339.737117
329.804307
322.424779
322.466904
339.066531
339.791041
329.867644
324.81542
324.768205
339.59486
340.089301
329.364738
324.085758
339.394528
339.784141
329.61399
322.960079
323.695953
339.032977
339.951381
339.544406
329.213632
325.625444
327.691573
323.225744
323.42873
338.690416
339.620352
339.516274
327.48645
322.030116
338.908498
339.614736
328.342658
323.715833
339.009455
339.553981
329.799286
322.427026
322.427231
338.91241
339.861932
329.279482
323.776123
339.014584
339.523028
329.84635
321.869663
322.010457
338.618799
339.958228
328.062073
323.297483
338.815106
339.995617
328.254621
323.615732
339.04255
339.728883
329.757322
324.983017
324.905573
338.749276
339.807327
330.265966
328.839276
321.186562
321.326186
338.707023
339.586826
339.436705
326.565457
321.646958
338.360732
339.239132
333.346469
321.50997
321.443757
338.288994
339.5445
339.331015
329.640094
325.496354
320.182511
320.282072
336.8235
339.250311
339.270629
324.906265
321.379055
338.536647
339.059957
330.468241
323.410958
323.444065
338.527338
339.787053
329.722574
324.347927
338.85321
339.559434
330.003134
322.262418
322.278423
338.544774
339.783066
329.621209
323.980236
338.777104
339.445312
329.918656
321.596323
321.591227
338.346246
339.856374
328.716491
323.541921
338.49383
339.826257
328.736516
323.854774
338.648379
339.488324
330.037949
322.338121
322.44801
338.151451
339.841716
329.35189
327.641109
338.228649
329.55783
322.256257
337.950285
339.26441
339.219325
327.447579
321.542953
331.586804
339.177488
339.517928
329.446109
318.733439
319.001206
337.715342
339.185243
330.274931
321.722653
321.714643
338.057465
339.659222
329.814281
323.656064
338.445919
339.455694
330.241869
322.202467
322.269169
337.85433
339.941502
329.37579
327.344983
338.134227
329.845375
323.181793
338.278847
339.324923
331.441548
323.784709
323.556398
337.657568
339.355248
331.461596
)
;

boundaryField
{
    closed
    {
        type            fixedValue;
        value           nonuniform List<scalar> 0();
    }
    open
    {
        type            zeroGradient;
    }
    sides
    {
        type            empty;
    }
    procBoundary1to0
    {
        type            processor;
        value           uniform 340.055583;
    }
    procBoundary1to2
    {
        type            processor;
        value           uniform 322.696212;
    }
}


// ************************************************************************* //
