/*--------------------------------*- C++ -*----------------------------------*\
| =========                 |                                                 |
| \\      /  F ield         | OpenFOAM: The Open Source CFD Toolbox           |
|  \\    /   O peration     | Version:  2306                                  |
|   \\  /    A nd           | Website:  www.openfoam.com                      |
|    \\/     M anipulation  |                                                 |
\*---------------------------------------------------------------------------*/
FoamFile
{
    version     2.0;
    format      ascii;
    arch        "LSB;label=32;scalar=64";
    class       surfaceScalarField;
    location    "0.002";
    object      phi;
}
// * * * * * * * * * * * * * * * * * * * * * * * * * * * * * * * * * * * * * //

dimensions      [1 0 -1 0 0 0 0];

oriented        oriented;

internalField   nonuniform List<scalar> 
530
(
5.70241249e-07
5.72134669e-07
5.74384477e-07
5.85321891e-07
5.93178934e-07
5.96766687e-07
5.98460052e-07
5.92883866e-07
5.96156784e-07
6.00516258e-07
6.02632134e-07
6.04200473e-07
6.07489909e-07
6.08541498e-07
6.18916586e-07
6.3037233e-07
6.32868395e-07
6.35187393e-07
6.61435634e-07
6.70357187e-07
6.41082213e-07
6.43032921e-07
6.48582812e-07
6.50821258e-07
6.54411925e-07
6.69722294e-07
6.69972371e-07
6.76636315e-07
6.98716786e-07
6.8575021e-07
6.86209055e-07
6.89817188e-07
6.89607884e-07
6.89161608e-07
6.94142619e-07
6.90054092e-07
6.9001545e-07
7.02947762e-07
7.13437512e-07
7.1274612e-07
7.13894964e-07
7.24626904e-07
7.25914973e-07
7.24673877e-07
7.26470897e-07
7.36677726e-07
7.36670173e-07
7.36650354e-07
7.33444958e-07
7.34736229e-07
7.47056567e-07
7.52775031e-07
7.55780894e-07
7.5684715e-07
7.44760517e-07
7.46688043e-07
7.53066749e-07
7.53565649e-07
7.56363981e-07
7.64512951e-07
7.4222035e-07
7.63242827e-07
7.62950812e-07
7.7022212e-07
7.69085945e-07
7.68541677e-07
7.74191239e-07
7.71274756e-07
7.70611839e-07
7.78554835e-07
7.84005563e-07
7.84121628e-07
7.84189158e-07
7.79762281e-07
7.97105518e-07
8.00454603e-07
7.99561556e-07
7.88730501e-07
7.93422413e-07
7.98950877e-07
7.679988e-07
7.67595268e-07
7.71327076e-07
7.63903636e-07
8.21312739e-07
8.20066022e-07
8.13282625e-07
8.21265763e-07
8.251847e-07
8.09606297e-07
8.06551249e-07
8.06381311e-07
8.05170422e-07
8.04816287e-07
7.9242265e-07
8.34277819e-07
8.36153457e-07
8.36130542e-07
8.36369826e-07
8.35730233e-07
8.34376343e-07
8.33413413e-07
8.32155573e-07
8.30890435e-07
8.32388872e-07
8.30478152e-07
8.30113925e-07
8.34055169e-07
8.35103123e-07
8.34044877e-07
8.33765809e-07
8.29383863e-07
8.29880789e-07
8.23067228e-07
8.28614773e-07
8.39085497e-07
8.36040056e-07
8.35627633e-07
8.36342807e-07
8.48803609e-07
8.36127086e-07
8.31817373e-07
8.35344442e-07
8.32589285e-07
8.30734087e-07
8.26787179e-07
8.28440436e-07
8.3087214e-07
8.28340098e-07
8.25517043e-07
8.37331089e-07
8.36311383e-07
8.32883456e-07
8.32117492e-07
8.31849602e-07
8.31111406e-07
8.25475413e-07
8.29620319e-07
8.14363783e-07
8.29440491e-07
8.28908778e-07
8.3269742e-07
8.33159987e-07
8.32012874e-07
8.20192573e-07
8.27819305e-07
8.2974567e-07
8.28064749e-07
8.27499441e-07
8.31345712e-07
8.27730447e-07
8.27024431e-07
8.23323995e-07
8.20830326e-07
8.25503591e-07
8.31658075e-07
8.30882404e-07
8.31263418e-07
8.30536326e-07
8.31243251e-07
8.33196744e-07
8.27343273e-07
8.23630234e-07
8.32533428e-07
8.35225216e-07
8.3564648e-07
8.31372947e-07
8.38094332e-07
8.37299352e-07
8.36748725e-07
8.38869452e-07
8.36268177e-07
8.34559863e-07
8.33512825e-07
8.22138546e-07
8.12941654e-07
8.17379123e-07
8.48463823e-07
8.26765257e-07
8.25028481e-07
8.22999313e-07
8.21186578e-07
8.13448687e-07
8.13808849e-07
8.1353352e-07
8.10425869e-07
7.9923583e-07
8.09035563e-07
8.24083314e-07
8.19086492e-07
8.19136296e-07
8.19405959e-07
8.24222665e-07
8.16148186e-07
8.30756935e-07
8.40806178e-07
8.44336507e-07
8.44617493e-07
8.44607191e-07
8.42965608e-07
8.4391595e-07
8.44056539e-07
8.40474447e-07
8.35932173e-07
8.3755211e-07
8.31885173e-07
8.28471255e-07
8.33663615e-07
8.40413725e-07
8.40353737e-07
8.40493143e-07
8.39518371e-07
8.38674537e-07
8.3714058e-07
8.42998605e-07
8.40330997e-07
8.43030203e-07
8.44650192e-07
8.51050739e-07
8.41358076e-07
8.54456347e-07
8.54194762e-07
8.45191945e-07
8.42199096e-07
8.41123278e-07
8.40336883e-07
8.46006517e-07
8.3569474e-07
8.2963675e-07
8.30400776e-07
8.2988912e-07
8.26381996e-07
8.31719535e-07
8.32128695e-07
8.35894762e-07
8.35576548e-07
8.31253253e-07
8.2839848e-07
8.28242832e-07
8.27239893e-07
8.22521364e-07
8.28108543e-07
8.65131184e-07
8.43060285e-07
8.42847762e-07
8.38222687e-07
8.43096612e-07
8.53812936e-07
8.55120187e-07
8.56146696e-07
8.49898203e-07
8.25275319e-07
8.43898866e-07
8.39682682e-07
8.43659599e-07
8.44866405e-07
8.45283485e-07
8.42311092e-07
8.39638817e-07
8.40617425e-07
8.40311271e-07
8.34364813e-07
8.30062226e-07
8.3064283e-07
8.29891881e-07
8.26324e-07
8.17252275e-07
8.25072588e-07
8.64879818e-07
8.42849427e-07
8.42353583e-07
8.45480407e-07
8.43162208e-07
8.37911093e-07
8.39170234e-07
8.38799336e-07
8.32699026e-07
8.30672671e-07
8.32483191e-07
8.31881056e-07
8.2437581e-07
8.23838192e-07
8.25760303e-07
8.25658482e-07
8.19731806e-07
7.91499549e-07
8.07752696e-07
8.06715874e-07
8.1549826e-07
8.10956491e-07
7.98105034e-07
8.07781746e-07
8.44282536e-07
8.25472289e-07
8.2480355e-07
8.27744449e-07
8.25532088e-07
8.28547234e-07
8.4476816e-07
8.45005685e-07
8.45317498e-07
8.46485578e-07
8.35368815e-07
8.43712647e-07
8.42941788e-07
8.29272919e-07
8.28211592e-07
8.33556176e-07
8.31630302e-07
8.24281497e-07
7.91372946e-07
8.11203761e-07
8.11072021e-07
7.9059179e-07
7.80714646e-07
7.88403266e-07
7.84223284e-07
7.94225588e-07
7.96205712e-07
7.97526574e-07
7.87832914e-07
7.80158447e-07
7.81264133e-07
7.81477682e-07
7.77274725e-07
7.75050876e-07
7.7696619e-07
7.76895452e-07
7.8025554e-07
7.80052826e-07
7.64440894e-07
7.62869671e-07
7.62365677e-07
7.80259427e-07
7.2686477e-07
7.41236498e-07
7.41831128e-07
7.49035339e-07
7.50483539e-07
7.20125214e-07
7.21099596e-07
7.45730593e-07
7.4536015e-07
7.46065913e-07
7.52270664e-07
7.27482516e-07
7.20381358e-07
7.1985265e-07
7.34094218e-07
7.28435949e-07
7.31306988e-07
7.53007334e-07
7.52598115e-07
7.53364329e-07
7.58385869e-07
7.39697258e-07
7.35057819e-07
7.36096969e-07
7.37081624e-07
7.31176995e-07
7.40224635e-07
7.79027042e-07
7.58576012e-07
7.6111679e-07
7.568552e-07
7.66599062e-07
7.69691507e-07
7.76749319e-07
7.79242466e-07
7.75522205e-07
7.83424031e-07
7.94937435e-07
7.96095914e-07
7.96917033e-07
7.88472998e-07
7.8504915e-07
7.8740229e-07
7.88289613e-07
7.83319487e-07
7.71137965e-07
7.69286984e-07
7.76881257e-07
7.80687991e-07
7.85507304e-07
7.87606726e-07
7.93178423e-07
7.94662903e-07
7.8518835e-07
7.90411361e-07
7.84049944e-07
7.86212905e-07
7.86581014e-07
7.7916052e-07
7.79991026e-07
7.84061517e-07
7.85365812e-07
7.78851694e-07
7.77854422e-07
7.81890157e-07
7.84986181e-07
7.82569403e-07
7.92765087e-07
8.01632516e-07
8.06722092e-07
8.10366649e-07
8.04485407e-07
8.02053266e-07
8.07013339e-07
8.1210747e-07
8.11509074e-07
8.25879622e-07
8.30694984e-07
8.45016462e-07
8.41636448e-07
8.43011547e-07
8.50180769e-07
8.53712252e-07
8.51864416e-07
8.63046265e-07
8.90759475e-07
8.80965401e-07
8.85490247e-07
8.84766881e-07
8.94067659e-07
8.81898358e-07
8.98916722e-07
9.00814243e-07
9.02215715e-07
9.05429587e-07
9.2496249e-07
9.28509082e-07
9.33418521e-07
9.31676634e-07
9.34296418e-07
9.32288986e-07
9.35619155e-07
9.39355532e-07
9.44083228e-07
9.47351363e-07
9.39782688e-07
9.47440355e-07
9.51660389e-07
9.56948834e-07
9.54539291e-07
9.58332292e-07
9.5858384e-07
9.61649932e-07
9.65874797e-07
9.67396315e-07
9.64575906e-07
9.77780055e-07
9.49567769e-07
9.82173496e-07
9.85676755e-07
9.8489515e-07
9.85840696e-07
9.86596371e-07
9.88687806e-07
9.88446099e-07
9.83781234e-07
9.95214031e-07
1.01714756e-06
1.01054676e-06
1.01271934e-06
1.01189439e-06
1.01324328e-06
1.01372957e-06
1.01635386e-06
1.01851581e-06
1.02696257e-06
1.02361077e-06
1.02676411e-06
1.01272293e-06
1.04103315e-06
1.03667382e-06
1.03514279e-06
1.03708866e-06
1.04423429e-06
1.04380131e-06
1.04215416e-06
1.04210231e-06
1.03559175e-06
1.04743816e-06
1.05664902e-06
1.0576134e-06
1.06064132e-06
1.06250177e-06
1.06606373e-06
1.05916402e-06
1.07111586e-06
1.06865301e-06
1.06614565e-06
1.06780947e-06
1.07646935e-06
1.07373375e-06
1.07525526e-06
1.07610932e-06
1.08082857e-06
1.07788396e-06
1.07257024e-06
1.08103337e-06
1.11850652e-06
1.09634673e-06
1.09786784e-06
1.10194948e-06
1.10177675e-06
1.09805586e-06
1.10240746e-06
1.12985451e-06
1.11198685e-06
1.10428568e-06
1.10521834e-06
1.10850633e-06
1.1239265e-06
1.12497294e-06
1.12251369e-06
1.13021106e-06
1.1311701e-06
1.12388573e-06
1.12318832e-06
1.14475889e-06
1.13371389e-06
1.15201821e-06
1.15079279e-06
1.15555417e-06
1.16270381e-06
1.17051011e-06
1.17092883e-06
1.17302259e-06
1.17647297e-06
)
;

boundaryField
{
    closed
    {
        type            calculated;
        value           nonuniform List<scalar> 0();
    }
    open
    {
        type            calculated;
        value           nonuniform List<scalar> 0();
    }
    sides
    {
        type            empty;
        value           nonuniform List<scalar> 0();
    }
    procBoundary1to0
    {
        type            processor;
        value           uniform -5.72573988e-07;
    }
    procBoundary1to2
    {
        type            processor;
        value           uniform 1.17617447e-06;
    }
}


// ************************************************************************* //
