/*--------------------------------*- C++ -*----------------------------------*\
| =========                 |                                                 |
| \\      /  F ield         | OpenFOAM: The Open Source CFD Toolbox           |
|  \\    /   O peration     | Version:  2306                                  |
|   \\  /    A nd           | Website:  www.openfoam.com                      |
|    \\/     M anipulation  |                                                 |
\*---------------------------------------------------------------------------*/
FoamFile
{
    version     2.0;
    format      ascii;
    arch        "LSB;label=32;scalar=64";
    class       volScalarField;
    location    "0.002";
    object      prefDh_H;
}
// * * * * * * * * * * * * * * * * * * * * * * * * * * * * * * * * * * * * * //

dimensions      [1 1 -3 0 0 0 0];

internalField   nonuniform List<scalar> 
531
(
23964.8995
23973.1316
23369.8192
23022.7902
23162.4473
23965.0006
23971.8586
23967.3011
23382.4943
23144.1625
23961.1489
23951.7693
23386.2952
23155.1173
23051.9102
23016.0991
23950.2417
23948.8929
23104.4088
22957.539
23465.8957
23940.4394
23954.271
23948.1805
23948.1588
23366.2511
23116.6123
23072.2898
23089.0543
23947.7224
23299.2399
23078.7376
23933.259
23951.9389
23944.5645
23384.5071
23077.5412
23014.8477
22967.8881
23937.7707
23943.636
23075.3897
22975.2898
23941.1497
23940.8348
23207.0066
23017.2996
23945.895
23938.6588
23390.9071
22879.5985
23066.7973
23941.6184
23954.8368
23953.1618
23396.5569
23151.5975
23945.1197
23949.672
23297.3457
23313.1992
23953.5698
23387.8417
23111.7867
23947.7596
23961.4715
23958.9467
23385.2724
23128.9666
23086.6968
22995.4634
23944.0104
23963.5564
23286.14
22875.8916
22877.4298
23957.3836
23949.774
23380.2041
22967.7062
23356.825
23934.5725
23401.1702
23015.2781
23641.6455
23911.3491
23909.3048
23496.0686
22659.1986
22711.1285
23912.9457
23920.0794
23917.8605
23928.5965
23919.5785
23092.4606
22852.2521
23927.1554
23911.4833
23403.9933
22818.0134
23107.229
23913.5041
23343.7442
22868.3668
23927.1996
23923.4614
23106.3359
23116.1725
23923.3576
23936.4023
23928.2243
23404.4425
23088.0273
22987.4334
22988.122
23924.1988
23937.4849
23061.3112
23071.2252
23932.4848
23260.9478
22846.3571
23931.1906
23936.266
23942.0996
23226.4167
23032.8435
23931.1898
23944.9801
23938.5747
23397.8256
23098.97
23943.6105
23927.8697
23392.1356
23202.1157
23027.8018
23048.3737
23940.2034
23198.7648
22855.5255
23923.4386
23941.7227
23934.0555
23289.191
22869.6824
23938.79
23925.841
23243.154
22956.6854
23942.0001
23920.4253
23395.4809
22777.0372
22902.5214
23915.699
23946.2898
23926.062
23950.2045
23934.2852
23415.7745
23232.7036
22974.7804
23033.5678
23940.9647
23335.328
22810.8355
23939.8352
23933.7091
23231.4935
23015.6207
23943.8683
23930.5855
23358.0498
23123.6283
22952.4602
22969.789
23930.0865
23935.82
23931.0359
23401.4344
23094.5752
23938.0087
23921.2598
23401.1572
23177.9653
22929.7213
22941.8403
23932.5053
23930.9927
23943.0914
23938.1416
23387.9248
22860.0238
22865.3394
23926.7029
23938.592
23172.8046
22955.5036
23927.2639
23926.6458
23231.6592
22964.9671
23927.4835
23916.8212
23413.5189
22712.8023
22791.7889
23908.071
23926.7336
23921.1981
23930.4475
23931.2147
23931.1511
23405.0385
23012.2169
23111.8135
22785.5805
22795.3529
23907.6991
23933.7186
23069.2613
23070.9112
23922.9316
23938.7726
23932.4536
23325.4551
23036.807
23947.3855
23930.5724
23384.4903
22936.1243
22942.6756
23935.9734
23949.2833
23304.756
23034.9305
23945.1867
23938.9471
23389.8223
22979.3904
22983.4095
23939.9849
23937.5285
23388.4925
22913.7604
22946.962
23927.406
23948.8125
23222.9575
23222.7527
23938.9181
23388.6307
22908.5448
23944.9359
23939.6447
23250.9408
23074.9596
23943.1048
23939.1955
23286.2763
23154.8342
23945.1771
23934.8047
23401.497
23161.8196
22907.3614
22921.6974
23932.3562
23938.5842
23935.7612
23401.4955
22970.8107
23939.5618
23937.0801
23233.0904
23095.6149
23935.3012
23944.0037
23192.1671
23133.8394
23935.0162
23945.8401
23171.1809
23174.7394
23939.4569
23945.6994
23936.659
23392.2636
23135.4169
22928.3183
22936.6319
23933.5788
23932.8942
23934.4282
23410.3594
22703.723
22800.4144
23914.2246
23935.3558
23920.0723
23134.8061
22803.383
23942.3711
23911.801
23333.5197
23906.3195
23952.0861
23144.0503
23145.436
23921.7366
23930.3145
23335.6436
23108.8111
22784.0515
22785.5527
23908.1149
23914.3683
23907.6538
23233.0917
22774.9457
23915.4825
23906.6721
22888.2828
22771.5739
23917.3055
23918.0677
23924.4062
23924.2868
23283.4666
22903.2266
23933.3624
23923.0547
23385.0903
22807.0035
22816.032
23918.3918
23924.6338
23397.6247
22681.9721
22816.4378
23915.444
23926.2878
23924.0373
23317.1729
22995.5822
23938.6121
23918.6782
23398.638
22838.2567
22927.2226
23922.9399
23933.9963
23931.0584
23347.1291
23099.8872
23945.0762
23924.3524
23389.837
23006.5864
23011.7328
23936.445
23936.615
23395.5728
22962.6807
22965.9166
23940.958
23932.7681
23392.1834
22916.4269
22924.7994
23934.6192
23936.4041
23328.5424
23103.9328
23945.3076
23921.2497
23393.2258
23067.8813
23122.8008
22697.2673
22705.1651
23919.3784
23929.4792
23923.5882
23936.1241
23930.2538
23296.3063
23080.1173
23942.5676
23936.9823
23218.255
23069.6174
23946.5806
23938.145
23259.8695
23049.0776
23952.1436
23930.4335
23387.5412
22919.9061
22928.126
23932.1014
23940.6357
23312.9072
23026.3321
23940.4465
23931.4965
23398.7903
22882.3327
22886.1296
23939.857
23934.0054
23396.5271
23929.0661
23950.3877
23410.5474
23058.4347
23059.7866
23935.7379
23926.6062
23397.6292
22908.5553
22912.9371
23921.5475
23925.8873
23417.9476
22627.9728
22729.4839
23905.6231
23920.6602
23916.0588
23126.8744
22815.4941
23920.5629
23926.9271
23926.1809
23938.8781
23152.3563
23082.2084
23927.5931
23942.7639
23933.2636
23402.3434
23082.2551
23943.6518
23929.8782
23393.9098
23228.6029
23048.1412
23046.0105
23925.2811
23935.5109
23271.09
23142.917
23929.6683
23932.1738
23411.2797
23185.5949
22941.7976
22942.7935
23912.1959
23933.2947
23079.7601
22996.5659
23916.7584
23933.9357
23022.5535
23027.3652
23919.1035
23937.5031
23927.3391
23287.0615
22941.8868
23936.3956
23923.3248
23228.1547
22893.0388
23934.9856
23917.5745
23358.6332
22515.5611
22645.8897
23906.9127
23931.0938
23921.3928
23932.4359
23930.6236
23331.5468
23330.4241
23927.9845
23402.4962
23002.3372
23923.0243
23927.5462
23924.8008
23431.7304
23063.5317
23107.7828
22746.7599
22754.4489
23894.3663
23918.704
22952.0278
22952.073
23897.3318
23918.6811
23909.3939
23221.378
22900.3708
23906.6391
23908.2982
23017.9853
22898.2142
23912.1496
23917.1804
23927.4206
23928.095
23406.915
22836.6619
22838.7012
23913.6009
23918.0191
23413.1455
22688.8107
22819.4389
23898.8038
23933.1388
23910.7496
23405.5152
)
;

boundaryField
{
    closed
    {
        type            calculated;
        value           nonuniform List<scalar> 0();
    }
    open
    {
        type            calculated;
        value           nonuniform List<scalar> 0();
    }
    sides
    {
        type            empty;
    }
    procBoundary1to0
    {
        type            processor;
        value           uniform 23236.6577;
    }
    procBoundary1to2
    {
        type            processor;
        value           uniform 22773.5519;
    }
}


// ************************************************************************* //
