/*--------------------------------*- C++ -*----------------------------------*\
| =========                 |                                                 |
| \\      /  F ield         | OpenFOAM: The Open Source CFD Toolbox           |
|  \\    /   O peration     | Version:  2306                                  |
|   \\  /    A nd           | Website:  www.openfoam.com                      |
|    \\/     M anipulation  |                                                 |
\*---------------------------------------------------------------------------*/
FoamFile
{
    version     2.0;
    format      ascii;
    arch        "LSB;label=32;scalar=64";
    class       volScalarField;
    location    "0.002";
    object      prefDPV_H2O;
}
// * * * * * * * * * * * * * * * * * * * * * * * * * * * * * * * * * * * * * //

dimensions      [1 -1 -1 0 0 0 0];

internalField   nonuniform List<scalar> 
531
(
-3.83851146e-07
-3.83773883e-07
-3.6875125e-07
-3.64183134e-07
-3.6502755e-07
-3.84274232e-07
-3.8351469e-07
-3.83987654e-07
-3.67085652e-07
-3.65007146e-07
-3.83812423e-07
-3.83856795e-07
-3.66657991e-07
-3.65138054e-07
-3.643816e-07
-3.64213939e-07
-3.84547498e-07
-3.84199481e-07
-3.64693888e-07
-3.63852205e-07
-3.76536506e-07
-3.84127933e-07
-3.84127403e-07
-3.83799585e-07
-3.84106851e-07
-3.66433893e-07
-3.6493871e-07
-3.64558569e-07
-3.64745725e-07
-3.84471103e-07
-3.66078124e-07
-3.64620446e-07
-3.84530745e-07
-3.83660505e-07
-3.84147897e-07
-3.69913275e-07
-3.6463889e-07
-3.64198152e-07
-3.63915501e-07
-3.84754303e-07
-3.84242833e-07
-3.64573977e-07
-3.63992488e-07
-3.84556291e-07
-3.84237729e-07
-3.65406341e-07
-3.64279081e-07
-3.84206158e-07
-3.84249113e-07
-3.67042839e-07
-3.6342703e-07
-3.64493057e-07
-3.84636935e-07
-3.83698728e-07
-3.84113161e-07
-3.67106465e-07
-3.65103554e-07
-3.84147789e-07
-3.83782233e-07
-3.66002565e-07
-3.66145131e-07
-3.84319912e-07
-3.69766093e-07
-3.64782321e-07
-3.84318602e-07
-3.83612931e-07
-3.8391724e-07
-3.71164825e-07
-3.64892786e-07
-3.64634999e-07
-3.64008848e-07
-3.84519027e-07
-3.84233908e-07
-3.65897035e-07
-3.63269704e-07
-3.6328365e-07
-3.84147175e-07
-3.84200298e-07
-3.67742537e-07
-3.63997093e-07
-3.66382549e-07
-3.8461905e-07
-3.67628202e-07
-3.64342447e-07
-3.82241373e-07
-3.84271029e-07
-3.8490398e-07
-3.77422444e-07
-3.62077994e-07
-3.62436475e-07
-3.85264018e-07
-3.8462317e-07
-3.84898897e-07
-3.84382955e-07
-3.84576867e-07
-3.64746345e-07
-3.63349574e-07
-3.8459493e-07
-3.84664408e-07
-3.66980393e-07
-3.63211634e-07
-3.64819357e-07
-3.85024711e-07
-3.66333829e-07
-3.63455635e-07
-3.84662883e-07
-3.84328296e-07
-3.64854149e-07
-3.64953849e-07
-3.85052559e-07
-3.83758397e-07
-3.84482476e-07
-3.72245892e-07
-3.64758652e-07
-3.64105356e-07
-3.64089153e-07
-3.85016234e-07
-3.84179401e-07
-3.64551631e-07
-3.64623537e-07
-3.84964065e-07
-3.65803388e-07
-3.63210213e-07
-3.84982463e-07
-3.8419601e-07
-3.84520361e-07
-3.65591652e-07
-3.6435163e-07
-3.84928591e-07
-3.83776468e-07
-3.84368055e-07
-3.67427473e-07
-3.64856899e-07
-3.84130326e-07
-3.84066478e-07
-3.67637953e-07
-3.65557002e-07
-3.6430419e-07
-3.64535217e-07
-3.84876705e-07
-3.65447945e-07
-3.63234171e-07
-3.85199578e-07
-3.84072228e-07
-3.84686928e-07
-3.65959544e-07
-3.6340165e-07
-3.84544e-07
-3.84467699e-07
-3.65654925e-07
-3.63988268e-07
-3.84376427e-07
-3.8451743e-07
-3.67069979e-07
-3.62898013e-07
-3.63477959e-07
-3.85056997e-07
-3.84133345e-07
-3.8451102e-07
-3.83858845e-07
-3.83970103e-07
-3.736584e-07
-3.65664664e-07
-3.6398071e-07
-3.64369773e-07
-3.84833497e-07
-3.6626023e-07
-3.62990565e-07
-3.8456156e-07
-3.84426637e-07
-3.65576011e-07
-3.64314939e-07
-3.84450109e-07
-3.8420474e-07
-3.66397628e-07
-3.65048894e-07
-3.63840305e-07
-3.64023146e-07
-3.8499966e-07
-3.83898307e-07
-3.84528717e-07
-3.67749667e-07
-3.64862884e-07
-3.84197514e-07
-3.84131208e-07
-3.67291315e-07
-3.65434841e-07
-3.63713191e-07
-3.63866237e-07
-3.8509157e-07
-3.84379223e-07
-3.84203228e-07
-3.84238782e-07
-3.69484615e-07
-3.63321956e-07
-3.63264659e-07
-3.84728817e-07
-3.84391194e-07
-3.65275777e-07
-3.63922175e-07
-3.84786074e-07
-3.84386867e-07
-3.65655503e-07
-3.64050648e-07
-3.84537977e-07
-3.84610005e-07
-3.66875066e-07
-3.62533052e-07
-3.62875764e-07
-3.8523397e-07
-3.84526301e-07
-3.84653557e-07
-3.84360716e-07
-3.84036906e-07
-3.84132408e-07
-3.67858243e-07
-3.64372495e-07
-3.64894822e-07
-3.62949207e-07
-3.62878047e-07
-3.85134287e-07
-3.84350944e-07
-3.64684687e-07
-3.64631482e-07
-3.85145153e-07
-3.83877368e-07
-3.84376369e-07
-3.66214007e-07
-3.64463445e-07
-3.84299492e-07
-3.84328064e-07
-3.68211902e-07
-3.63821077e-07
-3.63716775e-07
-3.84502492e-07
-3.84217286e-07
-3.66078704e-07
-3.64385038e-07
-3.84343293e-07
-3.84250348e-07
-3.68163064e-07
-3.64066622e-07
-3.64024133e-07
-3.84386977e-07
-3.84356896e-07
-3.6828315e-07
-3.63685192e-07
-3.63760943e-07
-3.84617167e-07
-3.8403625e-07
-3.65604832e-07
-3.65568313e-07
-3.84776144e-07
-3.70322105e-07
-3.63584069e-07
-3.84470525e-07
-3.84264443e-07
-3.65715838e-07
-3.64658129e-07
-3.84574577e-07
-3.84070701e-07
-3.65955491e-07
-3.65188718e-07
-3.84377938e-07
-3.84034002e-07
-3.66763485e-07
-3.65279946e-07
-3.63559127e-07
-3.63704316e-07
-3.85206604e-07
-3.83952109e-07
-3.84772444e-07
-3.6705e-07
-3.64020709e-07
-3.84534287e-07
-3.8419506e-07
-3.65640483e-07
-3.64778092e-07
-3.84732054e-07
-3.84011604e-07
-3.65394863e-07
-3.6499772e-07
-3.84775997e-07
-3.839259e-07
-3.65253442e-07
-3.65269378e-07
-3.84742481e-07
-3.83628658e-07
-3.84198435e-07
-3.68510561e-07
-3.65093091e-07
-3.63693786e-07
-3.63801943e-07
-3.85166187e-07
-3.83947948e-07
-3.84648691e-07
-3.66998314e-07
-3.62410082e-07
-3.62892806e-07
-3.85119873e-07
-3.84288418e-07
-3.84461606e-07
-3.6498693e-07
-3.630579e-07
-3.84677878e-07
-3.84885657e-07
-3.66206703e-07
-3.85336567e-07
-3.83696682e-07
-3.65206191e-07
-3.65100026e-07
-3.84619534e-07
-3.84084902e-07
-3.66386816e-07
-3.6499489e-07
-3.62914152e-07
-3.62939555e-07
-3.85505185e-07
-3.84348825e-07
-3.85152311e-07
-3.65712747e-07
-3.6292656e-07
-3.85141794e-07
-3.84713739e-07
-3.63516608e-07
-3.62826933e-07
-3.85563044e-07
-3.84695562e-07
-3.84715546e-07
-3.84603338e-07
-3.65995195e-07
-3.63661591e-07
-3.84487957e-07
-3.84547646e-07
-3.66640392e-07
-3.63095616e-07
-3.63022379e-07
-3.84666808e-07
-3.84755161e-07
-3.66758962e-07
-3.62307266e-07
-3.63045953e-07
-3.85132245e-07
-3.84169762e-07
-3.8447426e-07
-3.66223328e-07
-3.64266499e-07
-3.84342427e-07
-3.84478765e-07
-3.67973827e-07
-3.63282243e-07
-3.63701741e-07
-3.84889263e-07
-3.84013872e-07
-3.84259271e-07
-3.66392466e-07
-3.64894461e-07
-3.84248804e-07
-3.842483e-07
-3.69309146e-07
-3.64289345e-07
-3.64224602e-07
-3.8435783e-07
-3.84296217e-07
-3.68629366e-07
-3.63969682e-07
-3.63954071e-07
-3.84357382e-07
-3.84399202e-07
-3.68331537e-07
-3.63702318e-07
-3.63666172e-07
-3.8448607e-07
-3.84258107e-07
-3.66251196e-07
-3.6490872e-07
-3.84310606e-07
-3.84190918e-07
-3.70877117e-07
-3.6471606e-07
-3.6495792e-07
-3.62358475e-07
-3.62327018e-07
-3.85455771e-07
-3.84462562e-07
-3.84958468e-07
-3.84102121e-07
-3.8438636e-07
-3.66047142e-07
-3.6472228e-07
-3.84596201e-07
-3.84134937e-07
-3.65514849e-07
-3.64626347e-07
-3.84591982e-07
-3.8417388e-07
-3.65758459e-07
-3.64524395e-07
-3.84339192e-07
-3.84342782e-07
-3.67990266e-07
-3.63737199e-07
-3.63659458e-07
-3.84543682e-07
-3.84289347e-07
-3.66157966e-07
-3.64377775e-07
-3.84382923e-07
-3.84383078e-07
-3.67833169e-07
-3.63474197e-07
-3.6344513e-07
-3.84556618e-07
-3.84599872e-07
-3.66706494e-07
-3.84821991e-07
-3.83781907e-07
-3.67466639e-07
-3.64571027e-07
-3.64590524e-07
-3.84480187e-07
-3.84370679e-07
-3.68186929e-07
-3.63702045e-07
-3.63630359e-07
-3.84669653e-07
-3.84679428e-07
-3.66929454e-07
-3.61983346e-07
-3.6251393e-07
-3.85504638e-07
-3.84439845e-07
-3.84960047e-07
-3.65003925e-07
-3.63085496e-07
-3.85518138e-07
-3.84501806e-07
-3.84794756e-07
-3.84298404e-07
-3.65160585e-07
-3.646858e-07
-3.85254358e-07
-3.83784281e-07
-3.84567749e-07
-3.66829595e-07
-3.64761891e-07
-3.84322277e-07
-3.84047298e-07
-3.68688776e-07
-3.6569892e-07
-3.64510655e-07
-3.64489539e-07
-3.84887021e-07
-3.84123257e-07
-3.65927218e-07
-3.6512403e-07
-3.84561974e-07
-3.8402521e-07
-3.67377709e-07
-3.65431819e-07
-3.63880328e-07
-3.63836223e-07
-3.85239081e-07
-3.84311218e-07
-3.64740401e-07
-3.64162467e-07
-3.85241448e-07
-3.84217989e-07
-3.64349076e-07
-3.64357165e-07
-3.85387384e-07
-3.83981637e-07
-3.84694013e-07
-3.65962907e-07
-3.63886017e-07
-3.8475759e-07
-3.84476832e-07
-3.65562159e-07
-3.63594426e-07
-3.84681654e-07
-3.84783786e-07
-3.66425608e-07
-3.61285777e-07
-3.61909364e-07
-3.8560352e-07
-3.84501469e-07
-3.84884189e-07
-3.84120364e-07
-3.84130536e-07
-3.66320085e-07
-3.66350743e-07
-3.84860553e-07
-3.68738624e-07
-3.64239278e-07
-3.84916254e-07
-3.8396871e-07
-3.84321425e-07
-3.74148134e-07
-3.64692584e-07
-3.64931021e-07
-3.62724961e-07
-3.62687602e-07
-3.85493548e-07
-3.84551038e-07
-3.63974871e-07
-3.63950425e-07
-3.85752552e-07
-3.84218008e-07
-3.84952433e-07
-3.65641773e-07
-3.63705528e-07
-3.85202577e-07
-3.84537498e-07
-3.64343783e-07
-3.63654139e-07
-3.85464623e-07
-3.84571432e-07
-3.84429815e-07
-3.8442465e-07
-3.68406394e-07
-3.63238768e-07
-3.63206693e-07
-3.84776356e-07
-3.84671451e-07
-3.6685618e-07
-3.62390615e-07
-3.63033929e-07
-3.85392703e-07
-3.84016954e-07
-3.84665765e-07
-3.67370282e-07
)
;

boundaryField
{
    closed
    {
        type            calculated;
        value           nonuniform List<scalar> 0();
    }
    open
    {
        type            calculated;
        value           nonuniform List<scalar> 0();
    }
    sides
    {
        type            empty;
    }
    procBoundary1to0
    {
        type            processor;
        value           uniform -3.65485125e-07;
    }
    procBoundary1to2
    {
        type            processor;
        value           uniform -3.62980601e-07;
    }
}


// ************************************************************************* //
