/*--------------------------------*- C++ -*----------------------------------*\
| =========                 |                                                 |
| \\      /  F ield         | OpenFOAM: The Open Source CFD Toolbox           |
|  \\    /   O peration     | Version:  2306                                  |
|   \\  /    A nd           | Website:  www.openfoam.com                      |
|    \\/     M anipulation  |                                                 |
\*---------------------------------------------------------------------------*/
FoamFile
{
    version     2.0;
    format      ascii;
    arch        "LSB;label=32;scalar=64";
    class       volScalarField;
    location    "0.002";
    object      prefDZ_H;
}
// * * * * * * * * * * * * * * * * * * * * * * * * * * * * * * * * * * * * * //

dimensions      [1 -1 -1 0 0 0 0];

internalField   nonuniform List<scalar> 
531
(
0.000110372277
0.000110408801
0.000107734877
0.00010619515
0.000106814223
0.000110372417
0.000110403352
0.000110382816
0.00010778971
0.000106732803
0.000110355691
0.000110314107
0.000107806204
0.000106781106
0.000106324141
0.000106165236
0.000110306837
0.000110301115
0.000106556869
0.000105905721
0.000108162655
0.000110263718
0.000110324992
0.000110298251
0.00011029793
0.000107717018
0.000106610305
0.000106414273
0.00010648826
0.000110295733
0.0001074197
0.000106442767
0.000110231616
0.000110315002
0.000110281978
0.000107800159
0.000106437369
0.000106159719
0.000105951586
0.000110251441
0.000110277795
0.000106428026
0.000105984279
0.000110266553
0.00011026539
0.000107011307
0.000106170352
0.000110287829
0.000110255742
0.000107826703
0.000105560163
0.000106390049
0.000110268571
0.000110327812
0.000110320089
0.000107851596
0.000106765556
0.000110284437
0.000110304871
0.000107411586
0.000107481662
0.000110321746
0.000107814738
0.000106589404
0.000110296008
0.000110357266
0.000110345859
0.000107804295
0.000106665532
0.000106478172
0.000106074059
0.000110279253
0.000110366048
0.000107362075
0.000105544164
0.000105550966
0.000110338766
0.000110305017
0.000107779993
0.000105950499
0.000107675199
0.000110237371
0.000107872174
0.000106161129
0.00010893997
0.000110134742
0.000110125226
0.000108295804
0.000104583606
0.000104813574
0.000110141098
0.000110173162
0.000110163133
0.000110211068
0.000110170977
0.000106503432
0.000105438711
0.00011020453
0.000110135051
0.000107884249
0.000105286795
0.000106568953
0.000110143743
0.000107617063
0.000105510092
0.000110204677
0.000110188359
0.000106564842
0.000106608289
0.000110187375
0.000110246104
0.000110209347
0.000107889271
0.000106483636
0.000106037963
0.000106041085
0.000110191128
0.000110250592
0.000106365393
0.00010640929
0.000110227873
0.000107250134
0.000105412906
0.000110222126
0.00011024518
0.000110270788
0.000107097069
0.00010623932
0.000110222162
0.00011028409
0.000110255283
0.00010785735
0.000106532017
0.000110277764
0.000110208079
0.000107832429
0.000106988892
0.000106217035
0.00010630783
0.00011026213
0.000106974397
0.000105453632
0.000110187629
0.000110269444
0.000110235031
0.000107375406
0.000105516112
0.000110256109
0.0001101988
0.000107171426
0.000105901466
0.000110270451
0.000110174772
0.000107846842
0.000105105427
0.000105662029
0.000110153444
0.000110289631
0.000110199747
0.000110307174
0.00011023657
0.000107940072
0.000107124792
0.000105982051
0.000106242481
0.000110265534
0.000107579854
0.000105255513
0.000110260727
0.000110233685
0.000107119769
0.00010616275
0.000110278674
0.000110220009
0.000107680593
0.000106641146
0.000105883149
0.000105959684
0.000110217223
0.000110243422
0.000110221769
0.000107873402
0.000106512419
0.000110252899
0.000110178749
0.000107871936
0.000106881757
0.000105782341
0.000105835786
0.000110227873
0.000110221686
0.000110275412
0.000110253458
0.000107814939
0.000105473378
0.000105497213
0.000110202428
0.000110255342
0.000106859385
0.000105896424
0.000110204872
0.000110202423
0.000107120174
0.000105938126
0.000110206025
0.000110158738
0.000107926108
0.000104820756
0.000105171113
0.000110119523
0.000110202711
0.000110178096
0.000110219284
0.000110222919
0.000110222568
0.000107889317
0.000106147395
0.000106589092
0.000105143282
0.000105186962
0.000110117947
0.000110233783
0.000106400319
0.000106407862
0.000110185421
0.000110256517
0.00011022816
0.000107536021
0.000106256574
0.000110294364
0.000110219861
0.00010779911
0.00010581049
0.000105840002
0.000110243661
0.000110302831
0.0001074443
0.000106248495
0.000110284592
0.000110257018
0.000107822539
0.000106002284
0.000106020326
0.000110261516
0.000110250656
0.000107816756
0.000105711386
0.000105858937
0.000110205624
0.000110300878
0.000107081593
0.000107080832
0.000110256508
0.000107818538
0.000105688497
0.000110283389
0.000110260098
0.000107205887
0.000106425797
0.000110275201
0.000110258249
0.000107362424
0.000106779646
0.000110284524
0.000110238825
0.00010787315
0.000106810417
0.00010568331
0.000105746652
0.00011022713
0.000110255628
0.000110242526
0.000107873296
0.000105964241
0.000110259535
0.000110248787
0.000107126617
0.000106517365
0.000110240517
0.000110279593
0.000106945205
0.000106686836
0.000110239223
0.000110287791
0.000106852238
0.000106868034
0.00011025892
0.000110287386
0.000110246919
0.000107833472
0.000106693498
0.000105776159
0.000105812812
0.000110232575
0.000110230424
0.00011023671
0.000107912271
0.000104780713
0.000105209438
0.000110146866
0.000110241081
0.000110173248
0.000106691186
0.00010522216
0.000110271877
0.000110136298
0.000107572032
0.00011011169
0.000110315628
0.00010673153
0.000106738113
0.000110180507
0.000110218896
0.00010758069
0.000106575343
0.000105136581
0.000105143186
0.000110119524
0.000110148061
0.000110117734
0.000107126323
0.000105096043
0.000110152424
0.000110113701
0.00010559853
0.000105081327
0.000110160198
0.000110164198
0.000110192264
0.000110191816
0.000107349721
0.000105664579
0.000110232105
0.000110186398
0.000107800109
0.000105238156
0.000105278539
0.000110165655
0.000110193243
0.00010785548
0.000104684266
0.000105280274
0.00011015226
0.000110200996
0.000110190804
0.000107499038
0.000106073695
0.000110255467
0.00011016706
0.00010786122
0.000105376645
0.000105771255
0.000110185643
0.000110235258
0.000110222064
0.000107631895
0.000106535964
0.000110284171
0.000110192364
0.000107823248
0.000106122611
0.000106145753
0.000110245855
0.000110246653
0.000107848096
0.000105928217
0.000105942676
0.000110265848
0.000110229537
0.00010783302
0.000105723199
0.000105760585
0.000110237674
0.000110245747
0.000107549625
0.000106553932
0.000110285151
0.000110178661
0.000107839083
0.00010639406
0.000106637804
0.000104752143
0.000104787351
0.000110169458
0.000110214921
0.000110188465
0.00011024462
0.000110218408
0.000107406753
0.000106448536
0.000110272806
0.000110248398
0.000107061003
0.000106402118
0.000110290587
0.00011025352
0.000107245519
0.000106311003
0.000110315414
0.000110219235
0.000107812409
0.000105738572
0.000105775417
0.000110226478
0.00011026447
0.000107480303
0.000106210228
0.000110263564
0.000110223915
0.000107861814
0.000105572183
0.000105589173
0.000110260826
0.000110234872
0.000107851252
0.00011021283
0.000110308042
0.000107913346
0.00010635251
0.000106358461
0.000110242634
0.00011020226
0.000107856898
0.000105688166
0.000105707898
0.000110179632
0.000110198851
0.000107945624
0.000104445018
0.000104894996
0.000110108485
0.000110175869
0.000110155107
0.000106655778
0.000105275958
0.000110174661
0.000110203586
0.000110200069
0.000110256677
0.000106768714
0.000106457985
0.000110205994
0.000110274267
0.00011023161
0.00010787691
0.000106457913
0.000110277808
0.000110216991
0.000107840813
0.000107106371
0.000106306882
0.000106297468
0.000110196016
0.000110241888
0.000107294826
0.000106726796
0.000110215686
0.000110227177
0.000107916521
0.000106915766
0.00010583555
0.000105840128
0.000110137793
0.000110231933
0.000106446878
0.000106078431
0.000110158004
0.000110234841
0.000106193502
0.000106214902
0.000110168289
0.000110250817
0.000110205272
0.000107365894
0.000105835928
0.000110245347
0.000110187646
0.000107104941
0.000105619451
0.000110239156
0.000110161949
0.000107683066
0.000103947054
0.000104524868
0.000110114127
0.000110222045
0.000110178792
0.000110228268
0.000110220232
0.000107562716
0.000107557572
0.000110208011
0.000107878613
0.000106103864
0.000110185997
0.000110206717
0.000110194298
0.000108010522
0.000106374773
0.000106570999
0.000104971246
0.00010500555
0.000110058623
0.000110167122
0.000105880777
0.000105881059
0.000110071576
0.000110167262
0.000110125586
0.000107074401
0.000105651732
0.000110113202
0.000110121033
0.000106173179
0.000105642295
0.000110137427
0.000110160357
0.000110205825
0.000110208816
0.00010789787
0.000105369679
0.00010537885
0.000110144351
0.000110164
0.000107924455
0.000104714454
0.000105293663
0.000110078354
0.000110231457
0.0001101318
0.000107891153
)
;

boundaryField
{
    closed
    {
        type            calculated;
        value           nonuniform List<scalar> 0();
    }
    open
    {
        type            calculated;
        value           nonuniform List<scalar> 0();
    }
    sides
    {
        type            empty;
    }
    procBoundary1to0
    {
        type            processor;
        value           uniform 0.000107143191;
    }
    procBoundary1to2
    {
        type            processor;
        value           uniform 0.000105089692;
    }
}


// ************************************************************************* //
