/*--------------------------------*- C++ -*----------------------------------*\
| =========                 |                                                 |
| \\      /  F ield         | OpenFOAM: The Open Source CFD Toolbox           |
|  \\    /   O peration     | Version:  2306                                  |
|   \\  /    A nd           | Website:  www.openfoam.com                      |
|    \\/     M anipulation  |                                                 |
\*---------------------------------------------------------------------------*/
FoamFile
{
    version     2.0;
    format      ascii;
    arch        "LSB;label=32;scalar=64";
    class       volScalarField;
    location    "0.002";
    object      prefDh_T;
}
// * * * * * * * * * * * * * * * * * * * * * * * * * * * * * * * * * * * * * //

dimensions      [1 1 -3 -1 0 0 0];

internalField   nonuniform List<scalar> 
531
(
-0.000747368735
-0.000749456026
-0.00058982667
-0.000496915958
-0.000535827301
-0.000748488999
-0.000748429496
-0.000748389001
-0.00059663078
-0.000531356241
-0.000746226479
-0.000743736263
-0.000598557177
-0.00053484233
-0.000505185885
-0.000495466426
-0.000745093562
-0.000743823681
-0.000519796941
-0.000479014115
-0.000610669091
-0.000741292403
-0.000745130876
-0.000742591316
-0.000743380758
-0.000593645304
-0.000524302781
-0.00051121045
-0.000516429114
-0.000744198131
-0.000575461627
-0.000513154344
-0.000740338069
-0.000743273886
-0.000742488985
-0.000593125519
-0.000512978819
-0.000495068077
-0.00048192021
-0.000742163337
-0.000742476232
-0.000512055693
-0.00048417486
-0.000742592942
-0.000741685601
-0.000548984148
-0.000496138783
-0.000743008667
-0.00074111108
-0.000599570715
-0.000457356487
-0.000509475604
-0.000742929973
-0.000744178126
-0.000744786131
-0.000601409573
-0.000533772416
-0.000742642819
-0.000742960474
-0.000574444461
-0.000579204417
-0.000745432435
-0.000594491704
-0.000522139116
-0.000743816114
-0.000745798359
-0.000745886208
-0.00059148559
-0.000526971673
-0.000515167011
-0.000489224098
-0.000743291051
-0.000747984067
-0.000571045578
-0.000455634204
-0.00045608973
-0.000746046219
-0.000744070378
-0.00059488075
-0.000482323617
-0.000591084327
-0.000740929275
-0.000602223509
-0.000496003284
-0.000661736695
-0.000733592142
-0.000734653832
-0.000619751014
-0.000395065639
-0.000409939262
-0.000736582678
-0.00073692025
-0.000737012257
-0.000738664301
-0.000736662346
-0.000517257804
-0.000450076894
-0.00073880997
-0.000734643037
-0.000604136301
-0.000440724252
-0.000521282741
-0.00073612661
-0.000587707479
-0.000454664221
-0.000738996749
-0.00073709898
-0.000521287459
-0.000524292054
-0.000738929115
-0.000739214235
-0.000738817317
-0.000596424894
-0.000516259649
-0.000487801378
-0.000487880703
-0.000739069532
-0.000740605384
-0.00050850438
-0.000511351715
-0.000741233867
-0.000564495967
-0.00044792008
-0.000740921941
-0.00074031001
-0.00074276424
-0.000554868783
-0.000500368388
-0.000740784054
-0.000741642622
-0.000741394324
-0.000601373506
-0.000519520856
-0.000742178779
-0.000737645308
-0.000599118133
-0.00054886866
-0.000498856888
-0.000505247772
-0.000743151473
-0.000547328779
-0.000450348384
-0.000739326656
-0.000741504626
-0.000740960036
-0.000572230482
-0.000454734746
-0.000741906641
-0.000738118227
-0.000559249572
-0.000479536283
-0.000742366454
-0.00073674427
-0.000601095007
-0.000428846575
-0.000463353549
-0.000736817462
-0.000742930319
-0.000738290992
-0.000743307038
-0.00073917597
-0.000598102391
-0.000556868606
-0.000483983647
-0.000500652302
-0.00074325217
-0.000585193725
-0.000437887848
-0.000742241748
-0.000740195135
-0.000555947505
-0.000495931638
-0.000743074502
-0.000738756329
-0.000591486068
-0.000526692748
-0.000477691975
-0.000482981891
-0.000740659703
-0.000739415818
-0.000739716156
-0.000602135838
-0.000518489156
-0.000740797513
-0.000735979101
-0.000602712298
-0.00054227259
-0.000471363211
-0.000475190135
-0.000741565093
-0.000739319395
-0.000742222922
-0.000740940907
-0.000594941627
-0.000451910188
-0.000452966263
-0.000739028151
-0.000741458704
-0.00053998353
-0.000478889399
-0.000739330507
-0.00073813325
-0.000556557446
-0.000481931529
-0.000738754591
-0.000735983
-0.000607545776
-0.000410763
-0.000432518523
-0.000735155351
-0.000738516578
-0.000737308498
-0.000739120469
-0.000738496878
-0.000738726337
-0.000603209781
-0.000495415678
-0.0005228668
-0.000431259917
-0.00043343607
-0.000734797924
-0.000740002818
-0.000511241611
-0.000511323672
-0.000739047324
-0.000740181084
-0.000739717345
-0.000582563701
-0.000501992934
-0.000743663045
-0.00073907094
-0.000595655324
-0.000473526864
-0.000474597088
-0.000741018474
-0.000743977982
-0.000576742351
-0.000501075333
-0.000743165531
-0.000741194269
-0.000597553349
-0.000485598613
-0.000486354146
-0.000741834361
-0.000741075276
-0.000596920709
-0.000467231444
-0.000475898482
-0.000738936605
-0.000743379797
-0.000554146792
-0.000553840316
-0.00074253758
-0.000593925776
-0.000465407033
-0.000743423268
-0.000741424221
-0.000561515105
-0.000512470118
-0.000743182396
-0.000740799187
-0.000571524843
-0.000535109018
-0.000743252067
-0.000739485622
-0.000603599533
-0.000537381855
-0.000464982496
-0.000469315654
-0.000741816971
-0.000740322549
-0.000741652371
-0.000603180725
-0.000483221969
-0.000742095821
-0.00074053347
-0.000556787099
-0.000518218951
-0.000741421278
-0.000741980993
-0.000545398375
-0.000528826649
-0.000741454796
-0.000742268954
-0.0005394463
-0.000540401255
-0.000742600849
-0.000741458211
-0.000740425311
-0.000597876341
-0.000529821237
-0.000470911385
-0.000473552972
-0.000742053015
-0.000738732505
-0.00074096531
-0.000606286328
-0.000407917943
-0.000434790199
-0.000736569408
-0.000740295895
-0.000736502646
-0.00052898772
-0.000436295954
-0.000743243836
-0.000735298731
-0.000584351065
-0.000734931559
-0.00074340879
-0.000532625312
-0.000532275034
-0.000737370427
-0.000738371332
-0.000586258024
-0.000522760385
-0.000430714269
-0.000431210392
-0.000735857898
-0.00073463019
-0.000734831389
-0.000557299787
-0.000428433064
-0.000736974002
-0.000733436248
-0.000459985871
-0.000427136696
-0.000738551196
-0.000736548403
-0.000738357226
-0.000738036005
-0.000571170343
-0.000464467959
-0.000740256724
-0.000737551163
-0.00059962392
-0.000437389946
-0.000439354522
-0.000736564435
-0.000738521929
-0.000603449528
-0.000401871381
-0.000439566989
-0.000736938942
-0.000737473596
-0.000737634846
-0.000580725419
-0.000490708715
-0.000741338684
-0.000736160261
-0.00060084987
-0.000446207754
-0.000470680547
-0.000738395803
-0.000739209157
-0.000739028332
-0.000588950169
-0.000519974531
-0.000742891389
-0.000737139629
-0.000595859516
-0.000493559379
-0.000494458604
-0.000740777034
-0.000740665405
-0.000598834354
-0.00048092804
-0.000481645386
-0.000742028204
-0.000739863418
-0.000598113281
-0.000467987029
-0.000469889624
-0.000740600551
-0.000740508591
-0.000583565585
-0.000521045298
-0.000743114918
-0.000736130734
-0.000594664538
-0.000511090091
-0.000525917173
-0.00040604005
-0.000407952657
-0.000738853244
-0.000739114148
-0.000738752588
-0.000740028026
-0.000739132819
-0.000574545946
-0.000514114867
-0.000743088854
-0.00074035101
-0.000552401578
-0.000510977742
-0.00074419163
-0.000740774301
-0.000563911104
-0.000505356463
-0.000745086114
-0.00073907037
-0.000597027187
-0.000469037204
-0.000470681313
-0.000740050188
-0.000741763469
-0.000579236281
-0.000498925582
-0.000741952031
-0.000739469118
-0.000601108561
-0.000458278408
-0.00045908695
-0.000742235081
-0.000740722716
-0.00060198398
-0.000739922307
-0.000743158381
-0.000605667216
-0.000507919747
-0.000508366061
-0.000740895797
-0.000738080544
-0.000600191113
-0.000466010661
-0.000466743712
-0.00073744672
-0.000738675262
-0.000608980137
-0.000386569202
-0.000414991275
-0.000735166232
-0.00073660965
-0.00073666933
-0.000527192553
-0.000439509289
-0.000739339899
-0.000738507243
-0.000739052446
-0.000741299042
-0.000534330555
-0.000514399456
-0.000740617943
-0.000741047589
-0.00074043444
-0.000603792383
-0.000514875573
-0.000742685407
-0.00073815293
-0.000598176754
-0.000556140571
-0.00050504635
-0.000504400641
-0.00073903921
-0.000739912504
-0.000567777339
-0.000531826221
-0.000739422275
-0.000738732758
-0.000606047491
-0.000544082146
-0.000475253453
-0.000475269127
-0.000736311321
-0.000739782788
-0.000514137691
-0.00049037444
-0.000737581747
-0.000739720108
-0.000497832062
-0.000499059871
-0.000738603218
-0.000740098958
-0.00073911533
-0.000571763125
-0.000475305507
-0.000741790295
-0.000737443862
-0.000555065208
-0.000461569501
-0.000741204509
-0.000736638032
-0.00059184688
-0.000354574913
-0.000390959452
-0.00073577457
-0.000739662146
-0.000737953879
-0.00073905169
-0.000738575132
-0.000584795334
-0.000584771759
-0.000739721095
-0.00060104472
-0.000492229619
-0.000738488279
-0.000737302263
-0.000737452752
-0.000602854691
-0.000509885944
-0.000522117613
-0.000420324129
-0.000422142724
-0.000732020409
-0.000736353431
-0.000478303757
-0.000478186066
-0.000733499128
-0.000735488338
-0.000734802615
-0.000554031038
-0.000463966733
-0.000734678536
-0.000733433698
-0.000496678029
-0.000463169102
-0.000736872626
-0.000735983417
-0.000738458812
-0.000738632579
-0.000603047348
-0.000445600004
-0.000445966632
-0.000735517435
-0.000736473032
-0.000607445664
-0.000403973623
-0.00044027249
-0.000732992664
-0.000738979167
-0.000734443149
-0.000604087131
)
;

boundaryField
{
    closed
    {
        type            calculated;
        value           nonuniform List<scalar> 0();
    }
    open
    {
        type            calculated;
        value           nonuniform List<scalar> 0();
    }
    sides
    {
        type            empty;
    }
    procBoundary1to0
    {
        type            processor;
        value           uniform -0.00055647458;
    }
    procBoundary1to2
    {
        type            processor;
        value           uniform -0.000428305235;
    }
}


// ************************************************************************* //
