/*--------------------------------*- C++ -*----------------------------------*\
| =========                 |                                                 |
| \\      /  F ield         | OpenFOAM: The Open Source CFD Toolbox           |
|  \\    /   O peration     | Version:  2306                                  |
|   \\  /    A nd           | Website:  www.openfoam.com                      |
|    \\/     M anipulation  |                                                 |
\*---------------------------------------------------------------------------*/
FoamFile
{
    version     2.0;
    format      ascii;
    arch        "LSB;label=32;scalar=64";
    class       volScalarField;
    location    "0.00066";
    object      prefDh_T;
}
// * * * * * * * * * * * * * * * * * * * * * * * * * * * * * * * * * * * * * //

dimensions      [1 1 -3 -1 0 0 0];

internalField   nonuniform List<scalar> 
530
(
-0.000735552012
-0.000614095091
-0.000591485939
-0.000591220276
-0.000591195088
-0.000591194533
-0.000591194502
-0.000591194501
-0.000591194501
-0.000591194501
-0.000591194501
-0.000591194501
-0.000591194501
-0.000591194501
-0.000591194501
-0.000591194501
-0.000591194501
-0.000591194501
-0.000591194501
-0.000591194501
-0.000591194501
-0.000591194501
-0.000591194501
-0.000591194501
-0.000591194501
-0.000591194501
-0.000591194501
-0.000591194501
-0.000591194501
-0.000591194501
-0.000591194501
-0.000591194501
-0.000591194501
-0.000591194501
-0.000591194501
-0.000591194501
-0.000591194501
-0.000591194501
-0.000591194501
-0.000591194501
-0.000591194501
-0.000591194501
-0.000591194501
-0.000591194501
-0.000591194501
-0.000591194501
-0.000591194501
-0.000591194501
-0.000591194501
-0.000591194501
-0.000591194501
-0.000591194501
-0.000591194501
-0.000591194501
-0.000591194501
-0.000591194501
-0.000591194501
-0.000591194501
-0.000591194501
-0.000591194501
-0.000591194501
-0.000591194501
-0.000591194501
-0.000591194501
-0.000591194501
-0.000591194501
-0.000591194501
-0.000591194501
-0.000591194501
-0.000591194501
-0.000591194502
-0.000591194505
-0.000591194508
-0.00059119453
-0.000591194561
-0.000591194672
-0.000591194926
-0.000591195329
-0.000591196334
-0.000591198875
-0.00059120266
-0.000591209513
-0.000591220456
-0.000591242711
-0.00059127868
-0.000591342963
-0.000591491316
-0.000591621963
-0.00059117949
-0.000591301209
-0.000593322888
-0.000598314882
-0.000596234163
-0.000601610582
-0.000601374629
-0.000708703524
-0.000744491441
-0.000594924917
-0.000542219675
-0.000536179068
-0.000595701638
-0.000750023642
-0.000748433165
-0.000745200364
-0.000594771819
-0.00053611701
-0.000479221741
-0.000484191905
-0.000750799104
-0.000742156744
-0.000741940511
-0.000599931935
-0.000519224194
-0.00047425168
-0.000476095278
-0.000750288499
-0.000741173239
-0.000745421604
-0.000742462179
-0.000595985796
-0.00049736314
-0.000524731829
-0.000750104042
-0.00074293764
-0.000592683379
-0.000499153139
-0.0005299395
-0.000748764938
-0.000748028651
-0.000549532865
-0.000522695498
-0.000755832848
-0.000741557965
-0.000591957805
-0.000506120551
-0.00056607062
-0.000743186867
-0.000750479381
-0.000525510336
-0.000506477132
-0.000748962904
-0.000741696235
-0.000535340829
-0.000502935583
-0.000757121767
-0.000740787437
-0.000590261637
-0.000505382609
-0.000547491523
-0.000744493837
-0.000745778571
-0.00053176799
-0.000502048745
-0.000753004749
-0.000745628021
-0.000519222283
-0.000513255803
-0.000755671251
-0.000742135376
-0.000589827388
-0.000524129573
-0.000559107679
-0.000748572499
-0.000745344448
-0.000564263214
-0.000526599039
-0.000757902705
-0.000743520607
-0.000587397244
-0.000527349968
-0.000547762062
-0.000747416955
-0.000744597728
-0.000595556742
-0.000564565188
-0.000518782094
-0.000520649409
-0.00074652742
-0.000744598455
-0.000514466778
-0.000492646197
-0.000750733236
-0.000743494711
-0.000520071716
-0.000515033809
-0.000752784483
-0.000740523644
-0.000590489143
-0.000519246075
-0.000542061385
-0.000746378402
-0.000744008026
-0.00056668861
-0.0005284183
-0.000752605282
-0.000743118855
-0.000591690799
-0.000506136156
-0.000527670893
-0.000749315644
-0.000740595367
-0.000590331152
-0.000491494405
-0.00051496099
-0.000741901938
-0.000745376896
-0.00053144337
-0.000508944878
-0.000743836249
-0.000744143168
-0.000522959778
-0.000516086749
-0.000742463324
-0.00074343624
-0.00052400305
-0.000517903401
-0.000741602518
-0.000743119183
-0.000520107685
-0.000513718419
-0.000741482435
-0.000743274928
-0.000512408455
-0.000506520509
-0.000741895394
-0.000743600633
-0.000508556454
-0.000504888499
-0.00074324634
-0.000743287615
-0.000512244341
-0.000512178954
-0.000745737992
-0.000741903376
-0.000527348983
-0.000519500578
-0.000748342914
-0.000740884567
-0.000592024832
-0.000477739282
-0.000519651134
-0.000741540492
-0.000746264772
-0.000526991626
-0.000516886764
-0.000745631758
-0.000743729981
-0.000533071149
-0.000524928592
-0.00074892904
-0.000743181486
-0.000589871022
-0.000491816861
-0.000531556789
-0.000745280391
-0.000746511541
-0.000540663642
-0.000521695686
-0.000749963841
-0.000744530796
-0.000587855741
-0.000506090382
-0.000540315789
-0.000743378756
-0.000749537887
-0.000558014455
-0.000549838521
-0.000747071041
-0.000744655951
-0.000590408083
-0.000563413417
-0.000501826249
-0.000512028052
-0.000743193621
-0.000743991757
-0.000518969871
-0.000520342287
-0.000740686939
-0.000736822156
-0.000629039495
-0.000470180689
-0.000514310561
-0.000740860675
-0.000740205783
-0.000741055214
-0.000596834365
-0.000514361285
-0.000502582669
-0.000505271691
-0.000744045784
-0.000738925149
-0.000591035991
-0.000490238482
-0.000529754357
-0.000742047639
-0.000742533772
-0.000602153661
-0.000504264479
-0.00052288559
-0.000746244868
-0.000743407262
-0.000591681101
-0.000501442792
-0.000523962116
-0.000747345439
-0.000745044943
-0.000588884459
-0.000489925048
-0.000517478123
-0.000744975351
-0.000745941226
-0.000550766728
-0.000527864738
-0.000746003762
-0.000741314504
-0.000589012085
-0.0004912796
-0.000516356574
-0.000738576983
-0.000743979906
-0.000520269779
-0.00050771118
-0.000737464537
-0.000740433417
-0.000738726058
-0.00074121514
-0.000561928772
-0.000499893292
-0.000457798083
-0.000474799939
-0.000737974706
-0.000739756581
-0.000515392431
-0.000508548386
-0.000735459326
-0.00074136489
-0.000549999814
-0.000536523377
-0.000741827846
-0.000740199302
-0.000590095029
-0.000499623122
-0.000520420737
-0.000739966904
-0.000747131018
-0.00054179601
-0.000521570727
-0.00073879711
-0.000745825395
-0.000545043525
-0.000529575013
-0.000740380453
-0.000745264905
-0.000590706252
-0.000517679986
-0.00052712373
-0.000744789724
-0.000745516591
-0.000589183276
-0.000493999484
-0.000567206331
-0.000743486145
-0.000594781898
-0.000513383363
-0.00069257924
-0.0007439682
-0.00074107456
-0.000598570497
-0.000483732844
-0.000527112917
-0.000740038214
-0.00074292679
-0.000591633735
-0.000493482995
-0.000573123431
-0.000737876269
-0.000598463934
-0.000502097242
-0.000724062155
-0.000735904262
-0.000738705946
-0.000485685139
-0.000443256802
-0.000732013789
-0.000732908626
-0.000596513736
-0.0005183277
-0.000552378861
-0.000733640813
-0.000614879626
-0.000513573245
-0.000588465681
-0.000739880954
-0.000749546617
-0.000576871631
-0.000466221697
-0.000613439596
-0.000736263893
-0.000607041684
-0.000507175231
-0.00056908294
-0.000733800597
-0.000591428982
-0.000515668305
-0.000729774535
-0.000743700463
-0.000593167887
-0.000527142021
-0.000593433259
-0.000741959509
-0.000748110074
-0.00058817036
-0.000448799708
-0.00058640528
-0.000733092772
-0.000591242518
-0.000498864059
-0.000724653962
-0.000741892963
-0.000581883281
-0.000519004942
-0.00072089985
-0.000743196323
-0.000594842933
-0.000534514177
-0.000589698509
-0.000739282003
-0.000748055565
-0.000586611213
-0.000477727745
-0.000583794152
-0.000731778647
-0.000594053952
-0.00054680983
-0.000584651174
-0.000728545297
-0.000753716462
-0.000598314544
-0.000560492178
-0.000526223308
-0.000542278135
-0.000733304306
-0.00074621218
-0.000589164939
-0.000507515792
-0.000541646767
-0.000731549797
-0.000746817029
-0.000591089457
-0.000519198386
-0.00054550151
-0.000731152958
-0.000746456442
-0.000592828374
-0.000526029586
-0.000536056167
-0.000728996146
-0.000742326026
-0.000595459455
-0.000484963641
-0.0004825713
-0.000703261162
-0.000734558106
-0.000734226429
-0.000645672078
-0.000593008576
-0.000503423446
-0.000502573943
-0.000715646882
-0.00073909221
-0.000594378666
-0.000497740119
-0.000513803256
-0.000724251859
-0.000736531511
-0.000573573648
-0.000555542262
-0.000717142826
-0.000742465178
-0.000596710201
-0.000505882353
-0.000553539535
-0.000727475656
-0.000598711836
-0.00052657363
-0.000704058757
-0.000742821293
-0.000594158272
-0.000549194717
-0.000595081208
-0.000730824204
-0.00074659518
-0.000598697478
-0.000498698109
-0.000528594496
-0.000726715656
-0.000607327113
-0.000521818831
-0.000642599475
-0.000739841206
-0.000595430788
-0.000544564589
-0.000590329503
-0.000731666225
-0.000746401888
-0.000600268558
-0.000493753301
-0.000516211822
-0.000727680863
-0.000618869697
-0.000521675439
-0.000609170938
-0.000737582469
-0.000597791076
-0.000542573008
-0.00059590263
-0.00073350254
-0.000746487902
-0.000600564443
-0.000487359632
-0.000490307236
-0.000722564506
-0.000730701127
-0.000536689434
-0.000605672129
-0.000732250619
-0.000593197387
-0.000524831909
-0.000688261636
-0.000740927981
)
;

boundaryField
{
    closed
    {
        type            calculated;
        value           uniform -0.00447642782;
    }
    open
    {
        type            calculated;
        value           nonuniform List<scalar> 0();
    }
    sides
    {
        type            empty;
    }
    procBoundary0to1
    {
        type            processor;
        value           uniform -0.000596373374;
    }
}


// ************************************************************************* //
