/*--------------------------------*- C++ -*----------------------------------*\
| =========                 |                                                 |
| \\      /  F ield         | OpenFOAM: The Open Source CFD Toolbox           |
|  \\    /   O peration     | Version:  2306                                  |
|   \\  /    A nd           | Website:  www.openfoam.com                      |
|    \\/     M anipulation  |                                                 |
\*---------------------------------------------------------------------------*/
FoamFile
{
    version     2.0;
    format      ascii;
    arch        "LSB;label=32;scalar=64";
    class       volScalarField;
    location    "0.00066";
    object      sourcePV;
}
// * * * * * * * * * * * * * * * * * * * * * * * * * * * * * * * * * * * * * //

dimensions      [1 -3 -1 0 0 0 0];

internalField   nonuniform List<scalar> 
530
(
0.0750109768
0.0818256236
0.0815534255
0.0815321142
0.0815304687
0.0815304438
0.0815304428
0.0815304428
0.0815304428
0.0815304428
0.0815304428
0.0815304428
0.0815304428
0.0815304428
0.0815304428
0.0815304428
0.0815304428
0.0815304428
0.0815304428
0.0815304428
0.0815304428
0.0815304428
0.0815304428
0.0815304428
0.0815304428
0.0815304428
0.0815304428
0.0815304428
0.0815304428
0.0815304428
0.0815304428
0.0815304428
0.0815304428
0.0815304428
0.0815304428
0.0815304428
0.0815304428
0.0815304428
0.0815304428
0.0815304428
0.0815304428
0.0815304428
0.0815304428
0.0815304428
0.0815304428
0.0815304428
0.0815304428
0.0815304428
0.0815304428
0.0815304428
0.0815304428
0.0815304428
0.0815304428
0.0815304428
0.0815304428
0.0815304428
0.0815304428
0.0815304428
0.0815304428
0.0815304428
0.0815304428
0.0815304428
0.0815304428
0.0815304428
0.0815304428
0.0815304428
0.0815304428
0.0815304428
0.0815304428
0.0815304428
0.0815304428
0.0815304429
0.0815304429
0.0815304441
0.0815304479
0.0815304406
0.0815304243
0.0815305725
0.081530609
0.0815302196
0.081529768
0.0815321621
0.0815341174
0.0815342036
0.0815364993
0.0815136325
0.0813997922
0.0814261612
0.0824527362
0.0832329343
0.0797216742
0.0741980551
0.077371661
0.116762902
0.120360713
0.00627946211
0.00428795314
0.102180723
0.149929667
0.151222694
0.117130226
0.00583127233
0.00673060267
0.00619063931
0.118273144
0.151200381
0.170042372
0.168551149
0.00514296458
0.0061187275
0.00547674641
0.116080246
0.157517809
0.172012078
0.171458131
0.00495267811
0.00553725474
0.00554469471
0.00561101216
0.112642283
0.164375416
0.155079096
0.00600342296
0.00581529122
0.113900639
0.163830944
0.152762419
0.00575443387
0.00600980334
0.146104609
0.155755572
0.00612200661
0.00577430413
0.114934324
0.161967123
0.140274035
0.00561317948
0.00601201077
0.155175199
0.161123679
0.00564681754
0.00572289468
0.151084261
0.16270577
0.00617194736
0.00563048909
0.114178642
0.162160412
0.146831972
0.0057260202
0.00597324648
0.152762582
0.162436322
0.00573127162
0.00578730948
0.156311487
0.15897772
0.0061927916
0.00579652564
0.107568231
0.155591825
0.142940319
0.00605150084
0.00603868981
0.140597523
0.154491225
0.00646474751
0.00587604062
0.107637203
0.154409541
0.146631406
0.00620675572
0.00617455026
0.106826911
0.141693629
0.157397223
0.156363618
0.00568331127
0.00576346025
0.158408089
0.165770689
0.00573254903
0.00568007034
0.156021586
0.158693209
0.0062100047
0.00575145338
0.106046197
0.157406058
0.14901789
0.00597939799
0.00591662376
0.140103897
0.154199102
0.00639316352
0.00580334059
0.111415251
0.161359343
0.154185391
0.00618045621
0.00570478549
0.104590521
0.166680082
0.158032916
0.0056495949
0.00579990359
0.153075156
0.160395262
0.00560889322
0.00574130186
0.155876544
0.158100658
0.00555794275
0.00574155177
0.155654719
0.157585905
0.00552997486
0.00570706372
0.156954249
0.158995854
0.00547669578
0.00567128432
0.159456727
0.161373752
0.00543719868
0.00563317898
0.16060768
0.161938278
0.00547999311
0.00562690969
0.15913116
0.159599278
0.00563448453
0.00569132422
0.153553087
0.157452216
0.00608792299
0.00563609541
0.116117627
0.17115507
0.156355289
0.00552282428
0.00582706314
0.154195033
0.157823489
0.00564304228
0.00577931597
0.151384684
0.155445408
0.00607610966
0.0057995051
0.111792735
0.166334038
0.15227603
0.00569595221
0.00590458563
0.14872384
0.156307181
0.00608264444
0.00588657935
0.113029897
0.16166381
0.148865562
0.00575978112
0.00611476091
0.143160111
0.146346171
0.00598884817
0.00618806732
0.0941038751
0.142027522
0.162666151
0.159411527
0.00551224844
0.00573921836
0.156981624
0.157191988
0.00512304177
0.00558167229
0.0466851036
0.173505542
0.158998671
0.00496914097
0.0062307841
0.00534952295
0.111264277
0.159634231
0.16234222
0.162420462
0.00561798553
0.00559240851
0.102551821
0.167037804
0.153413267
0.00560301135
0.00584241876
0.0710629853
0.16188219
0.155937286
0.0058905954
0.00586956566
0.0898031057
0.162763773
0.155250831
0.00593742447
0.0059182732
0.0982158106
0.166721785
0.157098745
0.00558646884
0.00591750886
0.145294391
0.154338435
0.00572879795
0.00579505644
0.0963062815
0.166657997
0.15762077
0.00528095359
0.00581564049
0.156847485
0.161151488
0.0047130282
0.00553870341
0.00545121587
0.00550379802
0.143713593
0.16406103
0.177829686
0.172111762
0.00449797864
0.00560253061
0.158957267
0.160962113
0.00506178112
0.00580719465
0.146188071
0.151735711
0.00549500396
0.00581830881
0.0959537014
0.163880379
0.156127816
0.00533257068
0.00598287733
0.14915287
0.155973195
0.00497377944
0.00594815375
0.14761206
0.153407171
0.00530238625
0.00598234013
0.102539779
0.157250314
0.154061056
0.00578448025
0.00598898439
0.096423656
0.165359531
0.140115877
0.00522407659
0.105358023
0.158540376
0.0144287413
0.00618569025
0.00526743969
0.123629509
0.169071213
0.154379084
0.00545991675
0.0058802244
0.0998213352
0.165853378
0.138581634
0.00491546506
0.113935779
0.16327957
0.00338754764
0.00552370895
0.00411017131
0.168248147
0.182382929
0.00375329257
0.00536300116
0.0833740073
0.158320717
0.146294719
0.00486643693
0.0577743786
0.158994871
0.0895893829
0.00547546086
0.00599044179
0.135985752
0.174482671
0.0574371666
0.00517451589
0.0650122494
0.161605441
0.140033848
0.00462427441
0.0943314019
0.158353918
0.00399053872
0.00584711607
0.124719617
0.154384535
0.0763940295
0.00566374534
0.00565908168
0.120054346
0.180289425
0.108419349
0.00445022609
0.11581923
0.164217948
0.00305104951
0.00566227371
0.135343862
0.157154539
0.00284257719
0.00580581555
0.120616603
0.152061851
0.0827226268
0.00544424595
0.00579745484
0.115692118
0.170944995
0.0913329607
0.0047303257
0.0789378461
0.148591744
0.111893948
0.00487166039
0.00653878755
0.0816452859
0.141397565
0.154834493
0.149298234
0.00427075487
0.00604547239
0.104417419
0.161035613
0.14935812
0.00411321356
0.00610472432
0.0982758362
0.157087934
0.148172531
0.00412738157
0.00612751936
0.0950445269
0.154896238
0.151824524
0.00407475855
0.00585805075
0.0919446087
0.168890475
0.169473981
0.00835847151
0.00545402041
0.00539965922
0.0355451702
0.131397362
0.163269033
0.163025329
0.00256789752
0.00556614614
0.096172591
0.164909276
0.160024644
0.00356668887
0.00404792949
0.138456106
0.145871423
0.0029720531
0.00590672289
0.0845598955
0.161910469
0.145986782
0.00351487033
0.0778817682
0.154907942
0.0108280928
0.00564297717
0.0877532651
0.147554831
0.130488826
0.00420752285
0.00607927919
0.0789112292
0.164311808
0.154554832
0.00331804387
0.0652985991
0.156726069
0.0393107089
0.0053245348
0.0812001085
0.14936358
0.132296179
0.00420685651
0.00603468053
0.0766144304
0.166006985
0.158737766
0.00333938818
0.0543233066
0.156990533
0.0599092511
0.00515210087
0.0755075628
0.15016068
0.129991356
0.00436863118
0.00601467295
0.0770249663
0.168254288
0.167596462
0.00295245876
0.00361555127
0.15235663
0.125395511
0.00419358309
0.0890172503
0.155810065
0.0176608927
0.00553067781
)
;

boundaryField
{
    closed
    {
        type            calculated;
        value           uniform 0;
    }
    open
    {
        type            calculated;
        value           nonuniform List<scalar> 0();
    }
    sides
    {
        type            empty;
    }
    procBoundary0to1
    {
        type            processor;
        value           uniform 0;
    }
}


// ************************************************************************* //
