/*--------------------------------*- C++ -*----------------------------------*\
| =========                 |                                                 |
| \\      /  F ield         | OpenFOAM: The Open Source CFD Toolbox           |
|  \\    /   O peration     | Version:  2306                                  |
|   \\  /    A nd           | Website:  www.openfoam.com                      |
|    \\/     M anipulation  |                                                 |
\*---------------------------------------------------------------------------*/
FoamFile
{
    version     2.0;
    format      ascii;
    arch        "LSB;label=32;scalar=64";
    class       volScalarField;
    location    "0.00096";
    object      prefDZ_T;
}
// * * * * * * * * * * * * * * * * * * * * * * * * * * * * * * * * * * * * * //

dimensions      [1 -1 -1 -1 0 0 0];

internalField   nonuniform List<scalar> 
530
(
-9.50486659e-11
-9.14315527e-11
-8.707303e-11
-8.86368424e-11
-9.48589116e-11
-9.37758924e-11
-8.70652233e-11
-8.70757684e-11
-9.42987343e-11
-9.26290978e-11
-8.70606241e-11
-8.70232674e-11
-9.4087984e-11
-9.1666587e-11
-8.70303601e-11
-8.69951346e-11
-9.36560525e-11
-9.10931441e-11
-8.69940769e-11
-8.69574924e-11
-9.31840574e-11
-9.07231124e-11
-8.69554456e-11
-8.69179771e-11
-9.26776767e-11
-9.04708561e-11
-8.69534734e-11
-8.68844541e-11
-9.21121283e-11
-9.02009101e-11
-8.74420078e-11
-8.704345e-11
-9.09549439e-11
-8.96830953e-11
-8.90242335e-11
-8.81538451e-11
-8.85108057e-11
-8.79762492e-11
-9.09219407e-11
-8.95233096e-11
-8.70094423e-11
-8.68849566e-11
-9.12328883e-11
-8.97543768e-11
-8.66599424e-11
-8.66494858e-11
-9.09438926e-11
-8.98568857e-11
-8.65860267e-11
-8.6586245e-11
-9.06546164e-11
-8.97590331e-11
-8.65266043e-11
-8.65281066e-11
-9.0512286e-11
-8.95899685e-11
-8.64716877e-11
-8.64765274e-11
-9.03676614e-11
-8.94479898e-11
-8.64204216e-11
-8.64271198e-11
-9.02356713e-11
-8.93161393e-11
-8.63748582e-11
-8.63810101e-11
-9.00969852e-11
-8.91918187e-11
-8.63347243e-11
-8.63399997e-11
-8.99620832e-11
-8.90721233e-11
-8.6299863e-11
-8.63039544e-11
-8.98108563e-11
-8.89725521e-11
-8.62709586e-11
-8.62728267e-11
-8.96448134e-11
-8.88824133e-11
-8.62472312e-11
-8.62469932e-11
-8.94825052e-11
-8.87833467e-11
-8.62272127e-11
-8.62248206e-11
-8.93466088e-11
-8.86867191e-11
-8.62099937e-11
-8.62058914e-11
-8.92519591e-11
-8.85571557e-11
-8.62009552e-11
-8.6193298e-11
-8.91513223e-11
-8.84505963e-11
-8.6192783e-11
-8.61860281e-11
-8.90906198e-11
-8.83469107e-11
-8.61898451e-11
-8.61841684e-11
-8.89907562e-11
-8.82768402e-11
-8.61913928e-11
-8.61859149e-11
-8.88936316e-11
-8.82055355e-11
-8.61960747e-11
-8.61914964e-11
-8.88216826e-11
-8.81205662e-11
-8.62045394e-11
-8.62018983e-11
-8.87640225e-11
-8.80498216e-11
-8.62163382e-11
-8.62165379e-11
-8.87156275e-11
-8.79870733e-11
-8.62316686e-11
-8.62342856e-11
-8.8689155e-11
-8.79777044e-11
-8.62474653e-11
-8.62548192e-11
-8.86575529e-11
-8.79628143e-11
-8.62713327e-11
-8.62790536e-11
-8.85701408e-11
-8.79516207e-11
-8.63005904e-11
-8.630648e-11
-8.85032386e-11
-8.79105088e-11
-8.63376453e-11
-8.63381556e-11
-8.83953494e-11
-8.79170146e-11
-8.63724648e-11
-8.6372653e-11
-8.83105707e-11
-8.78973528e-11
-8.64073067e-11
-8.64084099e-11
-8.83243811e-11
-8.78658637e-11
-8.6442801e-11
-8.64470124e-11
-8.83391103e-11
-8.78675418e-11
-8.6476345e-11
-8.64862563e-11
-8.83661465e-11
-8.78573862e-11
-8.65139709e-11
-8.65263608e-11
-8.83700864e-11
-8.78674603e-11
-8.65538176e-11
-8.65675804e-11
-8.83744396e-11
-8.78829773e-11
-8.65974795e-11
-8.66099823e-11
-8.83820134e-11
-8.78943111e-11
-8.66427328e-11
-8.6655074e-11
-8.83851464e-11
-8.79157568e-11
-8.6691648e-11
-8.67021022e-11
-8.83565432e-11
-8.793978e-11
-8.67433322e-11
-8.67505475e-11
-8.83237182e-11
-8.79602651e-11
-8.67955552e-11
-8.67998004e-11
-8.83031932e-11
-8.7976816e-11
-8.68481394e-11
-8.68502287e-11
-8.82816078e-11
-8.79859961e-11
-8.69012374e-11
-8.69023635e-11
-8.82524722e-11
-8.79556528e-11
-8.69574548e-11
-8.69564536e-11
-8.8233162e-11
-8.79594148e-11
-8.70085822e-11
-8.7011662e-11
-8.8244535e-11
-8.79152032e-11
-8.70617961e-11
-8.70680021e-11
-8.82276685e-11
-8.78786384e-11
-8.71173517e-11
-8.71222783e-11
-8.81824483e-11
-8.788745e-11
-8.71753606e-11
-8.71742564e-11
-8.81185411e-11
-8.79145389e-11
-8.72273665e-11
-8.72228663e-11
-8.81058728e-11
-8.79332433e-11
-8.727461e-11
-8.72708417e-11
-8.81419619e-11
-8.79508863e-11
-8.73174361e-11
-8.73176662e-11
-8.82067261e-11
-8.79894034e-11
-8.73562182e-11
-8.73624101e-11
-8.82658404e-11
-8.80298861e-11
-8.73953822e-11
-8.74050349e-11
-8.83136267e-11
-8.80780558e-11
-8.74358642e-11
-8.74466462e-11
-8.834211e-11
-8.81235489e-11
-8.74771885e-11
-8.74873009e-11
-8.83641667e-11
-8.81603505e-11
-8.75186743e-11
-8.75273328e-11
-8.83780776e-11
-8.8191252e-11
-8.75602729e-11
-8.75665724e-11
-8.83827329e-11
-8.82178776e-11
-8.76018906e-11
-8.7605088e-11
-8.83809293e-11
-8.82386286e-11
-8.76429357e-11
-8.76430592e-11
-8.83803077e-11
-8.82497135e-11
-8.76820781e-11
-8.768058e-11
-8.83934325e-11
-8.82442171e-11
-8.77183898e-11
-8.77166658e-11
-8.84170122e-11
-8.82464501e-11
-8.77514937e-11
-8.77512938e-11
-8.84225777e-11
-8.82587369e-11
-8.7783492e-11
-8.7783822e-11
-8.84250398e-11
-8.82714487e-11
-8.78146775e-11
-8.7815382e-11
-8.84201892e-11
-8.82797248e-11
-8.78447937e-11
-8.78455468e-11
-8.84195814e-11
-8.82843703e-11
-8.78735562e-11
-8.78745675e-11
-8.84187971e-11
-8.82885626e-11
-8.79010159e-11
-8.79022102e-11
-8.84163055e-11
-8.82930085e-11
-8.79273005e-11
-8.79284236e-11
-8.8411918e-11
-8.82977522e-11
-8.79522809e-11
-8.79532469e-11
-8.84062964e-11
-8.8301832e-11
-8.79758831e-11
-8.79768212e-11
-8.84019359e-11
-8.83031165e-11
-8.79981391e-11
-8.79990682e-11
-8.83998945e-11
-8.8303918e-11
-8.80191381e-11
-8.80200621e-11
-8.83955963e-11
-8.8306314e-11
-8.80389757e-11
-8.8039842e-11
-8.83894027e-11
-8.83079504e-11
-8.8057652e-11
-8.80583668e-11
-8.83854243e-11
-8.83078217e-11
-8.80752006e-11
-8.80757248e-11
-8.83809583e-11
-8.83091069e-11
-8.80915859e-11
-8.80920484e-11
-8.83744612e-11
-8.83081666e-11
-8.81070725e-11
-8.81071525e-11
-8.83707263e-11
-8.83081076e-11
-8.81214492e-11
-8.81213001e-11
-8.83637883e-11
-8.8309439e-11
-8.81347539e-11
-8.81343907e-11
-8.8357371e-11
-8.83068486e-11
-8.81475505e-11
-8.81466862e-11
-8.83494906e-11
-8.83065527e-11
-8.81591514e-11
-8.81582766e-11
-8.83399413e-11
-8.83031144e-11
-8.81702102e-11
-8.81693211e-11
-8.8328094e-11
-8.82964532e-11
-8.81814374e-11
-8.81799666e-11
-8.83031522e-11
-8.8287407e-11
-8.81950409e-11
-8.81904263e-11
-8.8268551e-11
-8.82814816e-11
-8.82864158e-11
-8.81997988e-11
-8.82049903e-11
-8.82776035e-11
-8.83338531e-11
-8.82082706e-11
-8.8205534e-11
-8.82776385e-11
-8.83408686e-11
-8.82151859e-11
-8.82106514e-11
-8.82808211e-11
-8.83382361e-11
-8.82209247e-11
-8.82164501e-11
-8.82846363e-11
-8.83332312e-11
-8.82259504e-11
-8.82221027e-11
-8.82881566e-11
-8.83277996e-11
-8.82304525e-11
-8.82273607e-11
-8.82915e-11
-8.8322101e-11
-8.82345534e-11
-8.82321624e-11
-8.82942171e-11
-8.8316662e-11
-8.82382778e-11
-8.82365307e-11
-8.82967215e-11
-8.83111874e-11
-8.82416401e-11
-8.82404842e-11
-8.82993214e-11
-8.83054443e-11
-8.82446664e-11
-8.82439845e-11
-8.83025983e-11
-8.83001102e-11
-8.82472365e-11
-8.82468236e-11
-8.83063217e-11
-8.82952924e-11
-8.82498071e-11
-8.824955e-11
-8.83063145e-11
-8.82952658e-11
-8.82520693e-11
-8.82520269e-11
-8.83036602e-11
-8.82947348e-11
-8.82543411e-11
-8.82542558e-11
-8.83012437e-11
-8.82930345e-11
-8.82564876e-11
-8.82562826e-11
-8.8299291e-11
-8.82918126e-11
-8.82582948e-11
-8.82580994e-11
-8.82976444e-11
-8.82905878e-11
-8.8259896e-11
-8.82597294e-11
-8.82960919e-11
-8.82898616e-11
-8.82612595e-11
-8.82611854e-11
-8.82945484e-11
-8.82886973e-11
-8.82625407e-11
-8.82624804e-11
-8.82930596e-11
-8.82876251e-11
-8.8263683e-11
-8.82636393e-11
-8.82915542e-11
-8.82865164e-11
-8.8264714e-11
-8.82646816e-11
-8.82900084e-11
-8.82854379e-11
-8.82656442e-11
-8.82656166e-11
-8.8288422e-11
-8.82843717e-11
-8.8266523e-11
-8.82664998e-11
-8.82864899e-11
-8.82830518e-11
-8.8267476e-11
-8.82674624e-11
-8.82835167e-11
-8.82802541e-11
-8.82713066e-11
-8.82698919e-11
-8.82779802e-11
-8.82758247e-11
-8.82755176e-11
-8.82740184e-11
-8.82756608e-11
-8.82744607e-11
-8.82753559e-11
-8.82744296e-11
-8.82751189e-11
-8.82743873e-11
-8.82748954e-11
-8.82742578e-11
-8.82746639e-11
-8.82740998e-11
-8.82743947e-11
-8.8273905e-11
-8.82740841e-11
-8.82736725e-11
-8.82737313e-11
-8.82734012e-11
-8.82733427e-11
-8.82730937e-11
-8.82729589e-11
-8.8272748e-11
-8.82725804e-11
-8.82723819e-11
-8.8272218e-11
-8.82720215e-11
-8.82720094e-11
-8.82719931e-11
-8.82719801e-11
-8.82719682e-11
-8.82719587e-11
-8.82719514e-11
-8.8271946e-11
-8.82719424e-11
-8.827194e-11
-8.82719386e-11
-8.82719379e-11
-8.82719374e-11
-8.82719372e-11
-8.82719372e-11
-8.82719371e-11
-8.82719371e-11
-8.82719371e-11
-8.82719371e-11
-8.82719371e-11
-8.82719371e-11
-8.82719371e-11
-8.82719371e-11
-8.82719371e-11
-8.82719371e-11
-8.82719371e-11
-8.82719371e-11
-8.82719371e-11
-8.82719371e-11
-8.82719371e-11
-8.82719371e-11
-8.82719371e-11
-8.82719371e-11
-8.82719371e-11
-8.82719371e-11
-8.82719371e-11
-8.82719371e-11
-8.82719371e-11
-8.82719371e-11
-8.82719371e-11
-8.82719371e-11
-8.82719371e-11
-8.82719371e-11
-8.82719371e-11
-8.82719371e-11
-8.82719371e-11
-8.82719371e-11
-8.82719371e-11
)
;

boundaryField
{
    closed
    {
        type            calculated;
        value           nonuniform List<scalar> 0();
    }
    open
    {
        type            calculated;
        value           uniform -8.82719371e-11;
    }
    sides
    {
        type            empty;
    }
    procBoundary5to4
    {
        type            processor;
        value           uniform -9.46244288e-11;
    }
}


// ************************************************************************* //
