/*--------------------------------*- C++ -*----------------------------------*\
| =========                 |                                                 |
| \\      /  F ield         | OpenFOAM: The Open Source CFD Toolbox           |
|  \\    /   O peration     | Version:  2306                                  |
|   \\  /    A nd           | Website:  www.openfoam.com                      |
|    \\/     M anipulation  |                                                 |
\*---------------------------------------------------------------------------*/
FoamFile
{
    version     2.0;
    format      ascii;
    arch        "LSB;label=32;scalar=64";
    class       volScalarField;
    location    "0.00096";
    object      rho;
}
// * * * * * * * * * * * * * * * * * * * * * * * * * * * * * * * * * * * * * //

dimensions      [1 -3 0 0 0 0 0];

internalField   nonuniform List<scalar> 
530
(
0.225822613
0.224874207
0.224810273
0.22437109
0.225032889
0.224922318
0.224102083
0.224038145
0.224382622
0.224243819
0.223397029
0.223537241
0.223754803
0.223626095
0.222818708
0.222891204
0.223134678
0.223066332
0.222246108
0.222317756
0.222556175
0.222522111
0.221677725
0.221747505
0.222019191
0.221985629
0.22114585
0.221148433
0.221517439
0.221466558
0.220919828
0.220642639
0.220875476
0.220881192
0.22046879
0.220363399
0.220228518
0.220149884
0.220305275
0.220276361
0.21982647
0.219668814
0.220134925
0.21999812
0.219400889
0.21938102
0.219793997
0.219723253
0.219145583
0.219102854
0.219438959
0.219386085
0.218823441
0.218773613
0.219097873
0.219025086
0.218488494
0.218413998
0.218740126
0.218658355
0.21814033
0.218058285
0.218371745
0.218282082
0.217769452
0.217692435
0.217981419
0.217896135
0.217382621
0.217308023
0.217577705
0.217491305
0.216980194
0.21691159
0.217165318
0.21708106
0.216558531
0.216504143
0.216743023
0.216664541
0.216122704
0.216083909
0.216310978
0.21623725
0.215686403
0.215661778
0.215874036
0.215799756
0.215248661
0.215235536
0.215429173
0.215343071
0.214781795
0.214784508
0.214964525
0.214878521
0.214320824
0.21431122
0.214495091
0.214399869
0.213843451
0.213825538
0.214006822
0.213915424
0.213355215
0.213338967
0.213509749
0.213423145
0.212868608
0.212851594
0.213007185
0.212917825
0.212378967
0.212353058
0.212499862
0.212407933
0.211885019
0.211847121
0.211998018
0.211896844
0.21138705
0.211338155
0.211491045
0.211396275
0.210898722
0.210829467
0.210974694
0.210882481
0.210387453
0.210322589
0.210445483
0.210365402
0.209867789
0.209812095
0.20991747
0.209835098
0.209327458
0.209298005
0.2093829
0.20931647
0.208821098
0.208796464
0.208881648
0.208812704
0.208334857
0.208308065
0.208403977
0.208323192
0.207866765
0.207822335
0.207929178
0.207845488
0.207427697
0.20735311
0.207464817
0.207366315
0.206988077
0.20690173
0.207000965
0.20690097
0.206552401
0.206459806
0.206545426
0.206442717
0.206110665
0.206026407
0.206096387
0.205989185
0.205672266
0.20558991
0.205645852
0.205543626
0.205226617
0.205155931
0.205194227
0.205104707
0.204778552
0.204727364
0.204751672
0.204673011
0.204344229
0.204310422
0.204321443
0.204249632
0.203924593
0.203901589
0.20390298
0.203835743
0.203516836
0.203497946
0.203491263
0.203421245
0.203104673
0.203096895
0.203095946
0.203032385
0.202728587
0.202700458
0.202722265
0.20264303
0.202355338
0.202309912
0.202355171
0.202269596
0.201981883
0.201940006
0.202000663
0.201906407
0.201607792
0.201592778
0.20165389
0.201570068
0.20126896
0.201268699
0.201334869
0.201244793
0.200966279
0.200961907
0.201040268
0.200935104
0.200695041
0.200672093
0.200766142
0.200653602
0.200451823
0.200402777
0.200503575
0.20038465
0.200214819
0.200150829
0.20024992
0.20013255
0.199977405
0.199909907
0.199997317
0.199889679
0.199742316
0.199678423
0.199755168
0.199653535
0.199512813
0.199455035
0.19952125
0.199426434
0.199287875
0.199240559
0.199294985
0.199209204
0.199067265
0.199034424
0.199076746
0.199000101
0.198853655
0.19883521
0.198870762
0.198797185
0.198654031
0.198641907
0.198681965
0.198596345
0.198473107
0.198459318
0.198512145
0.198412881
0.198311118
0.198290779
0.198342602
0.198247329
0.19815671
0.19813524
0.19818398
0.19809275
0.198009293
0.197987742
0.19803126
0.197947403
0.197870055
0.197849256
0.197890955
0.197810291
0.197740015
0.197718845
0.197759801
0.197682297
0.197618196
0.197597115
0.19763666
0.197563387
0.197503843
0.197484128
0.197521097
0.197453253
0.197397853
0.197380072
0.197413107
0.197351065
0.197299732
0.19728314
0.197313711
0.197255105
0.197209359
0.197193144
0.197223144
0.197166314
0.197125848
0.197110218
0.197138357
0.197085554
0.197048267
0.19703387
0.197059266
0.197011135
0.196976861
0.196963709
0.196987935
0.196942086
0.196911413
0.196899528
0.196922227
0.196879733
0.196851333
0.196840246
0.19686079
0.196821458
0.196795651
0.196786311
0.196806162
0.196768935
0.196745127
0.19673743
0.196754647
0.19672222
0.196699249
0.196693283
0.196707914
0.196677626
0.196655334
0.196652407
0.196664145
0.196638125
0.196616189
0.196613949
0.196622725
0.196600075
0.196578861
0.196576951
0.196582874
0.196562974
0.196540086
0.196540664
0.196538709
0.196527053
0.196490581
0.196505134
0.196494865
0.196497217
0.196494436
0.196477397
0.196459539
0.196475751
0.196499019
0.196453468
0.196473214
0.196457244
0.196483128
0.196435214
0.196460339
0.196441936
0.196464914
0.196421211
0.196444884
0.196428719
0.196447607
0.196409437
0.196429597
0.19641675
0.196431584
0.196398998
0.196415316
0.196405999
0.196416772
0.196389538
0.196402296
0.196396205
0.196403415
0.196381062
0.196390558
0.19638752
0.196391264
0.196373632
0.196379964
0.196379956
0.1963801
0.196367229
0.196370583
0.196373697
0.196370137
0.196362671
0.196363551
0.196368634
0.196361488
0.196357562
0.196357055
0.196362675
0.196355991
0.19635281
0.196351564
0.196356131
0.196350788
0.196347389
0.196346561
0.196350418
0.19634556
0.196342186
0.196341986
0.196345552
0.19634115
0.196338152
0.196337962
0.196341358
0.196337229
0.196334649
0.196334404
0.196337665
0.196334014
0.196331874
0.196331276
0.196334372
0.196330952
0.196329116
0.196328537
0.196331435
0.196328256
0.196326653
0.196326073
0.196328747
0.196325787
0.196324357
0.196323783
0.196326225
0.196323506
0.196322171
0.196321627
0.196323798
0.196321338
0.196319867
0.196319387
0.196321304
0.196319157
0.196317047
0.196316617
0.19631849
0.19631644
0.196311511
0.196310519
0.196314452
0.196313041
0.19631254
0.19631157
0.196312212
0.196311422
0.196311707
0.196311083
0.196311292
0.196310791
0.196310932
0.196310506
0.196310625
0.196310275
0.196310378
0.196310114
0.196310214
0.196310049
0.19631016
0.196310108
0.196310247
0.196310322
0.196310517
0.196310713
0.196310999
0.196311307
0.196311689
0.196312099
0.19631283
0.19631355
0.196314205
0.196314788
0.196315276
0.196315652
0.196315901
0.196316021
0.196316017
0.196315908
0.19631572
0.196315471
0.196315163
0.196314767
0.196314234
0.196313515
0.196312621
0.196311666
0.196310865
0.196310407
0.196310204
0.196309609
0.196307387
0.196302188
0.196293424
0.196281984
0.196270068
0.196260087
0.19625352
0.196250558
0.196250555
0.196252805
0.196256978
0.196262354
0.196266995
0.196269187
0.196269456
0.196269229
0.196270452
0.196277795
0.196290301
0.196294873
0.196286307
0.196274303
0.19626838
0.196274351
0.196281441
)
;

boundaryField
{
    closed
    {
        type            calculated;
        value           nonuniform List<scalar> 0();
    }
    open
    {
        type            calculated;
        value           uniform 0.196280037;
    }
    sides
    {
        type            empty;
    }
    procBoundary5to4
    {
        type            processor;
        value           uniform 0.22575994;
    }
}


// ************************************************************************* //
