/*--------------------------------*- C++ -*----------------------------------*\
| =========                 |                                                 |
| \\      /  F ield         | OpenFOAM: The Open Source CFD Toolbox           |
|  \\    /   O peration     | Version:  2306                                  |
|   \\  /    A nd           | Website:  www.openfoam.com                      |
|    \\/     M anipulation  |                                                 |
\*---------------------------------------------------------------------------*/
FoamFile
{
    version     2.0;
    format      ascii;
    arch        "LSB;label=32;scalar=64";
    class       volScalarField;
    location    "0.00126";
    object      Z;
}
// * * * * * * * * * * * * * * * * * * * * * * * * * * * * * * * * * * * * * //

dimensions      [0 0 0 0 0 0 0];

internalField   nonuniform List<scalar> 
531
(
0.0140708441
0.0147104111
0.0147556882
0.0141109511
0.0140752394
0.0146216566
0.0148094267
0.0148063334
0.0141068787
0.0140799123
0.0146195445
0.0148315034
0.0148218901
0.0141122559
0.0140713114
0.0146824991
0.0147379125
0.0141103249
0.0140679339
0.0145988987
0.0147384491
0.0147524676
0.0147547381
0.0148206918
0.0148128628
0.0141208322
0.0140744613
0.0140860833
0.014069371
0.0146553905
0.0147676927
0.0141085937
0.0140651054
0.0146290437
0.0147387451
0.0147890796
0.0147197966
0.0140921786
0.0145820222
0.014785749
0.0141040369
0.0140717493
0.0145960498
0.0147770928
0.0146246027
0.0140874098
0.0140523471
0.01457321
0.0147018076
0.0141093547
0.0140588125
0.0144791012
0.0147221308
0.0148379294
0.0148253873
0.0141158085
0.014065286
0.0146921165
0.0147014102
0.0141037356
0.0145388028
0.0147518049
0.0141143802
0.0140706722
0.0144364167
0.0147136972
0.0147238418
0.0147979059
0.0147910644
0.0141191436
0.0140809719
0.0145688308
0.0148436889
0.0148315503
0.0141113675
0.0145776319
0.0148156693
0.0141389117
0.0140860445
0.0142600866
0.0148257274
0.0148283849
0.0141441626
0.0140783532
0.0140841499
0.0146612934
0.0147574108
0.0141288285
0.0140678401
0.0140808289
0.014596939
0.0148255677
0.0147968557
0.0148979302
0.0148837537
0.014144608
0.0140809024
0.0147298076
0.0147767738
0.0141441493
0.0140663637
0.0140886806
0.0145852046
0.0148702701
0.0147055157
0.0141089654
0.0145623842
0.0147884156
0.0141279895
0.014072803
0.0144406464
0.0146929768
0.0148018435
0.0147970412
0.0141226015
0.0145311848
0.0148021885
0.014133866
0.0140830847
0.0144089619
0.014826075
0.0148205689
0.0141401585
0.0140751992
0.0140764741
0.0146407183
0.0147622906
0.0141315691
0.014081219
0.014463911
0.0148557879
0.0148479598
0.0141457513
0.0140913553
0.0145721687
0.0149188569
0.0149048826
0.0141613064
0.0140855081
0.0147325496
0.014818551
0.0141666916
0.0140814142
0.0147188849
0.0147912953
0.0141697886
0.0140825388
0.0147363787
0.0147980975
0.0141744671
0.0140835319
0.0140857419
0.0147283226
0.0148418056
0.0141575528
0.0140882543
0.0146152983
0.0147761503
0.0148732907
0.0148704306
0.0141890339
0.0140979816
0.0147064859
0.0148642003
0.0141720548
0.0140874125
0.0146774529
0.0144305526
0.0140876766
0.0146435348
0.014800075
0.0141483709
0.0140893161
0.0144028536
0.0148360017
0.0148314471
0.0141528294
0.0140930451
0.0144762721
0.0148647759
0.0148523438
0.0141800388
0.0140863842
0.0146899514
0.0147968919
0.0141879029
0.014088725
0.0142776622
0.0148161118
0.0148380097
0.0142459084
0.0140872915
0.0146804182
0.014794139
0.0141590773
0.0140881401
0.0143706694
0.014832342
0.0148301548
0.0141761805
0.0140916384
0.0143803228
0.0148381101
0.0148275979
0.0141992592
0.0140807543
0.0146676554
0.0147555353
0.0141418829
0.0140725556
0.0145196188
0.0147038147
0.0148470161
0.0148327973
0.0141566411
0.0140834948
0.0146808675
0.0147815368
0.0141772749
0.0140882004
0.0143252924
0.014813344
0.0148156313
0.014200783
0.014093004
0.0144523465
0.0148535427
0.0148440538
0.0141469408
0.014092227
0.0144558915
0.0148464405
0.0148373732
0.0142265528
0.0140855214
0.0146637514
0.0147882397
0.0141420593
0.0140883938
0.0144535306
0.0148493607
0.0148436536
0.0141402038
0.0140916268
0.0144990522
0.0148553087
0.0148474657
0.0142729535
0.0140852945
0.0146533331
0.0147974007
0.0142084011
0.0140787407
0.0146693353
0.014780945
0.0141954201
0.0140766967
0.0146755918
0.0147648314
0.0141696433
0.0140735736
0.0146894473
0.0147245635
0.0141527105
0.0145008522
0.0148522521
0.0142417272
0.0140900636
0.0140914595
0.0143727188
0.0148386419
0.0148417539
0.0142579787
0.0140935268
0.0144176887
0.0148641099
0.0148554932
0.014136414
0.0145049311
0.0148585207
0.0141646788
0.0140859832
0.0146765734
0.0147653496
0.0141335967
0.014074798
0.0145024405
0.0147036413
0.0148478302
0.0148409282
0.0142606157
0.014080404
0.0140811834
0.0146109966
0.0148413049
0.0143910714
0.0140991123
0.0140716217
0.0140819536
0.014480983
0.0148842349
0.0148933424
0.0143224942
0.0141017973
0.0144918903
0.0148888116
0.014874862
0.0142042356
0.0140896348
0.0146745726
0.014804824
0.0141340358
0.0140912621
0.0144566927
0.01485615
0.0148517718
0.0141308504
0.014094339
0.0144398846
0.0148625716
0.0148480419
0.0141464827
0.0140811353
0.0146942792
0.0147693896
0.0141355177
0.0140715918
0.0144180395
0.0146720459
0.0148414402
0.0148241113
0.0141337788
0.0140837303
0.0146593075
0.0148041293
0.0143092154
0.0140875695
0.0140959677
0.014788821
0.014896177
0.0143964509
0.0140886923
0.0140847031
0.0145175747
0.0148896301
0.014879413
0.0141339116
0.0140926196
0.0144622301
0.0148271613
0.0148217414
0.0141289149
0.0140916418
0.0143977877
0.0148419836
0.0148383182
0.0141299681
0.0140921785
0.0144594524
0.0148574535
0.0148502242
0.0141314354
0.0140928596
0.0144540241
0.0148550141
0.0148510012
0.0141297846
0.0140970551
0.0144623893
0.0148811927
0.0148673678
0.0141587512
0.014087044
0.0147324643
0.0148205536
0.0141391269
0.0140854402
0.014682939
0.0148391156
0.014465984
0.0140969511
0.0140742723
0.0140785346
0.0140788596
0.0146456099
0.0148299462
0.0149326407
0.0149462368
0.0143410936
0.0140938298
0.0140901718
0.0146543111
0.0148234204
0.0141332383
0.014085833
0.0147017951
0.0147992616
0.0141297014
0.0140922507
0.0144820642
0.0148740876
0.0148621708
0.014135121
0.0140855931
0.0146984623
0.0148037851
0.0141292224
0.0140913001
0.0144854701
0.0148812063
0.0148684809
0.0141365511
0.0140826585
0.0147128862
0.0147944945
0.0141349164
0.0140798274
0.0147012376
0.0147875979
0.0141302086
0.014088717
0.0144447629
0.0148615365
0.0148542654
0.0141347959
0.0140956396
0.0145484471
0.0149451257
0.0149385037
0.0141396072
0.0140883099
0.0140953525
0.0147051086
0.0147937124
0.0141506867
0.0140742769
0.0142197005
0.0146226365
0.0148932996
0.0148723111
0.0141336331
0.0140807009
0.0141000766
0.0144436609
0.0148651053
0.0148528492
0.0141326348
0.0140917193
0.0145417755
0.0148956993
0.014891648
0.0141332256
0.0140982635
0.0143903501
0.0148863606
0.0148777416
0.0141400959
0.0140914224
0.0147112618
0.0148302569
0.0143449173
0.0140950812
0.0140939462
0.0147573741
0.014908252
0.0141642555
0.0140960846
0.0148174041
0.0148529201
0.014165972
0.0140900426
0.0141002387
0.0147525884
0.014873067
0.0141476232
0.0140903288
0.0147774974
0.0148332758
0.0141496439
0.0140903103
0.014772733
0.0148247276
0.0141840792
0.0141003701
0.0141109402
0.014098281
0.0146837662
0.0148484876
0.0149520847
0.014946843
0.01414887
0.014091015
0.0147498181
0.0147931833
0.0141337879
0.0140751515
0.0144092368
0.0146721467
0.0148609663
0.0148513842
0.0141299687
0.0140796246
0.0140822442
0.0146809441
0.0147809313
0.014121124
0.0140883531
0.0144372239
0.0148819997
0.0148705263
0.0141369837
0.0140800573
0.0147583321
0.0147875325
0.0141343681
0.0140706582
0.0140872856
0.014561462
0.0147803551
0.0148948634
0.0148941693
0.0141323253
0.014094922
0.0145760819
0.014901941
0.0148953147
0.014129608
0.0140838341
0.0140889332
0.0146779197
0.0147561955
)
;

boundaryField
{
    closed
    {
        type            zeroGradient;
    }
    open
    {
        type            zeroGradient;
    }
    sides
    {
        type            empty;
    }
    procBoundary1to0
    {
        type            processor;
        value           uniform 0.0141191506;
    }
    procBoundary1to2
    {
        type            processor;
        value           uniform 0.0141245493;
    }
}


// ************************************************************************* //
