/*--------------------------------*- C++ -*----------------------------------*\
| =========                 |                                                 |
| \\      /  F ield         | OpenFOAM: The Open Source CFD Toolbox           |
|  \\    /   O peration     | Version:  2306                                  |
|   \\  /    A nd           | Website:  www.openfoam.com                      |
|    \\/     M anipulation  |                                                 |
\*---------------------------------------------------------------------------*/
FoamFile
{
    version     2.0;
    format      ascii;
    arch        "LSB;label=32;scalar=64";
    class       volScalarField;
    location    "0.0001";
    object      rho;
}
// * * * * * * * * * * * * * * * * * * * * * * * * * * * * * * * * * * * * * //

dimensions      [1 -3 0 0 0 0 0];

internalField   nonuniform List<scalar> 
531
(
0.936109435
0.936106531
0.936103589
0.936100631
0.936097673
0.936094705
0.93609172
0.936088725
0.936085725
0.936082722
0.936079714
0.936076704
0.936073694
0.936070686
0.936067682
0.936064684
0.936061692
0.93605871
0.936055739
0.93605278
0.936049837
0.936046909
0.936044
0.936041111
0.936038244
0.936035401
0.936032584
0.936029793
0.936027033
0.936024303
0.936021606
0.936018943
0.936016317
0.936013729
0.936011181
0.936008675
0.936006211
0.936003793
0.936001421
0.935999097
0.935996824
0.935994601
0.935992432
0.935990316
0.935988257
0.935986255
0.935984312
0.93598243
0.935980608
0.93597885
0.935977157
0.935975528
0.935973966
0.935972473
0.935971049
0.935969694
0.935968411
0.935967201
0.935966064
0.935965001
0.935964013
0.935963102
0.935962268
0.935961511
0.935960833
0.935960235
0.935959716
0.935959278
0.935958921
0.935958646
0.935958453
0.935958343
0.935958316
0.935958372
0.935958513
0.935958737
0.935959045
0.935959439
0.935959916
0.935960479
0.935961127
0.935961859
0.935962676
0.935963578
0.935964565
0.935965637
0.935966792
0.935968032
0.935969356
0.935970763
0.935972254
0.935973828
0.935975483
0.935977221
0.935979041
0.935980941
0.935982922
0.935984983
0.935987122
0.93598934
0.935991636
0.935994009
0.935996459
0.935998983
0.936001582
0.936004255
0.936007001
0.936009819
0.936012708
0.936015666
0.936018694
0.93602179
0.936024952
0.936028181
0.936031474
0.93603483
0.936038249
0.936041729
0.93604527
0.936048869
0.936052525
0.936056238
0.936060006
0.936063828
0.936067702
0.936071627
0.936075602
0.936079626
0.936083696
0.936087812
0.936091973
0.936096176
0.936100421
0.936104705
0.936109029
0.936113389
0.936117785
0.936122215
0.936126678
0.936131172
0.936135696
0.936140248
0.936144827
0.936149431
0.936154059
0.936158708
0.936163379
0.936168069
0.936172776
0.9361775
0.936182238
0.936186989
0.936191752
0.936196525
0.936201306
0.936206094
0.936210888
0.936215686
0.936220486
0.936225287
0.936230088
0.936234886
0.936239681
0.936244471
0.936249255
0.93625403
0.936258796
0.936263552
0.936268294
0.936273024
0.936277738
0.936282435
0.936287114
0.936291774
0.936296413
0.93630103
0.936305623
0.936310191
0.936314733
0.936319248
0.936323734
0.936328189
0.936332614
0.936337005
0.936341363
0.936345685
0.936349972
0.93635422
0.93635843
0.936362601
0.93636673
0.936370817
0.936374861
0.936378861
0.936382816
0.936386724
0.936390585
0.936394398
0.936398162
0.936401876
0.936405538
0.936409149
0.936412708
0.936416212
0.936419663
0.936423058
0.936426398
0.936429681
0.936432907
0.936436076
0.936439186
0.936442237
0.936445228
0.93644816
0.936451031
0.936453842
0.936456591
0.936459278
0.936461903
0.936464466
0.936466967
0.936469404
0.936471779
0.93647409
0.936476338
0.936478523
0.936480644
0.936482702
0.936484696
0.936486627
0.936488495
0.9364903
0.936492042
0.936493721
0.936495337
0.936496891
0.936498384
0.936499815
0.936501185
0.936502494
0.936503743
0.936504933
0.936506063
0.936507135
0.936508149
0.936509106
0.936510007
0.936510851
0.936511641
0.936512376
0.936513059
0.936513688
0.936514266
0.936514793
0.936515271
0.9365157
0.936516081
0.936516415
0.936516704
0.936516948
0.936517149
0.936517307
0.936517425
0.936517502
0.936517541
0.936517542
0.936517507
0.936517437
0.936517333
0.936517197
0.936517029
0.936516832
0.936516605
0.936516352
0.936516072
0.936515768
0.93651544
0.93651509
0.936514719
0.936514329
0.93651392
0.936513495
0.936513053
0.936512597
0.936512128
0.936511647
0.936511155
0.936510653
0.936510143
0.936509626
0.936509102
0.936508572
0.936508039
0.936507502
0.936506963
0.936506422
0.936505881
0.936505341
0.936504801
0.936504263
0.936503728
0.936503196
0.936502667
0.936502143
0.936501624
0.93650111
0.936500601
0.936500098
0.936499601
0.936499111
0.936498627
0.936498149
0.936497677
0.936497212
0.936496753
0.9364963
0.936495853
0.93649541
0.936494972
0.936494539
0.936494109
0.936493683
0.936493258
0.936492835
0.936492412
0.936491989
0.936491565
0.936491138
0.936490707
0.936490271
0.936489829
0.93648938
0.936488921
0.936488452
0.93648797
0.936487475
0.936486964
0.936486436
0.936485889
0.936485321
0.93648473
0.936484115
0.936483473
0.936482801
0.936482099
0.936481364
0.936480594
0.936479787
0.936478939
0.93647805
0.936477118
0.936476139
0.936475111
0.936474032
0.936472901
0.936471714
0.93647047
0.936469166
0.9364678
0.936466369
0.936464872
0.936463307
0.936461671
0.936459963
0.936458179
0.936456319
0.936454381
0.936452362
0.936450262
0.936448077
0.936445807
0.93644345
0.936441005
0.93643847
0.936435844
0.936433126
0.936430316
0.936427411
0.936424411
0.936421317
0.936418126
0.936414839
0.936411456
0.936407975
0.936404399
0.936400726
0.936396957
0.936393092
0.936389133
0.936385079
0.936380933
0.936376695
0.936372366
0.936367948
0.936363443
0.936358853
0.936354179
0.936349425
0.936344591
0.936339682
0.936334699
0.936329646
0.936324527
0.936319343
0.9363141
0.9363088
0.936303447
0.936298046
0.936292602
0.936287117
0.936281598
0.936276048
0.936270474
0.936264879
0.93625927
0.936253651
0.936248029
0.93624241
0.936236798
0.936231201
0.936225624
0.936220074
0.936214557
0.936209081
0.93620365
0.936198273
0.936192957
0.936187708
0.936182533
0.93617744
0.936172436
0.936167527
0.936162723
0.936158029
0.936153453
0.936149003
0.936144687
0.936140511
0.936136483
0.936132611
0.936128902
0.936125363
0.936122002
0.936118826
0.936115843
0.93611306
0.936110483
0.93610812
0.936105977
0.936104063
0.936102382
0.936100942
0.936099749
0.93609881
0.93609813
0.936097715
0.936097572
0.936097706
0.936098121
0.936098824
0.93609982
0.936101112
0.936102705
0.936104604
0.936106813
0.936109335
0.936112174
0.936115333
0.936118814
0.936122621
0.936126756
0.93613122
0.936136016
0.936141144
0.936146607
0.936152404
0.936158535
0.936165002
0.936171803
0.936178939
0.936186408
0.936194208
0.936202338
0.936210797
0.936219581
0.936228688
0.936238115
0.936247859
0.936257915
0.936268279
0.936278948
0.936289916
0.936301177
0.936312727
0.93632456
0.936336669
0.936349047
0.936361688
0.936374585
0.93638773
0.936401116
0.936414733
0.936428574
0.936442629
0.936456891
0.936471349
0.936485994
0.936500816
0.936515805
0.936530954
0.936546251
0.936561672
0.936577201
0.936592871
0.936608729
0.936624614
0.936640346
0.936656171
0.936672548
0.936689278
0.936705221
0.936719841
0.936735938
0.936754174
0.93677115
0.936785284
0.936799611
0.9368169
0.936835067
0.936850401
0.936864133
)
;

boundaryField
{
    closed
    {
        type            calculated;
        value           nonuniform List<scalar> 0();
    }
    open
    {
        type            calculated;
        value           nonuniform List<scalar> 0();
    }
    sides
    {
        type            empty;
    }
    procBoundary3to2
    {
        type            processor;
        value           uniform 0.936112316;
    }
    procBoundary3to4
    {
        type            processor;
        value           uniform 0.936879891;
    }
}


// ************************************************************************* //
