/*--------------------------------*- C++ -*----------------------------------*\
| =========                 |                                                 |
| \\      /  F ield         | OpenFOAM: The Open Source CFD Toolbox           |
|  \\    /   O peration     | Version:  2306                                  |
|   \\  /    A nd           | Website:  www.openfoam.com                      |
|    \\/     M anipulation  |                                                 |
\*---------------------------------------------------------------------------*/
FoamFile
{
    version     2.0;
    format      ascii;
    arch        "LSB;label=32;scalar=64";
    class       volScalarField;
    location    "0.00072";
    object      prefDZ_H2O;
}
// * * * * * * * * * * * * * * * * * * * * * * * * * * * * * * * * * * * * * //

dimensions      [1 -1 -1 0 0 0 0];

internalField   nonuniform List<scalar> 
531
(
-7.35423201e-07
-7.75138259e-07
-7.74001284e-07
-7.48626083e-07
-7.34991994e-07
-7.35113075e-07
-7.75262696e-07
-7.74151966e-07
-7.47209055e-07
-7.34564248e-07
-7.34434803e-07
-7.75754783e-07
-7.73610382e-07
-7.40484127e-07
-7.37327172e-07
-7.7643901e-07
-7.73722074e-07
-7.4769619e-07
-7.35301559e-07
-7.35102998e-07
-7.76124474e-07
-7.73359714e-07
-7.41918232e-07
-7.38357107e-07
-7.77079209e-07
-7.73199469e-07
-7.5733252e-07
-7.37730337e-07
-7.37187279e-07
-7.34878736e-07
-7.34687958e-07
-7.7759293e-07
-7.739839e-07
-7.40370958e-07
-7.37072908e-07
-7.77423289e-07
-7.7414507e-07
-7.47350866e-07
-7.34806084e-07
-7.34536881e-07
-7.77681956e-07
-7.73972737e-07
-7.39765591e-07
-7.36301687e-07
-7.78370115e-07
-7.73882154e-07
-7.39355282e-07
-7.36455807e-07
-7.78368277e-07
-7.7442301e-07
-7.46432616e-07
-7.34366882e-07
-7.34148298e-07
-7.78482829e-07
-7.74341212e-07
-7.39841805e-07
-7.35830522e-07
-7.79186529e-07
-7.74674337e-07
-7.46853735e-07
-7.34319043e-07
-7.33995824e-07
-7.79498569e-07
-7.74408634e-07
-7.39916321e-07
-7.35541094e-07
-7.77492864e-07
-7.74441771e-07
-7.39549335e-07
-7.35411809e-07
-7.74549688e-07
-7.74740948e-07
-7.39848106e-07
-7.34896952e-07
-7.70709623e-07
-7.75095834e-07
-7.41249179e-07
-7.35199454e-07
-7.67441656e-07
-7.75401237e-07
-7.43568177e-07
-7.3584233e-07
-7.65032652e-07
-7.75826071e-07
-7.5953744e-07
-7.36429028e-07
-7.34632453e-07
-7.59946169e-07
-7.76152668e-07
-7.48432619e-07
-7.3621e-07
-7.5765893e-07
-7.76654757e-07
-7.50829881e-07
-7.36449794e-07
-7.55492597e-07
-7.77077205e-07
-7.6848933e-07
-7.38122416e-07
-7.35204119e-07
-7.52054264e-07
-7.77553289e-07
-7.5489327e-07
-7.37010814e-07
-7.51716033e-07
-7.77702684e-07
-7.71947483e-07
-7.38873167e-07
-7.35515436e-07
-7.4921466e-07
-7.78112125e-07
-7.57773367e-07
-7.37588149e-07
-7.49581765e-07
-7.77937915e-07
-7.76541158e-07
-7.4003586e-07
-7.35694635e-07
-7.46702425e-07
-7.78502112e-07
-7.7723073e-07
-7.40112787e-07
-7.35535463e-07
-7.45770091e-07
-7.78573524e-07
-7.77449511e-07
-7.40085451e-07
-7.3546299e-07
-7.45116974e-07
-7.78617367e-07
-7.78085108e-07
-7.3984403e-07
-7.35187303e-07
-7.44797246e-07
-7.785476e-07
-7.63695176e-07
-7.3848403e-07
-7.47481461e-07
-7.77603162e-07
-7.78529254e-07
-7.40154942e-07
-7.35516174e-07
-7.44818768e-07
-7.78135085e-07
-7.64043211e-07
-7.3881275e-07
-7.4760274e-07
-7.77015696e-07
-7.77554116e-07
-7.41507212e-07
-7.36206464e-07
-7.44639148e-07
-7.77433885e-07
-7.7661207e-07
-7.46156405e-07
-7.36653613e-07
-7.35169678e-07
-7.43221884e-07
-7.77573323e-07
-7.78989963e-07
-7.39438152e-07
-7.3506217e-07
-7.43981161e-07
-7.77405423e-07
-7.65586916e-07
-7.38682983e-07
-7.4700822e-07
-7.7616205e-07
-7.78802377e-07
-7.39595841e-07
-7.35205348e-07
-7.44366731e-07
-7.76961973e-07
-7.65598248e-07
-7.38308092e-07
-7.46707714e-07
-7.75906641e-07
-7.79596044e-07
-7.38781495e-07
-7.34960376e-07
-7.44145356e-07
-7.76827907e-07
-7.65871168e-07
-7.3804299e-07
-7.45960402e-07
-7.75704946e-07
-7.77623764e-07
-7.39581925e-07
-7.3524233e-07
-7.43377157e-07
-7.76377656e-07
-7.76588695e-07
-7.39532956e-07
-7.34954389e-07
-7.42572381e-07
-7.76443561e-07
-7.76651962e-07
-7.38868928e-07
-7.3438066e-07
-7.42412411e-07
-7.76825272e-07
-7.67265764e-07
-7.37144565e-07
-7.44603044e-07
-7.75987826e-07
-7.6546091e-07
-7.3720309e-07
-7.45140204e-07
-7.75939002e-07
-7.64376192e-07
-7.3700741e-07
-7.43967243e-07
-7.75350648e-07
-7.76168832e-07
-7.38862704e-07
-7.34597056e-07
-7.43212476e-07
-7.76670672e-07
-7.65659893e-07
-7.3671064e-07
-7.42254561e-07
-7.75335831e-07
-7.75912995e-07
-7.40243865e-07
-7.34717218e-07
-7.43284962e-07
-7.7650327e-07
-7.66094227e-07
-7.3679716e-07
-7.4334258e-07
-7.75045935e-07
-7.76103318e-07
-7.392251e-07
-7.35338446e-07
-7.43858218e-07
-7.75340985e-07
-7.76917778e-07
-7.39172989e-07
-7.36633527e-07
-7.49667388e-07
-7.74718101e-07
-7.77982987e-07
-7.38290057e-07
-7.36408585e-07
-7.54323555e-07
-7.74902247e-07
-7.73857552e-07
-7.36224445e-07
-7.32228159e-07
-7.40119452e-07
-7.76845666e-07
-7.67028484e-07
-7.36125559e-07
-7.43257652e-07
-7.75879883e-07
-7.65585327e-07
-7.36309654e-07
-7.43697248e-07
-7.75653445e-07
-7.6557146e-07
-7.36332412e-07
-7.43993864e-07
-7.75462245e-07
-7.65559223e-07
-7.36537127e-07
-7.44604318e-07
-7.75191702e-07
-7.65928238e-07
-7.37014997e-07
-7.44235977e-07
-7.74365865e-07
-7.75864977e-07
-7.38202842e-07
-7.34350338e-07
-7.42569472e-07
-7.74897908e-07
-7.75280281e-07
-7.38362371e-07
-7.34087079e-07
-7.42562912e-07
-7.7548537e-07
-7.71543153e-07
-7.36993247e-07
-7.4320276e-07
-7.74209502e-07
-7.7515694e-07
-7.3834229e-07
-7.34264406e-07
-7.42478218e-07
-7.75358581e-07
-7.73471308e-07
-7.37081671e-07
-7.42912284e-07
-7.74146987e-07
-7.74437751e-07
-7.39015648e-07
-7.34532173e-07
-7.41501129e-07
-7.74698367e-07
-7.74326032e-07
-7.40844785e-07
-7.34486231e-07
-7.40824083e-07
-7.75001563e-07
-7.74600539e-07
-7.388795e-07
-7.33818401e-07
-7.39528138e-07
-7.75960442e-07
-7.80192688e-07
-7.36841455e-07
-7.39622685e-07
-7.75207387e-07
-7.74816628e-07
-7.4019746e-07
-7.3464538e-07
-7.41144e-07
-7.76425577e-07
-7.7848706e-07
-7.37020292e-07
-7.38761804e-07
-7.7617029e-07
-7.74547074e-07
-7.42205623e-07
-7.34574419e-07
-7.38410648e-07
-7.77198291e-07
-7.74679933e-07
-7.43286243e-07
-7.34879477e-07
-7.38673714e-07
-7.77806294e-07
-7.77181579e-07
-7.39041999e-07
-7.38995466e-07
-7.79091034e-07
-7.74769192e-07
-7.45086746e-07
-7.3458971e-07
-7.37251923e-07
-7.78887813e-07
-7.77197111e-07
-7.40461738e-07
-7.39141807e-07
-7.78274699e-07
-7.74688263e-07
-7.48100893e-07
-7.35384533e-07
-7.37080038e-07
-7.7955582e-07
-7.74871814e-07
-7.4792632e-07
-7.34642373e-07
-7.35960299e-07
-7.78997639e-07
-7.77167709e-07
-7.41341265e-07
-7.38491411e-07
-7.74062702e-07
-7.75174762e-07
-7.49344725e-07
-7.3470738e-07
-7.35410049e-07
-7.77927256e-07
-7.76984817e-07
-7.42728755e-07
-7.3869855e-07
-7.72465845e-07
-7.74994527e-07
-7.52369271e-07
-7.35733043e-07
-7.35746218e-07
-7.7774227e-07
-7.74938941e-07
-7.52616571e-07
-7.35500122e-07
-7.3550908e-07
-7.75100502e-07
-7.76386301e-07
-7.44709745e-07
-7.38844089e-07
-7.69984486e-07
-7.7410196e-07
-7.6392522e-07
-7.40495006e-07
-7.36964595e-07
-7.36812205e-07
-7.75470696e-07
-7.74434134e-07
-7.57019747e-07
-7.37887775e-07
-7.35095892e-07
-7.35199679e-07
-7.71972232e-07
-7.74308181e-07
-7.74545164e-07
-7.54290974e-07
-7.35562656e-07
-7.34939188e-07
-7.70396403e-07
-7.75384727e-07
-7.55472763e-07
-7.35847925e-07
-7.35290833e-07
-7.69916565e-07
-7.76136542e-07
-7.45777299e-07
-7.37744267e-07
-7.64782452e-07
-7.75652217e-07
-7.55509184e-07
-7.35581307e-07
-7.34978162e-07
-7.69920559e-07
-7.76043474e-07
-7.45553873e-07
-7.37274085e-07
-7.64639082e-07
-7.76174271e-07
-7.44991129e-07
-7.37157113e-07
-7.64816481e-07
-7.75375124e-07
-7.56539706e-07
-7.36061973e-07
-7.35507859e-07
-7.72573722e-07
-7.75577353e-07
-7.45035173e-07
-7.37625102e-07
-7.66284722e-07
-7.75189916e-07
-7.55828749e-07
-7.35696199e-07
-7.35155039e-07
-7.73226534e-07
-7.75389794e-07
-7.44536179e-07
-7.37524293e-07
-7.67209732e-07
-7.74921992e-07
-7.56529689e-07
-7.36008182e-07
-7.3578463e-07
-7.74875562e-07
-7.74637937e-07
-7.57540099e-07
-7.36830908e-07
-7.36604226e-07
-7.7658142e-07
-7.73952338e-07
-7.57755264e-07
-7.38932702e-07
-7.3553164e-07
-7.35208383e-07
-7.70429407e-07
-7.75336522e-07
-7.42598408e-07
-7.36762352e-07
-7.69218281e-07
-7.75008376e-07
-7.54092487e-07
-7.35240211e-07
-7.35039591e-07
-7.77491814e-07
-7.75114066e-07
-7.42052558e-07
-7.36470392e-07
-7.70796375e-07
-7.75178603e-07
-7.41611932e-07
-7.363397e-07
-7.72614573e-07
-7.75060655e-07
-7.40860167e-07
-7.36682991e-07
-7.74771123e-07
-7.74919228e-07
-7.5268859e-07
-7.34507616e-07
-7.34598065e-07
-7.78658757e-07
-7.75228626e-07
-7.39403185e-07
-7.36035157e-07
-7.77682224e-07
-7.75019186e-07
-7.39492913e-07
-7.36469234e-07
-7.77177496e-07
-7.74775971e-07
-7.53258611e-07
-7.34854226e-07
-7.35874373e-07
-7.76645294e-07
-7.76744432e-07
-7.36346737e-07
-7.37095209e-07
-7.75965678e-07
-7.75640145e-07
-7.37077297e-07
-7.35875368e-07
-7.7984776e-07
-7.74719677e-07
-7.54187673e-07
-7.35284327e-07
-7.3562684e-07
-7.76290371e-07
-7.74670531e-07
-7.47297774e-07
-7.35113487e-07
-7.40198138e-07
-7.74944138e-07
-7.74287919e-07
-7.41725014e-07
-7.34360659e-07
-7.40806684e-07
-7.75063641e-07
-7.74306812e-07
-7.41222835e-07
-7.34380302e-07
-7.40995551e-07
-7.75057514e-07
-7.74209277e-07
-7.41859498e-07
-7.34465564e-07
-7.40450535e-07
-7.75078433e-07
-7.74062714e-07
-7.43184587e-07
-7.34546451e-07
)
;

boundaryField
{
    closed
    {
        type            calculated;
        value           nonuniform List<scalar> 0();
    }
    open
    {
        type            calculated;
        value           nonuniform List<scalar> 0();
    }
    sides
    {
        type            empty;
    }
    procBoundary1to0
    {
        type            processor;
        value           uniform -7.35308106e-07;
    }
    procBoundary1to2
    {
        type            processor;
        value           uniform -7.3925412e-07;
    }
}


// ************************************************************************* //
