/*--------------------------------*- C++ -*----------------------------------*\
| =========                 |                                                 |
| \\      /  F ield         | OpenFOAM: The Open Source CFD Toolbox           |
|  \\    /   O peration     | Version:  2306                                  |
|   \\  /    A nd           | Website:  www.openfoam.com                      |
|    \\/     M anipulation  |                                                 |
\*---------------------------------------------------------------------------*/
FoamFile
{
    version     2.0;
    format      ascii;
    arch        "LSB;label=32;scalar=64";
    class       volScalarField;
    location    "0.00072";
    object      sourcePV;
}
// * * * * * * * * * * * * * * * * * * * * * * * * * * * * * * * * * * * * * //

dimensions      [1 -3 -1 0 0 0 0];

internalField   nonuniform List<scalar> 
531
(
0.156000966
0.00530931264
0.00596553288
0.0931427623
0.158889434
0.158231425
0.00523686764
0.00587930686
0.0978900138
0.162620011
0.161564115
0.00495269134
0.00618997918
0.122856633
0.140119849
0.00455233332
0.0061251604
0.0962829726
0.157425723
0.156685805
0.0047427226
0.00633309471
0.117746847
0.132306614
0.0041884458
0.0064227375
0.0650904987
0.138365948
0.143523072
0.162101485
0.161331123
0.00389727859
0.00597544209
0.123894775
0.144014112
0.00399017606
0.00588413669
0.0976318959
0.162766436
0.161726713
0.00385671645
0.00598171709
0.126366841
0.14850056
0.00344542604
0.00603360934
0.128291749
0.148801911
0.00345114623
0.00572558038
0.100987703
0.166348015
0.16560558
0.00340437195
0.0057713662
0.125813355
0.154004699
0.00298648567
0.00558283373
0.0995067704
0.167632707
0.166686606
0.00336854556
0.00573248199
0.126058375
0.155153684
0.00936441118
0.00571374983
0.128001805
0.156497577
0.0172333962
0.0055429854
0.125908596
0.160399696
0.0277165962
0.00534011202
0.120061475
0.158482669
0.0367421726
0.00516819495
0.111049039
0.15447661
0.0433533206
0.00493006226
0.0582330069
0.150633391
0.162775875
0.0577097454
0.00473816064
0.0937203345
0.150136263
0.0645671303
0.00445662731
0.0857091422
0.149237679
0.0709980053
0.00422145083
0.0322572397
0.135090921
0.158998946
0.081537393
0.00395162657
0.0726870399
0.144436221
0.0825649679
0.00386343975
0.0227828241
0.128444684
0.157336109
0.0906034837
0.00363852296
0.0638089387
0.140388366
0.0893960382
0.00372929416
0.0103371054
0.123798432
0.157032353
0.0990137884
0.00341552008
0.00851850113
0.123572354
0.158301044
0.102250163
0.0033697963
0.00805238374
0.12353499
0.159021993
0.104491952
0.00334204054
0.00658125668
0.124452377
0.160843004
0.105377428
0.00337699296
0.0464347034
0.134321886
0.0965289096
0.00390975958
0.00555443417
0.12331004
0.158890812
0.105384286
0.00360634107
0.0454458993
0.132458838
0.0962817899
0.00424483148
0.0039408588
0.118412577
0.155172678
0.106489053
0.00400933901
0.00447099552
0.101854836
0.148896275
0.160262553
0.111651404
0.00391582832
0.00312503652
0.126273176
0.163659292
0.108529146
0.00401484504
0.0411595602
0.134513099
0.0985233565
0.0047247141
0.00323063699
0.125516155
0.162820104
0.10715025
0.00426504734
0.0412220173
0.13729555
0.0995613665
0.00486915165
0.00323697838
0.128686816
0.164705016
0.108011402
0.00434083527
0.0404809567
0.139530303
0.102274979
0.00498488661
0.00388896538
0.125876254
0.163312355
0.111333333
0.00459764138
0.00447869179
0.126199165
0.165216094
0.114276705
0.00455840169
0.00443921549
0.129115232
0.169125964
0.114531153
0.0043396177
0.0367761243
0.146895577
0.106802687
0.00482148259
0.0417892862
0.146079297
0.104862013
0.00485055559
0.0448259008
0.147457231
0.109302459
0.00518649385
0.00471716324
0.128778447
0.167590442
0.111727019
0.00443205459
0.041280767
0.150647332
0.115451103
0.0051940819
0.00486402031
0.123293229
0.166262309
0.111476752
0.00452652321
0.0401242815
0.14929265
0.111592692
0.00536234982
0.00475324287
0.12744685
0.161198095
0.109855219
0.0051946618
0.00428179245
0.129262131
0.152241999
0.0897436962
0.00555591186
0.00367402286
0.135903764
0.154554864
0.0744714025
0.00544999563
0.0183999546
0.149281806
0.184913649
0.123287987
0.00432633144
0.0376003155
0.155527407
0.111967418
0.0048849829
0.0415616913
0.152893033
0.110279676
0.00501398119
0.0416426807
0.152139305
0.109167806
0.00512403375
0.0416897187
0.150295314
0.107012167
0.00528053848
0.0405301269
0.146102801
0.108807136
0.0057557203
0.00489103207
0.134545309
0.168310215
0.114520368
0.00544891266
0.00522776193
0.13314811
0.169719249
0.114489537
0.005112556
0.0253270454
0.146340088
0.112714549
0.00584583108
0.00529883082
0.132420192
0.168577055
0.11491611
0.00518702719
0.0201376432
0.145425626
0.113895143
0.00588172879
0.00571427698
0.127978391
0.165583036
0.118470153
0.00556428221
0.00577867821
0.120992265
0.165280178
0.121071552
0.00538904401
0.00562022494
0.128350619
0.171052333
0.126641468
0.0048409886
0.00239703463
0.146642161
0.127511404
0.00527216686
0.00549535809
0.123150906
0.165849739
0.120503098
0.00458413056
0.00337075228
0.144543212
0.134784693
0.00471843946
0.00565115951
0.115465571
0.165202666
0.133762656
0.00413627567
0.00557440444
0.111756875
0.163687274
0.134412932
0.00380265765
0.00412295534
0.127794716
0.132884439
0.00307527862
0.0055232378
0.10507315
0.16559757
0.145739597
0.00319097461
0.00411370526
0.122329623
0.131399693
0.0064639334
0.00557059761
0.0948094913
0.159686771
0.146353843
0.00280999822
0.00546449443
0.0954087448
0.165301919
0.156637611
0.00479020389
0.0041321157
0.118892977
0.136353979
0.0181001483
0.00529043056
0.0905741014
0.164956354
0.160755927
0.00770342548
0.00423845387
0.113856214
0.134343074
0.022415073
0.00539547977
0.0807097158
0.157060948
0.157108674
0.0085140301
0.00542674338
0.0799358313
0.158414389
0.159242443
0.0154611782
0.0045826552
0.106689094
0.130791726
0.0292216957
0.00590769044
0.0453117891
0.12214368
0.148659581
0.14815829
0.0143336723
0.00571644231
0.0659665057
0.134837523
0.162312059
0.16087272
0.0244219114
0.00579019366
0.005658587
0.0745753028
0.158883979
0.162286604
0.0283829309
0.00517401765
0.0708338776
0.156332271
0.160550839
0.029599115
0.004732152
0.102922716
0.141303499
0.0439220825
0.00502116991
0.0707355594
0.158665961
0.162639674
0.0296320253
0.00478673386
0.103778243
0.145323924
0.0442867601
0.00470933967
0.105493502
0.14532073
0.0439880177
0.00517994913
0.0675301517
0.155089928
0.158125043
0.0225724501
0.00505530407
0.105774544
0.141822879
0.0398005864
0.00528676048
0.0697303934
0.157869715
0.160275353
0.0209358547
0.0051634031
0.107609541
0.142104369
0.0372724779
0.00543986528
0.0675574841
0.155452146
0.15519684
0.0166151468
0.0056031695
0.0643846218
0.149923596
0.14893751
0.0117851986
0.00599355364
0.0636296314
0.129993592
0.159568714
0.159385339
0.0283382304
0.00519520795
0.1147709
0.148699228
0.0317558202
0.00539309245
0.0752123001
0.162400077
0.160981068
0.00957019172
0.0053249843
0.117567374
0.150789701
0.0272883254
0.00528753693
0.118925244
0.151926369
0.0225045385
0.00535549049
0.121969436
0.149469133
0.0170642042
0.00544543976
0.0797661758
0.168129207
0.164155328
0.00326756509
0.00525805024
0.131865353
0.154100016
0.00915991161
0.00537937735
0.129745704
0.150989145
0.0108407725
0.00552718392
0.0779093546
0.164366905
0.156737392
0.00443859869
0.00437813026
0.15407969
0.148987898
0.00483620345
0.00502086517
0.149321715
0.156438323
0.00361061464
0.00556254245
0.0749203205
0.161244197
0.156876268
0.00463480117
0.00558317096
0.0977707547
0.160814813
0.123545448
0.00542143564
0.00580063447
0.117618021
0.166619566
0.121027511
0.00535308325
0.00578975281
0.119572145
0.166554213
0.120277122
0.00535669744
0.00584596234
0.117112307
0.165563842
0.122231119
0.00534412224
0.00593057493
0.112143347
0.164390557
)
;

boundaryField
{
    closed
    {
        type            calculated;
        value           nonuniform List<scalar> 0();
    }
    open
    {
        type            calculated;
        value           nonuniform List<scalar> 0();
    }
    sides
    {
        type            empty;
    }
    procBoundary1to0
    {
        type            processor;
        value           uniform 0;
    }
    procBoundary1to2
    {
        type            processor;
        value           uniform 0;
    }
}


// ************************************************************************* //
