/*--------------------------------*- C++ -*----------------------------------*\
| =========                 |                                                 |
| \\      /  F ield         | OpenFOAM: The Open Source CFD Toolbox           |
|  \\    /   O peration     | Version:  2306                                  |
|   \\  /    A nd           | Website:  www.openfoam.com                      |
|    \\/     M anipulation  |                                                 |
\*---------------------------------------------------------------------------*/
FoamFile
{
    version     2.0;
    format      ascii;
    arch        "LSB;label=32;scalar=64";
    class       volScalarField;
    location    "0.00072";
    object      T;
}
// * * * * * * * * * * * * * * * * * * * * * * * * * * * * * * * * * * * * * //

dimensions      [0 0 0 1 0 0 0];

internalField   nonuniform List<scalar> 
531
(
324.188238
340.132358
340.060615
329.369536
323.632184
323.767297
340.144758
340.027874
329.153995
322.956338
323.062101
339.935219
340.390306
329.228992
327.00663
339.903376
340.17327
329.248309
323.947915
323.97223
339.648675
340.386078
329.369631
328.408881
339.441608
340.162451
330.821844
327.411699
326.54059
323.133615
323.182671
339.143103
340.077251
329.519099
326.427149
339.313669
339.890494
329.328176
323.011759
323.074881
338.899421
340.194225
329.600654
325.523767
338.957059
340.123019
329.394631
325.554512
338.874209
339.809991
329.351281
322.335801
322.386677
338.528532
339.927117
329.478213
324.615799
338.503831
339.691105
329.382024
322.119274
322.179367
337.713206
339.945154
329.722682
324.347924
337.051829
339.909604
329.535359
324.116513
335.975035
339.790155
329.533596
323.386791
334.627264
339.675167
329.27072
323.763765
333.526166
339.466566
329.087507
324.556616
332.751165
339.203708
331.383742
325.306489
322.95569
331.27795
339.25984
329.285672
325.278303
330.613059
338.976496
329.578963
325.49649
330.086177
338.734255
333.813622
327.982052
323.692585
329.389462
338.565243
330.250032
326.346871
329.244395
338.568739
334.931125
328.995495
324.038442
328.918724
338.316609
330.876043
327.10736
328.955118
338.495699
336.515239
328.869634
324.145527
328.667733
338.209922
336.765449
328.900097
323.907492
328.617939
338.254959
336.859408
328.832131
323.777897
328.555075
338.278294
337.119184
328.837406
323.418819
328.387028
338.367516
332.385861
328.260491
328.861832
338.779127
337.302302
328.849562
323.814908
328.440969
338.594925
332.485315
328.643494
329.000415
338.984385
338.740123
328.931262
324.5943
328.724905
338.782027
339.22743
329.264926
325.6281
323.498719
328.716194
338.998009
338.217087
328.977455
322.949342
328.515922
338.999289
332.938496
328.344183
329.094678
339.505075
338.297565
328.900013
323.121717
328.526872
339.243234
332.940317
327.829933
329.068397
339.681108
337.766714
328.946861
322.755094
328.562591
339.32034
333.023536
327.433361
329.081498
339.765364
338.940176
329.046287
323.05378
328.856573
339.537341
339.390616
329.111476
322.670776
328.840733
339.558173
339.460087
329.030807
321.886693
328.660427
339.395654
333.462206
326.09898
328.834346
339.692881
332.894642
326.22999
328.841127
339.669087
332.565525
325.966738
328.934842
340.063101
339.633983
329.061719
322.192947
328.738983
339.349867
332.955229
325.419182
328.838746
340.169843
339.743376
329.003459
322.440724
328.748004
339.457583
333.090309
325.636609
328.929094
340.218456
339.723882
329.150796
323.41237
329.019887
339.872126
339.493185
329.188584
325.168623
329.591951
339.807182
338.984692
327.980672
324.75556
330.216613
339.787846
335.660006
325.392308
318.687865
328.773887
339.432256
333.38799
324.514366
328.962368
339.671684
332.93067
324.954076
328.925999
339.811413
332.925489
325.065972
328.913945
339.881853
332.921397
325.395889
328.960736
339.924617
333.038829
326.143259
329.212331
340.288098
339.791152
328.084865
322.016347
328.964032
340.107498
340.032486
328.322606
321.722845
328.934943
339.769906
334.90786
326.103601
329.253239
340.312864
340.090026
328.388668
321.952277
328.99377
339.725077
335.588806
326.258238
329.304327
340.264573
340.25151
329.029206
322.500679
328.948898
340.116756
340.260551
328.981764
322.534852
328.982584
340.08346
340.284368
328.962768
321.441839
329.310163
339.554174
338.302197
325.997547
329.629308
339.873516
340.216925
328.849761
322.488954
329.293127
339.12455
339.049398
326.338374
328.354105
339.555761
340.25872
328.750799
322.571718
328.282598
339.010852
340.239048
328.905143
322.893463
328.350709
338.563686
339.588482
328.989872
328.694023
338.085123
340.133466
328.851788
322.514114
326.295108
338.15143
339.590548
328.932925
328.939086
337.23893
340.045646
329.22098
323.654119
326.140484
337.940439
340.047724
329.206583
322.574977
324.295468
337.538836
339.559415
328.860895
328.032996
335.757274
339.919638
329.326215
322.647105
323.501773
337.150857
339.610705
328.925286
328.371697
335.19667
339.870611
329.835007
324.154989
324.15275
337.12178
339.940762
329.923979
323.878964
323.760689
336.143564
339.936194
328.997357
328.841288
334.352352
340.112217
332.480293
328.902996
325.790425
325.791719
336.262567
340.203474
330.834848
327.881827
323.168753
323.41834
335.076882
339.944156
339.599349
330.12632
323.831358
323.124915
334.508406
339.621541
330.486555
324.300039
323.495434
334.340069
339.795954
329.071487
327.074828
332.67827
339.523912
330.450576
323.869692
323.083408
334.343782
339.79078
329.098585
326.357954
332.635746
339.828661
328.89637
326.305631
332.682311
339.605112
330.655984
324.554048
323.92339
335.27164
339.994641
329.159738
326.954797
333.149307
339.623396
330.526367
324.025123
323.492
335.513774
340.091067
329.161233
326.872499
333.448611
339.709814
330.658202
324.483073
324.435947
336.11849
339.729313
330.917998
325.565796
325.6016
336.714118
340.06049
331.02911
328.975631
323.719398
323.638882
334.522372
340.02007
329.151226
325.7001
334.116165
339.552918
330.240323
323.197503
323.350689
337.075538
339.969917
329.531082
325.302813
334.645102
339.971178
329.382876
325.097664
335.289532
340.010363
329.48405
325.565679
336.097104
339.508211
330.056813
322.08254
322.739362
339.061759
340.0086
329.026266
324.682318
337.157948
340.024581
329.313965
325.275742
337.008437
339.53965
330.142087
322.780262
324.251138
339.6046
339.67868
324.801704
325.799822
339.620075
339.858575
325.746991
324.294606
337.999247
339.403229
330.34113
323.388823
324.143453
340.195734
339.817689
329.292393
323.399206
329.04215
340.218843
340.272572
328.940534
322.29149
328.928661
340.079189
340.276893
328.979801
322.307033
328.907205
340.072527
340.313825
328.938342
322.485167
328.864097
340.123682
340.398135
328.911219
322.688361
)
;

boundaryField
{
    closed
    {
        type            fixedValue;
        value           nonuniform List<scalar> 0();
    }
    open
    {
        type            zeroGradient;
    }
    sides
    {
        type            empty;
    }
    procBoundary1to0
    {
        type            processor;
        value           uniform 324.04308;
    }
    procBoundary1to2
    {
        type            processor;
        value           uniform 328.920561;
    }
}


// ************************************************************************* //
