/*--------------------------------*- C++ -*----------------------------------*\
| =========                 |                                                 |
| \\      /  F ield         | OpenFOAM: The Open Source CFD Toolbox           |
|  \\    /   O peration     | Version:  2306                                  |
|   \\  /    A nd           | Website:  www.openfoam.com                      |
|    \\/     M anipulation  |                                                 |
\*---------------------------------------------------------------------------*/
FoamFile
{
    version     2.0;
    format      ascii;
    arch        "LSB;label=32;scalar=64";
    class       volScalarField;
    location    "0.00172";
    object      prefDPV_H2;
}
// * * * * * * * * * * * * * * * * * * * * * * * * * * * * * * * * * * * * * //

dimensions      [1 -1 -1 0 0 0 0];

internalField   nonuniform List<scalar> 
530
(
-3.29663715e-05
-3.12288377e-05
-3.09275482e-05
-3.09195672e-05
-3.09188454e-05
-3.09188099e-05
-3.09188071e-05
-3.0918807e-05
-3.0918807e-05
-3.0918807e-05
-3.0918807e-05
-3.0918807e-05
-3.0918807e-05
-3.0918807e-05
-3.0918807e-05
-3.0918807e-05
-3.0918807e-05
-3.0918807e-05
-3.0918807e-05
-3.0918807e-05
-3.0918807e-05
-3.0918807e-05
-3.0918807e-05
-3.0918807e-05
-3.0918807e-05
-3.0918807e-05
-3.0918807e-05
-3.0918807e-05
-3.0918807e-05
-3.0918807e-05
-3.0918807e-05
-3.0918807e-05
-3.0918807e-05
-3.0918807e-05
-3.0918807e-05
-3.0918807e-05
-3.0918807e-05
-3.0918807e-05
-3.0918807e-05
-3.0918807e-05
-3.0918807e-05
-3.0918807e-05
-3.0918807e-05
-3.0918807e-05
-3.0918807e-05
-3.0918807e-05
-3.0918807e-05
-3.0918807e-05
-3.0918807e-05
-3.0918807e-05
-3.0918807e-05
-3.0918807e-05
-3.0918807e-05
-3.0918807e-05
-3.0918807e-05
-3.0918807e-05
-3.0918807e-05
-3.0918807e-05
-3.0918807e-05
-3.0918807e-05
-3.0918807e-05
-3.09188072e-05
-3.09188073e-05
-3.09188086e-05
-3.09188088e-05
-3.09188148e-05
-3.0918817e-05
-3.0918836e-05
-3.09188578e-05
-3.09189116e-05
-3.09189408e-05
-3.09190994e-05
-3.091929e-05
-3.09199208e-05
-3.09193986e-05
-3.09178749e-05
-3.09184831e-05
-3.09386281e-05
-3.09405335e-05
-3.08964599e-05
-3.09181131e-05
-3.10904686e-05
-3.15033006e-05
-3.09119835e-05
-3.09265325e-05
-3.09090246e-05
-3.09721832e-05
-3.09128066e-05
-3.0871774e-05
-3.06325464e-05
-3.08718148e-05
-3.15080861e-05
-3.1587549e-05
-3.15651027e-05
-3.08780131e-05
-3.04062468e-05
-3.05350806e-05
-3.15137447e-05
-3.15533083e-05
-3.1549757e-05
-3.09014386e-05
-3.05867564e-05
-3.03706547e-05
-3.03714394e-05
-3.14869911e-05
-3.15398458e-05
-3.15131678e-05
-3.15522493e-05
-3.15436254e-05
-3.08998304e-05
-3.0456287e-05
-3.04650669e-05
-3.14860789e-05
-3.1531977e-05
-3.09177506e-05
-3.04840029e-05
-3.04863216e-05
-3.1484182e-05
-3.15266767e-05
-3.15114016e-05
-3.15314926e-05
-3.09218e-05
-3.06892422e-05
-3.06621205e-05
-3.05578456e-05
-3.02784695e-05
-3.02839702e-05
-3.14781537e-05
-3.15158288e-05
-3.15125978e-05
-3.07012228e-05
-3.03817576e-05
-3.14605958e-05
-3.15124694e-05
-3.14957228e-05
-3.1511639e-05
-3.09142523e-05
-3.03801661e-05
-3.03911205e-05
-3.14764853e-05
-3.15341274e-05
-3.0857697e-05
-3.05715864e-05
-3.14840193e-05
-3.15319392e-05
-3.0931738e-05
-3.06701572e-05
-3.0541422e-05
-3.05457586e-05
-3.14704552e-05
-3.15219352e-05
-3.14974889e-05
-3.15199003e-05
-3.09143579e-05
-3.04843407e-05
-3.04864142e-05
-3.14888334e-05
-3.15213399e-05
-3.09455054e-05
-3.04436367e-05
-3.05486382e-05
-3.15070584e-05
-3.09239724e-05
-3.04026539e-05
-3.14827225e-05
-3.15205779e-05
-3.0761146e-05
-3.05553038e-05
-3.14732477e-05
-3.15269475e-05
-3.06820208e-05
-3.06113565e-05
-3.14794321e-05
-3.15261707e-05
-3.15160184e-05
-3.08627855e-05
-3.06365126e-05
-3.14899386e-05
-3.15260485e-05
-3.15156633e-05
-3.09419982e-05
-3.07213012e-05
-3.05256111e-05
-3.05299423e-05
-3.14869641e-05
-3.09189133e-05
-3.03426294e-05
-3.14864803e-05
-3.1497129e-05
-3.09235694e-05
-3.03111654e-05
-3.03179598e-05
-3.14811724e-05
-3.15082445e-05
-3.1503603e-05
-3.06542086e-05
-3.05596373e-05
-3.14660359e-05
-3.08380714e-05
-3.0262943e-05
-3.14593175e-05
-3.14869658e-05
-3.14806467e-05
-3.08329454e-05
-3.04527291e-05
-3.14489758e-05
-3.14926652e-05
-3.14804828e-05
-3.14964514e-05
-3.09243005e-05
-3.05249264e-05
-3.06008517e-05
-3.02921597e-05
-3.03080427e-05
-3.14474957e-05
-3.15114049e-05
-3.08100187e-05
-3.04667306e-05
-3.14660373e-05
-3.1498545e-05
-3.09319138e-05
-3.03477827e-05
-3.03613066e-05
-3.14589882e-05
-3.15049545e-05
-3.14955022e-05
-3.15062935e-05
-3.09183719e-05
-3.03581792e-05
-3.04141179e-05
-3.14917653e-05
-3.15139399e-05
-3.15152395e-05
-3.08304812e-05
-3.0722228e-05
-3.14775683e-05
-3.09175141e-05
-3.02927638e-05
-3.148522e-05
-3.1494623e-05
-3.09254e-05
-3.02833185e-05
-3.03268589e-05
-3.14833266e-05
-3.15064102e-05
-3.15045195e-05
-3.08090363e-05
-3.05765272e-05
-3.14644487e-05
-3.10407311e-05
-3.03723053e-05
-3.14607751e-05
-3.14879727e-05
-3.09432657e-05
-3.02853214e-05
-3.03067412e-05
-3.14624644e-05
-3.14925777e-05
-3.14881563e-05
-3.07145209e-05
-3.03307678e-05
-3.14492293e-05
-3.14948944e-05
-3.05668291e-05
-3.04753052e-05
-3.14454085e-05
-3.14874214e-05
-3.14800945e-05
-3.0732835e-05
-3.05800658e-05
-3.14362868e-05
-3.09159297e-05
-3.01583706e-05
-3.14289928e-05
-3.14476002e-05
-3.14598247e-05
-3.14640668e-05
-3.08337441e-05
-3.02010189e-05
-3.02214093e-05
-3.14437127e-05
-3.1489911e-05
-3.09494915e-05
-3.01941788e-05
-3.02548687e-05
-3.14796634e-05
-3.15095816e-05
-3.15041801e-05
-3.09353971e-05
-3.01676816e-05
-3.01825718e-05
-3.14466451e-05
-3.14985612e-05
-3.14711694e-05
-3.14937555e-05
-3.10090159e-05
-3.04088493e-05
-3.04171173e-05
-3.14621278e-05
-3.1526465e-05
-3.07859751e-05
-3.05148755e-05
-3.14720141e-05
-3.15233564e-05
-3.08484358e-05
-3.05568421e-05
-3.14889253e-05
-3.15051657e-05
-3.09193239e-05
-3.04323979e-05
-3.0446146e-05
-3.14690029e-05
-3.15265607e-05
-3.09238336e-05
-3.06038746e-05
-3.14851084e-05
-3.15086102e-05
-3.09233938e-05
-3.05407719e-05
-3.0546262e-05
-3.14812903e-05
-3.15079344e-05
-3.09239332e-05
-3.04310269e-05
-3.04381054e-05
-3.14869913e-05
-3.15245132e-05
-3.15218673e-05
-3.09282899e-05
-3.05234525e-05
-3.02539997e-05
-3.02537887e-05
-3.14821948e-05
-3.15123653e-05
-3.15047618e-05
-3.09349613e-05
-3.05498149e-05
-3.1483472e-05
-3.15241212e-05
-3.09272917e-05
-3.06662849e-05
-3.14877156e-05
-3.15275696e-05
-3.09418774e-05
-3.06753344e-05
-3.15030288e-05
-3.15130986e-05
-3.09119045e-05
-3.0537514e-05
-3.05458514e-05
-3.14825904e-05
-3.15427572e-05
-3.09481181e-05
-3.07123827e-05
-3.14910848e-05
-3.15342386e-05
-3.09271463e-05
-3.07795049e-05
-3.05341128e-05
-3.05346013e-05
-3.14732858e-05
-3.15208848e-05
-3.0721533e-05
-3.05605635e-05
-3.14577207e-05
-3.15094012e-05
-3.14818473e-05
-3.15052795e-05
-3.09514537e-05
-3.06015248e-05
-3.06153597e-05
-3.02059879e-05
-3.02240542e-05
-3.14396583e-05
-3.15137633e-05
-3.04672111e-05
-3.03124875e-05
-3.14252314e-05
-3.15105364e-05
-3.14509686e-05
-3.1511793e-05
-3.14844596e-05
-3.15115615e-05
-3.09530714e-05
-3.07217197e-05
-3.0757117e-05
-3.05866603e-05
-3.05656498e-05
-3.02569693e-05
-3.02634425e-05
-3.14791616e-05
-3.15103861e-05
-3.15057162e-05
-3.09353187e-05
-3.06360803e-05
-3.14837304e-05
-3.1524309e-05
-3.09490876e-05
-3.07501895e-05
-3.14884948e-05
-3.15251637e-05
-3.09282795e-05
-3.07902117e-05
-3.05374749e-05
-3.05380804e-05
-3.14773129e-05
-3.15242691e-05
-3.07980061e-05
-3.05493415e-05
-3.14747007e-05
-3.15186202e-05
-3.08201596e-05
-3.04517449e-05
-3.14844127e-05
-3.14961388e-05
-3.09305918e-05
-3.00228277e-05
-3.00552887e-05
-3.14376986e-05
-3.1514119e-05
-3.14632139e-05
-3.1524733e-05
-3.1494501e-05
-3.15328635e-05
-3.15218186e-05
-3.09144764e-05
-3.06383466e-05
-3.03721709e-05
-3.03716881e-05
-3.14803388e-05
-3.15217691e-05
-3.08011639e-05
-3.05926096e-05
-3.14827454e-05
-3.15200456e-05
-3.09309376e-05
-3.07420428e-05
-3.05640479e-05
-3.05661392e-05
-3.14870976e-05
-3.15100989e-05
-3.09231703e-05
-3.04138114e-05
-3.04191303e-05
-3.14923045e-05
-3.15191343e-05
-3.15200692e-05
-3.09345702e-05
-3.0688677e-05
-3.15029176e-05
-3.15123305e-05
-3.09256545e-05
-3.05771415e-05
-3.05802388e-05
-3.14959099e-05
-3.15197889e-05
-3.09166934e-05
-3.05311952e-05
-3.05346588e-05
-3.15006039e-05
-3.15148352e-05
-3.09130192e-05
-3.05155572e-05
-3.05211576e-05
-3.14938143e-05
-3.1526743e-05
-3.09261528e-05
-3.06567458e-05
-3.03841565e-05
-3.03833191e-05
-3.14851005e-05
-3.15081349e-05
-3.14996073e-05
-3.08398009e-05
-3.04667531e-05
-3.14608553e-05
-3.15071137e-05
-3.14721483e-05
-3.15094843e-05
-3.10272221e-05
-3.06634477e-05
-3.06333145e-05
-3.02771221e-05
-3.02732644e-05
-3.14830759e-05
-3.14818205e-05
-3.09016681e-05
-3.14704511e-05
-3.1530912e-05
-3.09410736e-05
-3.05143192e-05
-3.05120866e-05
-3.15002712e-05
-3.15049106e-05
-3.09135844e-05
-3.04816863e-05
-3.04929414e-05
-3.14793739e-05
-3.15339933e-05
-3.09159918e-05
-3.06421333e-05
-3.14882003e-05
-3.15317895e-05
-3.09205048e-05
-3.06522666e-05
-3.14972179e-05
-3.15180983e-05
-3.0934122e-05
-3.05132563e-05
-3.05318388e-05
-3.15102553e-05
-3.09176942e-05
-3.04526863e-05
-3.14964053e-05
-3.15311819e-05
-3.07355421e-05
-3.06723625e-05
-3.14891376e-05
-3.15425192e-05
-3.15044094e-05
-3.09009575e-05
-3.0402536e-05
-3.04155171e-05
-3.1484639e-05
-3.15387158e-05
-3.07923966e-05
-3.07882413e-05
-3.14859698e-05
-3.09103011e-05
-3.03769339e-05
)
;

boundaryField
{
    closed
    {
        type            calculated;
        value           uniform -4.0496271e-05;
    }
    open
    {
        type            calculated;
        value           nonuniform List<scalar> 0();
    }
    sides
    {
        type            empty;
    }
    procBoundary0to1
    {
        type            processor;
        value           uniform -3.14941266e-05;
    }
}


// ************************************************************************* //
