/*--------------------------------*- C++ -*----------------------------------*\
| =========                 |                                                 |
| \\      /  F ield         | OpenFOAM: The Open Source CFD Toolbox           |
|  \\    /   O peration     | Version:  2306                                  |
|   \\  /    A nd           | Website:  www.openfoam.com                      |
|    \\/     M anipulation  |                                                 |
\*---------------------------------------------------------------------------*/
FoamFile
{
    version     2.0;
    format      ascii;
    arch        "LSB;label=32;scalar=64";
    class       volVectorField;
    location    "0.00172";
    object      U;
}
// * * * * * * * * * * * * * * * * * * * * * * * * * * * * * * * * * * * * * //

dimensions      [0 1 -1 0 0 0 0];

internalField   nonuniform List<vector> 
530
(
(0.362655421 0 0)
(0.626165086 0 0)
(0.600206769 0 0)
(0.495450909 0 0)
(0.414588878 0 0)
(0.443987931 0 0)
(0.518435727 0 0)
(0.602731046 0 0)
(0.638204405 0 0)
(0.621312857 0 0)
(0.524594343 0 0)
(0.394801495 0 0)
(0.241754778 0 0)
(0.120318164 0 0)
(0.0236805311 0 0)
(-0.0391001033 0 0)
(-0.0950915349 0 0)
(-0.140348381 0 0)
(-0.180749062 0 0)
(-0.204598786 0 0)
(-0.216496112 0 0)
(-0.214119478 0 0)
(-0.204178969 0 0)
(-0.186733351 0 0)
(-0.165800052 0 0)
(-0.142300297 0 0)
(-0.118859817 0 0)
(-0.094691746 0 0)
(-0.0708170634 0 0)
(-0.0466088456 0 0)
(-0.0231214911 0 0)
(-0.000328845053 0 0)
(0.0204768299 0 0)
(0.0398461039 0 0)
(0.0571151063 0 0)
(0.0734975986 0 0)
(0.0882037382 0 0)
(0.101868085 0 0)
(0.114926426 0 0)
(0.126960555 0 0)
(0.139140509 0 0)
(0.150674456 0 0)
(0.16243255 0 0)
(0.173711367 0 0)
(0.184513079 0 0)
(0.194918128 0 0)
(0.204848681 0 0)
(0.214374292 0 0)
(0.223705396 0 0)
(0.232707421 0 0)
(0.241479123 0 0)
(0.249893742 0 0)
(0.25780644 0 0)
(0.265128029 0 0)
(0.271913104 0 0)
(0.278166758 0 0)
(0.283942512 0 0)
(0.289342724 0 0)
(0.294445964 0 0)
(0.299329578 0 0)
(0.303999851 0 0)
(0.308493372 0 0)
(0.312781413 0 0)
(0.31684353 0 0)
(0.320672795 0 0)
(0.324232405 0 0)
(0.327511938 0 0)
(0.33052456 0 0)
(0.333272551 0 0)
(0.335774448 0 0)
(0.338052587 0 0)
(0.340140626 0 0)
(0.342068972 0 0)
(0.343876221 0 0)
(0.345573109 0 0)
(0.347067339 0 0)
(0.348384253 0 0)
(0.350221274 0 0)
(0.351891826 0 0)
(0.352202923 0 0)
(0.353408896 0 0)
(0.351993262 0 0)
(0.358509981 0 0)
(0.358661938 0 0)
(0.356207046 0 0)
(0.354993998 0 0)
(0.355724104 0 0)
(0.356221932 0 0)
(0.358070093 0 0)
(0.359029387 0 0)
(0.363734943 0 0)
(0.374631402 0 0)
(0.37922757 0 0)
(0.375155126 0 0)
(0.366216728 0 0)
(0.36330807 0 0)
(0.364135725 0 0)
(0.3718801 0 0)
(0.377853354 0 0)
(0.371066612 0 0)
(0.359491804 0 0)
(0.356129104 0 0)
(0.353523076 0 0)
(0.349821187 0 0)
(0.358986143 0 0)
(0.369814987 0 0)
(0.369850005 0 0)
(0.368567911 0 0)
(0.365454047 0 0)
(0.356617628 0 0)
(0.348996968 0 0)
(0.355463676 0 0)
(0.369048692 0 0)
(0.369500394 0 0)
(0.35968888 0 0)
(0.349746846 0 0)
(0.345562622 0 0)
(0.353596966 0 0)
(0.362014004 0 0)
(0.360744586 0 0)
(0.355479134 0 0)
(0.349397554 0 0)
(0.347608927 0 0)
(0.348081911 0 0)
(0.34640752 0 0)
(0.341345138 0 0)
(0.345837923 0 0)
(0.358067515 0 0)
(0.360978476 0 0)
(0.357594667 0 0)
(0.346850164 0 0)
(0.344374713 0 0)
(0.356282846 0 0)
(0.364284993 0 0)
(0.364605901 0 0)
(0.359914212 0 0)
(0.350327804 0 0)
(0.341975778 0 0)
(0.339648897 0 0)
(0.349700297 0 0)
(0.355575714 0 0)
(0.348476814 0 0)
(0.348566272 0 0)
(0.358095559 0 0)
(0.36055421 0 0)
(0.353278136 0 0)
(0.347304324 0 0)
(0.342663904 0 0)
(0.344006844 0 0)
(0.352405816 0 0)
(0.356490852 0 0)
(0.356792627 0 0)
(0.352493515 0 0)
(0.34380904 0 0)
(0.336764144 0 0)
(0.334161922 0 0)
(0.343254233 0 0)
(0.349727722 0 0)
(0.342249865 0 0)
(0.336331952 0 0)
(0.337507089 0 0)
(0.341357363 0 0)
(0.338042642 0 0)
(0.335660201 0 0)
(0.343770513 0 0)
(0.345576892 0 0)
(0.338009414 0 0)
(0.337858642 0 0)
(0.346853975 0 0)
(0.3476907 0 0)
(0.339486638 0 0)
(0.339614621 0 0)
(0.3498507 0 0)
(0.355905742 0 0)
(0.346986282 0 0)
(0.339161818 0 0)
(0.343730306 0 0)
(0.353107975 0 0)
(0.358594474 0 0)
(0.355028071 0 0)
(0.348129218 0 0)
(0.344390547 0 0)
(0.342353718 0 0)
(0.342699041 0 0)
(0.34727623 0 0)
(0.344981084 0 0)
(0.341474501 0 0)
(0.349840767 0 0)
(0.353055677 0 0)
(0.343671842 0 0)
(0.333971673 0 0)
(0.332172676 0 0)
(0.341263915 0 0)
(0.348288769 0 0)
(0.339495705 0 0)
(0.333477142 0 0)
(0.341653136 0 0)
(0.349454141 0 0)
(0.347611982 0 0)
(0.344854801 0 0)
(0.353023592 0 0)
(0.359874184 0 0)
(0.351955835 0 0)
(0.343039814 0 0)
(0.344678633 0 0)
(0.353582055 0 0)
(0.360145243 0 0)
(0.359847177 0 0)
(0.354861689 0 0)
(0.346797668 0 0)
(0.342072122 0 0)
(0.340529142 0 0)
(0.337459256 0 0)
(0.34271001 0 0)
(0.354486524 0 0)
(0.354287484 0 0)
(0.345657681 0 0)
(0.34406364 0 0)
(0.353491862 0 0)
(0.356092583 0 0)
(0.346120994 0 0)
(0.335348701 0 0)
(0.3403678 0 0)
(0.35273104 0 0)
(0.355779239 0 0)
(0.355601883 0 0)
(0.350731635 0 0)
(0.341685368 0 0)
(0.334227801 0 0)
(0.333870431 0 0)
(0.342160105 0 0)
(0.348020638 0 0)
(0.342366332 0 0)
(0.336812467 0 0)
(0.341465186 0 0)
(0.346904221 0 0)
(0.342721255 0 0)
(0.338874444 0 0)
(0.347067766 0 0)
(0.350465005 0 0)
(0.341250762 0 0)
(0.331729677 0 0)
(0.331223645 0 0)
(0.340789578 0 0)
(0.347475456 0 0)
(0.34016036 0 0)
(0.333415923 0 0)
(0.337400923 0 0)
(0.343684858 0 0)
(0.343708463 0 0)
(0.342274356 0 0)
(0.349775649 0 0)
(0.352545978 0 0)
(0.343422464 0 0)
(0.333373871 0 0)
(0.332110708 0 0)
(0.341134103 0 0)
(0.347537968 0 0)
(0.346692867 0 0)
(0.338014394 0 0)
(0.33609661 0 0)
(0.348191804 0 0)
(0.35036429 0 0)
(0.341192844 0 0)
(0.340695194 0 0)
(0.351441387 0 0)
(0.358210548 0 0)
(0.355317838 0 0)
(0.346227149 0 0)
(0.34585461 0 0)
(0.353370611 0 0)
(0.351108045 0 0)
(0.346142902 0 0)
(0.352993025 0 0)
(0.361127424 0 0)
(0.362817738 0 0)
(0.359982901 0 0)
(0.357287777 0 0)
(0.354404685 0 0)
(0.350906999 0 0)
(0.360791963 0 0)
(0.367894354 0 0)
(0.358288013 0 0)
(0.347921753 0 0)
(0.347680326 0 0)
(0.358425488 0 0)
(0.366122369 0 0)
(0.36264673 0 0)
(0.351046445 0 0)
(0.340297511 0 0)
(0.337751635 0 0)
(0.349377187 0 0)
(0.360800611 0 0)
(0.36010602 0 0)
(0.355676684 0 0)
(0.349960203 0 0)
(0.34459458 0 0)
(0.348884028 0 0)
(0.36049907 0 0)
(0.360562804 0 0)
(0.351778109 0 0)
(0.350821092 0 0)
(0.360480198 0 0)
(0.362370149 0 0)
(0.35414782 0 0)
(0.353013835 0 0)
(0.362172076 0 0)
(0.364191889 0 0)
(0.354603916 0 0)
(0.34520169 0 0)
(0.350783551 0 0)
(0.362675152 0 0)
(0.361404539 0 0)
(0.353775755 0 0)
(0.352793573 0 0)
(0.361561897 0 0)
(0.36354669 0 0)
(0.354797891 0 0)
(0.346471938 0 0)
(0.351231202 0 0)
(0.362217568 0 0)
(0.361795717 0 0)
(0.35308571 0 0)
(0.344750015 0 0)
(0.344687864 0 0)
(0.356314027 0 0)
(0.365630937 0 0)
(0.362665834 0 0)
(0.354021021 0 0)
(0.348558269 0 0)
(0.346279038 0 0)
(0.34494955 0 0)
(0.356956953 0 0)
(0.369515425 0 0)
(0.362839515 0 0)
(0.350635189 0 0)
(0.349635446 0 0)
(0.359056701 0 0)
(0.361407905 0 0)
(0.35430681 0 0)
(0.353436761 0 0)
(0.361596271 0 0)
(0.362965096 0 0)
(0.355306607 0 0)
(0.35417886 0 0)
(0.36239201 0 0)
(0.363791632 0 0)
(0.355185766 0 0)
(0.347420647 0 0)
(0.352823852 0 0)
(0.363800671 0 0)
(0.362810664 0 0)
(0.354992425 0 0)
(0.35363455 0 0)
(0.361869679 0 0)
(0.364026947 0 0)
(0.357417559 0 0)
(0.351976158 0 0)
(0.348592376 0 0)
(0.344949151 0 0)
(0.352121454 0 0)
(0.357147992 0 0)
(0.348048927 0 0)
(0.346388861 0 0)
(0.355174069 0 0)
(0.361371314 0 0)
(0.361188962 0 0)
(0.356921777 0 0)
(0.350746 0 0)
(0.347032351 0 0)
(0.343893923 0 0)
(0.339402357 0 0)
(0.345632814 0 0)
(0.358617502 0 0)
(0.356687761 0 0)
(0.344762297 0 0)
(0.342226984 0 0)
(0.352838038 0 0)
(0.360401483 0 0)
(0.360561839 0 0)
(0.359722957 0 0)
(0.358850084 0 0)
(0.355307483 0 0)
(0.350603311 0 0)
(0.349042093 0 0)
(0.348950874 0 0)
(0.348145265 0 0)
(0.346397742 0 0)
(0.341349349 0 0)
(0.337990944 0 0)
(0.347182219 0 0)
(0.356444841 0 0)
(0.353837081 0 0)
(0.346369991 0 0)
(0.344943172 0 0)
(0.353001974 0 0)
(0.354882518 0 0)
(0.347818367 0 0)
(0.346787853 0 0)
(0.354462449 0 0)
(0.356539963 0 0)
(0.350267658 0 0)
(0.344966902 0 0)
(0.341784915 0 0)
(0.338279996 0 0)
(0.345547852 0 0)
(0.351444253 0 0)
(0.343173078 0 0)
(0.342017296 0 0)
(0.350934926 0 0)
(0.35264549 0 0)
(0.343926887 0 0)
(0.342222818 0 0)
(0.351915473 0 0)
(0.355157902 0 0)
(0.344150869 0 0)
(0.331258995 0 0)
(0.329357737 0 0)
(0.341904996 0 0)
(0.352740443 0 0)
(0.353088148 0 0)
(0.352000036 0 0)
(0.351351557 0 0)
(0.350435562 0 0)
(0.348516252 0 0)
(0.34298732 0 0)
(0.337291969 0 0)
(0.33465413 0 0)
(0.332067952 0 0)
(0.340968728 0 0)
(0.348381716 0 0)
(0.339734323 0 0)
(0.337731133 0 0)
(0.346275124 0 0)
(0.349278815 0 0)
(0.342639102 0 0)
(0.33648696 0 0)
(0.333134317 0 0)
(0.336501063 0 0)
(0.345653215 0 0)
(0.346825005 0 0)
(0.337713432 0 0)
(0.328338838 0 0)
(0.326601535 0 0)
(0.3359417 0 0)
(0.344333801 0 0)
(0.341340694 0 0)
(0.334401794 0 0)
(0.333650055 0 0)
(0.341387769 0 0)
(0.343343023 0 0)
(0.335573637 0 0)
(0.328147968 0 0)
(0.33238776 0 0)
(0.342069702 0 0)
(0.341782392 0 0)
(0.333398868 0 0)
(0.325341697 0 0)
(0.330519845 0 0)
(0.341143324 0 0)
(0.340809851 0 0)
(0.332884865 0 0)
(0.325266852 0 0)
(0.323826609 0 0)
(0.33273552 0 0)
(0.338437606 0 0)
(0.331610271 0 0)
(0.324856205 0 0)
(0.32074374 0 0)
(0.318594199 0 0)
(0.327447014 0 0)
(0.337566566 0 0)
(0.329724835 0 0)
(0.32081111 0 0)
(0.322263562 0 0)
(0.330645136 0 0)
(0.337260347 0 0)
(0.33684535 0 0)
(0.333287379 0 0)
(0.330135755 0 0)
(0.328456901 0 0)
(0.325133878 0 0)
(0.320104465 0 0)
(0.321979432 0 0)
(0.331674692 0 0)
(0.334406203 0 0)
(0.332016817 0 0)
(0.334985856 0 0)
(0.335136429 0 0)
(0.327240981 0 0)
(0.319691031 0 0)
(0.316730418 0 0)
(0.324463585 0 0)
(0.330174031 0 0)
(0.321761112 0 0)
(0.313399016 0 0)
(0.318626614 0 0)
(0.328970219 0 0)
(0.3277004 0 0)
(0.320245211 0 0)
(0.318581816 0 0)
(0.325842132 0 0)
(0.327369248 0 0)
(0.319896558 0 0)
(0.318285069 0 0)
(0.325732542 0 0)
(0.327886278 0 0)
(0.320548864 0 0)
(0.314042419 0 0)
(0.31546985 0 0)
(0.319878308 0 0)
(0.317551399 0 0)
(0.315491241 0 0)
(0.32237212 0 0)
(0.32364853 0 0)
(0.315530708 0 0)
(0.314098544 0 0)
(0.32217567 0 0)
(0.327802415 0 0)
(0.324000429 0 0)
(0.314727628 0 0)
(0.30719878 0 0)
(0.307176612 0 0)
(0.316340294 0 0)
(0.320068763 0 0)
(0.313131983 0 0)
(0.312334564 0 0)
(0.315725014 0 0)
(0.312260653 0 0)
(0.309508429 0 0)
)
;

boundaryField
{
    closed
    {
        type            noSlip;
    }
    open
    {
        type            inletOutlet;
        inletValue      nonuniform List<vector> 0();
        value           nonuniform List<vector> 0();
    }
    sides
    {
        type            empty;
    }
    procBoundary0to1
    {
        type            processor;
        value           uniform (0.316168335 0 0);
    }
}


// ************************************************************************* //
