/*--------------------------------*- C++ -*----------------------------------*\
| =========                 |                                                 |
| \\      /  F ield         | OpenFOAM: The Open Source CFD Toolbox           |
|  \\    /   O peration     | Version:  2306                                  |
|   \\  /    A nd           | Website:  www.openfoam.com                      |
|    \\/     M anipulation  |                                                 |
\*---------------------------------------------------------------------------*/
FoamFile
{
    version     2.0;
    format      ascii;
    arch        "LSB;label=32;scalar=64";
    class       volScalarField;
    location    "0.00176";
    object      prefDPV_H2O;
}
// * * * * * * * * * * * * * * * * * * * * * * * * * * * * * * * * * * * * * //

dimensions      [1 -1 -1 0 0 0 0];

internalField   nonuniform List<scalar> 
531
(
-3.83892616e-07
-3.83986661e-07
-3.64804687e-07
-3.6504267e-07
-3.84272782e-07
-3.83624751e-07
-3.84273389e-07
-3.68693707e-07
-3.64216022e-07
-3.6440951e-07
-3.83916265e-07
-3.84129111e-07
-3.67240378e-07
-3.6357975e-07
-3.64822157e-07
-3.84573765e-07
-3.65355441e-07
-3.63522385e-07
-3.8451075e-07
-3.84089906e-07
-3.84382272e-07
-3.83715719e-07
-3.84155349e-07
-3.68298123e-07
-3.64724701e-07
-3.65243358e-07
-3.63502614e-07
-3.63451584e-07
-3.84582389e-07
-3.84284245e-07
-3.64509059e-07
-3.64578021e-07
-3.84586392e-07
-3.83772911e-07
-3.84419587e-07
-3.69920551e-07
-3.64684316e-07
-3.64547907e-07
-3.64377653e-07
-3.84687661e-07
-3.84196112e-07
-3.64509905e-07
-3.64219972e-07
-3.84699007e-07
-3.84198136e-07
-3.64340066e-07
-3.64111075e-07
-3.84764911e-07
-3.84215505e-07
-3.63790609e-07
-3.63764066e-07
-3.84719797e-07
-3.84184899e-07
-3.84317628e-07
-3.84055074e-07
-3.6568121e-07
-3.64971113e-07
-3.84236756e-07
-3.83883771e-07
-3.65336426e-07
-3.65544688e-07
-3.84228022e-07
-3.6640983e-07
-3.64517297e-07
-3.84339586e-07
-3.83706732e-07
-3.84235648e-07
-3.69919488e-07
-3.64583309e-07
-3.6463743e-07
-3.6399261e-07
-3.84416039e-07
-3.84490516e-07
-3.65408062e-07
-3.62863682e-07
-3.62866384e-07
-3.84660899e-07
-3.84426106e-07
-3.64657671e-07
-3.63753021e-07
-3.84752726e-07
-3.84285325e-07
-3.63917737e-07
-3.63971963e-07
-3.84884333e-07
-3.84053831e-07
-3.84677162e-07
-3.65442926e-07
-3.63732585e-07
-3.84402172e-07
-3.84239187e-07
-3.83940378e-07
-3.84032068e-07
-3.71951062e-07
-3.65533724e-07
-3.65041257e-07
-3.6479504e-07
-3.84148795e-07
-3.84257269e-07
-3.67160619e-07
-3.6371471e-07
-3.65178978e-07
-3.84667076e-07
-3.66428505e-07
-3.63836711e-07
-3.8429671e-07
-3.84170679e-07
-3.64993116e-07
-3.65152942e-07
-3.84660989e-07
-3.83654971e-07
-3.84449311e-07
-3.69399191e-07
-3.6446396e-07
-3.64297052e-07
-3.64266543e-07
-3.84741612e-07
-3.84136115e-07
-3.64450539e-07
-3.64611769e-07
-3.84619555e-07
-3.65643975e-07
-3.63511621e-07
-3.84722516e-07
-3.84084177e-07
-3.844352e-07
-3.65798775e-07
-3.64599519e-07
-3.84640341e-07
-3.8371606e-07
-3.84396727e-07
-3.68284782e-07
-3.64725734e-07
-3.83907984e-07
-3.84054349e-07
-3.67458596e-07
-3.65425964e-07
-3.64549258e-07
-3.64791917e-07
-3.84715599e-07
-3.65626328e-07
-3.6337975e-07
-3.84935218e-07
-3.84231514e-07
-3.84643937e-07
-3.65170684e-07
-3.64061577e-07
-3.84925609e-07
-3.65033286e-07
-3.62794462e-07
-3.85104459e-07
-3.84273542e-07
-3.847673e-07
-3.65523233e-07
-3.63768881e-07
-3.84845992e-07
-3.84061521e-07
-3.84456819e-07
-3.83686758e-07
-3.84032659e-07
-3.68995084e-07
-3.64895476e-07
-3.65434046e-07
-3.63590167e-07
-3.64082381e-07
-3.84909077e-07
-3.66012574e-07
-3.6305178e-07
-3.84437207e-07
-3.84571858e-07
-3.65865144e-07
-3.63999939e-07
-3.84377396e-07
-3.84502293e-07
-3.66397728e-07
-3.63327758e-07
-3.63369387e-07
-3.84899251e-07
-3.84527401e-07
-3.84380011e-07
-3.84530511e-07
-3.65821549e-07
-3.63434909e-07
-3.84547207e-07
-3.84595475e-07
-3.65906884e-07
-3.62937168e-07
-3.6297136e-07
-3.84813582e-07
-3.84444171e-07
-3.84133606e-07
-3.8428466e-07
-3.67993709e-07
-3.64760444e-07
-3.64326791e-07
-3.64255845e-07
-3.85049271e-07
-3.84181865e-07
-3.64736399e-07
-3.6434373e-07
-3.84976282e-07
-3.84135582e-07
-3.64913101e-07
-3.64604205e-07
-3.8497561e-07
-3.84110669e-07
-3.64568275e-07
-3.64522631e-07
-3.85044831e-07
-3.83934193e-07
-3.84490805e-07
-3.83683741e-07
-3.83932742e-07
-3.67164524e-07
-3.65340388e-07
-3.64897406e-07
-3.64354835e-07
-3.62463776e-07
-3.62560912e-07
-3.85267874e-07
-3.84350657e-07
-3.84761621e-07
-3.65382291e-07
-3.64098126e-07
-3.85125729e-07
-3.83879805e-07
-3.84630022e-07
-3.66633575e-07
-3.63916752e-07
-3.84303067e-07
-3.84412901e-07
-3.66472952e-07
-3.63933922e-07
-3.63798365e-07
-3.84517233e-07
-3.8416974e-07
-3.66205432e-07
-3.64453052e-07
-3.84368299e-07
-3.84182946e-07
-3.67061521e-07
-3.64395894e-07
-3.64330208e-07
-3.84357625e-07
-3.84210699e-07
-3.67195406e-07
-3.64168527e-07
-3.64138508e-07
-3.84480145e-07
-3.83919946e-07
-3.65742218e-07
-3.65701887e-07
-3.84731958e-07
-3.69153118e-07
-3.63810145e-07
-3.84415757e-07
-3.84175465e-07
-3.66013011e-07
-3.64739348e-07
-3.84530658e-07
-3.84002324e-07
-3.66132054e-07
-3.65170385e-07
-3.84402432e-07
-3.83985325e-07
-3.66632486e-07
-3.65244531e-07
-3.64130762e-07
-3.6422348e-07
-3.85033523e-07
-3.83810033e-07
-3.84604194e-07
-3.67827593e-07
-3.64166096e-07
-3.84542066e-07
-3.84138102e-07
-3.65793383e-07
-3.64696009e-07
-3.84803067e-07
-3.84018006e-07
-3.65294047e-07
-3.64742012e-07
-3.84946424e-07
-3.83963234e-07
-3.64929613e-07
-3.64883542e-07
-3.85078815e-07
-3.83659547e-07
-3.84326627e-07
-3.67209302e-07
-3.64445993e-07
-3.63745654e-07
-3.63854821e-07
-3.85187548e-07
-3.83959293e-07
-3.84446402e-07
-3.66474558e-07
-3.62950679e-07
-3.63605719e-07
-3.84949657e-07
-3.84078421e-07
-3.84182855e-07
-3.66092413e-07
-3.65395126e-07
-3.8493939e-07
-3.7637221e-07
-3.64271777e-07
-3.84944965e-07
-3.84131347e-07
-3.66176674e-07
-3.64988633e-07
-3.84705153e-07
-3.84105078e-07
-3.66577449e-07
-3.65066842e-07
-3.63772563e-07
-3.63831878e-07
-3.85414125e-07
-3.84139021e-07
-3.84714688e-07
-3.65725333e-07
-3.64539629e-07
-3.8544023e-07
-3.65960558e-07
-3.62264348e-07
-3.85366453e-07
-3.84610368e-07
-3.84359106e-07
-3.84349795e-07
-3.66779543e-07
-3.64178454e-07
-3.64082133e-07
-3.84746416e-07
-3.84333242e-07
-3.66906984e-07
-3.64036708e-07
-3.6395957e-07
-3.84818892e-07
-3.84450687e-07
-3.66921931e-07
-3.63311237e-07
-3.63847738e-07
-3.85047612e-07
-3.8396794e-07
-3.8425458e-07
-3.66459037e-07
-3.64431312e-07
-3.84705761e-07
-3.84371214e-07
-3.67169373e-07
-3.6371834e-07
-3.63923176e-07
-3.8490301e-07
-3.83943275e-07
-3.84038828e-07
-3.66282256e-07
-3.64819129e-07
-3.84688407e-07
-3.84201391e-07
-3.67484869e-07
-3.64412545e-07
-3.64294387e-07
-3.84745391e-07
-3.84188137e-07
-3.67507121e-07
-3.64287254e-07
-3.64234898e-07
-3.8470864e-07
-3.84283887e-07
-3.67350549e-07
-3.64119059e-07
-3.64007576e-07
-3.84893263e-07
-3.84122377e-07
-3.66393966e-07
-3.64755582e-07
-3.84874021e-07
-3.84095157e-07
-3.66583579e-07
-3.64750095e-07
-3.63492943e-07
-3.6345499e-07
-3.85632892e-07
-3.84124272e-07
-3.84694856e-07
-3.83767873e-07
-3.83882342e-07
-3.66955827e-07
-3.64360984e-07
-3.64225144e-07
-3.85037116e-07
-3.84068028e-07
-3.66172807e-07
-3.64651914e-07
-3.85046685e-07
-3.84079854e-07
-3.6625769e-07
-3.64666729e-07
-3.84870634e-07
-3.84258279e-07
-3.67325177e-07
-3.64184848e-07
-3.64029583e-07
-3.84982464e-07
-3.84146625e-07
-3.66552337e-07
-3.64530639e-07
-3.84960463e-07
-3.84257955e-07
-3.67325329e-07
-3.64006077e-07
-3.63945006e-07
-3.85053583e-07
-3.84731159e-07
-3.67002907e-07
-3.85285533e-07
-3.83759171e-07
-3.66953969e-07
-3.64747488e-07
-3.64690237e-07
-3.8493985e-07
-3.84229367e-07
-3.67287531e-07
-3.64060038e-07
-3.63936292e-07
-3.85054168e-07
-3.84445749e-07
-3.66906074e-07
-3.62894911e-07
-3.63207453e-07
-3.85314658e-07
-3.84083759e-07
-3.84399301e-07
-3.66009079e-07
-3.64919861e-07
-3.85491239e-07
-3.83674134e-07
-3.84301864e-07
-3.6913078e-07
-3.63445738e-07
-3.64002618e-07
-3.85155819e-07
-3.8376884e-07
-3.84232786e-07
-3.68540138e-07
-3.65060717e-07
-3.84798607e-07
-3.83891765e-07
-3.69052982e-07
-3.65625454e-07
-3.64856545e-07
-3.64786577e-07
-3.8524783e-07
-3.83987586e-07
-3.66257098e-07
-3.65116666e-07
-3.85098047e-07
-3.83980787e-07
-3.67270699e-07
-3.65281604e-07
-3.64230888e-07
-3.64148207e-07
-3.85600087e-07
-3.8420883e-07
-3.65220622e-07
-3.64343145e-07
-3.85818478e-07
-3.84148839e-07
-3.6479019e-07
-3.64568215e-07
-3.86065838e-07
-3.8390015e-07
-3.84525893e-07
-3.66515765e-07
-3.6397112e-07
-3.85440346e-07
-3.84456089e-07
-3.66187964e-07
-3.63818023e-07
-3.8545298e-07
-3.8474617e-07
-3.66628818e-07
-3.62189273e-07
-3.62089596e-07
-3.86004824e-07
-3.84509888e-07
-3.8495591e-07
-3.84162031e-07
-3.84143516e-07
-3.66052758e-07
-3.65548859e-07
-3.85746112e-07
-3.67002233e-07
-3.63851248e-07
-3.85783557e-07
-3.83937379e-07
-3.84228812e-07
-3.68866997e-07
-3.64641768e-07
-3.65042837e-07
-3.63197485e-07
-3.63097769e-07
-3.8614387e-07
-3.84382198e-07
-3.64880069e-07
-3.64484755e-07
-3.86329282e-07
-3.83948639e-07
-3.84579616e-07
-3.66796751e-07
-3.64482359e-07
-3.85679228e-07
-3.84125012e-07
-3.65912839e-07
-3.65536049e-07
-3.85884262e-07
-3.8369956e-07
-3.84230716e-07
-3.71961288e-07
-3.65162169e-07
-3.64585896e-07
-3.64172018e-07
-3.85809317e-07
-3.84515779e-07
-3.66889348e-07
-3.62975084e-07
-3.6298972e-07
-3.85504506e-07
-3.83951527e-07
-3.84121146e-07
-3.67632015e-07
)
;

boundaryField
{
    closed
    {
        type            calculated;
        value           nonuniform List<scalar> 0();
    }
    open
    {
        type            calculated;
        value           nonuniform List<scalar> 0();
    }
    sides
    {
        type            empty;
    }
    procBoundary1to0
    {
        type            processor;
        value           uniform -3.63863298e-07;
    }
    procBoundary1to2
    {
        type            processor;
        value           uniform -3.63850774e-07;
    }
}


// ************************************************************************* //
