/*--------------------------------*- C++ -*----------------------------------*\
| =========                 |                                                 |
| \\      /  F ield         | OpenFOAM: The Open Source CFD Toolbox           |
|  \\    /   O peration     | Version:  2306                                  |
|   \\  /    A nd           | Website:  www.openfoam.com                      |
|    \\/     M anipulation  |                                                 |
\*---------------------------------------------------------------------------*/
FoamFile
{
    version     2.0;
    format      ascii;
    arch        "LSB;label=32;scalar=64";
    class       volScalarField;
    location    "0.00056";
    object      prefDZ_H2O;
}
// * * * * * * * * * * * * * * * * * * * * * * * * * * * * * * * * * * * * * //

dimensions      [1 -1 -1 0 0 0 0];

internalField   nonuniform List<scalar> 
530
(
2.19972282e-06
2.20246585e-06
2.2051395e-06
2.20769545e-06
2.21030639e-06
2.21268959e-06
2.21518863e-06
2.21732504e-06
2.21971499e-06
2.22169839e-06
2.22402151e-06
2.22586116e-06
2.2281193e-06
2.2298227e-06
2.23201948e-06
2.23359171e-06
2.23573339e-06
2.23717615e-06
2.23927288e-06
2.24058357e-06
2.24264936e-06
2.24380604e-06
2.24567654e-06
2.24675296e-06
2.24850751e-06
2.24955062e-06
2.25120415e-06
2.25221242e-06
2.25378378e-06
2.25475287e-06
2.25624166e-06
2.25716807e-06
2.25857927e-06
2.25946346e-06
2.26080104e-06
2.26164415e-06
2.26291158e-06
2.2637151e-06
2.26491565e-06
2.26568123e-06
2.26681803e-06
2.26754759e-06
2.26860051e-06
2.26926022e-06
2.27023517e-06
2.27085819e-06
2.2717749e-06
2.27236245e-06
2.27322313e-06
2.27377631e-06
2.27458313e-06
2.27510301e-06
2.27585809e-06
2.27634579e-06
2.27705117e-06
2.27750781e-06
2.2781655e-06
2.27859221e-06
2.27920417e-06
2.27960206e-06
2.28017027e-06
2.28054046e-06
2.28106685e-06
2.28141045e-06
2.28189698e-06
2.28221507e-06
2.28266373e-06
2.28295738e-06
2.28337016e-06
2.28364044e-06
2.28401933e-06
2.28426735e-06
2.28460033e-06
2.28479019e-06
2.28507503e-06
2.28524342e-06
2.28549842e-06
2.28564591e-06
2.2858723e-06
2.28599953e-06
2.2861984e-06
2.28630617e-06
2.28647841e-06
2.28656772e-06
2.28671155e-06
2.28677798e-06
2.2868966e-06
2.28694748e-06
2.28704218e-06
2.28707826e-06
2.28714954e-06
2.28718901e-06
2.28723819e-06
2.28725295e-06
2.2872753e-06
2.28728352e-06
2.28728128e-06
2.28728203e-06
2.28725724e-06
2.28725002e-06
2.28720484e-06
2.28718921e-06
2.28712585e-06
2.28710139e-06
2.28702201e-06
2.2869884e-06
2.28689504e-06
2.28685209e-06
2.28674659e-06
2.28669429e-06
2.28657833e-06
2.28651683e-06
2.28639189e-06
2.28632153e-06
2.28618895e-06
2.28610642e-06
2.28596019e-06
2.28586408e-06
2.28570835e-06
2.28559265e-06
2.28541769e-06
2.28528613e-06
2.28510273e-06
2.28496054e-06
2.28476942e-06
2.28461725e-06
2.28441908e-06
2.28425761e-06
2.28405302e-06
2.2838829e-06
2.28367249e-06
2.28349439e-06
2.28327871e-06
2.2830933e-06
2.28286708e-06
2.28266814e-06
2.28243931e-06
2.28223824e-06
2.28200969e-06
2.28180681e-06
2.28157869e-06
2.28137428e-06
2.28114675e-06
2.28094109e-06
2.28071429e-06
2.28050766e-06
2.28028174e-06
2.28007441e-06
2.27984952e-06
2.27964173e-06
2.27941803e-06
2.27921004e-06
2.27898767e-06
2.27877973e-06
2.27855884e-06
2.27835119e-06
2.27813192e-06
2.2779248e-06
2.27770728e-06
2.27750095e-06
2.27728531e-06
2.27707999e-06
2.27686638e-06
2.2766623e-06
2.27645085e-06
2.27624824e-06
2.27603908e-06
2.27583817e-06
2.27563144e-06
2.27543244e-06
2.27522828e-06
2.27503142e-06
2.27482996e-06
2.27463545e-06
2.27443684e-06
2.27424488e-06
2.27404926e-06
2.27386006e-06
2.27366759e-06
2.27348135e-06
2.27329218e-06
2.27310909e-06
2.27292339e-06
2.27274364e-06
2.27256158e-06
2.27238534e-06
2.27220711e-06
2.27203457e-06
2.27186034e-06
2.27169169e-06
2.27152164e-06
2.27135706e-06
2.27119138e-06
2.27103107e-06
2.27086992e-06
2.27071414e-06
2.27055766e-06
2.27040672e-06
2.27026117e-06
2.2701218e-06
2.26998559e-06
2.26986615e-06
2.26974462e-06
2.26962999e-06
2.26951293e-06
2.26940308e-06
2.26929055e-06
2.26918542e-06
2.2690775e-06
2.268977e-06
2.2688628e-06
2.2687504e-06
2.26863575e-06
2.2685291e-06
2.26841994e-06
2.26831885e-06
2.26821516e-06
2.26811949e-06
2.2680212e-06
2.26793083e-06
2.26783786e-06
2.26775267e-06
2.26766491e-06
2.26758479e-06
2.26750215e-06
2.26742699e-06
2.26734935e-06
2.26727903e-06
2.26720628e-06
2.26714068e-06
2.2670727e-06
2.26701171e-06
2.26694839e-06
2.26689187e-06
2.26683309e-06
2.26678091e-06
2.26672656e-06
2.2666786e-06
2.26662855e-06
2.26658468e-06
2.26653882e-06
2.2664989e-06
2.2664571e-06
2.266421e-06
2.26638314e-06
2.26635073e-06
2.26631668e-06
2.26628783e-06
2.26625748e-06
2.26623205e-06
2.26620526e-06
2.26618312e-06
2.26615977e-06
2.26614078e-06
2.26612074e-06
2.26610479e-06
2.26608794e-06
2.26607487e-06
2.26606108e-06
2.26605079e-06
2.26603993e-06
2.26603227e-06
2.26602422e-06
2.26601907e-06
2.2660137e-06
2.26601094e-06
2.26600812e-06
2.26600763e-06
2.26600724e-06
2.2660089e-06
2.26601081e-06
2.26601449e-06
2.26601859e-06
2.26602417e-06
2.26603034e-06
2.26603772e-06
2.26604582e-06
2.26605488e-06
2.26606481e-06
2.26607544e-06
2.26608709e-06
2.26609918e-06
2.26611242e-06
2.26612586e-06
2.2661406e-06
2.26615529e-06
2.26617141e-06
2.26618726e-06
2.26620465e-06
2.26622155e-06
2.26624012e-06
2.26625798e-06
2.26627762e-06
2.26629634e-06
2.26631697e-06
2.26633647e-06
2.26635798e-06
2.26637816e-06
2.26640048e-06
2.26642126e-06
2.26644429e-06
2.2664656e-06
2.26648925e-06
2.26651101e-06
2.2665352e-06
2.26655735e-06
2.266582e-06
2.26660445e-06
2.26662949e-06
2.26665219e-06
2.26667754e-06
2.26670042e-06
2.26672602e-06
2.26674903e-06
2.2667748e-06
2.26679788e-06
2.26682376e-06
2.26684686e-06
2.26687278e-06
2.26689587e-06
2.26692177e-06
2.2669448e-06
2.26697063e-06
2.26699355e-06
2.26701925e-06
2.26704203e-06
2.26706755e-06
2.26709017e-06
2.26711545e-06
2.26713788e-06
2.26716288e-06
2.26718508e-06
2.26720975e-06
2.26723172e-06
2.26725602e-06
2.26727772e-06
2.26730162e-06
2.26732304e-06
2.26734649e-06
2.26736762e-06
2.2673906e-06
2.26741142e-06
2.26743389e-06
2.26745438e-06
2.26747632e-06
2.26749649e-06
2.26751787e-06
2.2675377e-06
2.2675585e-06
2.26757798e-06
2.26759819e-06
2.26761732e-06
2.26763692e-06
2.26765569e-06
2.26767466e-06
2.26769307e-06
2.26771141e-06
2.26772945e-06
2.26774715e-06
2.26776483e-06
2.26778188e-06
2.2677992e-06
2.26781559e-06
2.26783255e-06
2.26784828e-06
2.26786488e-06
2.26787995e-06
2.26789619e-06
2.26791061e-06
2.26792649e-06
2.26794026e-06
2.26795579e-06
2.26796891e-06
2.26798408e-06
2.26799657e-06
2.26801139e-06
2.26802325e-06
2.26803771e-06
2.26804898e-06
2.26806308e-06
2.26807375e-06
2.26808751e-06
2.2680976e-06
2.26811101e-06
2.26812054e-06
2.26813361e-06
2.26814259e-06
2.2681553e-06
2.26816374e-06
2.26817575e-06
2.26818389e-06
2.2681955e-06
2.26820354e-06
2.26821443e-06
2.26822238e-06
2.26823258e-06
2.26824041e-06
2.26824997e-06
2.26825765e-06
2.26826662e-06
2.26827411e-06
2.26828255e-06
2.26828983e-06
2.26829778e-06
2.26830482e-06
2.26831233e-06
2.26831912e-06
2.26832621e-06
2.26833274e-06
2.26833945e-06
2.26834572e-06
2.26835207e-06
2.26835807e-06
2.26836409e-06
2.26836983e-06
2.26837553e-06
2.268381e-06
2.26838641e-06
2.26839162e-06
2.26839675e-06
2.26840171e-06
2.26840657e-06
2.26841129e-06
2.26841589e-06
2.26842037e-06
2.26842474e-06
2.26842899e-06
2.26843313e-06
2.26843716e-06
2.26844107e-06
2.26844489e-06
2.2684486e-06
2.26845222e-06
2.26845573e-06
2.26845915e-06
2.26846247e-06
2.26846571e-06
2.26846885e-06
2.26847191e-06
2.26847487e-06
2.26847777e-06
2.26848057e-06
2.2684833e-06
2.26848595e-06
2.26848853e-06
2.26849102e-06
2.26849346e-06
2.26849582e-06
2.26849811e-06
2.26850034e-06
2.2685025e-06
2.2685046e-06
2.26850664e-06
2.26850869e-06
2.26851083e-06
2.26851303e-06
2.26851531e-06
2.26851765e-06
2.26852007e-06
2.26852253e-06
2.26852504e-06
2.2685276e-06
2.26853018e-06
2.2685328e-06
2.2685354e-06
2.26853805e-06
2.26854061e-06
2.26854322e-06
2.26854573e-06
2.26854813e-06
2.26854941e-06
2.26854824e-06
2.26854721e-06
2.26854637e-06
2.26854569e-06
2.26854515e-06
2.26854473e-06
2.26854442e-06
2.2685442e-06
2.26854404e-06
2.26854394e-06
2.26854387e-06
2.26854383e-06
2.2685438e-06
2.26854379e-06
2.26854378e-06
2.26854378e-06
2.26854378e-06
2.26854378e-06
2.26854378e-06
2.26854378e-06
2.26854378e-06
2.26854378e-06
2.26854378e-06
2.26854378e-06
2.26854378e-06
2.26854378e-06
2.26854378e-06
2.26854378e-06
2.26854378e-06
2.26854378e-06
2.26854378e-06
2.26854378e-06
2.26854378e-06
2.26854378e-06
2.26854378e-06
2.26854378e-06
2.26854378e-06
2.26854378e-06
2.26854378e-06
2.26854378e-06
2.26854378e-06
2.26854378e-06
2.26854378e-06
2.26854378e-06
2.26854378e-06
2.26854378e-06
2.26854378e-06
2.26854378e-06
2.26854378e-06
2.26854378e-06
2.26854378e-06
2.26854378e-06
2.26854378e-06
2.26854378e-06
2.26854378e-06
2.26854378e-06
2.26854378e-06
2.26854378e-06
2.26854378e-06
)
;

boundaryField
{
    closed
    {
        type            calculated;
        value           nonuniform List<scalar> 0();
    }
    open
    {
        type            calculated;
        value           uniform 2.26854378e-06;
    }
    sides
    {
        type            empty;
    }
    procBoundary5to4
    {
        type            processor;
        value           uniform 2.19698674e-06;
    }
}


// ************************************************************************* //
