/*--------------------------------*- C++ -*----------------------------------*\
| =========                 |                                                 |
| \\      /  F ield         | OpenFOAM: The Open Source CFD Toolbox           |
|  \\    /   O peration     | Version:  2306                                  |
|   \\  /    A nd           | Website:  www.openfoam.com                      |
|    \\/     M anipulation  |                                                 |
\*---------------------------------------------------------------------------*/
FoamFile
{
    version     2.0;
    format      ascii;
    arch        "LSB;label=32;scalar=64";
    class       volScalarField;
    location    "0.00056";
    object      PV;
}
// * * * * * * * * * * * * * * * * * * * * * * * * * * * * * * * * * * * * * //

dimensions      [0 0 0 0 0 0 0];

internalField   nonuniform List<scalar> 
530
(
0.00783893418
0.00784188256
0.00784397892
0.00784657156
0.00784841359
0.0078506623
0.00785222808
0.00785408782
0.00785539373
0.00785692968
0.00785801289
0.00785923239
0.00786010256
0.0078610125
0.00786167954
0.00786228693
0.00786275952
0.00786307334
0.00786335576
0.00786339042
0.00786347943
0.00786325187
0.00786318417
0.00786255314
0.00786241291
0.00786143175
0.00786120093
0.00785988521
0.00785953874
0.00785791161
0.00785745708
0.00785554101
0.00785497464
0.00785278676
0.00785210538
0.00784966235
0.00784886325
0.00784618125
0.00784526233
0.00784235694
0.00784131683
0.00783820307
0.00783702694
0.0078336966
0.0078323861
0.00782887093
0.00782743671
0.00782374804
0.00782219089
0.00781833918
0.00781666073
0.00781265571
0.00781085833
0.00780670908
0.00780479581
0.00780051079
0.00779848531
0.00779407244
0.007791939
0.00778740561
0.00778516901
0.00778052196
0.00777818751
0.00777343317
0.00777100663
0.00776615095
0.00776363846
0.00775868706
0.00775609506
0.00775105332
0.00774838841
0.00774326164
0.00774052375
0.00773529914
0.00773249092
0.00772718957
0.00772432437
0.00771895117
0.00771603376
0.00771059421
0.0077076286
0.00770212905
0.0076991184
0.00769356605
0.00769049892
0.00768486924
0.00768175697
0.00767608638
0.00767293518
0.00766722542
0.00766403903
0.00765855259
0.00765528271
0.00764966178
0.00764622304
0.00764072308
0.0076371337
0.00763174311
0.00762801799
0.00762272876
0.00761888282
0.00761368802
0.00760973683
0.00760462954
0.00760058885
0.00759556226
0.00759144751
0.00758649523
0.0075823211
0.00757743748
0.00757321761
0.00756839791
0.00756414479
0.00755938525
0.00755511017
0.00755040608
0.00754611812
0.007541473
0.00753718661
0.00753259367
0.00752830769
0.00752376761
0.00751949659
0.00751501212
0.0075107618
0.00750633239
0.00750210787
0.00749773331
0.00749353911
0.00748921948
0.00748505963
0.00748079523
0.0074766733
0.0074724646
0.00746837663
0.00746421152
0.00746016106
0.00745604844
0.0074520411
0.00744798213
0.00744402063
0.00744001647
0.00743610332
0.00743215512
0.00742829262
0.00742440151
0.00742059178
0.00741675885
0.00741300382
0.00740923014
0.00740553156
0.00740181817
0.00739817762
0.00739452551
0.00739094442
0.00738735452
0.00738383417
0.00738030735
0.0073768489
0.00737338598
0.00736999044
0.00736659216
0.00736326043
0.00735992749
0.00735666034
0.00735339335
0.00735019147
0.00734699097
0.00734385493
0.0073407214
0.00733765168
0.00733458553
0.00733158253
0.0073285841
0.00732564813
0.00732271768
0.00731984898
0.00731698671
0.00731418545
0.00731139151
0.00730865778
0.00730593223
0.00730326608
0.00730060895
0.00729801036
0.00729542159
0.00729289049
0.00729036998
0.00728790625
0.00728545387
0.00728305732
0.0072806729
0.00727834329
0.00727602661
0.00727376367
0.00727151453
0.00726931787
0.00726713616
0.00726499677
0.00726287288
0.00726080218
0.00725875601
0.00725675751
0.00725477766
0.00725284366
0.00725092905
0.00724905854
0.00724720798
0.00724539997
0.00724361216
0.00724187144
0.00724015388
0.00723847505
0.00723681701
0.007235196
0.00723359617
0.00723203197
0.00723048911
0.00722898061
0.0072274935
0.00722603957
0.00722460697
0.00722320643
0.00722182712
0.00722047878
0.0072191515
0.00721785417
0.00721657767
0.00721533014
0.00721410314
0.00721290421
0.00721172546
0.00721057389
0.00720944212
0.0072083367
0.00720725064
0.00720619016
0.00720514853
0.00720413177
0.00720313333
0.00720215908
0.00720120257
0.00720026961
0.00719935379
0.00719846092
0.00719758456
0.00719673059
0.00719589248
0.00719507621
0.00719427514
0.00719349541
0.00719273019
0.00719198583
0.0071912553
0.00719054514
0.00718984816
0.00718917107
0.00718850649
0.00718786134
0.00718722807
0.00718661375
0.00718601069
0.0071854261
0.00718485218
0.00718429625
0.00718375043
0.0071832221
0.00718270334
0.00718220157
0.00718170888
0.00718123264
0.00718076505
0.00718031334
0.00717986988
0.00717944172
0.00717902146
0.0071786159
0.00717821793
0.00717783403
0.00717745745
0.00717709431
0.00717673825
0.00717639497
0.0071760586
0.00717573432
0.00717541681
0.00717511069
0.00717481124
0.00717452245
0.00717424029
0.00717396806
0.00717370242
0.00717344597
0.00717319613
0.00717295472
0.00717271995
0.00717249287
0.00717227248
0.00717205903
0.00717185236
0.00717165188
0.00717145826
0.00717127011
0.00717108892
0.00717091247
0.00717074311
0.00717057777
0.00717041963
0.00717026483
0.00717011735
0.00716997254
0.00716983516
0.00716969981
0.00716957201
0.00716944562
0.00716932688
0.00716920896
0.00716909879
0.00716898889
0.0071688868
0.00716878448
0.00716869001
0.00716859485
0.00716850756
0.00716841916
0.00716833863
0.0071682566
0.00716818241
0.00716810641
0.00716803817
0.00716796785
0.00716790517
0.00716784021
0.00716778273
0.00716772283
0.00716767019
0.00716761506
0.00716756692
0.00716751629
0.00716747234
0.00716742595
0.00716738588
0.00716734348
0.007167307
0.00716726836
0.00716723519
0.00716720009
0.00716716998
0.0071671382
0.0071671109
0.00716708224
0.00716705752
0.00716703179
0.00716700945
0.00716698644
0.00716696629
0.00716694583
0.00716692768
0.00716690959
0.00716689328
0.00716687738
0.00716686277
0.0071668489
0.00716683586
0.00716682384
0.00716681224
0.00716680193
0.00716679167
0.0071667829
0.00716677388
0.00716676651
0.00716675864
0.00716675254
0.00716674574
0.00716674077
0.00716673496
0.00716673101
0.00716672611
0.00716672307
0.00716671903
0.00716671678
0.00716671354
0.00716671198
0.00716670948
0.00716670852
0.00716670667
0.00716670624
0.00716670495
0.00716670499
0.00716670481
0.00716670508
0.00716670519
0.00716670546
0.00716670626
0.00716670666
0.00716670796
0.00716670859
0.00716671024
0.00716671115
0.00716671305
0.00716671423
0.00716671631
0.00716671775
0.00716671996
0.00716672165
0.00716672396
0.00716672585
0.00716672824
0.0071667303
0.00716673276
0.00716673496
0.00716673746
0.00716673977
0.0071667423
0.0071667447
0.00716674725
0.00716674971
0.00716675227
0.00716675477
0.00716675733
0.00716675985
0.0071667624
0.00716676492
0.00716676746
0.00716676997
0.00716677248
0.00716677497
0.00716677745
0.00716677991
0.00716678234
0.00716678477
0.00716678716
0.00716678954
0.00716679188
0.00716679421
0.0071667965
0.00716679877
0.00716680101
0.00716680322
0.00716680539
0.00716680754
0.00716680965
0.00716681174
0.00716681379
0.00716681581
0.00716681779
0.00716681975
0.00716682166
0.00716682355
0.0071668254
0.00716682722
0.007166829
0.00716683076
0.00716683254
0.00716683442
0.00716683638
0.00716683843
0.00716684057
0.0071668428
0.00716684511
0.0071668475
0.00716684997
0.00716685251
0.00716685514
0.00716685777
0.00716686055
0.00716686322
0.00716686609
0.00716686883
0.00716687151
0.00716687633
0.00716688238
0.00716688758
0.00716689175
0.007166895
0.00716689748
0.00716689928
0.00716690054
0.00716690137
0.0071669019
0.0071669022
0.00716690236
0.00716690243
0.00716690245
0.00716690245
0.00716690245
0.00716690244
0.00716690243
0.00716690243
0.00716690243
0.00716690242
0.00716690242
0.00716690242
0.00716690242
0.00716690242
0.00716690242
0.00716690242
0.00716690242
0.00716690242
0.00716690242
0.00716690242
0.00716690242
0.00716690242
0.00716690242
0.00716690242
0.00716690242
0.00716690242
0.00716690242
0.00716690242
0.00716690242
0.00716690242
0.00716690242
0.00716690242
0.00716690242
0.00716690242
0.00716690242
0.00716690242
0.00716690242
0.00716690242
0.00716690242
0.00716690242
0.00716690242
0.00716690242
0.00716690242
0.00716690242
0.00716690242
0.00716690242
0.00716690242
0.00716690242
0.00716690242
)
;

boundaryField
{
    closed
    {
        type            zeroGradient;
    }
    open
    {
        type            zeroGradient;
    }
    sides
    {
        type            empty;
    }
    procBoundary5to4
    {
        type            processor;
        value           uniform 0.007836573;
    }
}


// ************************************************************************* //
