/*--------------------------------*- C++ -*----------------------------------*\
| =========                 |                                                 |
| \\      /  F ield         | OpenFOAM: The Open Source CFD Toolbox           |
|  \\    /   O peration     | Version:  2306                                  |
|   \\  /    A nd           | Website:  www.openfoam.com                      |
|    \\/     M anipulation  |                                                 |
\*---------------------------------------------------------------------------*/
FoamFile
{
    version     2.0;
    format      ascii;
    arch        "LSB;label=32;scalar=64";
    class       volScalarField;
    location    "0.00156";
    object      prefDPV_H2O;
}
// * * * * * * * * * * * * * * * * * * * * * * * * * * * * * * * * * * * * * //

dimensions      [1 -1 -1 0 0 0 0];

internalField   nonuniform List<scalar> 
531
(
-3.6489522e-07
-3.64821907e-07
-3.85362959e-07
-3.83959544e-07
-3.70668474e-07
-3.64863428e-07
-3.6477694e-07
-3.85225367e-07
-3.83964133e-07
-3.69729601e-07
-3.64688932e-07
-3.64644913e-07
-3.85013397e-07
-3.84075114e-07
-3.68921088e-07
-3.64299943e-07
-3.64204095e-07
-3.84805357e-07
-3.83849203e-07
-3.66344001e-07
-3.65245291e-07
-3.84720077e-07
-3.83713102e-07
-3.66250969e-07
-3.65640661e-07
-3.84369846e-07
-3.83837893e-07
-3.69147674e-07
-3.64951089e-07
-3.65111236e-07
-3.84083211e-07
-3.83970505e-07
-3.70843761e-07
-3.65207241e-07
-3.6544988e-07
-3.6407368e-07
-3.64385182e-07
-3.84505092e-07
-3.84075543e-07
-3.8419682e-07
-3.84032982e-07
-3.83751158e-07
-3.84338552e-07
-3.69404574e-07
-3.64866422e-07
-3.645729e-07
-3.6503185e-07
-3.84131867e-07
-3.85046151e-07
-3.65341832e-07
-3.62740436e-07
-3.6483918e-07
-3.84648879e-07
-3.83990896e-07
-3.8577879e-07
-3.65032352e-07
-3.65197856e-07
-3.83910257e-07
-3.85974744e-07
-3.65322789e-07
-3.6649335e-07
-3.83584901e-07
-3.84654307e-07
-3.68158905e-07
-3.6563462e-07
-3.6550538e-07
-3.64962282e-07
-3.63712702e-07
-3.65462325e-07
-3.84457924e-07
-3.83974862e-07
-3.84734561e-07
-3.83894062e-07
-3.86558696e-07
-3.6572791e-07
-3.66636655e-07
-3.83619441e-07
-3.85411273e-07
-3.65600039e-07
-3.64491258e-07
-3.66566018e-07
-3.83883323e-07
-3.85300791e-07
-3.66344352e-07
-3.64547e-07
-3.66801165e-07
-3.83853968e-07
-3.85504251e-07
-3.66186364e-07
-3.63579108e-07
-3.66065246e-07
-3.84278929e-07
-3.83886818e-07
-3.86826754e-07
-3.65137151e-07
-3.66188776e-07
-3.83863596e-07
-3.85481876e-07
-3.65546657e-07
-3.65051363e-07
-3.64929564e-07
-3.66852546e-07
-3.84050553e-07
-3.86665686e-07
-3.65647877e-07
-3.6758645e-07
-3.83619577e-07
-3.85150868e-07
-3.66782757e-07
-3.64937155e-07
-3.67783129e-07
-3.83817708e-07
-3.85173021e-07
-3.6646084e-07
-3.64619765e-07
-3.67335484e-07
-3.83894477e-07
-3.85368351e-07
-3.66175453e-07
-3.63600828e-07
-3.66385889e-07
-3.84496187e-07
-3.84615506e-07
-3.84415761e-07
-3.86164496e-07
-3.64337483e-07
-3.62870993e-07
-3.65703586e-07
-3.8441712e-07
-3.86595183e-07
-3.65399008e-07
-3.6678488e-07
-3.83831908e-07
-3.85285768e-07
-3.65784867e-07
-3.64648397e-07
-3.67342201e-07
-3.83903214e-07
-3.85009e-07
-3.66490764e-07
-3.64527652e-07
-3.67173773e-07
-3.83818295e-07
-3.84948892e-07
-3.6683227e-07
-3.63983587e-07
-3.66024403e-07
-3.83987544e-07
-3.83613909e-07
-3.85288865e-07
-3.65532851e-07
-3.64300506e-07
-3.66411134e-07
-3.84026207e-07
-3.85342112e-07
-3.65915191e-07
-3.66810683e-07
-3.83574812e-07
-3.84645802e-07
-3.66304176e-07
-3.64553239e-07
-3.66603613e-07
-3.83765809e-07
-3.84481526e-07
-3.67095705e-07
-3.64404219e-07
-3.6617775e-07
-3.83957131e-07
-3.84754014e-07
-3.65957183e-07
-3.66882308e-07
-3.83526247e-07
-3.84100458e-07
-3.67385773e-07
-3.65585348e-07
-3.65163402e-07
-3.66429763e-07
-3.83690241e-07
-3.84309298e-07
-3.66491468e-07
-3.64339906e-07
-3.66065376e-07
-3.84028216e-07
-3.84048835e-07
-3.73516816e-07
-3.64331532e-07
-3.66321952e-07
-3.84642659e-07
-3.66059298e-07
-3.65839242e-07
-3.84276462e-07
-3.83435121e-07
-3.84550716e-07
-3.69582484e-07
-3.63600907e-07
-3.66185714e-07
-3.84697784e-07
-3.65830918e-07
-3.65682507e-07
-3.84374372e-07
-3.83473882e-07
-3.84420221e-07
-3.67356519e-07
-3.64067294e-07
-3.65468222e-07
-3.83925969e-07
-3.84064295e-07
-3.67044789e-07
-3.64386731e-07
-3.656097e-07
-3.83869038e-07
-3.8392537e-07
-3.69985315e-07
-3.64409221e-07
-3.66246734e-07
-3.84246995e-07
-3.66210723e-07
-3.65809515e-07
-3.84382468e-07
-3.83441298e-07
-3.84203434e-07
-3.67435144e-07
-3.64186537e-07
-3.65293434e-07
-3.83987294e-07
-3.84045307e-07
-3.67370754e-07
-3.64513728e-07
-3.6525974e-07
-3.84198292e-07
-3.84370981e-07
-3.65750723e-07
-3.62480946e-07
-3.63981235e-07
-3.84987449e-07
-3.84408412e-07
-3.84574533e-07
-3.84517311e-07
-3.84173436e-07
-3.84376348e-07
-3.66021017e-07
-3.63882882e-07
-3.64505621e-07
-3.63026536e-07
-3.63564472e-07
-3.84746311e-07
-3.84324043e-07
-3.64784427e-07
-3.65058804e-07
-3.84709838e-07
-3.83623222e-07
-3.84464499e-07
-3.67522029e-07
-3.63206403e-07
-3.65901665e-07
-3.84788915e-07
-3.67180554e-07
-3.64755187e-07
-3.84297832e-07
-3.84024414e-07
-3.65312787e-07
-3.65705128e-07
-3.84471859e-07
-3.83489363e-07
-3.84269441e-07
-3.68929016e-07
-3.63724454e-07
-3.64969899e-07
-3.84660965e-07
-3.83637537e-07
-3.84089681e-07
-3.66289524e-07
-3.64606757e-07
-3.65258306e-07
-3.64170456e-07
-3.64834107e-07
-3.84468899e-07
-3.84028363e-07
-3.83841945e-07
-3.83931996e-07
-3.69276331e-07
-3.64265846e-07
-3.65182332e-07
-3.84155877e-07
-3.83789572e-07
-3.71556353e-07
-3.65248599e-07
-3.64608501e-07
-3.64709356e-07
-3.84261861e-07
-3.83947939e-07
-3.65503648e-07
-3.65238606e-07
-3.8428938e-07
-3.83979696e-07
-3.67072135e-07
-3.64844908e-07
-3.66242268e-07
-3.84230944e-07
-3.83637008e-07
-3.66051629e-07
-3.65445129e-07
-3.8426869e-07
-3.84116795e-07
-3.69436241e-07
-3.63571595e-07
-3.6424202e-07
-3.84843234e-07
-3.84199383e-07
-3.64322855e-07
-3.64304061e-07
-3.85317153e-07
-3.84097161e-07
-3.84809165e-07
-3.65147208e-07
-3.64435463e-07
-3.85068131e-07
-3.84052571e-07
-3.7752877e-07
-3.65375631e-07
-3.63902876e-07
-3.64245772e-07
-3.84558802e-07
-3.84069728e-07
-3.65894953e-07
-3.65216347e-07
-3.84637526e-07
-3.83840452e-07
-3.66102189e-07
-3.65830738e-07
-3.84359927e-07
-3.83757715e-07
-3.6774485e-07
-3.65667662e-07
-3.64908568e-07
-3.64896078e-07
-3.84576524e-07
-3.84026039e-07
-3.65332051e-07
-3.64827467e-07
-3.84912005e-07
-3.84045479e-07
-3.64858743e-07
-3.64807647e-07
-3.84854246e-07
-3.8405155e-07
-3.83992774e-07
-3.83998388e-07
-3.67470678e-07
-3.64947006e-07
-3.64539245e-07
-3.64594452e-07
-3.84795291e-07
-3.84336997e-07
-3.65702889e-07
-3.6320725e-07
-3.63784151e-07
-3.84825515e-07
-3.84234076e-07
-3.65263776e-07
-3.6462904e-07
-3.8504528e-07
-3.84163702e-07
-3.64634928e-07
-3.64735698e-07
-3.85034947e-07
-3.8417494e-07
-3.84618678e-07
-3.64755366e-07
-3.63767577e-07
-3.84931912e-07
-3.84309271e-07
-3.6491342e-07
-3.64750953e-07
-3.84386919e-07
-3.84219285e-07
-3.69895113e-07
-3.64146237e-07
-3.64816659e-07
-3.844051e-07
-3.83915391e-07
-3.6547851e-07
-3.65018218e-07
-3.8419946e-07
-3.84038479e-07
-3.6803408e-07
-3.64074345e-07
-3.64805724e-07
-3.84324498e-07
-3.83887623e-07
-3.65440523e-07
-3.64950143e-07
-3.84147434e-07
-3.84065064e-07
-3.67179913e-07
-3.63810746e-07
-3.64442283e-07
-3.84476729e-07
-3.83895872e-07
-3.65160252e-07
-3.64681658e-07
-3.84571819e-07
-3.83899354e-07
-3.65234448e-07
-3.65073378e-07
-3.84453857e-07
-3.83885052e-07
-3.655273e-07
-3.65377677e-07
-3.84152476e-07
-3.84014333e-07
-3.68937407e-07
-3.64068242e-07
-3.6461336e-07
-3.84562429e-07
-3.83918967e-07
-3.65090434e-07
-3.64631923e-07
-3.84921851e-07
-3.83993356e-07
-3.64425715e-07
-3.64526242e-07
-3.84773921e-07
-3.83966576e-07
-3.84353731e-07
-3.65077548e-07
-3.64189674e-07
-3.84513295e-07
-3.84111794e-07
-3.66300095e-07
-3.64693503e-07
-3.65237355e-07
-3.84184694e-07
-3.83543687e-07
-3.66779584e-07
-3.66197437e-07
-3.84077044e-07
-3.83533598e-07
-3.68140139e-07
-3.65678995e-07
-3.65181191e-07
-3.65265187e-07
-3.84184518e-07
-3.83672479e-07
-3.6792184e-07
-3.65682733e-07
-3.64873218e-07
-3.65610047e-07
-3.84225374e-07
-3.68002792e-07
-3.6466658e-07
-3.84086733e-07
-3.8380949e-07
-3.65604976e-07
-3.65369682e-07
-3.83993147e-07
-3.83942397e-07
-3.67812285e-07
-3.64195767e-07
-3.64999127e-07
-3.84275927e-07
-3.8385492e-07
-3.83749446e-07
-3.83906211e-07
-3.67568764e-07
-3.64815907e-07
-3.64665184e-07
-3.64591486e-07
-3.84101392e-07
-3.84088894e-07
-3.68573204e-07
-3.64353647e-07
-3.65973496e-07
-3.84274609e-07
-3.6846866e-07
-3.64840188e-07
-3.83979137e-07
-3.83840891e-07
-3.65192493e-07
-3.65368805e-07
-3.84235005e-07
-3.83522154e-07
-3.84202112e-07
-3.708439e-07
-3.63991363e-07
-3.64720637e-07
-3.83890215e-07
-3.83903018e-07
-3.6881543e-07
-3.64743977e-07
-3.65290738e-07
-3.83788419e-07
-3.83797585e-07
-3.71051874e-07
-3.65229778e-07
-3.65648928e-07
-3.64255562e-07
-3.64798637e-07
-3.84297733e-07
-3.83581647e-07
-3.84076536e-07
-3.66847807e-07
-3.65044643e-07
-3.83742801e-07
-3.83710241e-07
-3.65619698e-07
-3.65483913e-07
-3.83692825e-07
-3.83578736e-07
-3.70689179e-07
-3.65831429e-07
-3.65441355e-07
-3.65435662e-07
-3.83775822e-07
-3.83802513e-07
-3.68137132e-07
-3.6463356e-07
-3.64691981e-07
-3.83769218e-07
-3.83887465e-07
-3.68702943e-07
-3.64635915e-07
-3.64752853e-07
-3.83773333e-07
-3.84028486e-07
-3.6868199e-07
-3.63999189e-07
-3.64694981e-07
-3.84379638e-07
-3.83634561e-07
-3.8413242e-07
)
;

boundaryField
{
    closed
    {
        type            calculated;
        value           nonuniform List<scalar> 0();
    }
    open
    {
        type            calculated;
        value           nonuniform List<scalar> 0();
    }
    sides
    {
        type            empty;
    }
    procBoundary3to2
    {
        type            processor;
        value           uniform -3.70890152e-07;
    }
    procBoundary3to4
    {
        type            processor;
        value           uniform -3.66985692e-07;
    }
}


// ************************************************************************* //
