/*--------------------------------*- C++ -*----------------------------------*\
| =========                 |                                                 |
| \\      /  F ield         | OpenFOAM: The Open Source CFD Toolbox           |
|  \\    /   O peration     | Version:  2306                                  |
|   \\  /    A nd           | Website:  www.openfoam.com                      |
|    \\/     M anipulation  |                                                 |
\*---------------------------------------------------------------------------*/
FoamFile
{
    version     2.0;
    format      ascii;
    arch        "LSB;label=32;scalar=64";
    class       volScalarField;
    location    "0.00156";
    object      rho;
}
// * * * * * * * * * * * * * * * * * * * * * * * * * * * * * * * * * * * * * //

dimensions      [1 -3 0 0 0 0 0];

internalField   nonuniform List<scalar> 
531
(
0.954720403
0.954674947
0.905852277
0.904316032
0.938331608
0.955244489
0.955189955
0.905940984
0.904445793
0.939364774
0.956825518
0.956745429
0.905761153
0.904985777
0.940627945
0.960559756
0.960152392
0.905971258
0.904583989
0.943988534
0.952182295
0.905568732
0.905158768
0.944949794
0.949650184
0.905589075
0.905997034
0.941704111
0.95593768
0.954485165
0.906075213
0.906940695
0.941016088
0.954600679
0.952264398
0.963979569
0.960840822
0.906672994
0.907124857
0.907006949
0.907294932
0.907244119
0.908173998
0.942657211
0.958184755
0.960017381
0.95627148
0.906701478
0.909231267
0.954270669
0.97618814
0.957075336
0.907441609
0.907622108
0.910050472
0.956585993
0.954973804
0.90628236
0.911254504
0.953331381
0.944332485
0.905982381
0.909161861
0.942636278
0.951938571
0.952444464
0.956528622
0.966786989
0.95056228
0.906192221
0.906184873
0.907498621
0.906508627
0.910823063
0.949208036
0.942412905
0.904708009
0.908485647
0.949993754
0.960192734
0.943098467
0.905479195
0.907534489
0.944243574
0.959272256
0.942093441
0.904935475
0.907698417
0.944729711
0.967404448
0.944166652
0.905406903
0.904875813
0.90977273
0.953020178
0.945321946
0.904269344
0.907438165
0.950374168
0.954858533
0.954887941
0.940360706
0.904272682
0.908834365
0.948379083
0.939079455
0.903503785
0.906898566
0.941255506
0.955400449
0.940863041
0.904022432
0.906101843
0.941677898
0.957839151
0.940722832
0.903929046
0.906074661
0.943708364
0.966308272
0.941844514
0.904047555
0.905146584
0.904591975
0.906823538
0.95950887
0.972370783
0.947445396
0.904228694
0.906657333
0.949946477
0.939928485
0.90307406
0.905700038
0.946459974
0.95705163
0.939576286
0.903162125
0.904368559
0.940292671
0.957134923
0.939458359
0.902176488
0.903835224
0.939866562
0.961228343
0.94204301
0.902948802
0.902111934
0.903869245
0.947473738
0.958857888
0.940055525
0.90254048
0.903119329
0.944013906
0.937766273
0.90115643
0.902962508
0.940289125
0.955719063
0.939013111
0.901267297
0.902283429
0.939057895
0.957021318
0.941346659
0.901890666
0.901881851
0.943328509
0.937517607
0.901159393
0.90251511
0.938544946
0.947182971
0.949700832
0.939933971
0.901051745
0.902214141
0.939076851
0.957696476
0.942166665
0.901740551
0.90221006
0.933569146
0.957513139
0.94011049
0.901343635
0.942735071
0.944500574
0.902140716
0.901851672
0.902168581
0.937563137
0.963830212
0.940986111
0.901584169
0.944267201
0.945844815
0.902030287
0.902108013
0.901695211
0.938564628
0.959441639
0.947319625
0.902070754
0.901705585
0.93885716
0.956794652
0.94623707
0.901977509
0.901994283
0.937489247
0.956666732
0.941016919
0.901594631
0.941607933
0.944819087
0.902370741
0.90234378
0.901858292
0.938538255
0.958631272
0.949194577
0.90265895
0.902365633
0.938348409
0.956459818
0.949905683
0.903283577
0.90282596
0.945874752
0.973486001
0.960235848
0.903399619
0.903201113
0.903160186
0.903453203
0.903408344
0.903324737
0.944090472
0.96257464
0.956247761
0.969372031
0.963736666
0.903974703
0.902282018
0.954343985
0.951835064
0.903302473
0.903162119
0.902878165
0.938542226
0.967942697
0.944340494
0.903264164
0.9387173
0.954653873
0.902984111
0.902608639
0.949336317
0.94665033
0.902533538
0.903020428
0.902552127
0.938088775
0.963206119
0.95162202
0.903578312
0.902510832
0.902959907
0.941138898
0.95607055
0.949686735
0.95955672
0.953403895
0.903091833
0.902847453
0.902779973
0.902555623
0.937926788
0.958160079
0.950081792
0.902658688
0.902362905
0.936089229
0.949741077
0.954906336
0.954151253
0.902330558
0.902053097
0.947319754
0.950017893
0.902297531
0.902792182
0.939379933
0.954016533
0.941420898
0.903120084
0.90194183
0.943428408
0.948413761
0.902538559
0.903064143
0.937964048
0.964524402
0.957819548
0.903711123
0.902346042
0.958200545
0.958163312
0.903426115
0.903677237
0.903084327
0.951183015
0.957462599
0.903687975
0.90382137
0.927687176
0.949409283
0.962007041
0.95846602
0.903841957
0.902580064
0.945426598
0.950437797
0.90361959
0.902612061
0.943560505
0.945658602
0.903552797
0.903189323
0.938438635
0.947334617
0.953352395
0.953398745
0.90377444
0.902875016
0.949881937
0.953779669
0.90388827
0.902975255
0.953584282
0.954183266
0.903572698
0.903490658
0.903292255
0.903370699
0.938895137
0.953559668
0.956467723
0.956343496
0.904212373
0.903920156
0.946839323
0.968461641
0.962557939
0.905025904
0.903517927
0.951641576
0.956175331
0.905156742
0.904082254
0.956475685
0.955827943
0.904499276
0.904558366
0.904049628
0.955038733
0.963512235
0.90444809
0.904297376
0.95336698
0.955766925
0.903842099
0.904476218
0.938155809
0.960501587
0.953782892
0.903952531
0.903201274
0.948566224
0.952629476
0.903561893
0.903568951
0.939294372
0.960444841
0.953544585
0.903416359
0.902905015
0.948371101
0.952875852
0.903114456
0.903299873
0.939718226
0.962542305
0.955842432
0.903634061
0.902166175
0.950875767
0.954247555
0.90351719
0.902607302
0.949828817
0.951439911
0.903149473
0.902954617
0.946965104
0.949393831
0.902855753
0.903313307
0.938446751
0.960269684
0.954330335
0.903770871
0.90214658
0.951448149
0.954638763
0.904160764
0.902694625
0.956448862
0.955944688
0.903086305
0.902820193
0.902520914
0.950457905
0.958854322
0.903366515
0.903147164
0.940461013
0.9553257
0.949330933
0.903746641
0.902052941
0.938998505
0.942064925
0.903388493
0.902554266
0.939184311
0.946456853
0.949941541
0.94961432
0.90315693
0.902513867
0.939394663
0.946429163
0.952508796
0.946896879
0.902255649
0.939296549
0.954350762
0.902662247
0.902590825
0.946151688
0.949266891
0.902384163
0.903041143
0.939583947
0.958964186
0.951472416
0.90277716
0.902544577
0.902559307
0.902619058
0.939172445
0.953805811
0.954266201
0.955541586
0.902470863
0.903118207
0.938713823
0.957729814
0.943708212
0.902577257
0.938505933
0.953199436
0.902340806
0.902649125
0.949909601
0.948955096
0.902008487
0.902785504
0.902286779
0.936775924
0.959870866
0.953732044
0.902322473
0.90239369
0.938193249
0.95380758
0.94933996
0.902086756
0.902798022
0.936704428
0.950128546
0.94617217
0.957879211
0.953002405
0.901975137
0.902353655
0.90196048
0.939332857
0.951080346
0.901298209
0.902099023
0.945728861
0.947471858
0.900960065
0.902219291
0.937337091
0.94466736
0.947603657
0.947799844
0.901575587
0.902240972
0.938771327
0.954533428
0.953673466
0.901991238
0.902206983
0.938272818
0.954541542
0.953563671
0.901991319
0.902755149
0.938370829
0.960319289
0.953724037
0.902514268
0.902591742
0.903059091
)
;

boundaryField
{
    closed
    {
        type            calculated;
        value           nonuniform List<scalar> 0();
    }
    open
    {
        type            calculated;
        value           nonuniform List<scalar> 0();
    }
    sides
    {
        type            empty;
    }
    procBoundary3to2
    {
        type            processor;
        value           uniform 0.937787856;
    }
    procBoundary3to4
    {
        type            processor;
        value           uniform 0.938597465;
    }
}


// ************************************************************************* //
