/*--------------------------------*- C++ -*----------------------------------*\
| =========                 |                                                 |
| \\      /  F ield         | OpenFOAM: The Open Source CFD Toolbox           |
|  \\    /   O peration     | Version:  2306                                  |
|   \\  /    A nd           | Website:  www.openfoam.com                      |
|    \\/     M anipulation  |                                                 |
\*---------------------------------------------------------------------------*/
FoamFile
{
    version     2.0;
    format      ascii;
    arch        "LSB;label=32;scalar=64";
    class       volScalarField;
    location    "0.00198";
    object      p;
}
// * * * * * * * * * * * * * * * * * * * * * * * * * * * * * * * * * * * * * //

dimensions      [1 -1 -2 0 0 0 0];

internalField   nonuniform List<scalar> 
530
(
101175.105
101175.395
101175.585
101175.87
101176.254
101177.317
101176.476
101177.199
101177.621
101178.228
101179.438
101179.306
101180.412
101181.371
101182.188
101182.658
101185.186
101185.996
101187.16
101188.647
101190.801
101191.439
101193.219
101194.742
101196.154
101197.408
101198.221
101200.939
101201.714
101202.594
101203.387
101204.122
101204.773
101205.336
101205.881
101205.999
101206.127
101206.157
101206.065
101205.869
101205.541
101205.144
101204.777
101204.425
101203.999
101203.465
101202.911
101202.411
101202.181
101202.028
101202.073
101202.359
101202.675
101203.128
101203.495
101203.707
101203.793
101203.881
101204.021
101204.192
101204.722
101205.596
101206.801
101208.284
101209.693
101210.451
101212.443
101213.736
101215.021
101216.315
101217.811
101219.217
101220.79
101222.392
101223.852
101225.248
101226.345
101227.236
101227.097
101224.587
101230.932
101234.792
101236.724
101238.445
101239.691
101240.46
101241.077
101241.661
101242.169
101242.55
101242.894
101243.26
101243.746
101244.174
101244.687
101245.3
101246.101
101247.052
101248.095
101249.257
101250.545
101251.72
101253
101254.275
101255.539
101256.904
101258.282
101259.543
101260.753
101261.826
101262.823
101263.886
101264.958
101265.876
101266.927
101268.039
101269.251
101270.585
101272.009
101273.625
101275.19
101277.12
101279.257
101281.585
101284.016
101286.488
101288.971
101291.689
101294.317
101296.882
101299.317
101301.613
101303.693
101305.606
101306.925
101308.502
101310.277
101312.153
101313.999
101315.575
101317.325
101319.317
101321.619
101324.436
101327.504
101331.105
101334.961
101339.035
101343.35
101348.017
101352.795
101358.139
101363.525
101368.481
101373.098
101377.435
101381.691
101385.849
101390.064
101394.473
101399.246
101404.204
101409.122
101414.179
101419.144
101423.864
101428.459
101432.79
101436.78
101440.466
101444.007
101447.342
101450.529
101453.66
101456.969
101460.139
101463.341
101466.572
101469.983
101473.387
101477.058
101480.014
101483.645
101487.572
101491.394
101495.067
101498.966
101503.044
101507.359
101511.644
101515.61
101519.565
101523.626
101527.792
101531.862
101535.548
101538.784
101541.769
101544.67
101547.381
101549.788
101551.829
101553.68
101556.597
101556.313
101558.28
101559.215
101559.847
101560.229
101560.308
101560.218
101559.835
101558.845
101556.435
101557.828
101555.542
101553.697
101552.097
101550.46
101548.742
101546.838
101544.932
101542.994
101540.606
101538.065
101535.522
101532.897
101529.584
101526.205
101522.736
101519.245
101515.715
101512.027
101508.365
101504.764
101500.236
101495.673
101491.119
101486.563
101482.159
101477.515
101472.822
101468.283
101463.883
101459.729
101455.209
101450.794
101446.562
101442.585
101438.521
101434.481
101430.644
101427.031
101423.533
101420.081
101416.646
101413.294
101410.098
101407.143
101404.19
101401.266
101398.509
101395.997
101393.492
101391.042
101388.841
101386.94
101384.596
101382.615
101380.797
101379.077
101377.447
101375.934
101374.551
101373.329
101372.134
101370.975
101369.943
101368.998
101368.238
101367.524
101366.842
101366.215
101365.697
101365.246
101364.909
101364.652
101364.062
101364.206
101364.001
101363.796
101363.688
101363.616
101363.581
101363.563
101363.609
101363.655
101363.722
101363.784
101363.864
101363.958
101364.055
101364.223
101364.429
101364.639
101364.871
101365.156
101365.441
101365.845
101366.311
101366.824
101367.416
101368.098
101368.92
101369.829
101370.694
101371.537
101372.518
101373.574
101374.693
101375.804
101376.811
101377.737
101378.562
101379.376
101380.41
101380.596
101381.098
101381.621
101382.05
101382.392
101382.668
101382.929
101383.173
101383.251
101383.319
101383.357
101383.374
101383.347
101383.284
101383.193
101383.067
101382.91
101382.737
101382.568
101382.329
101382.136
101381.941
101381.687
101381.525
101381.442
101380.952
101380.598
101380.3
101380.018
101379.756
101379.455
101379.178
101378.923
101378.606
101378.4
101378.258
101378.189
101378.112
101378.254
101378.507
101378.885
101379.337
101379.857
101380.399
101380.988
101381.637
101382.333
101382.893
101383.57
101384.26
101384.957
101385.655
101386.331
101386.992
101387.758
101388.523
101389.116
101389.833
101390.638
101391.451
101392.069
101392.813
101393.648
101394.489
101395.148
101395.947
101396.845
101397.822
101398.752
101399.636
101400.621
101401.678
101402.648
101403.619
101404.638
101405.616
101406.538
101407.343
101408.147
101408.945
101409.715
101410.414
101411.021
101411.683
101412.346
101412.867
101413.486
101414.136
101414.593
101415.125
101415.687
101416.248
101416.738
101417.107
101417.41
101417.968
101418.49
101418.852
101419.143
101419.327
101419.534
101419.684
101419.684
101419.67
101419.596
101419.259
101418.846
101418.18
101417.321
101417.64
101416.889
101416.066
101415.265
101414.496
101413.751
101413.05
101413.065
101411.101
101411.098
101411.178
101410.289
101409.729
101409.453
101409.163
101408.929
101408.637
101408.773
101408.059
101408.123
101407.918
101407.665
101407.402
101407.133
101406.819
101406.526
101406.229
101405.904
101405.613
101405.249
101404.931
101404.529
101404.156
101403.633
101403.166
101402.627
101401.359
101402.195
101401.127
101400.528
101399.956
101399.39
101398.898
101398.436
101397.739
101397.244
101396.743
101396.277
101395.928
101395.529
101395.237
101395.091
101394.833
101394.784
101394.834
101394.975
101395.164
101395.322
101395.694
101396.117
101396.674
101397.078
101397.519
101397.981
101399.437
101398.902
101400.087
101400.787
101401.476
101402.007
101402.765
101403.522
101404.261
101404.955
101405.644
101406.362
101406.734
101407.246
101407.822
101408.099
101408.46
101408.834
101409.807
101408.869
101409.422
101409.669
101409.734
101408.802
101411.027
101410.331
101410.362
101410.553
101411.624
101410.9
101411.595
)
;

boundaryField
{
    closed
    {
        type            zeroGradient;
    }
    open
    {
        type            waveTransmissive;
        gamma           1.25;
        fieldInf        101325;
        lInf            1;
        value           nonuniform List<scalar> 0();
    }
    sides
    {
        type            empty;
    }
    procBoundary2to1
    {
        type            processor;
        value           uniform 101174.789;
    }
    procBoundary2to3
    {
        type            processor;
        value           uniform 101411.909;
    }
}


// ************************************************************************* //
