/*--------------------------------*- C++ -*----------------------------------*\
| =========                 |                                                 |
| \\      /  F ield         | OpenFOAM: The Open Source CFD Toolbox           |
|  \\    /   O peration     | Version:  2306                                  |
|   \\  /    A nd           | Website:  www.openfoam.com                      |
|    \\/     M anipulation  |                                                 |
\*---------------------------------------------------------------------------*/
FoamFile
{
    version     2.0;
    format      ascii;
    arch        "LSB;label=32;scalar=64";
    class       volScalarField;
    location    "0.00198";
    object      prefDh_H;
}
// * * * * * * * * * * * * * * * * * * * * * * * * * * * * * * * * * * * * * //

dimensions      [1 1 -3 0 0 0 0];

internalField   nonuniform List<scalar> 
530
(
23179.171
23938.6521
23930.7668
23420.9503
22976.9658
22980.7469
23923.5359
23916.2308
23455.3354
22998.6031
22999.9208
23914.8954
23914.0655
23451.408
22987.3322
22988.2936
23918.3677
23914.8642
23457.0773
22986.9702
22990.0852
23931.7154
23941.338
23407.5465
23348.3368
23004.0078
23007.1967
23881.4088
23920.1402
23913.4565
23921.6657
23389.8361
22870.4309
22910.2413
23676.7354
23928.5031
23403.9441
23209.157
23612.3754
23909.5374
23930.7587
23932.7053
23387.9937
23026.7826
23022.9277
23390.0606
23936.1531
23940.181
23335.7492
23018.5154
23368.4411
23922.5482
23986.1061
23362.4262
23112.1004
23149.9173
23029.7663
23349.1294
23908.3152
23987.9597
23436.6585
23326.3294
23548.8027
23926.4323
23944.6498
23942.9846
23379.5945
23117.6446
23094.3801
23392.5085
23928.7903
23954.0873
23367.0055
22968.1626
23330.8116
23915.3805
23963.0777
23358.8747
22936.9586
23381.7156
23880.2684
23689.3155
23187.8721
23373.906
23843.4904
23994.4056
23911.865
23349.4995
23073.2295
23160.4756
22969.2096
23155.4004
23878.4239
23906.7811
23910.1119
23933.3375
23390.6922
23121.2986
22950.5532
23081.8613
23842.9884
23963.7742
23854.2019
23976.4237
23930.7433
23359.1758
23091.4845
23083.4769
23379.8653
23925.5365
23425.5524
23388.202
23852.5129
23973.4086
23551.8145
23374.8097
23251.1942
23121.8929
23328.0177
23924.9251
23972.221
23352.5828
23006.0919
23368.3894
23897.738
23553.4918
23295.8055
23402.2143
23941.366
23439.5716
23329.9268
23431.9817
23947.9958
23673.923
23382.6824
23215.9928
23125.7817
23406.6759
23910.9713
23952.9263
23366.16
23024.6301
23379.9235
23895.2833
23940.7421
23356.5817
22943.2829
23375.0978
23852.8583
23656.1307
23000.4824
23345.403
23834.0099
23677.6443
23871.9469
23926.8794
23489.4156
23363.5469
23253.4257
22925.0522
23046.3054
23793.5553
23935.6571
23848.0768
23925.9438
23859.6405
23388.0613
23235.2055
23228.99
23087.3786
23386.9881
23881.0215
23527.7834
23250.7814
23391.7783
23914.725
23455.0225
23234.7136
23382.8595
23931.5276
23799.7419
23373.266
22960.7779
23139.5908
23866.0951
23955.6184
23535.406
23146.8192
23283.2397
23832.9114
23988.3643
23829.6931
23251.4201
22837.4876
23332.5774
23829.3806
23993.5049
23873.3898
23377.6674
23244.2919
23287.0258
23352.6724
23091.9678
23099.6871
23875.9486
23962.1091
23417.9957
23270.2975
23659.6667
23969.9667
23513.9365
23384.3092
23008.1878
23018.1174
23884.1871
23488.6283
23066.8745
23482.8141
23931.8457
23384.2997
23202.1543
23694.3231
23702.8158
23147.6804
23400.7942
23917.9894
23622.3079
23142.7219
23059.2263
23905.8843
23945.2229
23398.1643
23442.8247
23968.7518
23723.767
23310.7039
22965.4698
23351.6834
23923.7668
23432.8098
23114.7918
23372.1556
23953.1213
23961.4104
23320.6776
22953.6224
23364.3993
23914.022
23431.3853
23148.5882
23387.399
23951.1343
23941.0897
23347.9336
22928.6982
23376.3899
23935.6837
23976.5618
23400.5764
22995.7004
23353.316
23940.4573
23418.8652
23137.4247
23395.1958
23933.7646
23638.5365
23414.1793
23170.1189
23006.3214
23370.7941
23949.6342
23994.8126
23959.7746
23397.9995
23247.8113
23388.3106
23966.4532
23990.9973
23373.7956
23256.2358
23315.8792
23397.6077
23282.5663
23247.0103
23402.1281
23977.7847
23976.6522
23353.3684
22913.1914
23351.6358
23926.9812
23981.6286
23943.8833
23973.4479
23379.974
23334.2501
23330.3555
23290.3478
23388.709
23946.1784
23979.2817
23406.3311
23148.2756
23067.6544
23371.0719
23957.4544
23974.965
23352.5665
22960.2281
23366.3969
23922.2317
23412.9046
23116.8138
23383.8215
23951.1366
23951.5122
23252.8438
22906.4869
23364.5983
23928.7138
23396.8708
23237.5573
23464.1947
23955.1248
23758.4636
23378.5343
23104.7494
23115.3586
23433.3691
23950.7306
23391.1575
23248.9956
23627.7142
23955.35
23503.4747
23392.0642
23115.1731
23036.3588
23378.0334
23937.2584
23385.8621
23158.7039
23373.6065
23951.4712
23974.9287
23372.5252
23038.0946
23436.2021
23927.3957
23665.6883
23118.0009
22939.8791
23407.6122
23919.4768
23416.3009
23175.8302
23359.9004
23927.1478
23993.9121
23402.358
23182.937
23940.2766
23968.1645
23404.7753
23383.6423
23063.6902
23024.4211
23460.8869
23947.6259
23390.8774
23220.9926
23940.0798
23958.1065
23431.4064
23395.2828
23262.7925
23264.8609
23376.5825
23409.4093
23147.0916
23919.9844
23978.4542
23346.6553
23132.1815
23905.6709
23971.601
23356.5958
23164.3774
23901.9456
23960.9638
23373.4722
23250.8833
23887.408
23577.2169
23072.8231
23490.8937
23914.3904
23942.3042
23315.4542
23037.7714
23434.9048
23935.2513
23950.1294
23375.7963
22889.4161
23185.8727
23897.9521
23393.7529
23176.6332
23917.3774
23490.5865
22982.2801
23914.6571
23920.3735
23483.0699
23154.6835
23131.8872
23478.1959
23947.0045
23945.9398
23379.0948
22889.5531
23132.6126
23898.1701
23397.0397
23195.322
23916.9267
23471.956
22948.1555
23927.5414
23913.6174
23416.9318
23006.5413
23010.9372
23882.7447
23912.7753
23895.3641
23919.8776
23414.7553
23064.2793
22692.311
22699.2252
23904.9482
23915.8746
23912.1007
23421.2375
23201.564
23912.1707
23908.4754
23490.3696
22972.6713
22976.9608
23879.132
23934.2873
23635.89
23202.4527
22887.7393
23402.4385
23902.2953
23364.7324
23026.5535
23428.4253
23898.7947
23944.0774
23149.9451
22882.011
23901.5391
23895.8675
23424.5832
22914.8043
22917.6689
23892.4259
23897.7806
23487.0785
23001.675
23005.9632
23860.2737
23612.7362
22989.2846
23381.3985
23866.0189
23952.513
23601.1584
22904.1917
22880.2577
23882.2983
23906.1713
23436.554
22956.269
22947.6619
23845.5788
23909.6166
23101.9328
23272.9424
23892.7258
23936.1015
23463.4422
22967.8196
22969.293
23883.1939
23403.707
23021.9983
23910.5061
23931.5933
23387.0977
23157.1799
23422.2484
23871.7188
23935.5324
23701.8585
22957.6346
22898.3152
23858.9618
23905.5232
23445.2807
22988.9637
22992.3928
23866.4541
23906.3337
23473.3611
22990.2149
22994.0626
23864.0206
23911.5439
23454.7064
22987.2638
22991.5226
23866.3068
23914.2773
)
;

boundaryField
{
    closed
    {
        type            calculated;
        value           nonuniform List<scalar> 0();
    }
    open
    {
        type            calculated;
        value           nonuniform List<scalar> 0();
    }
    sides
    {
        type            empty;
    }
    procBoundary2to1
    {
        type            processor;
        value           uniform 23368.0242;
    }
    procBoundary2to3
    {
        type            processor;
        value           uniform 23453.9544;
    }
}


// ************************************************************************* //
