/*--------------------------------*- C++ -*----------------------------------*\
| =========                 |                                                 |
| \\      /  F ield         | OpenFOAM: The Open Source CFD Toolbox           |
|  \\    /   O peration     | Version:  2306                                  |
|   \\  /    A nd           | Website:  www.openfoam.com                      |
|    \\/     M anipulation  |                                                 |
\*---------------------------------------------------------------------------*/
FoamFile
{
    version     2.0;
    format      ascii;
    arch        "LSB;label=32;scalar=64";
    class       volScalarField;
    location    "0.00198";
    object      prefDPV_T;
}
// * * * * * * * * * * * * * * * * * * * * * * * * * * * * * * * * * * * * * //

dimensions      [1 -1 -1 -1 0 0 0];

internalField   nonuniform List<scalar> 
530
(
5.90211898e-10
6.10046012e-10
6.0894421e-10
5.98044659e-10
5.8920565e-10
5.89267729e-10
6.10378597e-10
6.09218809e-10
6.0019455e-10
5.89375102e-10
5.89395844e-10
6.10562577e-10
6.09227727e-10
5.99970258e-10
5.89314638e-10
5.89332123e-10
6.10705725e-10
6.09239238e-10
6.00401815e-10
5.89302545e-10
5.89219515e-10
6.10673467e-10
6.08671229e-10
5.96796615e-10
5.91047507e-10
5.89476323e-10
5.89371095e-10
6.11502585e-10
6.09510966e-10
6.09579183e-10
6.09577338e-10
5.93256992e-10
5.88848938e-10
5.88766058e-10
6.08282728e-10
6.09092239e-10
5.93444011e-10
5.90467504e-10
6.06320262e-10
6.09668668e-10
6.09162804e-10
6.09573521e-10
5.92741791e-10
5.89453644e-10
5.89311868e-10
5.95557802e-10
6.09181942e-10
6.10033956e-10
5.9060347e-10
5.89589267e-10
5.92501528e-10
6.0945616e-10
6.08747754e-10
5.920129e-10
5.8985099e-10
5.89586158e-10
5.89480763e-10
5.92152076e-10
6.09818734e-10
6.07899131e-10
5.99184482e-10
5.9076711e-10
6.04275655e-10
6.09521597e-10
6.08979092e-10
6.09398226e-10
5.93278268e-10
5.89919518e-10
5.896996e-10
5.91351881e-10
6.09703561e-10
6.09418583e-10
5.91370923e-10
5.89295045e-10
5.90837209e-10
6.10015759e-10
6.09347837e-10
5.91580936e-10
5.89149547e-10
5.90956654e-10
6.1044034e-10
6.08662665e-10
5.90469426e-10
5.919229e-10
6.11298203e-10
6.07867812e-10
6.09901676e-10
5.91493395e-10
5.89930533e-10
5.89840227e-10
5.89324491e-10
5.90134299e-10
6.11138084e-10
6.09508439e-10
6.09260733e-10
6.10009608e-10
5.91954539e-10
5.89945501e-10
5.89198283e-10
5.89669095e-10
6.1198008e-10
6.0851218e-10
6.10642255e-10
6.08285842e-10
6.09679343e-10
5.91979829e-10
5.89778445e-10
5.89521665e-10
5.92930689e-10
6.09731548e-10
5.98463931e-10
5.91430969e-10
6.12580123e-10
6.08050564e-10
6.0431442e-10
5.92511805e-10
5.90533951e-10
5.89805249e-10
5.90871639e-10
6.1010955e-10
6.09132291e-10
5.92747562e-10
5.89383345e-10
5.91853118e-10
6.10284942e-10
6.04404663e-10
5.90668121e-10
5.98200074e-10
6.0913106e-10
5.99666509e-10
5.90752932e-10
5.99727498e-10
6.08803026e-10
6.08291889e-10
5.92107596e-10
5.90396291e-10
5.89878934e-10
5.91269922e-10
6.10141367e-10
6.09431015e-10
5.92472801e-10
5.89636439e-10
5.91129685e-10
6.10433243e-10
6.09631997e-10
5.92011131e-10
5.89327338e-10
5.91124741e-10
6.11133116e-10
6.07694563e-10
5.89594176e-10
5.90943122e-10
6.1224216e-10
6.08296768e-10
6.11545502e-10
6.09259856e-10
6.01819424e-10
5.91110412e-10
5.90573786e-10
5.89173396e-10
5.8973078e-10
6.11567774e-10
6.09918771e-10
6.11290859e-10
6.09477353e-10
6.10909244e-10
5.92254007e-10
5.90885652e-10
5.90286432e-10
5.8994948e-10
5.91887734e-10
6.10536535e-10
6.03471812e-10
5.90596938e-10
5.97520803e-10
6.09594977e-10
6.00441217e-10
5.9043243e-10
5.95847961e-10
6.09404567e-10
6.11921852e-10
5.91072439e-10
5.89485577e-10
5.89890543e-10
6.1142747e-10
6.08581011e-10
6.03727639e-10
5.90034274e-10
5.90560155e-10
6.11839966e-10
6.08193173e-10
6.11377125e-10
5.89818065e-10
5.8891958e-10
5.93802298e-10
6.11493972e-10
6.08107142e-10
6.10953143e-10
5.92281451e-10
5.90754445e-10
5.90817041e-10
5.91092233e-10
5.90065913e-10
5.89738667e-10
6.12142804e-10
6.08646311e-10
5.93742977e-10
5.9041289e-10
6.07729135e-10
6.08363172e-10
6.02838198e-10
5.91979494e-10
5.89634233e-10
5.89340559e-10
6.11328131e-10
6.01963572e-10
5.89672804e-10
6.01972885e-10
6.09188016e-10
5.93787637e-10
5.90406626e-10
6.08747766e-10
6.09048983e-10
5.89977245e-10
5.98039271e-10
6.09276431e-10
6.06697063e-10
5.90170521e-10
5.89814022e-10
6.10962927e-10
6.09755789e-10
5.91492873e-10
5.99918302e-10
6.08317926e-10
6.09769104e-10
5.90356762e-10
5.89361301e-10
5.94172445e-10
6.09622831e-10
5.99697989e-10
5.89816581e-10
5.95669717e-10
6.0892308e-10
6.09560668e-10
5.90512628e-10
5.89275051e-10
5.94882035e-10
6.09583239e-10
5.99447747e-10
5.9004678e-10
5.96294035e-10
6.08805726e-10
6.09842473e-10
5.90701254e-10
5.89247596e-10
5.90902734e-10
6.09558594e-10
6.0836245e-10
5.97574026e-10
5.89096364e-10
5.93037001e-10
6.09530821e-10
5.99040472e-10
5.89962682e-10
5.97647233e-10
6.08809633e-10
6.07166339e-10
5.91441773e-10
5.9004963e-10
5.89311441e-10
5.91539433e-10
6.09672509e-10
6.07866075e-10
6.08497747e-10
5.97660674e-10
5.90311449e-10
5.97418508e-10
6.08442397e-10
6.0876925e-10
5.93310066e-10
5.9054673e-10
5.90717061e-10
5.91269357e-10
5.90536421e-10
5.90369588e-10
5.9803051e-10
6.08436671e-10
6.08646744e-10
5.90876187e-10
5.88894393e-10
5.91816973e-10
6.09892653e-10
6.08778853e-10
6.08914598e-10
6.09131746e-10
5.92762912e-10
5.91021235e-10
5.90745518e-10
5.90747608e-10
5.97051523e-10
6.08618834e-10
6.08411284e-10
5.97330931e-10
5.89776882e-10
5.89520302e-10
5.93655409e-10
6.09036705e-10
6.08847945e-10
5.90630659e-10
5.8913648e-10
5.95838649e-10
6.09531978e-10
5.98605229e-10
5.89843629e-10
5.96710352e-10
6.08954448e-10
6.09971069e-10
5.90143475e-10
5.88980298e-10
5.95419311e-10
6.09413007e-10
5.97372852e-10
5.90374106e-10
6.01061014e-10
6.08399165e-10
6.10716094e-10
5.93420909e-10
5.89988327e-10
5.89711506e-10
5.9949119e-10
6.08915563e-10
5.95337303e-10
5.90390914e-10
6.06795047e-10
6.0835272e-10
6.02481207e-10
5.92001656e-10
5.89733788e-10
5.89345771e-10
5.96562271e-10
6.09322325e-10
5.96939157e-10
5.90023671e-10
5.96383094e-10
6.08785506e-10
6.08543277e-10
5.93401059e-10
5.89431194e-10
5.99875837e-10
6.09279157e-10
6.08025917e-10
5.89640788e-10
5.89105754e-10
5.98657756e-10
6.09397503e-10
5.98809229e-10
5.9023409e-10
5.92076863e-10
6.09240919e-10
6.08016909e-10
5.93684005e-10
5.89883882e-10
6.10887201e-10
6.083339e-10
5.96514006e-10
5.91101778e-10
5.89533519e-10
5.89239422e-10
6.0097356e-10
6.09083229e-10
5.92413382e-10
5.90284026e-10
6.10729621e-10
6.08252514e-10
5.99007955e-10
5.91957482e-10
5.90454213e-10
5.90555266e-10
5.95888332e-10
5.91423879e-10
5.89671614e-10
6.11159068e-10
6.08588134e-10
5.9119307e-10
5.89689691e-10
6.11289108e-10
6.08596693e-10
5.91304166e-10
5.89893725e-10
6.11227814e-10
6.08531976e-10
5.91452119e-10
5.90554223e-10
6.1114914e-10
6.0521508e-10
5.89827312e-10
6.02219757e-10
6.09077359e-10
6.09798587e-10
5.9069569e-10
5.89594437e-10
5.99809577e-10
6.08830085e-10
6.09294425e-10
5.93011032e-10
5.88988359e-10
5.90121495e-10
6.10332772e-10
5.95732538e-10
5.90307271e-10
6.10951762e-10
6.01971826e-10
5.8922842e-10
6.11656969e-10
6.09085783e-10
6.01609358e-10
5.90077847e-10
5.89914602e-10
6.01663446e-10
6.08607857e-10
6.09118798e-10
5.93277494e-10
5.88977182e-10
5.89882863e-10
6.10318838e-10
5.95853102e-10
5.90388039e-10
6.10870705e-10
6.01174393e-10
5.89059877e-10
6.11039697e-10
6.09326415e-10
5.97746525e-10
5.89607978e-10
5.89478579e-10
6.11283969e-10
6.09462855e-10
6.09765496e-10
6.0943519e-10
5.92246772e-10
5.89854884e-10
5.87798273e-10
5.87929199e-10
6.1173788e-10
6.09041425e-10
6.09493315e-10
5.92041244e-10
5.90487978e-10
6.1073814e-10
6.09070056e-10
6.01860311e-10
5.89371161e-10
5.89255992e-10
6.11698054e-10
6.08899812e-10
6.07160658e-10
5.90027747e-10
5.88967462e-10
5.98206925e-10
6.09798392e-10
5.92856311e-10
5.89639374e-10
5.99506184e-10
6.09503229e-10
6.09182336e-10
5.90104138e-10
5.88850122e-10
6.11347865e-10
6.09604783e-10
5.97733873e-10
5.89133881e-10
5.89071305e-10
6.11025064e-10
6.09391597e-10
6.01670276e-10
5.89586649e-10
5.89445739e-10
6.11537878e-10
6.0638618e-10
5.89540698e-10
5.93025748e-10
6.102097e-10
6.08550319e-10
6.06063962e-10
5.88774808e-10
5.88835854e-10
6.11868208e-10
6.09429803e-10
5.98852947e-10
5.8936527e-10
5.89211046e-10
6.11985079e-10
6.10533758e-10
5.89979706e-10
5.9085587e-10
6.09950463e-10
6.08647112e-10
6.00479902e-10
5.89153499e-10
5.89122835e-10
6.11413402e-10
5.96854177e-10
5.89485322e-10
6.11101828e-10
6.0896808e-10
5.921829e-10
5.90223627e-10
5.99132156e-10
6.09944995e-10
6.08958673e-10
6.09224229e-10
5.89180046e-10
5.88994491e-10
6.12134539e-10
6.09381593e-10
5.99269709e-10
5.89479594e-10
5.8939129e-10
6.11616668e-10
6.09273905e-10
6.00949383e-10
5.89479384e-10
5.89362592e-10
6.11770552e-10
6.09252805e-10
5.99944847e-10
5.89440171e-10
5.89324372e-10
6.11707302e-10
6.09235679e-10
)
;

boundaryField
{
    closed
    {
        type            calculated;
        value           nonuniform List<scalar> 0();
    }
    open
    {
        type            calculated;
        value           nonuniform List<scalar> 0();
    }
    sides
    {
        type            empty;
    }
    procBoundary2to1
    {
        type            processor;
        value           uniform 5.91136064e-10;
    }
    procBoundary2to3
    {
        type            processor;
        value           uniform 5.99942179e-10;
    }
}


// ************************************************************************* //
