/*--------------------------------*- C++ -*----------------------------------*\
| =========                 |                                                 |
| \\      /  F ield         | OpenFOAM: The Open Source CFD Toolbox           |
|  \\    /   O peration     | Version:  2306                                  |
|   \\  /    A nd           | Website:  www.openfoam.com                      |
|    \\/     M anipulation  |                                                 |
\*---------------------------------------------------------------------------*/
FoamFile
{
    version     2.0;
    format      ascii;
    arch        "LSB;label=32;scalar=64";
    class       volScalarField;
    location    "0.0009";
    object      H2O;
}
// * * * * * * * * * * * * * * * * * * * * * * * * * * * * * * * * * * * * * //

dimensions      [0 0 0 0 0 0 0];

internalField   nonuniform List<scalar> 
531
(
0.00100300145
0.00103595598
0.00592239169
0.00735840904
0.00664501237
0.000985962517
0.00101657723
0.00608655752
0.00747731033
0.00686692061
0.0009912607
0.00101023457
0.00638833674
0.00679321778
0.000828449044
0.00101152863
0.00648979828
0.00672754849
0.000847668153
0.00100379403
0.00626879534
0.0076123063
0.00692789538
0.000941979516
0.00100057522
0.00598750164
0.00752644707
0.00657223332
0.000902223631
0.00108873011
0.000963770181
0.00109055737
0.0010304551
0.00577928986
0.00711560943
0.00698213915
0.0068859856
0.00708953832
0.0065796735
0.000973065551
0.00104198554
0.00568068552
0.00740166445
0.00660053189
0.000871154655
0.00111383615
0.000998144224
0.00606794546
0.00754674945
0.00694687785
0.000929752648
0.00101540174
0.00608806173
0.00672622486
0.000718602647
0.000982139043
0.00622205733
0.00731809899
0.0074925887
0.00652062535
0.000841988756
0.00106758335
0.00092390577
0.00105500573
0.000976969034
0.00659268803
0.00724324418
0.00735183376
0.0066714005
0.000905743379
0.00100605254
0.0055791925
0.00725179277
0.00655212641
0.000911571166
0.00100556896
0.0054799997
0.00719271184
0.0064485138
0.000911340409
0.000992234623
0.0056427888
0.00725932955
0.00648650845
0.000896374625
0.000977917876
0.0057174193
0.00725771886
0.006396591
0.000894239224
0.000973831009
0.00569301694
0.00720584091
0.00627628615
0.000895217295
0.000969019733
0.00567143188
0.00717283074
0.00620940751
0.000891120184
0.000961895399
0.00565496396
0.00715917557
0.00622391145
0.000879412641
0.000953840836
0.005624061
0.00718795199
0.0063582562
0.000851588073
0.000935961579
0.00572455487
0.00724496064
0.00642199515
0.0012723042
0.00106520486
0.000998840444
0.00626130406
0.00714913801
0.00727448753
0.00641392422
0.000812570819
0.000924478952
0.00554062343
0.00724260367
0.00674385537
0.000830577668
0.000934148233
0.00513692705
0.00626103312
0.00221637144
0.000864472685
0.00540964771
0.0072136397
0.0066012651
0.00088293395
0.000889799248
0.00539316035
0.00721578192
0.00672925895
0.00104493267
0.000899995199
0.00504584707
0.00617084715
0.00224683666
0.000837263616
0.00536807856
0.00711049651
0.00641310585
0.000971593901
0.000873669048
0.00531733321
0.0070263343
0.00618261118
0.00093013167
0.000864705248
0.00544589238
0.00699873512
0.00601754847
0.00090975979
0.000851140144
0.00555581737
0.00697288559
0.00588602472
0.000894010502
0.000834459166
0.0057607697
0.00709782123
0.00718486185
0.00550687439
0.000828067904
0.000800027905
0.00567973078
0.00578652795
0.00112477318
0.000782279693
0.00617947376
0.00702979651
0.00547193111
0.000812194815
0.000786449996
0.00633106473
0.007075732
0.00494468486
0.000831568327
0.00178134643
0.00668953587
0.00710360759
0.00423999475
0.000873072116
0.00349824739
0.0062763313
0.00411716936
0.000890534929
0.00318389085
0.00692940163
0.00707056354
0.00291904223
0.000938386476
0.00358896145
0.00703397429
0.00707851222
0.0020552312
0.000960111376
0.00424622038
0.00717634489
0.00707225803
0.00189633263
0.000991161561
0.00494637407
0.00655291688
0.00257758536
0.000988256955
0.00468868043
0.00732566984
0.00692563645
0.000752140718
0.000992850545
0.00498115754
0.0073415758
0.00688458254
0.000770053286
0.00100344082
0.00553849631
0.00669323956
0.00415042017
0.00107424397
0.00078662574
0.00673560231
0.00675764836
0.00511213783
0.00475038604
0.00475551457
0.00494159117
0.00501410035
0.00540745356
0.00667693372
0.00596943129
0.000965908292
0.00102789621
0.00540690043
0.0065973457
0.00311102637
0.0009831702
0.00460408502
0.0073554104
0.00716723169
0.00289881968
0.000965359374
0.00477354904
0.00689946816
0.00385427995
0.000966873413
0.00463961866
0.00692401165
0.00382972209
0.000966455631
0.00459456497
0.00683656289
0.00351229957
0.000948837009
0.00463129467
0.00732238705
0.00714023511
0.0031941319
0.000966728363
0.00437256562
0.00661826664
0.00344621104
0.000957222775
0.0043462857
0.00725846221
0.00707562675
0.00296489641
0.000962623517
0.00434498508
0.006527942
0.00343843956
0.000959153896
0.00408150672
0.00720943533
0.00699983686
0.00237669876
0.000944541215
0.00421084143
0.0071575118
0.00698262878
0.00282419734
0.000956368038
0.00427437572
0.0064736593
0.00354482685
0.000949800797
0.00389931858
0.00717935498
0.00697688319
0.00241081708
0.000934308122
0.00414901902
0.00714952874
0.00697450038
0.00288224092
0.000942701117
0.00418532724
0.00646042115
0.00368305377
0.000932901227
0.00384978762
0.00716338358
0.00695548724
0.0024858829
0.000919324882
0.00414428504
0.00712758806
0.00694339571
0.00291949663
0.000931240835
0.00407972734
0.0063770374
0.00364233385
0.000922216563
0.00387441867
0.00710642433
0.00685659674
0.00222300586
0.000924435538
0.00409054502
0.00705446055
0.00681067233
0.00213812197
0.000919333413
0.00418908939
0.00706815765
0.00687824335
0.00293715171
0.0009322045
0.0039027103
0.0062127116
0.00402878853
0.00101199975
0.000969863268
0.00670310939
0.00675810143
0.00657642935
0.00678793511
0.00608090994
0.000902416007
0.000975170893
0.00442783014
0.00698197628
0.00688156113
0.00348218772
0.000928754963
0.00378521464
0.00661413825
0.00435277544
0.000925904863
0.00376452037
0.00664825031
0.00416307569
0.000902780015
0.00416495255
0.00723478425
0.00709654028
0.00344530279
0.000932645162
0.00400827069
0.00660786144
0.00389275384
0.000926425053
0.00433301366
0.00720812245
0.00706060587
0.00301400766
0.000957446287
0.00429506938
0.0066212404
0.00353318501
0.000949146191
0.00469362181
0.00728432258
0.00709094647
0.00252592156
0.000983198021
0.0047238616
0.00670037611
0.00305771779
0.000972123071
0.0051435425
0.00747209325
0.0071296042
0.00238989895
0.00098879534
0.00530673902
0.00691917853
0.00286249239
0.00098992498
0.00546100776
0.00693190616
0.0025704504
0.000987742591
0.00557423745
0.00686591607
0.00204128754
0.000950845062
0.00569394116
0.00763394491
0.00708992368
0.0015090627
0.000973805988
0.00575246177
0.00673314712
0.00176059731
0.000972215343
0.00581190953
0.00666019435
0.00111945157
0.000932984983
0.00582026857
0.00751127696
0.00691377037
0.000780225742
0.00097499884
0.00574218845
0.00640343589
0.000820894014
0.00095244291
0.00557529117
0.00713638224
0.00648754287
0.000873561878
0.000970709288
0.00541741516
0.00693643312
0.00697206177
0.00644222968
0.000829181082
0.000920395043
0.00585608886
0.00743105733
0.00682183071
0.000776332463
0.000896676102
0.00613147853
0.00663172912
0.00114829467
0.000859323942
0.0062221037
0.00664979961
0.00113793354
0.000849849975
0.00619184579
0.00656658406
0.00107476629
0.000817881066
0.00641650359
0.00762476021
0.0068333477
0.000933997609
0.00080070535
0.006217383
0.00662375963
0.00135818949
0.000787693685
0.00630449223
0.00666567047
0.00129982887
0.000793234925
0.00625833083
0.00661956042
0.00119582873
0.000822566839
0.00606241233
0.00643647734
0.00109434609
0.000835369403
0.00611035446
0.00731434164
0.00644880271
0.000798038144
0.00085968121
0.00584130283
0.00720877666
0.00639910119
0.000799316799
0.000851841496
0.0058695406
0.00722248642
0.00644249617
0.000873651227
0.000994533139
0.000998288269
0.000857736408
0.00597969169
0.00715207508
0.00712959824
0.00648153633
0.000825786294
0.000842258712
0.0056171026
0.0072594224
0.00661170713
0.000785246563
0.000871145376
0.0053204057
0.00711233044
0.00653162395
0.000802336029
0.000896732769
0.00509998026
0.00703975824
0.0065241822
0.00083717587
0.000906820181
0.00501027852
0.00707059719
0.00659093563
0.00121855117
0.000904063527
0.00497433838
0.00717166011
0.00673180777
0.00179398254
0.000887691289
0.00501021894
0.00741113898
0.00689258791
0.00218058953
0.000975000551
0.00099828983
0.000868344706
)
;

boundaryField
{
    closed
    {
        type            calculated;
        value           nonuniform List<scalar> 0();
    }
    open
    {
        type            calculated;
        value           nonuniform List<scalar> 0();
    }
    sides
    {
        type            empty;
    }
    procBoundary3to2
    {
        type            processor;
        value           uniform 0.00652254561;
    }
    procBoundary3to4
    {
        type            processor;
        value           uniform 0.00520925222;
    }
}


// ************************************************************************* //
