/*--------------------------------*- C++ -*----------------------------------*\
| =========                 |                                                 |
| \\      /  F ield         | OpenFOAM: The Open Source CFD Toolbox           |
|  \\    /   O peration     | Version:  2306                                  |
|   \\  /    A nd           | Website:  www.openfoam.com                      |
|    \\/     M anipulation  |                                                 |
\*---------------------------------------------------------------------------*/
FoamFile
{
    version     2.0;
    format      ascii;
    arch        "LSB;label=32;scalar=64";
    class       volScalarField;
    location    "0.0009";
    object      prefDZ_H2;
}
// * * * * * * * * * * * * * * * * * * * * * * * * * * * * * * * * * * * * * //

dimensions      [1 -1 -1 0 0 0 0];

internalField   nonuniform List<scalar> 
531
(
6.36195769e-05
6.35473118e-05
6.22983126e-05
6.15179292e-05
6.21804504e-05
6.36197132e-05
6.35419167e-05
6.2305164e-05
6.14047822e-05
6.19776297e-05
6.36153431e-05
6.35964585e-05
6.2390757e-05
6.20452337e-05
6.34953637e-05
6.36056467e-05
6.23274583e-05
6.21057188e-05
6.35729602e-05
6.35491999e-05
6.23317644e-05
6.12755157e-05
6.19215605e-05
6.36251462e-05
6.35577796e-05
6.22695117e-05
6.13513901e-05
6.22453361e-05
6.34996943e-05
6.3627526e-05
6.3465132e-05
6.36452616e-05
6.35217566e-05
6.22618417e-05
6.1746095e-05
6.18713153e-05
6.19596703e-05
6.17695256e-05
6.22424608e-05
6.36202408e-05
6.35640344e-05
6.22691e-05
6.14694094e-05
6.22198614e-05
6.34890359e-05
6.36570422e-05
6.34609476e-05
6.22517677e-05
6.13307895e-05
6.19041704e-05
6.3545685e-05
6.36430131e-05
6.2375292e-05
6.2107248e-05
6.33202957e-05
6.36230561e-05
6.23413993e-05
6.15581593e-05
6.13851664e-05
6.22957557e-05
6.34209045e-05
6.3594626e-05
6.34133535e-05
6.36182201e-05
6.35519346e-05
6.22279422e-05
6.16245086e-05
6.15229904e-05
6.21585516e-05
6.35497264e-05
6.35796453e-05
6.2285017e-05
6.16130532e-05
6.22666289e-05
6.35112552e-05
6.36027338e-05
6.22962455e-05
6.16693499e-05
6.23405611e-05
6.35051236e-05
6.35977053e-05
6.22878923e-05
6.16055244e-05
6.23267247e-05
6.34902618e-05
6.35952826e-05
6.22834063e-05
6.16068231e-05
6.23328072e-05
6.34750866e-05
6.35929993e-05
6.22824357e-05
6.16559023e-05
6.23253995e-05
6.34597736e-05
6.35864282e-05
6.22821655e-05
6.16868653e-05
6.23244577e-05
6.34418971e-05
6.35765987e-05
6.22818222e-05
6.16993087e-05
6.23314021e-05
6.34194175e-05
6.35648833e-05
6.22815993e-05
6.16713699e-05
6.23549795e-05
6.33949612e-05
6.35420253e-05
6.22669174e-05
6.16155431e-05
6.23284188e-05
6.31048476e-05
6.35899641e-05
6.35550864e-05
6.22677928e-05
6.17126079e-05
6.15933395e-05
6.23967039e-05
6.33477032e-05
6.35257395e-05
6.22633217e-05
6.16189812e-05
6.20913498e-05
6.3256604e-05
6.35694976e-05
6.23138568e-05
6.23868388e-05
6.28231591e-05
6.34614176e-05
6.22482105e-05
6.1646374e-05
6.22229539e-05
6.32398842e-05
6.35157008e-05
6.22584353e-05
6.16464604e-05
6.21048855e-05
6.31832703e-05
6.35415662e-05
6.230346e-05
6.23728688e-05
6.28143936e-05
6.34380499e-05
6.22384414e-05
6.1746045e-05
6.23406998e-05
6.32055554e-05
6.34878073e-05
6.22569561e-05
6.18261183e-05
6.2323522e-05
6.32166806e-05
6.34592488e-05
6.22517552e-05
6.18521124e-05
6.23087018e-05
6.32217754e-05
6.34263883e-05
6.22501784e-05
6.18763746e-05
6.22999564e-05
6.32272012e-05
6.34059363e-05
6.22403938e-05
6.17614682e-05
6.16783269e-05
6.22979039e-05
6.32869736e-05
6.33294347e-05
6.22950353e-05
6.23346408e-05
6.31540113e-05
6.3296747e-05
6.22410825e-05
6.18240562e-05
6.22675635e-05
6.3254584e-05
6.33013984e-05
6.22588178e-05
6.17808336e-05
6.22804646e-05
6.3298363e-05
6.2947858e-05
6.21403237e-05
6.17562957e-05
6.23583882e-05
6.34038062e-05
6.25147303e-05
6.23364918e-05
6.23848354e-05
6.34040855e-05
6.25787837e-05
6.19193195e-05
6.17873124e-05
6.263457e-05
6.34692515e-05
6.24982783e-05
6.18205091e-05
6.17794545e-05
6.2871609e-05
6.35099866e-05
6.2390773e-05
6.16866507e-05
6.17869505e-05
6.29183708e-05
6.35703161e-05
6.23303193e-05
6.22662623e-05
6.27236556e-05
6.35308234e-05
6.23276106e-05
6.15430845e-05
6.19235572e-05
6.33245868e-05
6.35403233e-05
6.23209233e-05
6.15276557e-05
6.19614329e-05
6.33740892e-05
6.35967146e-05
6.23172822e-05
6.21369137e-05
6.24097876e-05
6.36203043e-05
6.34964189e-05
6.20984999e-05
6.20782638e-05
6.23171332e-05
6.23560582e-05
6.23412373e-05
6.23279028e-05
6.23366561e-05
6.22928892e-05
6.21531624e-05
6.22558095e-05
6.36615347e-05
6.35723712e-05
6.2287713e-05
6.22241466e-05
6.25924074e-05
6.35629407e-05
6.23239946e-05
6.15240448e-05
6.17005744e-05
6.26425376e-05
6.35249242e-05
6.22987288e-05
6.1947512e-05
6.24343359e-05
6.35361244e-05
6.23029242e-05
6.19248766e-05
6.24390753e-05
6.3528075e-05
6.23140914e-05
6.20056073e-05
6.25038069e-05
6.35089146e-05
6.23217145e-05
6.15527803e-05
6.17250584e-05
6.25767936e-05
6.35108959e-05
6.23563373e-05
6.22067406e-05
6.25204965e-05
6.35104186e-05
6.235816e-05
6.16124964e-05
6.17847725e-05
6.26284135e-05
6.35056548e-05
6.23611766e-05
6.2289517e-05
6.25231995e-05
6.3506128e-05
6.23988197e-05
6.1657139e-05
6.18545616e-05
6.27780676e-05
6.3475444e-05
6.23828036e-05
6.17060235e-05
6.18706411e-05
6.26622383e-05
6.34956925e-05
6.23704624e-05
6.23391306e-05
6.25021838e-05
6.35064911e-05
6.24277471e-05
6.16852721e-05
6.18756924e-05
6.2768836e-05
6.34681992e-05
6.23899941e-05
6.17134362e-05
6.18780884e-05
6.26479826e-05
6.34870667e-05
6.23812962e-05
6.23514835e-05
6.24756797e-05
6.34985367e-05
6.24353e-05
6.1700097e-05
6.18954997e-05
6.27486879e-05
6.34601591e-05
6.23883878e-05
6.17339501e-05
6.19069305e-05
6.26389049e-05
6.34825022e-05
6.23969791e-05
6.23540233e-05
6.24832884e-05
6.34864329e-05
6.24304638e-05
6.17530439e-05
6.19871144e-05
6.28206276e-05
6.34473063e-05
6.23995947e-05
6.18014573e-05
6.20294955e-05
6.28449825e-05
6.34552814e-05
6.23829285e-05
6.1789836e-05
6.19672115e-05
6.26345204e-05
6.34918926e-05
6.24291878e-05
6.23262639e-05
6.24326368e-05
6.35812603e-05
6.32205897e-05
6.21291878e-05
6.20771732e-05
6.2245618e-05
6.20495603e-05
6.22721844e-05
6.3545581e-05
6.34676584e-05
6.23725236e-05
6.18710005e-05
6.19639572e-05
6.25122881e-05
6.34857425e-05
6.24405195e-05
6.22103193e-05
6.2362267e-05
6.35028561e-05
6.24439528e-05
6.21791556e-05
6.23896849e-05
6.34728837e-05
6.23805454e-05
6.16349572e-05
6.17650627e-05
6.25215291e-05
6.34776743e-05
6.2408172e-05
6.22166499e-05
6.24361938e-05
6.34623012e-05
6.23620921e-05
6.16588528e-05
6.17984815e-05
6.26166443e-05
6.34894732e-05
6.23722239e-05
6.22043516e-05
6.25016238e-05
6.34744629e-05
6.23246152e-05
6.15859518e-05
6.17704454e-05
6.27380597e-05
6.35205907e-05
6.23331963e-05
6.21314583e-05
6.26033246e-05
6.35061183e-05
6.22951996e-05
6.1407121e-05
6.1734696e-05
6.27748057e-05
6.35666092e-05
6.22965632e-05
6.19288603e-05
6.26485483e-05
6.35667159e-05
6.22832937e-05
6.19169889e-05
6.27252613e-05
6.35692197e-05
6.23002659e-05
6.19779701e-05
6.28772295e-05
6.35238688e-05
6.22859101e-05
6.12452833e-05
6.17707192e-05
6.30383082e-05
6.35884323e-05
6.23369712e-05
6.21012131e-05
6.29631645e-05
6.35705847e-05
6.23455077e-05
6.21688957e-05
6.3176779e-05
6.35212425e-05
6.22984935e-05
6.13587133e-05
6.19337965e-05
6.33334036e-05
6.35987263e-05
6.23672301e-05
6.23816586e-05
6.3274229e-05
6.3529693e-05
6.23118893e-05
6.1719854e-05
6.2327447e-05
6.33902919e-05
6.35583654e-05
6.2318351e-05
6.19118027e-05
6.18780355e-05
6.23710392e-05
6.34017026e-05
6.35225949e-05
6.22889872e-05
6.14345889e-05
6.20188535e-05
6.33136869e-05
6.35567538e-05
6.23633213e-05
6.21956453e-05
6.31639205e-05
6.35056806e-05
6.23687296e-05
6.21788624e-05
6.31660511e-05
6.34906509e-05
6.23742692e-05
6.22565153e-05
6.31876472e-05
6.34155258e-05
6.23073758e-05
6.12437567e-05
6.20078593e-05
6.32284931e-05
6.34461562e-05
6.23595015e-05
6.22031761e-05
6.30929717e-05
6.34179373e-05
6.23564344e-05
6.21640324e-05
6.31124891e-05
6.34289342e-05
6.2357959e-05
6.22070723e-05
6.31462628e-05
6.34593132e-05
6.23554067e-05
6.23770315e-05
6.31786089e-05
6.3430173e-05
6.22962994e-05
6.15453979e-05
6.23630208e-05
6.33131314e-05
6.3463337e-05
6.22878049e-05
6.16473491e-05
6.23665248e-05
6.33098988e-05
6.34627728e-05
6.22745985e-05
6.16374792e-05
6.23205625e-05
6.33255508e-05
6.34879853e-05
6.35172592e-05
6.3457561e-05
6.22743715e-05
6.17077942e-05
6.1730478e-05
6.23345049e-05
6.32661856e-05
6.3439548e-05
6.22668923e-05
6.16006557e-05
6.22131976e-05
6.32724899e-05
6.34518274e-05
6.22798036e-05
6.17414384e-05
6.22864939e-05
6.32758583e-05
6.34533011e-05
6.22961833e-05
6.18106569e-05
6.22933608e-05
6.32504548e-05
6.34509891e-05
6.23010967e-05
6.17821321e-05
6.22320458e-05
6.31231765e-05
6.3444663e-05
6.22955971e-05
6.16876507e-05
6.21023196e-05
6.29433277e-05
6.34353299e-05
6.22763511e-05
6.14610559e-05
6.19540422e-05
6.28309076e-05
6.34775138e-05
6.35429801e-05
6.34479668e-05
)
;

boundaryField
{
    closed
    {
        type            calculated;
        value           nonuniform List<scalar> 0();
    }
    open
    {
        type            calculated;
        value           nonuniform List<scalar> 0();
    }
    sides
    {
        type            empty;
    }
    procBoundary3to2
    {
        type            processor;
        value           uniform 6.22914551e-05;
    }
    procBoundary3to4
    {
        type            processor;
        value           uniform 6.22340416e-05;
    }
}


// ************************************************************************* //
