/*--------------------------------*- C++ -*----------------------------------*\
| =========                 |                                                 |
| \\      /  F ield         | OpenFOAM: The Open Source CFD Toolbox           |
|  \\    /   O peration     | Version:  2306                                  |
|   \\  /    A nd           | Website:  www.openfoam.com                      |
|    \\/     M anipulation  |                                                 |
\*---------------------------------------------------------------------------*/
FoamFile
{
    version     2.0;
    format      ascii;
    arch        "LSB;label=32;scalar=64";
    class       volScalarField;
    location    "0.00142";
    object      PV;
}
// * * * * * * * * * * * * * * * * * * * * * * * * * * * * * * * * * * * * * //

dimensions      [0 0 0 0 0 0 0];

internalField   nonuniform List<scalar> 
531
(
-0.00692770485
-0.007053425
-0.00714167109
-0.00715468017
-0.00715475627
-0.00718951531
-0.00718490298
-0.00693363546
-0.00693064266
-0.00693050599
-0.00711182297
-0.00715565584
-0.00693823199
-0.0069271529
-0.00714585037
-0.00716741361
-0.00694115806
-0.00692887501
-0.00716365844
-0.00717388722
-0.00694156133
-0.0069325261
-0.00693275168
-0.00714893773
-0.00717847141
-0.00694157239
-0.00693121786
-0.00715277729
-0.0071683145
-0.00698707812
-0.00693267595
-0.00693241543
-0.0070519859
-0.00720046546
-0.00720417017
-0.00701778844
-0.00693433625
-0.00692909938
-0.00713897179
-0.00717788944
-0.00696162585
-0.00693195794
-0.00693584884
-0.00704713693
-0.00719760462
-0.00719024413
-0.00694199821
-0.00693097387
-0.00710097135
-0.00715389311
-0.00718037423
-0.00719487488
-0.00704471322
-0.00693209065
-0.00692302805
-0.00692709748
-0.0071238584
-0.00714291297
-0.00693794404
-0.00706299762
-0.00719486641
-0.00693963552
-0.00693001765
-0.00714894424
-0.0071730188
-0.00694087925
-0.00692799557
-0.00714744315
-0.00716499987
-0.00694068717
-0.00692749308
-0.00714211749
-0.00716063631
-0.00693963872
-0.00692833934
-0.00713413232
-0.00715994181
-0.00693756978
-0.00693169535
-0.00704648428
-0.00717895568
-0.00717471596
-0.00693784606
-0.00692851778
-0.00710350841
-0.00715129264
-0.00720181054
-0.00720032048
-0.00697452758
-0.00693090849
-0.00693184998
-0.00693002349
-0.0069313377
-0.00703827076
-0.00713549547
-0.00718876981
-0.00718186747
-0.00694030945
-0.00692715486
-0.00715109192
-0.00716945243
-0.00694030104
-0.00692623383
-0.00715086239
-0.0071661128
-0.00694032699
-0.00692625345
-0.00714796231
-0.00716330073
-0.00694000008
-0.00692693833
-0.00714296072
-0.00716072235
-0.00693919899
-0.00692851342
-0.00713458103
-0.00716123016
-0.00693734949
-0.00693230614
-0.0070600337
-0.0071835576
-0.00717993075
-0.00693804134
-0.00693218249
-0.00708346705
-0.00720569247
-0.00720130832
-0.00693843325
-0.00693152307
-0.00693210759
-0.00712592249
-0.00716933518
-0.00693790705
-0.0069307328
-0.00713294173
-0.00717225106
-0.00693698025
-0.00693333949
-0.00708565918
-0.0072122179
-0.00720652069
-0.00693925926
-0.00693193697
-0.00693261689
-0.0071405446
-0.00717622201
-0.00693891557
-0.00692995491
-0.00716235911
-0.00716812517
-0.00693774599
-0.00693066261
-0.00693058141
-0.00713510156
-0.00717026533
-0.00693786673
-0.00692902854
-0.00713706493
-0.00715838726
-0.00693682736
-0.00692880825
-0.00710004889
-0.00714539335
-0.00719187422
-0.00718700108
-0.00693863418
-0.00692913147
-0.00716054591
-0.00716753592
-0.00693785733
-0.00693045319
-0.00693145852
-0.00713771393
-0.00717320938
-0.00693583635
-0.00693271577
-0.00708551244
-0.00720431245
-0.00719830568
-0.00693721323
-0.00693035305
-0.00693074528
-0.00713480464
-0.0071608477
-0.00693505036
-0.00692712093
-0.00705509363
-0.00714553964
-0.00715740051
-0.00715708288
-0.00719600369
-0.0071564526
-0.00693432572
-0.00692406271
-0.00693158776
-0.00692374451
-0.00692816881
-0.00710218925
-0.00715916486
-0.00720186288
-0.0072044775
-0.00698046512
-0.00693301964
-0.00693134005
-0.00693183223
-0.00710171011
-0.00716142457
-0.00693575192
-0.00693307404
-0.00705633728
-0.00718637563
-0.00718155573
-0.00693610298
-0.0069311131
-0.00709671957
-0.00721555437
-0.00721142522
-0.0069347125
-0.00693064223
-0.00693090396
-0.00713260912
-0.00717337551
-0.0069373088
-0.00692810742
-0.00715968877
-0.00716015782
-0.0069399032
-0.00692790022
-0.00693797494
-0.0070346484
-0.00719696533
-0.00718699287
-0.00693817247
-0.00692640718
-0.0071363456
-0.00715569442
-0.00693462067
-0.00692641707
-0.00708679072
-0.00713834398
-0.00717617293
-0.0071712466
-0.00693392793
-0.00692721105
-0.00711380152
-0.00715499153
-0.00720408163
-0.00720117108
-0.00694872986
-0.00693009607
-0.00693514763
-0.00692931314
-0.00693101993
-0.007115282
-0.00715599755
-0.00693369319
-0.0069317258
-0.00705915052
-0.00718457376
-0.00717939305
-0.00693487679
-0.00692996906
-0.00709489573
-0.00720485511
-0.00720075871
-0.00693386318
-0.00692963451
-0.00692972302
-0.00712036721
-0.00715979882
-0.00693441112
-0.00692912032
-0.00710454976
-0.00715038223
-0.00720277469
-0.00719865738
-0.00694451069
-0.00692992501
-0.0069365312
-0.00692828265
-0.00693224681
-0.00709783054
-0.00715226291
-0.0071999937
-0.00719933732
-0.00693506062
-0.00693077591
-0.00693092254
-0.00712775935
-0.00717376476
-0.00693613792
-0.00693076981
-0.00711396047
-0.00715822527
-0.00720524403
-0.00720237878
-0.0069595061
-0.00693220094
-0.0069366655
-0.00693099501
-0.00714466961
-0.00716394668
-0.00694302164
-0.00693478977
-0.00694161603
-0.00698775216
-0.00720078256
-0.00719404783
-0.00694585261
-0.00693025755
-0.00693766801
-0.00705761729
-0.00717080991
-0.00716396863
-0.00721570514
-0.00720918815
-0.00696131091
-0.00693017815
-0.0069335365
-0.00692915146
-0.00712153691
-0.00716487362
-0.0069361493
-0.00692977204
-0.00711943238
-0.00716024916
-0.00721449321
-0.00721207195
-0.00695220061
-0.00693074209
-0.00693415422
-0.00692914294
-0.00692993264
-0.00713737682
-0.00717831335
-0.00693402961
-0.00693071442
-0.00710529715
-0.0072104432
-0.00720418371
-0.00693552259
-0.00692808207
-0.00692829595
-0.00713002271
-0.00716464838
-0.00693326362
-0.00692758487
-0.00711560066
-0.0071576274
-0.00721215936
-0.00720789886
-0.00693885
-0.00692637123
-0.00693051608
-0.00692358553
-0.0069231509
-0.00692054561
-0.0071081107
-0.00717790858
-0.00721574176
-0.0072110801
-0.00692265627
-0.00690975088
-0.00691414032
-0.00690398361
-0.00713386152
-0.00715156341
-0.00690617516
-0.0068942488
-0.0068939618
-0.00703264928
-0.00713753053
-0.00689332215
-0.0068743986
-0.00711707359
-0.00712111347
-0.00688239284
-0.0068624492
-0.00686215998
-0.0070906464
-0.00711351487
-0.00686784276
-0.00684398581
-0.00684862125
-0.00683217034
-0.00683136608
-0.00681720468
-0.00681325947
-0.00679913532
-0.00679301639
-0.00677690739
-0.00676879118
-0.00675071026
-0.0067394054
-0.00671902033
-0.00670245306
-0.00667880898
-0.00665524606
-0.00661566606
-0.00657602143
-0.00654857714
-0.0065288426
-0.00649937277
-0.00647550669
-0.00644534028
-0.00641731839
-0.00638633336
-0.00635359731
-0.00632131294
-0.00627795175
-0.00623318943
-0.00614939774
-0.00608822619
-0.00603521622
-0.00597423834
-0.00591545546
-0.00585681181
-0.00579327096
-0.00573981063
-0.00568783278
-0.00563926836
-0.00558046744
-0.00552405068
-0.00545933158
-0.00539225753
-0.00529221811
-0.00500993258
-0.00493768845
-0.00486900703
-0.00477990652
-0.00471191835
-0.00459901532
-0.00452328015
-0.00439599869
-0.00431408814
-0.0041541197
-0.00402325005
-0.00381973702
-0.00363822584
-0.00344007468
-0.0032059914
-0.00300496621
-0.00263333549
-0.00248111079
-0.00220223525
-0.00197656371
-0.00144193836
-0.00121797984
-0.0012200002
-0.00104345669
-0.0007530883
-0.000585087289
-0.00030758556
-0.000147624706
0.000132780125
0.000299139529
0.000586389684
0.000753407566
0.00104089302
0.00120644026
0.00149093297
0.00165126382
0.00192966152
0.0020829018
0.00235350274
0.00249968183
0.00276311261
0.00290346051
0.00315923826
0.00327564904
0.00351520892
0.0036285021
0.00386194126
0.0039750936
0.00419938786
0.00431072596
0.00452115574
0.00462094542
0.0048139971
0.00490812664
0.00508573508
0.00517233213
0.00533392073
0.0054134705
0.00555808976
0.00562691794
0.00575836569
0.00580943933
0.0059246391
0.00599626409
0.00611419118
0.00608121355
0.0061231617
0.00629382656
0.00642148821
0.006206246
0.00621967861
0.00656037744
0.00669969639
0.00636021229
0.00639051274
0.00678214588
0.00685211655
0.0065819022
0.00656720572
0.00688632007
0.00690124731
0.00670630771
0.00666865104
0.00691106887
0.00693870875
0.00677703514
0.00674910164
0.0069257077
0.00696382396
0.00682226329
0.00679901727
0.00693979536
0.00697871252
0.00685369663
0.00683405952
0.00695371112
0.00698811795
0.00687610173
0.00685965825
0.00696645943
0.00699444188
0.00689199255
0.0068793204
0.00697899794
0.0069988549
)
;

boundaryField
{
    closed
    {
        type            zeroGradient;
    }
    open
    {
        type            zeroGradient;
    }
    sides
    {
        type            empty;
    }
    procBoundary4to3
    {
        type            processor;
        value           uniform -0.00693711557;
    }
    procBoundary4to5
    {
        type            processor;
        value           uniform 0.00690557427;
    }
}


// ************************************************************************* //
