/*--------------------------------*- C++ -*----------------------------------*\
| =========                 |                                                 |
| \\      /  F ield         | OpenFOAM: The Open Source CFD Toolbox           |
|  \\    /   O peration     | Version:  2306                                  |
|   \\  /    A nd           | Website:  www.openfoam.com                      |
|    \\/     M anipulation  |                                                 |
\*---------------------------------------------------------------------------*/
FoamFile
{
    version     2.0;
    format      ascii;
    arch        "LSB;label=32;scalar=64";
    class       volScalarField;
    location    "0.00156";
    object      sourcePV;
}
// * * * * * * * * * * * * * * * * * * * * * * * * * * * * * * * * * * * * * //

dimensions      [1 -3 -1 0 0 0 0];

internalField   nonuniform List<scalar> 
530
(
0.0428145933
0.079794106
0.0817531963
0.0815522793
0.0815309832
0.0815304631
0.0815304437
0.0815304429
0.0815304428
0.0815304428
0.0815304428
0.0815304428
0.0815304428
0.0815304428
0.0815304428
0.0815304428
0.0815304428
0.0815304428
0.0815304428
0.0815304428
0.0815304428
0.0815304428
0.0815304428
0.0815304428
0.0815304428
0.0815304428
0.0815304428
0.0815304428
0.0815304428
0.0815304428
0.0815304428
0.0815304428
0.0815304428
0.0815304428
0.0815304428
0.0815304428
0.0815304428
0.0815304428
0.0815304428
0.0815304428
0.0815304428
0.0815304428
0.0815304428
0.0815304428
0.0815304428
0.0815304428
0.0815304428
0.0815304428
0.0815304428
0.0815304428
0.0815304428
0.0815304428
0.0815304428
0.0815304428
0.0815304428
0.0815304428
0.0815304428
0.0815304428
0.0815304428
0.0815304428
0.0815304429
0.0815304431
0.0815304436
0.0815304447
0.0815304482
0.0815304556
0.081530473
0.0815305138
0.0815305046
0.0815305214
0.0815315881
0.0815315989
0.0815280922
0.0815338507
0.0815464467
0.0815305172
0.0815149098
0.0815439845
0.0815762237
0.0815479839
0.0815025079
0.0814190334
0.0814594791
0.0820833502
0.0840203341
0.0841506559
0.079039543
0.071114862
0.071728474
0.0990878667
0.128334168
0.143242403
0.140580603
0.0252548895
0.00505036415
0.00474151346
0.00521376004
0.0394449368
0.139939364
0.148300542
0.145874051
0.147298202
0.15095902
0.152063252
0.0646528861
0.00538541342
0.00591603281
0.00527332176
0.00620430288
0.00557439401
0.110391336
0.152053928
0.145150662
0.149033035
0.150167367
0.152033321
0.0693155633
0.00546379963
0.00591506495
0.0053297759
0.0060090501
0.00553181715
0.079839279
0.151675986
0.14911736
0.151204533
0.146910217
0.15431647
0.105598244
0.00476639807
0.00645255182
0.00259311245
0.14694099
0.16784439
0.15256565
0.0586075856
0.0058275692
0.00622330481
0.00478917463
0.135151324
0.155959268
0.15142525
0.082604651
0.00587466188
0.00472762376
0.150196469
0.154026341
0.0641145704
0.0056109619
0.0366057085
0.131886139
0.10166511
0.0061205591
0.00431536329
0.152506509
0.153386624
0.0710940574
0.00572151204
0.00325156406
0.158256588
0.158733391
0.0825347261
0.00566124278
0.00615773447
0.0122345887
0.151539527
0.1509872
0.0494478839
0.00558946094
0.00952559739
0.153536313
0.150387619
0.0469243411
0.00556092136
0.00677055952
0.160878932
0.161403366
0.148875592
0.157236724
0.137304352
0.00960831714
0.00510739254
0.0634358377
0.15258769
0.116868371
0.00544953208
0.00476086155
0.0925381935
0.153468428
0.119792435
0.00496786898
0.00515860047
0.068111061
0.166010659
0.166896646
0.125450701
0.00499959452
0.00494687582
0.101222478
0.12903187
0.0524348736
0.00524383733
0.0800154557
0.138630828
0.0665896867
0.00477557263
0.0815124727
0.167476862
0.126735726
0.00501658989
0.00417887491
0.138228063
0.142638293
0.0163947588
0.00441286511
0.1175826
0.15145719
0.0518409348
0.00437668835
0.100755664
0.172815563
0.1232518
0.00542793741
0.00421917907
0.148972654
0.150522738
0.024323468
0.00431127292
0.115211773
0.172064985
0.124747885
0.0054323196
0.00290315315
0.147440098
0.133765706
0.00536072929
0.00289976122
0.147974941
0.133534026
0.00535373543
0.00278229967
0.14932692
0.133605426
0.00536508682
0.00290864497
0.151816535
0.136546647
0.00515532941
0.00477844844
0.146033253
0.17188657
0.125260926
0.00507322947
0.00388210998
0.141568639
0.135801264
0.00499953564
0.00406536301
0.140604204
0.13399049
0.00465877065
0.0052090126
0.132512872
0.169417813
0.135370398
0.00374889593
0.0041068767
0.124946739
0.134569285
0.0115455655
0.0050569576
0.114394537
0.166770634
0.150528042
0.00804911597
0.00416938985
0.108386149
0.133816221
0.0328710917
0.00412672201
0.104152262
0.130479222
0.0364775812
0.00475660313
0.0933518435
0.161373778
0.161183267
0.0233850261
0.00436253615
0.0924789243
0.126860963
0.0452707252
0.0047929197
0.0834586452
0.147251935
0.149032019
0.156182356
0.155333018
0.0380485201
0.0045765838
0.0845450813
0.12365397
0.0466057861
0.00499548398
0.0721586526
0.147505475
0.150027274
0.0276432236
0.00522759654
0.067792346
0.146320212
0.149558871
0.0298765617
0.00520472218
0.0707513806
0.149371226
0.151880963
0.028739996
0.00531418178
0.0661399268
0.145315312
0.14729394
0.0262923222
0.00551545998
0.0587274433
0.140000678
0.143646907
0.0271909468
0.0056378625
0.0559837746
0.134507963
0.153976677
0.153650587
0.0360416469
0.00531022667
0.0821761522
0.122764764
0.0416423448
0.00546050435
0.0731527233
0.150565169
0.150549256
0.0217001794
0.00540310259
0.0739426295
0.151395132
0.150470739
0.0208988674
0.00533617435
0.077308947
0.153676421
0.151317581
0.0180466452
0.00529968421
0.0800011788
0.15473538
0.151153409
0.015139486
0.00540165267
0.0833161959
0.145735616
0.156327994
0.153386434
0.0312063816
0.0052666535
0.0952871875
0.128506179
0.032392946
0.00530064983
0.0888516584
0.15914415
0.153351197
0.0124451623
0.00531727996
0.0997859121
0.126872216
0.0244448247
0.00529877045
0.0936905883
0.161741698
0.153686955
0.00591852182
0.00528968317
0.105728509
0.130276362
0.0212740448
0.00525570533
0.0994118755
0.166700394
0.156624341
0.00263221481
0.00532032395
0.11060606
0.1334565
0.0175244892
0.00533730437
0.101948701
0.168485328
0.156943832
0.00318728543
0.00546540983
0.113041691
0.13437425
0.013096804
0.00545514481
0.10239544
0.169132709
0.156924033
0.00444166207
0.00525569731
0.103542617
0.169200352
0.156523373
0.00459315442
0.00526875886
0.10350684
0.169398406
0.157045474
0.00393299256
0.0056547829
0.116110774
0.137593701
0.00853788489
0.00590754642
0.117849285
0.136749732
0.00273649719
0.00557196582
0.105308727
0.170320384
0.159884374
0.0043734874
0.0058015104
0.11844563
0.137468013
0.00263984118
0.00613643133
0.119572521
0.134886536
0.00360253508
0.00585693413
0.100550519
0.163253841
0.156311924
0.00519849532
0.0058634711
0.0915969397
0.145347845
0.142883532
0.161562639
0.157013338
0.00515107805
0.00566037858
0.0925667987
0.160984775
0.152458376
0.00533386526
0.00568665044
0.0924609547
0.163802928
0.152498649
0.00491808262
0.00611332346
0.117632369
0.135109682
0.0033255289
0.00625744476
0.120319829
0.13811197
0.00290691087
0.00607608382
0.122677127
0.139530927
0.0035534803
0.0055499349
0.105378459
0.171013109
0.157811884
0.00503209725
0.00518382791
0.104209175
0.169511048
0.152851575
0.0051765993
0.00505686442
0.105289886
0.168172372
0.148151737
0.00528652828
0.00488142089
0.106985217
0.168106323
0.143222956
0.00527910658
0.00437222882
0.126131045
0.125521166
0.00468287906
0.00473505354
0.115755408
0.167552886
0.137349301
0.00531506393
0.0034696457
0.126843267
0.121482983
0.00476864013
0.00434775434
0.120561792
0.165575347
0.13075671
0.0055357599
0.00393836066
0.116436761
0.169910763
0.126896926
0.00529827442
0.00616055922
0.00338172818
0.108322641
0.153680212
0.152429132
0.168688982
0.131922338
0.00520740153
0.00599041931
0.00299214466
0.1093334
0.162955165
0.11777991
)
;

boundaryField
{
    closed
    {
        type            calculated;
        value           uniform 0;
    }
    open
    {
        type            calculated;
        value           nonuniform List<scalar> 0();
    }
    sides
    {
        type            empty;
    }
    procBoundary0to1
    {
        type            processor;
        value           uniform 0;
    }
}


// ************************************************************************* //
