/*--------------------------------*- C++ -*----------------------------------*\
| =========                 |                                                 |
| \\      /  F ield         | OpenFOAM: The Open Source CFD Toolbox           |
|  \\    /   O peration     | Version:  2306                                  |
|   \\  /    A nd           | Website:  www.openfoam.com                      |
|    \\/     M anipulation  |                                                 |
\*---------------------------------------------------------------------------*/
FoamFile
{
    version     2.0;
    format      ascii;
    arch        "LSB;label=32;scalar=64";
    class       volScalarField;
    location    "0.00156";
    object      T;
}
// * * * * * * * * * * * * * * * * * * * * * * * * * * * * * * * * * * * * * //

dimensions      [0 0 0 1 0 0 0];

internalField   nonuniform List<scalar> 
530
(
358.557004
333.999917
329.687102
329.583116
329.573813
329.573386
329.573354
329.573353
329.573353
329.573353
329.573353
329.573353
329.573353
329.573353
329.573353
329.573353
329.573353
329.573353
329.573353
329.573353
329.573353
329.573353
329.573353
329.573353
329.573353
329.573353
329.573353
329.573353
329.573353
329.573353
329.573353
329.573353
329.573353
329.573353
329.573353
329.573353
329.573353
329.573353
329.573353
329.573353
329.573353
329.573353
329.573353
329.573353
329.573353
329.573353
329.573353
329.573353
329.573353
329.573353
329.573353
329.573353
329.573353
329.573353
329.573353
329.573353
329.573353
329.573353
329.573353
329.573353
329.573353
329.573353
329.573354
329.573356
329.573361
329.573373
329.573396
329.573441
329.573524
329.573765
329.574005
329.574795
329.575901
329.577405
329.579174
329.584182
329.589187
329.593861
329.602043
329.612693
329.623247
329.641734
329.649222
329.632391
329.560287
329.573385
329.826929
330.320762
330.273468
329.294223
329.19716
326.712732
327.097168
334.955844
339.858394
339.454909
339.96121
333.137049
327.184926
325.724728
326.091848
325.877572
325.118257
325.001129
330.713376
339.826535
340.42408
339.937934
340.491614
340.071745
328.872565
325.000825
326.121323
325.593595
325.227308
325.023424
330.372741
339.89967
340.425246
339.97962
340.430296
339.962915
329.735375
325.02907
325.392336
325.173297
325.773367
324.678648
328.865867
339.188628
340.430148
338.350265
325.83637
322.117779
324.817646
331.260811
340.171088
340.241289
339.507921
328.037846
324.2458
324.989178
329.762194
340.300784
339.653514
325.319755
324.563771
330.85957
339.894073
333.523463
328.555946
329.225291
340.498953
339.279005
324.870692
324.664784
330.384317
340.127097
338.83606
323.846606
323.862992
329.669156
339.69777
340.172343
336.775604
325.109557
325.358019
332.094478
339.661459
337.183061
324.795908
325.381566
332.330618
339.666976
337.581215
323.449888
323.408997
325.628087
324.200599
327.539098
336.807143
339.310063
330.791553
324.957136
328.85776
340.344651
338.952716
329.151631
324.892774
328.65572
339.979707
339.403398
330.539107
322.390323
322.272973
328.60389
340.042289
339.464182
329.187328
329.122682
331.813277
339.712999
329.644581
327.428656
330.647481
339.421777
329.469098
322.111114
328.504221
340.165786
339.21911
327.751453
326.798639
336.005193
339.186466
329.05461
325.209178
331.856645
339.196271
328.740268
321.069371
328.525521
340.190644
339.442192
325.723964
325.413966
334.912582
339.097518
328.961803
321.244409
328.986312
339.896949
338.924532
325.924095
328.617421
340.078216
338.56195
325.850706
328.704509
340.055649
338.498623
325.555072
328.701631
340.02365
338.625442
325.065131
328.074873
340.054232
339.69626
326.117205
321.298127
329.474982
339.490459
339.730236
326.831578
328.329383
339.534282
339.616439
326.899369
328.615745
339.281731
339.994146
328.210975
321.775433
328.185184
338.455544
339.780504
328.457205
328.406828
336.479655
339.841089
328.499568
322.288749
325.470001
336.949365
339.699257
328.491037
328.543295
333.835712
339.48858
328.549289
329.070636
333.443344
339.54672
329.011608
323.297786
323.422312
334.996644
339.803164
328.954688
329.462125
332.505083
339.445013
329.554999
325.899337
325.534295
324.287667
324.513835
333.280012
339.77777
329.413361
329.394208
332.370953
339.523092
330.272275
325.886714
325.437668
334.502086
339.830714
330.591403
326.067077
325.508795
334.252014
339.84286
330.378473
325.511946
325.064404
334.402813
339.873252
330.715181
326.270403
325.906505
334.703942
339.920698
331.290013
327.242547
326.564787
334.568518
340.010216
331.528945
328.099014
324.688473
324.737826
333.538032
340.1441
329.673181
329.248826
332.900524
339.888427
330.237987
325.353884
325.288461
335.310222
339.876116
330.230105
325.186902
325.299608
335.426391
339.823218
330.037589
324.766584
325.132103
335.818963
339.757303
329.894119
324.588567
325.134375
336.183393
339.852593
329.809752
326.166491
324.227426
324.73882
334.115969
339.984507
329.252312
329.247335
333.977091
339.680057
329.496193
323.775535
324.692952
336.569322
339.949073
329.369549
329.311816
334.968715
339.641937
329.391216
323.291093
324.615287
337.536899
339.934392
329.378013
328.933161
335.407658
339.631599
329.262305
322.332969
324.051576
338.296725
339.97114
329.46051
328.374044
335.93415
339.668803
329.250792
321.98819
323.986258
338.828946
340.061756
329.58931
328.214604
336.569048
339.75168
329.306886
321.838846
324.046387
339.88085
339.632924
329.380521
321.824238
324.141122
339.981491
339.615295
329.331603
321.806023
323.981929
339.445238
340.185883
329.742177
327.538872
337.234993
340.330422
329.735077
327.73715
338.814906
339.810441
329.355392
321.595277
323.438289
339.742363
340.287157
329.841574
327.510595
338.544578
340.446315
329.893409
328.028589
339.528217
339.988818
329.433831
322.899386
324.171287
340.225715
339.956593
329.490067
326.295735
326.698519
323.258361
324.087515
340.242433
339.714064
329.502133
323.355424
324.920324
340.351988
339.716713
329.436068
322.853915
324.797107
340.115317
340.352834
329.84476
327.860013
339.155108
340.486979
330.047815
327.297893
338.86378
340.346876
330.024124
327.161206
339.617948
339.764942
329.406365
321.410037
323.843142
340.29563
339.490685
329.265529
321.707626
324.742988
340.312063
339.34273
329.224194
321.960784
325.564852
340.354515
339.153975
329.105771
321.987135
326.303572
340.23293
338.829557
329.762184
328.779111
340.206378
338.964332
329.266899
322.077507
327.267732
340.234702
338.108643
329.718139
328.714189
340.194355
338.73487
329.404571
322.430601
328.481685
340.417942
338.342291
328.920843
321.672981
328.259823
340.191606
340.126811
337.937914
328.999013
324.891597
324.864096
321.927137
328.095297
340.032412
340.001303
337.594484
328.878105
323.07697
328.409514
)
;

boundaryField
{
    closed
    {
        type            fixedValue;
        value           uniform 400;
    }
    open
    {
        type            zeroGradient;
    }
    sides
    {
        type            empty;
    }
    procBoundary0to1
    {
        type            processor;
        value           uniform 340.124996;
    }
}


// ************************************************************************* //
