/*--------------------------------*- C++ -*----------------------------------*\
| =========                 |                                                 |
| \\      /  F ield         | OpenFOAM: The Open Source CFD Toolbox           |
|  \\    /   O peration     | Version:  2306                                  |
|   \\  /    A nd           | Website:  www.openfoam.com                      |
|    \\/     M anipulation  |                                                 |
\*---------------------------------------------------------------------------*/
FoamFile
{
    version     2.0;
    format      ascii;
    arch        "LSB;label=32;scalar=64";
    class       volScalarField;
    location    "0.00136";
    object      mu;
}
// * * * * * * * * * * * * * * * * * * * * * * * * * * * * * * * * * * * * * //

dimensions      [1 -1 -1 0 0 0 0];

internalField   nonuniform List<scalar> 
531
(
1.95072647e-05
2.02618586e-05
2.02951171e-05
2.02798328e-05
2.02954623e-05
2.02998813e-05
1.9675054e-05
1.94293276e-05
1.9493425e-05
1.97813816e-05
2.02903224e-05
1.98742027e-05
1.95351198e-05
1.97663452e-05
2.0289035e-05
2.0270299e-05
2.02950921e-05
2.02878298e-05
1.96011974e-05
1.94124391e-05
1.95558909e-05
1.94399784e-05
1.97629666e-05
2.02376312e-05
2.03010613e-05
2.01934526e-05
1.94533948e-05
1.94124568e-05
2.02769854e-05
2.02846108e-05
1.96293839e-05
1.96280354e-05
2.03018975e-05
2.02872397e-05
1.9910156e-05
1.94934871e-05
1.9548939e-05
2.03074774e-05
2.02948996e-05
1.98265465e-05
1.96756176e-05
1.96085132e-05
1.96320284e-05
1.94603701e-05
1.96153313e-05
2.02968556e-05
2.03119975e-05
2.02951378e-05
2.0316343e-05
2.02883338e-05
1.97774496e-05
1.95366483e-05
1.9574398e-05
1.94641015e-05
1.97659995e-05
2.02903121e-05
1.99823642e-05
1.95738686e-05
1.97562087e-05
2.03088482e-05
2.03128085e-05
1.9751564e-05
1.95355987e-05
1.97765332e-05
2.03030517e-05
2.03117069e-05
1.9709457e-05
1.94634813e-05
1.96039255e-05
1.93981655e-05
1.95262918e-05
2.02831167e-05
2.02995512e-05
2.02831454e-05
2.03071245e-05
2.02803997e-05
1.97129015e-05
1.94306764e-05
1.9747868e-05
2.0291889e-05
2.03206702e-05
1.96870754e-05
1.94061686e-05
1.97561856e-05
2.02989002e-05
2.03076915e-05
1.96979099e-05
1.93632315e-05
1.95490475e-05
2.02825673e-05
2.02909425e-05
1.99650589e-05
1.96670828e-05
1.96800305e-05
2.03093568e-05
2.03000658e-05
1.97105685e-05
1.95210935e-05
1.94836156e-05
1.95307074e-05
2.03015564e-05
2.0301708e-05
1.95737951e-05
1.95341098e-05
2.02809538e-05
2.02960711e-05
1.95709565e-05
1.95826466e-05
2.02816443e-05
2.03007446e-05
2.0278502e-05
1.97467157e-05
1.93793056e-05
1.97316917e-05
2.02897381e-05
2.0308971e-05
1.97539171e-05
1.94643116e-05
1.9739661e-05
2.02812471e-05
2.03263199e-05
1.96214885e-05
1.96077505e-05
2.02811149e-05
2.02945092e-05
2.0286384e-05
1.97629541e-05
1.95339229e-05
1.96189314e-05
1.95960134e-05
1.94298706e-05
1.94493255e-05
2.02997197e-05
2.02906763e-05
1.980827e-05
1.96518987e-05
1.97524263e-05
2.02967317e-05
2.03358374e-05
1.97114526e-05
1.96624939e-05
2.02865903e-05
2.03243791e-05
1.96762211e-05
1.96582925e-05
2.02861479e-05
2.02949805e-05
2.02993404e-05
1.99005773e-05
1.96600379e-05
1.95995933e-05
1.96289169e-05
1.95496316e-05
1.97387725e-05
2.02893252e-05
2.03244169e-05
1.98180317e-05
1.96680791e-05
1.95235018e-05
1.95915354e-05
2.02955576e-05
2.03087356e-05
1.98428855e-05
1.96264639e-05
1.97509916e-05
2.0292479e-05
2.03269581e-05
1.96206825e-05
1.95538378e-05
2.02610661e-05
2.02807483e-05
2.02921774e-05
2.02962451e-05
1.97464519e-05
1.95017058e-05
1.96157579e-05
1.95277678e-05
1.97502118e-05
2.02814141e-05
2.03130602e-05
1.97755035e-05
1.94439005e-05
1.94322503e-05
1.98151233e-05
2.02784723e-05
2.03014315e-05
1.99352226e-05
1.9681449e-05
1.97709718e-05
2.02834201e-05
2.02960099e-05
1.9812518e-05
1.9640831e-05
1.94425627e-05
1.94100657e-05
1.99272191e-05
2.02807916e-05
2.02949448e-05
2.02931403e-05
1.97759318e-05
1.94835903e-05
1.93041189e-05
1.9314771e-05
2.03013829e-05
2.02816095e-05
1.97691411e-05
1.95118307e-05
1.97912183e-05
2.02927325e-05
1.97778839e-05
1.95406482e-05
2.02849503e-05
2.03016794e-05
1.96944709e-05
1.95840681e-05
2.03037983e-05
2.02982457e-05
1.97056455e-05
1.96169057e-05
2.03138548e-05
2.02809142e-05
1.97913249e-05
1.94281066e-05
1.94651993e-05
2.03145937e-05
2.0271781e-05
1.97870182e-05
1.93585767e-05
1.94209444e-05
2.03020218e-05
2.02886755e-05
1.97030339e-05
1.95708217e-05
2.03213282e-05
2.02731414e-05
1.97710566e-05
1.93286957e-05
1.93961915e-05
2.02941308e-05
2.02973051e-05
1.96656832e-05
1.95479415e-05
2.03044287e-05
2.02993534e-05
1.96585328e-05
1.95904943e-05
2.0306487e-05
2.02951398e-05
1.96952281e-05
1.96296549e-05
2.03160942e-05
2.02760802e-05
1.97805459e-05
1.94058374e-05
1.94731543e-05
2.03041327e-05
2.02983173e-05
1.97466376e-05
1.96463246e-05
2.03192497e-05
2.03049622e-05
1.97885682e-05
1.96932453e-05
1.95411374e-05
1.95782684e-05
2.02691384e-05
2.02806563e-05
2.01560837e-05
1.96214822e-05
1.96000857e-05
2.02992389e-05
2.0289208e-05
1.98950768e-05
1.9738998e-05
1.95971567e-05
1.95948927e-05
1.94068206e-05
1.94417097e-05
2.01204302e-05
2.02856778e-05
2.02676064e-05
2.02884322e-05
2.0280379e-05
2.02859009e-05
1.98089803e-05
1.95516442e-05
1.93635425e-05
1.9394914e-05
2.02147792e-05
2.02733775e-05
1.97813224e-05
1.9353011e-05
1.94256761e-05
2.02550768e-05
2.02761005e-05
1.98715063e-05
1.96515363e-05
1.96209094e-05
1.93570696e-05
1.93771715e-05
2.00858306e-05
2.02894851e-05
2.02730411e-05
2.02960664e-05
2.0279572e-05
1.98253878e-05
1.96360592e-05
1.96490851e-05
1.95295476e-05
1.95917392e-05
2.02863385e-05
2.03163161e-05
1.97870388e-05
1.97063258e-05
2.02921479e-05
2.03131004e-05
2.02634237e-05
1.97848298e-05
1.9434584e-05
1.94600589e-05
2.02823299e-05
2.02894827e-05
1.97900588e-05
1.94330052e-05
1.94547642e-05
2.0284846e-05
2.02839832e-05
1.98025567e-05
1.94836923e-05
1.9498688e-05
2.02814711e-05
2.02856325e-05
1.98100655e-05
1.95063638e-05
1.95141527e-05
2.02813168e-05
2.02910085e-05
1.97987468e-05
1.94930231e-05
1.94999984e-05
2.02867169e-05
2.02940439e-05
1.97767831e-05
1.9403166e-05
1.94163244e-05
2.02807946e-05
2.03271618e-05
1.96733075e-05
1.94744807e-05
2.02898537e-05
2.03463575e-05
1.95014833e-05
1.9358269e-05
2.02732302e-05
2.03705953e-05
2.02737036e-05
2.03880637e-05
2.01976802e-05
1.95524747e-05
1.94261888e-05
1.93249689e-05
1.93261408e-05
2.04160465e-05
2.04812957e-05
2.04776196e-05
1.95379776e-05
1.92654981e-05
2.0326212e-05
2.043133e-05
2.04015564e-05
2.04114078e-05
1.93461655e-05
1.91216353e-05
2.02095885e-05
2.03241004e-05
2.02653539e-05
2.02905763e-05
2.02604431e-05
2.02658494e-05
2.02486538e-05
2.02526157e-05
2.02434051e-05
2.02506995e-05
2.02522095e-05
2.02664178e-05
2.02815153e-05
2.03073286e-05
2.03471461e-05
2.04082434e-05
2.05221469e-05
2.07347708e-05
2.05971769e-05
2.04984996e-05
2.03838585e-05
2.02921259e-05
2.02070862e-05
2.01351839e-05
2.0078805e-05
2.00236988e-05
1.99416223e-05
1.98962435e-05
1.99210988e-05
1.98272547e-05
1.9778233e-05
1.97144128e-05
1.96851861e-05
1.96504753e-05
1.96239605e-05
1.95023066e-05
1.93515958e-05
1.92465918e-05
1.91227503e-05
1.92466407e-05
2.04562727e-05
2.02361114e-05
1.99878147e-05
1.97635159e-05
1.95222627e-05
1.92814607e-05
1.90558478e-05
1.87799226e-05
1.8570888e-05
1.84011392e-05
1.86751049e-05
1.88429383e-05
1.85548839e-05
1.88445926e-05
2.06547151e-05
2.08434627e-05
2.18463041e-05
2.39300564e-05
2.43248027e-05
2.50463066e-05
2.6126575e-05
2.69411971e-05
2.80539122e-05
2.93277911e-05
3.11820673e-05
3.28522471e-05
3.49797674e-05
3.61230842e-05
3.80896668e-05
3.95396173e-05
4.07095375e-05
4.17938592e-05
4.26814951e-05
4.37470838e-05
4.45764696e-05
4.56056632e-05
4.63194837e-05
4.71270263e-05
4.76443584e-05
4.82538254e-05
4.87145793e-05
4.92556347e-05
4.96690733e-05
5.01479302e-05
5.0513043e-05
5.09364681e-05
5.12717135e-05
5.16465004e-05
5.19515211e-05
5.22821294e-05
5.25730383e-05
5.28759318e-05
5.31443761e-05
5.34494519e-05
5.37178504e-05
5.39962464e-05
5.42266771e-05
5.44894012e-05
5.46512407e-05
5.48315051e-05
5.49795091e-05
5.51568481e-05
5.52949935e-05
5.54659258e-05
5.56026349e-05
5.57840261e-05
5.5931124e-05
5.61032451e-05
5.62293799e-05
5.63788145e-05
5.64936542e-05
5.66184403e-05
5.67177312e-05
5.68317936e-05
5.69283866e-05
5.70377588e-05
5.71252881e-05
5.72199501e-05
5.73017172e-05
5.7391352e-05
5.74705238e-05
5.75581412e-05
5.76533675e-05
5.77525246e-05
5.78400832e-05
5.792801e-05
5.80018652e-05
5.80794142e-05
5.81490073e-05
5.822169e-05
5.82863599e-05
5.83518591e-05
5.841161e-05
5.84750034e-05
5.85330295e-05
5.85946942e-05
5.86501162e-05
5.87065502e-05
5.87580943e-05
5.88127018e-05
5.88626176e-05
5.8915549e-05
5.89666759e-05
5.90246151e-05
5.90778654e-05
5.9133611e-05
5.91836434e-05
5.92360095e-05
5.92830574e-05
5.93324344e-05
5.93768419e-05
5.94235643e-05
5.9465637e-05
5.95099943e-05
5.95500117e-05
5.95888928e-05
5.96238646e-05
5.96611353e-05
)
;

boundaryField
{
    closed
    {
        type            calculated;
        value           nonuniform List<scalar> 0();
    }
    open
    {
        type            calculated;
        value           nonuniform List<scalar> 0();
    }
    sides
    {
        type            empty;
    }
    procBoundary4to3
    {
        type            processor;
        value           uniform 1.94151637e-05;
    }
    procBoundary4to5
    {
        type            processor;
        value           uniform 5.96947595e-05;
    }
}


// ************************************************************************* //
