/*--------------------------------*- C++ -*----------------------------------*\
| =========                 |                                                 |
| \\      /  F ield         | OpenFOAM: The Open Source CFD Toolbox           |
|  \\    /   O peration     | Version:  2306                                  |
|   \\  /    A nd           | Website:  www.openfoam.com                      |
|    \\/     M anipulation  |                                                 |
\*---------------------------------------------------------------------------*/
FoamFile
{
    version     2.0;
    format      ascii;
    arch        "LSB;label=32;scalar=64";
    class       volScalarField;
    location    "0.00136";
    object      prefDPV_T;
}
// * * * * * * * * * * * * * * * * * * * * * * * * * * * * * * * * * * * * * //

dimensions      [1 -1 -1 -1 0 0 0];

internalField   nonuniform List<scalar> 
531
(
5.89532272e-10
6.10235992e-10
6.08562608e-10
6.09956834e-10
6.08455802e-10
6.09378716e-10
5.90499081e-10
5.89172125e-10
5.89416656e-10
5.95522278e-10
6.09049321e-10
6.01014347e-10
5.89680343e-10
5.93108663e-10
6.09111555e-10
6.09491129e-10
6.08694641e-10
6.10407696e-10
5.89986294e-10
5.89403591e-10
5.89727233e-10
5.89505108e-10
5.94281106e-10
6.10391413e-10
6.08338958e-10
6.11772844e-10
5.8907461e-10
5.89240881e-10
6.09878477e-10
6.09055915e-10
5.90367992e-10
5.9042657e-10
6.09804239e-10
6.08670013e-10
6.02485416e-10
5.894019e-10
5.89855627e-10
6.08891896e-10
6.08468062e-10
5.98701935e-10
5.90557618e-10
5.902735e-10
5.90240006e-10
5.89346241e-10
5.90086966e-10
6.09214824e-10
6.08187289e-10
6.09104146e-10
6.08039611e-10
6.08902602e-10
5.96176562e-10
5.89823622e-10
5.89702245e-10
5.89351295e-10
5.9498845e-10
6.08925874e-10
6.05131195e-10
5.89959074e-10
5.91108599e-10
6.08331102e-10
6.08331714e-10
5.91389988e-10
5.89635583e-10
5.95768375e-10
6.0845777e-10
6.08700561e-10
5.9077635e-10
5.89466505e-10
5.90130945e-10
5.89160888e-10
5.89614377e-10
6.09603138e-10
6.08500673e-10
6.09607211e-10
6.0822885e-10
6.09380798e-10
5.90642964e-10
5.89261083e-10
5.93191106e-10
6.08870513e-10
6.08605591e-10
5.90646853e-10
5.88923561e-10
5.91185992e-10
6.08852559e-10
6.08810096e-10
5.90739967e-10
5.88770429e-10
5.89769601e-10
6.09493561e-10
6.08443764e-10
6.04519904e-10
5.90524967e-10
5.90718907e-10
6.08498915e-10
6.08615199e-10
5.90758829e-10
5.89639472e-10
5.8938126e-10
5.8969317e-10
6.08975054e-10
6.08869266e-10
5.90083494e-10
5.89656455e-10
6.09453565e-10
6.08908419e-10
5.90264034e-10
5.89953569e-10
6.10330896e-10
6.08149708e-10
6.09946276e-10
5.91243163e-10
5.89058577e-10
5.90760538e-10
6.08950783e-10
6.08429368e-10
5.92159151e-10
5.89340505e-10
5.91897951e-10
6.09222175e-10
6.08182255e-10
5.90472246e-10
5.9004807e-10
6.10125044e-10
6.08139263e-10
6.09236349e-10
5.9207974e-10
5.89957797e-10
5.90254011e-10
5.90334137e-10
5.89037935e-10
5.89303296e-10
6.09445982e-10
6.08645504e-10
5.97740911e-10
5.90462578e-10
5.91759838e-10
6.0878033e-10
6.08365526e-10
5.90686522e-10
5.9037313e-10
6.09541085e-10
6.0834616e-10
5.90455698e-10
5.90403064e-10
6.09733374e-10
6.08387041e-10
6.08564369e-10
6.02079035e-10
5.90291827e-10
5.90131372e-10
5.90070357e-10
5.89796995e-10
5.9128472e-10
6.09108824e-10
6.07816924e-10
5.98165405e-10
5.90258193e-10
5.89591832e-10
5.8991934e-10
6.09397943e-10
6.08224691e-10
5.99611664e-10
5.90169166e-10
5.91310017e-10
6.09202926e-10
6.0862186e-10
5.90105726e-10
5.899179e-10
6.10625537e-10
6.09270198e-10
6.08872671e-10
6.09254129e-10
5.90980768e-10
5.8971962e-10
5.90084379e-10
5.89834009e-10
5.91668833e-10
6.09082569e-10
6.08332262e-10
5.94715366e-10
5.88972209e-10
5.89042508e-10
5.98501743e-10
6.09323409e-10
6.08410649e-10
6.03415134e-10
5.90658179e-10
5.91406117e-10
6.08908378e-10
6.0814984e-10
5.97444527e-10
5.90423138e-10
5.89220438e-10
5.89007605e-10
6.03192309e-10
6.09388651e-10
6.08797766e-10
6.08821431e-10
5.92267088e-10
5.89633015e-10
5.88462789e-10
5.8854157e-10
6.10458325e-10
6.0918521e-10
5.93144159e-10
5.89710925e-10
5.96342654e-10
6.0904784e-10
5.93917407e-10
5.897307e-10
6.10986635e-10
6.08624017e-10
5.90999197e-10
5.90012767e-10
6.09570257e-10
6.08511321e-10
5.90928171e-10
5.90320809e-10
6.0916905e-10
6.08822085e-10
5.95741969e-10
5.89220392e-10
5.89438262e-10
6.09325434e-10
6.09230941e-10
5.95597309e-10
5.88879459e-10
5.89030575e-10
6.09722609e-10
6.08949117e-10
5.90981333e-10
5.90073829e-10
6.09227183e-10
6.09159572e-10
5.93931861e-10
5.88754041e-10
5.88785599e-10
6.10094524e-10
6.08969624e-10
5.90927881e-10
5.89747179e-10
6.09784055e-10
6.08716873e-10
5.90842273e-10
5.90000711e-10
6.09773826e-10
6.0869753e-10
5.91026159e-10
5.90343139e-10
6.09549714e-10
6.09025543e-10
5.94901522e-10
5.89202806e-10
5.89272623e-10
6.09904233e-10
6.08802342e-10
5.91357221e-10
5.90301662e-10
6.09519389e-10
6.08340429e-10
5.95236592e-10
5.90649513e-10
5.90046328e-10
5.89965194e-10
6.10410692e-10
6.08517021e-10
6.10704989e-10
5.90502945e-10
5.90398834e-10
6.10191875e-10
6.08360762e-10
6.01715359e-10
5.90939789e-10
5.9039398e-10
5.90074836e-10
5.8921011e-10
5.89134019e-10
6.09532498e-10
6.09155499e-10
6.09823219e-10
6.09051512e-10
6.08842813e-10
6.08937745e-10
5.97343476e-10
5.89877576e-10
5.88865119e-10
5.8886964e-10
6.12266346e-10
6.09482933e-10
5.93692149e-10
5.89017386e-10
5.89105839e-10
6.11375263e-10
6.08905784e-10
6.0057817e-10
5.90652613e-10
5.90460612e-10
5.88851581e-10
5.88794121e-10
6.08458767e-10
6.08999803e-10
6.09766184e-10
6.08601398e-10
6.08829313e-10
5.98706084e-10
5.90462366e-10
5.90307235e-10
5.89871664e-10
5.899176e-10
6.09537247e-10
6.08046134e-10
5.92552888e-10
5.90579818e-10
6.10632924e-10
6.07939781e-10
6.09233965e-10
5.96206719e-10
5.89398424e-10
5.89175248e-10
6.10827575e-10
6.08975661e-10
5.95370159e-10
5.89330547e-10
5.89268502e-10
6.10648298e-10
6.08961216e-10
5.96645835e-10
5.89669989e-10
5.89546573e-10
6.10649916e-10
6.08850421e-10
5.97232076e-10
5.89783368e-10
5.89617466e-10
6.10656363e-10
6.08794552e-10
5.96455349e-10
5.89627467e-10
5.89490691e-10
6.10653346e-10
6.08894493e-10
5.95203989e-10
5.89036492e-10
5.88733785e-10
6.11068204e-10
6.08604552e-10
5.90699411e-10
5.88906163e-10
6.1160489e-10
6.08494999e-10
5.89485065e-10
5.87901447e-10
6.13223337e-10
6.0841967e-10
6.11359842e-10
6.0796415e-10
6.11566077e-10
5.88512495e-10
5.8827538e-10
5.8711528e-10
5.87027491e-10
6.10263086e-10
6.0682893e-10
6.07593322e-10
5.87838286e-10
5.85355442e-10
6.08957803e-10
6.0512839e-10
6.0601218e-10
6.03907933e-10
5.84641611e-10
5.82372253e-10
6.05692966e-10
6.01092047e-10
6.02337053e-10
5.99326747e-10
5.99238942e-10
5.97202441e-10
5.96525945e-10
5.94843235e-10
5.938618e-10
5.92203937e-10
5.91012099e-10
5.89445743e-10
5.88006841e-10
5.86645169e-10
5.85194959e-10
5.83947162e-10
5.8300933e-10
5.83148186e-10
5.80818539e-10
5.78902537e-10
5.7632905e-10
5.73868535e-10
5.71103509e-10
5.68198456e-10
5.65082289e-10
5.61898476e-10
5.58702647e-10
5.56465479e-10
5.56056813e-10
5.52885667e-10
5.50102275e-10
5.45672958e-10
5.41382209e-10
5.36376901e-10
5.30642875e-10
5.2463011e-10
5.16952944e-10
5.11482288e-10
5.03571443e-10
5.01314442e-10
5.0948335e-10
5.0091795e-10
4.91273948e-10
4.82532859e-10
4.73005218e-10
4.63401239e-10
4.54319715e-10
4.43145211e-10
4.34690812e-10
4.23852361e-10
4.20477085e-10
4.11936627e-10
4.01802881e-10
3.92923487e-10
3.81305212e-10
3.8040477e-10
3.51951829e-10
3.29669419e-10
3.19059485e-10
3.04068352e-10
2.88535014e-10
2.72926662e-10
2.58645135e-10
2.41210611e-10
2.21989735e-10
2.0389379e-10
1.82835641e-10
1.70240672e-10
1.50273142e-10
1.35318324e-10
1.22049402e-10
1.09981694e-10
9.94135556e-11
8.72649331e-11
7.73184703e-11
6.51858354e-11
5.65115915e-11
4.68793946e-11
4.04985096e-11
3.32159672e-11
2.77305274e-11
2.15569622e-11
1.69046519e-11
1.17921508e-11
7.98184498e-12
3.87865495e-12
7.82705934e-13
-2.39569073e-12
-4.89585695e-12
-7.489647e-12
-9.73697175e-12
-1.19644526e-11
-1.38526658e-11
-1.58461626e-11
-1.75317813e-11
-1.90989092e-11
-2.03602052e-11
-2.16229999e-11
-2.24579883e-11
-2.32984094e-11
-2.39846882e-11
-2.47096327e-11
-2.5297095e-11
-2.59270414e-11
-2.64408371e-11
-2.7048242e-11
-2.75441552e-11
-2.80803116e-11
-2.84920385e-11
-2.89675735e-11
-2.93264617e-11
-2.97269096e-11
-3.00258118e-11
-3.03738002e-11
-3.06491243e-11
-3.09758169e-11
-3.12253644e-11
-3.1516623e-11
-3.17481017e-11
-3.20204602e-11
-3.22441066e-11
-3.25114416e-11
-3.27666439e-11
-3.30475979e-11
-3.32789501e-11
-3.353171e-11
-3.37393521e-11
-3.39694343e-11
-3.41635167e-11
-3.43754621e-11
-3.45585772e-11
-3.47619145e-11
-3.49400139e-11
-3.51327725e-11
-3.53038505e-11
-3.54871435e-11
-3.56528533e-11
-3.58304965e-11
-3.59916378e-11
-3.6160984e-11
-3.63158793e-11
-3.64775995e-11
-3.66329962e-11
-3.68032077e-11
-3.69683635e-11
-3.71381126e-11
-3.72943377e-11
-3.74528036e-11
-3.75997057e-11
-3.7748098e-11
-3.78865056e-11
-3.80258491e-11
-3.81564962e-11
-3.8287675e-11
-3.8411204e-11
-3.8534729e-11
-3.86521334e-11
-3.87698587e-11
)
;

boundaryField
{
    closed
    {
        type            calculated;
        value           nonuniform List<scalar> 0();
    }
    open
    {
        type            calculated;
        value           nonuniform List<scalar> 0();
    }
    sides
    {
        type            empty;
    }
    procBoundary4to3
    {
        type            processor;
        value           uniform 5.89117925e-10;
    }
    procBoundary4to5
    {
        type            processor;
        value           uniform -3.8882142e-11;
    }
}


// ************************************************************************* //
