/*--------------------------------*- C++ -*----------------------------------*\
| =========                 |                                                 |
| \\      /  F ield         | OpenFOAM: The Open Source CFD Toolbox           |
|  \\    /   O peration     | Version:  2306                                  |
|   \\  /    A nd           | Website:  www.openfoam.com                      |
|    \\/     M anipulation  |                                                 |
\*---------------------------------------------------------------------------*/
FoamFile
{
    version     2.0;
    format      ascii;
    arch        "LSB;label=32;scalar=64";
    class       volScalarField;
    location    "0.00042";
    object      h;
}
// * * * * * * * * * * * * * * * * * * * * * * * * * * * * * * * * * * * * * //

dimensions      [0 2 -2 0 0 0 0];

internalField   nonuniform List<scalar> 
531
(
3866.27085
-4662.44693
-5550.92504
4609.69211
9480.17229
2529.1945
-2665.57915
3734.18333
9358.22695
4860.95215
-4030.48812
-5000.5701
4429.92335
9417.20568
5156.93688
-3836.2849
-5085.49559
3766.89205
9235.2652
3326.1867
-2842.99368
1986.57296
9055.05374
6720.13858
-3121.00997
-4926.33923
2897.14725
9144.00685
6048.11929
-3300.68881
-4716.58553
3460.89533
9152.03643
4044.29935
-2436.17149
1544.66534
8874.43912
6803.49022
-2959.56879
-5079.64278
1347.90863
8855.69516
7187.18248
-2722.36403
-4762.49525
2200.27488
8832.82339
4630.6682
-2414.97967
507.028666
8707.16452
8101.7657
-2191.0759
-4866.92072
1124.02676
8759.83688
7098.70219
-2646.28771
-4687.44942
2147.6885
8771.61519
4809.64695
-2529.62104
-324.864887
8561.702
8805.73679
-1349.78377
-5004.85848
-955.76245
8442.17251
8714.04009
-1271.22769
-4779.71822
1156.84553
8420.40699
4487.77451
-2905.38851
456.535719
8338.22542
5150.53456
-2836.8953
-890.198393
8359.20164
8351.3333
-2325.67143
-4872.65714
1080.55362
8197.13326
4903.17517
-2777.20449
-1035.84386
8422.3407
8706.73013
-1481.11118
-4731.6945
1474.48457
8285.77073
4052.69749
-3318.75721
197.515859
8200.6118
5466.69072
-2807.66521
-1596.60598
8414.4616
9025.08693
-818.58552
-4799.80705
268.422425
8543.50154
5964.99699
-2087.73791
-901.536538
8809.22477
9345.52263
722.367375
-3259.02046
-3709.19471
-4547.85798
1631.17211
8983.31125
6331.81012
-2100.38116
-1101.88489
8794.18484
9315.89109
-244.436217
-4738.61208
-915.231533
8516.01126
7094.05038
-2541.48258
-2191.53024
8510.36452
9035.8288
-947.031396
-5257.4742
-1390.2475
8397.35072
7109.21111
-2629.08613
-2049.56911
8666.94554
9138.42593
-92.8568543
-4605.58568
-1428.08142
8730.19157
9092.06601
-1257.15523
-5239.01893
-1864.99557
8529.08851
8318.17028
-2556.57314
-2507.24658
8271.89399
8306.54871
-3570.52469
-3889.17875
7624.04677
9392.69778
1499.2301
-4365.26515
-1839.66188
8589.82044
8016.81357
-2671.20685
-2236.39704
8550.78454
8565.54337
-2368.59132
-5699.13348
-1453.35653
8750.27817
7529.42063
-2245.70645
-1071.0805
8813.56693
8384.36027
-2606.68725
-5412.72898
-302.358969
8984.32481
6594.39458
-2388.46957
-67.1482503
8992.91856
7544.96558
-3164.93623
-5282.59344
1066.97986
9286.65258
5405.88348
-2300.71742
1539.00296
9359.42698
6712.71468
-3587.38161
-4854.57667
3679.0194
9701.12469
4519.72563
-2523.89842
-5043.75714
-5129.93055
5942.9032
10093.5633
2890.79102
-2216.5057
4511.37263
9892.62183
4719.88728
-4609.76878
-5011.85966
6811.51365
9965.17719
3586.22154
-5002.26463
-5351.09982
6896.58395
10047.3328
660.809129
-3266.1458
5860.62963
9926.87629
2887.51625
-5196.33645
-5392.07819
8026.61076
9945.58539
2436.03918
-5248.4723
-5364.89348
8214.52754
10003.9198
-662.87524
-3926.45407
6404.52325
9884.58589
-964.586865
-4394.285
6264.00816
9839.212
-1419.31969
-4284.72592
7344.03864
9852.43579
900.480408
-5997.97525
-5656.8177
8587.55301
9928.40628
-1901.69733
-4082.9905
7819.39534
9990.04021
-2213.15477
-4213.16094
8113.63754
9912.86041
630.025157
-6008.12135
-5330.07764
9149.39533
9959.03271
-2414.27568
-4179.5421
8236.73453
9982.68576
-2770.95581
-4529.58086
8009.82243
9956.51895
-2023.11431
-4317.17561
3928.79223
10364.5813
9925.76698
-880.258348
-4235.92062
-4891.62037
-4899.81999
4189.51299
10330.4656
10078.6053
1074.65104
-5654.87275
-4125.84581
9616.40493
10076.4546
1764.82353
-5188.99409
-3661.77746
9693.58171
10064.588
1055.37694
-5278.94682
-3483.05762
9794.18027
9956.94751
-3805.49959
-4539.14049
8356.74449
10013.3043
1636.42784
-5243.36231
-3412.54262
9892.59431
9925.75729
-3747.48873
-4657.43638
6673.30297
10049.8962
3126.47105
-4890.2674
-3035.73812
10092.094
10109.2949
-268.091123
-5388.38755
-4912.21052
4468.61172
9990.52021
2630.95466
-4110.62927
493.969871
10323.9502
9980.29574
-2870.35738
-4776.74515
1141.74668
10108.8066
9626.703
-4441.20281
-4821.68728
3768.76461
10321.298
9172.33926
-3520.71338
-5258.25963
-4258.20679
1021.5764
10170.8314
9556.83851
-4925.59
-4830.68533
7622.54925
10139.5881
2959.73348
-4065.73317
-267.83717
10157.3825
9661.49531
-4631.31366
-5818.42642
1631.21094
9955.13006
5795.42306
-4299.28524
-909.093621
10130.6227
9616.44355
-4670.29836
-5829.44733
1337.62842
9983.79336
6516.24693
-4131.70294
-1035.6587
10154.0215
9616.53142
-4587.73328
-5919.78994
880.20916
9961.24177
6934.71227
-4182.78275
-1231.88388
10143.2587
9698.83214
-4505.58659
-6016.28654
-545.993991
9968.45028
8683.08125
-3855.51126
-1713.39639
10177.6273
9708.47935
-4386.91314
-6272.91647
-1073.99062
9880.18269
8729.27956
-4382.32582
-2527.5076
10012.6429
7781.48662
-4751.24061
-2927.85456
9961.06941
8282.80312
-4929.37497
-2880.2276
9898.94107
7092.34697
-5312.75026
-3376.62629
9917.20841
8598.50082
-5012.46796
-3615.38362
9998.1158
8779.27069
-4876.78855
-3603.14136
10073.8436
8938.45517
-4557.83716
-3068.52624
10216.4336
9868.10876
-3819.68853
-6391.97433
-1845.12637
9930.02276
9203.60071
-4944.60997
-3792.88457
10111.5528
9155.65113
-4699.09167
-3577.43045
10178.9679
9151.69437
-4300.16839
-2943.37498
10281.0665
9889.48194
-3504.81202
-6409.21621
-2255.68032
9993.9235
9343.84678
-3946.63869
-2386.29824
10332.6907
10029.9499
-2834.06063
-5780.38331
-1498.67593
10107.5394
9990.2061
-2693.13331
-5986.61249
-1857.76417
9914.24832
8935.11521
-4163.09968
-2394.36037
10084.2095
8039.2175
-3998.38006
-2224.94187
10117.1819
9792.26343
-2992.40817
-6430.1768
-1896.54292
9694.92425
7483.34419
-4479.53972
-1522.3655
9919.46099
6538.41081
-4201.17404
-602.821544
9999.77367
5931.37457
-3637.26138
-945.262504
10201.7757
9996.42954
-807.092619
-5094.60941
-5236.63102
974.636837
9910.38321
9161.70321
-4023.43645
-5854.97944
3089.61506
9902.35693
1838.21659
-3837.36842
2849.05568
10157.9154
8989.03978
-3703.35977
-6051.03356
2689.7293
9760.97146
1615.16296
-4585.86977
3706.26271
9913.71118
1336.82545
-4512.86231
4106.08922
9966.86336
1941.60203
-4396.79426
866.86774
9827.70123
9548.63643
-5127.7668
-6369.02034
6047.3347
9886.44853
4463.87108
-5482.74225
-5527.74649
6200.61845
9941.66234
-1970.07873
-4520.49604
8139.19421
10096.2035
-2255.20264
-4560.42993
)
;

boundaryField
{
    closed
    {
        type            lookUpEnthalpy;
        h0              nonuniform List<scalar> 0();
        value           nonuniform List<scalar> 0();
    }
    open
    {
        type            zeroGradient;
    }
    sides
    {
        type            empty;
    }
    procBoundary1to0
    {
        type            processor;
        value           uniform 9429.30047;
    }
    procBoundary1to2
    {
        type            processor;
        value           uniform 7799.95114;
    }
}


// ************************************************************************* //
