/*--------------------------------*- C++ -*----------------------------------*\
| =========                 |                                                 |
| \\      /  F ield         | OpenFOAM: The Open Source CFD Toolbox           |
|  \\    /   O peration     | Version:  2306                                  |
|   \\  /    A nd           | Website:  www.openfoam.com                      |
|    \\/     M anipulation  |                                                 |
\*---------------------------------------------------------------------------*/
FoamFile
{
    version     2.0;
    format      ascii;
    arch        "LSB;label=32;scalar=64";
    class       volScalarField;
    location    "0.00176";
    object      rho;
}
// * * * * * * * * * * * * * * * * * * * * * * * * * * * * * * * * * * * * * //

dimensions      [1 -3 0 0 0 0 0];

internalField   nonuniform List<scalar> 
530
(
0.839855394
0.91954298
0.932874715
0.933576691
0.934132503
0.934675736
0.935199347
0.935659625
0.935960297
0.936068654
0.936027879
0.935899303
0.935742531
0.935598347
0.935483523
0.935392887
0.935310066
0.935221289
0.935123253
0.935015309
0.934899172
0.934777758
0.934652833
0.934523742
0.934392365
0.93426558
0.934149233
0.934045855
0.933955757
0.933878738
0.933814573
0.93376191
0.933719206
0.933685173
0.933658872
0.933639906
0.933627885
0.933622001
0.933621152
0.93362438
0.93363119
0.933641372
0.933654682
0.933670613
0.933688414
0.933707242
0.933726303
0.933744931
0.93376264
0.933779157
0.933794436
0.933808646
0.933822112
0.933835247
0.933848449
0.933862015
0.933876077
0.933890594
0.933905385
0.933920185
0.933934714
0.933948703
0.933961965
0.933974321
0.933985824
0.933996223
0.934006046
0.934014595
0.934022495
0.934028969
0.934037978
0.934040765
0.934040062
0.933995553
0.934016111
0.934311928
0.934296992
0.932655781
0.932430363
0.936810333
0.938263003
0.929891193
0.900480367
0.926726844
0.940065181
0.937230857
0.930424048
0.934352538
0.938330641
0.953670472
0.947978973
0.901626899
0.902160376
0.903711984
0.932256008
0.964820042
0.952984451
0.901466748
0.902064922
0.902444767
0.942104869
0.956447332
0.967060124
0.957865053
0.901530183
0.901807895
0.901979225
0.902204273
0.902498636
0.938369391
0.96182031
0.950968326
0.902524494
0.903161631
0.944913576
0.972234821
0.954455475
0.902944105
0.902461348
0.903499336
0.903133619
0.904255654
0.950344599
0.970341711
0.957590498
0.975988399
0.965354268
0.903104932
0.902659373
0.903376782
0.962744158
0.962980576
0.901336807
0.903383905
0.901243517
0.903495674
0.939002455
0.965894908
0.952657615
0.902706848
0.902563883
0.951001185
0.950696781
0.902335801
0.903491335
0.945030091
0.953112183
0.959376592
0.955844963
0.901256942
0.903322765
0.901575226
0.903502036
0.937950452
0.962936215
0.951828916
0.902440411
0.902906198
0.932675029
0.964443033
0.949419472
0.902426777
0.94679644
0.961740282
0.902192751
0.903386245
0.954944883
0.954693331
0.901830309
0.903833421
0.957865546
0.951009018
0.902337189
0.903266832
0.903139605
0.953252745
0.957110026
0.902244606
0.904096412
0.902312215
0.904343144
0.953501223
0.975923885
0.948306837
0.904097558
0.941373563
0.966902052
0.902396833
0.904060371
0.94307593
0.972809757
0.957325156
0.90304359
0.902849153
0.903476399
0.955388213
0.951389483
0.902583382
0.954130945
0.965813187
0.90263553
0.903070355
0.902750121
0.955395499
0.962887054
0.902065986
0.90403301
0.902046275
0.904388894
0.937364005
0.959193448
0.951750185
0.967139613
0.962591772
0.903167846
0.903534086
0.955085857
0.961256813
0.903088338
0.903665977
0.945794548
0.969866061
0.959164526
0.902821318
0.903235758
0.902799465
0.903393398
0.93780495
0.968211744
0.952877854
0.902696406
0.903151568
0.902695858
0.948805651
0.945307285
0.902700305
0.937338295
0.966200975
0.902417708
0.903358735
0.94365878
0.971843555
0.959192105
0.903612084
0.903264134
0.903911061
0.957466437
0.965797174
0.903008647
0.90403073
0.958788814
0.903713322
0.903541639
0.954820637
0.975424538
0.961269078
0.903620747
0.90396492
0.903791642
0.953060237
0.964352217
0.903213622
0.904848837
0.962937888
0.958154723
0.902478282
0.904482645
0.902827621
0.955872087
0.952973869
0.90344041
0.95139987
0.975947682
0.902730284
0.904172215
0.902950658
0.904277774
0.949945298
0.970273747
0.964120932
0.904380812
0.903865148
0.950114706
0.977270774
0.959549605
0.90408529
0.904394819
0.904194645
0.95049436
0.984473331
0.967820054
0.903819911
0.903661561
0.903782326
0.903603707
0.904022955
0.965389853
0.967848241
0.902775862
0.904158734
0.958502505
0.958522579
0.902247913
0.903727213
0.951336363
0.955886655
0.902246569
0.903379158
0.943275087
0.961124264
0.954475589
0.902859516
0.902611419
0.94753144
0.953700139
0.902288347
0.903071255
0.938552771
0.955942485
0.95229197
0.902653453
0.902674082
0.938238578
0.963092224
0.951736274
0.902731303
0.902897989
0.902994541
0.948222276
0.957941398
0.965607199
0.961987882
0.901786772
0.902983369
0.901912771
0.944664691
0.959220855
0.902117623
0.903110111
0.947233645
0.951208968
0.901493106
0.90329529
0.945731293
0.95026906
0.901245083
0.903185922
0.938273929
0.956113989
0.951387287
0.902462478
0.902121286
0.945065252
0.948372244
0.902175979
0.903060564
0.938437718
0.948201337
0.954335838
0.95457452
0.902817234
0.903512968
0.962460251
0.957784953
0.904057185
0.903961217
0.904957815
0.904184836
0.904595852
0.957988751
0.97149702
0.972994361
0.97234173
0.903741164
0.904489155
0.976533205
0.971120399
0.903530779
0.903570049
0.903624089
0.903487987
0.904135828
0.903588287
0.90470827
0.94949477
0.961773868
0.95794626
0.960747659
0.971727769
0.966167353
0.902407939
0.903831575
0.902450852
0.941411345
0.956390064
0.902515896
0.903382167
0.94262119
0.946947326
0.90192884
0.90351017
0.938732363
0.947305182
0.952386151
0.953613018
0.901882115
0.90309598
0.953149875
0.957216161
0.901979976
0.903259033
0.951223483
0.962759004
0.902293232
0.903337842
0.952634011
0.982377989
0.970332659
0.902829653
0.902256577
0.902844133
0.902391267
0.903154488
0.902616833
0.90334594
0.940256643
0.952468652
0.955967351
0.957391585
0.90163694
0.902982443
0.951869233
0.954421019
0.901754369
0.903151488
0.940631849
0.950179294
0.951023336
0.955110049
0.901983366
0.903035655
0.944358381
0.96386454
0.954695531
0.902627432
0.902700172
0.902775675
0.943089242
0.952448849
0.901872654
0.903123277
0.936928509
0.953413348
0.952032474
0.902252486
0.902195347
0.938530173
0.954818492
0.953283824
0.902211131
0.902363345
0.938399324
0.955612482
0.953699859
0.902683701
0.902822868
0.943623304
0.954129738
0.962350538
0.961244236
0.902205192
0.903697585
0.902540067
0.953789925
0.965388116
0.902649092
0.903597302
0.902968278
0.903527369
0.903559237
0.952147912
0.964751963
0.967059394
0.970434322
0.902245376
0.903305627
0.950654673
0.903031583
0.902536098
0.947783321
0.955546539
0.95520188
0.902253335
0.903009519
0.938697995
0.958311982
0.955772507
0.902829668
0.902353936
0.945856652
0.953025081
0.902115913
0.902812155
0.944955593
0.95196368
0.901684814
0.903029295
0.936556055
0.958989093
0.948802435
0.902049081
0.941823531
0.960465429
0.901899761
0.902572699
0.953393205
0.951992925
0.901646589
0.902746083
0.902120723
0.938417164
0.962694477
0.956822169
0.902536165
0.902267688
0.950264235
0.948369077
0.901856226
0.938337547
0.960771211
)
;

boundaryField
{
    closed
    {
        type            calculated;
        value           uniform 0.575511224;
    }
    open
    {
        type            calculated;
        value           nonuniform List<scalar> 0();
    }
    sides
    {
        type            empty;
    }
    procBoundary0to1
    {
        type            processor;
        value           uniform 0.90212647;
    }
}


// ************************************************************************* //
