/*--------------------------------*- C++ -*----------------------------------*\
| =========                 |                                                 |
| \\      /  F ield         | OpenFOAM: The Open Source CFD Toolbox           |
|  \\    /   O peration     | Version:  2306                                  |
|   \\  /    A nd           | Website:  www.openfoam.com                      |
|    \\/     M anipulation  |                                                 |
\*---------------------------------------------------------------------------*/
FoamFile
{
    version     2.0;
    format      ascii;
    arch        "LSB;label=32;scalar=64";
    class       volScalarField;
    location    "0.00088";
    object      alpha;
}
// * * * * * * * * * * * * * * * * * * * * * * * * * * * * * * * * * * * * * //

dimensions      [1 -1 -1 0 0 0 0];

internalField   nonuniform List<scalar> 
531
(
3.68325215e-05
3.68315619e-05
3.57234481e-05
3.52194163e-05
3.52768262e-05
3.68281737e-05
3.68307955e-05
3.68219981e-05
3.59093027e-05
3.54013186e-05
3.53888531e-05
3.51576184e-05
3.51591271e-05
3.68320458e-05
3.68430983e-05
3.5490039e-05
3.53133406e-05
3.68402432e-05
3.68369632e-05
3.55889965e-05
3.53749666e-05
3.68448616e-05
3.6830368e-05
3.57003582e-05
3.52981424e-05
3.52985993e-05
3.68286995e-05
3.68454313e-05
3.57044981e-05
3.54265305e-05
3.68359832e-05
3.68289875e-05
3.57209491e-05
3.53510584e-05
3.53509126e-05
3.68278488e-05
3.68329583e-05
3.57608052e-05
3.52596479e-05
3.53380645e-05
3.68375505e-05
3.68316622e-05
3.68358694e-05
3.57574253e-05
3.54302344e-05
3.53496978e-05
3.52843683e-05
3.6831019e-05
3.68267666e-05
3.56083266e-05
3.5023567e-05
3.51363219e-05
3.68198144e-05
3.68344828e-05
3.68224454e-05
3.55731203e-05
3.50720717e-05
3.50782434e-05
3.68023687e-05
3.68421243e-05
3.54417116e-05
3.52059038e-05
3.6811364e-05
3.68361617e-05
3.53973486e-05
3.52538015e-05
3.68175284e-05
3.68323222e-05
3.54281594e-05
3.52871283e-05
3.68211162e-05
3.68285689e-05
3.55361655e-05
3.53144681e-05
3.68209967e-05
3.68218687e-05
3.57072629e-05
3.52792549e-05
3.5282077e-05
3.68054879e-05
3.68259945e-05
3.57264451e-05
3.52906403e-05
3.52899934e-05
3.68063993e-05
3.68266823e-05
3.57228839e-05
3.51444625e-05
3.5181457e-05
3.68230019e-05
3.68226179e-05
3.68266248e-05
3.6820055e-05
3.57485676e-05
3.529486e-05
3.54012373e-05
3.50614557e-05
3.506756e-05
3.68022218e-05
3.68400758e-05
3.53962024e-05
3.52198224e-05
3.68106038e-05
3.68347016e-05
3.54326963e-05
3.5314735e-05
3.68178819e-05
3.68323779e-05
3.54858086e-05
3.5362608e-05
3.68242512e-05
3.68305211e-05
3.55815274e-05
3.53804454e-05
3.68281122e-05
3.68263995e-05
3.57010944e-05
3.53249599e-05
3.53219036e-05
3.68172996e-05
3.68404515e-05
3.5731459e-05
3.53210573e-05
3.53223862e-05
3.68306451e-05
3.6834395e-05
3.56905804e-05
3.52347904e-05
3.52357346e-05
3.68259938e-05
3.68530997e-05
3.55969038e-05
3.53879132e-05
3.68325617e-05
3.68420557e-05
3.56301135e-05
3.54877682e-05
3.6838302e-05
3.68327216e-05
3.5708103e-05
3.55105072e-05
3.54234268e-05
3.53860086e-05
3.68391494e-05
3.6839004e-05
3.56855986e-05
3.52631451e-05
3.52617771e-05
3.68303362e-05
3.68460896e-05
3.56507802e-05
3.53651167e-05
3.68411794e-05
3.68331812e-05
3.56892282e-05
3.53000286e-05
3.52977571e-05
3.68273615e-05
3.68533758e-05
3.56907619e-05
3.54749252e-05
3.68349755e-05
3.68376609e-05
3.57135088e-05
3.55087956e-05
3.53986539e-05
3.53947804e-05
3.68370033e-05
3.6840781e-05
3.55851712e-05
3.53971989e-05
3.6837972e-05
3.68329137e-05
3.56971286e-05
3.53419067e-05
3.53382971e-05
3.6825642e-05
3.68421808e-05
3.572016e-05
3.53378348e-05
3.533924e-05
3.68261035e-05
3.68348588e-05
3.57068385e-05
3.52922135e-05
3.52909517e-05
3.68210564e-05
3.68415156e-05
3.56974397e-05
3.51015918e-05
3.5151102e-05
3.68326228e-05
3.68358286e-05
3.68342398e-05
3.68364249e-05
3.57309899e-05
3.52117129e-05
3.53412542e-05
3.49288633e-05
3.49340968e-05
3.68336085e-05
3.68370899e-05
3.68353907e-05
3.68346806e-05
3.68344648e-05
3.57064874e-05
3.5444297e-05
3.53945905e-05
3.53395644e-05
3.68333327e-05
3.68296107e-05
3.56915064e-05
3.52919719e-05
3.52934506e-05
3.68166179e-05
3.68400395e-05
3.57203399e-05
3.53141979e-05
3.53118289e-05
3.68314763e-05
3.68345047e-05
3.57011334e-05
3.52774242e-05
3.52791765e-05
3.68243384e-05
3.68456022e-05
3.56702298e-05
3.53774978e-05
3.68346798e-05
3.68338456e-05
3.57045088e-05
3.53395509e-05
3.53365111e-05
3.68316469e-05
3.68366901e-05
3.57317521e-05
3.53651616e-05
3.53646036e-05
3.68241406e-05
3.68398134e-05
3.57288167e-05
3.54593264e-05
3.53375455e-05
3.53361549e-05
3.68285617e-05
3.68359161e-05
3.53626502e-05
3.53303161e-05
3.68328911e-05
3.68278241e-05
3.68320338e-05
3.68271718e-05
3.58544038e-05
3.53745374e-05
3.54180765e-05
3.51749033e-05
3.51743563e-05
3.68296448e-05
3.68299429e-05
3.5580747e-05
3.50858236e-05
3.51340483e-05
3.68175107e-05
3.68385463e-05
3.54425933e-05
3.54265615e-05
3.68324755e-05
3.68241247e-05
3.68362713e-05
3.57178742e-05
3.52607031e-05
3.52616263e-05
3.68262222e-05
3.68279421e-05
3.57114758e-05
3.52036904e-05
3.5343607e-05
3.68282344e-05
3.68294976e-05
3.68262839e-05
3.57235466e-05
3.52808784e-05
3.53950637e-05
3.50205706e-05
3.50240775e-05
3.68327993e-05
3.68374142e-05
3.68309655e-05
3.68368334e-05
3.57025166e-05
3.52147974e-05
3.52175068e-05
3.68338986e-05
3.68355212e-05
3.57001187e-05
3.50994523e-05
3.52760496e-05
3.68363331e-05
3.68321216e-05
3.68321444e-05
3.5702518e-05
3.52012999e-05
3.53291941e-05
3.68354927e-05
3.68273703e-05
3.68306325e-05
3.57547585e-05
3.54775266e-05
3.54280777e-05
3.54060603e-05
3.68355231e-05
3.68277192e-05
3.56859626e-05
3.54080302e-05
3.524147e-05
3.52459315e-05
3.68412941e-05
3.68222234e-05
3.68306575e-05
3.68251044e-05
3.57176838e-05
3.53427868e-05
3.52925035e-05
3.51944985e-05
3.6837601e-05
3.68239961e-05
3.54949246e-05
3.49498871e-05
3.49772997e-05
3.68223133e-05
3.68285725e-05
3.68180837e-05
3.68280412e-05
3.57371782e-05
3.5338571e-05
3.52595841e-05
3.5258719e-05
3.68270557e-05
3.68243338e-05
3.52861479e-05
3.52873033e-05
3.68359564e-05
3.68153514e-05
3.6827407e-05
3.57158969e-05
3.51571694e-05
3.51572278e-05
3.68144477e-05
3.68233811e-05
3.5681985e-05
3.50465395e-05
3.51001057e-05
3.68168485e-05
3.68174259e-05
3.6816692e-05
3.68187231e-05
3.57209121e-05
3.51538145e-05
3.52985391e-05
3.48662608e-05
3.48689116e-05
3.68238911e-05
3.68330002e-05
3.68283114e-05
3.68359876e-05
3.56807655e-05
3.50440114e-05
3.52002759e-05
3.68392344e-05
3.6848516e-05
3.68486506e-05
3.56294857e-05
3.5209323e-05
3.52074272e-05
3.68554269e-05
3.68814512e-05
3.56062338e-05
3.53768758e-05
3.6886897e-05
3.68967859e-05
3.56537983e-05
3.53607201e-05
3.51958447e-05
3.51440179e-05
3.69505845e-05
3.69748998e-05
3.53345995e-05
3.46038271e-05
3.46708766e-05
3.70188163e-05
3.70828053e-05
3.70359461e-05
3.71338154e-05
3.70342787e-05
3.70866326e-05
3.68305184e-05
3.43770613e-05
3.42147753e-05
3.68485617e-05
3.69151802e-05
3.68470941e-05
3.45179569e-05
3.42553081e-05
3.66766624e-05
3.6723388e-05
3.66818275e-05
3.67051934e-05
3.66760165e-05
3.66913858e-05
3.66738961e-05
3.66926973e-05
3.66962421e-05
3.67431468e-05
3.67993437e-05
3.69558472e-05
3.72240235e-05
3.70964287e-05
3.68793019e-05
3.66501882e-05
3.64435592e-05
3.62698625e-05
3.60902732e-05
3.59733379e-05
3.58066053e-05
3.56598486e-05
3.55293419e-05
3.55878005e-05
3.53539061e-05
3.52779482e-05
3.5081541e-05
3.50376393e-05
3.4890204e-05
3.46877343e-05
3.43119591e-05
3.40242401e-05
3.36879119e-05
3.33370722e-05
3.39752977e-05
3.55625012e-05
3.50724423e-05
3.4534292e-05
3.39497145e-05
3.34266883e-05
3.27693688e-05
3.21821241e-05
3.14384226e-05
3.13119711e-05
3.12197085e-05
3.11014102e-05
3.10291386e-05
3.19871883e-05
3.5784402e-05
3.65705738e-05
3.65090769e-05
3.81984496e-05
3.99049057e-05
4.13720006e-05
4.26943252e-05
4.79165932e-05
4.84220084e-05
4.89381387e-05
4.96284061e-05
5.0620524e-05
5.15162134e-05
5.28254398e-05
5.3795058e-05
5.5295004e-05
5.65198091e-05
5.79642743e-05
5.90236295e-05
6.02924435e-05
6.11775219e-05
6.23063256e-05
6.30551332e-05
6.40302819e-05
6.48618737e-05
6.57082984e-05
6.63625654e-05
6.72011316e-05
6.7660898e-05
6.82989168e-05
6.87267872e-05
6.93461354e-05
6.96045577e-05
6.99461025e-05
7.07499164e-05
7.11883935e-05
7.12696874e-05
7.15321127e-05
7.20554565e-05
7.24024699e-05
7.2273279e-05
7.25608824e-05
7.26468268e-05
7.31251084e-05
7.27904567e-05
7.29269575e-05
7.33068623e-05
7.42059149e-05
7.32741206e-05
7.35179815e-05
7.40086657e-05
7.49492316e-05
7.36837895e-05
7.38770811e-05
7.44961575e-05
7.54553202e-05
7.41621761e-05
7.41358632e-05
7.47015897e-05
7.54589543e-05
7.44938933e-05
7.47139269e-05
7.50675539e-05
7.56469059e-05
7.50394209e-05
7.51388127e-05
7.53676642e-05
7.58486561e-05
7.55170836e-05
7.54872138e-05
7.57037962e-05
7.60170766e-05
7.57860583e-05
7.57775249e-05
7.58726467e-05
7.61479129e-05
7.60122671e-05
7.60296077e-05
7.59790483e-05
7.62613314e-05
)
;

boundaryField
{
    closed
    {
        type            calculated;
        value           nonuniform List<scalar> 0();
    }
    open
    {
        type            calculated;
        value           nonuniform List<scalar> 0();
    }
    sides
    {
        type            empty;
    }
    procBoundary4to3
    {
        type            processor;
        value           uniform 3.52926635e-05;
    }
    procBoundary4to5
    {
        type            processor;
        value           uniform 7.62253571e-05;
    }
}


// ************************************************************************* //
