/*--------------------------------*- C++ -*----------------------------------*\
| =========                 |                                                 |
| \\      /  F ield         | OpenFOAM: The Open Source CFD Toolbox           |
|  \\    /   O peration     | Version:  2306                                  |
|   \\  /    A nd           | Website:  www.openfoam.com                      |
|    \\/     M anipulation  |                                                 |
\*---------------------------------------------------------------------------*/
FoamFile
{
    version     2.0;
    format      ascii;
    arch        "LSB;label=32;scalar=64";
    class       volScalarField;
    location    "0.00088";
    object      prefDh_H2O;
}
// * * * * * * * * * * * * * * * * * * * * * * * * * * * * * * * * * * * * * //

dimensions      [1 1 -3 0 0 0 0];

internalField   nonuniform List<scalar> 
531
(
92.3570539
92.3119664
88.7614417
87.8426141
87.8740718
92.4098949
92.2658229
92.2847757
90.1606903
87.9921493
87.9748393
87.7850192
87.7687247
92.4612861
92.3077858
88.0660574
87.9081624
92.4153927
92.2851793
88.1454279
87.9681716
92.3568721
92.2956141
88.5971343
87.9088397
87.8825554
92.3709424
92.2685868
88.2548558
88.0111266
92.3489854
92.2763482
88.7780598
87.9545235
87.9366306
92.3670592
92.2901464
89.1724113
87.8697663
87.9279501
92.3953788
92.2119746
92.2542774
89.1326689
88.0154315
87.9465687
87.8886111
92.4521002
92.3605476
88.1618208
87.6843089
87.7498512
92.4916522
92.2727534
92.338644
88.1299075
87.7304501
87.6975368
92.4856373
92.33454
88.0427301
87.8144788
92.5182658
92.3163314
87.9995984
87.8596296
92.510764
92.3107143
88.0214226
87.8927186
92.4812042
92.3108549
88.1125302
87.9221953
92.4245178
92.3254737
88.3155068
87.9069419
87.8841318
92.4180908
92.3192887
88.5681555
87.9144305
87.8953504
92.4123665
92.3397286
88.4137923
87.7830672
87.8056216
92.4280408
92.3194427
92.271501
92.2812716
89.047672
87.9141024
87.9827979
87.7194715
87.6896603
92.5403133
92.3382036
88.0033646
87.8279782
92.5163806
92.306827
88.0292398
87.913266
92.4865698
92.289366
88.0690566
87.9574377
92.4484431
92.2857603
88.1468251
87.9768756
92.3912486
92.3002416
88.4379401
87.9382689
87.9090693
92.3789371
92.2834251
88.811481
87.9191459
87.9147469
92.3590959
92.3034943
88.4231367
87.8523313
87.8244285
92.3831916
92.2686897
88.1580134
87.9662973
92.399777
92.2464454
88.182294
88.0626298
92.3509518
92.2380867
88.683347
88.0863016
87.9988708
87.9713153
92.3912115
92.2942296
88.2918946
87.8737918
87.8511347
92.3667102
92.2813625
88.1977191
87.9560284
92.3435569
92.2941292
88.5059626
87.9081577
87.8757035
92.3529146
92.2461661
88.2381164
88.0454758
92.3358011
92.2304186
88.705565
88.0803275
87.980841
87.9746983
92.4159266
92.2632593
88.1406157
87.9845348
92.3500011
92.2835405
88.5166931
87.945626
87.9195453
92.3482834
92.2761924
88.7255003
87.9350616
87.926303
92.3479711
92.2883355
88.5545265
87.9031544
87.8823458
92.3878203
92.3294364
88.2458997
87.7351668
87.7674263
92.4073776
92.3108899
92.2609148
92.2645901
88.8818321
87.8276933
87.9286887
87.5830023
87.5762669
92.489942
92.32206
92.3681906
92.2375284
92.2606561
88.4886555
88.0341442
87.9805388
87.9382386
92.3934871
92.3125618
88.2632107
87.9091838
87.8834123
92.3732025
92.2928925
88.6432385
87.9157698
87.9067295
92.3368438
92.2995459
88.5216422
87.8886183
87.8674001
92.3752842
92.2800324
88.2199272
87.9668812
92.3382314
92.284862
88.5772006
87.9403116
87.9224458
92.3353847
92.2789417
88.9351345
87.9617898
87.9449663
92.3402447
92.2541187
88.7720232
88.0377552
87.9376291
87.9261708
92.4694165
92.2828526
87.955272
87.9270842
92.4845617
92.2919106
92.3189834
92.2818344
89.8499417
87.966807
88.0037098
87.7959264
87.7911383
92.4423003
92.3665995
88.137494
87.7344525
87.7470534
92.4247224
92.2961443
88.0329049
88.0112456
92.468035
92.2095225
92.3160272
88.5886312
87.8743501
87.8651697
92.3413461
92.3173133
88.530597
87.8321142
87.9331542
92.4078056
92.212596
92.2941204
88.7270253
87.8964251
87.9794698
87.668936
87.6550686
92.4757917
92.3565437
92.3111748
92.3341072
88.3935781
87.8342048
87.8217329
92.3410513
92.3386854
88.3183348
87.7383379
87.8716518
92.4214592
92.2304668
92.3180505
88.3467963
87.8271772
87.9212268
92.3797824
92.2180107
92.2663007
89.0548056
88.0586877
88.0186153
87.9937645
92.366156
92.2814656
88.2402628
88.009713
87.8537599
87.8630214
92.4391877
92.3279922
92.3019906
92.3093664
88.5701886
87.9532679
87.8964486
87.8193782
92.4191629
92.3895417
88.0694057
87.6179805
87.6204634
92.4400034
92.3695974
92.3019037
92.3344334
88.7123654
87.9451123
87.8788823
87.8697323
92.482444
92.3169661
87.8971848
87.9002269
92.4603727
92.2555029
92.3709306
88.276218
87.8018769
87.7839711
92.3804112
92.3841243
88.2465103
87.7066992
87.739465
92.4416564
92.3621305
92.3026198
92.338209
88.4505341
87.797282
87.9034265
87.5442773
87.5292502
92.5319672
92.3994268
92.3453047
92.3576987
88.2277089
87.6888637
87.8003364
92.4387821
92.2327365
92.2805257
88.1626752
87.8156193
87.7833941
92.3470605
92.2325891
88.1339232
87.922814
92.3002792
92.1743992
88.7142477
87.8817856
87.7247831
87.6646749
92.3356708
92.2306821
87.7974776
87.1390009
87.1658268
92.4211039
92.1663781
92.4009181
92.0824528
92.6077519
91.927657
93.0832534
86.6103976
86.4956838
91.7137276
91.2823605
91.1782788
86.4921542
86.1421418
90.5444907
90.0997569
89.9102332
89.534005
89.2824287
88.9351456
88.648424
88.3124409
88.0113685
87.6925344
87.4143372
87.1746159
87.0886395
86.7925324
86.4391503
86.0035559
85.532454
85.0517922
84.4492821
83.9206382
83.1867244
82.6864899
82.1650768
82.2334551
81.5223975
81.0881261
80.0141705
79.3709729
78.0700878
77.0619568
75.5519507
74.3406326
72.9513926
71.4669384
71.4675363
72.1516723
70.5739829
68.821543
66.945027
65.2520607
63.1536642
61.31441
59.0268171
57.6211659
56.2339589
54.4609682
53.3894621
48.994267
41.0258989
34.216775
35.1303333
27.5277758
22.5790404
15.6657604
11.0614567
-8.67485698
-10.9297534
-15.9816058
-19.2211106
-26.0816077
-30.5413192
-39.0001525
-44.2699967
-54.094849
-61.2353972
-71.2976771
-77.820482
-86.7377753
-93.1183614
-101.34268
-104.123267
-109.493948
-118.015225
-123.782513
-121.761283
-125.699147
-137.212776
-142.07178
-136.305221
-139.375647
-151.816599
-154.302103
-152.143469
-154.310549
-159.960241
-162.211598
-163.289285
-165.211345
-166.792472
-168.648047
-169.984981
-172.001702
-172.965326
-175.281257
-175.198375
-175.596763
-180.175582
-187.341044
-177.86894
-174.323077
-190.040676
-197.718647
-181.019712
-181.452958
-198.267022
-199.191897
-187.016001
-185.736958
-199.742108
-200.07181
-191.125276
-188.947202
-200.555219
-200.705215
-193.488997
-191.584538
-199.102563
-201.213533
-197.699428
-193.475222
-196.329336
-201.63081
-201.562264
-195.148538
-196.635207
-201.991671
-201.923963
-196.420488
)
;

boundaryField
{
    closed
    {
        type            calculated;
        value           nonuniform List<scalar> 0();
    }
    open
    {
        type            calculated;
        value           nonuniform List<scalar> 0();
    }
    sides
    {
        type            empty;
    }
    procBoundary4to3
    {
        type            processor;
        value           uniform 87.8870237;
    }
    procBoundary4to5
    {
        type            processor;
        value           uniform -197.065062;
    }
}


// ************************************************************************* //
