/*--------------------------------*- C++ -*----------------------------------*\
| =========                 |                                                 |
| \\      /  F ield         | OpenFOAM: The Open Source CFD Toolbox           |
|  \\    /   O peration     | Version:  2306                                  |
|   \\  /    A nd           | Website:  www.openfoam.com                      |
|    \\/     M anipulation  |                                                 |
\*---------------------------------------------------------------------------*/
FoamFile
{
    version     2.0;
    format      ascii;
    arch        "LSB;label=32;scalar=64";
    class       volScalarField;
    location    "0.00088";
    object      rho;
}
// * * * * * * * * * * * * * * * * * * * * * * * * * * * * * * * * * * * * * //

dimensions      [1 -3 0 0 0 0 0];

internalField   nonuniform List<scalar> 
531
(
0.903071118
0.903061089
0.938862346
0.956143108
0.954100131
0.903282585
0.903050951
0.903372779
0.933008284
0.949899864
0.950295581
0.958246678
0.958118662
0.903215253
0.902685428
0.946858674
0.952885802
0.902895807
0.902880161
0.94343706
0.950817104
0.902685926
0.903123062
0.939616274
0.953484764
0.953343945
0.903261898
0.902588176
0.939530008
0.949059057
0.902996739
0.90316537
0.938988163
0.951689781
0.95160948
0.903301742
0.903051395
0.937739221
0.954796496
0.95207102
0.903004604
0.903025121
0.90292429
0.937856308
0.948961077
0.951723005
0.953951484
0.90329423
0.903349889
0.942818052
0.962944297
0.958966868
0.90372369
0.903004034
0.903482903
0.94402605
0.961316634
0.96094559
0.904323282
0.902811437
0.948676427
0.956623498
0.904052255
0.903002399
0.950175399
0.955009051
0.903838295
0.903133172
0.949102385
0.953895059
0.903690803
0.903266891
0.945395857
0.95299352
0.903643759
0.903516512
0.939508566
0.954273068
0.954061184
0.904172772
0.903371898
0.938908512
0.953874213
0.953810458
0.904141065
0.903374402
0.939035988
0.958845998
0.957543525
0.903591264
0.90349666
0.903311825
0.903546736
0.938192466
0.95372385
0.94997427
0.961716547
0.961362699
0.904420468
0.902922065
0.950270778
0.956191932
0.904110805
0.903076431
0.948995743
0.952963671
0.903832806
0.903139726
0.947147002
0.951340175
0.903577175
0.903200219
0.943838159
0.9507495
0.90338768
0.903355309
0.939703345
0.952690129
0.95266701
0.903747076
0.902858645
0.938748714
0.952751887
0.952680055
0.903267405
0.903082551
0.940020258
0.955730187
0.955563886
0.903449047
0.902405374
0.943293718
0.950403497
0.903237471
0.902758446
0.942124361
0.947028252
0.902988052
0.903065628
0.939453398
0.946264317
0.94918508
0.950489643
0.902990532
0.902896986
0.940162154
0.954725642
0.954669423
0.903260959
0.902634254
0.941377378
0.951203216
0.902858451
0.903080883
0.940015964
0.953459412
0.953388379
0.903331694
0.902331663
0.940016905
0.947393671
0.903044198
0.902844603
0.939240433
0.946250175
0.95000021
0.95011588
0.903037597
0.902753055
0.94358193
0.950058569
0.902925745
0.903029215
0.939722539
0.951978212
0.951986084
0.903330959
0.902689172
0.938989015
0.952068527
0.951968256
0.903297285
0.902934118
0.939391004
0.953644814
0.953591495
0.903489683
0.902726606
0.939699224
0.960113858
0.958374728
0.903093538
0.902884037
0.90288548
0.902811158
0.938574279
0.956315866
0.951831127
0.965947321
0.96572004
0.903105575
0.902815586
0.902916315
0.902807792
0.902835547
0.939318812
0.948349668
0.949993742
0.951898482
0.902985846
0.90302919
0.939767466
0.953567172
0.953385373
0.903520631
0.90263445
0.938842171
0.952729251
0.952773438
0.902961982
0.902818915
0.939424327
0.953999001
0.953830417
0.903232575
0.902407126
0.940486895
0.950525107
0.902834178
0.902807911
0.939297227
0.951846953
0.951875909
0.902932179
0.902703108
0.938431309
0.950970327
0.95090995
0.903193329
0.902570925
0.938542087
0.94771981
0.951914865
0.951914384
0.903176437
0.902740282
0.951043137
0.952150486
0.903051145
0.90303534
0.902920509
0.903052745
0.934594039
0.950661466
0.949170896
0.957497867
0.957501137
0.903147266
0.903064987
0.943575044
0.96062083
0.958855596
0.903564141
0.902719061
0.948410255
0.948924281
0.903110367
0.903143122
0.902836795
0.938982517
0.954648899
0.95457545
0.903222617
0.903143402
0.939201876
0.956647096
0.951777231
0.903237172
0.903002374
0.903196159
0.938834946
0.954018809
0.950040687
0.96288964
0.962702031
0.903165379
0.902889646
0.903066297
0.902888502
0.939516098
0.956261796
0.956101316
0.902994798
0.90293568
0.939590726
0.960207317
0.954089419
0.902982946
0.902934638
0.903018109
0.939500585
0.956720013
0.952269378
0.902949988
0.903062999
0.902994669
0.937817423
0.947212524
0.948913684
0.949632092
0.90289863
0.903075633
0.940036775
0.949608577
0.955236544
0.95510124
0.902730435
0.903265395
0.90294249
0.903131654
0.938893816
0.951771914
0.953418408
0.956791316
0.902772847
0.903201272
0.946445624
0.965128597
0.964101482
0.903274327
0.902981332
0.903264839
0.902947691
0.938177184
0.951778857
0.954477368
0.95445966
0.90308774
0.903008566
0.953515609
0.953477495
0.902727097
0.903220513
0.902913904
0.938765568
0.957936799
0.957849887
0.903342896
0.903034818
0.939925873
0.961674077
0.959788231
0.903294409
0.903190917
0.903152594
0.903114697
0.938537241
0.957983643
0.952959145
0.967744244
0.967588038
0.90311835
0.902673733
0.902780153
0.902529632
0.939823876
0.961659296
0.956228238
0.902503501
0.901981988
0.902026432
0.941476441
0.955962616
0.955888598
0.901875052
0.900873496
0.942247594
0.950066514
0.900768098
0.900308952
0.940569225
0.950500167
0.956098583
0.957809576
0.898653367
0.897721273
0.951089084
0.976100194
0.973685537
0.8964289
0.893989184
0.895832929
0.892167991
0.896106396
0.893619826
0.903529987
0.982599508
0.988383717
0.901507131
0.89879585
0.901005594
0.975991531
0.984775535
0.906147375
0.904087714
0.905304356
0.904108393
0.904833516
0.903934942
0.90421812
0.903205741
0.902746142
0.900778538
0.898527391
0.892867873
0.883515667
0.887719537
0.89484541
0.902203386
0.908627532
0.913802552
0.918879676
0.921820499
0.926292805
0.93099734
0.935106433
0.933932322
0.942604607
0.94501147
0.9501917
0.950194917
0.952026786
0.957875956
0.969472531
0.9786118
0.989098498
1.00018546
0.980887724
0.926615532
0.942276955
0.959668525
0.978275827
0.995171249
1.01607266
1.03476199
1.05804097
1.06120971
1.06343146
1.06628944
1.06817913
1.01742897
0.873392861
0.839130142
0.840018624
0.780895054
0.731932109
0.691991362
0.659867107
0.552605219
0.543216231
0.531978737
0.519765248
0.501526187
0.486729445
0.465103434
0.450261368
0.427905373
0.411156201
0.39168573
0.378467029
0.362981384
0.352652636
0.34003335
0.33297352
0.323519458
0.314423152
0.306398133
0.302557623
0.295624588
0.288795166
0.283166433
0.282339378
0.277592258
0.2721305
0.269349548
0.265439784
0.262317389
0.260096835
0.257962746
0.254831951
0.25242619
0.25259265
0.250531538
0.249700571
0.246711242
0.248062756
0.246696584
0.244876414
0.240414833
0.24357998
0.240297878
0.240727562
0.237300332
0.238841639
0.235997457
0.237756686
0.233243649
0.234765157
0.234742603
0.235352795
0.232310091
0.233115238
0.232092222
0.23269607
0.230719926
0.230574521
0.230105359
0.230761534
0.229150931
0.228749523
0.228482181
0.228255863
0.227926394
0.228217112
0.227139593
0.226735789
0.226946843
0.227160773
0.225972688
0.226200232
0.226123867
)
;

boundaryField
{
    closed
    {
        type            calculated;
        value           nonuniform List<scalar> 0();
    }
    open
    {
        type            calculated;
        value           nonuniform List<scalar> 0();
    }
    sides
    {
        type            empty;
    }
    procBoundary4to3
    {
        type            processor;
        value           uniform 0.953544108;
    }
    procBoundary4to5
    {
        type            processor;
        value           uniform 0.226129502;
    }
}


// ************************************************************************* //
