/*--------------------------------*- C++ -*----------------------------------*\
| =========                 |                                                 |
| \\      /  F ield         | OpenFOAM: The Open Source CFD Toolbox           |
|  \\    /   O peration     | Version:  2306                                  |
|   \\  /    A nd           | Website:  www.openfoam.com                      |
|    \\/     M anipulation  |                                                 |
\*---------------------------------------------------------------------------*/
FoamFile
{
    version     2.0;
    format      ascii;
    arch        "LSB;label=32;scalar=64";
    class       volScalarField;
    location    "0.00024";
    object      h;
}
// * * * * * * * * * * * * * * * * * * * * * * * * * * * * * * * * * * * * * //

dimensions      [0 2 -2 0 0 0 0];

internalField   nonuniform List<scalar> 
531
(
3593.41606
2697.59985
1379.23542
1797.46835
2804.59522
2673.71334
1977.7732
1997.13587
2413.02443
2427.61776
2225.92842
2198.19926
2285.18789
2304.73643
2272.47633
2264.96537
2275.79116
2275.27896
2268.16246
2273.15285
2282.06467
2277.50764
2265.88146
2267.27197
2279.7177
2280.50585
2272.00179
2268.99386
2273.21927
2276.16493
2274.88279
2274.15172
2274.59952
2272.09096
2270.24886
2275.62812
2280.90277
2274.49657
2263.68513
2268.41922
2286.49852
2285.28428
2261.4872
2257.91513
2281.42931
2293.45168
2274.47886
2252.87272
2263.06718
2293.76205
2291.86696
2260.30232
2254.73642
2276.92105
2290.3389
2280.02665
2263.7982
2264.96019
2274.14608
2278.49668
2280.0336
2279.21773
2266.86686
2260.54556
2275.17292
2292.18925
2281.99499
2254.32073
2257.26211
2290.72324
2292.95331
2264.859
2255.93769
2275.57384
2288.27646
2276.79983
2264.32398
2269.87468
2278.82784
2276.46189
2272.00874
2273.65948
2275.34646
2271.81204
2270.93261
2277.47802
2278.96313
2270.28559
2267.07268
2276.14538
2281.57345
2273.739
2266.40282
2272.07347
2280.3637
2276.96589
2268.78401
2270.44985
2277.8083
2277.13308
2270.76779
2270.89186
2276.65455
2276.8804
2271.44719
2270.58773
2275.86551
2277.64211
2272.76142
2269.80697
2273.81208
2278.10109
2275.52118
2269.85073
2270.60894
2277.36484
2277.9764
2272.28165
2269.25534
2273.1168
2278.82287
2277.45997
2268.83554
2268.76187
2277.58713
2280.25253
2272.11458
2266.47785
2273.26666
2282.23513
2277.66144
2264.86012
2266.29203
2282.91292
2284.15544
2267.82914
2261.3305
2275.00871
2287.82323
2279.22106
2260.17952
2262.55477
2285.18642
2287.24104
2268.79885
2260.67645
2272.67449
2285.30645
2280.01103
2265.11163
2265.97626
2279.26662
2281.21983
2271.86781
2267.19983
2273.65065
2280.70176
2276.38654
2266.16168
2267.82952
2282.85631
2283.22527
2266.57318
2261.19342
2276.75037
2289.02642
2278.05601
2258.40388
2261.95238
2287.28782
2288.7041
2267.82968
2259.02595
2272.16576
2286.76305
2281.81279
2263.90138
2264.28146
2279.15239
2282.88848
2273.05321
2266.02356
2271.39317
2280.5282
2278.98697
2268.68185
2268.2537
2276.0011
2279.13684
2275.05471
2269.93798
2270.71062
2275.73755
2276.97807
2274.4394
2271.58284
2272.32494
2275.6559
2275.4817
2271.84712
2271.89351
2277.22919
2277.46118
2269.22256
2267.60694
2278.73402
2283.40054
2270.85085
2261.57919
2273.21115
2287.8724
2279.55138
2259.71729
2263.06197
2286.93768
2286.81492
2265.18879
2260.64897
2277.43337
2286.32552
2275.18222
2263.11255
2268.62691
2282.54071
2281.36804
2268.17591
2266.39704
2275.7256
2280.78128
2275.43877
2267.94859
2269.82805
2278.70824
2278.59607
2271.07515
2269.61167
2274.98071
2277.19474
2273.67113
2271.71673
2274.22197
2275.47113
2272.69228
2271.95767
2276.2636
2277.03152
2270.73101
2269.19293
2277.0587
2279.98819
2271.42747
2266.90842
2275.41082
2281.4096
2273.17154
2265.74645
2273.91117
2283.30276
2275.20356
2262.38609
2269.62132
2287.93725
2283.33947
2257.95111
2258.71992
2288.75645
2293.59924
2264.52566
2250.82843
2274.63106
2298.31469
2283.65274
2250.72266
2254.70171
2292.45221
2296.57785
2265.72904
2250.59835
2270.78244
2295.67438
2287.03206
2255.13319
2256.06545
2286.28793
2292.26199
2268.857
2256.80455
2273.13634
2288.77365
2278.4479
2261.36175
2267.22657
2284.46561
2282.0566
2264.58824
2264.88227
2281.37154
2283.73468
2269.33642
2263.0618
2274.24708
2285.2164
2278.89615
2263.29848
2264.41316
2281.38025
2285.09795
2272.317
2262.53164
2269.26943
2284.08446
2282.84959
2266.57855
2263.71812
2276.54619
2283.97428
2275.53175
2264.72659
2269.01666
2281.61548
2280.66738
2267.99656
2267.02412
2277.14436
2280.38604
2273.05296
2268.056
2272.65561
2278.85602
2276.72292
2270.02963
2270.38866
2276.36718
2277.14762
2272.93146
2271.0701
2273.84204
2276.37897
2274.5663
2271.5087
2272.70458
2276.45278
2275.76844
2271.00672
2271.2134
2276.96255
2277.25473
2271.10804
2269.95394
2276.08339
2278.19692
2272.5278
2269.50638
2274.3768
2278.09794
2274.19384
2270.08404
2273.04125
2277.21666
2275.04936
2271.01505
2272.63196
2276.46291
2275.21327
2271.48315
2272.45469
2276.2506
2275.52215
2271.58176
2272.04373
2276.1833
2276.00869
2271.5438
2271.5491
2276.25141
2276.66407
2271.63113
2270.43075
2275.69004
2278.2316
2273.24189
2268.76587
2272.6155
2279.38396
2277.92114
2268.52528
2268.41186
2276.99057
2279.97504
2274.03994
2268.19975
2270.27866
2278.36331
2278.60214
2272.73886
2269.7691
2271.70859
2276.32862
2276.83062
2274.87423
2271.9791
2271.07984
2272.43793
2276.83674
2278.19151
2273.75577
2268.10467
2269.27281
2279.33975
2281.83153
2272.93251
2264.39988
2267.58523
2282.78903
2284.70699
2271.42219
2261.31878
2266.55521
2285.85321
2287.06205
2268.99488
2258.19036
2269.10546
2289.33377
2286.99753
2261.72235
2257.81604
2278.78193
2290.19962
2276.12973
2259.21021
2266.20738
2286.05399
2284.47595
2264.78554
2263.39767
2278.97678
2283.88015
2272.33284
2264.22177
2271.92608
2283.36824
2280.27734
2264.67159
2264.77627
2279.89672
2284.66543
2272.99486
2262.68584
2268.99966
2283.95805
2282.81744
2267.21666
2264.3824
2275.30089
2282.1319
2276.76906
2268.11038
2269.14231
2276.67022
2277.73527
2274.2046
2271.88234
2272.30076
2273.79965
2275.17844
2275.43064
2273.70003
2271.87029
2272.88174
2275.91999
2275.68897
2272.2595
2271.95059
2274.75842
2275.63271
2273.8389
2272.69501
2273.29933
2274.255
2274.28603
2274.71161
2274.66755
2272.63046
2271.9885
2273.34993
2274.97877
2279.35783
2284.31455
2265.06651
2231.49185
2271.2981
2407.31433
2385.18294
1959.41171
1909.75936
2858.13377
3227.42447
1600.15576
-93.3046683
2566.87892
6033.37885
2803.89684
-3484.86102
-1694.42916
10118.444
9873.21354
-3632.08833
-4781.90175
1197.7339
10209.9539
9605.75722
-4872.70733
-4962.66268
3006.36887
10164.982
9473.52725
-5409.86406
-5559.25973
2630.98998
10128.3422
9410.42455
-5050.14939
-3687.87573
10071.3524
9241.50542
-5528.77831
-3918.33359
10052.942
9268.60933
-5436.45003
)
;

boundaryField
{
    closed
    {
        type            lookUpEnthalpy;
        h0              nonuniform List<scalar> 0();
        value           nonuniform List<scalar> 0();
    }
    open
    {
        type            zeroGradient;
    }
    sides
    {
        type            empty;
    }
    procBoundary3to2
    {
        type            processor;
        value           uniform 2151.39111;
    }
    procBoundary3to4
    {
        type            processor;
        value           uniform -3970.68999;
    }
}


// ************************************************************************* //
