/*--------------------------------*- C++ -*----------------------------------*\
| =========                 |                                                 |
| \\      /  F ield         | OpenFOAM: The Open Source CFD Toolbox           |
|  \\    /   O peration     | Version:  2306                                  |
|   \\  /    A nd           | Website:  www.openfoam.com                      |
|    \\/     M anipulation  |                                                 |
\*---------------------------------------------------------------------------*/
FoamFile
{
    version     2.0;
    format      ascii;
    arch        "LSB;label=32;scalar=64";
    class       volScalarField;
    location    "0.00024";
    object      sourcePV;
}
// * * * * * * * * * * * * * * * * * * * * * * * * * * * * * * * * * * * * * //

dimensions      [1 -3 -1 0 0 0 0];

internalField   nonuniform List<scalar> 
531
(
0.0653867455
0.0764303515
0.0919399468
0.0871147676
0.0751751151
0.0767399002
0.0850343741
0.0848027111
0.0798789399
0.0797044605
0.0821013439
0.0824306615
0.0813966954
0.081165035
0.081547352
0.0816368248
0.081507942
0.0815141056
0.0815985185
0.08153928
0.0814333944
0.0814875365
0.0816255873
0.08160908
0.0814612767
0.0814519121
0.0815529227
0.0815886378
0.0815384637
0.0815034798
0.0815187073
0.0815273904
0.0815220726
0.0815518629
0.0815737382
0.0815098556
0.0814471987
0.0815232968
0.0816516589
0.081595463
0.0813807015
0.0813951373
0.0816777429
0.0817201356
0.0814409448
0.0812980522
0.0815235112
0.0817799527
0.08165899
0.0812943561
0.0813168854
0.0816918118
0.0817578429
0.0814945067
0.0813350584
0.0814576042
0.0816503226
0.0816365212
0.0815274666
0.0814757881
0.0814575247
0.0814672257
0.0816138899
0.0816889224
0.0815152669
0.0813130574
0.0814342207
0.0817627703
0.0817278741
0.0813304878
0.0813039727
0.0816377307
0.0817435946
0.0815105026
0.0813595763
0.0814959366
0.0816440802
0.0815781785
0.0814718515
0.0814999524
0.0815528411
0.0815332367
0.0815132011
0.0815551751
0.0815656181
0.0814878813
0.0814702401
0.0815732996
0.0816114456
0.0815037106
0.0814392274
0.0815322909
0.0816193977
0.0815520696
0.0814536012
0.0814939642
0.0815911292
0.0815713494
0.0814839587
0.081491979
0.0815675746
0.0815661015
0.081497663
0.0814949805
0.0815595069
0.0815697125
0.0815070348
0.0814859323
0.0815439005
0.0815789829
0.0815314232
0.0814804802
0.0815111246
0.0815784631
0.0815694604
0.0814892258
0.0814819615
0.0815495984
0.0815855326
0.0815396807
0.081471906
0.081488096
0.0815905165
0.0815913918
0.0814865858
0.0814549224
0.0815515825
0.0816185081
0.0815379014
0.0814313669
0.0814857038
0.0816377107
0.0816207142
0.0814233122
0.08140855
0.0816024668
0.0816796047
0.0815172143
0.081364959
0.0814671768
0.0816932611
0.0816650714
0.0813962973
0.0813718777
0.0815909566
0.0816873659
0.0815449349
0.0813948719
0.0814577892
0.0816347271
0.0816244609
0.081466637
0.0814434308
0.081554514
0.0816099383
0.0815333414
0.0814495864
0.0815008479
0.0816222617
0.0816024627
0.0814239846
0.0814196039
0.081617376
0.081681232
0.0814965278
0.0813506574
0.0814810189
0.0817143308
0.0816722203
0.0813713219
0.0813544874
0.0816024648
0.0817069517
0.0815509778
0.0813775616
0.0814363819
0.0816490926
0.0816445786
0.081467995
0.0814236043
0.0815404374
0.0816239015
0.0815601487
0.0814516474
0.0814699558
0.0815923419
0.0815974245
0.0815054254
0.0814681761
0.0815166653
0.0815774276
0.0815682527
0.0815085553
0.08149382
0.0815239731
0.0815578963
0.0815490837
0.0815095249
0.0815115939
0.0815547584
0.0815542079
0.0814908378
0.0814880833
0.0815859217
0.0816051055
0.0814729611
0.0814175206
0.0815665886
0.0816766531
0.0815385612
0.0813643746
0.0814632525
0.0816987474
0.0816590516
0.0813754827
0.0813769426
0.0816338119
0.0816876926
0.0814884147
0.0813827611
0.0815151519
0.0816584554
0.0815929932
0.0814277366
0.0814416675
0.08159835
0.081619467
0.0815086984
0.0814486406
0.0815121041
0.0816010476
0.0815787319
0.0814732679
0.0814745998
0.0815639253
0.0815813017
0.0815175441
0.0814912466
0.0815330971
0.0815563066
0.0815265552
0.0815117194
0.0815447217
0.0815534455
0.0815023066
0.0814931856
0.0815680109
0.0815862739
0.081492862
0.0814580622
0.0815597411
0.0816133962
0.0815124355
0.081441176
0.0815390303
0.081627192
0.081530247
0.081418684
0.0815148989
0.0816670797
0.0815811911
0.0813636063
0.0814182484
0.0817197028
0.0817105873
0.0813538651
0.0812963015
0.081641685
0.0818042053
0.0815217057
0.0812402264
0.0814145272
0.0818054548
0.0817582533
0.0813099364
0.0812608805
0.08162741
0.0818069348
0.0815674109
0.0812716278
0.0813743593
0.0817531393
0.0817420753
0.0813832134
0.0813121969
0.0815902684
0.0817333133
0.0815394505
0.0813536673
0.0814763602
0.081679237
0.0816096187
0.0814048656
0.0814334878
0.0816409392
0.0816374497
0.0814416279
0.0814135503
0.0815845713
0.0816590574
0.0815262593
0.0813959407
0.0814710365
0.0816562457
0.0816430153
0.081441525
0.081397348
0.081549182
0.0816653485
0.0815853664
0.0814093914
0.0814240639
0.0816173132
0.0816512659
0.0814989524
0.0814107017
0.0815110001
0.0816392966
0.0815883657
0.0814387292
0.0814499922
0.0816004783
0.0816120225
0.0814918458
0.0814533361
0.0815404388
0.0815997724
0.0815451571
0.0814715125
0.0814968503
0.0815763393
0.0815720758
0.0815010766
0.0814918062
0.0815418813
0.0815639848
0.0815310672
0.0815009363
0.0815224656
0.0815587766
0.0815445754
0.0815000595
0.0815081879
0.0815647371
0.0815622831
0.0814940043
0.0814905338
0.081563534
0.0815772378
0.0815044469
0.0814793417
0.0815466747
0.0815825519
0.0815247161
0.0814805176
0.0815268891
0.0815756932
0.0815405771
0.0814909861
0.0815167283
0.0815646384
0.0815454378
0.0814999392
0.0815147816
0.0815590799
0.0815475429
0.0815024609
0.081511113
0.0815579089
0.0815524231
0.0815032602
0.0815053342
0.0815583596
0.0815582969
0.0815024512
0.0814975499
0.0815573226
0.0815715765
0.081509119
0.08147893
0.0815381948
0.0815913439
0.0815456337
0.0814652401
0.0814826175
0.0815941998
0.0815955467
0.0814936722
0.081458218
0.0815287178
0.081598065
0.0815733818
0.0814773653
0.0814745274
0.0815441694
0.0815794323
0.0815564029
0.0815015347
0.0814955713
0.0815188091
0.081553191
0.0815638689
0.081547743
0.0814954988
0.0814794062
0.0815320935
0.0815991934
0.0815853263
0.0814657654
0.0814361615
0.0815418723
0.0816431726
0.0816053628
0.0814247839
0.0814019933
0.0815598103
0.0816797412
0.0816175926
0.0813883706
0.0813740057
0.081588632
0.0817168651
0.0815873178
0.0813470023
0.0813747705
0.0816749544
0.0817213066
0.0814723982
0.0813367131
0.0815038996
0.0817047672
0.0816217166
0.0813859885
0.0814047379
0.0816385986
0.081655071
0.0814700804
0.081411822
0.0815489918
0.08164529
0.081553822
0.0814179036
0.0814546271
0.0816399478
0.0816387064
0.0814591503
0.081402488
0.0815411311
0.0816635178
0.0815885686
0.081410893
0.0814244451
0.0816097382
0.0816433804
0.0815137435
0.0814325931
0.0814963028
0.0815991273
0.0815868735
0.0814974782
0.0814848258
0.0815267621
0.0815543402
0.0815493709
0.0815315711
0.0815151953
0.0815122
0.0815327539
0.0815544827
0.0815424717
0.0815063879
0.081509132
0.0815498618
0.0815535307
0.081520187
0.0815098051
0.0815311139
0.0815447055
0.0815375408
0.081526214
0.0815258814
0.0815208961
0.0815215218
0.0815459354
0.0815538546
0.0815383366
0.0815198967
0.0814698039
0.0814134872
0.0816475559
0.0820528372
0.0815966991
0.0799950094
0.0803072739
0.0853523793
0.0860572222
0.0747758835
0.0707080131
0.0897769121
0.10832009
0.0787885981
0.0336873536
0.0759023162
0.142813361
0.122948965
0.00607068163
0.00569997956
0.143951585
0.157346631
0.0955721082
0.00582329246
0.00531538142
0.158448911
0.159543264
0.0757650475
0.00572850063
0.00510189891
0.164556862
0.166391075
0.0802583832
0.00567555077
0.00503720598
0.160558617
0.145253188
0.00569862836
0.00473262899
0.165727235
0.148302798
0.0056788322
0.00464286346
0.164683709
)
;

boundaryField
{
    closed
    {
        type            calculated;
        value           nonuniform List<scalar> 0();
    }
    open
    {
        type            calculated;
        value           nonuniform List<scalar> 0();
    }
    sides
    {
        type            empty;
    }
    procBoundary3to2
    {
        type            processor;
        value           uniform 0;
    }
    procBoundary3to4
    {
        type            processor;
        value           uniform 0;
    }
}


// ************************************************************************* //
