/*--------------------------------*- C++ -*----------------------------------*\
| =========                 |                                                 |
| \\      /  F ield         | OpenFOAM: The Open Source CFD Toolbox           |
|  \\    /   O peration     | Version:  2306                                  |
|   \\  /    A nd           | Website:  www.openfoam.com                      |
|    \\/     M anipulation  |                                                 |
\*---------------------------------------------------------------------------*/
FoamFile
{
    version     2.0;
    format      ascii;
    arch        "LSB;label=32;scalar=64";
    class       volScalarField;
    location    "0.00158";
    object      alpha;
}
// * * * * * * * * * * * * * * * * * * * * * * * * * * * * * * * * * * * * * //

dimensions      [1 -1 -1 0 0 0 0];

internalField   nonuniform List<scalar> 
530
(
3.50038855e-05
3.67758982e-05
3.6780733e-05
3.67866698e-05
3.67837364e-05
3.5257046e-05
3.45646027e-05
3.48396471e-05
3.67747735e-05
3.68104735e-05
3.51934464e-05
3.50981834e-05
3.67823779e-05
3.68091548e-05
3.524822e-05
3.52338102e-05
3.67986322e-05
3.68076431e-05
3.68143177e-05
3.57203907e-05
3.52214305e-05
3.52903374e-05
3.52910964e-05
3.67933053e-05
3.67986331e-05
3.6806372e-05
3.68019176e-05
3.54952302e-05
3.49144574e-05
3.5117722e-05
3.67979876e-05
3.68087001e-05
3.53272246e-05
3.53025124e-05
3.67947428e-05
3.68058961e-05
3.68133884e-05
3.55715019e-05
3.50593268e-05
3.499983e-05
3.50338713e-05
3.68195731e-05
3.68050124e-05
3.68224578e-05
3.5437977e-05
3.50811156e-05
3.68033478e-05
3.68163386e-05
3.68051136e-05
3.681967e-05
3.56908418e-05
3.52809115e-05
3.53056493e-05
3.53055557e-05
3.68053086e-05
3.68100627e-05
3.55571641e-05
3.51403014e-05
3.51876505e-05
3.68153963e-05
3.68130399e-05
3.56701729e-05
3.50721132e-05
3.5340614e-05
3.68145413e-05
3.68235894e-05
3.68176047e-05
3.56690947e-05
3.51022377e-05
3.53117323e-05
3.68082511e-05
3.68301731e-05
3.54809052e-05
3.54527611e-05
3.68094385e-05
3.68183081e-05
3.68221468e-05
3.57232059e-05
3.53272593e-05
3.53618344e-05
3.53124412e-05
3.6823832e-05
3.68157475e-05
3.54737513e-05
3.49686706e-05
3.51056571e-05
3.68141285e-05
3.68385867e-05
3.53662889e-05
3.53265786e-05
3.68183251e-05
3.68307479e-05
3.68257284e-05
3.56987881e-05
3.51987356e-05
3.54859254e-05
3.51426839e-05
3.53335686e-05
3.68243504e-05
3.68217536e-05
3.68262442e-05
3.55296573e-05
3.53941503e-05
3.68309774e-05
3.68227876e-05
3.6830107e-05
3.55403404e-05
3.53569264e-05
3.68293712e-05
3.55165255e-05
3.52709928e-05
3.68232066e-05
3.68172704e-05
3.68252168e-05
3.56456576e-05
3.51307043e-05
3.51379005e-05
3.51538192e-05
3.68209974e-05
3.68127268e-05
3.68260335e-05
3.56284373e-05
3.5161817e-05
3.6819897e-05
3.68141434e-05
3.57129762e-05
3.50190795e-05
3.54352833e-05
3.68209349e-05
3.55491836e-05
3.52622637e-05
3.68289855e-05
3.6814984e-05
3.6829009e-05
3.5613141e-05
3.49216038e-05
3.5211595e-05
3.68200874e-05
3.68200404e-05
3.53670778e-05
3.53941222e-05
3.68280002e-05
3.56699298e-05
3.51544422e-05
3.68112737e-05
3.68292538e-05
3.54372812e-05
3.52352827e-05
3.68131609e-05
3.68279417e-05
3.53687652e-05
3.52997076e-05
3.68170967e-05
3.68229877e-05
3.53697513e-05
3.53681736e-05
3.68199084e-05
3.68169227e-05
3.682454e-05
3.57273939e-05
3.52049348e-05
3.55349727e-05
3.5213798e-05
3.53272598e-05
3.68206643e-05
3.68208741e-05
3.6820022e-05
3.6827449e-05
3.57227375e-05
3.49944918e-05
3.54336902e-05
3.68358206e-05
3.55214247e-05
3.49613882e-05
3.68236215e-05
3.6825732e-05
3.52619818e-05
3.51176886e-05
3.6823259e-05
3.68240153e-05
3.52456439e-05
3.52476213e-05
3.68258542e-05
3.68222027e-05
3.68267707e-05
3.57080245e-05
3.51875064e-05
3.55660527e-05
3.52353669e-05
3.54724171e-05
3.68202202e-05
3.68249641e-05
3.68182194e-05
3.68307571e-05
3.57228889e-05
3.52698612e-05
3.53301222e-05
3.68339969e-05
3.68260747e-05
3.55075627e-05
3.5008875e-05
3.51349095e-05
3.68285841e-05
3.68304747e-05
3.5245464e-05
3.52576538e-05
3.68443373e-05
3.53791882e-05
3.5119186e-05
3.68383015e-05
3.68336008e-05
3.68306586e-05
3.5632071e-05
3.51046382e-05
3.54541544e-05
3.68200667e-05
3.68384662e-05
3.68130845e-05
3.6844931e-05
3.56124421e-05
3.5410269e-05
3.68264178e-05
3.68371109e-05
3.54801471e-05
3.52629537e-05
3.51119454e-05
3.51971778e-05
3.68332515e-05
3.68222601e-05
3.68275075e-05
3.5714187e-05
3.49639503e-05
3.55478957e-05
3.68306801e-05
3.57066421e-05
3.51268854e-05
3.68416944e-05
3.68132331e-05
3.56961419e-05
3.52223906e-05
3.54598669e-05
3.68201498e-05
3.68295584e-05
3.68163551e-05
3.5727393e-05
3.55234252e-05
3.54519828e-05
3.55004003e-05
3.68490859e-05
3.57278027e-05
3.52790541e-05
3.68303816e-05
3.68301616e-05
3.55697418e-05
3.52769655e-05
3.51733457e-05
3.51806284e-05
3.68351381e-05
3.68189669e-05
3.68309821e-05
3.68183051e-05
3.68286902e-05
3.57258802e-05
3.52993247e-05
3.5344232e-05
3.53100433e-05
3.68290375e-05
3.68199668e-05
3.53426112e-05
3.52685575e-05
3.68310916e-05
3.68160552e-05
3.53715837e-05
3.51435366e-05
3.49864738e-05
3.49915872e-05
3.68317784e-05
3.68188781e-05
3.68248785e-05
3.68229268e-05
3.52742484e-05
3.52649939e-05
3.68435627e-05
3.53591045e-05
3.50827772e-05
3.68406388e-05
3.68145124e-05
3.68360943e-05
3.5540385e-05
3.51156134e-05
3.68304016e-05
3.68178978e-05
3.54311772e-05
3.52632868e-05
3.6835097e-05
3.68149021e-05
3.54252304e-05
3.52075742e-05
3.50750852e-05
3.5087118e-05
3.68384475e-05
3.68174201e-05
3.68303672e-05
3.68189078e-05
3.68211577e-05
3.57255243e-05
3.52740574e-05
3.54675049e-05
3.51900717e-05
3.51913568e-05
3.68206308e-05
3.68247295e-05
3.55344066e-05
3.51793391e-05
3.51962906e-05
3.68226598e-05
3.68147747e-05
3.55355823e-05
3.52452461e-05
3.68401307e-05
3.68040102e-05
3.57156328e-05
3.50254032e-05
3.53116351e-05
3.6818807e-05
3.68307861e-05
3.68138103e-05
3.68271884e-05
3.68089759e-05
3.56504554e-05
3.51572306e-05
3.53164287e-05
3.49683535e-05
3.49819689e-05
3.68144589e-05
3.68276862e-05
3.52246384e-05
3.51192178e-05
3.68269844e-05
3.68169689e-05
3.68159062e-05
3.68192001e-05
3.57339822e-05
3.53320352e-05
3.53712078e-05
3.52139931e-05
3.68296092e-05
3.68249451e-05
3.54183911e-05
3.48877432e-05
3.50531051e-05
3.68307514e-05
3.68131053e-05
3.6828133e-05
3.5422143e-05
3.54380588e-05
3.68429201e-05
3.57324045e-05
3.49904827e-05
3.68285239e-05
3.68133757e-05
3.5473252e-05
3.48414438e-05
3.5066621e-05
3.68179488e-05
3.68170211e-05
3.68133579e-05
3.68134955e-05
3.68086094e-05
3.54577853e-05
3.5222799e-05
3.50720691e-05
3.50910579e-05
3.68285055e-05
3.68029685e-05
3.68215629e-05
3.56730561e-05
3.51323428e-05
3.6820221e-05
3.68007949e-05
3.56712848e-05
3.51133065e-05
3.5377093e-05
3.68046754e-05
3.68034747e-05
3.68019555e-05
3.56788446e-05
3.51110705e-05
3.52905335e-05
3.4865806e-05
3.48898603e-05
3.68080091e-05
3.68039406e-05
3.68047224e-05
3.5109737e-05
3.50639807e-05
3.68236274e-05
3.6801132e-05
3.68178556e-05
3.53788682e-05
3.51456777e-05
3.68229672e-05
3.67953585e-05
3.68153772e-05
3.55929696e-05
3.50451762e-05
3.50793296e-05
3.68055269e-05
3.6809272e-05
3.55125548e-05
3.5059497e-05
3.50729331e-05
3.68039111e-05
3.68142795e-05
3.5451924e-05
3.50886857e-05
3.68145471e-05
3.68137075e-05
3.54746911e-05
3.48360652e-05
3.50892823e-05
3.68177195e-05
3.681339e-05
3.68189332e-05
3.54739622e-05
3.50986435e-05
3.68285471e-05
3.68158417e-05
3.53909996e-05
3.52492243e-05
3.6833941e-05
3.68174423e-05
3.54987864e-05
3.53347425e-05
3.68374844e-05
3.68163959e-05
3.57002716e-05
3.53125162e-05
3.53122727e-05
3.68232984e-05
3.68316429e-05
3.56354217e-05
3.51811624e-05
3.51904688e-05
3.68229947e-05
3.68350082e-05
3.5478481e-05
3.52722929e-05
3.68304226e-05
3.68256249e-05
3.54966416e-05
3.52610402e-05
3.68287778e-05
3.68188668e-05
3.56260646e-05
3.51203252e-05
3.51743421e-05
3.68161073e-05
3.68191856e-05
3.68142098e-05
3.68192865e-05
3.57023948e-05
3.50896654e-05
3.52794846e-05
3.48103099e-05
3.48790086e-05
3.68095305e-05
3.68115125e-05
3.68092622e-05
3.68077621e-05
3.68092146e-05
3.56189092e-05
3.51666043e-05
3.51139701e-05
3.51142086e-05
3.68062963e-05
3.68099035e-05
3.5220148e-05
3.51501841e-05
3.68090759e-05
3.68120941e-05
3.52255044e-05
3.51862816e-05
3.68156898e-05
3.68144079e-05
3.68121115e-05
3.68200323e-05
3.57109469e-05
3.53244178e-05
3.52550785e-05
3.52524003e-05
3.68192916e-05
3.68172543e-05
3.53036767e-05
3.53099214e-05
3.68247238e-05
3.68148103e-05
3.68260563e-05
3.57232215e-05
3.52364554e-05
3.52988631e-05
3.52756036e-05
3.68237627e-05
3.6825268e-05
3.54945654e-05
3.55074977e-05
3.68289781e-05
3.57304357e-05
3.54928378e-05
3.68290121e-05
3.57055911e-05
3.53986169e-05
3.68253571e-05
3.68182814e-05
3.68268065e-05
3.57153903e-05
3.52064376e-05
3.51592797e-05
3.51413114e-05
3.68219019e-05
3.68243948e-05
3.51447323e-05
3.51481111e-05
3.68249793e-05
3.68225978e-05
3.68266346e-05
3.54799276e-05
3.52558824e-05
3.68291239e-05
3.68198105e-05
)
;

boundaryField
{
    closed
    {
        type            calculated;
        value           nonuniform List<scalar> 0();
    }
    open
    {
        type            calculated;
        value           nonuniform List<scalar> 0();
    }
    sides
    {
        type            empty;
    }
    procBoundary2to1
    {
        type            processor;
        value           uniform 3.52234139e-05;
    }
    procBoundary2to3
    {
        type            processor;
        value           uniform 3.68296233e-05;
    }
}


// ************************************************************************* //
