/*--------------------------------*- C++ -*----------------------------------*\
| =========                 |                                                 |
| \\      /  F ield         | OpenFOAM: The Open Source CFD Toolbox           |
|  \\    /   O peration     | Version:  2306                                  |
|   \\  /    A nd           | Website:  www.openfoam.com                      |
|    \\/     M anipulation  |                                                 |
\*---------------------------------------------------------------------------*/
FoamFile
{
    version     2.0;
    format      ascii;
    arch        "LSB;label=32;scalar=64";
    class       volScalarField;
    location    "0.00158";
    object      H2;
}
// * * * * * * * * * * * * * * * * * * * * * * * * * * * * * * * * * * * * * //

dimensions      [0 0 0 0 0 0 0];

internalField   nonuniform List<scalar> 
530
(
0.0106494597
0.0110479506
0.0110240012
0.011027938
0.0110271067
0.0106633868
0.0106203554
0.0106348214
0.0110380829
0.0110171354
0.0106633991
0.0106522242
0.0110417812
0.0110125014
0.0106651672
0.0106626045
0.0110339597
0.011004345
0.0110182028
0.0106964431
0.0106627384
0.0106672673
0.0106672267
0.0110341008
0.0110127728
0.0110154491
0.0110158103
0.0106777707
0.0106424951
0.0106529827
0.0110289722
0.0110106369
0.0106701068
0.0106675745
0.0110350182
0.0110060994
0.0110188989
0.0106839927
0.0106515495
0.0106450951
0.0106496456
0.0110305635
0.0110120815
0.0110208535
0.0106759074
0.010650854
0.0110343865
0.0110139605
0.0110140229
0.0110122615
0.0106926737
0.0106661418
0.0106677451
0.010667321
0.0110284315
0.0110120981
0.0106834539
0.0106567161
0.010658535
0.0110171206
0.0110140603
0.0106898555
0.01065264
0.0106676781
0.0110252032
0.0110007119
0.0110097191
0.0106887699
0.0106546135
0.0106645217
0.0110218199
0.0110036782
0.0106795359
0.01067536
0.0110275467
0.010998309
0.0110091426
0.0107132721
0.0106685163
0.0106700479
0.0106671444
0.0110249202
0.0110137368
0.0106749025
0.01064442
0.0106494994
0.011024242
0.0110076669
0.0106706549
0.0106653073
0.0110292244
0.0110000259
0.0110091262
0.0106932056
0.010659615
0.0106767943
0.0106558932
0.0106671701
0.0110214602
0.0110033316
0.011009765
0.010680219
0.0106718791
0.011026211
0.0110033772
0.0110140786
0.0106807803
0.0106694938
0.011023949
0.0106802647
0.0106638347
0.0110301638
0.0110035982
0.0110177019
0.0106882211
0.0106553847
0.0106538676
0.0106566083
0.0110271504
0.0110063486
0.0110177302
0.0106876386
0.010657004
0.0110164804
0.0110155078
0.0106950078
0.0106486395
0.0106748899
0.0110226854
0.0106822353
0.0106640067
0.0110275052
0.0110045574
0.0110167224
0.010686075
0.0106407965
0.0106585378
0.0110224478
0.0110073352
0.0106698089
0.0106728444
0.0110223498
0.0106918427
0.0106550406
0.0110201047
0.0110102962
0.0106760448
0.0106601925
0.0110243046
0.0110081083
0.010671277
0.0106648686
0.0110244381
0.0110066088
0.0106709447
0.0106702173
0.011024529
0.0109994913
0.011013538
0.0107213481
0.0106603172
0.0106810541
0.010660987
0.0106672453
0.0110150421
0.0110088693
0.0110034094
0.0110106047
0.0107140053
0.010645088
0.0106741331
0.011024303
0.0106798115
0.0106418265
0.0110216389
0.0110148367
0.0106626882
0.0106524
0.0110253178
0.0110107554
0.0106617548
0.0106613949
0.0110245853
0.0110013738
0.0110142381
0.0107030549
0.0106594615
0.0106822838
0.0106629704
0.0106764157
0.0110137245
0.0110032374
0.0110032204
0.0110055485
0.0107107166
0.0106632552
0.0106671319
0.011010409
0.011011166
0.0106776474
0.0106459082
0.0106521533
0.0110191365
0.0110094684
0.010660372
0.0106617501
0.0110217661
0.010669714
0.0106510936
0.0110218925
0.0110035413
0.0110131487
0.0106856997
0.0106537957
0.0106734154
0.0110175771
0.0110005637
0.0110087583
0.0110010426
0.010687983
0.0106708971
0.0110117437
0.0110050861
0.010677399
0.0106619708
0.0106521153
0.0106572986
0.0110196592
0.0110015462
0.0110151279
0.0107075711
0.0106438307
0.010680904
0.0110216938
0.010706864
0.0106547938
0.0110027838
0.0110097139
0.0106966895
0.0106626146
0.0106740684
0.0110131806
0.0109960915
0.0110038174
0.0107287327
0.0106821692
0.0106742294
0.010680149
0.0110091918
0.0107087394
0.010662676
0.0110061076
0.011007096
0.0106830885
0.0106643402
0.010655876
0.010657072
0.0110200639
0.0110060537
0.0110161633
0.0109996422
0.0110121561
0.010712886
0.0106659896
0.010668743
0.0106661048
0.0110164923
0.0110082194
0.0106683855
0.0106639098
0.011015136
0.0110114161
0.0106699466
0.0106559862
0.0106434186
0.0106444962
0.0110237204
0.0110148845
0.0110169275
0.0110115548
0.0106631509
0.0106633114
0.0110189225
0.0106692922
0.0106501127
0.0110209167
0.0110079861
0.0110184496
0.0106820708
0.0106532897
0.0110102684
0.0110117855
0.0106740037
0.0106640011
0.0110109332
0.0110108319
0.0106731985
0.0106605398
0.0106489448
0.0106511119
0.0110183797
0.0110078603
0.011014553
0.0110000828
0.0110096093
0.0107175492
0.0106652879
0.0106761609
0.0106592127
0.0106570394
0.0110114017
0.0110113459
0.0106824471
0.0106583203
0.0106589591
0.0110097376
0.0110106901
0.0106810223
0.0106642715
0.011002347
0.0110133056
0.0107190474
0.0106495094
0.0106637617
0.0110215477
0.0110030022
0.0110170726
0.0109995505
0.0110124385
0.0106883747
0.0106586985
0.0106652053
0.010644736
0.010641881
0.0110194325
0.0110142218
0.0106613629
0.0106529384
0.0110178928
0.0110118561
0.0110077552
0.011009935
0.0107081543
0.0106691582
0.0106710691
0.0106599366
0.0110133014
0.0110139443
0.0106734793
0.0106376019
0.0106481422
0.0110206467
0.0110107097
0.0110129765
0.0106743738
0.0106756836
0.011016585
0.0107186341
0.0106446842
0.0110060752
0.011016754
0.0106769937
0.0106360615
0.0106487475
0.011024652
0.0110115577
0.0110181812
0.0110078734
0.0110109841
0.0106770238
0.0106626048
0.0106500809
0.0106526792
0.0110218481
0.0110072029
0.0110195002
0.0106922456
0.0106567762
0.0110060772
0.0110135111
0.0106916754
0.0106571142
0.0106714186
0.0110203987
0.0110023912
0.0110150411
0.0106931539
0.010656764
0.0106660818
0.0106386031
0.010638187
0.011025832
0.0110185522
0.0110203197
0.0106537875
0.0106512249
0.0110290438
0.0110123989
0.0110225506
0.0106722149
0.0106574079
0.0110232942
0.0110085225
0.0110205445
0.010687636
0.0106508599
0.0106514391
0.0110150324
0.0110150731
0.010681641
0.0106520964
0.0106504996
0.0110166479
0.0110155736
0.0106776144
0.0106526527
0.011014739
0.0110153449
0.0106782829
0.0106358285
0.0106509879
0.0110266798
0.0110091529
0.0110201153
0.0106773053
0.010652822
0.011015025
0.011012529
0.0106707833
0.0106628549
0.0110138063
0.0110091764
0.0106776775
0.0106690065
0.0110077078
0.0110088569
0.0106961539
0.0106679465
0.0106644547
0.0110095057
0.0110089833
0.0106872986
0.0106579232
0.0106559493
0.0110131693
0.0110086793
0.0106772863
0.0106628702
0.0110141519
0.0110088311
0.010678017
0.0106632664
0.0110117018
0.0110121836
0.0106870343
0.0106550278
0.0106561629
0.0110170087
0.0110115857
0.0110065004
0.0110112905
0.0106935602
0.0106535188
0.0106642653
0.0106337491
0.010636451
0.0110304773
0.0110142756
0.0110233883
0.0110075627
0.0110172821
0.0106887167
0.010659151
0.0106545833
0.0106541969
0.0110292653
0.0110138618
0.010661971
0.0106562719
0.0110278716
0.0110124482
0.0106616797
0.0106584945
0.0110271052
0.0110116348
0.0110109761
0.0110102723
0.0106944032
0.0106688035
0.0106634775
0.010662765
0.0110245175
0.0110088432
0.0106660346
0.0106665974
0.0110264448
0.0110012105
0.0110167009
0.0107121141
0.0106615183
0.0106654151
0.0106631356
0.0110225446
0.0110052059
0.0106785136
0.0106799265
0.0110165795
0.0107177166
0.0106788681
0.0110159182
0.0106933088
0.0106724889
0.0110227678
0.0109997069
0.0110151114
0.0107046077
0.0106594869
0.0106557139
0.0106539291
0.0110321631
0.0110118057
0.0106544994
0.0106543089
0.0110355674
0.0110080767
0.0110197302
0.0106770273
0.0106621913
0.0110282513
0.0110023219
)
;

boundaryField
{
    closed
    {
        type            calculated;
        value           nonuniform List<scalar> 0();
    }
    open
    {
        type            calculated;
        value           nonuniform List<scalar> 0();
    }
    sides
    {
        type            empty;
    }
    procBoundary2to1
    {
        type            processor;
        value           uniform 0.0106645767;
    }
    procBoundary2to3
    {
        type            processor;
        value           uniform 0.0110120414;
    }
}


// ************************************************************************* //
