/*--------------------------------*- C++ -*----------------------------------*\
| =========                 |                                                 |
| \\      /  F ield         | OpenFOAM: The Open Source CFD Toolbox           |
|  \\    /   O peration     | Version:  2306                                  |
|   \\  /    A nd           | Website:  www.openfoam.com                      |
|    \\/     M anipulation  |                                                 |
\*---------------------------------------------------------------------------*/
FoamFile
{
    version     2.0;
    format      ascii;
    arch        "LSB;label=32;scalar=64";
    class       volVectorField;
    location    "0.00014";
    object      U;
}
// * * * * * * * * * * * * * * * * * * * * * * * * * * * * * * * * * * * * * //

dimensions      [0 1 -1 0 0 0 0];

internalField   nonuniform List<vector> 
530
(
(-0.626776122 0 0)
(-0.692947189 0 0)
(-0.739993886 0 0)
(-0.767557734 0 0)
(-0.775624233 0 0)
(-0.764454036 0 0)
(-0.734348342 0 0)
(-0.686230331 0 0)
(-0.621201975 0 0)
(-0.540541379 0 0)
(-0.445276672 0 0)
(-0.337148668 0 0)
(-0.217780621 0 0)
(-0.0888966412 0 0)
(0.0479238426 0 0)
(0.190637985 0 0)
(0.337770135 0 0)
(0.487435372 0 0)
(0.638124492 0 0)
(0.788142924 0 0)
(0.93630422 0 0)
(1.08120476 0 0)
(1.22179996 0 0)
(1.35693532 0 0)
(1.48582116 0 0)
(1.6075967 0 0)
(1.72172235 0 0)
(1.82760927 0 0)
(1.92489523 0 0)
(2.01319134 0 0)
(2.09235905 0 0)
(2.16232282 0 0)
(2.2230849 0 0)
(2.27465913 0 0)
(2.31713001 0 0)
(2.35062355 0 0)
(2.3752884 0 0)
(2.39132715 0 0)
(2.39892684 0 0)
(2.39834268 0 0)
(2.38976462 0 0)
(2.37344552 0 0)
(2.34961576 0 0)
(2.31864726 0 0)
(2.28083263 0 0)
(2.23654314 0 0)
(2.18610021 0 0)
(2.12993707 0 0)
(2.06844288 0 0)
(2.00212577 0 0)
(1.93145412 0 0)
(1.85701857 0 0)
(1.77937479 0 0)
(1.69919705 0 0)
(1.61711557 0 0)
(1.53384764 0 0)
(1.45009207 0 0)
(1.36666006 0 0)
(1.28433578 0 0)
(1.20391134 0 0)
(1.12616019 0 0)
(1.05186046 0 0)
(0.981751836 0 0)
(0.916555242 0 0)
(0.856937295 0 0)
(0.803520284 0 0)
(0.756859845 0 0)
(0.717445009 0 0)
(0.685689121 0 0)
(0.661949266 0 0)
(0.646482006 0 0)
(0.639422282 0 0)
(0.640824655 0 0)
(0.650671362 0 0)
(0.668884405 0 0)
(0.695277932 0 0)
(0.729611603 0 0)
(0.771550419 0 0)
(0.820698313 0 0)
(0.876589899 0 0)
(0.938698623 0 0)
(1.00645125 0 0)
(1.07925145 0 0)
(1.15646061 0 0)
(1.23742521 0 0)
(1.32146815 0 0)
(1.40791175 0 0)
(1.49606743 0 0)
(1.58526252 0 0)
(1.67482537 0 0)
(1.76410275 0 0)
(1.85249188 0 0)
(1.93940239 0 0)
(2.02425502 0 0)
(2.10652585 0 0)
(2.18572985 0 0)
(2.26142481 0 0)
(2.33321149 0 0)
(2.40073975 0 0)
(2.46370534 0 0)
(2.52185538 0 0)
(2.57498433 0 0)
(2.62293799 0 0)
(2.66560975 0 0)
(2.70294246 0 0)
(2.73492534 0 0)
(2.76159374 0 0)
(2.78302669 0 0)
(2.79934478 0 0)
(2.81070829 0 0)
(2.81731329 0 0)
(2.81939053 0 0)
(2.81719957 0 0)
(2.81102844 0 0)
(2.80118818 0 0)
(2.78801257 0 0)
(2.77186391 0 0)
(2.75309995 0 0)
(2.73207645 0 0)
(2.70917294 0 0)
(2.68476963 0 0)
(2.6592444 0 0)
(2.63297104 0 0)
(2.60631412 0 0)
(2.57962888 0 0)
(2.55325686 0 0)
(2.52752413 0 0)
(2.50273881 0 0)
(2.47918913 0 0)
(2.45714184 0 0)
(2.43684078 0 0)
(2.4185058 0 0)
(2.4023319 0 0)
(2.38848873 0 0)
(2.37712022 0 0)
(2.36834454 0 0)
(2.36225416 0 0)
(2.35891629 0 0)
(2.35837326 0 0)
(2.36064329 0 0)
(2.36572112 0 0)
(2.37357912 0 0)
(2.38416799 0 0)
(2.39741809 0 0)
(2.41324025 0 0)
(2.43152715 0 0)
(2.45215419 0 0)
(2.47498088 0 0)
(2.49985168 0 0)
(2.52659737 0 0)
(2.55503589 0 0)
(2.58497357 0 0)
(2.61620595 0 0)
(2.64851891 0 0)
(2.6816895 0 0)
(2.71548694 0 0)
(2.74967342 0 0)
(2.78400504 0 0)
(2.81823263 0 0)
(2.85210264 0 0)
(2.88535798 0 0)
(2.91773896 0 0)
(2.94898409 0 0)
(2.97883114 0 0)
(3.00701806 0 0)
(3.03328397 0 0)
(3.05737031 0 0)
(3.07902209 0 0)
(3.09798867 0 0)
(3.11402527 0 0)
(3.12689482 0 0)
(3.13636846 0 0)
(3.14222681 0 0)
(3.14426231 0 0)
(3.14228045 0 0)
(3.13610086 0 0)
(3.12555919 0 0)
(3.1105084 0 0)
(3.09082023 0 0)
(3.06638684 0 0)
(3.03712201 0 0)
(3.00296227 0 0)
(2.96386839 0 0)
(2.91982615 0 0)
(2.87084721 0 0)
(2.81697006 0 0)
(2.75826032 0 0)
(2.69481098 0 0)
(2.62674273 0 0)
(2.55420369 0 0)
(2.47736882 0 0)
(2.39643958 0 0)
(2.31164285 0 0)
(2.22322956 0 0)
(2.13147357 0 0)
(2.03666993 0 0)
(1.93913262 0 0)
(1.8391927 0 0)
(1.73719616 0 0)
(1.63350075 0 0)
(1.52847368 0 0)
(1.42248932 0 0)
(1.31592523 0 0)
(1.2091595 0 0)
(1.10256918 0 0)
(0.996525157 0 0)
(0.891389496 0 0)
(0.787515826 0 0)
(0.685242288 0 0)
(0.584888768 0 0)
(0.486762608 0 0)
(0.391145717 0 0)
(0.298287755 0 0)
(0.20844159 0 0)
(0.121816978 0 0)
(0.0385806699 0 0)
(-0.0411052635 0 0)
(-0.117113566 0 0)
(-0.189346235 0 0)
(-0.257734059 0 0)
(-0.322236191 0 0)
(-0.382839211 0 0)
(-0.439555955 0 0)
(-0.49242563 0 0)
(-0.541508424 0 0)
(-0.586889012 0 0)
(-0.628676871 0 0)
(-0.66699696 0 0)
(-0.70199033 0 0)
(-0.73381247 0 0)
(-0.762630988 0 0)
(-0.788623068 0 0)
(-0.811972987 0 0)
(-0.832869881 0 0)
(-0.851505373 0 0)
(-0.868070997 0 0)
(-0.882756045 0 0)
(-0.895745495 0 0)
(-0.907217531 0 0)
(-0.91734152 0 0)
(-0.926277027 0 0)
(-0.934172111 0 0)
(-0.941161091 0 0)
(-0.94736362 0 0)
(-0.952884025 0 0)
(-0.957810214 0 0)
(-0.96221329 0 0)
(-0.966147666 0 0)
(-0.969649806 0 0)
(-0.972737634 0 0)
(-0.97541364 0 0)
(-0.977665406 0 0)
(-0.979463528 0 0)
(-0.980763402 0 0)
(-0.981507683 0 0)
(-0.981626536 0 0)
(-0.981038298 0 0)
(-0.979652862 0 0)
(-0.977372757 0 0)
(-0.974092644 0 0)
(-0.969703075 0 0)
(-0.964092512 0 0)
(-0.957146573 0 0)
(-0.948753025 0 0)
(-0.938810597 0 0)
(-0.927215451 0 0)
(-0.913835045 0 0)
(-0.898575004 0 0)
(-0.881379311 0 0)
(-0.862166137 0 0)
(-0.840858376 0 0)
(-0.81739975 0 0)
(-0.791746782 0 0)
(-0.76386433 0 0)
(-0.733733738 0 0)
(-0.701351919 0 0)
(-0.666718976 0 0)
(-0.62985349 0 0)
(-0.590793878 0 0)
(-0.549582979 0 0)
(-0.506274068 0 0)
(-0.460939046 0 0)
(-0.413666646 0 0)
(-0.364522758 0 0)
(-0.313606751 0 0)
(-0.261051343 0 0)
(-0.206957898 0 0)
(-0.151443563 0 0)
(-0.0946432163 0 0)
(-0.0366864151 0 0)
(0.0222928385 0 0)
(0.08215551 0 0)
(0.14276448 0 0)
(0.203980582 0 0)
(0.265664748 0 0)
(0.327679039 0 0)
(0.389887484 0 0)
(0.45215685 0 0)
(0.514357344 0 0)
(0.576363256 0 0)
(0.638053523 0 0)
(0.699312236 0 0)
(0.760029069 0 0)
(0.820099638 0 0)
(0.879425801 0 0)
(0.937915881 0 0)
(0.99548483 0 0)
(1.05205433 0 0)
(1.10755284 0 0)
(1.16191558 0 0)
(1.21508447 0 0)
(1.26700801 0 0)
(1.31764117 0 0)
(1.36694514 0 0)
(1.41488717 0 0)
(1.46144027 0 0)
(1.50658297 0 0)
(1.55029903 0 0)
(1.5925771 0 0)
(1.63341045 0 0)
(1.67279659 0 0)
(1.71073701 0 0)
(1.74723679 0 0)
(1.78230434 0 0)
(1.81595102 0 0)
(1.8481909 0 0)
(1.87904042 0 0)
(1.90851813 0 0)
(1.93664442 0 0)
(1.9634413 0 0)
(1.98893213 0 0)
(2.01314142 0 0)
(2.03609466 0 0)
(2.05781814 0 0)
(2.0783388 0 0)
(2.09768406 0 0)
(2.11588178 0 0)
(2.13296008 0 0)
(2.14894734 0 0)
(2.16387207 0 0)
(2.17776291 0 0)
(2.19064854 0 0)
(2.20255773 0 0)
(2.21351928 0 0)
(2.22356201 0 0)
(2.2327148 0 0)
(2.24100659 0 0)
(2.24846638 0 0)
(2.25512326 0 0)
(2.26100646 0 0)
(2.26614532 0 0)
(2.27056937 0 0)
(2.27430829 0 0)
(2.277392 0 0)
(2.27985061 0 0)
(2.28171448 0 0)
(2.28301416 0 0)
(2.28378049 0 0)
(2.28404447 0 0)
(2.28383736 0 0)
(2.28319055 0 0)
(2.28213563 0 0)
(2.28070427 0 0)
(2.27892823 0 0)
(2.27683928 0 0)
(2.27446913 0 0)
(2.27184942 0 0)
(2.26901156 0 0)
(2.26598673 0 0)
(2.26280578 0 0)
(2.25949909 0 0)
(2.25609658 0 0)
(2.25262752 0 0)
(2.2491205 0 0)
(2.24560332 0 0)
(2.24210289 0 0)
(2.23864515 0 0)
(2.23525499 0 0)
(2.23195613 0 0)
(2.22877111 0 0)
(2.22572112 0 0)
(2.22282602 0 0)
(2.22010423 0 0)
(2.21757269 0 0)
(2.2152468 0 0)
(2.21314041 0 0)
(2.21126577 0 0)
(2.20963351 0 0)
(2.20825264 0 0)
(2.20713053 0 0)
(2.20627295 0 0)
(2.20568406 0 0)
(2.20536645 0 0)
(2.20532119 0 0)
(2.20554783 0 0)
(2.20604452 0 0)
(2.20680801 0 0)
(2.20783377 0 0)
(2.20911602 0 0)
(2.21064786 0 0)
(2.21242131 0 0)
(2.21442746 0 0)
(2.21665649 0 0)
(2.21909787 0 0)
(2.22174036 0 0)
(2.22457219 0 0)
(2.22758113 0 0)
(2.23075461 0 0)
(2.23407982 0 0)
(2.23754381 0 0)
(2.24113361 0 0)
(2.24483631 0 0)
(2.24863916 0 0)
(2.25252967 0 0)
(2.25649572 0 0)
(2.26052559 0 0)
(2.26460809 0 0)
(2.26873262 0 0)
(2.27288921 0 0)
(2.27706865 0 0)
(2.28126246 0 0)
(2.28546301 0 0)
(2.28966353 0 0)
(2.29385815 0 0)
(2.29804196 0 0)
(2.30221099 0 0)
(2.30636224 0 0)
(2.31049375 0 0)
(2.31460451 0 0)
(2.31869454 0 0)
(2.32276484 0 0)
(2.32681741 0 0)
(2.33085522 0 0)
(2.33488218 0 0)
(2.33890313 0 0)
(2.34292382 0 0)
(2.34695084 0 0)
(2.35099162 0 0)
(2.35505437 0 0)
(2.35914804 0 0)
(2.36328229 0 0)
(2.36746739 0 0)
(2.37171422 0 0)
(2.37603419 0 0)
(2.38043916 0 0)
(2.38494143 0 0)
(2.38955365 0 0)
(2.39428875 0 0)
(2.39915983 0 0)
(2.40418005 0 0)
(2.40936245 0 0)
(2.41471988 0 0)
(2.42027193 0 0)
(2.42624333 0 0)
(2.43291137 0 0)
(2.44037965 0 0)
(2.44877249 0 0)
(2.45823904 0 0)
(2.46895349 0 0)
(2.48111903 0 0)
(2.49497247 0 0)
(2.51078742 0 0)
(2.52887546 0 0)
(2.54958398 0 0)
(2.57328805 0 0)
(2.60037309 0 0)
(2.63120315 0 0)
(2.66606743 0 0)
(2.70509508 0 0)
(2.74812445 0 0)
(2.79450952 0 0)
(2.84284326 0 0)
(2.89058135 0 0)
(2.93356105 0 0)
(2.96543966 0 0)
(2.97714182 0 0)
(2.95652147 0 0)
(2.88862381 0 0)
(2.75715764 0 0)
(2.54793484 0 0)
(2.25479757 0 0)
(1.88736811 0 0)
(1.47839307 0 0)
(1.08842615 0 0)
(0.797616466 0 0)
(0.676449452 0 0)
(0.757324893 0 0)
(1.02877182 0 0)
(1.44152332 0 0)
(1.92203019 0 0)
(2.40066046 0 0)
(2.83260769 0 0)
(3.16892318 0 0)
(3.30428211 0 0)
(3.1170381 0 0)
(2.62765291 0 0)
(2.08258333 0 0)
(1.69241003 0 0)
(1.37414146 0 0)
(1.0652177 0 0)
(0.969108357 0 0)
(1.15516777 0 0)
(1.28815291 0 0)
(1.1076855 0 0)
(0.886988299 0 0)
(1.04406362 0 0)
(1.58696187 0 0)
(2.15762295 0 0)
(2.60208938 0 0)
(2.89683988 0 0)
(2.82517508 0 0)
(2.40198584 0 0)
(1.95487744 0 0)
(1.65750955 0 0)
(1.61451465 0 0)
(1.8073669 0 0)
(2.00144701 0 0)
(1.96839474 0 0)
(1.8338757 0 0)
(1.68392 0 0)
(1.63409448 0 0)
(1.80945074 0 0)
(2.14969832 0 0)
(2.13359878 0 0)
(1.87078481 0 0)
(1.73874412 0 0)
(1.83941784 0 0)
(1.94114163 0 0)
(2.02320411 0 0)
(2.07398111 0 0)
)
;

boundaryField
{
    closed
    {
        type            noSlip;
    }
    open
    {
        type            inletOutlet;
        inletValue      uniform (0 0 0);
        value           uniform (2.07398111 0 0);
    }
    sides
    {
        type            empty;
    }
    procBoundary5to4
    {
        type            processor;
        value           uniform (-0.542407855 0 0);
    }
}


// ************************************************************************* //
