/*--------------------------------*- C++ -*----------------------------------*\
| =========                 |                                                 |
| \\      /  F ield         | OpenFOAM: The Open Source CFD Toolbox           |
|  \\    /   O peration     | Version:  2306                                  |
|   \\  /    A nd           | Website:  www.openfoam.com                      |
|    \\/     M anipulation  |                                                 |
\*---------------------------------------------------------------------------*/
FoamFile
{
    version     2.0;
    format      ascii;
    arch        "LSB;label=32;scalar=64";
    class       volScalarField;
    location    "0.00188";
    object      p;
}
// * * * * * * * * * * * * * * * * * * * * * * * * * * * * * * * * * * * * * //

dimensions      [1 -1 -2 0 0 0 0];

internalField   nonuniform List<scalar> 
531
(
101427.241
101427.325
101427.422
101427.524
101427.616
101427.687
101427.771
101427.851
101427.937
101428.031
101428.12
101428.207
101428.253
101428.275
101428.339
101428.444
101428.537
101428.615
101428.706
101428.815
101428.947
101429.091
101429.223
101429.342
101429.448
101429.509
101429.559
101429.609
101429.645
101429.652
101429.628
101429.646
101429.693
101429.727
101429.736
101429.761
101429.791
101429.846
101429.935
101430.025
101430.102
101430.219
101430.376
101430.564
101430.762
101430.39
101430.402
101430.449
101430.527
101430.641
101430.74
101430.804
101430.892
101431.001
101431.058
101431.1
101431.167
101431.221
101431.196
101431.156
101431.377
101431.519
101431.612
101431.699
101432.283
101432.437
101432.586
101432.787
101433.009
101433.234
101432.899
101432.935
101432.998
101433.093
101433.186
101433.242
101433.283
101433.359
101433.429
101433.452
101433.503
101433.59
101433.711
101433.844
101433.938
101434.039
101434.128
101434.216
101434.308
101434.4
101434.462
101434.476
101434.475
101434.471
101434.458
101434.443
101434.941
101434.99
101435.05
101435.117
101435.184
101435.229
101435.266
101435.342
101435.412
101435.445
101435.504
101435.584
101435.683
101435.775
101435.84
101435.916
101436.02
101436.124
101436.212
101436.285
101436.291
101436.282
101436.298
101436.305
101436.345
101436.421
101436.491
101436.538
101436.604
101436.678
101436.743
101436.821
101436.897
101436.949
101436.926
101436.874
101436.857
101436.872
101436.904
101436.91
101436.902
101436.884
101436.449
101436.593
101436.705
101436.741
101436.754
101436.737
101436.701
101436.637
101436.544
101436.471
101437.078
101437.134
101437.163
101437.233
101437.292
101437.343
101437.382
101437.379
101437.386
101437.409
101437.42
101437.061
101437.223
101437.416
101437.615
101437.083
101437.038
101437.025
101436.993
101436.959
101436.925
101436.969
101437.078
101437.244
101436.762
101436.747
101436.761
101436.757
101436.765
101436.773
101436.765
101436.757
101436.693
101436.598
101436.509
101436.422
101436.342
101436.266
101436.183
101436.12
101436.038
101435.919
101435.832
101435.764
101435.674
101435.553
101435.469
101435.408
101435.331
101435.223
101435.147
101435.081
101435.033
101434.988
101434.915
101434.853
101434.801
101434.716
101434.567
101434.393
101434.193
101433.959
101433.649
101433.318
101433.028
101432.749
101432.444
101432.098
101431.748
101431.416
101431.075
101430.697
101430.346
101430.744
101430.57
101430.382
101430.218
101430.054
101429.864
101429.721
101429.626
101429.45
101429.27
101429.11
101428.966
101428.793
101428.588
101428.403
101428.222
101428.053
101427.928
101427.83
101427.373
101426.926
101426.522
101426.159
101425.789
101425.381
101424.975
101424.565
101424.151
101423.691
101423.192
101422.706
101422.975
101422.638
101422.297
101422.493
101422.092
101421.685
101421.294
101420.936
101420.559
101420.19
101420.303
101419.837
101419.363
101418.948
101418.521
101418.059
101417.645
101417.232
101416.789
101416.313
101415.89
101415.453
101414.992
101414.469
101413.963
101414.058
101413.421
101412.749
101412.081
101411.44
101410.861
101410.254
101409.145
101408.635
101408.091
101407.552
101407.853
101407.487
101407.146
101406.807
101406.437
101406.043
101405.645
101405.263
101404.891
101404.472
101404.04
101403.579
101403.016
101402.454
101401.918
101401.377
101400.87
101400.353
101399.828
101399.284
101398.809
101398.292
101397.767
101397.279
101396.732
101396.167
101395.586
101394.905
101394.268
101393.632
101392.419
101391.939
101391.411
101390.868
101390.293
101389.701
101389.011
101388.323
101388.252
101387.858
101387.373
101386.852
101386.35
101385.854
101385.364
101384.783
101384.178
101383.622
101383.065
101382.499
101381.934
101381.437
101381.009
101380.648
101379.398
101378.774
101378.217
101377.649
101377.066
101376.474
101375.949
101375.425
101374.899
101374.386
101373.906
101373.501
101373.174
101372.915
101371.763
101371.279
101370.883
101370.579
101370.351
101369.182
101368.657
101368.201
101367.751
101367.281
101366.779
101366.334
101365.898
101365.438
101364.947
101364.512
101364.084
101363.607
101363.135
101362.712
101362.276
101361.773
101361.302
101360.847
101360.39
101359.924
101359.443
101358.932
101357.781
101357.444
101357.077
101356.639
101356.159
101355.676
101355.189
101354.732
101355.276
101355.058
101354.881
101354.726
101354.621
101353.549
101353.139
101352.766
101352.405
101351.999
101351.47
101350.949
101350.492
101350.584
101350.701
101349.753
101349.505
101349.292
101349.028
101348.791
101348.575
101348.332
101348.047
101347.81
101347.607
101347.388
101347.15
101346.968
101346.824
101346.711
101346.662
101345.845
101345.611
101345.439
101345.285
101345.116
101344.908
101344.733
101344.564
101344.373
101344.197
101343.945
101343.654
101343.427
101343.238
101343.034
101342.804
101342.595
101342.402
101342.25
101342.105
101341.923
101341.746
101341.611
101341.489
101341.314
101341.148
101341.017
101340.914
101340.814
101340.693
101340.559
101340.463
101340.371
101340.236
101340.107
101340.01
101339.939
101339.873
101339.787
101339.691
101339.639
101339.59
101339.557
101339.525
101338.923
101339.013
101339.085
101339.069
101339.097
101339.158
101339.192
101339.191
101339.195
101339.225
101339.26
101339.263
101339.237
101339.117
101338.973
101338.902
101338.862
101338.8
101338.694
101338.598
101338.537
101338.555
101338.562
101338.536
101338.57
101338.66
101338.739
101338.788
101338.893
101339.048
101339.24
101339.487
101338.906
101338.906
101338.966
101339.064
101339.137
101339.159
101339.225
101339.338
101339.424
101339.463
101339.543
101339.667
101339.766
101339.82
101339.903
101339.997
101340.068
101340.107
101340.059
101339.986
101339.971
101340.008
101340.03
101340.001
101340.017
101340.102
101340.272
101340.52
101340.659
101340.84
101341.092
101341.307
)
;

boundaryField
{
    closed
    {
        type            zeroGradient;
    }
    open
    {
        type            waveTransmissive;
        gamma           1.25;
        fieldInf        101325;
        lInf            1;
        value           nonuniform List<scalar> 0();
    }
    sides
    {
        type            empty;
    }
    procBoundary3to2
    {
        type            processor;
        value           uniform 101427.16;
    }
    procBoundary3to4
    {
        type            processor;
        value           uniform 101341.457;
    }
}


// ************************************************************************* //
