/*--------------------------------*- C++ -*----------------------------------*\
| =========                 |                                                 |
| \\      /  F ield         | OpenFOAM: The Open Source CFD Toolbox           |
|  \\    /   O peration     | Version:  2306                                  |
|   \\  /    A nd           | Website:  www.openfoam.com                      |
|    \\/     M anipulation  |                                                 |
\*---------------------------------------------------------------------------*/
FoamFile
{
    version     2.0;
    format      ascii;
    arch        "LSB;label=32;scalar=64";
    class       surfaceScalarField;
    location    "0.00188";
    object      phi;
}
// * * * * * * * * * * * * * * * * * * * * * * * * * * * * * * * * * * * * * //

dimensions      [1 0 -1 0 0 0 0];

oriented        oriented;

internalField   nonuniform List<scalar> 
530
(
1.16523452e-06
1.16644704e-06
1.16459467e-06
1.15509201e-06
1.16596792e-06
1.16772696e-06
1.17005978e-06
1.17155411e-06
1.17606884e-06
1.18216647e-06
1.18370335e-06
1.200963e-06
1.19571536e-06
1.19772978e-06
1.19113067e-06
1.20136813e-06
1.2062031e-06
1.20818808e-06
1.20634175e-06
1.20750108e-06
1.20543755e-06
1.20095821e-06
1.20275148e-06
1.20419111e-06
1.21956507e-06
1.2244427e-06
1.22807636e-06
1.22734705e-06
1.24211023e-06
1.23658185e-06
1.2376944e-06
1.2364794e-06
1.23756968e-06
1.24310968e-06
1.24486468e-06
1.24501687e-06
1.24683889e-06
1.25181942e-06
1.25469397e-06
1.26172612e-06
1.26328991e-06
1.26827355e-06
1.27026343e-06
1.26615873e-06
1.30272794e-06
1.28005496e-06
1.27933542e-06
1.271104e-06
1.27399055e-06
1.2783406e-06
1.2848916e-06
1.28715359e-06
1.28667676e-06
1.29744614e-06
1.29974592e-06
1.30391909e-06
1.29930518e-06
1.31158494e-06
1.31390477e-06
1.29563232e-06
1.30912886e-06
1.32016104e-06
1.31535862e-06
1.27962536e-06
1.31199097e-06
1.31489487e-06
1.31056574e-06
1.31351157e-06
1.31021677e-06
1.34253674e-06
1.32487041e-06
1.32628575e-06
1.33154051e-06
1.33152302e-06
1.32408612e-06
1.32778828e-06
1.33304929e-06
1.33050645e-06
1.33945721e-06
1.34091911e-06
1.36079413e-06
1.35207127e-06
1.33480576e-06
1.34864299e-06
1.34995774e-06
1.34896775e-06
1.35023161e-06
1.36321606e-06
1.36817587e-06
1.35644062e-06
1.36230588e-06
1.36476253e-06
1.36593606e-06
1.37104718e-06
1.36984816e-06
1.33326009e-06
1.3650943e-06
1.36657241e-06
1.37297085e-06
1.37352104e-06
1.36122123e-06
1.3626407e-06
1.36714727e-06
1.36425328e-06
1.36906756e-06
1.36972259e-06
1.39128996e-06
1.38786687e-06
1.37440591e-06
1.3764739e-06
1.37717983e-06
1.38349673e-06
1.3931216e-06
1.4029039e-06
1.39425838e-06
1.42149759e-06
1.40025233e-06
1.39956528e-06
1.39802464e-06
1.39816855e-06
1.41530602e-06
1.41672833e-06
1.41818809e-06
1.41915489e-06
1.41613814e-06
1.41776506e-06
1.41325664e-06
1.43271199e-06
1.43286309e-06
1.46128323e-06
1.44707036e-06
1.44632407e-06
1.46969054e-06
1.46926442e-06
1.44917027e-06
1.44848884e-06
1.44786248e-06
1.47597475e-06
1.45169362e-06
1.45964556e-06
1.46338542e-06
1.46563742e-06
1.46496316e-06
1.46782902e-06
1.50684056e-06
1.51862235e-06
1.51256849e-06
1.45974618e-06
1.49775598e-06
1.501327e-06
1.49577543e-06
1.5195661e-06
1.5240116e-06
1.49660191e-06
1.49557347e-06
1.49629376e-06
1.49254353e-06
1.49445677e-06
1.51495057e-06
1.52713089e-06
1.53802451e-06
1.52828787e-06
1.56092159e-06
1.5305035e-06
1.53115067e-06
1.52851052e-06
1.53052071e-06
1.54778443e-06
1.55036132e-06
1.55983838e-06
1.54752209e-06
1.55638735e-06
1.53759854e-06
1.53694241e-06
1.53255505e-06
1.53218207e-06
1.5375678e-06
1.54582061e-06
1.53445241e-06
1.54611542e-06
1.52914784e-06
1.52845778e-06
1.52331916e-06
1.52274601e-06
1.52789439e-06
1.53512039e-06
1.5247211e-06
1.52974426e-06
1.51766414e-06
1.51743432e-06
1.53667734e-06
1.53743534e-06
1.53230752e-06
1.53201073e-06
1.55190687e-06
1.55362221e-06
1.54948345e-06
1.5478601e-06
1.58082773e-06
1.57742164e-06
1.54739619e-06
1.54240913e-06
1.54057335e-06
1.5349355e-06
1.53478518e-06
1.55457442e-06
1.55784358e-06
1.56499505e-06
1.55748166e-06
1.57231514e-06
1.55138597e-06
1.55142948e-06
1.57244841e-06
1.5799708e-06
1.57871731e-06
1.58158899e-06
1.58721565e-06
1.6037188e-06
1.62289468e-06
1.61330218e-06
1.53232682e-06
1.57759812e-06
1.57879417e-06
1.57520737e-06
1.57601774e-06
1.63521948e-06
1.63247197e-06
1.59756122e-06
1.59802245e-06
1.59937321e-06
1.59349612e-06
1.59441582e-06
1.6339261e-06
1.6420139e-06
1.6335728e-06
1.67084751e-06
1.66271432e-06
1.65148094e-06
1.64934842e-06
1.66881916e-06
1.67266877e-06
1.68218857e-06
1.66884261e-06
1.67388998e-06
1.65328779e-06
1.65424502e-06
1.65066204e-06
1.6528792e-06
1.7082285e-06
1.7236534e-06
1.71557586e-06
1.64871555e-06
1.67933638e-06
1.68098893e-06
1.66009562e-06
1.71440834e-06
1.71980561e-06
1.70385693e-06
1.70502637e-06
1.70127175e-06
1.70417786e-06
1.67871912e-06
1.76676316e-06
1.78801115e-06
1.77989792e-06
1.79324056e-06
1.7683308e-06
1.76994931e-06
1.81414734e-06
1.81670731e-06
1.80070889e-06
1.80306524e-06
1.84764878e-06
1.85257096e-06
1.84061136e-06
1.84227135e-06
1.8066205e-06
1.88791535e-06
1.8974432e-06
1.87694349e-06
1.87983696e-06
1.87077022e-06
1.87690466e-06
1.91364658e-06
1.92738095e-06
1.95339344e-06
1.95010047e-06
1.86512007e-06
1.90892429e-06
1.91434873e-06
1.96352655e-06
1.97620661e-06
1.96035299e-06
1.9641165e-06
1.96256832e-06
1.96736891e-06
1.99050794e-06
1.98584268e-06
1.98177153e-06
2.01563787e-06
1.96614493e-06
1.96515427e-06
1.95827376e-06
1.95827799e-06
2.02496947e-06
2.02997633e-06
2.01135822e-06
2.00237776e-06
2.06043194e-06
2.04175375e-06
2.04495876e-06
2.12147548e-06
2.13794269e-06
2.13028245e-06
2.16714368e-06
2.11280934e-06
2.11430987e-06
2.15095306e-06
2.15374742e-06
2.1687142e-06
2.14996528e-06
2.22146865e-06
2.21564957e-06
2.20012602e-06
2.20182814e-06
2.15897143e-06
2.21093479e-06
2.22721701e-06
2.20514101e-06
2.20501545e-06
2.21688213e-06
2.21046726e-06
2.25432207e-06
2.19913504e-06
2.19934041e-06
2.25960285e-06
2.26724209e-06
2.24360475e-06
2.24119616e-06
2.25026431e-06
2.23955225e-06
2.28045689e-06
2.22464673e-06
2.22564284e-06
2.28734083e-06
2.29387816e-06
2.27195895e-06
2.2739926e-06
2.33825147e-06
2.34683284e-06
2.32572983e-06
2.32759533e-06
2.32067354e-06
2.32392211e-06
2.32015884e-06
2.35057014e-06
2.30389724e-06
2.30134406e-06
2.31150528e-06
2.30069464e-06
2.3442366e-06
2.28651024e-06
2.28665274e-06
2.34928605e-06
2.35654215e-06
2.33461301e-06
2.33537919e-06
2.39949456e-06
2.40364229e-06
2.38043423e-06
2.38241396e-06
2.44050784e-06
2.46149603e-06
2.43657339e-06
2.44947687e-06
2.43732953e-06
2.41349128e-06
2.40932499e-06
2.42211701e-06
2.42371629e-06
2.3624482e-06
2.34796734e-06
2.34943369e-06
2.39641287e-06
2.39896637e-06
2.40887595e-06
2.3963068e-06
2.40196558e-06
2.4005525e-06
2.40788193e-06
2.40645555e-06
2.32252052e-06
2.36105798e-06
2.35859821e-06
2.36851922e-06
2.35424736e-06
2.38599242e-06
2.33496061e-06
2.33199602e-06
2.34278566e-06
2.33618269e-06
2.37726648e-06
2.3281442e-06
2.32406066e-06
2.33360837e-06
2.31822139e-06
2.37496369e-06
2.30834e-06
2.30623782e-06
2.2955669e-06
2.29383464e-06
2.30507133e-06
2.31179075e-06
2.29633769e-06
2.29538642e-06
2.30739578e-06
2.30930576e-06
2.29261927e-06
2.29046786e-06
2.30240497e-06
2.3162143e-06
2.29448555e-06
2.30015247e-06
2.26535712e-06
2.2627939e-06
2.30336292e-06
2.30390623e-06
2.28930256e-06
2.28663334e-06
2.29406745e-06
2.30725389e-06
2.28549913e-06
2.29703937e-06
2.26189556e-06
2.25861143e-06
2.29395034e-06
2.29101474e-06
2.27335488e-06
2.2704871e-06
2.25708635e-06
2.2548239e-06
2.31261981e-06
2.33177135e-06
2.31948688e-06
2.37521385e-06
2.35243574e-06
2.34295806e-06
2.33863644e-06
2.32879256e-06
2.33089982e-06
2.33076063e-06
2.28419782e-06
2.27604175e-06
2.3167614e-06
2.30324741e-06
2.29415564e-06
2.28989208e-06
2.27940083e-06
2.28192719e-06
2.2839115e-06
2.24025448e-06
2.23276965e-06
2.26707577e-06
2.25395075e-06
2.24387336e-06
2.23871199e-06
2.26919094e-06
2.24787494e-06
2.24861308e-06
2.24391879e-06
2.24071439e-06
2.25706475e-06
2.25391408e-06
2.24844049e-06
2.24380186e-06
2.23526844e-06
2.23759782e-06
2.2579725e-06
2.23297741e-06
2.24360672e-06
2.2123344e-06
2.20639566e-06
2.21916752e-06
2.21721446e-06
2.21512735e-06
2.21021367e-06
2.21651709e-06
2.19998633e-06
2.20328265e-06
2.20127811e-06
2.19799e-06
2.2038282e-06
2.20062097e-06
2.19925454e-06
2.19484462e-06
2.19642123e-06
2.20412012e-06
2.17666544e-06
2.18377637e-06
2.15808455e-06
2.15433661e-06
2.15528215e-06
2.15110417e-06
2.15070018e-06
2.14745377e-06
2.14709432e-06
2.14354355e-06
2.14410784e-06
2.14106765e-06
2.1379204e-06
2.1340305e-06
2.13662088e-06
2.13344944e-06
2.13575356e-06
2.14418102e-06
2.1226133e-06
2.13479431e-06
2.11396788e-06
2.10958669e-06
2.10591037e-06
2.09889619e-06
2.10705397e-06
2.10180099e-06
2.10365524e-06
2.07824572e-06
2.01756189e-06
2.05259716e-06
2.05104045e-06
2.02743689e-06
2.02160214e-06
)
;

boundaryField
{
    closed
    {
        type            calculated;
        value           nonuniform List<scalar> 0();
    }
    open
    {
        type            calculated;
        value           nonuniform List<scalar> 0();
    }
    sides
    {
        type            empty;
        value           nonuniform List<scalar> 0();
    }
    procBoundary3to2
    {
        type            processor;
        value           uniform -1.16467253e-06;
    }
    procBoundary3to4
    {
        type            processor;
        value           uniform 2.02927092e-06;
    }
}


// ************************************************************************* //
