/*--------------------------------*- C++ -*----------------------------------*\
| =========                 |                                                 |
| \\      /  F ield         | OpenFOAM: The Open Source CFD Toolbox           |
|  \\    /   O peration     | Version:  2306                                  |
|   \\  /    A nd           | Website:  www.openfoam.com                      |
|    \\/     M anipulation  |                                                 |
\*---------------------------------------------------------------------------*/
FoamFile
{
    version     2.0;
    format      ascii;
    arch        "LSB;label=32;scalar=64";
    class       volScalarField;
    location    "0.00188";
    object      prefDh_T;
}
// * * * * * * * * * * * * * * * * * * * * * * * * * * * * * * * * * * * * * //

dimensions      [1 1 -3 -1 0 0 0];

internalField   nonuniform List<scalar> 
531
(
-0.000738965543
-0.000601116894
-0.000439401501
-0.000440957824
-0.000733913108
-0.000738005796
-0.000735745181
-0.000738757058
-0.000604141299
-0.000503605414
-0.000463139707
-0.000463305134
-0.000734361903
-0.000738533976
-0.000493169231
-0.000493506141
-0.000734467292
-0.000738765222
-0.000736108871
-0.000604812235
-0.000433593887
-0.00047272384
-0.000735808274
-0.000738644526
-0.000738399936
-0.000606925378
-0.000500975787
-0.000456998441
-0.000457459164
-0.000734184181
-0.000739429774
-0.000478610647
-0.000457848504
-0.000734406424
-0.000741313781
-0.000736397329
-0.000742652409
-0.000588910877
-0.000512132306
-0.000739035335
-0.000740418317
-0.000605538514
-0.000525426881
-0.000475755336
-0.000477106291
-0.000738650736
-0.00073973853
-0.000739851873
-0.000603447376
-0.000510908164
-0.000738357763
-0.000740706281
-0.000569585926
-0.000569325739
-0.00073988536
-0.00060294258
-0.0005058817
-0.000738488744
-0.00074060474
-0.000739766183
-0.000594681345
-0.000536421367
-0.000508972233
-0.000508950311
-0.000740627639
-0.000741310447
-0.000742039585
-0.000601164244
-0.000501625597
-0.000502430543
-0.000738245999
-0.000739744913
-0.000595790158
-0.000472851182
-0.000526293639
-0.000738251339
-0.000598160091
-0.000449110862
-0.000740037479
-0.000737205252
-0.00058800395
-0.000426184897
-0.000429775114
-0.000733486351
-0.000741122069
-0.000736968012
-0.000740495546
-0.00059903776
-0.000492979173
-0.000493916406
-0.00074122292
-0.000741060372
-0.000742765177
-0.000601286072
-0.000514930008
-0.000514578205
-0.000738094454
-0.000739148339
-0.000596506668
-0.000483361838
-0.000533982473
-0.00073715264
-0.00059832844
-0.000463598779
-0.000738265572
-0.000736301748
-0.000601997515
-0.000451656516
-0.000458788975
-0.000734594607
-0.000738814151
-0.000738165104
-0.000567299405
-0.000487880126
-0.000410619315
-0.000412234197
-0.000729368925
-0.000738059593
-0.000731685743
-0.000740023498
-0.000511595234
-0.000477161518
-0.000731217963
-0.000740198761
-0.000734124189
-0.000741519723
-0.000737969363
-0.000589285767
-0.000462129052
-0.000464377904
-0.000730634856
-0.00073910408
-0.000582730954
-0.00038895415
-0.000410708889
-0.000733181979
-0.000737105788
-0.0007366585
-0.000540514782
-0.000446551204
-0.000732130574
-0.000735685509
-0.000735215968
-0.00073650717
-0.0006055205
-0.000496678768
-0.000450570422
-0.000451495162
-0.000733458559
-0.000735481829
-0.000736682789
-0.000568686562
-0.000369312341
-0.000387949785
-0.000730224798
-0.000736701716
-0.00073335295
-0.000738177556
-0.000736456774
-0.00057422718
-0.00048931468
-0.000421804095
-0.00042246226
-0.000729801312
-0.000736737456
-0.000733205413
-0.000738831629
-0.000738280002
-0.00060614209
-0.000499686096
-0.000459089816
-0.000458693835
-0.000731852306
-0.000736736809
-0.000734990575
-0.000738183419
-0.000606933438
-0.000507083834
-0.000473026919
-0.000473211151
-0.000731586538
-0.000737370932
-0.000734463692
-0.000738744982
-0.000605202572
-0.000527460788
-0.000499743091
-0.000499836815
-0.000731778987
-0.000738335836
-0.000540227648
-0.000495127552
-0.000732226207
-0.000737743746
-0.000552809046
-0.000477298036
-0.000733635888
-0.000736021133
-0.000587868499
-0.000422632758
-0.000437894695
-0.000731285859
-0.000737998888
-0.000734526775
-0.000738553216
-0.000738502214
-0.00060706804
-0.000545635747
-0.000502413677
-0.000502755941
-0.000731288045
-0.000737562464
-0.000522440854
-0.000516993621
-0.000732415564
-0.000738082248
-0.00073739676
-0.000600047241
-0.000469544627
-0.000428637336
-0.000427842236
-0.000731768836
-0.000735700746
-0.000735460647
-0.00073618915
-0.000573846087
-0.000393944455
-0.000396691965
-0.000730496242
-0.000738806351
-0.000733487797
-0.000739740744
-0.00056736855
-0.000540586442
-0.000733238263
-0.000588201454
-0.000482627535
-0.000732503615
-0.000735606465
-0.000736035201
-0.000606026123
-0.000485782674
-0.000464275849
-0.000464225692
-0.000729647704
-0.000734094045
-0.000733097851
-0.00073505701
-0.000600814614
-0.000491858505
-0.000442322686
-0.000441890501
-0.000729275595
-0.000732648944
-0.000733127099
-0.000538205709
-0.000447287888
-0.000727061001
-0.000733649176
-0.00073036005
-0.000735549503
-0.000733934294
-0.000599834501
-0.000478379756
-0.000439392145
-0.000439330119
-0.000725498042
-0.000732983996
-0.000485581505
-0.000454213837
-0.000724228436
-0.000733201384
-0.000469596252
-0.000461783184
-0.000725254691
-0.00073332495
-0.000731859604
-0.00052996803
-0.000449005481
-0.000727170181
-0.000734288967
-0.000731452367
-0.00073686316
-0.000736285252
-0.000608517699
-0.000491056231
-0.000459928626
-0.000458905444
-0.000729681182
-0.000736550164
-0.00050733518
-0.000501526167
-0.000729881159
-0.000737605277
-0.000736214779
-0.000601801178
-0.000474020651
-0.000513601731
-0.000411148044
-0.000413989549
-0.000726347562
-0.000736944589
-0.000734478535
-0.000737307825
-0.000582243835
-0.000454934611
-0.000735236376
-0.000731584899
-0.000595517424
-0.000728894137
-0.000744156853
-0.000573611334
-0.000525555204
-0.000461588984
-0.000463009844
-0.000731402532
-0.000739540086
-0.00074006579
-0.00056495248
-0.000532613377
-0.000734717209
-0.000589091574
-0.000475090613
-0.000733802411
-0.000739917916
-0.000740040187
-0.000604717717
-0.000495179662
-0.00073574201
-0.000738263325
-0.000600481598
-0.000485949158
-0.000487006966
-0.000730869852
-0.000742607683
-0.000592219368
-0.000511763836
-0.000735094338
-0.000739020806
-0.000600527091
-0.000483635688
-0.000485135316
-0.000729154624
-0.000744361416
-0.000574262861
-0.000523851871
-0.000731579523
-0.00074363632
-0.000551991392
-0.000540415668
-0.000734281137
-0.000742861448
-0.000742311547
-0.000598068443
-0.000493439039
-0.000493548523
-0.000733768107
-0.000740555462
-0.000600016587
-0.00047360992
-0.000475197885
-0.000729240867
-0.000745132864
-0.000570998204
-0.000513161337
-0.000730689201
-0.000744314411
-0.000561668284
-0.000529252672
-0.000731201435
-0.000743309876
-0.000562955973
-0.00055518353
-0.000730214236
-0.000595911857
-0.000467652717
-0.000733446882
-0.00073777667
-0.000601298206
-0.000455590977
-0.000462140558
-0.000734165182
-0.000740733141
-0.000740965284
-0.000579952633
-0.000536723054
-0.000735066666
-0.000741282883
-0.000741943884
-0.000600295018
-0.000489820048
-0.000489081736
-0.000732363825
-0.000740450963
-0.000602072438
-0.000481502737
-0.000482284873
-0.000731867508
-0.000741082766
-0.000603137114
-0.000465732193
-0.000467600999
-0.000732485175
-0.00074035987
-0.000602024367
-0.000438533241
-0.000442229697
-0.000727901159
-0.000743580145
-0.000735677518
-0.000745038694
-0.00060429548
-0.000548098161
-0.000733654935
-0.000744735698
-0.000607602123
-0.000574727266
-0.000734359011
-0.000743361454
-0.000597354924
-0.000586873308
-0.000545048706
-0.000544069567
-0.000732687822
-0.000743560646
-0.000604730348
-0.00055597561
-0.000733115457
-0.000742007174
-0.000604905297
-0.000549649191
-0.000493259929
-0.000493865035
-0.000727845469
-0.000740672015
-0.000522568421
-0.000487861238
-0.000726248969
-0.000741678553
-0.000731975391
-0.000743444985
-0.000556816996
-0.000519301341
-0.000730924958
-0.000581514541
-0.000455709303
-0.000733703746
-0.000737873286
-0.00073860419
-0.000601790397
-0.000460579544
-0.000486819426
-0.000734119417
-0.00059805282
-0.000498673466
-0.000733862585
-0.000738794752
-0.000738591813
-0.000601180294
-0.000456649648
-0.000477428124
-0.000733888826
-0.000584928645
-0.000479328161
-0.000732467565
-0.000737898923
-0.000738383534
-0.000607697895
-0.000496433533
-0.000731768351
-0.000740402283
-0.00055576328
-0.000542123486
-0.000733358088
-0.000741113694
-0.000739709719
-0.00059844873
-0.000520771268
-0.000479998453
-0.000481240773
-0.000730360903
-0.0007418412
-0.000527524819
-0.00051380407
-0.000733111385
-0.00074161386
-0.000740131846
-0.000606191704
-0.000507256616
-0.000733352614
-0.000742210384
-0.000595252992
-0.00053752045
-0.000733064928
-0.00074246224
-0.000604926765
-0.00054701642
-0.000496826788
-0.000497402392
-0.000729719795
-0.000742920273
-0.000579020273
-0.000528222827
-0.000729550886
-0.000743998465
-0.000585546073
-0.000540194668
-0.000730380633
-0.000743622067
-0.000601445513
-0.000554122036
-0.000732387789
-0.000741733531
-0.000604544187
-0.000561122076
-0.000506468954
-0.000507434935
-0.000730331081
-0.000739096414
-0.000587453878
-0.000519020727
-0.000734454189
-0.000734935715
-0.000601899623
-0.000448627273
-0.000452146186
-0.000726212269
-0.000741803022
-0.00054761918
-0.000506595964
-0.000725733134
)
;

boundaryField
{
    closed
    {
        type            calculated;
        value           nonuniform List<scalar> 0();
    }
    open
    {
        type            calculated;
        value           nonuniform List<scalar> 0();
    }
    sides
    {
        type            empty;
    }
    procBoundary3to2
    {
        type            processor;
        value           uniform -0.000737325741;
    }
    procBoundary3to4
    {
        type            processor;
        value           uniform -0.000741917991;
    }
}


// ************************************************************************* //
