/*--------------------------------*- C++ -*----------------------------------*\
| =========                 |                                                 |
| \\      /  F ield         | OpenFOAM: The Open Source CFD Toolbox           |
|  \\    /   O peration     | Version:  2306                                  |
|   \\  /    A nd           | Website:  www.openfoam.com                      |
|    \\/     M anipulation  |                                                 |
\*---------------------------------------------------------------------------*/
FoamFile
{
    version     2.0;
    format      ascii;
    arch        "LSB;label=32;scalar=64";
    class       volScalarField;
    location    "0.00188";
    object      prefDh_H2O;
}
// * * * * * * * * * * * * * * * * * * * * * * * * * * * * * * * * * * * * * //

dimensions      [1 1 -3 0 0 0 0];

internalField   nonuniform List<scalar> 
531
(
92.4442437
88.2821987
87.5549908
87.5388509
92.6353444
92.4533304
92.4105988
92.4232743
88.5733672
87.8379741
87.6520162
87.6437275
92.7257403
92.4191935
87.7936709
87.7776711
92.765708
92.3052654
92.4971409
88.4426203
87.5318111
87.6816776
92.630082
92.3194287
92.4238517
88.3664814
87.8279494
87.6224407
87.6153107
92.7484042
92.4382719
87.7236643
87.6044281
92.7989435
92.4214754
92.5062256
92.3917916
88.2225921
87.8605643
92.5342534
92.3625661
88.2942709
87.9349102
87.6952677
87.7040205
92.6827496
92.3099476
92.4839096
88.4512528
87.859292
92.5521803
92.3216039
88.1327683
88.1300515
92.6000726
88.486242
87.8373277
92.6180883
92.2731695
92.3911907
89.3016929
87.9747062
87.8465575
87.8432224
92.6083029
92.2753122
92.3562133
88.4785334
87.8221183
87.809843
92.5175698
92.4015662
88.8946423
87.695981
87.9145471
92.6058706
88.5442668
87.5874592
92.5435198
92.4914079
88.2012769
87.4948621
87.4679232
92.6741716
92.4348469
92.4217272
92.4013352
89.8946672
87.7707075
87.7741534
92.5185368
92.284419
92.309572
88.5024018
87.8850417
87.8693946
92.5064336
92.389255
88.9257359
87.7478448
87.9561094
92.5911651
88.6761737
87.6568261
92.5314353
92.4721159
88.2749522
87.6146548
87.6138984
92.6054171
92.3663273
92.3763874
88.1218234
87.7656602
87.418021
87.4115563
92.8683326
92.4900477
92.606741
92.4473274
87.8811364
87.6966091
92.8318506
92.3711076
92.5756478
92.3090619
92.3662844
88.2126745
87.6647184
87.6345664
92.673209
92.4956197
88.2010979
87.3256234
87.4069888
92.7277318
92.429944
92.5130241
88.0010847
87.5776811
92.7634162
92.4689192
92.4672779
92.4439215
88.2994649
87.8184873
87.5930981
87.6044314
92.7792329
92.3953418
92.5069655
88.1332233
87.2455736
87.305699
92.7661384
92.4726939
92.5608792
92.3817138
92.3982594
88.1524813
87.7786937
87.4664389
87.4657942
92.8474314
92.4348598
92.5998016
92.335749
92.4051963
88.3021272
87.8270643
87.6337273
87.6306447
92.7794738
92.4496206
92.4697593
92.4242227
88.3800604
87.85839
87.699244
87.693925
92.7575293
92.4210732
92.4514215
92.3911056
88.5539451
87.9478354
87.8263116
87.8126078
92.6940904
92.3955071
88.0117316
87.7918169
92.6790054
92.4188069
88.0644958
87.7166769
92.6366338
92.4859803
88.2156523
87.4887441
87.5239159
92.6877765
92.3957906
92.4885381
92.3079835
92.3173826
88.4176581
88.0365283
87.8388988
87.8305885
92.6892238
92.3806364
87.9321507
87.8914985
92.7619251
92.3071333
92.4653543
88.274756
87.6900052
87.4936656
87.4915081
92.8393139
92.5173218
92.5323461
92.5279055
88.1447455
87.3558246
87.3330981
92.7083596
92.4648627
92.4908724
92.3963925
88.1341541
88.0024067
92.6870885
88.2221769
87.7507311
92.7400672
92.3279687
92.4945787
88.5205967
87.7710857
87.6652054
87.6649182
92.8004879
92.4653765
92.4958583
92.4533058
88.287037
87.8043925
87.5698021
87.5714781
92.8245424
92.4407965
92.5862357
88.00492
87.5931315
92.8583275
92.4372454
92.6236492
92.3571463
92.4669877
88.2827925
87.7440413
87.5618183
87.5571502
92.8333371
92.4905267
87.7818787
87.6213094
92.8522119
92.4720556
87.7111554
87.6531539
92.9148078
92.4321769
92.5894955
87.9646198
87.6007129
92.8760886
92.4273913
92.6166763
92.3381501
92.4353347
88.321909
87.7932107
87.6435535
87.6351092
92.7760999
92.4290217
87.8629019
87.8217468
92.8000107
92.3002476
92.4420682
88.6741983
87.7160824
87.8724499
87.4354079
87.4164501
92.8539175
92.5058858
92.5050404
92.487425
88.1868195
87.625952
92.6261254
92.5809572
88.2307654
92.7532154
92.2707786
88.1598758
87.9217961
87.646248
87.6327607
92.7662978
92.3665449
92.4093531
88.1064143
87.9580914
92.721484
88.2132984
87.6999688
92.7658389
92.322648
92.4490449
88.2953865
87.7921781
92.5986343
92.4203122
88.3869216
87.7677219
87.7293413
92.6406842
92.3725587
88.2386704
87.8611702
92.6132836
92.4045931
88.3725309
87.7589389
87.7164126
92.6711791
92.3497909
88.1652122
87.9023459
92.709384
92.3128401
88.0537025
87.9808243
92.7398052
92.2439271
92.3464907
88.5886351
87.7847698
87.7649328
92.6340418
92.4137875
88.3955824
87.7086254
87.6674876
92.6927971
92.3609923
88.1490299
87.8487774
92.7318101
92.3268419
88.1038999
87.9273966
92.7321634
92.3039644
88.1098421
88.0535484
92.7656106
88.8807797
87.675506
92.6471447
92.4619959
88.4428729
87.6262209
87.6268756
92.6660101
92.3437742
92.3806104
88.172364
87.9745819
92.7431203
92.2625071
92.3476392
88.4997396
87.7750264
87.7471991
92.6574701
92.4105641
88.460477
87.7406097
87.7146257
92.6745919
92.4231253
88.3813291
87.6640453
87.6466771
92.704759
92.4583074
88.2786699
87.5490065
87.5193357
92.8064403
92.3991336
92.437965
92.3389849
88.5280052
88.014219
92.6285959
92.2669938
88.4113361
88.1437222
92.5958093
92.2373177
89.1813536
88.2016575
88.0311128
87.9986533
92.6539259
92.2897791
88.3050723
88.0596641
92.6465193
92.301907
88.5337008
88.0397184
87.7994629
87.775907
92.8228449
92.3903881
87.9396509
87.7417857
92.9695429
92.3980617
92.5915019
92.3744649
88.0831179
87.8826053
92.8616799
88.1676103
87.6253651
92.8814487
92.3408023
92.4366557
88.5994524
87.6499576
87.7492924
92.6775039
88.2584857
87.8161599
92.8284467
92.3056307
92.413331
88.6035493
87.6311975
87.705546
92.698747
88.19847
87.7290135
92.9153352
92.3400965
92.5216826
88.3130965
87.7972722
92.78613
92.3606587
88.0822817
87.9977909
92.8418714
92.2554086
92.3827363
88.8424429
87.9046937
87.7322252
87.7146124
92.8608265
92.3789109
87.9533379
87.8591045
92.9250098
92.2945269
92.4496795
88.3032578
87.8384097
92.7535361
92.3514258
88.2656351
87.9745467
92.7243671
92.3205926
88.6259881
88.0229372
87.8208233
87.7870548
92.8091914
92.3543387
88.2035346
87.925053
92.8074532
92.319489
88.234022
87.9804578
92.7800447
92.3039161
88.305234
88.0517122
92.7220627
92.3009681
88.7377299
88.0948918
87.8680788
87.8441892
92.8006822
92.3812717
88.2351782
87.9079326
92.7538284
92.450887
88.5261012
87.6280301
87.5787107
92.842789
92.4059967
88.078541
87.8279291
93.0308888
)
;

boundaryField
{
    closed
    {
        type            calculated;
        value           nonuniform List<scalar> 0();
    }
    open
    {
        type            calculated;
        value           nonuniform List<scalar> 0();
    }
    sides
    {
        type            empty;
    }
    procBoundary3to2
    {
        type            processor;
        value           uniform 92.315135;
    }
    procBoundary3to4
    {
        type            processor;
        value           uniform 92.3439479;
    }
}


// ************************************************************************* //
