/*--------------------------------*- C++ -*----------------------------------*\
| =========                 |                                                 |
| \\      /  F ield         | OpenFOAM: The Open Source CFD Toolbox           |
|  \\    /   O peration     | Version:  2306                                  |
|   \\  /    A nd           | Website:  www.openfoam.com                      |
|    \\/     M anipulation  |                                                 |
\*---------------------------------------------------------------------------*/
FoamFile
{
    version     2.0;
    format      ascii;
    arch        "LSB;label=32;scalar=64";
    class       volScalarField;
    location    "0.00188";
    object      Z;
}
// * * * * * * * * * * * * * * * * * * * * * * * * * * * * * * * * * * * * * //

dimensions      [0 0 0 0 0 0 0];

internalField   nonuniform List<scalar> 
531
(
0.0140883525
0.0147055929
0.0149096974
0.0149036562
0.0141063103
0.0140896655
0.0140877542
0.0140868479
0.014653832
0.0148310376
0.0148796256
0.0148775781
0.0141128306
0.0140866689
0.0148445538
0.0148399965
0.014115743
0.0140775309
0.0140942764
0.0146735947
0.014917008
0.0148651458
0.014104664
0.0140787326
0.0140871173
0.0146871013
0.0148347367
0.0148866185
0.0148842308
0.0141146435
0.0140875957
0.0148613291
0.0148811932
0.0141182503
0.0140851109
0.0140947945
0.0140819673
0.0147205535
0.0148163098
0.0140952653
0.0140810511
0.014696321
0.0148033215
0.0148614085
0.014860338
0.0141067772
0.0140773056
0.0140908706
0.0146707722
0.0148189705
0.0140970729
0.0140776379
0.014745617
0.014745439
0.0140997423
0.0146651109
0.0148254759
0.0141020087
0.0140738452
0.0140837052
0.0145382483
0.0147864673
0.0148203762
0.0148195621
0.0140998895
0.0140735883
0.014079554
0.0146641924
0.0148317915
0.0148267982
0.0140944865
0.0140845318
0.0145978971
0.0148679454
0.014795397
0.0141012356
0.0146512261
0.0148961524
0.0140953366
0.0140931306
0.014715287
0.0149250296
0.014913325
0.0141095353
0.0140862709
0.0140878536
0.0140840467
0.0144589405
0.0148395496
0.0148381881
0.0140926712
0.0140744663
0.0140754304
0.0146608678
0.0148158898
0.0148126149
0.0140937248
0.0140839379
0.0145942136
0.0148561608
0.0147873962
0.0141008283
0.0146323134
0.0148796301
0.0140955407
0.0140922103
0.0146999205
0.0148961029
0.0148811179
0.0141035832
0.0140823414
0.0140835389
0.0147484453
0.0148500704
0.0149420051
0.0149379751
0.014126817
0.0140924808
0.0141056034
0.0140879278
0.0148229115
0.0148585632
0.0141228511
0.0140818592
0.0141016143
0.0140761466
0.014082864
0.0147156642
0.014884281
0.0148733456
0.0141113695
0.0140922481
0.0147312083
0.0149676091
0.0149401203
0.0141137694
0.0140884098
0.0140951522
0.0147835125
0.0148995268
0.0141171467
0.0140923555
0.0140925284
0.0140898819
0.0146984796
0.0148423608
0.0148942335
0.0148944997
0.0141174275
0.0140867198
0.0140946685
0.0147483321
0.0149908465
0.0149666432
0.0141186446
0.014092
0.0141009846
0.0140839507
0.0140863336
0.0147389935
0.0148498153
0.014928697
0.014927332
0.0141249763
0.0140890275
0.0141040676
0.0140799126
0.0140857319
0.0146975589
0.0148375084
0.0148844805
0.014884697
0.0141185324
0.0140901809
0.0140928663
0.0140872825
0.0146851349
0.0148278981
0.0148682581
0.0148667223
0.0141170754
0.014087548
0.0140917725
0.0140843349
0.0146578663
0.0148017762
0.0148371973
0.0148336638
0.0141121806
0.0140849365
0.0147873638
0.0148396203
0.0141107412
0.0140871355
0.0147700342
0.0148626908
0.0141065915
0.0140934671
0.0147211416
0.0149307566
0.0149071067
0.0141120349
0.0140851698
0.0140946264
0.014077878
0.0140786577
0.0146798203
0.0147805858
0.014834045
0.0148312167
0.0141121428
0.0140842506
0.0148099589
0.0148125388
0.0141168427
0.0140781006
0.014090987
0.0147060426
0.0148738031
0.0149200976
0.0149212745
0.0141230251
0.0140961003
0.014097415
0.0140966023
0.014737398
0.0149630013
0.0149548213
0.0141141214
0.0140900557
0.0140954794
0.014084129
0.0147523453
0.014783715
0.0141106757
0.0147225453
0.0148584213
0.0141151495
0.0140813001
0.0140941251
0.0146636553
0.0148559602
0.0148798962
0.0148799438
0.0141216016
0.0140931006
0.0140961202
0.0140915398
0.0147084079
0.0148499524
0.0149065656
0.0149077212
0.0141236447
0.0140921066
0.0141030804
0.0147905902
0.0149009055
0.0141276835
0.0140911843
0.0141077799
0.0140836562
0.0140933293
0.0147098097
0.0148662039
0.0149109226
0.0149102209
0.0141269222
0.0140957791
0.0148587587
0.0148921575
0.0141292172
0.014094198
0.014877995
0.0148827102
0.014133117
0.0140909944
0.0141041665
0.014800116
0.014898854
0.0141289192
0.0140900008
0.0141065185
0.0140813255
0.0140893516
0.0146954287
0.0148492129
0.0148846772
0.0148851407
0.0141197603
0.0140886894
0.0148284232
0.0148319343
0.0141214059
0.0140778456
0.0140899229
0.0146365384
0.0148696672
0.0148158333
0.0149436948
0.014935437
0.0141278556
0.0140944173
0.0140959388
0.0140927566
0.0147275222
0.0148915707
0.0141047386
0.0141036924
0.0147029994
0.0141185855
0.014071513
0.0147433135
0.0147993605
0.0148817349
0.014875938
0.0141178553
0.0140819079
0.0140849412
0.0147499478
0.0147915483
0.0141122749
0.0147165049
0.0148639091
0.0141161994
0.0140782042
0.0140880508
0.0146948949
0.0148395859
0.0141023152
0.0140869264
0.0146767091
0.0148548476
0.0148435698
0.0141087394
0.0140804894
0.0147164777
0.0148173724
0.014103855
0.0140852208
0.0146788511
0.0148580072
0.0148448542
0.0141122134
0.0140776339
0.0147432658
0.0147982309
0.0141134678
0.0140751618
0.0147688941
0.014777675
0.0141139365
0.0140701456
0.0140786222
0.0146446935
0.0148418454
0.0148368036
0.0141063071
0.0140849828
0.0146749174
0.0148689833
0.0148564107
0.014113795
0.0140780444
0.0147470814
0.0148105859
0.0141157561
0.0140758573
0.0147583305
0.0147913962
0.0141154359
0.0140746567
0.0147566881
0.0147600484
0.0141186123
0.0146000317
0.0148748419
0.0141075149
0.0140904847
0.0146695227
0.0148902748
0.0148765897
0.0141084678
0.0140793753
0.0140821318
0.0147291404
0.0147856387
0.0141136591
0.0140725819
0.0140789376
0.0146601203
0.0148478366
0.014843001
0.0141090182
0.0140847961
0.0146678547
0.0148586738
0.014851043
0.0141106473
0.0140853831
0.0146805758
0.0148765762
0.0148688626
0.014112511
0.0140885692
0.0146942144
0.0149103482
0.0148973393
0.0141232479
0.0140819706
0.0140899439
0.0140763753
0.0146605956
0.0147671029
0.0141059677
0.014070866
0.0146813555
0.0147344271
0.0141030041
0.0140693175
0.0145583769
0.0147189443
0.0147805185
0.0147732704
0.0141085336
0.0140733807
0.0147032047
0.014759824
0.0141076872
0.0140752824
0.0146604667
0.0147708868
0.0148456904
0.0148387335
0.0141245071
0.01408308
0.0148116215
0.0148445504
0.0141364154
0.0140830578
0.0141042439
0.0140801262
0.0147650054
0.0148043462
0.0141252526
0.0147226294
0.0148898655
0.0141247981
0.0140809073
0.0140879886
0.0146473636
0.0148845877
0.01484871
0.0141093662
0.0147059473
0.014837238
0.0141207975
0.0140775418
0.0140861738
0.0146460743
0.0148890569
0.0148599595
0.0141111202
0.0147236979
0.0148609198
0.0141281201
0.0140808354
0.0140947153
0.014696991
0.0148378966
0.0141190849
0.0140809108
0.0147675926
0.0147782643
0.0141221293
0.014072116
0.0140830766
0.0146084055
0.0148067162
0.0148601477
0.0148534238
0.0141255783
0.0140814583
0.0148031197
0.0148117761
0.0141283812
0.0140749349
0.0140880426
0.0146978552
0.014822438
0.0141155848
0.0140790727
0.0147173272
0.0147835232
0.0141135956
0.0140764864
0.0146470894
0.0147728089
0.0148425692
0.0148331181
0.0141221993
0.014078868
0.0147427089
0.0147934082
0.0141221862
0.0140754682
0.0147345514
0.0147781595
0.0141195768
0.0140744643
0.014713355
0.014762416
0.0141138775
0.0140753741
0.014630441
0.0147569279
0.0148317066
0.0148234889
0.0141211476
0.0140833428
0.014729444
0.0148119173
0.0141148671
0.0140914284
0.0146581303
0.0149045692
0.0148881396
0.014127125
0.0140836006
0.0147876012
0.0148213344
0.0141412284
)
;

boundaryField
{
    closed
    {
        type            zeroGradient;
    }
    open
    {
        type            zeroGradient;
    }
    sides
    {
        type            empty;
    }
    procBoundary3to2
    {
        type            processor;
        value           uniform 0.0140792064;
    }
    procBoundary3to4
    {
        type            processor;
        value           uniform 0.0140786625;
    }
}


// ************************************************************************* //
