/*--------------------------------*- C++ -*----------------------------------*\
| =========                 |                                                 |
| \\      /  F ield         | OpenFOAM: The Open Source CFD Toolbox           |
|  \\    /   O peration     | Version:  2306                                  |
|   \\  /    A nd           | Website:  www.openfoam.com                      |
|    \\/     M anipulation  |                                                 |
\*---------------------------------------------------------------------------*/
FoamFile
{
    version     2.0;
    format      ascii;
    arch        "LSB;label=32;scalar=64";
    class       volScalarField;
    location    "0.00162";
    object      alpha;
}
// * * * * * * * * * * * * * * * * * * * * * * * * * * * * * * * * * * * * * //

dimensions      [1 -1 -1 0 0 0 0];

internalField   nonuniform List<scalar> 
531
(
3.68140887e-05
3.68166301e-05
3.54200376e-05
3.54026594e-05
3.68263258e-05
3.68109105e-05
3.68257223e-05
3.57338128e-05
3.50683162e-05
3.50683022e-05
3.68083241e-05
3.68125689e-05
3.57607653e-05
3.50677003e-05
3.53232366e-05
3.68161773e-05
3.57205516e-05
3.50993828e-05
3.68177897e-05
3.68074137e-05
3.6812659e-05
3.68095226e-05
3.58574735e-05
3.54857221e-05
3.5463118e-05
3.5363934e-05
3.50798595e-05
3.5081805e-05
3.67973742e-05
3.6811226e-05
3.54883402e-05
3.54819272e-05
3.68031426e-05
3.67967205e-05
3.68039471e-05
3.57748017e-05
3.53301791e-05
3.51519874e-05
3.51523763e-05
3.67906942e-05
3.68147778e-05
3.53895948e-05
3.52173272e-05
3.67850615e-05
3.68150095e-05
3.53508683e-05
3.5185955e-05
3.6786808e-05
3.68176353e-05
3.51694326e-05
3.5076705e-05
3.67952356e-05
3.68237539e-05
3.67950984e-05
3.68294953e-05
3.55424967e-05
3.52191785e-05
3.68015089e-05
3.68182645e-05
3.54073099e-05
3.54011399e-05
3.68097067e-05
3.57285079e-05
3.51002423e-05
3.68100218e-05
3.67989256e-05
3.68043168e-05
3.57545631e-05
3.52688331e-05
3.51457085e-05
3.5071573e-05
3.6800881e-05
3.67964488e-05
3.56828962e-05
3.48113348e-05
3.48283882e-05
3.67730353e-05
3.68166488e-05
3.54030631e-05
3.51052073e-05
3.67859401e-05
3.68094733e-05
3.52231467e-05
3.51769041e-05
3.6801344e-05
3.68073015e-05
3.68070829e-05
3.54374953e-05
3.50688277e-05
3.68110078e-05
3.68053005e-05
3.68080052e-05
3.68088744e-05
3.5775496e-05
3.5397787e-05
3.52009832e-05
3.518034e-05
3.68102187e-05
3.6808464e-05
3.57435889e-05
3.50511746e-05
3.52469082e-05
3.68077776e-05
3.57547419e-05
3.51807042e-05
3.68065606e-05
3.68087418e-05
3.56235571e-05
3.54799875e-05
3.67863715e-05
3.67972374e-05
3.62615068e-05
3.55807022e-05
3.53350738e-05
3.5083135e-05
3.50843332e-05
3.67964645e-05
3.68161979e-05
3.55194437e-05
3.55149631e-05
3.68018391e-05
3.57331749e-05
3.51002056e-05
3.68148692e-05
3.68044203e-05
3.68191905e-05
3.56672369e-05
3.51989323e-05
3.68218729e-05
3.68204202e-05
3.68271919e-05
3.56308653e-05
3.50566024e-05
3.68233267e-05
3.68149238e-05
3.57299204e-05
3.54314215e-05
3.52382622e-05
3.5239807e-05
3.68130485e-05
3.57753675e-05
3.51219622e-05
3.68141854e-05
3.68071388e-05
3.58519437e-05
3.51753327e-05
3.52278448e-05
3.6819809e-05
3.57227687e-05
3.52375923e-05
3.68253496e-05
3.68150145e-05
3.68243532e-05
3.57199439e-05
3.51837314e-05
3.68146877e-05
3.68162276e-05
3.68052138e-05
3.68170096e-05
3.59331621e-05
3.55364226e-05
3.53947035e-05
3.53560871e-05
3.49536596e-05
3.49646422e-05
3.68109987e-05
3.57311686e-05
3.50119071e-05
3.68092362e-05
3.68053435e-05
3.56607722e-05
3.53207403e-05
3.68094901e-05
3.67970527e-05
3.57991715e-05
3.52022971e-05
3.52097126e-05
3.67952625e-05
3.68104991e-05
3.67982625e-05
3.58175963e-05
3.52070381e-05
3.52104256e-05
3.68072457e-05
3.68151409e-05
3.57582744e-05
3.5049871e-05
3.50603584e-05
3.68005559e-05
3.68220459e-05
3.67990053e-05
3.58668447e-05
3.54644585e-05
3.54476594e-05
3.51073998e-05
3.51085286e-05
3.67943656e-05
3.68364549e-05
3.56604481e-05
3.54091815e-05
3.67952943e-05
3.68323821e-05
3.56426268e-05
3.54214117e-05
3.68005874e-05
3.68310341e-05
3.54950333e-05
3.52944247e-05
3.68122944e-05
3.68314662e-05
3.68143798e-05
3.68289232e-05
3.57715185e-05
3.54326551e-05
3.55951013e-05
3.5455967e-05
3.55176773e-05
3.51925241e-05
3.52015513e-05
3.67315006e-05
3.67839908e-05
3.67080338e-05
3.51906133e-05
3.50879343e-05
3.67950866e-05
3.67935214e-05
3.68004193e-05
3.57209099e-05
3.5194696e-05
3.6815115e-05
3.68092981e-05
3.57308891e-05
3.48789342e-05
3.48896974e-05
3.67972769e-05
3.682639e-05
3.56500343e-05
3.52298332e-05
3.68007546e-05
3.6802442e-05
3.57762003e-05
3.51011142e-05
3.51003648e-05
3.67980374e-05
3.67988258e-05
3.57799974e-05
3.50088012e-05
3.50210222e-05
3.67813707e-05
3.68188205e-05
3.55580094e-05
3.5535026e-05
3.67956975e-05
3.57764821e-05
3.49401649e-05
3.68083337e-05
3.68126433e-05
3.5570304e-05
3.52877187e-05
3.68053647e-05
3.68149017e-05
3.56540423e-05
3.54523189e-05
3.68040585e-05
3.6802166e-05
3.57662566e-05
3.55694519e-05
3.5089807e-05
3.50865153e-05
3.6805468e-05
3.67931204e-05
3.68038877e-05
3.57663013e-05
3.52183637e-05
3.67923437e-05
3.6813977e-05
3.5533263e-05
3.52118251e-05
3.6791064e-05
3.68247441e-05
3.53907014e-05
3.51660507e-05
3.67941048e-05
3.68270021e-05
3.52940935e-05
3.52620367e-05
3.68044904e-05
3.68168823e-05
3.68006937e-05
3.57367465e-05
3.52715805e-05
3.4820166e-05
3.48251477e-05
3.68102905e-05
3.67975481e-05
3.68004451e-05
3.57679573e-05
3.48134092e-05
3.48215497e-05
3.67981489e-05
3.67962272e-05
3.68024172e-05
3.57526403e-05
3.55731656e-05
3.68008796e-05
3.58729723e-05
3.51098772e-05
3.68067823e-05
3.68146229e-05
3.56746906e-05
3.54272169e-05
3.68087553e-05
3.68022405e-05
3.57811253e-05
3.55879525e-05
3.51522168e-05
3.51485448e-05
3.67928969e-05
3.67845657e-05
3.60079296e-05
3.50697209e-05
3.50689254e-05
3.6789565e-05
3.57427943e-05
3.47596746e-05
3.67954804e-05
3.67787664e-05
3.6790861e-05
3.67818006e-05
3.58434893e-05
3.48783399e-05
3.48832593e-05
3.6784805e-05
3.67906262e-05
3.57823967e-05
3.49483247e-05
3.49512264e-05
3.67830791e-05
3.67851892e-05
3.57969566e-05
3.48748633e-05
3.48805416e-05
3.67919806e-05
3.67875858e-05
3.67921887e-05
3.57559633e-05
3.52418585e-05
3.6797924e-05
3.67879652e-05
3.5781516e-05
3.48290701e-05
3.48368458e-05
3.68009048e-05
3.6799153e-05
3.67974146e-05
3.56511491e-05
3.52134824e-05
3.68068654e-05
3.67932745e-05
3.57722641e-05
3.49832173e-05
3.49886424e-05
3.67940412e-05
3.67962238e-05
3.58003167e-05
3.5021827e-05
3.50217156e-05
3.68029307e-05
3.67916071e-05
3.57881744e-05
3.49450171e-05
3.49527009e-05
3.67937846e-05
3.68212535e-05
3.56715863e-05
3.53348201e-05
3.6800112e-05
3.68109548e-05
3.57727583e-05
3.54755853e-05
3.48617804e-05
3.48722646e-05
3.67862916e-05
3.68139833e-05
3.67711575e-05
3.68195643e-05
3.67680137e-05
3.57725345e-05
3.49289953e-05
3.49484288e-05
3.67879897e-05
3.68282672e-05
3.55186328e-05
3.51976834e-05
3.68019386e-05
3.68138277e-05
3.56024484e-05
3.5262605e-05
3.68061445e-05
3.67925239e-05
3.57859611e-05
3.50005186e-05
3.50116196e-05
3.67873754e-05
3.68002318e-05
3.57161224e-05
3.52920837e-05
3.67942733e-05
3.67819163e-05
3.58060576e-05
3.49027886e-05
3.48998845e-05
3.68043533e-05
3.67892364e-05
3.57237773e-05
3.67903929e-05
3.68089542e-05
3.57803402e-05
3.50711937e-05
3.50776736e-05
3.68004525e-05
3.67852942e-05
3.58051008e-05
3.49872254e-05
3.49831499e-05
3.68044188e-05
3.67954505e-05
3.57812393e-05
3.47001049e-05
3.47045457e-05
3.68166374e-05
3.67955748e-05
3.68067362e-05
3.56187836e-05
3.52762091e-05
3.68160758e-05
3.68031668e-05
3.67929811e-05
3.58376475e-05
3.47641728e-05
3.47761451e-05
3.68224409e-05
3.68047272e-05
3.68098567e-05
3.57452527e-05
3.53896746e-05
3.68234945e-05
3.68085785e-05
3.57921433e-05
3.55923373e-05
3.51180384e-05
3.51173218e-05
3.68058481e-05
3.6818254e-05
3.56508566e-05
3.54019486e-05
3.68064931e-05
3.68094943e-05
3.57830584e-05
3.5528025e-05
3.49703494e-05
3.49764224e-05
3.67948409e-05
3.68168555e-05
3.54046784e-05
3.51720278e-05
3.68008107e-05
3.6816726e-05
3.5299775e-05
3.52350566e-05
3.68213955e-05
3.6801782e-05
3.68008748e-05
3.55375659e-05
3.51823672e-05
3.68208901e-05
3.6799802e-05
3.55588776e-05
3.51903665e-05
3.68141289e-05
3.67766104e-05
3.57886188e-05
3.47368172e-05
3.47534795e-05
3.67861847e-05
3.67756475e-05
3.67626365e-05
3.67732006e-05
3.61165031e-05
3.49570556e-05
3.49687964e-05
3.68094913e-05
3.57536754e-05
3.49805585e-05
3.68169513e-05
3.67863454e-05
3.67760708e-05
3.58661777e-05
3.53299913e-05
3.53675881e-05
3.48082518e-05
3.48212114e-05
3.67970477e-05
3.68035202e-05
3.53760157e-05
3.53198115e-05
3.68159847e-05
3.67863933e-05
3.67949101e-05
3.56845822e-05
3.53150221e-05
3.68117781e-05
3.68056915e-05
3.54646672e-05
3.54392201e-05
3.68130202e-05
3.6795566e-05
3.67776279e-05
3.58466842e-05
3.55140326e-05
3.49626287e-05
3.49643494e-05
3.68050166e-05
3.67793868e-05
3.57728158e-05
3.44748607e-05
3.45208362e-05
3.68027007e-05
3.67893808e-05
3.67788779e-05
3.54613161e-05
)
;

boundaryField
{
    closed
    {
        type            calculated;
        value           nonuniform List<scalar> 0();
    }
    open
    {
        type            calculated;
        value           nonuniform List<scalar> 0();
    }
    sides
    {
        type            empty;
    }
    procBoundary1to0
    {
        type            processor;
        value           uniform 3.51054755e-05;
    }
    procBoundary1to2
    {
        type            processor;
        value           uniform 3.49321914e-05;
    }
}


// ************************************************************************* //
