/*--------------------------------*- C++ -*----------------------------------*\
| =========                 |                                                 |
| \\      /  F ield         | OpenFOAM: The Open Source CFD Toolbox           |
|  \\    /   O peration     | Version:  2306                                  |
|   \\  /    A nd           | Website:  www.openfoam.com                      |
|    \\/     M anipulation  |                                                 |
\*---------------------------------------------------------------------------*/
FoamFile
{
    version     2.0;
    format      ascii;
    arch        "LSB;label=32;scalar=64";
    class       volScalarField;
    location    "0.00162";
    object      prefDPV_T;
}
// * * * * * * * * * * * * * * * * * * * * * * * * * * * * * * * * * * * * * //

dimensions      [1 -1 -1 -1 0 0 0];

internalField   nonuniform List<scalar> 
531
(
6.09621234e-10
6.08740572e-10
5.90206747e-10
5.90149981e-10
6.10110243e-10
6.08215169e-10
6.08955903e-10
5.92614534e-10
5.89083877e-10
5.89003098e-10
6.09441066e-10
6.09043817e-10
5.94184474e-10
5.89123215e-10
5.8984954e-10
6.09759326e-10
5.91776205e-10
5.89212429e-10
6.09848142e-10
6.0886506e-10
6.08828057e-10
6.08619487e-10
5.97525435e-10
5.904524e-10
5.90415679e-10
5.90045529e-10
5.89179438e-10
5.89079603e-10
6.09990953e-10
6.08738469e-10
5.90570944e-10
5.90484502e-10
6.10178388e-10
6.08196734e-10
6.09047053e-10
5.94244235e-10
5.89992583e-10
5.89455921e-10
5.89327289e-10
6.10352456e-10
6.08860376e-10
5.90296892e-10
5.89537545e-10
6.10332647e-10
6.08817384e-10
5.90179925e-10
5.89417473e-10
6.10528239e-10
6.08880376e-10
5.89546908e-10
5.89006966e-10
6.1094608e-10
6.08962279e-10
6.09573197e-10
6.08877735e-10
5.90712714e-10
5.89504591e-10
6.10159417e-10
6.08664024e-10
5.90264097e-10
5.90162426e-10
6.10297004e-10
5.91502274e-10
5.89261466e-10
6.10287209e-10
6.08505475e-10
6.09087782e-10
5.93364732e-10
5.89847992e-10
5.89375755e-10
5.8915627e-10
6.1028202e-10
6.09402021e-10
5.91105175e-10
5.88444745e-10
5.88201894e-10
6.10382716e-10
6.09165726e-10
5.9036655e-10
5.89183212e-10
6.10668692e-10
6.08941963e-10
5.89722621e-10
5.89418123e-10
6.10977821e-10
6.08743351e-10
6.09354041e-10
5.90288196e-10
5.89109186e-10
6.10641344e-10
6.0899463e-10
6.09110994e-10
6.08795494e-10
5.94811426e-10
5.90200641e-10
5.89521087e-10
5.89431478e-10
6.1017294e-10
6.09052476e-10
5.93251309e-10
5.89112318e-10
5.89599793e-10
6.09916811e-10
5.93910605e-10
5.89479711e-10
6.09904265e-10
6.08716164e-10
5.91012641e-10
5.90491282e-10
6.10592241e-10
6.08401098e-10
6.05549749e-10
5.90771073e-10
5.90100035e-10
5.89189869e-10
5.89118564e-10
6.10349507e-10
6.08700451e-10
5.90679276e-10
5.90541601e-10
6.10470122e-10
5.92432983e-10
5.89256883e-10
6.10665962e-10
6.08633933e-10
6.09444207e-10
5.91039479e-10
5.89477619e-10
6.10706422e-10
6.08504674e-10
6.09282146e-10
5.90831334e-10
5.88999657e-10
6.1004708e-10
6.08840207e-10
5.92670755e-10
5.90320781e-10
5.89625684e-10
5.89632985e-10
6.10097314e-10
5.94853856e-10
5.89274386e-10
6.09961926e-10
6.08955607e-10
5.97469299e-10
5.89440961e-10
5.89533552e-10
6.0981494e-10
5.92099132e-10
5.89621563e-10
6.10601797e-10
6.08409057e-10
6.09326294e-10
5.91384122e-10
5.89423478e-10
6.10598231e-10
6.08759239e-10
6.09255914e-10
6.08542236e-10
5.99390377e-10
5.90578116e-10
5.9019146e-10
5.90008238e-10
5.88720259e-10
5.88700418e-10
6.10280585e-10
5.92282125e-10
5.88951785e-10
6.10202576e-10
6.09007046e-10
5.91046438e-10
5.89996058e-10
6.09969012e-10
6.08903581e-10
5.95737829e-10
5.89646864e-10
5.89489104e-10
6.10251494e-10
6.08378722e-10
6.08783564e-10
5.96345718e-10
5.89598222e-10
5.89484384e-10
6.10118673e-10
6.08967711e-10
5.9421703e-10
5.89064056e-10
5.88922835e-10
6.10320569e-10
6.08519035e-10
6.08709263e-10
5.97936334e-10
5.90446434e-10
5.90233205e-10
5.89316644e-10
5.89050986e-10
6.10430993e-10
6.08641978e-10
5.91174293e-10
5.9008513e-10
6.10278073e-10
6.08420808e-10
5.91092573e-10
5.90135556e-10
6.10385737e-10
6.08513008e-10
5.90557964e-10
5.89699125e-10
6.10906071e-10
6.08683597e-10
6.09201199e-10
6.08627909e-10
5.94913035e-10
5.90291474e-10
5.90779652e-10
5.90492298e-10
5.90594781e-10
5.8979205e-10
5.89591547e-10
6.11530508e-10
6.08944741e-10
6.12057173e-10
5.89543313e-10
5.89412356e-10
6.11333995e-10
6.08644386e-10
6.09247421e-10
5.91238676e-10
5.89550578e-10
6.10104398e-10
6.09176574e-10
5.93068487e-10
5.88536269e-10
5.88326961e-10
6.10530328e-10
6.09040802e-10
5.91071565e-10
5.89624878e-10
6.10253804e-10
6.09000636e-10
5.9448041e-10
5.89308952e-10
5.89197021e-10
6.10234389e-10
6.09177631e-10
5.94788024e-10
5.8904268e-10
5.88845809e-10
6.10563069e-10
6.0873662e-10
5.90856014e-10
5.90610156e-10
6.10848416e-10
5.94903046e-10
5.88707336e-10
6.1054752e-10
6.09037761e-10
5.90776251e-10
5.89794908e-10
6.10513576e-10
6.0865113e-10
5.91085093e-10
5.90372783e-10
6.10187128e-10
6.08493064e-10
5.93773498e-10
5.90854556e-10
5.89251265e-10
5.89218041e-10
6.10975076e-10
6.08573294e-10
6.09508446e-10
5.93408919e-10
5.89613395e-10
6.10523448e-10
6.08874482e-10
5.90755886e-10
5.89500715e-10
6.10960264e-10
6.08837272e-10
5.90289522e-10
5.89291958e-10
6.11186718e-10
6.08781259e-10
5.89936451e-10
5.8962283e-10
6.11298176e-10
6.0835362e-10
6.09051139e-10
5.92698159e-10
5.89876029e-10
5.88269741e-10
5.8832488e-10
6.11427041e-10
6.08745731e-10
6.09528052e-10
5.93819846e-10
5.8836772e-10
5.88283169e-10
6.10765762e-10
6.0878321e-10
6.09081778e-10
5.92084801e-10
5.90831478e-10
6.10538384e-10
5.97847743e-10
5.89218835e-10
6.10564458e-10
6.08821816e-10
5.91135302e-10
5.90296965e-10
6.10228153e-10
6.08498273e-10
5.94571882e-10
5.90908038e-10
5.89486575e-10
5.89439735e-10
6.10826742e-10
6.09150355e-10
6.00918507e-10
5.89246029e-10
5.89178313e-10
6.10939882e-10
5.91566267e-10
5.88300636e-10
6.11467947e-10
6.09714853e-10
6.09623604e-10
6.09598516e-10
5.9682754e-10
5.88656049e-10
5.88518833e-10
6.10669774e-10
6.09448781e-10
5.94016598e-10
5.88907498e-10
5.88798654e-10
6.10488581e-10
6.09457825e-10
5.94762461e-10
5.88653225e-10
5.88552099e-10
6.10814322e-10
6.08812751e-10
6.09157521e-10
5.9173562e-10
5.89827292e-10
6.10269858e-10
6.09300891e-10
5.94520991e-10
5.88456953e-10
5.88329576e-10
6.10884942e-10
6.08887052e-10
6.09129406e-10
5.91070821e-10
5.89681222e-10
6.10355002e-10
6.09201145e-10
5.94245043e-10
5.88965571e-10
5.88839437e-10
6.10460135e-10
6.0926659e-10
5.95193175e-10
5.89067688e-10
5.89002606e-10
6.10330018e-10
6.09352757e-10
5.95127793e-10
5.88854745e-10
5.88630445e-10
6.10529689e-10
6.08950151e-10
5.91217176e-10
5.89951154e-10
6.10351813e-10
6.08617917e-10
5.93287782e-10
5.90490682e-10
5.88600481e-10
5.88416169e-10
6.11757369e-10
6.08999241e-10
6.10316921e-10
6.08502543e-10
6.09096136e-10
5.94917469e-10
5.88867277e-10
5.88546843e-10
6.108877e-10
6.09010333e-10
5.90722583e-10
5.8945675e-10
6.10752442e-10
6.08881797e-10
5.90955049e-10
5.89799966e-10
6.10301111e-10
6.09173264e-10
5.94831716e-10
5.89054018e-10
5.88909472e-10
6.10535649e-10
6.09085213e-10
5.91398003e-10
5.89986945e-10
6.1026451e-10
6.09225847e-10
5.95125131e-10
5.88727044e-10
5.88655505e-10
6.10715497e-10
6.10264265e-10
5.91676257e-10
6.10948103e-10
6.08606135e-10
5.93307608e-10
5.89205645e-10
5.89243185e-10
6.10382721e-10
6.09345306e-10
5.95473888e-10
5.89001745e-10
5.88873728e-10
6.1028543e-10
6.09504795e-10
5.94302231e-10
5.87982687e-10
5.8792534e-10
6.10927716e-10
6.09012425e-10
6.09620282e-10
5.90971636e-10
5.8982423e-10
6.11175927e-10
6.08440912e-10
6.09725859e-10
5.96834985e-10
5.88172005e-10
5.8809689e-10
6.10699833e-10
6.08746362e-10
6.09295484e-10
5.92651097e-10
5.90183958e-10
6.09970694e-10
6.08472742e-10
5.94980065e-10
5.9084457e-10
5.89386216e-10
5.8920582e-10
6.10533243e-10
6.08807555e-10
5.91163262e-10
5.90189417e-10
6.10179762e-10
6.08525001e-10
5.93797857e-10
5.90658651e-10
5.88966071e-10
5.88750737e-10
6.10991684e-10
6.09067293e-10
5.90412983e-10
5.89388046e-10
6.10998865e-10
6.08869315e-10
5.89996684e-10
5.896151e-10
6.11145986e-10
6.0869158e-10
6.09274147e-10
5.90697487e-10
5.89535475e-10
6.10528623e-10
6.09044526e-10
5.9078107e-10
5.89649883e-10
6.10187466e-10
6.09473709e-10
5.94509723e-10
5.88293822e-10
5.88186726e-10
6.1122815e-10
6.09637061e-10
6.1017454e-10
6.09536577e-10
6.02988537e-10
5.88871426e-10
5.88955524e-10
6.10623082e-10
5.91810486e-10
5.88947482e-10
6.11001298e-10
6.08755661e-10
6.09521431e-10
5.97520735e-10
5.90250967e-10
5.90158805e-10
5.8849458e-10
5.88294116e-10
6.10908014e-10
6.09139056e-10
5.90302487e-10
5.8999889e-10
6.10987596e-10
6.08592956e-10
6.09338805e-10
5.91271159e-10
5.899968e-10
6.10404541e-10
6.08698936e-10
5.90567188e-10
5.90350357e-10
6.10803894e-10
6.08332397e-10
6.09267483e-10
5.96856924e-10
5.90822828e-10
5.88882971e-10
5.88924816e-10
6.10676033e-10
6.09823578e-10
5.92888913e-10
5.87381848e-10
5.87386932e-10
6.11040497e-10
6.09296748e-10
6.09509885e-10
5.90375348e-10
)
;

boundaryField
{
    closed
    {
        type            calculated;
        value           nonuniform List<scalar> 0();
    }
    open
    {
        type            calculated;
        value           nonuniform List<scalar> 0();
    }
    sides
    {
        type            empty;
    }
    procBoundary1to0
    {
        type            processor;
        value           uniform 5.89186216e-10;
    }
    procBoundary1to2
    {
        type            processor;
        value           uniform 5.88891405e-10;
    }
}


// ************************************************************************* //
