/*--------------------------------*- C++ -*----------------------------------*\
| =========                 |                                                 |
| \\      /  F ield         | OpenFOAM: The Open Source CFD Toolbox           |
|  \\    /   O peration     | Version:  2306                                  |
|   \\  /    A nd           | Website:  www.openfoam.com                      |
|    \\/     M anipulation  |                                                 |
\*---------------------------------------------------------------------------*/
FoamFile
{
    version     2.0;
    format      ascii;
    arch        "LSB;label=32;scalar=64";
    class       volScalarField;
    location    "0.00162";
    object      prefDZ_T;
}
// * * * * * * * * * * * * * * * * * * * * * * * * * * * * * * * * * * * * * //

dimensions      [1 -1 -1 -1 0 0 0];

internalField   nonuniform List<scalar> 
531
(
-1.22886132e-09
-1.22707914e-09
-1.18887207e-09
-1.18875172e-09
-1.22985349e-09
-1.22601466e-09
-1.22751666e-09
-1.19388799e-09
-1.18648939e-09
-1.18632806e-09
-1.22849555e-09
-1.22769222e-09
-1.19711587e-09
-1.18656772e-09
-1.18812003e-09
-1.22914124e-09
-1.1921642e-09
-1.18675837e-09
-1.22932133e-09
-1.22732945e-09
-1.2272555e-09
-1.22683277e-09
-1.20397917e-09
-1.18938892e-09
-1.18930621e-09
-1.18852744e-09
-1.18668479e-09
-1.18648618e-09
-1.22960666e-09
-1.22707391e-09
-1.18962591e-09
-1.18945117e-09
-1.22998716e-09
-1.22597478e-09
-1.22769719e-09
-1.19723668e-09
-1.18840792e-09
-1.18726536e-09
-1.18700877e-09
-1.23033722e-09
-1.22732131e-09
-1.18903884e-09
-1.18745449e-09
-1.23029607e-09
-1.22723433e-09
-1.1887898e-09
-1.18720225e-09
-1.23069235e-09
-1.22736231e-09
-1.18745392e-09
-1.18633912e-09
-1.23153981e-09
-1.22752921e-09
-1.22876059e-09
-1.22735912e-09
-1.1899311e-09
-1.18738952e-09
-1.22994845e-09
-1.2269245e-09
-1.18898089e-09
-1.18877585e-09
-1.2302285e-09
-1.19159902e-09
-1.18685664e-09
-1.23020873e-09
-1.22660007e-09
-1.2277797e-09
-1.19542918e-09
-1.18809455e-09
-1.18710283e-09
-1.18663527e-09
-1.23019653e-09
-1.22841434e-09
-1.1907725e-09
-1.1851134e-09
-1.18463358e-09
-1.23039518e-09
-1.22793973e-09
-1.18918319e-09
-1.18670234e-09
-1.23097652e-09
-1.22748549e-09
-1.18782603e-09
-1.18719989e-09
-1.23160522e-09
-1.22708307e-09
-1.22831917e-09
-1.1890416e-09
-1.18654014e-09
-1.23092583e-09
-1.22759133e-09
-1.22782736e-09
-1.2271889e-09
-1.19840431e-09
-1.18885053e-09
-1.18741503e-09
-1.18722792e-09
-1.22997744e-09
-1.227709e-09
-1.1951974e-09
-1.18653949e-09
-1.1875907e-09
-1.22945849e-09
-1.19655298e-09
-1.1873243e-09
-1.22943287e-09
-1.22702831e-09
-1.19056252e-09
-1.18946384e-09
-1.23082183e-09
-1.2263885e-09
-1.22043752e-09
-1.1900637e-09
-1.18862408e-09
-1.18670691e-09
-1.18656498e-09
-1.23033233e-09
-1.22699786e-09
-1.18985471e-09
-1.18957893e-09
-1.2305775e-09
-1.19351433e-09
-1.18684747e-09
-1.23097638e-09
-1.22686108e-09
-1.2285039e-09
-1.19063507e-09
-1.18732749e-09
-1.2310596e-09
-1.22660235e-09
-1.22817731e-09
-1.19020554e-09
-1.18631656e-09
-1.22972507e-09
-1.22728051e-09
-1.19400434e-09
-1.18910389e-09
-1.18763879e-09
-1.18765398e-09
-1.22982487e-09
-1.19849169e-09
-1.18689102e-09
-1.229551e-09
-1.22751268e-09
-1.20386448e-09
-1.18724482e-09
-1.18745082e-09
-1.22925449e-09
-1.19282866e-09
-1.1876303e-09
-1.23084843e-09
-1.22640783e-09
-1.22826616e-09
-1.19135712e-09
-1.18721333e-09
-1.23083923e-09
-1.22711685e-09
-1.2281202e-09
-1.22667776e-09
-1.20780703e-09
-1.18966083e-09
-1.18883096e-09
-1.18844988e-09
-1.18571817e-09
-1.18568273e-09
-1.2301955e-09
-1.19320407e-09
-1.18620345e-09
-1.23003725e-09
-1.22761647e-09
-1.19064602e-09
-1.18841095e-09
-1.22956448e-09
-1.22740553e-09
-1.20030789e-09
-1.18766651e-09
-1.18735478e-09
-1.23013369e-09
-1.22634562e-09
-1.22716282e-09
-1.20155654e-09
-1.18757136e-09
-1.18734565e-09
-1.22986703e-09
-1.22753864e-09
-1.19718329e-09
-1.18644256e-09
-1.18616463e-09
-1.23027451e-09
-1.22663171e-09
-1.22701257e-09
-1.20482374e-09
-1.18936799e-09
-1.18893651e-09
-1.18696965e-09
-1.18643973e-09
-1.23049689e-09
-1.22688316e-09
-1.19089987e-09
-1.1886254e-09
-1.2301875e-09
-1.22643475e-09
-1.19072969e-09
-1.18873097e-09
-1.23040644e-09
-1.22662113e-09
-1.18960293e-09
-1.18780834e-09
-1.231462e-09
-1.22696651e-09
-1.22801112e-09
-1.22685333e-09
-1.19861415e-09
-1.18904608e-09
-1.19008705e-09
-1.1894557e-09
-1.18968587e-09
-1.18795244e-09
-1.18755583e-09
-1.23271089e-09
-1.22748645e-09
-1.23377258e-09
-1.1874552e-09
-1.18715327e-09
-1.23232512e-09
-1.22688025e-09
-1.22810213e-09
-1.19105452e-09
-1.18747133e-09
-1.22983959e-09
-1.22796034e-09
-1.19482301e-09
-1.18532174e-09
-1.18490714e-09
-1.23069853e-09
-1.22768863e-09
-1.1906912e-09
-1.18763375e-09
-1.23013938e-09
-1.22760296e-09
-1.1977227e-09
-1.18695182e-09
-1.18672799e-09
-1.23009958e-09
-1.22796057e-09
-1.19835542e-09
-1.18638394e-09
-1.18599525e-09
-1.23076184e-09
-1.22707154e-09
-1.19022278e-09
-1.18972393e-09
-1.23134218e-09
-1.19859279e-09
-1.18568716e-09
-1.23073539e-09
-1.22767997e-09
-1.19006946e-09
-1.18799644e-09
-1.23066612e-09
-1.22689779e-09
-1.19071984e-09
-1.18921625e-09
-1.23000502e-09
-1.22657554e-09
-1.19626889e-09
-1.19022479e-09
-1.18683216e-09
-1.18676451e-09
-1.23160043e-09
-1.22673628e-09
-1.22863113e-09
-1.1955183e-09
-1.1876062e-09
-1.23068368e-09
-1.22734971e-09
-1.19001302e-09
-1.18737879e-09
-1.23156775e-09
-1.22727635e-09
-1.18902461e-09
-1.18694379e-09
-1.23202677e-09
-1.22716338e-09
-1.18828122e-09
-1.18764286e-09
-1.23225437e-09
-1.22629596e-09
-1.22770487e-09
-1.19405969e-09
-1.18815158e-09
-1.18476628e-09
-1.18487851e-09
-1.23251636e-09
-1.22708611e-09
-1.22867019e-09
-1.19636404e-09
-1.18495992e-09
-1.18479367e-09
-1.23117531e-09
-1.22716173e-09
-1.2277672e-09
-1.19279449e-09
-1.19018051e-09
-1.23071551e-09
-1.2046403e-09
-1.18677532e-09
-1.23076939e-09
-1.22724323e-09
-1.19082868e-09
-1.18905471e-09
-1.23008894e-09
-1.2265861e-09
-1.19791024e-09
-1.19033912e-09
-1.18732665e-09
-1.18723168e-09
-1.23129778e-09
-1.22790274e-09
-1.21094154e-09
-1.18681387e-09
-1.18667827e-09
-1.2315262e-09
-1.19172854e-09
-1.18480588e-09
-1.23259639e-09
-1.22904431e-09
-1.22886184e-09
-1.22880938e-09
-1.20254443e-09
-1.18556123e-09
-1.18528848e-09
-1.2309785e-09
-1.22850792e-09
-1.19676683e-09
-1.18609061e-09
-1.185874e-09
-1.23061137e-09
-1.22852522e-09
-1.19830009e-09
-1.18555429e-09
-1.18535402e-09
-1.23127247e-09
-1.22721995e-09
-1.22791864e-09
-1.19207512e-09
-1.18804237e-09
-1.23017136e-09
-1.22820807e-09
-1.1978054e-09
-1.18514438e-09
-1.18489229e-09
-1.2314171e-09
-1.22737246e-09
-1.22786269e-09
-1.19069021e-09
-1.18773955e-09
-1.23034538e-09
-1.22800714e-09
-1.19723874e-09
-1.18621998e-09
-1.1859699e-09
-1.23055583e-09
-1.22814016e-09
-1.19918632e-09
-1.18643894e-09
-1.18630882e-09
-1.23029407e-09
-1.22831373e-09
-1.19905365e-09
-1.18598383e-09
-1.18553824e-09
-1.23069659e-09
-1.2275042e-09
-1.19098995e-09
-1.1883273e-09
-1.23033767e-09
-1.22682985e-09
-1.1952679e-09
-1.18946077e-09
-1.18544385e-09
-1.18507892e-09
-1.23318061e-09
-1.22760225e-09
-1.23026164e-09
-1.22659788e-09
-1.22778994e-09
-1.19862311e-09
-1.18600287e-09
-1.18536947e-09
-1.23142027e-09
-1.2276273e-09
-1.18994053e-09
-1.18728535e-09
-1.23114905e-09
-1.22736449e-09
-1.19043886e-09
-1.18799625e-09
-1.23023615e-09
-1.22795057e-09
-1.19844442e-09
-1.18640344e-09
-1.18611878e-09
-1.23070745e-09
-1.22777376e-09
-1.19136874e-09
-1.18838109e-09
-1.23015985e-09
-1.22805506e-09
-1.19904532e-09
-1.18571245e-09
-1.18556821e-09
-1.23107471e-09
-1.23015842e-09
-1.19195793e-09
-1.231543e-09
-1.22680564e-09
-1.19530753e-09
-1.18673376e-09
-1.18681128e-09
-1.23040031e-09
-1.22829748e-09
-1.19976351e-09
-1.18629385e-09
-1.18603633e-09
-1.23020409e-09
-1.22862219e-09
-1.19735506e-09
-1.18414716e-09
-1.18403385e-09
-1.23150663e-09
-1.22762557e-09
-1.22885804e-09
-1.19047894e-09
-1.18805017e-09
-1.23200904e-09
-1.22647017e-09
-1.22906922e-09
-1.2025607e-09
-1.18454982e-09
-1.18440381e-09
-1.23104636e-09
-1.2270887e-09
-1.22820114e-09
-1.19396147e-09
-1.18881391e-09
-1.22957047e-09
-1.22653557e-09
-1.19874887e-09
-1.19021486e-09
-1.18711277e-09
-1.1867523e-09
-1.23070603e-09
-1.22721502e-09
-1.19087376e-09
-1.18882993e-09
-1.22999056e-09
-1.22664151e-09
-1.19631639e-09
-1.18981735e-09
-1.18621609e-09
-1.18578787e-09
-1.23163206e-09
-1.22774052e-09
-1.18927637e-09
-1.18713791e-09
-1.23164772e-09
-1.22733976e-09
-1.18840363e-09
-1.18761638e-09
-1.23194942e-09
-1.22697728e-09
-1.22815631e-09
-1.1898987e-09
-1.18743625e-09
-1.23069946e-09
-1.22769132e-09
-1.1900741e-09
-1.18766778e-09
-1.23000757e-09
-1.22855579e-09
-1.19778108e-09
-1.18478397e-09
-1.1845754e-09
-1.23210916e-09
-1.22888626e-09
-1.22997182e-09
-1.22868241e-09
-1.21518648e-09
-1.18602176e-09
-1.18619441e-09
-1.23088858e-09
-1.1922296e-09
-1.1861828e-09
-1.23165566e-09
-1.22710417e-09
-1.22865228e-09
-1.20396806e-09
-1.18892294e-09
-1.18875461e-09
-1.18521208e-09
-1.18481546e-09
-1.23146309e-09
-1.22788334e-09
-1.18904438e-09
-1.18841622e-09
-1.23162774e-09
-1.22677485e-09
-1.22828609e-09
-1.1911029e-09
-1.18841009e-09
-1.23044658e-09
-1.22699288e-09
-1.18960845e-09
-1.18916607e-09
-1.23125528e-09
-1.22624915e-09
-1.22813854e-09
-1.20260441e-09
-1.19013811e-09
-1.18604696e-09
-1.18613131e-09
-1.23099494e-09
-1.22926451e-09
-1.19444674e-09
-1.18286251e-09
-1.1828886e-09
-1.23173236e-09
-1.22819994e-09
-1.22862943e-09
-1.18922518e-09
)
;

boundaryField
{
    closed
    {
        type            calculated;
        value           nonuniform List<scalar> 0();
    }
    open
    {
        type            calculated;
        value           nonuniform List<scalar> 0();
    }
    sides
    {
        type            empty;
    }
    procBoundary1to0
    {
        type            processor;
        value           uniform -1.18670844e-09;
    }
    procBoundary1to2
    {
        type            processor;
        value           uniform -1.18605235e-09;
    }
}


// ************************************************************************* //
