/*--------------------------------*- C++ -*----------------------------------*\
| =========                 |                                                 |
| \\      /  F ield         | OpenFOAM: The Open Source CFD Toolbox           |
|  \\    /   O peration     | Version:  2306                                  |
|   \\  /    A nd           | Website:  www.openfoam.com                      |
|    \\/     M anipulation  |                                                 |
\*---------------------------------------------------------------------------*/
FoamFile
{
    version     2.0;
    format      ascii;
    arch        "LSB;label=32;scalar=64";
    class       volScalarField;
    location    "0.00046";
    object      mu;
}
// * * * * * * * * * * * * * * * * * * * * * * * * * * * * * * * * * * * * * //

dimensions      [1 -1 -1 0 0 0 0];

internalField   nonuniform List<scalar> 
531
(
1.99314232e-05
1.95505436e-05
1.95508348e-05
2.02914369e-05
2.02994107e-05
1.95802336e-05
1.95096972e-05
2.02888332e-05
2.02988174e-05
1.95626029e-05
1.95148831e-05
2.02849582e-05
2.02959086e-05
1.95492127e-05
1.95072715e-05
2.0283073e-05
2.03082229e-05
1.95515612e-05
1.95943424e-05
2.03067613e-05
2.03065102e-05
1.97465701e-05
1.95552097e-05
1.98027359e-05
2.02962771e-05
2.03087698e-05
1.97636434e-05
1.96285509e-05
1.96125301e-05
1.95316123e-05
1.9770862e-05
2.02980955e-05
2.03113456e-05
1.97464926e-05
1.9507696e-05
1.97568201e-05
2.02814059e-05
2.03119358e-05
1.98416992e-05
1.96745915e-05
1.94408563e-05
1.94428265e-05
2.02725345e-05
2.0223043e-05
1.94980785e-05
1.97701463e-05
2.02807098e-05
1.98290328e-05
1.95433267e-05
1.98267774e-05
2.02876363e-05
1.97872605e-05
1.95803318e-05
1.97870984e-05
2.029361e-05
2.03170297e-05
1.96961594e-05
1.93628897e-05
1.97891384e-05
2.02731988e-05
1.97719286e-05
1.95442515e-05
1.98185147e-05
2.02826235e-05
2.03072388e-05
1.9655293e-05
1.93763669e-05
1.98088403e-05
2.02478686e-05
2.01906494e-05
1.95641066e-05
1.94993706e-05
1.99204439e-05
2.02719292e-05
2.02879374e-05
1.97702471e-05
1.94261094e-05
1.94206372e-05
1.98122132e-05
2.02792699e-05
1.97801244e-05
1.95470967e-05
2.02397438e-05
2.02791034e-05
2.00404588e-05
1.96029626e-05
1.94303941e-05
1.98913424e-05
2.02748612e-05
1.97810187e-05
1.95064896e-05
2.02424333e-05
2.02947719e-05
1.97100399e-05
1.9511173e-05
2.02292672e-05
2.02972824e-05
1.97061365e-05
1.95100565e-05
2.02298116e-05
2.02989758e-05
1.97171427e-05
1.95238404e-05
2.02430127e-05
2.02983947e-05
1.97686836e-05
1.96088211e-05
1.97848981e-05
2.02751926e-05
2.03125056e-05
1.97805865e-05
1.95541756e-05
1.95011327e-05
1.96452706e-05
2.02754896e-05
2.02998061e-05
1.97576709e-05
1.94422656e-05
1.97799386e-05
2.02790125e-05
1.97577749e-05
1.95147458e-05
2.02624336e-05
2.02944535e-05
1.97756974e-05
1.96176743e-05
1.97570363e-05
2.02633204e-05
2.02956158e-05
1.98234125e-05
1.94108244e-05
1.94105611e-05
2.01319872e-05
2.02690513e-05
1.99154318e-05
1.94861506e-05
1.94696144e-05
2.01554636e-05
2.02673667e-05
1.98746373e-05
1.94889065e-05
1.94841981e-05
2.01267899e-05
2.02866766e-05
1.97973596e-05
1.95675279e-05
2.01990222e-05
2.02770986e-05
1.98818723e-05
1.94926977e-05
1.94690852e-05
2.00683238e-05
2.02678475e-05
1.99242177e-05
1.95149802e-05
1.94742796e-05
2.00502532e-05
2.02835334e-05
1.97874494e-05
1.95790385e-05
2.01389744e-05
2.02746323e-05
1.9905263e-05
1.9522276e-05
1.94684574e-05
1.99970247e-05
2.02644757e-05
1.99907136e-05
1.95379175e-05
1.94530823e-05
1.99581749e-05
2.02645542e-05
2.00457834e-05
1.95517866e-05
1.94554902e-05
1.99566811e-05
2.02768678e-05
2.00535285e-05
1.9700538e-05
1.96285327e-05
1.9884527e-05
1.99054503e-05
1.96886324e-05
1.96851442e-05
2.02104768e-05
2.03122811e-05
2.01554986e-05
1.97250722e-05
1.9611633e-05
1.98146542e-05
1.98579806e-05
1.97513941e-05
1.97128465e-05
2.01940432e-05
2.02945211e-05
2.00321061e-05
1.95989436e-05
1.94209381e-05
1.98470729e-05
2.02634409e-05
2.01125269e-05
1.96195744e-05
1.94618211e-05
1.98535198e-05
2.02579833e-05
2.00960061e-05
1.96349039e-05
1.94726443e-05
1.98621268e-05
2.02593779e-05
2.00589067e-05
1.96184995e-05
1.94726901e-05
1.98686418e-05
2.02635045e-05
2.00153295e-05
1.96197435e-05
1.95081934e-05
1.99292404e-05
2.02729317e-05
1.98330946e-05
1.95728818e-05
1.96740644e-05
2.0239981e-05
2.03081786e-05
1.97517568e-05
1.94807551e-05
1.97468841e-05
2.02313388e-05
2.02958948e-05
1.99704304e-05
1.9598363e-05
1.94456781e-05
1.98509342e-05
2.02601751e-05
1.98878501e-05
1.94833886e-05
1.93886277e-05
1.98323641e-05
2.0258914e-05
2.0034833e-05
1.96584641e-05
1.95540169e-05
1.99720347e-05
2.02856232e-05
1.97715494e-05
1.95910142e-05
1.99706863e-05
2.02725181e-05
1.98887385e-05
1.95667708e-05
1.95457717e-05
2.01472794e-05
2.02959896e-05
1.97637652e-05
1.95358738e-05
1.99268145e-05
2.0268165e-05
1.99685397e-05
1.95963681e-05
1.94986774e-05
1.99040747e-05
2.02686474e-05
1.99348814e-05
1.95640573e-05
1.94873497e-05
2.00118332e-05
2.02915324e-05
1.97695517e-05
1.95866321e-05
1.99998438e-05
2.02765093e-05
1.99321685e-05
1.95897887e-05
1.95988365e-05
2.00183378e-05
1.97877569e-05
1.95920484e-05
2.00903547e-05
2.02970591e-05
1.97693569e-05
1.95599836e-05
1.99726385e-05
2.02909373e-05
1.98479895e-05
1.95898796e-05
1.96035871e-05
2.02829003e-05
2.02899327e-05
1.98462234e-05
1.95630364e-05
1.96421069e-05
1.99706027e-05
1.97801761e-05
1.96322137e-05
2.02238013e-05
2.03077042e-05
1.97727366e-05
1.96103637e-05
1.98759647e-05
2.03090414e-05
2.02954296e-05
1.97577334e-05
1.94836541e-05
1.97015306e-05
1.99449936e-05
1.97800976e-05
1.96540464e-05
2.02764773e-05
2.03074309e-05
1.97837269e-05
1.96123902e-05
1.99566516e-05
2.03107818e-05
2.02180526e-05
1.97514745e-05
1.93711745e-05
1.97478389e-05
2.02070492e-05
1.97743828e-05
1.96018188e-05
2.01713024e-05
2.027885e-05
2.00633397e-05
1.95896331e-05
1.94194166e-05
1.99260302e-05
2.02884729e-05
1.97620151e-05
1.95892297e-05
1.99616958e-05
2.02965555e-05
2.02377054e-05
1.97659109e-05
1.93375635e-05
1.94991364e-05
2.02966667e-05
2.0272368e-05
1.98032859e-05
1.95171052e-05
1.97637159e-05
2.02312113e-05
1.97726379e-05
1.96342583e-05
2.01396633e-05
2.03101634e-05
2.02503167e-05
1.9739463e-05
1.93370882e-05
1.97452171e-05
2.02268129e-05
1.97533882e-05
1.96508685e-05
2.03443717e-05
2.02787738e-05
1.97877222e-05
1.95366963e-05
1.96472695e-05
2.03067937e-05
2.02706777e-05
1.98361834e-05
1.94696348e-05
1.95747229e-05
2.03170288e-05
2.02668787e-05
1.97805456e-05
1.93325965e-05
1.94897419e-05
2.03152491e-05
2.02669053e-05
1.97903215e-05
1.94644308e-05
1.96506642e-05
2.02847774e-05
2.02925663e-05
2.02513215e-05
1.97794843e-05
1.95629111e-05
1.93659997e-05
1.94298265e-05
2.03133419e-05
2.02978086e-05
1.95794392e-05
1.95472733e-05
2.03253531e-05
2.03291552e-05
1.95432068e-05
1.95798485e-05
2.03449815e-05
2.03676192e-05
2.0322057e-05
1.97004017e-05
1.92087404e-05
1.93017123e-05
2.04566215e-05
2.03490348e-05
1.95699143e-05
2.04009903e-05
2.0450643e-05
1.94889468e-05
1.90979913e-05
1.93029345e-05
2.03398956e-05
2.03689615e-05
2.03173059e-05
2.03294576e-05
2.0306226e-05
2.03102335e-05
2.02980139e-05
2.0304134e-05
2.030295e-05
2.03202566e-05
2.03352352e-05
2.03807788e-05
2.04311784e-05
2.05721191e-05
2.07238047e-05
2.05530476e-05
2.04302878e-05
2.02994598e-05
2.01902466e-05
2.01094356e-05
2.00354911e-05
1.99895948e-05
1.9894875e-05
1.98952556e-05
1.98483856e-05
1.97799977e-05
1.97677407e-05
1.97200692e-05
1.97977692e-05
2.00856307e-05
2.09701424e-05
2.07577944e-05
2.20228613e-05
1.89115624e-05
2.01773594e-05
1.97921511e-05
2.13826154e-05
2.08290755e-05
2.2054024e-05
2.13901857e-05
2.30796035e-05
2.12959693e-05
2.30049782e-05
2.48072643e-05
2.70412721e-05
2.80743203e-05
2.89950522e-05
2.99258788e-05
3.08978892e-05
3.19333296e-05
3.29568933e-05
3.40239989e-05
3.49284477e-05
3.58859932e-05
3.65740201e-05
3.74499128e-05
3.79179255e-05
3.8756786e-05
3.91989604e-05
4.00364018e-05
4.04982875e-05
4.13150269e-05
4.17844307e-05
4.26971933e-05
4.31648827e-05
4.39310461e-05
4.42694317e-05
4.49021684e-05
4.52595584e-05
4.56395164e-05
4.59347081e-05
4.65433829e-05
4.68140353e-05
4.7241441e-05
4.76639273e-05
4.77983809e-05
4.79362318e-05
4.83734815e-05
4.86095093e-05
4.8864635e-05
4.9200522e-05
4.9089397e-05
4.95045963e-05
4.98069117e-05
4.99494013e-05
5.00789184e-05
5.02315918e-05
5.0371757e-05
5.05523043e-05
5.13598591e-05
5.09180513e-05
5.10395081e-05
5.1510884e-05
5.13166195e-05
5.16271016e-05
5.15513038e-05
5.22560875e-05
5.17308763e-05
5.20967303e-05
5.21745896e-05
5.26444712e-05
5.21736213e-05
5.24694554e-05
5.25461737e-05
5.28994393e-05
5.25965442e-05
5.2734634e-05
5.27841769e-05
5.3078758e-05
5.31101187e-05
5.29326524e-05
5.30036398e-05
5.31902244e-05
5.31297433e-05
5.30863832e-05
5.3259773e-05
5.32797726e-05
5.31698536e-05
5.32052088e-05
5.33834066e-05
5.33722965e-05
5.32575122e-05
5.33039122e-05
5.34857908e-05
5.34684511e-05
5.33369316e-05
5.33909138e-05
5.35060559e-05
5.36016685e-05
)
;

boundaryField
{
    closed
    {
        type            calculated;
        value           nonuniform List<scalar> 0();
    }
    open
    {
        type            calculated;
        value           nonuniform List<scalar> 0();
    }
    sides
    {
        type            empty;
    }
    procBoundary4to3
    {
        type            processor;
        value           uniform 2.02868529e-05;
    }
    procBoundary4to5
    {
        type            processor;
        value           uniform 5.35538457e-05;
    }
}


// ************************************************************************* //
