/*--------------------------------*- C++ -*----------------------------------*\
| =========                 |                                                 |
| \\      /  F ield         | OpenFOAM: The Open Source CFD Toolbox           |
|  \\    /   O peration     | Version:  2306                                  |
|   \\  /    A nd           | Website:  www.openfoam.com                      |
|    \\/     M anipulation  |                                                 |
\*---------------------------------------------------------------------------*/
FoamFile
{
    version     2.0;
    format      ascii;
    arch        "LSB;label=32;scalar=64";
    class       volScalarField;
    location    "0.00046";
    object      prefDh_T;
}
// * * * * * * * * * * * * * * * * * * * * * * * * * * * * * * * * * * * * * //

dimensions      [1 1 -3 -1 0 0 0];

internalField   nonuniform List<scalar> 
531
(
-0.000626919368
-0.000528739597
-0.000528954862
-0.000743058796
-0.000745846233
-0.000539039884
-0.000514406949
-0.000742190716
-0.000745655865
-0.000533011652
-0.000516293999
-0.000740806873
-0.000744622371
-0.000528341436
-0.000513755518
-0.000740117577
-0.000749081422
-0.000528778066
-0.000543880683
-0.00074847839
-0.000748365678
-0.000593261276
-0.000530167913
-0.00059251305
-0.000744650877
-0.000749149638
-0.00059144135
-0.000555837658
-0.000549594272
-0.000522161617
-0.000587456019
-0.000745333647
-0.000750090902
-0.000591140128
-0.000513930243
-0.00058537778
-0.000739374308
-0.000750215292
-0.000603803715
-0.000571578522
-0.00049092603
-0.000491875197
-0.00073635322
-0.000718901035
-0.00051048058
-0.000593388224
-0.000739187925
-0.000598965925
-0.000526166307
-0.000597520612
-0.000741632735
-0.00059016183
-0.00053894615
-0.000589274818
-0.000743749501
-0.000752222903
-0.000577896596
-0.000463670328
-0.000589006759
-0.000736518898
-0.000588165743
-0.000526738102
-0.000595844278
-0.000739826403
-0.000748768877
-0.000564125001
-0.000468771267
-0.000594291366
-0.000727423815
-0.000707955588
-0.00053393575
-0.000511673338
-0.000623613778
-0.00073592634
-0.000741808026
-0.000594749382
-0.000485880132
-0.000483573468
-0.000596826918
-0.000738701273
-0.000604860864
-0.000527815932
-0.000724910418
-0.000738530959
-0.000659807459
-0.000546832543
-0.000487541636
-0.000615205459
-0.000737109719
-0.000607435712
-0.000513552829
-0.000725828405
-0.000744186223
-0.000585141471
-0.000514964706
-0.000721133832
-0.000745084615
-0.000583865271
-0.00051452129
-0.000721336438
-0.00074569057
-0.000587368481
-0.000519270704
-0.000726032753
-0.000745462106
-0.000597628882
-0.000549035188
-0.000589254597
-0.000737164795
-0.000750521163
-0.000593461605
-0.00052988071
-0.00051175315
-0.000561823317
-0.000737432965
-0.000745950653
-0.000589879301
-0.000491072404
-0.000587013812
-0.000738663635
-0.000591085731
-0.000516333317
-0.00073299781
-0.000744052638
-0.000591761725
-0.000552266221
-0.000593460455
-0.000733001906
-0.000744425388
-0.000600458406
-0.000480645829
-0.000480251291
-0.000689301697
-0.000734999757
-0.000623048772
-0.000507100549
-0.000501093314
-0.000696969409
-0.000734386401
-0.000612186867
-0.000508121889
-0.00050583524
-0.000687604169
-0.000741298931
-0.000613123251
-0.00053487658
-0.000711234675
-0.000737854553
-0.000614233765
-0.00050917547
-0.000500814489
-0.000668917007
-0.000734571498
-0.00062530868
-0.000517003079
-0.000502451209
-0.00066314708
-0.000740186819
-0.000607533873
-0.000538926165
-0.000691683728
-0.000736976607
-0.000620327495
-0.000519375881
-0.000500705775
-0.000646476703
-0.000733375951
-0.000644620286
-0.000524719512
-0.000495448769
-0.000634526712
-0.000733412182
-0.000661399485
-0.00052937191
-0.000496175551
-0.000634014207
-0.000737793065
-0.000663873493
-0.000580327639
-0.000556321539
-0.000613177694
-0.000619453522
-0.000576820713
-0.000575258901
-0.000714380452
-0.000750361881
-0.000696207206
-0.000586719114
-0.000550296421
-0.00059433098
-0.000606376022
-0.000598109939
-0.000584783477
-0.00070890411
-0.000744027454
-0.000657111188
-0.000544859062
-0.000484135668
-0.000601923126
-0.00073306301
-0.000682372016
-0.000552526964
-0.000498638447
-0.000604082135
-0.000731095315
-0.000677068454
-0.000557929013
-0.000502386942
-0.000606440921
-0.000731594555
-0.000665462336
-0.000552272554
-0.000502232016
-0.000608115228
-0.000733068922
-0.000652063139
-0.000552851991
-0.000514379899
-0.000625675022
-0.00073643132
-0.000601110852
-0.000537121494
-0.00057165428
-0.000724854048
-0.000749062269
-0.000586200879
-0.000504940944
-0.000580999123
-0.000721661144
-0.000744542557
-0.000638644956
-0.000545204544
-0.000492796516
-0.000603368521
-0.000731923814
-0.000615312394
-0.000505600521
-0.000472772595
-0.000598230739
-0.000731443358
-0.000658027768
-0.000566662323
-0.000530532592
-0.000638830807
-0.000740975689
-0.000593338436
-0.000542975979
-0.000638309553
-0.000736253248
-0.000615592304
-0.000535146713
-0.000527526122
-0.000694123798
-0.00074471036
-0.000596270219
-0.000524022304
-0.000625140975
-0.000734694947
-0.000638044948
-0.000544761406
-0.000511222717
-0.000618395679
-0.000734889135
-0.000628240004
-0.000533968641
-0.00050711447
-0.000651080737
-0.000743088153
-0.00059558803
-0.000541488452
-0.000647348492
-0.000737652547
-0.000627512429
-0.000542728332
-0.000546082824
-0.000653101515
-0.000593925378
-0.000543277771
-0.000676063813
-0.000745022514
-0.000594549373
-0.000531922761
-0.000638883703
-0.000742837416
-0.000604600699
-0.000542837178
-0.000547488329
-0.00074012863
-0.000742395719
-0.000604779713
-0.000533049838
-0.0005606999
-0.0006384158
-0.000597562248
-0.000556819097
-0.000719545166
-0.000748802711
-0.000599284167
-0.000549027004
-0.000610613838
-0.000749253161
-0.000744509106
-0.000589135549
-0.000506160985
-0.000580801968
-0.000630863857
-0.000599388314
-0.000564358765
-0.000737990848
-0.000748706865
-0.00060769713
-0.000549606908
-0.00063423976
-0.000749851314
-0.00071705661
-0.000590502719
-0.000467774442
-0.000596443968
-0.000713456107
-0.000595156948
-0.000547435388
-0.000702128852
-0.000738433571
-0.000667001656
-0.000542188505
-0.000483672136
-0.000625020962
-0.000742010584
-0.000597497803
-0.000542056886
-0.000635794382
-0.000744742464
-0.000724030431
-0.000599109021
-0.000455753238
-0.000510779579
-0.000745056097
-0.0007361739
-0.000595577165
-0.000518015461
-0.000594874832
-0.000721844736
-0.00059866865
-0.000558097461
-0.000691774187
-0.000749599433
-0.000728464374
-0.00058750997
-0.00045552281
-0.000586820635
-0.000720251699
-0.000591170503
-0.000564172892
-0.000762111888
-0.000738436475
-0.000592443331
-0.000524244086
-0.000562281831
-0.000748580643
-0.000735533015
-0.000602013635
-0.000501087818
-0.000537264729
-0.000752314982
-0.000734245761
-0.000594948153
-0.000453431601
-0.00050765418
-0.000751712337
-0.000734243636
-0.000593538032
-0.000499750574
-0.000563221857
-0.000740787376
-0.000743267775
-0.000728721034
-0.00059603765
-0.000533801466
-0.000464764458
-0.000486853251
-0.000750994436
-0.00074539272
-0.000538844829
-0.000527081938
-0.000755252673
-0.000756631784
-0.000525755183
-0.000537040335
-0.000762388644
-0.000770261269
-0.00075416369
-0.000566717644
-0.000408451667
-0.000440555391
-0.000802538662
-0.000764491069
-0.000520184961
-0.000783115411
-0.000800864238
-0.000491097562
-0.000364621602
-0.000428835736
-0.000762511918
-0.000772835622
-0.000754861092
-0.000759210173
-0.000751160589
-0.000752587785
-0.000748343844
-0.000750365891
-0.000749842068
-0.000755513871
-0.000760337402
-0.000775339584
-0.000791841876
-0.000838406674
-0.000887264236
-0.000823186555
-0.000777022354
-0.000727767169
-0.000686535546
-0.000655881351
-0.000627650287
-0.000610604647
-0.000576683414
-0.000572927897
-0.000555707387
-0.000531335555
-0.000524187898
-0.000503169465
-0.000524400843
-0.000559592263
-0.000837119182
-0.000756297382
-0.00102855456
-0.000226924731
-0.000519691067
-0.000471497963
-0.000782687129
-0.000613172831
-0.000888020537
-0.000721242731
-0.00102169686
-0.000583682549
-0.00082985813
-0.00112771943
-0.00140202091
-0.00146017145
-0.00145727536
-0.0014565196
-0.00142187982
-0.00138350859
-0.00132346338
-0.00126145724
-0.00118013086
-0.00110873432
-0.000997573617
-0.000920005773
-0.000774879513
-0.000695235787
-0.000528596812
-0.000451880735
-0.000271405084
-0.000196488728
-3.21314247e-06
4.68720101e-05
0.000247485526
0.000314898636
0.000545475208
0.000605356232
0.000820636501
0.00105734912
0.00137674634
0.00105412656
0.0010870637
0.00215984939
0.00255615371
0.00127726708
0.00177037635
0.00329302564
0.00339770716
0.00225507916
0.00293924512
0.00389781609
0.00359705107
0.00290486781
0.00387872608
0.00515974748
0.00418596464
0.00211629987
0.00481017241
0.00767488031
0.00455379995
0.00238755329
0.0068031163
0.00828096926
0.00502344155
0.00356844695
0.00822799157
0.0082890733
0.00579929653
0.00477013641
0.00831564329
0.00828463122
0.00629499773
0.00557932679
0.00829818638
0.00827850743
0.00676722818
0.00612937434
0.008281084
0.00825398808
0.00711994346
0.00698258056
0.00826428235
0.00765958351
0.00738950475
0.0080967639
0.0082498313
0.0071687893
0.00752459113
0.00824216704
0.00823670181
0.00710815615
0.00756829585
0.00821961617
0.00822486823
0.00721719572
0.00757218161
0.00787067977
0.00821468977
)
;

boundaryField
{
    closed
    {
        type            calculated;
        value           nonuniform List<scalar> 0();
    }
    open
    {
        type            calculated;
        value           nonuniform List<scalar> 0();
    }
    sides
    {
        type            empty;
    }
    procBoundary4to3
    {
        type            processor;
        value           uniform -0.000741293959;
    }
    procBoundary4to5
    {
        type            processor;
        value           uniform 0.00782322642;
    }
}


// ************************************************************************* //
