/*--------------------------------*- C++ -*----------------------------------*\
| =========                 |                                                 |
| \\      /  F ield         | OpenFOAM: The Open Source CFD Toolbox           |
|  \\    /   O peration     | Version:  2306                                  |
|   \\  /    A nd           | Website:  www.openfoam.com                      |
|    \\/     M anipulation  |                                                 |
\*---------------------------------------------------------------------------*/
FoamFile
{
    version     2.0;
    format      ascii;
    arch        "LSB;label=32;scalar=64";
    class       volScalarField;
    location    "0.00046";
    object      sourcePV;
}
// * * * * * * * * * * * * * * * * * * * * * * * * * * * * * * * * * * * * * //

dimensions      [1 -3 -1 0 0 0 0];

internalField   nonuniform List<scalar> 
531
(
0.0481675438
0.153957502
0.154072921
0.00527949685
0.005762702
0.150491969
0.158509608
0.00486071017
0.00563121234
0.152668704
0.158015426
0.0047956924
0.00555013852
0.15419569
0.159025136
0.0048644936
0.00541517941
0.153419528
0.148766566
0.00585525704
0.00597807853
0.124544959
0.153159437
0.0807098379
0.00612233277
0.00614415957
0.107740257
0.144885754
0.145764039
0.156149342
0.0951109824
0.00597531684
0.00607620672
0.120568522
0.159009172
0.10193715
0.00569633982
0.00654288513
0.0715653368
0.139124711
0.16690932
0.166943151
0.00470445971
0.00253485604
0.159988305
0.106302861
0.00533710023
0.0728729278
0.15470792
0.0723038331
0.00561110376
0.0877648904
0.150304253
0.0864211474
0.00580211618
0.00560717675
0.134705555
0.175591508
0.0845596767
0.00514490855
0.0955554131
0.154924699
0.0751983485
0.00562056155
0.00516053294
0.140228537
0.174382696
0.0793005009
0.00508594579
0.00536858125
0.153020085
0.160696334
0.0504539667
0.00589412779
0.00522677767
0.108746932
0.168657408
0.168891025
0.0809490415
0.00515408425
0.120120149
0.154710385
0.00233885783
0.00577498123
0.0273385559
0.147701794
0.168332371
0.0566821236
0.00518660669
0.124378683
0.159198559
0.00271806497
0.005701331
0.136895271
0.158394649
0.00251465147
0.00573425644
0.13746529
0.158454954
0.002453596
0.00575706965
0.135709152
0.156806469
0.00274546676
0.00586286496
0.115382294
0.147257152
0.0879516474
0.00554994607
0.00601022048
0.0984297005
0.153376154
0.159888362
0.14319717
0.00459645475
0.00597205279
0.109475049
0.166395964
0.0877918905
0.0048230896
0.111633143
0.158139085
0.00276965765
0.00580600516
0.0990887807
0.146448374
0.116665566
0.00493933445
0.00605451894
0.0789019833
0.170451035
0.170211093
0.0152840144
0.00530238054
0.0517809441
0.16221739
0.16381826
0.0121327657
0.00534473251
0.0622306689
0.161972766
0.16179463
0.0159631512
0.00554541169
0.122297244
0.152302576
0.0061891465
0.00552825732
0.0604598308
0.161257694
0.163778068
0.0251138328
0.00527597339
0.0496815149
0.158814396
0.163002043
0.0276966111
0.00543591476
0.119419485
0.151039042
0.0147954066
0.00547540171
0.0542907146
0.157790145
0.163964933
0.0365436079
0.00517958855
0.0358214095
0.155884091
0.165794172
0.0433952325
0.00513359403
0.0260895607
0.154074904
0.165412074
0.0437763821
0.00540753907
0.0251755284
0.135663377
0.14558959
0.058129566
0.053702478
0.138042968
0.137910299
0.00268802031
0.00642940705
0.00914890494
0.129053486
0.147330357
0.0755235894
0.0649501833
0.129867386
0.134503825
0.00433740825
0.0060732553
0.0279839009
0.147337841
0.169289766
0.0659408027
0.00483335034
0.0153406128
0.145653331
0.164957842
0.0648357548
0.00487054455
0.0176540841
0.143975304
0.163723869
0.0628063171
0.00488200527
0.0238192834
0.145951315
0.163542249
0.0611942179
0.00493437137
0.0315553891
0.146018267
0.159282023
0.048822496
0.00509535113
0.0733066957
0.152187583
0.139582944
0.00343111759
0.00543406214
0.107271891
0.16252522
0.101619945
0.00405722015
0.00596547315
0.0396475172
0.148195277
0.166554021
0.0654455592
0.00462375221
0.0583822356
0.161940541
0.172816112
0.0698638081
0.00478951372
0.0280252038
0.142038051
0.154308964
0.0406554482
0.00522327051
0.105127092
0.149502379
0.04129208
0.00526519518
0.0581968207
0.153077114
0.155078172
0.0125309169
0.00520541351
0.116685259
0.156134936
0.0492165276
0.00522312646
0.0402483297
0.148778113
0.160541976
0.0537330651
0.00510366818
0.0473284053
0.153089916
0.1616421
0.0338319792
0.00530908827
0.110855317
0.150057857
0.036129226
0.00547235373
0.0479074775
0.149886825
0.149127194
0.0326094035
0.0938464034
0.149303259
0.0223541816
0.00563114917
0.10906778
0.152733743
0.0410488363
0.00552004627
0.0686600064
0.149980444
0.148244331
0.00439731774
0.00596046141
0.0700193128
0.152468414
0.143529746
0.0408364239
0.106247686
0.144030413
0.00342653736
0.00594140562
0.11532317
0.146292149
0.0599317511
0.00611399754
0.00520313272
0.10805533
0.16242403
0.135752725
0.0454490918
0.109722971
0.141406041
0.00316957696
0.00592674765
0.122714476
0.145871369
0.0433301007
0.00627114802
0.00296853211
0.115457378
0.175397066
0.129572514
0.00359298962
0.106289069
0.149206013
0.00989308378
0.00580806765
0.0238922949
0.149236307
0.16951933
0.0493416539
0.00516859604
0.120404023
0.14929522
0.0422838876
0.00616824903
0.00348290163
0.120394036
0.178859735
0.15978323
0.00456313072
0.00540888478
0.0852548158
0.15888388
0.114087582
0.00239920038
0.114233891
0.144622339
0.0141191574
0.00642250939
0.00410614745
0.11923015
0.178889075
0.113455523
0.00253564778
0.115214113
0.143135119
0.00543550809
0.00564394113
0.0912908582
0.155960919
0.142615935
0.00533059616
0.00559008738
0.0725911382
0.163802698
0.1513209
0.00504046032
0.00514640124
0.101149687
0.179150914
0.16103293
0.00479012759
0.00521354503
0.0912617709
0.16486277
0.141860019
0.00450471361
0.00635945704
0.00475641643
0.103963168
0.153513452
0.175251236
0.16792685
0.00499079578
0.00503818218
0.150694835
0.153639878
0.00543266366
0.00538198269
0.154231537
0.147815433
0.00506467958
0.00688845079
0.0047990714
0.111040374
0.192239778
0.18109412
0.00657855224
0.00351495024
0.12553562
0.00769494291
0.0115321123
0.133900568
0.200820405
0.161364535
0.0220224435
0.0257709005
0.0279820235
0.0320451354
0.0339933259
0.0383148875
0.0407820997
0.0448096085
0.0474302959
0.0505890768
0.052668293
0.053772044
0.05351101
0.0477179114
0.0371994076
0.0393867481
0.0415606776
0.0446002447
0.0481213646
0.0518579262
0.0569425209
0.0616308418
0.0669768049
0.0622254206
0.0518100823
0.0510954974
0.0526647188
0.0582507779
0.0631445273
0.173343944
0.151510242
0.228256441
0.308674732
0.0752625351
0.129406637
0.0763825564
0.142408275
0.0649509922
0.131457247
0.0940200484
0.177623918
0.0433576231
0.0918693209
0.306560604
0.642374733
0.884908237
1.13256972
1.49531113
1.93168945
2.45654619
3.05418993
3.71707109
4.32076837
4.98887018
5.38630436
6.02614506
6.1680488
6.83364268
6.93658264
7.69638532
7.83968485
8.69651588
8.88341859
10.1066932
10.3454518
11.4291204
11.4116862
12.3208291
12.3551435
12.3398021
11.9439919
13.7530572
14.0673179
11.5738086
10.9111487
14.6837611
13.3653698
9.43531341
9.26015762
12.4981951
10.6302247
8.08710367
8.85226441
10.6213303
7.99141626
4.86049379
7.09174544
12.4313749
5.42030599
0.395963089
5.75686527
10.905572
1.37203597
1.67041309e-08
4.19350267
7.30942256
0.0333126929
1.86398907e-08
2.50214869
4.15508312
2.27454855e-08
2.11077622e-08
1.60060483
2.50393148
2.46303424e-08
2.36383902e-08
0.977629252
1.63011858
2.62771033e-08
0.00500777505
0.616568914
0.706399426
2.75400029e-08
0.240946144
0.398363857
0.0464437762
2.86426777e-08
0.52635756
0.300118665
2.9669897e-08
2.98433577e-08
0.546142952
0.263714249
0.00247678865
3.10193623e-08
0.452026739
0.249503597
0.112959989
3.23610888e-08
)
;

boundaryField
{
    closed
    {
        type            calculated;
        value           nonuniform List<scalar> 0();
    }
    open
    {
        type            calculated;
        value           nonuniform List<scalar> 0();
    }
    sides
    {
        type            empty;
    }
    procBoundary4to3
    {
        type            processor;
        value           uniform 0;
    }
    procBoundary4to5
    {
        type            processor;
        value           uniform 0;
    }
}


// ************************************************************************* //
