/*--------------------------------*- C++ -*----------------------------------*\
| =========                 |                                                 |
| \\      /  F ield         | OpenFOAM: The Open Source CFD Toolbox           |
|  \\    /   O peration     | Version:  2306                                  |
|   \\  /    A nd           | Website:  www.openfoam.com                      |
|    \\/     M anipulation  |                                                 |
\*---------------------------------------------------------------------------*/
FoamFile
{
    version     2.0;
    format      ascii;
    arch        "LSB;label=32;scalar=64";
    class       volScalarField;
    location    "0.00046";
    object      T;
}
// * * * * * * * * * * * * * * * * * * * * * * * * * * * * * * * * * * * * * //

dimensions      [0 0 0 1 0 0 0];

internalField   nonuniform List<scalar> 
531
(
332.215578
324.609564
324.616428
339.881976
340.07397
325.258938
323.715459
339.811194
340.056702
324.873724
323.829244
339.72318
339.989632
324.580729
323.663146
339.683473
340.258655
324.63042
325.56725
340.239942
340.238212
328.844486
324.710773
329.660636
340.015708
340.293538
329.063095
326.315816
325.961966
324.195435
329.093774
340.051441
340.34855
328.803186
323.672538
328.846588
339.672388
340.376287
330.452142
327.321385
322.210718
322.254542
339.444607
338.278901
323.461718
329.196424
339.645721
330.171919
324.45141
330.110515
339.807978
329.387582
325.260488
329.368069
339.946499
340.460008
327.786177
320.503809
329.392874
339.473034
329.123125
324.472707
329.956862
339.697038
340.228912
326.895221
320.799466
329.784811
338.908919
337.583596
324.908359
323.49263
331.990275
339.468286
339.80268
329.223782
321.888155
321.767342
329.883596
339.608062
329.561807
324.535327
338.643894
339.623755
334.451614
325.755583
321.982358
331.400523
339.51123
329.623718
323.646304
338.715182
339.96913
328.103458
323.747923
338.416546
340.025861
328.018483
323.723275
338.426775
340.064145
328.257546
324.02463
338.728887
340.05456
329.255211
325.88454
329.335294
339.529923
340.372218
329.352343
324.688478
323.529331
326.682414
339.506854
340.089291
328.944943
322.240552
329.219031
339.592068
328.969405
323.826588
339.160903
339.965337
329.247592
326.078946
329.003503
339.247371
339.998907
330.118636
321.553741
321.547296
336.361632
339.385888
331.907518
323.203346
322.840618
336.853856
339.349821
331.098372
323.263863
323.158684
336.252688
339.784631
329.973782
324.982139
337.768117
339.571544
331.244374
323.345998
322.828744
335.033807
339.358346
332.079837
323.833931
322.941871
334.657566
339.711463
329.721069
325.234173
336.509641
339.515157
331.705665
323.99299
322.815339
333.554563
339.280499
333.429
324.334878
322.479061
332.753656
339.280807
334.560845
324.637619
322.531461
332.721535
339.562652
334.72184
327.887277
326.317845
331.26115
331.690101
327.630453
327.552238
338.004418
340.380378
336.842163
328.401772
325.947416
329.870719
330.740372
328.999988
328.157463
337.652126
339.975209
334.277876
325.664792
321.775084
330.493024
339.246751
335.944907
326.118516
322.670765
330.629707
339.126755
335.600385
326.454172
322.907649
330.801624
339.15807
334.831892
326.095609
322.908146
330.929452
339.251303
333.933558
326.123551
323.684461
332.157733
339.465564
330.273422
325.100936
327.31127
338.682552
340.258258
328.787398
323.084361
328.616063
338.509923
340.002307
333.016216
325.654835
322.316781
330.577952
339.167748
331.352599
323.141133
321.06751
330.205917
339.144897
334.335015
326.972306
324.688018
333.040706
339.751213
329.216255
325.495641
333.010007
339.461674
331.371099
324.967836
324.507038
336.679542
339.9807
329.156526
324.290215
332.11238
339.363744
332.976444
325.612404
323.476756
331.648262
339.37073
332.292791
324.90749
323.228283
333.861061
339.885017
329.229396
325.399945
333.61266
339.55672
332.239037
325.469653
325.668553
333.995701
329.467199
325.517996
335.494372
340.017687
329.206793
324.815628
333.049532
339.878384
330.559737
325.471992
325.771349
339.665187
339.869866
330.53748
324.882702
326.613092
333.011844
329.424332
326.394429
338.291547
340.263552
329.346681
325.915553
331.085722
340.298618
339.968202
328.931726
323.148479
327.909725
332.490826
329.457824
326.871647
339.484915
340.257032
329.668873
325.959226
332.72669
340.342151
338.181306
328.864969
320.686166
328.919633
337.929953
329.292799
325.735213
337.185813
339.619168
334.925841
325.463978
321.741922
332.098866
339.812755
329.153802
325.455196
332.830976
340.023325
338.633605
329.242092
319.949524
323.484599
339.975835
339.462827
329.728048
323.881389
329.129354
338.45621
329.333559
326.442045
336.52202
340.333188
338.932855
328.630165
319.939142
328.702354
338.362668
328.906002
326.806908
341.061175
339.612338
329.438282
324.307955
326.724911
340.224316
339.430979
330.336322
322.841026
325.139038
340.442406
339.332803
329.380084
319.840764
323.279593
340.395184
339.335486
329.49765
322.728436
326.797886
339.710165
339.940834
338.975314
329.385107
324.883361
320.571912
321.968668
340.35907
340.015872
325.241937
324.535695
340.639229
340.721999
324.447152
325.241026
341.063246
341.621897
340.546508
327.65636
317.129395
319.161726
343.584779
341.066358
324.839865
342.314306
343.504109
323.088507
314.6973
319.117321
341.105559
341.819212
340.666124
340.995589
340.489279
340.634246
340.385383
340.572477
340.575429
341.003066
341.36363
342.402262
343.531713
346.635856
349.926961
346.13096
343.412088
340.530783
338.145173
336.401622
334.840295
333.891969
331.835633
331.763815
330.583598
329.077959
328.843451
327.911373
329.706675
337.971728
357.042613
353.127765
382.945289
311.12255
340.389929
330.534304
367.502302
353.80529
383.552477
367.630239
409.317977
365.432024
407.857293
453.424352
511.453656
539.94295
566.015238
593.00605
621.873144
653.21126
684.915045
718.553599
747.765611
779.126198
802.080719
831.562197
847.580759
876.439674
891.888991
921.29085
937.744377
966.96971
983.994109
1017.30539
1034.58367
1063.02373
1075.73133
1099.49665
1113.05952
1127.52127
1138.84447
1162.02836
1172.47928
1189.13013
1205.54606
1210.50403
1215.9454
1233.27897
1242.48627
1252.18099
1265.46047
1261.37504
1277.51944
1289.20017
1294.97528
1300.42396
1306.08638
1311.14664
1318.83531
1352.15738
1333.12246
1337.4115
1357.57521
1351.3836
1361.25759
1357.81313
1388.28364
1367.79048
1380.15665
1382.83746
1404.29444
1385.34944
1395.1476
1397.86671
1414.41505
1402.19628
1405.92283
1407.53622
1421.53935
1422.58147
1414.00076
1416.73719
1425.9375
1422.25716
1420.28819
1427.88833
1429.46947
1423.441
1425.1108
1433.61604
1433.14235
1426.85963
1429.06245
1437.59753
1436.96689
1430.06094
1432.51062
1437.40018
1442.29506
)
;

boundaryField
{
    closed
    {
        type            fixedValue;
        value           nonuniform List<scalar> 0();
    }
    open
    {
        type            zeroGradient;
    }
    sides
    {
        type            empty;
    }
    procBoundary4to3
    {
        type            processor;
        value           uniform 339.80028;
    }
    procBoundary4to5
    {
        type            processor;
        value           uniform 1439.25473;
    }
}


// ************************************************************************* //
