/*--------------------------------*- C++ -*----------------------------------*\
| =========                 |                                                 |
| \\      /  F ield         | OpenFOAM: The Open Source CFD Toolbox           |
|  \\    /   O peration     | Version:  2306                                  |
|   \\  /    A nd           | Website:  www.openfoam.com                      |
|    \\/     M anipulation  |                                                 |
\*---------------------------------------------------------------------------*/
FoamFile
{
    version     2.0;
    format      ascii;
    arch        "LSB;label=32;scalar=64";
    class       volScalarField;
    location    "0.00162";
    object      prefDh_H2O;
}
// * * * * * * * * * * * * * * * * * * * * * * * * * * * * * * * * * * * * * //

dimensions      [1 1 -3 0 0 0 0];

internalField   nonuniform List<scalar> 
530
(
87.6514056
91.1149294
92.5535569
92.3568273
92.4783831
89.5147774
87.3276412
87.3008671
92.8150877
92.4882894
87.9804871
87.7033881
92.8244521
92.3941908
87.9380681
87.9064698
92.78937
92.2821368
92.4960863
89.127758
88.1057315
87.5215525
87.5298002
92.9937991
92.5639184
92.6469648
92.5553434
90.1564128
87.5440163
87.5213038
92.7146059
92.4228997
88.0417042
87.9375209
92.7890675
92.2710794
92.4717627
88.871197
88.0495213
87.407667
87.4433576
92.899991
92.4609978
92.6554551
88.127091
87.6961456
92.8806918
92.4285638
92.5928403
92.3652491
89.9831623
88.1772775
87.7082261
87.6950969
92.6734335
92.4840647
88.9929817
87.6004104
87.6003785
92.6057266
92.5143911
89.2992129
87.5702101
87.5732508
92.7563767
92.3401748
92.5377997
89.6293364
87.6843974
87.6450507
92.6484149
92.3670165
88.1635994
88.0449515
92.7333808
92.2669319
92.4325934
89.9464101
88.2145172
87.7069862
87.7248099
92.6537307
92.5006471
88.9788253
87.5031364
87.4792045
92.6899552
92.4036513
88.0626711
87.9243334
92.8117624
92.3246685
92.5285519
90.6186958
88.0214653
87.9706629
87.5327532
87.5256083
92.7647055
92.4027425
92.4622782
88.1466803
88.021819
92.7190966
92.2939677
92.4471516
88.3228619
88.1440439
92.6823143
88.8082978
87.64223
92.7259163
92.3401129
92.4601337
89.1512075
88.0257949
87.5166536
87.5291273
92.8160405
92.3832379
92.506757
88.2825809
87.8680552
92.5986537
92.4488794
89.4539358
87.6653441
87.695926
92.6745138
88.4503159
87.707404
92.8277518
92.3277635
92.585009
89.4511781
87.5483191
87.5246609
92.6985701
92.3895924
88.1098636
88.0899616
92.7151463
89.189415
87.5220719
92.7132439
92.4541487
88.1018143
87.8523592
92.7446774
92.3619398
88.1320206
87.9206361
92.7543821
92.3436612
88.0740255
87.9750467
92.8549857
92.5551148
92.603351
92.8622489
88.0988317
87.9412333
87.5043104
87.4973085
92.1240218
92.5530144
92.7517154
92.5176663
92.531627
87.6948642
87.7432829
92.8784632
88.6390426
87.4800543
92.7559576
92.4652318
88.0307464
87.7781027
92.80213
92.3693157
87.9734944
87.9057854
92.883397
92.3650817
92.5773648
91.0079698
88.045502
87.9756248
87.5159768
87.4903647
92.9796543
92.52051
92.8095835
92.4909432
92.1993369
87.7755058
87.770392
92.7269405
92.5121045
89.0500633
87.5613721
87.5312667
92.69641
92.3827094
88.0542941
88.0294466
92.7367164
88.5649435
87.5329887
92.8520541
92.3549623
92.5887954
89.2819718
87.4925882
87.4762486
92.7855549
92.440445
92.5061764
92.3619458
88.9381595
88.0809219
92.571189
92.2759114
89.0095724
88.123636
87.5927352
87.5781691
92.8630509
92.359866
92.576969
90.1384724
87.6753979
87.6699251
92.7053814
89.244405
87.6844532
92.6278292
92.4863623
89.4027648
87.6888284
87.6743233
92.6913045
92.3741944
92.3872555
90.4682398
88.3144659
87.8485309
87.8442622
92.640369
89.33787
87.7676126
92.6316621
92.3853192
88.8125478
88.0768187
87.5198669
87.50941
92.9531932
92.4687831
92.6937192
92.4179905
92.4368284
90.8447333
88.2278793
87.7014549
87.674166
92.7053369
92.3949926
88.1839178
87.8928913
92.6779938
92.3532032
88.5708312
87.9891802
87.3854746
87.3669241
93.0133475
92.4816721
92.6506962
92.39786
88.257239
88.0707625
92.8007836
88.4399063
87.5423971
92.8936159
92.387856
92.6276006
88.4985107
87.7613222
92.7043776
92.3960193
88.2058873
87.9245939
92.6773975
92.35462
88.6712721
88.0483581
87.445185
87.4353673
93.0709233
92.6059405
92.7986506
92.6721862
92.5547079
92.6521298
88.2159676
87.9311114
87.6068711
87.6161853
92.7724077
92.511558
88.9615252
87.6297913
87.6082181
92.7133887
92.4364907
88.3001747
87.9093959
92.6658329
92.4741454
89.5416382
87.5659302
87.5421498
92.9040896
92.4547776
92.6681883
92.4230193
92.4748679
91.1142555
88.0934456
87.9666168
87.4707216
87.440501
92.9014929
92.4565721
87.9210881
87.7122621
92.9915853
92.3925953
92.5967895
92.3421901
89.9306832
88.1647018
87.7623078
87.7330772
92.7541884
92.4838645
88.7668739
87.4465073
87.4447386
92.8152088
92.4057842
92.5023652
88.2896258
88.10227
92.8100436
89.7154303
87.5004344
92.7067865
92.5817063
88.8281434
87.3252226
87.2975052
92.9129247
92.451084
92.6334376
92.3273425
92.3708092
89.2784706
88.1309995
87.5786711
87.5937776
92.8636289
92.365438
92.4949632
88.3585536
87.8658906
92.6537546
92.4606108
89.2138786
87.6741324
87.6493967
92.7375405
92.325186
92.4233336
89.4421933
87.9717979
87.9569726
87.4105324
87.3922164
92.9460297
92.4813589
92.5035772
87.89454
87.7695725
92.9519709
92.3813979
92.5619972
88.1573547
87.8569599
92.8801147
92.3010416
92.5281653
89.1117049
87.5978247
87.5802796
92.7054579
92.5081419
88.9084014
87.564202
87.5391395
92.7361586
92.4614266
88.2285268
87.7754824
92.6982748
92.492966
88.8034752
87.4361991
87.4221271
92.8058042
92.384468
92.5104783
88.3160436
87.8264772
92.7134529
92.3799137
88.1724786
87.9045743
92.7146237
92.3558702
88.2305876
87.9572182
92.6477444
92.3906002
89.2907953
87.7775746
87.7670827
92.6460069
92.4474858
89.2293446
87.6811589
87.649075
92.689937
92.3887219
88.2342451
87.9063805
92.6931562
92.3651348
88.2524326
87.9058795
92.6367564
92.4555946
89.0297959
87.5428023
87.5263843
92.8262631
92.4735534
92.5573856
92.4341167
90.6062997
87.9304443
87.9062782
87.2861254
87.2710657
92.9470207
92.4654818
92.6604469
92.3378057
92.3677413
89.0058446
88.0776771
87.641674
87.623202
92.828378
92.4287964
88.0029697
87.7607389
92.8371972
92.3922854
87.9277952
87.776656
92.9118137
92.3770814
92.5464928
92.3386593
89.4642574
88.0970597
87.7439498
87.7083801
92.7595343
92.365241
88.0139188
87.9725382
92.7800381
92.2604956
92.4195784
89.5159534
88.0553226
87.7402461
87.7247255
92.7030299
92.3471809
88.1566263
88.1426107
92.636619
89.2307473
87.9584774
92.6835478
88.617379
87.750654
92.7477176
92.3202908
92.4772981
89.5464179
87.9932909
87.6329438
87.6179361
92.7815474
92.409567
87.8789164
87.8098262
92.8250565
92.3348493
92.4830775
88.1259713
87.9082636
92.7636451
92.2625219
)
;

boundaryField
{
    closed
    {
        type            calculated;
        value           nonuniform List<scalar> 0();
    }
    open
    {
        type            calculated;
        value           nonuniform List<scalar> 0();
    }
    sides
    {
        type            empty;
    }
    procBoundary2to1
    {
        type            processor;
        value           uniform 88.0594561;
    }
    procBoundary2to3
    {
        type            processor;
        value           uniform 92.4955886;
    }
}


// ************************************************************************* //
