/*--------------------------------*- C++ -*----------------------------------*\
| =========                 |                                                 |
| \\      /  F ield         | OpenFOAM: The Open Source CFD Toolbox           |
|  \\    /   O peration     | Version:  2306                                  |
|   \\  /    A nd           | Website:  www.openfoam.com                      |
|    \\/     M anipulation  |                                                 |
\*---------------------------------------------------------------------------*/
FoamFile
{
    version     2.0;
    format      ascii;
    arch        "LSB;label=32;scalar=64";
    class       volScalarField;
    location    "0.00158";
    object      prefDh_H2O;
}
// * * * * * * * * * * * * * * * * * * * * * * * * * * * * * * * * * * * * * //

dimensions      [1 1 -3 0 0 0 0];

internalField   nonuniform List<scalar> 
531
(
92.3561598
88.2660673
87.7058772
87.8855545
92.4727367
92.2380984
92.3084776
88.4751603
87.9460228
88.0337834
87.8215305
87.7908118
92.5224005
92.3237828
88.0606087
88.0167528
92.5662285
92.2438178
92.3691796
88.5511388
87.8115011
87.8565096
92.4502515
92.3499262
90.4563862
87.8746672
87.8488699
87.5972758
87.579404
92.6231493
92.4021234
87.7919388
87.6592202
92.6537787
92.3695259
92.4109314
92.3361607
88.1777064
87.9414879
92.4611042
92.3098153
88.2381377
87.9928404
87.8307889
87.8527836
92.5598499
92.2704967
92.4112376
88.2731891
87.8781582
92.4960464
92.2897615
88.0903607
88.0637732
92.5483962
88.2478565
87.8764556
92.5690851
92.2504998
92.3566742
88.4181721
87.8972025
87.8338952
87.8330263
92.5813524
92.2633044
92.3614222
88.4930902
87.8291329
87.8221285
92.4247171
92.3681645
88.7020274
87.7637346
88.019144
92.5360198
88.7749596
87.7169617
92.4710573
92.4046959
88.2681835
87.7048114
87.6824588
92.5180681
92.3759067
92.3261157
92.3847622
88.4315691
87.649512
87.8055338
92.5168081
92.2748919
92.3011387
88.2351877
87.836437
87.8203102
92.4933032
92.381617
88.573571
87.7235342
87.9960248
92.5526705
88.6678086
87.715489
92.4756188
92.4089843
88.3784521
87.7697351
87.8310677
92.5217901
92.3084575
92.3158494
88.1175534
87.8276119
87.5771144
87.5700255
92.7506096
92.4452172
92.53551
92.4209617
87.8943054
87.7232532
92.8067047
92.3915743
92.668338
92.359698
92.1693938
87.9855547
87.6024791
87.5665957
92.610048
92.5023324
88.0999645
87.334936
87.4387827
92.6978862
92.4347722
92.4925938
87.9400384
87.5970923
92.7305311
92.4542933
92.4539482
92.4287996
88.2340763
87.8422886
87.6630136
87.6729707
92.7472139
92.3903513
92.5133199
88.1369372
87.2146838
87.3846587
92.7630594
92.4708555
92.5795133
92.3990265
92.4295769
88.0768828
87.6655931
87.4397835
87.4414334
92.8143706
92.4535786
92.6081071
92.3564273
92.4604452
88.2475345
87.7369478
87.6262698
87.6273152
92.7609704
92.4447164
92.4581807
92.416029
88.2551463
87.8269976
87.706329
87.7020709
92.7043233
92.3985325
92.4113603
92.3715173
88.3836664
87.903716
87.8285805
87.8153049
92.6597929
92.3617652
88.0243077
87.8595814
92.6066966
92.3675033
88.1158014
87.8539409
92.5568775
92.4249021
88.2632754
87.6483988
87.7097205
92.6280625
92.3509774
92.4676682
92.2902126
92.3387188
88.2996776
87.9153268
87.7464567
87.7429169
92.716516
92.408444
87.8739016
87.8385558
92.7743021
92.3334672
92.4936229
88.2463624
87.6541073
87.5114666
87.5125071
92.8643306
92.5167723
92.5332934
92.5220261
88.1425554
87.3825029
87.4056505
92.7001631
92.4620491
92.4950247
92.4027035
88.058328
87.9226965
92.6983657
88.13185
87.6889584
92.7363975
92.3365602
92.4978882
88.3514966
87.740389
87.6649048
87.6626646
92.7692454
92.4340866
92.4508516
92.4105645
88.3424549
87.8813871
87.7192236
87.7179521
92.7056041
92.356879
92.4816727
88.1245858
87.7299875
92.6450301
92.4095451
92.3752301
92.3887984
88.5471126
87.8550881
87.933789
87.6462749
87.6072513
92.6754489
92.3992126
88.0061576
87.7997013
92.6825811
92.3698028
87.8973857
87.8334326
92.7288837
92.3343293
92.4535846
88.0428731
87.7201824
92.6418919
92.4079546
92.3711959
92.3873367
88.5794651
87.8455416
87.9322787
87.6649994
87.6273324
92.6314579
92.3486918
88.0417188
87.9830356
92.6342203
92.2314483
92.3683018
88.6723522
87.8765032
87.9624685
87.6503864
87.618136
92.6653598
92.3535287
92.4293437
92.2892124
88.204578
88.1552057
92.5679977
89.0173484
87.760627
92.4454818
92.3691622
88.4012243
87.9423154
87.7619144
87.781636
92.6190756
92.3069664
92.4360799
88.1763354
87.9204357
92.5672271
88.1391616
87.6951006
92.6248642
92.2963158
92.4386576
88.2385911
87.763707
92.4446204
92.3965387
88.3398398
87.7744617
87.743144
92.4639343
92.343131
88.2160341
87.9196812
92.4306741
92.363848
88.4769934
87.8195822
87.7855885
92.4892051
92.3176169
88.1204281
87.9244379
92.537259
92.298492
87.9698957
87.953456
92.5830356
92.245072
92.3851806
88.3696609
87.6981808
87.6917835
92.478158
92.4307101
88.2206688
87.6149637
87.5972217
92.5204038
92.3818828
88.0339375
87.8004385
92.5682834
92.3395776
87.9873409
87.8894387
92.5560154
92.309043
87.9950171
88.0019337
92.4862421
88.7610858
87.679388
92.392069
92.4112792
88.4938054
87.7488374
87.8264455
92.4895261
92.2671066
92.3334963
88.4755371
88.1115788
92.3647956
92.2503939
89.5496021
88.1918629
87.9633004
87.9636413
92.4262803
92.3494024
88.336421
87.7694405
87.7515989
92.4161144
92.3880031
88.2467634
87.6451677
87.6400894
92.4117715
92.4135898
88.1613714
87.5093044
87.5594765
92.5360145
92.3704355
92.3704662
92.3178676
88.3815323
88.0084038
92.3638364
92.2435034
88.2369965
88.1190904
92.3367156
92.2130508
89.3125433
88.1425341
87.9358328
87.9175117
92.4146041
92.2695128
88.1562684
88.012476
92.3496672
92.2616895
88.5448172
88.0470452
87.8513327
87.8402388
92.4809915
92.3127804
87.9184253
87.9280331
92.4868105
92.2318362
92.440688
88.7303434
87.6003612
87.8169439
92.5051647
88.1301686
87.7931706
92.5112963
92.2855932
92.4573432
88.9284628
87.6395783
87.8714022
92.4981499
88.1741626
87.8118666
92.5076801
92.2885288
92.4487981
88.7067758
87.6231902
87.8392071
92.5271308
88.133463
87.7472653
92.5356312
92.3467404
92.4839665
88.2407509
87.8106832
92.4486242
92.3621882
87.9232637
87.9436118
92.5042732
92.268919
92.4604667
88.3914021
87.7734529
87.5979539
87.6022804
92.5719989
92.4124532
87.7590981
87.8016201
92.5268788
92.3114138
92.4709914
88.2185004
87.8484457
92.3807449
92.3383828
88.1415221
87.9973294
92.3452619
92.2994041
88.4565903
88.0366073
87.8200986
87.8068645
92.4677792
92.3345092
87.999714
87.873408
92.4385515
92.3024644
88.0221664
87.9252783
92.402604
92.2783347
88.120917
88.0312702
92.3253826
92.2621578
88.6446936
88.0916635
87.8842815
87.8800157
92.4005311
92.3293289
88.1172862
87.9667593
92.3105192
92.3717836
88.7270882
87.7914166
87.8142196
92.4369563
92.336555
88.0306843
87.8955688
92.5004667
)
;

boundaryField
{
    closed
    {
        type            calculated;
        value           nonuniform List<scalar> 0();
    }
    open
    {
        type            calculated;
        value           nonuniform List<scalar> 0();
    }
    sides
    {
        type            empty;
    }
    procBoundary3to2
    {
        type            processor;
        value           uniform 92.2564911;
    }
    procBoundary3to4
    {
        type            processor;
        value           uniform 92.3589845;
    }
}


// ************************************************************************* //
