/*--------------------------------*- C++ -*----------------------------------*\
| =========                 |                                                 |
| \\      /  F ield         | OpenFOAM: The Open Source CFD Toolbox           |
|  \\    /   O peration     | Version:  2306                                  |
|   \\  /    A nd           | Website:  www.openfoam.com                      |
|    \\/     M anipulation  |                                                 |
\*---------------------------------------------------------------------------*/
FoamFile
{
    version     2.0;
    format      ascii;
    arch        "LSB;label=32;scalar=64";
    class       volScalarField;
    location    "0.00158";
    object      sourcePV;
}
// * * * * * * * * * * * * * * * * * * * * * * * * * * * * * * * * * * * * * //

dimensions      [1 -3 -1 0 0 0 0];

internalField   nonuniform List<scalar> 
531
(
0.00576066112
0.128102966
0.170745873
0.155915655
0.00521519736
0.00632702018
0.00599999954
0.121410888
0.154562903
0.145358949
0.164031185
0.163099024
0.005003382
0.00592400713
0.146417467
0.148053304
0.00477890941
0.00631460928
0.00571307364
0.119387979
0.164102327
0.159928439
0.00533685389
0.00581362801
0.0644993841
0.158372678
0.159682029
0.178643268
0.178169704
0.00450293817
0.00554388372
0.164394516
0.172206044
0.00434769966
0.00569877781
0.00551398602
0.00585520069
0.135190598
0.152712619
0.0052700915
0.00599027826
0.129880508
0.150071252
0.160342818
0.159424914
0.00478671533
0.00617629469
0.00549832754
0.127956013
0.156887875
0.00510355281
0.00607853094
0.141771248
0.14341878
0.00484430029
0.129661314
0.157611011
0.00475227588
0.0062680821
0.00576291279
0.123163413
0.156367097
0.160498632
0.160640008
0.00468463788
0.00621277132
0.00573440683
0.120956594
0.161481071
0.161397701
0.00545054573
0.00571854398
0.11425256
0.167411562
0.146050989
0.00491486656
0.112033731
0.170005044
0.00522891395
0.00554650276
0.12797628
0.171579807
0.170311254
0.00500933655
0.00566663216
0.00591702333
0.00562468487
0.122765998
0.174393
0.162009572
0.00499508012
0.00615444938
0.00602106283
0.130384266
0.161487986
0.161215209
0.0051313038
0.00565250733
0.118409359
0.170476415
0.148172373
0.00483795002
0.115418194
0.170682166
0.0052134917
0.00553595841
0.124669239
0.168033983
0.16086971
0.00499772618
0.00600376341
0.00596904955
0.1404206
0.162754203
0.180486894
0.180436575
0.00390631797
0.00535813882
0.00494711951
0.00546971003
0.159058519
0.169597409
0.00366430873
0.00562140384
0.00435612616
0.0057731692
0.0223759969
0.150152438
0.182214258
0.180895407
0.00460719429
0.00508969437
0.143599686
0.198281292
0.190115113
0.00416430767
0.00541812725
0.00514012839
0.154933107
0.179729489
0.00401766399
0.00533290012
0.00534114261
0.0054540697
0.133130036
0.163922782
0.175515813
0.175286703
0.00393145334
0.00564604404
0.00504135931
0.141116175
0.207185366
0.194179071
0.00387116497
0.0052534293
0.00474610511
0.00559251784
0.00544895537
0.14486352
0.176134971
0.190955454
0.191071942
0.00361573295
0.00534061696
0.00460785522
0.00579337331
0.00529601425
0.13175305
0.170995228
0.177613594
0.177609809
0.00386188135
0.00537134826
0.00531275677
0.00550047232
0.130463672
0.163377738
0.171266356
0.171171631
0.00412363797
0.00557810331
0.00552623378
0.00570095388
0.124652582
0.156942661
0.162568429
0.162381084
0.00434043079
0.00574881851
0.148573318
0.159693309
0.00459268456
0.0057266149
0.141521001
0.1609922
0.00483242469
0.00546347968
0.129580665
0.177225516
0.170187022
0.00450254476
0.0058092222
0.0052648247
0.0060969456
0.00586703403
0.127803426
0.157648689
0.169539611
0.169303129
0.00408682838
0.00554830174
0.161251759
0.162677826
0.00380755672
0.00590724923
0.00514295425
0.132610299
0.177162144
0.186138646
0.186062039
0.00337874286
0.00503966424
0.00496775061
0.00501293425
0.13975876
0.195989075
0.192169281
0.00417286611
0.00528285501
0.00514814605
0.00556050739
0.147186125
0.155807716
0.00416064512
0.140256529
0.173775566
0.0039722178
0.00588776768
0.00511286055
0.12593606
0.170161108
0.174864725
0.174672152
0.00382106142
0.00542058306
0.00534838642
0.0055286702
0.12620704
0.160236931
0.170805795
0.170998853
0.00411252558
0.00578678628
0.00518709248
0.140570069
0.170170435
0.00440360855
0.00553861432
0.00569143469
0.00563822022
0.119275903
0.162676135
0.153306208
0.177772645
0.176699946
0.00429278375
0.00556868631
0.151972502
0.163875429
0.00424523134
0.00571537562
0.158870225
0.161440896
0.00400368497
0.0058837469
0.0053181842
0.145680843
0.170321069
0.00440498135
0.00553861228
0.00570075452
0.0056367042
0.118083584
0.162597188
0.15257195
0.175640539
0.174460966
0.00449023021
0.00580068677
0.148386848
0.149719825
0.00445817477
0.00636364275
0.00572872776
0.115268924
0.160326491
0.150598706
0.176411926
0.17505419
0.00432003545
0.00577557051
0.00544455464
0.0060780984
0.135261543
0.136621772
0.00476444154
0.104672048
0.166952807
0.00534296959
0.00571468524
0.123745704
0.154512916
0.165492336
0.16504557
0.0045009071
0.00600767256
0.00538106713
0.134910879
0.154597976
0.00474665797
0.137682278
0.170480373
0.00447136596
0.00605211886
0.00536724461
0.129563383
0.166444201
0.00533939782
0.00558218916
0.125516589
0.16658911
0.165749413
0.00526459879
0.00582470898
0.132322999
0.155145651
0.00540812088
0.0057409446
0.121185077
0.163742476
0.162433772
0.00515357463
0.00594105059
0.140814483
0.153276209
0.00490763767
0.00603811505
0.15106291
0.151513657
0.00467763758
0.00629863366
0.00562522082
0.124967773
0.171284879
0.170827393
0.00519507909
0.00542040222
0.131520592
0.178535874
0.176655206
0.00500718009
0.00564010881
0.148024361
0.162748263
0.00477123914
0.00584621946
0.151133119
0.156483067
0.00482301105
0.00599503749
0.149650805
0.148906256
0.00514218568
0.112510563
0.172716819
0.00559216665
0.00552100741
0.12080841
0.16897112
0.160826807
0.00513865506
0.00619800267
0.00587963909
0.121617181
0.141711937
0.00572076636
0.00628064061
0.0891279086
0.135189476
0.151122481
0.15131056
0.00542553926
0.00580053092
0.125753479
0.165843304
0.165473424
0.00547801927
0.00560729138
0.12941942
0.173935873
0.173911633
0.00549013301
0.00548904096
0.13487493
0.18474852
0.178453276
0.00490366669
0.00568690887
0.0057014851
0.00593524382
0.124642636
0.146745514
0.00572017138
0.0062913091
0.12985118
0.138724498
0.00584286479
0.006438782
0.0959136761
0.136515141
0.152841041
0.152385748
0.00547592869
0.00616384718
0.13576165
0.146320606
0.00578105146
0.00620802293
0.119243079
0.14479585
0.159424601
0.159209684
0.00516327042
0.00596865913
0.154267404
0.153465649
0.00511901598
0.00635864842
0.00536161633
0.11349225
0.178937238
0.161275818
0.0050519633
0.138669187
0.164935838
0.00500793347
0.00612118162
0.0052884745
0.107671964
0.176358309
0.15855572
0.00508710846
0.136432862
0.163851162
0.00503036135
0.00611001349
0.00533247371
0.114601786
0.178208891
0.161006229
0.00495658349
0.139459949
0.169454863
0.00489068011
0.00584735637
0.00515525845
0.133049505
0.164324547
0.00532525566
0.00575651893
0.154998589
0.154217807
0.00504002018
0.00619920595
0.0052772842
0.124632044
0.167507765
0.178139395
0.178307674
0.004725868
0.00551234529
0.166423648
0.164279989
0.00492230038
0.00599911795
0.0052182708
0.133215831
0.161092741
0.00563643095
0.00585997518
0.138043161
0.149644033
0.00580407865
0.00604232237
0.122353692
0.146872991
0.162618879
0.162233797
0.00522589808
0.00586498398
0.149159889
0.156811635
0.00535784038
0.00601243282
0.147168115
0.152727238
0.00552715667
0.00612750045
0.139330106
0.145633595
0.0058919181
0.00621133346
0.116207022
0.142204171
0.157081659
0.157067735
0.00553603627
0.00589740975
0.138661063
0.152549113
0.00595466559
0.00571293139
0.113360869
0.166066851
0.160979312
0.00538321938
0.00585839673
0.147814865
0.156575191
0.00505192104
)
;

boundaryField
{
    closed
    {
        type            calculated;
        value           nonuniform List<scalar> 0();
    }
    open
    {
        type            calculated;
        value           nonuniform List<scalar> 0();
    }
    sides
    {
        type            empty;
    }
    procBoundary3to2
    {
        type            processor;
        value           uniform 0;
    }
    procBoundary3to4
    {
        type            processor;
        value           uniform 0;
    }
}


// ************************************************************************* //
