/*--------------------------------*- C++ -*----------------------------------*\
| =========                 |                                                 |
| \\      /  F ield         | OpenFOAM: The Open Source CFD Toolbox           |
|  \\    /   O peration     | Version:  2306                                  |
|   \\  /    A nd           | Website:  www.openfoam.com                      |
|    \\/     M anipulation  |                                                 |
\*---------------------------------------------------------------------------*/
FoamFile
{
    version     2.0;
    format      ascii;
    arch        "LSB;label=32;scalar=64";
    class       volScalarField;
    location    "0.00102";
    object      alpha;
}
// * * * * * * * * * * * * * * * * * * * * * * * * * * * * * * * * * * * * * //

dimensions      [1 -1 -1 0 0 0 0];

internalField   nonuniform List<scalar> 
530
(
3.6860071e-05
3.53086891e-05
3.52261318e-05
3.54637647e-05
3.54173126e-05
3.57797312e-05
3.68231845e-05
3.68636704e-05
3.55836536e-05
3.55059457e-05
3.68324262e-05
3.68530156e-05
3.54730761e-05
3.54422997e-05
3.68426325e-05
3.68349803e-05
3.53440102e-05
3.50595914e-05
3.5801868e-05
3.6832253e-05
3.68253047e-05
3.68307285e-05
3.51854674e-05
3.50311756e-05
3.50848904e-05
3.52184641e-05
3.65273183e-05
3.68066374e-05
3.67803692e-05
3.6817908e-05
3.53102732e-05
3.49900319e-05
3.57159687e-05
3.68207471e-05
3.68387601e-05
3.53449679e-05
3.50973243e-05
3.57846595e-05
3.68348553e-05
3.68353161e-05
3.68295251e-05
3.53968465e-05
3.49831098e-05
3.57022716e-05
3.67897258e-05
3.68456228e-05
3.52122764e-05
3.51384729e-05
3.50199593e-05
3.52388348e-05
3.67959506e-05
3.68132951e-05
3.67924398e-05
3.68203943e-05
3.52882104e-05
3.5024371e-05
3.57498566e-05
3.68138466e-05
3.68325444e-05
3.54135809e-05
3.51733436e-05
3.57529037e-05
3.68214854e-05
3.68354087e-05
3.54332735e-05
3.51790829e-05
3.57605769e-05
3.68150785e-05
3.68385722e-05
3.54203156e-05
3.5157179e-05
3.58041317e-05
3.68112796e-05
3.68444735e-05
3.53481031e-05
3.51485027e-05
3.54335097e-05
3.54151951e-05
3.58180065e-05
3.67966507e-05
3.6848352e-05
3.5523439e-05
3.55522575e-05
3.68296268e-05
3.68328935e-05
3.6836592e-05
3.53592546e-05
3.48649901e-05
3.56809684e-05
3.68045017e-05
3.68415568e-05
3.52465552e-05
3.49656958e-05
3.58856375e-05
3.6803294e-05
3.68393622e-05
3.68104366e-05
3.68499229e-05
3.51976855e-05
3.48500257e-05
3.52899096e-05
3.552969e-05
3.67975386e-05
3.68326351e-05
3.55070208e-05
3.54024018e-05
3.67959233e-05
3.68399485e-05
3.54142981e-05
3.5345026e-05
3.68080891e-05
3.68133166e-05
3.5326149e-05
3.49444344e-05
3.57348693e-05
3.68031889e-05
3.68303681e-05
3.68169118e-05
3.5331032e-05
3.48857667e-05
3.5707697e-05
3.67978682e-05
3.68331261e-05
3.53901592e-05
3.50554585e-05
3.57130349e-05
3.67985205e-05
3.68398147e-05
3.54141935e-05
3.53543659e-05
3.67975734e-05
3.68285727e-05
3.53281849e-05
3.4925706e-05
3.56700233e-05
3.68040058e-05
3.68558553e-05
3.54185146e-05
3.53268667e-05
3.67854103e-05
3.6854108e-05
3.54497485e-05
3.5295191e-05
3.67901114e-05
3.68481485e-05
3.54576514e-05
3.53218006e-05
3.67909264e-05
3.68417464e-05
3.54763516e-05
3.5363517e-05
3.67875031e-05
3.6831024e-05
3.54543835e-05
3.53794522e-05
3.67952162e-05
3.68067147e-05
3.53347067e-05
3.49236694e-05
3.57466257e-05
3.68012709e-05
3.68259731e-05
3.68339957e-05
3.52010597e-05
3.49316293e-05
3.53732153e-05
3.53493191e-05
3.57316175e-05
3.67844771e-05
3.6862458e-05
3.56053692e-05
3.5442035e-05
3.67792829e-05
3.68515515e-05
3.55464786e-05
3.54077287e-05
3.67723528e-05
3.68359807e-05
3.54714223e-05
3.53263395e-05
3.67416418e-05
3.68221753e-05
3.50084452e-05
3.49223363e-05
3.67335458e-05
3.67769186e-05
3.67401415e-05
3.67840242e-05
3.64700561e-05
3.50387192e-05
3.48483415e-05
3.53581751e-05
3.52724494e-05
3.57436999e-05
3.679289e-05
3.68480259e-05
3.53171195e-05
3.49692657e-05
3.56944741e-05
3.68033294e-05
3.68707852e-05
3.54138724e-05
3.53628869e-05
3.67819063e-05
3.68605511e-05
3.53883759e-05
3.54623742e-05
3.68296191e-05
3.68092509e-05
3.68637937e-05
3.54816307e-05
3.52170554e-05
3.67767847e-05
3.68731823e-05
3.51302358e-05
3.57250547e-05
3.68337679e-05
3.5694676e-05
3.53812566e-05
3.67837311e-05
3.68386498e-05
3.53682871e-05
3.52131068e-05
3.55036651e-05
3.57356361e-05
3.68008486e-05
3.68452954e-05
3.54102145e-05
3.51525544e-05
3.5762619e-05
3.67896376e-05
3.68644908e-05
3.55069606e-05
3.54666872e-05
3.6789425e-05
3.68373964e-05
3.5311009e-05
3.50265691e-05
3.57314701e-05
3.67869987e-05
3.68655578e-05
3.52948248e-05
3.5070088e-05
3.58670956e-05
3.6831482e-05
3.68191036e-05
3.57787298e-05
3.49011957e-05
3.52973834e-05
3.68015903e-05
3.68977483e-05
3.54102843e-05
3.56391939e-05
3.68101656e-05
3.68393991e-05
3.68425667e-05
3.5700904e-05
3.51093197e-05
3.53810067e-05
3.537163e-05
3.5369392e-05
3.59305685e-05
3.68149088e-05
3.68119319e-05
3.68330596e-05
3.52142563e-05
3.48722985e-05
3.57427622e-05
3.67882647e-05
3.68396147e-05
3.51661115e-05
3.49281192e-05
3.58290517e-05
3.68034595e-05
3.68095396e-05
3.68287233e-05
3.51664392e-05
3.48264516e-05
3.57330259e-05
3.67798192e-05
3.68632615e-05
3.53340545e-05
3.54088365e-05
3.67997096e-05
3.68429011e-05
3.51863675e-05
3.49868567e-05
3.57519585e-05
3.67872894e-05
3.68595567e-05
3.53594817e-05
3.54400637e-05
3.6796813e-05
3.68276724e-05
3.50874946e-05
3.48461537e-05
3.58506138e-05
3.68010853e-05
3.68114681e-05
3.68336451e-05
3.50436827e-05
3.4907832e-05
3.54553599e-05
3.57253854e-05
3.6812442e-05
3.68595405e-05
3.54639117e-05
3.54600304e-05
3.68222714e-05
3.68522353e-05
3.53700704e-05
3.54005129e-05
3.68101024e-05
3.68257276e-05
3.49510413e-05
3.48869091e-05
3.63137777e-05
3.67814905e-05
3.67702722e-05
3.68181405e-05
3.54191966e-05
3.53464539e-05
3.67996668e-05
3.68232682e-05
3.51595276e-05
3.51413334e-05
3.55103592e-05
3.57891269e-05
3.67997618e-05
3.66425545e-05
3.4954452e-05
3.51328444e-05
3.68030228e-05
3.68480738e-05
3.52005231e-05
3.53637377e-05
3.67967919e-05
3.68604033e-05
3.49956563e-05
3.58122969e-05
3.6841451e-05
3.55682063e-05
3.54758574e-05
3.68104056e-05
3.68284606e-05
3.50603697e-05
3.49465874e-05
3.57784876e-05
3.67902177e-05
3.68456295e-05
3.4869587e-05
3.48520525e-05
3.61814174e-05
3.67941082e-05
3.6785336e-05
3.68326433e-05
3.53619163e-05
3.53133511e-05
3.68202386e-05
3.68313359e-05
3.53073285e-05
3.54512143e-05
3.68290904e-05
3.68315663e-05
3.49789972e-05
3.49426815e-05
3.58147577e-05
3.67912466e-05
3.68554467e-05
3.53144038e-05
3.5581837e-05
3.68025155e-05
3.68373703e-05
3.50369674e-05
3.5021611e-05
3.58617439e-05
3.67870064e-05
3.68354662e-05
3.50742193e-05
3.50648426e-05
3.58798967e-05
3.678088e-05
3.68125719e-05
3.50451327e-05
3.50400832e-05
3.62088715e-05
3.67745427e-05
3.59362726e-05
3.50385932e-05
3.5601252e-05
3.67997457e-05
3.68410434e-05
3.53009887e-05
3.5583891e-05
3.67981432e-05
3.68125188e-05
3.51050733e-05
3.51005926e-05
3.60369838e-05
3.67730284e-05
3.68140456e-05
3.51092069e-05
3.5097642e-05
3.60084784e-05
3.67796965e-05
3.68134663e-05
3.50715081e-05
3.50676194e-05
3.59647197e-05
3.67828329e-05
3.68164372e-05
3.5052198e-05
3.50490046e-05
3.59479365e-05
3.67863281e-05
3.6815685e-05
3.50237892e-05
3.50202871e-05
3.59123167e-05
3.67904589e-05
3.68219725e-05
3.50392475e-05
3.50372745e-05
3.59175922e-05
3.67937677e-05
3.68192829e-05
3.53444493e-05
3.56259603e-05
3.68080412e-05
3.68205978e-05
3.5004738e-05
3.50028341e-05
3.59158294e-05
3.6790791e-05
3.68177425e-05
3.53250468e-05
3.56313489e-05
3.68042879e-05
3.68164703e-05
3.49944654e-05
3.49947201e-05
3.59109186e-05
3.678813e-05
3.68113254e-05
3.53238763e-05
3.56468346e-05
3.68020899e-05
3.68082025e-05
3.49920826e-05
3.49879593e-05
3.59084952e-05
3.67851763e-05
3.68064705e-05
3.53170437e-05
3.56563225e-05
3.68008764e-05
3.68085095e-05
3.49621268e-05
3.49661538e-05
3.58918338e-05
3.67829512e-05
3.68076454e-05
3.52861878e-05
3.56389224e-05
3.68034669e-05
3.68002403e-05
3.49326394e-05
3.49222661e-05
3.58795101e-05
3.67903974e-05
3.68109288e-05
3.53292864e-05
3.56782211e-05
3.68184261e-05
3.67978125e-05
3.53632861e-05
3.56676636e-05
3.68258216e-05
3.67856424e-05
3.53182322e-05
3.56395467e-05
3.68205131e-05
3.67847016e-05
3.49612604e-05
3.49541941e-05
3.59151084e-05
3.67755376e-05
3.68005502e-05
3.54004897e-05
3.57549192e-05
3.67950695e-05
3.67805564e-05
3.53697379e-05
3.57202083e-05
3.67902879e-05
3.67612889e-05
3.45503792e-05
3.45297713e-05
3.57337049e-05
3.67886483e-05
3.67876493e-05
3.52508186e-05
3.56909021e-05
3.68064451e-05
3.67857033e-05
3.5384252e-05
3.57141454e-05
3.68396263e-05
3.67968803e-05
3.5444006e-05
3.58061925e-05
3.6871205e-05
3.67695128e-05
3.56469808e-05
3.47747451e-05
3.56579094e-05
3.6798086e-05
3.68381209e-05
3.52219272e-05
3.57395601e-05
3.6781362e-05
3.67796146e-05
3.68021161e-05
3.48764789e-05
3.48732528e-05
3.58946169e-05
3.6777818e-05
3.67969273e-05
3.4989431e-05
3.49904833e-05
)
;

boundaryField
{
    closed
    {
        type            calculated;
        value           nonuniform List<scalar> 0();
    }
    open
    {
        type            calculated;
        value           nonuniform List<scalar> 0();
    }
    sides
    {
        type            empty;
    }
    procBoundary2to1
    {
        type            processor;
        value           uniform 3.68332578e-05;
    }
    procBoundary2to3
    {
        type            processor;
        value           uniform 3.59090383e-05;
    }
}


// ************************************************************************* //
