/*--------------------------------*- C++ -*----------------------------------*\
| =========                 |                                                 |
| \\      /  F ield         | OpenFOAM: The Open Source CFD Toolbox           |
|  \\    /   O peration     | Version:  2306                                  |
|   \\  /    A nd           | Website:  www.openfoam.com                      |
|    \\/     M anipulation  |                                                 |
\*---------------------------------------------------------------------------*/
FoamFile
{
    version     2.0;
    format      ascii;
    arch        "LSB;label=32;scalar=64";
    class       volScalarField;
    location    "0.00102";
    object      H2;
}
// * * * * * * * * * * * * * * * * * * * * * * * * * * * * * * * * * * * * * //

dimensions      [0 0 0 0 0 0 0];

internalField   nonuniform List<scalar> 
530
(
0.0109975619
0.0106644632
0.0106568894
0.0106743835
0.0106721012
0.010775306
0.0110028845
0.0109942955
0.0106849821
0.0106749968
0.0110070601
0.0109985012
0.0106763962
0.0106728461
0.0110094522
0.0110072925
0.010664958
0.0106481372
0.0107831375
0.0110161084
0.0110044647
0.0110119049
0.0106590255
0.0106472368
0.0106569013
0.010661107
0.0110265686
0.0110142478
0.0110286138
0.0110158532
0.0106661705
0.0106457467
0.0107155615
0.0110175429
0.0110012248
0.0106675172
0.0106499867
0.0107698567
0.0110167707
0.0109991306
0.0110119371
0.0106682095
0.0106464564
0.0107154837
0.0110240107
0.0110003363
0.0106651227
0.010652794
0.0106538265
0.0106618893
0.0110378283
0.0110130476
0.0110289648
0.0110151955
0.0106662551
0.0106482378
0.0107410842
0.0110174869
0.0110015794
0.0106720053
0.0106567438
0.0107509055
0.0110145016
0.0110017945
0.0106725738
0.0106575566
0.0107583513
0.0110155309
0.0110022975
0.0106721421
0.0106558358
0.0107847444
0.0110168812
0.0110041132
0.0106682684
0.0106544778
0.0106741208
0.0106752326
0.010792411
0.011010776
0.0109970645
0.0106821938
0.0106820766
0.0110199892
0.0110023759
0.0110127857
0.010665378
0.010637748
0.0106893158
0.0110285633
0.0110048203
0.0106623321
0.0106420765
0.0108202024
0.0110241725
0.0110212048
0.0110195194
0.0110270842
0.0106578489
0.0106351525
0.0106678388
0.0106829775
0.0110183137
0.0110016616
0.0106817414
0.0106705465
0.0110274849
0.0110051507
0.0106747036
0.0106685734
0.0110289919
0.0110134421
0.0106648291
0.0106442464
0.0107336989
0.0110283512
0.0110006551
0.0110122711
0.0106640835
0.0106407132
0.0107053692
0.0110278068
0.0110043477
0.010671115
0.0106504006
0.0107015656
0.0110254384
0.010999297
0.0106756127
0.0106681738
0.0110328779
0.0110125532
0.0106644273
0.0106414542
0.0106882628
0.0110280064
0.010998881
0.0106754024
0.01066383
0.0110344334
0.0110061575
0.0106772975
0.0106625528
0.0110353838
0.0110074289
0.0106775387
0.0106653031
0.0110347567
0.0110073216
0.0106790776
0.0106691418
0.0110344897
0.0110075816
0.0106777237
0.0106724434
0.0110350036
0.0110145229
0.0106654517
0.0106436373
0.0107437024
0.0110319691
0.0110039696
0.0110110714
0.01065628
0.0106418347
0.0106695171
0.0106730407
0.0107391514
0.0110169586
0.0109976175
0.0106887455
0.0106721715
0.0110316565
0.0110043356
0.0106846884
0.0106717766
0.0110339585
0.0110079541
0.0106817567
0.0106681197
0.0110443421
0.0110163766
0.0106536922
0.0106423104
0.0110725307
0.0110241543
0.0110529204
0.0110232785
0.0110113573
0.0106487546
0.0106403718
0.0106709396
0.0106689704
0.0107395487
0.0110216249
0.0110054836
0.0106641799
0.0106427685
0.0107043802
0.011025368
0.0109977955
0.0106744735
0.010665466
0.0110299517
0.0110029805
0.0106721457
0.0106769829
0.0110273622
0.0110049315
0.0110167718
0.0106790133
0.0106555245
0.0110380707
0.0110015466
0.0106535913
0.0107331228
0.0110210747
0.0106917322
0.0106715909
0.0110284809
0.0110107668
0.0106699654
0.010659314
0.0106818992
0.01072827
0.0110141269
0.0110039394
0.0106704755
0.0106560823
0.0107630461
0.0110180788
0.0109993733
0.0106820118
0.0106757414
0.0110247398
0.0110106472
0.010664305
0.0106487466
0.0107362868
0.0110247624
0.0110049431
0.0106663585
0.0106467563
0.0108090166
0.0110081655
0.0110079712
0.010774158
0.0106395789
0.0106586476
0.0110257827
0.0109987359
0.0106737423
0.0106844348
0.0110180006
0.0109919088
0.0110075299
0.0107086656
0.0106528786
0.0106692334
0.010672445
0.0106706952
0.0108371472
0.0110187034
0.0110096027
0.0110209933
0.0106577752
0.0106387678
0.0107384166
0.011026171
0.0110073561
0.0106576864
0.0106413476
0.0107878344
0.0110301263
0.0110066958
0.0110239702
0.0106542706
0.0106364087
0.0107369701
0.0110243312
0.0109996066
0.0106714171
0.0106714555
0.011020255
0.0110120272
0.0106564836
0.0106454433
0.0107503016
0.0110200689
0.0110006342
0.0106731683
0.0106750453
0.0110202826
0.0110148819
0.0106508302
0.0106371487
0.0108016247
0.0110325237
0.0110089951
0.011029058
0.0106471598
0.0106392441
0.010678065
0.0107101524
0.0110076918
0.0110014841
0.0106758824
0.0106753098
0.0110094922
0.0110084067
0.0106697424
0.0106737057
0.0110169897
0.0110176179
0.0106437814
0.0106412339
0.0109660875
0.011030279
0.0110200518
0.0110269578
0.0106773515
0.010673124
0.0110142983
0.0110184515
0.0106570615
0.0106577146
0.0106835229
0.0107399017
0.0110132019
0.0110577602
0.0106425912
0.0106580691
0.0110184285
0.0110171347
0.0106619738
0.010669746
0.0110182503
0.0110096561
0.0106462891
0.0107816858
0.011018152
0.0106862867
0.0106798535
0.0110105468
0.0110184894
0.0106489044
0.0106442893
0.0107618996
0.0110228875
0.0110161893
0.0106402751
0.0106370369
0.01092556
0.0110317435
0.0110141246
0.0110329165
0.0106717579
0.0106702122
0.0110069509
0.011024236
0.0106658175
0.0106783375
0.0110126508
0.0110238374
0.01064233
0.0106435857
0.0107859035
0.0110167694
0.011015565
0.010671002
0.0106848492
0.0110154082
0.0110214443
0.0106493439
0.0106491956
0.0108059054
0.0110196582
0.0110217172
0.0106543941
0.0106527216
0.0108109313
0.0110199052
0.0110319386
0.0106533069
0.0106520596
0.0109342575
0.0110241362
0.0108416763
0.0106525305
0.010685139
0.0110163895
0.0110268813
0.0106693316
0.0106879962
0.0110147742
0.0110343989
0.0106555602
0.0106568591
0.0108767582
0.0110196688
0.0110373857
0.0106579662
0.0106559883
0.0108656339
0.0110193483
0.0110368185
0.0106545071
0.0106538074
0.0108488363
0.0110200148
0.0110370505
0.0106529272
0.0106522395
0.010842013
0.0110204872
0.011038109
0.0106504438
0.010650061
0.0108270573
0.0110206618
0.0110392693
0.0106512902
0.0106505669
0.0108290591
0.0110155041
0.0110372794
0.0106722599
0.0106908251
0.0110152186
0.011042802
0.0106470705
0.0106487348
0.010829284
0.0110171113
0.0110403116
0.010671453
0.0106914667
0.0110162467
0.0110458451
0.0106468681
0.0106487345
0.0108263493
0.0110178206
0.0110429897
0.0106717039
0.0106932911
0.011016779
0.0110498964
0.0106469564
0.0106489969
0.0108246945
0.0110186519
0.0110456507
0.0106715252
0.0106944305
0.0110175043
0.0110511557
0.010645143
0.0106479656
0.0108167784
0.0110192403
0.0110489674
0.0106692948
0.010693247
0.0110184992
0.011058053
0.0106424174
0.0106445555
0.0108112458
0.0110178977
0.0110505952
0.0106705613
0.0106962369
0.0110102028
0.0110546441
0.0106703909
0.0106974421
0.0110093276
0.0110584119
0.0106674115
0.010696456
0.0110157402
0.0110637929
0.0106438204
0.0106488722
0.0108273688
0.0110182755
0.0110541359
0.010677678
0.0107031587
0.0110121722
0.0110581664
0.0106751343
0.0107034213
0.0110232772
0.0110688384
0.0106177893
0.0106214882
0.010699138
0.0110269788
0.0110615025
0.0106667161
0.0106999225
0.0110126879
0.0110609155
0.0106722834
0.0107004658
0.0110063987
0.0110561431
0.010671558
0.0107529189
0.0109962801
0.0110364529
0.0106825215
0.010635999
0.010686195
0.011024616
0.0110550213
0.0106660071
0.0107000568
0.0110228694
0.0110145068
0.0110684007
0.0106416635
0.0106427831
0.0108149229
0.0110246905
0.0110622351
0.0106492028
0.0106509733
)
;

boundaryField
{
    closed
    {
        type            calculated;
        value           nonuniform List<scalar> 0();
    }
    open
    {
        type            calculated;
        value           nonuniform List<scalar> 0();
    }
    sides
    {
        type            empty;
    }
    procBoundary2to1
    {
        type            processor;
        value           uniform 0.0110133997;
    }
    procBoundary2to3
    {
        type            processor;
        value           uniform 0.0108225257;
    }
}


// ************************************************************************* //
