/*--------------------------------*- C++ -*----------------------------------*\
| =========                 |                                                 |
| \\      /  F ield         | OpenFOAM: The Open Source CFD Toolbox           |
|  \\    /   O peration     | Version:  2306                                  |
|   \\  /    A nd           | Website:  www.openfoam.com                      |
|    \\/     M anipulation  |                                                 |
\*---------------------------------------------------------------------------*/
FoamFile
{
    version     2.0;
    format      ascii;
    arch        "LSB;label=32;scalar=64";
    class       volScalarField;
    location    "0.00102";
    object      mu;
}
// * * * * * * * * * * * * * * * * * * * * * * * * * * * * * * * * * * * * * //

dimensions      [1 -1 -1 0 0 0 0];

internalField   nonuniform List<scalar> 
530
(
2.03190646e-05
1.95469601e-05
1.95032602e-05
1.96303464e-05
1.96051624e-05
1.97765562e-05
2.02963471e-05
2.03221523e-05
1.9693969e-05
1.96536447e-05
2.03002918e-05
2.03147442e-05
1.96349364e-05
1.96188515e-05
2.03053521e-05
2.03016742e-05
1.95664736e-05
1.94131827e-05
1.97865802e-05
2.02973232e-05
2.02970547e-05
2.02977874e-05
1.94799883e-05
1.93976371e-05
1.94246339e-05
1.9497735e-05
2.01207985e-05
2.02833101e-05
2.02637774e-05
2.02892259e-05
1.95473348e-05
1.93751845e-05
1.97585839e-05
2.02903084e-05
2.03057531e-05
1.95662483e-05
1.94336298e-05
1.97808619e-05
2.02985967e-05
2.03044536e-05
2.02970911e-05
1.95949203e-05
1.93711177e-05
1.97509766e-05
2.02705719e-05
2.03099474e-05
1.94930911e-05
1.94556925e-05
1.93894103e-05
1.95088414e-05
2.02697343e-05
2.02874862e-05
2.02705467e-05
2.0290852e-05
1.95350278e-05
1.93935485e-05
1.97699203e-05
2.02863923e-05
2.0302097e-05
1.96031135e-05
1.94739213e-05
1.97687358e-05
2.02916941e-05
2.03036618e-05
1.96139075e-05
1.94768732e-05
1.97708287e-05
2.02877151e-05
2.03053059e-05
1.9606822e-05
1.94651949e-05
1.97873745e-05
2.0285121e-05
2.03080947e-05
1.95677708e-05
1.94607716e-05
1.96135822e-05
1.96030578e-05
1.97928722e-05
2.02787184e-05
2.03125406e-05
1.96612658e-05
1.96773437e-05
2.02945947e-05
2.03020435e-05
2.03008509e-05
1.95748342e-05
1.93080017e-05
1.9746875e-05
2.02775501e-05
2.03062076e-05
1.95130072e-05
1.93627448e-05
1.98224301e-05
2.02782551e-05
2.02997596e-05
2.02838034e-05
2.03039154e-05
1.94871408e-05
1.93004587e-05
1.95355025e-05
1.96645152e-05
2.02768333e-05
2.03021226e-05
1.96522584e-05
1.95973219e-05
2.02730022e-05
2.03051859e-05
1.96027149e-05
1.95659674e-05
2.02794592e-05
2.02873733e-05
1.95565701e-05
1.93502564e-05
1.97637526e-05
2.02768691e-05
2.03011493e-05
2.02897943e-05
1.95595091e-05
1.93186686e-05
1.97569967e-05
2.02740087e-05
2.03015509e-05
1.95903388e-05
1.94102027e-05
1.97611033e-05
2.02751322e-05
2.03069655e-05
1.96023877e-05
1.9571285e-05
2.0272231e-05
2.02963527e-05
1.95578225e-05
1.93406749e-05
1.97410895e-05
2.02774442e-05
2.03162429e-05
1.96048556e-05
1.95572659e-05
2.02648036e-05
2.03129396e-05
1.9621684e-05
1.9540014e-05
2.02671817e-05
2.03091386e-05
1.96260125e-05
1.95540091e-05
2.02678454e-05
2.03055225e-05
1.96359692e-05
1.95760922e-05
2.02659787e-05
2.0299327e-05
1.96241386e-05
1.95839849e-05
2.02702125e-05
2.02832669e-05
1.95611489e-05
1.9338882e-05
1.97673538e-05
2.02746274e-05
2.02975928e-05
2.02999144e-05
1.9489487e-05
1.9343857e-05
1.95813797e-05
1.95670316e-05
1.97603405e-05
2.02698177e-05
2.0320408e-05
1.97049548e-05
1.96189031e-05
2.02621923e-05
2.03120597e-05
1.96733588e-05
1.95999234e-05
2.02575113e-05
2.03020348e-05
1.96324338e-05
1.95556997e-05
2.02367091e-05
2.02914926e-05
1.93830406e-05
1.93385408e-05
2.02231368e-05
2.02632259e-05
2.02331289e-05
2.02675542e-05
2.00931265e-05
1.94013797e-05
1.92979403e-05
1.95725856e-05
1.95254446e-05
1.97669458e-05
2.02731327e-05
2.03096856e-05
1.95517367e-05
1.93645232e-05
1.97499201e-05
2.02778959e-05
2.03250996e-05
1.9602546e-05
1.95768299e-05
2.02642289e-05
2.03176206e-05
1.9589041e-05
1.96288058e-05
2.02922509e-05
2.02877548e-05
2.0315096e-05
1.96389271e-05
1.9498615e-05
2.02587319e-05
2.03252774e-05
1.94508691e-05
1.97584597e-05
2.02966113e-05
1.97538009e-05
1.9585242e-05
2.0265736e-05
2.03026645e-05
1.95785036e-05
1.94952877e-05
1.96503436e-05
1.97657805e-05
2.02800484e-05
2.03086184e-05
1.96016916e-05
1.9462547e-05
1.97705996e-05
2.02724039e-05
2.03210105e-05
1.96521452e-05
1.96315729e-05
2.0270169e-05
2.03019878e-05
1.95482983e-05
1.9394619e-05
1.97610995e-05
2.02687788e-05
2.03198531e-05
1.95386792e-05
1.94194391e-05
1.98153233e-05
2.02994029e-05
2.02924076e-05
1.97763308e-05
1.93275993e-05
1.95423931e-05
2.02767729e-05
2.03401766e-05
1.96007647e-05
1.97250463e-05
2.02841308e-05
2.03090705e-05
2.03059242e-05
1.97522329e-05
1.94394401e-05
1.95858008e-05
1.95796297e-05
1.95789024e-05
1.98425127e-05
2.02866119e-05
2.02878017e-05
2.02962333e-05
1.94963865e-05
1.93117608e-05
1.97667569e-05
2.02690534e-05
2.03042963e-05
1.94696138e-05
1.93420503e-05
1.98002998e-05
2.027646e-05
2.02873598e-05
2.02928165e-05
1.9470817e-05
1.92869576e-05
1.97617644e-05
2.02648232e-05
2.03202356e-05
1.95590153e-05
1.9600635e-05
2.0277455e-05
2.03046885e-05
1.94812485e-05
1.93735085e-05
1.97683869e-05
2.02704339e-05
2.03177975e-05
1.95726518e-05
1.96169576e-05
2.0275795e-05
2.02951007e-05
1.94279058e-05
1.92976992e-05
1.98083003e-05
2.02743455e-05
2.028773e-05
2.02940081e-05
1.94046215e-05
1.93313941e-05
1.96245814e-05
1.97654365e-05
2.02886985e-05
2.03175188e-05
1.96299863e-05
1.96279946e-05
2.02937311e-05
2.03111587e-05
1.95795624e-05
1.95953358e-05
2.02844155e-05
2.02931241e-05
1.93540743e-05
1.9319147e-05
2.00189523e-05
2.0263888e-05
2.02607394e-05
2.0285835e-05
1.96046585e-05
1.95654116e-05
2.02793204e-05
2.02914575e-05
1.94661357e-05
1.94558121e-05
1.9653592e-05
1.97921346e-05
2.02797224e-05
2.01762155e-05
1.93563316e-05
1.94509801e-05
2.02799232e-05
2.03060177e-05
1.94874887e-05
1.95760361e-05
2.02764278e-05
2.03154197e-05
1.93781518e-05
1.97927792e-05
2.0301919e-05
1.96849859e-05
1.96354651e-05
2.02866322e-05
2.02944057e-05
1.94133857e-05
1.93514419e-05
1.97797461e-05
2.02712087e-05
2.0304924e-05
1.93097954e-05
1.93010162e-05
1.99567453e-05
2.02706157e-05
2.02712065e-05
2.02922122e-05
1.95744257e-05
1.9547847e-05
2.02933782e-05
2.02942217e-05
1.95458005e-05
1.96221928e-05
2.02966169e-05
2.02944795e-05
1.93700716e-05
1.93494801e-05
1.97929308e-05
2.02737366e-05
2.03107195e-05
1.95481982e-05
1.96929967e-05
2.02805922e-05
2.02985479e-05
1.94002275e-05
1.93917241e-05
1.98132437e-05
2.02704029e-05
2.02973757e-05
1.94194464e-05
1.94147291e-05
1.98218594e-05
2.02668324e-05
2.02810795e-05
1.9403581e-05
1.94011452e-05
1.99695508e-05
2.02618774e-05
1.98444237e-05
1.94001741e-05
1.970372e-05
2.0278702e-05
2.0298917e-05
1.95412263e-05
1.96932164e-05
2.02783009e-05
2.02802683e-05
1.94362724e-05
1.94333883e-05
1.98903091e-05
2.0262432e-05
2.02801905e-05
1.94378517e-05
1.9432007e-05
1.9877617e-05
2.02663345e-05
2.02800404e-05
1.94179032e-05
1.94159486e-05
1.98581065e-05
2.02679108e-05
2.02816605e-05
1.94076284e-05
1.94060574e-05
1.98507347e-05
2.02697532e-05
2.02808956e-05
1.9392561e-05
1.93907268e-05
1.98352374e-05
2.02720525e-05
2.02841118e-05
1.94009115e-05
1.94000307e-05
1.98375902e-05
2.02755751e-05
2.02832102e-05
1.95645522e-05
1.97158095e-05
2.02838024e-05
2.02822064e-05
1.93829716e-05
1.93814107e-05
1.98365568e-05
2.02733684e-05
2.02813693e-05
1.95539896e-05
1.97186218e-05
2.02813366e-05
2.02788869e-05
1.93773145e-05
1.93768941e-05
1.98346631e-05
2.02716265e-05
2.02768604e-05
1.95532633e-05
1.97267095e-05
2.02799147e-05
2.02728867e-05
1.93759616e-05
1.93730515e-05
1.98337871e-05
2.02696791e-05
2.02732476e-05
1.95495124e-05
1.97316587e-05
2.02789928e-05
2.02726617e-05
1.9359834e-05
1.93612241e-05
1.98268066e-05
2.0268224e-05
2.02728641e-05
1.95329969e-05
1.97223168e-05
2.02801539e-05
2.02657564e-05
1.93442433e-05
1.93378234e-05
1.98215566e-05
2.02728945e-05
2.0274219e-05
1.9556615e-05
1.97433234e-05
2.02913136e-05
2.02654553e-05
1.95755936e-05
1.97370916e-05
2.02958073e-05
2.02573203e-05
1.95513968e-05
1.97217232e-05
2.02907469e-05
2.02550741e-05
1.93597505e-05
1.93542927e-05
1.98366899e-05
2.02643043e-05
2.02671775e-05
1.95941462e-05
1.97840101e-05
2.02773742e-05
2.0254499e-05
1.95777786e-05
1.9764603e-05
2.02711251e-05
2.02401241e-05
1.91389883e-05
1.9126387e-05
1.97733702e-05
2.02690157e-05
2.02574823e-05
1.95140737e-05
1.97493061e-05
2.02836953e-05
2.02565595e-05
1.95867044e-05
1.97620909e-05
2.03046065e-05
2.02644476e-05
1.96201811e-05
1.97977903e-05
2.03258193e-05
2.02551005e-05
1.9729936e-05
1.92583022e-05
1.97349372e-05
2.02751455e-05
2.02883168e-05
1.94982001e-05
1.97763624e-05
2.02661665e-05
2.02678239e-05
2.02635377e-05
1.93132112e-05
1.93110764e-05
1.98288685e-05
2.02635684e-05
2.02625388e-05
1.93738087e-05
1.93738607e-05
)
;

boundaryField
{
    closed
    {
        type            calculated;
        value           nonuniform List<scalar> 0();
    }
    open
    {
        type            calculated;
        value           nonuniform List<scalar> 0();
    }
    sides
    {
        type            empty;
    }
    procBoundary2to1
    {
        type            processor;
        value           uniform 2.02987553e-05;
    }
    procBoundary2to3
    {
        type            processor;
        value           uniform 1.98346932e-05;
    }
}


// ************************************************************************* //
