/*--------------------------------*- C++ -*----------------------------------*\
| =========                 |                                                 |
| \\      /  F ield         | OpenFOAM: The Open Source CFD Toolbox           |
|  \\    /   O peration     | Version:  2306                                  |
|   \\  /    A nd           | Website:  www.openfoam.com                      |
|    \\/     M anipulation  |                                                 |
\*---------------------------------------------------------------------------*/
FoamFile
{
    version     2.0;
    format      ascii;
    arch        "LSB;label=32;scalar=64";
    class       surfaceScalarField;
    location    "0.00078";
    object      phi;
}
// * * * * * * * * * * * * * * * * * * * * * * * * * * * * * * * * * * * * * //

dimensions      [1 0 -1 0 0 0 0];

oriented        oriented;

internalField   nonuniform List<scalar> 
530
(
-4.0193798e-07
-3.97002195e-07
-3.81952487e-07
-3.63523042e-07
-3.59813461e-07
-3.45456497e-07
-3.40912287e-07
-3.25228164e-07
-3.00698814e-07
-2.96492903e-07
-2.84635795e-07
-2.83651031e-07
-2.77897355e-07
-2.72086804e-07
-2.63706446e-07
-2.57769238e-07
-2.55001274e-07
-2.44819737e-07
-2.47839755e-07
-2.57343092e-07
-2.5920841e-07
-2.3265079e-07
-2.22975771e-07
-2.159803e-07
-2.08836544e-07
-1.92022806e-07
-1.78809241e-07
-1.73816336e-07
-1.62922061e-07
-1.57290915e-07
-1.35647868e-07
-1.13665083e-07
-1.42485717e-07
-1.32239988e-07
-1.25664701e-07
-1.24158765e-07
-1.25210291e-07
-1.18261417e-07
-1.10180295e-07
-1.09765479e-07
-1.24397327e-07
-1.14035235e-07
-1.05680265e-07
-9.64408568e-08
-6.23910123e-08
-5.12036671e-08
-8.92250395e-08
-8.22281898e-08
-7.58025375e-08
-5.44843102e-08
-3.51499417e-08
-7.28050293e-08
-6.59863779e-08
-5.70545767e-08
-5.57367893e-08
-7.01130985e-08
-6.64541327e-08
-5.63459314e-08
-5.56548488e-08
-8.56354389e-08
-8.16333773e-08
-6.81762764e-08
-6.19003135e-08
-4.96755945e-08
-5.25668316e-08
-5.4276809e-08
-4.85376666e-08
-4.07869203e-08
-1.48289891e-08
-1.26823931e-09
-4.53685127e-08
-4.12983223e-08
-2.96693403e-08
-3.31579167e-08
-5.27029922e-08
-5.1378766e-08
-3.89205901e-08
-4.40332997e-08
-6.97263412e-08
-6.42241324e-08
-6.12945356e-08
-5.32476513e-08
-2.18073272e-08
-2.44115703e-08
-3.13394492e-08
-2.82888705e-08
-1.58083921e-08
-6.27166333e-09
-2.52152313e-09
2.56321296e-09
-4.63883138e-09
-7.44531874e-09
-3.82066116e-09
-3.69400994e-09
7.81527613e-09
1.50736576e-08
-2.80640869e-08
-2.76482037e-08
-2.09692104e-08
7.15376042e-09
8.46453612e-09
-3.03052608e-09
-3.77922145e-09
1.03384716e-08
1.07229314e-09
-3.78531301e-08
-3.9319872e-08
-3.39524539e-08
-1.21677008e-08
-1.04014022e-08
-6.54988882e-08
-7.03683502e-08
-5.93328681e-08
-7.50678421e-08
-1.14849059e-07
-1.18877085e-07
-1.05064186e-07
-1.31130437e-07
-1.47867576e-07
-1.42126854e-07
-1.43616721e-07
-1.17400778e-07
-1.04959076e-07
-1.35733603e-07
-1.48939377e-07
-1.54794286e-07
-1.50999838e-07
-1.41318577e-07
-1.43701945e-07
-1.53273816e-07
-1.53541363e-07
-1.49007528e-07
-1.33445428e-07
-1.25540835e-07
-1.7401157e-07
-1.78809114e-07
-1.66364562e-07
-1.79380135e-07
-2.17590193e-07
-2.23403491e-07
-2.12201973e-07
-2.15724647e-07
-2.50147897e-07
-2.56698461e-07
-2.47033809e-07
-2.58147552e-07
-2.95231435e-07
-3.01435227e-07
-3.00668664e-07
-3.01030256e-07
-3.08966902e-07
-3.27097529e-07
-3.33004475e-07
-3.22891582e-07
-3.34377872e-07
-3.3946307e-07
-3.48668528e-07
-3.56697778e-07
-3.63030975e-07
-3.54463116e-07
-3.6356386e-07
-3.7307418e-07
-3.73714863e-07
-3.81273193e-07
-4.03269345e-07
-4.11288921e-07
-4.02891331e-07
-4.09054824e-07
-4.35822979e-07
-4.4220556e-07
-4.41150728e-07
-4.43554197e-07
-4.50109759e-07
-4.6139793e-07
-4.67620448e-07
-4.66468056e-07
-4.71356358e-07
-4.72449851e-07
-4.80292306e-07
-4.8617899e-07
-4.78480569e-07
-4.89509967e-07
-5.07461283e-07
-5.13133598e-07
-5.1261564e-07
-5.14430646e-07
-5.15275155e-07
-5.21572109e-07
-5.26920527e-07
-5.18861861e-07
-5.28177284e-07
-5.41485513e-07
-5.46267656e-07
-5.44702237e-07
-5.49699875e-07
-5.51565636e-07
-5.5726286e-07
-5.61840739e-07
-5.60352214e-07
-5.68714279e-07
-5.64029077e-07
-5.75332585e-07
-5.79084567e-07
-5.71573441e-07
-5.74870106e-07
-5.8597609e-07
-5.8899612e-07
-5.83363451e-07
-5.8346629e-07
-5.88008884e-07
-5.94564225e-07
-6.01540745e-07
-6.04428228e-07
-5.96344569e-07
-5.97949299e-07
-6.00606188e-07
-6.03854465e-07
-6.0054067e-07
-6.04627668e-07
-5.99943051e-07
-6.01964707e-07
-6.05579214e-07
-6.01776905e-07
-6.06917515e-07
-5.99307235e-07
-6.00731532e-07
-6.02311483e-07
-5.9798301e-07
-6.0499517e-07
-5.95890539e-07
-5.95498298e-07
-5.97407984e-07
-5.87496474e-07
-5.88850424e-07
-5.87761841e-07
-5.88112402e-07
-5.82956054e-07
-5.90640473e-07
-5.84815246e-07
-5.84131661e-07
-5.85096042e-07
-5.79283013e-07
-5.83752217e-07
-5.72882736e-07
-5.85395208e-07
-5.8494495e-07
-5.72934258e-07
-5.75628553e-07
-5.70938141e-07
-5.69537489e-07
-5.60576692e-07
-5.60847822e-07
-5.64878269e-07
-5.63068966e-07
-5.51581486e-07
-5.55796451e-07
-5.65691895e-07
-5.6198111e-07
-5.50997468e-07
-5.41770922e-07
-5.28280937e-07
-5.26152502e-07
-5.16310667e-07
-5.1578926e-07
-5.21078512e-07
-5.1692616e-07
-5.10865612e-07
-5.15130541e-07
-5.08608599e-07
-5.07447032e-07
-5.06381747e-07
-5.00995751e-07
-5.00417225e-07
-4.84996504e-07
-4.93906973e-07
-4.924293e-07
-4.84398173e-07
-4.82702951e-07
-4.72964724e-07
-4.69280883e-07
-4.61733053e-07
-4.63861392e-07
-4.63965605e-07
-4.60819338e-07
-4.54509008e-07
-4.48167133e-07
-4.38821296e-07
-4.37312992e-07
-4.36795211e-07
-4.33420163e-07
-4.24749272e-07
-4.11039408e-07
-4.03133121e-07
-4.0119006e-07
-3.97880071e-07
-3.94409313e-07
-3.85442181e-07
-3.82362438e-07
-3.70310595e-07
-3.62621944e-07
-3.65608362e-07
-3.62823106e-07
-3.58433876e-07
-3.59241155e-07
-3.56896342e-07
-3.52619418e-07
-3.46985766e-07
-3.4883219e-07
-3.36256038e-07
-3.34459808e-07
-3.37483362e-07
-3.33686831e-07
-3.26016029e-07
-3.00838035e-07
-3.18599388e-07
-3.11924182e-07
-3.10406465e-07
-3.14701704e-07
-3.0929777e-07
-3.03489183e-07
-2.98689926e-07
-2.93158506e-07
-2.76150241e-07
-2.75298787e-07
-2.67459457e-07
-2.64152409e-07
-2.60844379e-07
-2.41293405e-07
-2.40465772e-07
-2.31155124e-07
-2.28134637e-07
-2.23662128e-07
-2.03860582e-07
-2.02812256e-07
-1.92631973e-07
-1.89278751e-07
-1.83892828e-07
-1.63559317e-07
-1.61658735e-07
-1.50295586e-07
-1.46820915e-07
-1.40848809e-07
-1.19558284e-07
-1.17123114e-07
-1.04476459e-07
-1.0039969e-07
-9.49873317e-08
-7.45986055e-08
-7.20961427e-08
-5.8184245e-08
-5.29067112e-08
-4.67168788e-08
-2.73643557e-08
-2.375609e-08
-8.63453819e-09
-2.60174189e-09
6.36433287e-09
2.90390117e-08
3.44988723e-08
5.15441412e-08
5.72640256e-08
6.79002314e-08
9.11623785e-08
9.70400377e-08
1.15913857e-07
1.21292002e-07
1.31046505e-07
1.54288335e-07
1.36147051e-07
1.53910508e-07
1.58818604e-07
1.37057133e-07
1.35543689e-07
1.60226655e-07
1.69626697e-07
1.87282923e-07
2.00943123e-07
2.05511024e-07
2.23860716e-07
2.38255765e-07
2.43520009e-07
2.80584281e-07
3.05082909e-07
3.30398693e-07
3.28071647e-07
3.29655933e-07
3.58281675e-07
3.66596109e-07
3.78523718e-07
3.74970442e-07
3.81767285e-07
4.17691041e-07
4.28005182e-07
4.00270482e-07
3.92141338e-07
4.30468201e-07
4.41064557e-07
4.61522602e-07
4.7859878e-07
4.54884319e-07
4.80752158e-07
4.86678853e-07
4.6760828e-07
4.65831379e-07
5.07132231e-07
5.18091371e-07
5.41378061e-07
5.58094519e-07
5.3554158e-07
5.63256413e-07
5.7179963e-07
5.57621807e-07
5.67156737e-07
6.11667015e-07
6.23260373e-07
5.97218623e-07
5.9214452e-07
6.45053392e-07
6.56592591e-07
6.90600073e-07
7.04208162e-07
7.11725234e-07
7.49686181e-07
7.62203636e-07
7.94259325e-07
8.40235074e-07
8.45290047e-07
7.97392354e-07
8.41744762e-07
8.5240482e-07
8.71576103e-07
8.63779738e-07
8.63123315e-07
9.38119612e-07
9.53020609e-07
1.0003938e-06
1.00860767e-06
1.01949427e-06
1.0698237e-06
1.09350904e-06
1.09943385e-06
1.16224958e-06
1.21522815e-06
1.22075729e-06
1.15350996e-06
1.20480172e-06
1.21540005e-06
1.24701094e-06
1.26483613e-06
1.27040051e-06
1.31932121e-06
1.33825579e-06
1.42942399e-06
1.45485487e-06
1.40123105e-06
1.44635963e-06
1.45975079e-06
1.48010136e-06
1.48698346e-06
1.56076226e-06
1.57883931e-06
1.66203085e-06
1.68131281e-06
1.61649559e-06
1.66029927e-06
1.67234708e-06
1.70642923e-06
1.71370336e-06
1.78337841e-06
1.80176835e-06
1.90156804e-06
1.92083655e-06
1.84517789e-06
1.8849734e-06
1.89781431e-06
1.95097717e-06
1.96737093e-06
2.02346241e-06
2.04350769e-06
2.07933968e-06
2.08724024e-06
2.14071323e-06
2.15873269e-06
2.1997263e-06
2.23111738e-06
2.24444805e-06
2.25875347e-06
2.26695412e-06
2.26272117e-06
2.28625316e-06
2.29697267e-06
2.40466424e-06
2.41090509e-06
2.43506361e-06
2.44419683e-06
2.49461178e-06
2.51087306e-06
2.42129293e-06
2.47347085e-06
2.48547117e-06
2.49130022e-06
2.62174439e-06
2.64702404e-06
2.48493116e-06
2.50437658e-06
2.50025112e-06
2.67624198e-06
2.69185348e-06
2.54980081e-06
2.55226877e-06
2.54411019e-06
2.66036245e-06
2.66320888e-06
2.65007294e-06
2.64845626e-06
2.67522902e-06
2.68728966e-06
2.68543998e-06
2.67448774e-06
2.66873622e-06
2.66137421e-06
2.65072779e-06
2.77527351e-06
2.78750539e-06
2.75773551e-06
2.76322528e-06
2.76773604e-06
2.88552181e-06
2.89141967e-06
2.86368566e-06
)
;

boundaryField
{
    closed
    {
        type            calculated;
        value           nonuniform List<scalar> 0();
    }
    open
    {
        type            calculated;
        value           nonuniform List<scalar> 0();
    }
    sides
    {
        type            empty;
        value           nonuniform List<scalar> 0();
    }
    procBoundary1to0
    {
        type            processor;
        value           uniform 4.10007529e-07;
    }
    procBoundary1to2
    {
        type            processor;
        value           uniform 2.84265162e-06;
    }
}


// ************************************************************************* //
