/*--------------------------------*- C++ -*----------------------------------*\
| =========                 |                                                 |
| \\      /  F ield         | OpenFOAM: The Open Source CFD Toolbox           |
|  \\    /   O peration     | Version:  2306                                  |
|   \\  /    A nd           | Website:  www.openfoam.com                      |
|    \\/     M anipulation  |                                                 |
\*---------------------------------------------------------------------------*/
FoamFile
{
    version     2.0;
    format      ascii;
    arch        "LSB;label=32;scalar=64";
    class       volScalarField;
    location    "0.00078";
    object      prefDh_H2O;
}
// * * * * * * * * * * * * * * * * * * * * * * * * * * * * * * * * * * * * * //

dimensions      [1 1 -3 0 0 0 0];

internalField   nonuniform List<scalar> 
531
(
92.2413668
92.3034587
87.8926305
87.8535371
88.5807408
92.2773239
92.2175825
87.9204571
87.9056225
88.4169774
92.2247231
92.1760971
88.0856463
88.3166801
92.2028075
92.2041657
88.0922787
88.1064936
88.1968759
88.1747517
88.1503323
90.4932604
92.2682905
92.273839
92.339859
87.9993109
87.7897226
88.4341915
92.3308851
92.2719948
87.8068288
87.7659561
88.1168983
92.347471
92.287265
87.8430084
87.9247305
92.3568117
92.3074586
87.7649728
88.0908736
92.4301423
92.2851148
92.4692821
87.8669653
87.6018297
88.2354764
92.3751693
92.2950568
87.8306224
87.8040267
88.1800542
92.3160936
92.2720931
87.9589664
88.0364714
92.2553559
92.2913627
88.0479708
88.1397227
92.2415736
92.3183855
88.0184755
88.0427153
88.0678561
88.6039245
92.2581105
92.2840727
87.90825
87.8463431
88.193981
92.3345557
92.2679233
87.8894608
87.9478503
92.3263215
92.3080779
87.8221979
88.1000706
92.3942097
92.2592065
92.4380973
87.9446825
87.7296423
88.6498277
92.3574017
92.2973767
87.8912759
87.8950667
88.0838572
87.9081179
88.7727766
92.3523267
92.1984105
92.3901454
87.9805579
87.9840486
92.2590745
92.3720445
87.8613374
87.7960347
88.5174403
92.3324788
92.2490669
87.9661729
88.1046892
92.2919188
92.3308671
87.8683487
87.7967809
88.2143392
92.3462955
92.3071847
87.907508
87.9697179
92.3898879
92.4147667
87.6674304
87.8397687
92.5951914
92.3207522
92.6348253
87.9786794
87.7907462
89.0101193
92.3625902
92.2995416
87.9946765
87.9153014
88.7088549
92.3536139
92.338886
87.7618665
87.7059317
88.111082
92.3705635
92.4009579
87.8268831
87.9201443
92.3302837
92.4472984
87.8185696
87.9070881
92.297325
92.4181918
87.9572867
88.1191433
92.2734862
92.3574167
87.9344177
87.9605718
89.6069294
92.3012119
92.3399262
88.0721607
88.0076412
88.0644301
88.3981632
92.2836508
92.2779057
87.8736448
88.6936716
92.3285695
88.0384075
88.010268
92.2266461
92.383568
87.9660984
88.1022767
92.2450147
92.3494147
87.9194373
87.9002547
89.1023784
92.2961498
92.291034
87.9407694
87.9082806
88.489777
92.2844449
92.3355584
87.9654496
88.1395816
92.2748342
92.3614838
87.8530888
87.8143057
88.3421488
92.3215463
92.3416914
87.931426
88.1186789
92.2877211
92.3614516
87.8925134
87.8365543
88.5198646
92.3210386
92.3060008
87.869015
87.8562718
89.5755257
92.3031708
92.3664066
87.9407792
88.0820445
92.277402
92.4039583
87.9970639
88.0055365
88.1105313
89.3571137
92.2400174
92.3547459
88.0046146
88.1109818
92.2642424
92.3758858
87.89493
87.8202127
88.4999032
92.3193314
92.3107152
87.9013048
87.8613109
88.5370393
92.3013096
92.3161683
87.9039771
87.8835335
88.4291699
92.2965441
92.3366267
87.9660815
88.1366026
92.2686659
92.3503294
87.9775689
87.8747137
88.6803692
92.3153556
92.3200145
87.8923304
87.8370102
88.2385339
92.3360628
92.39345
87.8528153
87.9352823
92.3266355
92.4495053
87.8512395
87.9519508
92.3278107
92.4561178
87.8514346
87.9748617
92.3573151
92.4917256
87.6948871
87.7817894
92.345133
92.4524592
87.8905224
88.0883261
92.2913509
92.3616556
87.9918072
87.913414
88.9679558
92.3091644
92.2964492
87.9057663
87.823125
88.2185012
92.3199355
92.3444517
87.8570865
87.9685454
92.2999
92.3858136
87.9135119
88.0495092
92.2888505
92.3885033
87.8688703
87.7866568
88.4299671
92.3833078
92.213395
92.4703224
87.9399307
87.6488655
88.4058232
92.4139625
92.2491038
92.4517579
87.8272775
87.7475601
87.8666337
88.0913157
92.2932194
92.3162323
87.9759495
88.117772
92.2447556
92.3108189
88.0336086
87.9139308
88.7314624
92.2774886
92.2585818
87.9243621
87.8072584
88.1989315
92.272218
92.2432155
87.9950055
88.0937135
92.2511258
92.293401
87.9789103
87.8638947
88.6203569
92.264364
92.2276154
88.0349475
87.905851
88.7321293
92.2484807
92.2277643
88.0432074
87.9066323
88.732339
92.2557656
92.2228052
88.0455496
87.894374
88.6552809
92.2619583
92.2207688
88.0461408
87.8882619
88.6199137
92.2666036
92.215614
88.0714834
87.9037117
88.7090142
92.2691586
92.2152912
88.0867596
87.9008707
88.5980841
92.2863086
92.2236739
88.0485735
87.8435978
88.3284342
92.3069842
92.2314094
88.0425559
87.8304774
88.3504395
92.3141671
92.2256205
88.0691136
87.8665917
88.2030373
92.3204834
92.1766408
88.1472813
88.1000041
92.3118916
92.285805
88.0884956
87.8539411
88.7667458
92.393614
92.2060698
92.3314129
87.9441398
87.7742639
87.9870167
87.7967843
88.2488695
92.4817788
92.2075158
92.3639789
88.0560521
87.8325899
92.4604518
92.3156196
88.061917
88.0190587
92.4564398
92.3405331
88.0075653
87.7824214
88.0681184
92.4360372
92.224721
88.1352254
88.02881
92.459588
92.3181209
88.0241996
87.7223007
87.9991886
92.4489649
92.2498872
88.0802056
87.9319869
92.5007898
92.2628866
88.1427116
88.0615317
92.4834927
92.3083253
88.1194624
87.8796324
88.3737708
92.4542151
92.2174316
88.1322199
87.8909885
87.8667887
88.1787862
92.5327463
92.1939668
92.3496865
88.1817802
87.9560323
92.5606954
92.3465596
88.1495489
87.8016194
88.4864208
92.525683
92.1950568
92.2804011
88.0457839
87.8361787
87.8968399
88.1566943
92.4286017
92.2616069
88.3182788
87.9584322
88.8439367
92.4120777
92.2457814
88.2156695
87.8370869
88.1082387
92.5000159
92.2233861
88.2435514
88.0703509
92.6496445
92.3163112
88.1634336
87.802492
88.0551937
92.5428385
92.2408628
88.2238084
88.0324502
92.6937874
92.3359756
88.137383
87.7383987
87.978879
92.5744159
92.2649347
88.161349
87.9278923
92.7358724
92.2803398
88.2125812
88.0100471
92.6860942
92.257624
88.4838596
88.1300179
88.9299162
88.5813588
88.1833734
88.90359
92.3543968
92.1900522
88.1993597
88.1008703
92.6273453
92.313627
89.730196
87.8611439
87.9532959
92.771778
92.2473172
92.4466505
88.0457072
87.5675405
88.0538941
92.6124306
92.2928729
88.1273494
87.7693844
88.0916098
92.5196091
92.2193368
88.1447895
88.0219931
92.5944724
92.2410442
88.4174831
88.1315607
88.5361579
88.2122044
88.3005755
92.479503
92.2022549
88.0148182
87.9037481
92.8726242
92.2375228
92.4177405
88.133569
87.7846629
88.4954185
92.4422403
)
;

boundaryField
{
    closed
    {
        type            calculated;
        value           nonuniform List<scalar> 0();
    }
    open
    {
        type            calculated;
        value           nonuniform List<scalar> 0();
    }
    sides
    {
        type            empty;
    }
    procBoundary1to0
    {
        type            processor;
        value           uniform 88.0690609;
    }
    procBoundary1to2
    {
        type            processor;
        value           uniform 92.1598547;
    }
}


// ************************************************************************* //
