/*--------------------------------*- C++ -*----------------------------------*\
| =========                 |                                                 |
| \\      /  F ield         | OpenFOAM: The Open Source CFD Toolbox           |
|  \\    /   O peration     | Version:  2306                                  |
|   \\  /    A nd           | Website:  www.openfoam.com                      |
|    \\/     M anipulation  |                                                 |
\*---------------------------------------------------------------------------*/
FoamFile
{
    version     2.0;
    format      ascii;
    arch        "LSB;label=32;scalar=64";
    class       volScalarField;
    location    "0.0012";
    object      prefDZ_H;
}
// * * * * * * * * * * * * * * * * * * * * * * * * * * * * * * * * * * * * * //

dimensions      [1 -1 -1 0 0 0 0];

internalField   nonuniform List<scalar> 
531
(
0.00011027903
0.000110313769
0.000107695669
0.00010564343
0.000107721806
0.000110128475
0.000107788866
0.000106693119
0.000110128427
0.000110325725
0.000107950836
0.000106887887
0.000110063198
0.000110342221
0.000108041868
0.000106767584
0.00010626556
0.000107816988
0.000110196549
0.000107781143
0.00010682401
0.000110066537
0.000110185131
0.000108133107
0.000105894011
0.000105925372
0.000109931037
0.000110268162
0.000108043003
0.000106969982
0.000109941409
0.00011019482
0.000108246127
0.000106106758
0.000106117218
0.000109978349
0.00011025219
0.000108038481
0.000107576752
0.00010743111
0.000106268828
0.000106724581
0.000109977021
0.000110370016
0.000110153542
0.000110451775
0.000110297246
0.000107694673
0.000106726855
0.000106915007
0.000106169788
0.000106396301
0.000110075014
0.00011034388
0.000107881652
0.000107013119
0.000110015074
0.000110288931
0.000108069782
0.000105829745
0.000105839976
0.000109939353
0.000110244778
0.000108002379
0.000107403205
0.000107262249
0.00010605506
0.00010638799
0.000109971937
0.000110327735
0.000110129137
0.000110371634
0.000110226031
0.000107813506
0.000105388728
0.000105438551
0.000109799191
0.000110132137
0.000108111678
0.000105781102
0.000105800817
0.000109819387
0.000110099607
0.000108231938
0.000105927422
0.000105944421
0.00010977853
0.000110103288
0.000108566736
0.000106199407
0.000106203022
0.000109872506
0.000110261141
0.000107956653
0.000107810494
0.000105822667
0.000105886595
0.000109908279
0.000110316682
0.00010789143
0.000106916948
0.000109961745
0.00011030957
0.000108042153
0.00010712304
0.000109959429
0.000110177212
0.000108208274
0.000106131266
0.000106147389
0.000109793866
0.000110098811
0.000108583854
0.000106207534
0.000106137038
0.000109222607
0.000110081021
0.000109333049
0.000106382478
0.000106117913
0.000109950208
0.000110239417
0.000107933233
0.000107737399
0.000106436071
0.000106239831
0.000108102191
0.000110299156
0.000107871377
0.000106638253
0.000110064641
0.000110373381
0.000107764658
0.000106796558
0.000110020723
0.000110379797
0.000107837071
0.000106897121
0.000110037765
0.000110351349
0.000107981151
0.000106950754
0.00011005081
0.000110333109
0.000108004483
0.000106961528
0.000106451966
0.000107765741
0.000110214218
0.00010779559
0.000106873625
0.000110080445
0.000110389922
0.000107970235
0.000107330911
0.000106412528
0.000106830426
0.000110165363
0.000110405409
0.000107941592
0.00010674328
0.000107832284
0.000110272245
0.000107899147
0.000106637305
0.000107633284
0.000110023659
0.000110539385
0.000108670554
0.000107514589
0.000106195391
0.000107722705
0.000110110124
0.000107833251
0.000107053993
0.000109998135
0.000110290512
0.000107914449
0.000107827951
0.000105526868
0.00010555927
0.000109845509
0.000110225257
0.00011020693
0.000107909303
0.000107208563
0.000109910432
0.000110244242
0.000108016993
0.000107952704
0.000105639395
0.000105673177
0.000109317116
0.000110096844
0.000110032117
0.000110119075
0.000107925106
0.000106535807
0.000105075166
0.000105085171
0.000109660016
0.000110027158
0.000108412369
0.000106029691
0.000106032127
0.000109716814
0.000110261684
0.000108027466
0.000107004201
0.000109857337
0.000110329544
0.000108018176
0.000107015437
0.000109907196
0.000110317535
0.000107972027
0.000106869203
0.000109924596
0.000110212643
0.000108018653
0.00010587758
0.000105883379
0.000109829704
0.000110142454
0.000108029001
0.000105670547
0.000105703285
0.000109808841
0.000110216675
0.000107922863
0.000106656312
0.000109939207
0.000110148774
0.000107966385
0.00010558037
0.000105629809
0.000109789355
0.000110299059
0.000107708387
0.000106629683
0.000109888985
0.000110340331
0.000107766334
0.000106807623
0.000109938807
0.000110315756
0.000107881516
0.000106834429
0.00010998525
0.000110207717
0.000107980386
0.000105842464
0.00010585481
0.000109899423
0.000110249622
0.000107939989
0.000106923394
0.000109972464
0.000110181927
0.000108126237
0.000106100445
0.000106098991
0.000109901608
0.000110145106
0.000108286522
0.000106108437
0.000106097456
0.000109942045
0.000110180623
0.000108281001
0.000107473625
0.000107280909
0.000105502874
0.000105524014
0.000108832988
0.000110159407
0.000110022782
0.000110230168
0.000110060679
0.000110282005
0.000110210802
0.000107831195
0.000106289216
0.000106588753
0.000104945498
0.000104980621
0.000110052763
0.000110129435
0.000107869417
0.00010556672
0.000105600616
0.000110078134
0.000110229646
0.000107838468
0.000107552985
0.000110057414
0.000107966805
0.0001062599
0.000110058026
0.000110085144
0.000109976019
0.000108465841
0.000105598113
0.000105683946
0.000110099761
0.000107877709
0.000105637773
0.000110208659
0.000110182297
0.000110162481
0.000107736867
0.000106148563
0.000109250109
0.000110255705
0.000110107506
0.000107876869
0.000105139799
0.000105180205
0.000110222765
0.000110135792
0.000107980329
0.000105916146
0.000105935384
0.00011020969
0.000110102762
0.000108137454
0.000106080439
0.000106080191
0.000110213005
0.000110125081
0.000108117947
0.000106085355
0.000106084903
0.000110219945
0.000110145887
0.000108095612
0.000106047465
0.000106059658
0.000110222477
0.000110125858
0.000108084613
0.00010580175
0.000105845102
0.000110143479
0.000110355724
0.000107381792
0.000106479889
0.000110116626
0.000110437818
0.000106776381
0.000106537779
0.000110072943
0.000110424176
0.000110025973
0.000108032885
0.000104647006
0.000104822145
0.000110297916
0.000110555313
0.000106293392
0.000105505166
0.000110552795
0.000110745183
0.000110654722
0.000105622043
0.00010446085
0.000110597126
0.000111282818
0.000111125135
0.000111315144
0.000106296421
0.000105068144
0.000110569176
0.000111259342
0.000110977818
0.000105282776
0.000104195873
0.000109873983
0.000110638103
0.000110147589
0.000110553637
0.000110385133
0.000110603573
0.000110551972
0.000110705359
0.000110705378
0.000110854864
0.000110886061
0.000111082458
0.000111192565
0.000111512891
0.000111816279
0.000112659086
0.000113603568
0.000112794749
0.000112389938
0.000111685745
0.000111374619
0.000110851949
0.000110654672
0.000110355584
0.000110156121
0.000109730851
0.000109700937
0.000109585653
0.000109314161
0.000109034358
0.00010895237
0.000108844204
0.000108986523
0.000108553085
0.000108113362
0.0001074109
0.000107005512
0.000107048961
0.000114494944
0.000113414648
0.000112571415
0.000111214565
0.000110232317
0.000108960708
0.000107838623
0.000106641479
0.000105372974
0.000104982438
0.000109081587
0.000107778103
0.000105817921
0.000119618246
0.000123170526
0.000123656763
0.000139481754
0.000141298899
0.00014946801
0.000156820504
0.000162680431
0.000169763742
0.000179654581
0.000190488924
0.000205321046
0.000215771448
0.000227123486
0.000238866057
0.000247843526
0.000255807539
0.000263546467
0.000270446682
0.00027640508
0.000283165439
0.000288643539
0.000293806542
0.000297982184
0.00030192224
0.000305510069
0.000308999228
0.000312114387
0.000315157383
0.000317841442
0.000320581913
0.000322938221
0.000325365981
0.000327405838
0.000329572569
0.000331457042
0.000333522005
0.000335259438
0.00033707819
0.000338752413
0.000340453123
0.000341975376
0.00034353641
0.000344738577
0.0003459073
0.000346973653
0.000348167727
0.000349255215
0.000350404624
0.000351457001
0.000352707473
0.00035399278
0.000355022923
0.000355799475
0.000356597288
0.000357302464
0.000358025858
0.00035865433
0.00035932367
0.000359974787
0.000360653546
0.000361288498
0.000361936195
0.000362487227
0.000363054636
0.000363590033
0.000364262832
0.000364893506
0.000365525395
0.00036610732
0.000366687769
0.000367227475
0.000367731586
0.000368199097
0.000368671289
0.000369117094
0.000369567846
0.000369987675
0.000370412934
0.000370819454
0.000371234409
0.000371631696
0.000372038168
0.000372414525
0.000372816048
0.000373196001
0.000373578488
0.000373938919
0.000374303001
0.000374645688
0.000374992969
0.000375319205
0.000375646797
0.000375952065
0.000376261746
0.000376550172
0.00037684384
0.000377117229
0.00037739655
0.000377656484
0.000377922932
0.000378170822
0.00037841292
)
;

boundaryField
{
    closed
    {
        type            calculated;
        value           nonuniform List<scalar> 0();
    }
    open
    {
        type            calculated;
        value           nonuniform List<scalar> 0();
    }
    sides
    {
        type            empty;
    }
    procBoundary4to3
    {
        type            processor;
        value           uniform 0.000110284726;
    }
    procBoundary4to5
    {
        type            processor;
        value           uniform 0.000378635219;
    }
}


// ************************************************************************* //
