/*--------------------------------*- C++ -*----------------------------------*\
| =========                 |                                                 |
| \\      /  F ield         | OpenFOAM: The Open Source CFD Toolbox           |
|  \\    /   O peration     | Version:  2306                                  |
|   \\  /    A nd           | Website:  www.openfoam.com                      |
|    \\/     M anipulation  |                                                 |
\*---------------------------------------------------------------------------*/
FoamFile
{
    version     2.0;
    format      ascii;
    arch        "LSB;label=32;scalar=64";
    class       volScalarField;
    location    "0.00052";
    object      prefDZ_H;
}
// * * * * * * * * * * * * * * * * * * * * * * * * * * * * * * * * * * * * * //

dimensions      [1 -1 -1 0 0 0 0];

internalField   nonuniform List<scalar> 
531
(
0.000106065501
0.000107859755
0.000110109794
0.000107753887
0.000106186938
0.000110171306
0.000110309938
0.000107471839
0.000106653888
0.000110118097
0.000110376305
0.000107595239
0.000106962995
0.000110140715
0.000110220577
0.000107920833
0.000106065219
0.000106145763
0.000109919073
0.000110290991
0.000110103348
0.000107807023
0.000105311284
0.00010558205
0.000110102472
0.000110187814
0.000107979155
0.00010620466
0.000106346943
0.000109892392
0.000110336652
0.000109575635
0.000107743925
0.000106067781
0.000106859685
0.000110077577
0.000110356895
0.000108062551
0.000107589438
0.000106119076
0.000106140922
0.000110055845
0.000110352891
0.000107775893
0.00010700986
0.000110149263
0.000110287527
0.000107829919
0.000106203379
0.000106212815
0.000110053684
0.000110358233
0.000107869158
0.000107137115
0.000110160026
0.000110310759
0.000107845908
0.000106376319
0.00010640409
0.000110111244
0.000110183326
0.000107927866
0.000106047638
0.000106348271
0.000109846979
0.000110307706
0.00010983525
0.000107803339
0.000105529897
0.000105945528
0.000110103773
0.000110245878
0.000107889635
0.000106389306
0.000106407404
0.000110133819
0.000110214675
0.000107886796
0.000106202008
0.000106221032
0.00010999847
0.000110317175
0.000107600324
0.000106638314
0.000110027288
0.000110328647
0.000107309649
0.000106454684
0.000109997778
0.000110318418
0.00010716817
0.000106329915
0.000109968893
0.000110308014
0.000107120167
0.000106315827
0.000109959067
0.00011030272
0.000107096438
0.000106358663
0.000109974252
0.000110310713
0.00010724191
0.000106465755
0.000110016096
0.000110307182
0.00010748431
0.000106830487
0.000110093097
0.000110215206
0.000107833296
0.000105769183
0.000105834127
0.000110120509
0.000110322611
0.000107502384
0.000106662268
0.000110069882
0.000110344872
0.000107576005
0.000107064375
0.000110135881
0.000110265027
0.000107813455
0.00010605925
0.000106434462
0.000110233903
0.000110254342
0.00010781562
0.000106059897
0.000106202748
0.000110175283
0.000110359518
0.000107458779
0.000106748748
0.000110111493
0.000110392382
0.000107524438
0.000107126169
0.000110188705
0.000110267712
0.000107791837
0.000105887287
0.000106223341
0.000110193982
0.000110392822
0.000107556885
0.000107150274
0.000110201449
0.000110264025
0.000107793487
0.000105944941
0.000106325863
0.000110208165
0.000110408107
0.000107521348
0.000107195365
0.00011023082
0.000110272246
0.000107789446
0.000105944354
0.000106357462
0.0001102242
0.00011041561
0.000107466417
0.000107212349
0.000110263253
0.000110277854
0.000107785037
0.000105949546
0.000106411023
0.000110239198
0.000110424075
0.000107438043
0.000107308992
0.000110304487
0.000110294046
0.00010777925
0.000106142578
0.000106759721
0.000110341972
0.000110282816
0.000107802798
0.000106046103
0.000106543358
0.000110265737
0.000110432561
0.000107287923
0.000107491515
0.000110403197
0.000110306367
0.000107782448
0.000105938122
0.000106582629
0.000110266097
0.000110435858
0.000107157474
0.000107684234
0.00011040246
0.000110315966
0.000107799086
0.000105919253
0.000106606442
0.000110262935
0.000110400224
0.000107022841
0.000107718157
0.000110404828
0.00011030847
0.000107805383
0.000105803835
0.000106580558
0.00011024594
0.000110364489
0.000106795843
0.00010739166
0.000110297441
0.000109973494
0.000106950586
0.000107797797
0.000110434352
0.000110308613
0.000107770242
0.000105972732
0.000107054363
0.000110236407
0.000109950868
0.000106759291
0.000107827764
0.000110393431
0.000110337092
0.000107726609
0.000106072026
0.000107707012
0.000109309799
0.000107734239
0.000107221595
0.000108460632
0.000110431008
0.000110299551
0.000107676051
0.000106176034
0.000107663632
0.0001082028
0.000107722289
0.000107767237
0.000110483071
0.000110432756
0.000107509495
0.000106283695
0.00010849966
0.00010957895
0.000107448678
0.0001078295
0.00011031822
0.000109638478
0.000106746181
0.000107620969
0.000110230786
0.000109552548
0.000106775202
0.000107752728
0.000110176741
0.000109554209
0.000106861533
0.000107502347
0.000110266386
0.000110277221
0.000107959673
0.0001060185
0.000106090366
0.000109976802
0.000110085906
0.000106662462
0.000106573278
0.00010999208
0.000110193207
0.000108380022
0.000106261219
0.000106215886
0.000110019377
0.000109518716
0.000106709609
0.000107553726
0.000110087643
0.000110427054
0.000108307129
0.000107134446
0.000106267113
0.000107851393
0.000108618877
0.000107771555
0.000107801542
0.000110348042
0.000110385876
0.00010774647
0.000106601413
0.000107760129
0.000110210316
0.000110277281
0.000107722296
0.000105972073
0.000107716925
0.000110058775
0.000108844922
0.000106927971
0.000107823406
0.000110185825
0.000110301217
0.000107724236
0.000106044798
0.000107740355
0.0001100133
0.00010885793
0.000106962073
0.000107804452
0.0001101489
0.000110307164
0.00010771871
0.000106120349
0.000107727559
0.000109985401
0.000108800869
0.000107036385
0.000107773742
0.000110122097
0.000110293157
0.000107710018
0.000106152883
0.000107705168
0.000109961206
0.00010871436
0.000107096695
0.0001077478
0.000110097273
0.00011024424
0.000107707494
0.000106161549
0.000107687718
0.000109938653
0.000108614293
0.000107187413
0.000107739167
0.000110074448
0.000110136087
0.000107740568
0.000106187227
0.000107755544
0.000109933364
0.000110189652
0.000107727471
0.000106086959
0.00010768609
0.000109887429
0.000108490861
0.000107030181
0.000107658483
0.000110002276
0.000108315482
0.000106988382
0.000107650143
0.000110001455
0.000108240083
0.000107001359
0.000107664443
0.000109995067
0.000108176455
0.000107083662
0.000107720347
0.000110008404
0.000109394214
0.000107561707
0.00010606099
0.000107643276
0.000109900776
0.000108149162
0.000106915706
0.000107700244
0.000110021593
0.000108012506
0.000106873742
0.000107723546
0.000110041242
0.000107959429
0.000106906836
0.000107797727
0.000110059155
0.000107919392
0.000107015882
0.000107882323
0.000110059573
0.000109114177
0.000107430271
0.000106385518
0.000107717903
0.000110061805
0.000110047459
0.000107758079
0.000106483122
0.000106476711
0.000108415221
0.000110151744
0.000108532823
0.000107368625
0.000106897194
0.000108678275
0.000110185013
0.000108449629
0.000106903658
0.000106124491
0.000107831632
0.000110036427
0.000109175616
0.000107368163
0.00010655881
0.000108022941
0.000110053372
0.000109104654
0.000107349933
0.00010656647
0.000108199023
0.000110081397
0.000108489063
0.000106882803
0.000106359441
0.000108194647
0.000110177006
0.000107838686
0.00010707918
0.000108773912
0.000110182682
0.000108213599
0.000106696383
0.000106363222
0.000108398001
0.000110212513
0.000107850378
0.000107025381
0.000109009006
0.000110194684
0.000108103482
0.000106542066
0.000106314925
0.000108636002
0.000110243859
0.000107878232
0.000106987704
0.00010917827
0.000110212993
0.000108107933
0.000106635431
0.000106474309
0.000108938602
0.000110161441
0.000108135662
0.000106472502
0.000106336512
0.000108862119
0.000110238662
0.000107915067
0.00010683451
0.000109312673
0.000110176987
0.000108234165
0.000106561782
0.000106264044
0.000108305508
0.000110254986
0.000110282741
0.00010772072
0.000106147807
0.000106862293
0.000109866196
0.000110239586
0.000107987214
0.000105937724
0.000105844129
0.000109029965
0.000110227393
0.000107978612
0.00010668093
0.000109569726
0.000110148323
0.000108072607
0.00010633551
0.000106299312
0.000109182576
0.000110265916
0.000108019491
0.000106550998
0.000109442762
0.000110302787
0.000107988888
0.000106582042
0.000109469753
0.000110316969
0.000108037382
0.000106842184
0.000109579173
0.000110328569
0.000108150318
0.000107825057
0.000106527562
0.000106573588
0.000109663939
0.000110291692
0.000107986248
0.000106587372
0.0001097365
0.000110233709
0.000107966332
0.000106279826
0.000106288161
0.000109583795
0.000110192685
0.000108005454
0.000106254591
0.000106263003
0.000109567058
0.000110339625
0.000107989091
0.000107050103
0.000109773787
0.00011035722
0.000108012257
0.000107777216
0.000106612434
0.000106626153
0.000109673749
0.000110350404
0.000107937757
)
;

boundaryField
{
    closed
    {
        type            calculated;
        value           nonuniform List<scalar> 0();
    }
    open
    {
        type            calculated;
        value           nonuniform List<scalar> 0();
    }
    sides
    {
        type            empty;
    }
    procBoundary3to2
    {
        type            processor;
        value           uniform 0.000107867064;
    }
    procBoundary3to4
    {
        type            processor;
        value           uniform 0.000106531913;
    }
}


// ************************************************************************* //
