/*--------------------------------*- C++ -*----------------------------------*\
| =========                 |                                                 |
| \\      /  F ield         | OpenFOAM: The Open Source CFD Toolbox           |
|  \\    /   O peration     | Version:  2306                                  |
|   \\  /    A nd           | Website:  www.openfoam.com                      |
|    \\/     M anipulation  |                                                 |
\*---------------------------------------------------------------------------*/
FoamFile
{
    version     2.0;
    format      ascii;
    arch        "LSB;label=32;scalar=64";
    class       volScalarField;
    location    "0.00028";
    object      prefDh_H;
}
// * * * * * * * * * * * * * * * * * * * * * * * * * * * * * * * * * * * * * //

dimensions      [1 1 -3 0 0 0 0];

internalField   nonuniform List<scalar> 
531
(
23869.058
23459.2627
23422.3427
23376.6071
23483.3629
23464.6203
23372.7696
23373.9387
23409.4172
23412.5522
23389.1717
23386.3967
23393.9961
23396.5875
23393.1428
23391.8411
23393.0126
23393.7279
23393.2034
23392.7905
23393.0361
23393.3416
23393.2176
23392.9534
23392.9994
23393.2332
23393.2264
23393.047
23393.0272
23393.145
23393.186
23393.1148
23393.0635
23393.1001
23393.1549
23393.1428
23393.0894
23393.0905
23393.1295
23393.1375
23393.1129
23393.0994
23393.1145
23393.1307
23393.1208
23393.1018
23393.1083
23393.1328
23393.1304
23393.0979
23393.0965
23393.1317
23393.1411
23393.1072
23393.0884
23393.1172
23393.1455
23393.1236
23393.0853
23393.099
23393.1521
23393.1481
23393.0739
23393.0632
23393.1558
23393.2063
23393.103
23392.9732
23393.0587
23393.3195
23393.2903
23392.879
23392.8276
23393.3014
23393.5236
23393.0675
23392.6214
23392.964
23393.6552
23393.4954
23392.6052
23392.6241
23393.4851
23393.6328
23392.9425
23392.6467
23393.1231
23393.5069
23393.2201
23392.8269
23392.9639
23393.313
23393.2702
23392.9949
23392.9994
23393.1754
23393.1927
23393.0956
23393.0702
23393.119
23393.1428
23393.1213
23393.1015
23393.1069
23393.1234
23393.124
23393.12
23393.1108
23393.1057
23393.1138
23393.1328
23393.1303
23393.0969
23393.0914
23393.1295
23393.151
23393.1172
23393.0755
23393.0966
23393.1568
23393.1513
23393.0838
23393.0784
23393.1324
23393.1504
23393.1144
23393.0901
23393.1097
23393.1334
23393.125
23393.1072
23393.1099
23393.1194
23393.1187
23393.116
23393.1176
23393.118
23393.1106
23393.1097
23393.1252
23393.1314
23393.1089
23393.0885
23393.1124
23393.1591
23393.1473
23393.0587
23393.0583
23393.1672
23393.2021
23393.0925
23393.0081
23393.0963
23393.2346
23393.1873
23393.0027
23393.0123
23393.203
23393.2269
23393.0735
23393.0117
23393.1183
23393.2079
23393.148
23393.0421
23393.0582
23393.1708
23393.1778
23393.1004
23393.0577
23393.0906
23393.1679
23393.1652
23393.0904
23393.0586
23393.1072
23393.1758
23393.1599
23393.0602
23393.0582
23393.1503
23393.1806
23393.1078
23393.0521
23393.1008
23393.1745
23393.1503
23393.0685
23393.074
23393.1503
23393.1535
23393.0981
23393.0874
23393.126
23393.1386
23393.1081
23393.0946
23393.1249
23393.1448
23393.1125
23393.0761
23393.1037
23393.1677
23393.1571
23393.0598
23393.0547
23393.1549
23393.1933
23393.1085
23393.0333
23393.0885
23393.1944
23393.1756
23393.0507
23393.0514
23393.1522
23393.1742
23393.107
23393.0726
23393.1097
23393.1426
23393.1264
23393.1058
23393.1114
23393.1182
23393.1127
23393.1135
23393.1281
23393.1261
23393.0998
23393.1
23393.1307
23393.1356
23393.108
23393.0976
23393.1181
23393.1316
23393.1188
23393.1054
23393.1124
23393.1233
23393.1194
23393.1111
23393.1142
23393.1226
23393.1196
23393.1056
23393.1068
23393.1323
23393.1367
23393.1007
23393.079
23393.1196
23393.1737
23393.1435
23393.041
23393.049
23393.1933
23393.2161
23393.0682
23392.9928
23393.1172
23393.2484
23393.1684
23392.9933
23393.02
23393.2189
23393.2181
23393.0578
23393.0265
23393.1368
23393.1869
23393.1199
23393.0662
23393.1015
23393.1488
23393.1333
23393.0967
23393.1016
23393.1273
23393.1265
23393.1109
23393.1101
23393.1182
23393.1197
23393.1158
23393.1144
23393.1161
23393.1173
23393.1169
23393.1158
23393.1155
23393.1158
23393.1171
23393.1178
23393.116
23393.1129
23393.114
23393.1223
23393.1226
23393.1093
23393.1035
23393.12
23393.1373
23393.123
23393.0877
23393.0928
23393.1479
23393.1531
23393.0951
23393.0698
23393.1189
23393.1659
23393.1346
23393.0708
23393.0812
23393.1527
23393.1525
23393.0971
23393.0861
23393.1215
23393.1378
23393.1186
23393.1031
23393.1118
23393.1231
23393.1199
23393.1133
23393.1142
23393.1173
23393.1171
23393.116
23393.116
23393.1163
23393.1164
23393.1167
23393.1166
23393.1153
23393.115
23393.1177
23393.1192
23393.1153
23393.1111
23393.1149
23393.1238
23393.1223
23393.1071
23393.1062
23393.1234
23393.1298
23393.1136
23393.1006
23393.1131
23393.1326
23393.1252
23393.1007
23393.1029
23393.1298
23393.1309
23393.1075
23393.1021
23393.1201
23393.128
23393.1161
23393.1086
23393.1158
23393.1205
23393.1141
23393.1119
23393.1231
23393.1252
23393.1064
23393.1002
23393.1241
23393.1393
23393.1167
23393.0894
23393.1035
23393.1425
23393.1396
23393.098
23393.0897
23393.1176
23393.141
23393.1338
23393.0997
23393.0904
23393.11
23393.1459
23393.1437
23393.0941
23393.0743
23393.1185
23393.1687
23393.141
23393.0595
23393.0667
23393.1673
23393.1773
23393.0859
23393.0518
23393.1234
23393.1772
23393.1295
23393.0645
23393.0895
23393.1562
23393.149
23393.0879
23393.0883
23393.131
23393.1372
23393.1108
23393.1021
23393.1169
23393.1251
23393.1176
23393.1113
23393.1146
23393.1189
23393.1176
23393.115
23393.1154
23393.1168
23393.1167
23393.1161
23393.1161
23393.1163
23393.1164
23393.1163
23393.1162
23393.1163
23393.1163
23393.1163
23393.1163
23393.1163
23393.1163
23393.1162
23393.1161
23393.1163
23393.1167
23393.1166
23393.1154
23393.1154
23393.1175
23393.1183
23393.1153
23393.1125
23393.1156
23393.1224
23393.1208
23393.1078
23393.1078
23393.1244
23393.129
23393.1107
23393.0994
23393.1173
23393.137
23393.1216
23393.0914
23393.1021
23393.1457
23393.142
23393.0832
23393.0797
23393.146
23393.1659
23393.0968
23393.0528
23393.1162
23393.1918
23393.1461
23393.034
23393.0504
23393.197
23393.1988
23393.064
23393.0295
23393.1346
23393.195
23393.125
23393.0541
23393.0981
23393.1769
23393.1522
23393.0231
23393.0298
23393.3185
23393.4798
23392.9682
23392.1489
23392.7428
23396.156
23396.2125
23388.7314
23385.7991
23400.1891
23419.801
23398.6979
23372.1686
23375.3586
23516.2261
23509.614
23377.0368
23327.027
23395.2864
23969.7706
23812.0195
23133.1536
23129.8605
23492.4274
23922.8198
23605.9073
23104.0581
23152.1666
23514.247
23922.0949
23585.9285
23069.1634
23390.3529
23960.0489
23862.5095
23131.9295
23131.9615
23437.5592
23928.4386
23614.8937
23077.2541
23388.518
23931.385
)
;

boundaryField
{
    closed
    {
        type            calculated;
        value           nonuniform List<scalar> 0();
    }
    open
    {
        type            calculated;
        value           nonuniform List<scalar> 0();
    }
    sides
    {
        type            empty;
    }
    procBoundary1to0
    {
        type            processor;
        value           uniform 23375.1433;
    }
    procBoundary1to2
    {
        type            processor;
        value           uniform 23606.972;
    }
}


// ************************************************************************* //
