/*--------------------------------*- C++ -*----------------------------------*\
| =========                 |                                                 |
| \\      /  F ield         | OpenFOAM: The Open Source CFD Toolbox           |
|  \\    /   O peration     | Version:  2306                                  |
|   \\  /    A nd           | Website:  www.openfoam.com                      |
|    \\/     M anipulation  |                                                 |
\*---------------------------------------------------------------------------*/
FoamFile
{
    version     2.0;
    format      ascii;
    arch        "LSB;label=32;scalar=64";
    class       volScalarField;
    location    "0.00028";
    object      sourcePV;
}
// * * * * * * * * * * * * * * * * * * * * * * * * * * * * * * * * * * * * * //

dimensions      [1 -3 -1 0 0 0 0];

internalField   nonuniform List<scalar> 
531
(
0.00298183118
0.0625031098
0.126836403
0.106426352
0.0564329593
0.0607461835
0.0956357493
0.0951490681
0.0756761917
0.0747828001
0.0833013761
0.0847666946
0.0811799969
0.080186805
0.0815245756
0.0820878478
0.0815764371
0.0812826745
0.0814956237
0.0816678425
0.0815644236
0.0814371877
0.0814885607
0.081598402
0.0815792337
0.0814818565
0.0814847079
0.0815592881
0.0815675704
0.0815184788
0.0815014438
0.0815310663
0.0815524141
0.0815371855
0.0815143803
0.0815194097
0.0815416195
0.0815411848
0.0815249399
0.0815216042
0.0815318333
0.0815374715
0.0815311757
0.0815244575
0.0815285727
0.0815364614
0.0815337804
0.0815235865
0.0815245488
0.0815380977
0.0815386619
0.0815240054
0.0815201291
0.0815342331
0.081542041
0.0815300482
0.0815182717
0.0815273853
0.0815433169
0.0815376293
0.0815155339
0.0815172219
0.0815480743
0.0815525409
0.0815140187
0.0814930038
0.081535965
0.0815900501
0.0815544142
0.0814460392
0.0814581323
0.0816294032
0.0816509044
0.0814535437
0.0813615197
0.0815507514
0.0817372618
0.0815938804
0.0813072223
0.0813731749
0.0817440759
0.0817361423
0.0813774448
0.0813164585
0.081602887
0.0817266544
0.081527585
0.081368459
0.0814872817
0.0816511817
0.0815939345
0.0814487128
0.0814664623
0.0815810168
0.0815791494
0.0815058587
0.0814986771
0.081539043
0.0815496461
0.0815292931
0.0815193965
0.0815283664
0.0815365766
0.0815343458
0.0815274744
0.0815272162
0.0815288874
0.0815327065
0.0815348561
0.0815314686
0.0815235721
0.0815246075
0.0815384992
0.0815407987
0.0815249543
0.0815159804
0.0815300452
0.081547408
0.0815386348
0.0815135852
0.081515881
0.0815439802
0.081546218
0.0815237509
0.0815162602
0.0815312052
0.0815413357
0.0815331625
0.0815233311
0.0815268253
0.0815342235
0.0815330973
0.0815291346
0.0815294348
0.0815305598
0.0815298771
0.0815297112
0.0815328221
0.0815331672
0.081526744
0.0815241561
0.0815334968
0.0815420202
0.0815320741
0.0815126217
0.0815175332
0.0815544254
0.0815546006
0.0815092536
0.0814947437
0.0815403523
0.0815754827
0.0815387485
0.0814812418
0.0815009045
0.0815777603
0.0815737702
0.0814943873
0.0814844442
0.0815482413
0.0815739856
0.0815296172
0.0814923545
0.0815172657
0.0815613295
0.0815546265
0.0815077746
0.0815048358
0.0815370721
0.0815548114
0.0815411432
0.0815089857
0.0815100984
0.0815412238
0.0815544595
0.0815342103
0.0815056934
0.08151228
0.0815538016
0.0815546165
0.0815162829
0.081503678
0.0815339604
0.0815571785
0.0815368783
0.0815062083
0.0815162766
0.0815503436
0.0815480274
0.08151628
0.0815149418
0.0815380002
0.0815424808
0.0815263973
0.0815211591
0.081533846
0.081539472
0.0815268598
0.0815185814
0.081532001
0.081547166
0.0815356962
0.0815090531
0.0815134635
0.0815539487
0.0815560963
0.0815143681
0.0814984091
0.0815336828
0.0815649867
0.0815419894
0.0814979374
0.081505764
0.081557741
0.0815574563
0.0815154909
0.0815063682
0.0815343185
0.081548615
0.0815331962
0.0815194966
0.0815262382
0.0815348059
0.0815324612
0.0815296614
0.0815319414
0.0815316049
0.081525541
0.0815263507
0.0815373067
0.0815372067
0.0815244215
0.0815224031
0.0815339052
0.0815382152
0.0815296772
0.0815240806
0.0815294037
0.0815349647
0.0815320746
0.0815275188
0.0815291274
0.0815325882
0.0815313067
0.0815278017
0.0815290491
0.0815348876
0.0815343746
0.081523785
0.0815219475
0.0815369318
0.0815459711
0.0815290425
0.0815065744
0.0815191343
0.0815617944
0.0815584383
0.0814984306
0.0814889586
0.0815504566
0.0815818824
0.0815300727
0.0814755134
0.0815087582
0.0815816739
0.0815705519
0.0814877548
0.081488101
0.0815548077
0.0815678363
0.0815219004
0.0815010563
0.0815289261
0.0815512955
0.0815366045
0.0815169049
0.0815233535
0.0815385831
0.081536531
0.0815258749
0.0815261682
0.0815326622
0.0815329943
0.0815296351
0.0815290066
0.0815306238
0.0815312337
0.081530532
0.0815300091
0.0815301682
0.0815306563
0.0815307523
0.081530632
0.0815300862
0.0815297903
0.0815305422
0.0815318446
0.0815313812
0.0815279183
0.0815278121
0.0815333473
0.08153577
0.0815289046
0.0815217047
0.0815276658
0.0815423416
0.0815402137
0.0815172722
0.0815151329
0.0815392595
0.081549781
0.081529364
0.0815097911
0.0815227982
0.0815493802
0.081545044
0.0815152712
0.0815153853
0.081538418
0.0815429936
0.0815282579
0.0815214915
0.0815294851
0.0815359074
0.0815323028
0.0815276163
0.0815289228
0.0815316655
0.0815312898
0.081530006
0.0815300868
0.0815305789
0.0815305731
0.0815304456
0.0815304057
0.081530277
0.081530301
0.0815308689
0.0815309677
0.0815298331
0.081529232
0.081530839
0.0815326042
0.0815310355
0.0815272942
0.0815279535
0.0815342492
0.0815346282
0.081527462
0.0815248014
0.081531551
0.0815369865
0.0815317582
0.0815236517
0.0815267384
0.081536909
0.0815360263
0.0815248164
0.0815243711
0.0815340842
0.0815363273
0.0815288698
0.0815255578
0.0815305136
0.0815336509
0.0815306531
0.0815286785
0.0815313366
0.0815322517
0.0815276238
0.0815267447
0.081534538
0.0815371537
0.0815272032
0.0815208468
0.0815302854
0.0815416499
0.0815357537
0.0815195372
0.0815207274
0.0815380687
0.0815415179
0.0815298745
0.0815201746
0.081523145
0.0815373489
0.0815412234
0.0815330739
0.081518106
0.0815190213
0.0815396728
0.0815479093
0.0815295345
0.0815086475
0.0815201476
0.0815540718
0.0815510812
0.0815092216
0.0815050814
0.0815430875
0.0815572916
0.0815274858
0.0815051153
0.0815249397
0.0815519877
0.0815415927
0.0815138291
0.0815168122
0.0815422414
0.0815421047
0.0815243134
0.0815217369
0.0815327223
0.0815363476
0.081530198
0.081526787
0.0815298814
0.08153252
0.0815311338
0.0815293595
0.0815298971
0.0815309616
0.0815307902
0.0815302161
0.0815302506
0.0815305353
0.081530532
0.0815304127
0.0815304068
0.0815304502
0.0815304564
0.0815304396
0.0815304365
0.0815304505
0.0815304514
0.0815304259
0.0815304171
0.0815304686
0.0815305148
0.0815304339
0.0815302705
0.0815303282
0.0815307984
0.0815308049
0.0815299524
0.0815296057
0.0815308302
0.0815320312
0.0815307246
0.0815279068
0.0815285705
0.0815339654
0.0815339606
0.081527043
0.0815251479
0.081532761
0.0815374632
0.0815300252
0.0815218014
0.0815282139
0.0815407864
0.0815363433
0.0815181904
0.0815197334
0.0815442151
0.0815456805
0.0815180572
0.0815097848
0.0815385404
0.0815568796
0.0815304583
0.0814990311
0.0815180243
0.0815646983
0.0815578721
0.0814968911
0.0814961381
0.0815522371
0.0815666138
0.0815228665
0.0814977779
0.0815269704
0.0815565891
0.0815384759
0.081506013
0.0815167979
0.0815716346
0.081570171
0.0814533789
0.0813904138
0.0816117701
0.0819694103
0.081739881
0.0803812592
0.0804036337
0.0837086808
0.0852796204
0.0792320695
0.0726242018
0.0804604686
0.100732235
0.0969844506
0.0494167354
0.0507604056
0.11333911
0.134970471
0.0894893883
0.00591296668
0.00595938006
0.154005214
0.155068402
0.0551816897
0.00540536398
0.0341500536
0.157033837
0.152647404
0.0499980493
0.0053117969
0.037583405
0.160062161
0.117522797
0.00563371211
0.00329666029
0.154508258
0.154824668
0.0707508129
0.00528732836
0.0334217968
0.159355354
0.11498534
0.00531671009
)
;

boundaryField
{
    closed
    {
        type            calculated;
        value           nonuniform List<scalar> 0();
    }
    open
    {
        type            calculated;
        value           nonuniform List<scalar> 0();
    }
    sides
    {
        type            empty;
    }
    procBoundary1to0
    {
        type            processor;
        value           uniform 0;
    }
    procBoundary1to2
    {
        type            processor;
        value           uniform 0;
    }
}


// ************************************************************************* //
