/*--------------------------------*- C++ -*----------------------------------*\
| =========                 |                                                 |
| \\      /  F ield         | OpenFOAM: The Open Source CFD Toolbox           |
|  \\    /   O peration     | Version:  2306                                  |
|   \\  /    A nd           | Website:  www.openfoam.com                      |
|    \\/     M anipulation  |                                                 |
\*---------------------------------------------------------------------------*/
FoamFile
{
    version     2.0;
    format      ascii;
    arch        "LSB;label=32;scalar=64";
    class       volScalarField;
    location    "0.00186";
    object      prefDh_H;
}
// * * * * * * * * * * * * * * * * * * * * * * * * * * * * * * * * * * * * * //

dimensions      [1 1 -3 0 0 0 0];

internalField   nonuniform List<scalar> 
531
(
23917.6772
23411.7614
22829.4363
22841.6631
23895.9919
23924.909
23912.0106
23928.5892
23413.1044
23027.788
22866.3919
22868.8413
23893.9273
23927.8937
23018.8268
23023.0724
23897.5846
23935.1984
23909.5332
23403.4153
22801.3089
22926.5848
23908.2615
23932.6391
23925.297
23411.1515
23030.5271
22865.9277
22867.5233
23897.6182
23931.9747
22980.2271
22889.4687
23892.2489
23938.0188
23910.1719
23944.1087
23350.0182
23076.9668
23925.6444
23938.3977
23408.5583
23126.6703
22951.3344
22955.4393
23917.6513
23934.2909
23928.2131
23406.2136
23085.9481
23923.7365
23940.7253
23279.6684
23279.0813
23927.4107
23399.7033
23052.2337
23924.5702
23939.1685
23933.4244
23391.6668
23183.4478
23066.3066
23067.2312
23931.2737
23947.0903
23942.3898
23394.9264
23038.226
23040.6241
23930.295
23935.3332
23390.4644
22945.9727
23124.2648
23921.2788
23390.9923
22856.9341
23935.7221
23920.2676
23357.1205
22773.6775
22788.5185
23906.2761
23934.9766
23924.0504
23935.3559
23415.2502
22995.9029
23016.98
23938.9492
23944.5715
23947.3328
23397.3795
23082.0747
23084.3388
23927.1339
23933.2943
23393.5449
22981.7771
23157.6813
23919.096
23394.7477
22908.0082
23930.3848
23918.0574
23396.6984
22860.5721
22888.4757
23911.911
23931.6935
23928.3829
23269.8423
22976.9907
22723.8079
22725.6604
23889.5193
23922.8584
23897.1374
23931.4793
23069.5294
22945.0087
23892.0717
23936.8054
23905.0269
23943.9061
23920.9267
23346.9147
22887.2208
22898.4987
23901.5822
23926.8206
23309.6963
22640.2362
22721.8105
23901.0894
23919.2976
23913.7164
23168.2961
22840.5302
23900.9407
23914.0007
23915.5696
23919.0876
23393.7307
23011.9382
22852.7018
22854.4651
23902.1435
23919.0028
23914.3796
23278.2571
22562.1939
22654.946
23890.6578
23921.5708
23906.4393
23928.5686
23922.0286
23279.4396
22971.7918
22757.3408
22759.5337
23892.1734
23921.408
23906.591
23931.6293
23926.3025
23394.5352
23013.2456
22888.603
22889.6678
23899.0616
23921.0615
23916.5825
23927.7926
23417.801
23052.0281
22937.6931
22937.6502
23901.6669
23925.1579
23915.0704
23931.5447
23414.61
23124.8967
23030.7568
23033.7008
23901.1771
23930.3216
23165.2394
23017.0335
23904.9489
23927.0276
23195.6337
22958.4928
23913.224
23916.517
23317.9844
22769.2881
22829.1599
23898.8482
23927.681
23913.6526
23933.1123
23931.9681
23416.1694
23178.3314
23041.2972
23040.8056
23904.5705
23926.9875
23100.2968
23092.0401
23906.1341
23930.4789
23923.9166
23351.3909
22912.1406
22783.484
22781.8356
23899.452
23913.4175
23915.3771
23916.7758
23272.1239
22652.3066
22685.7668
23896.3234
23927.7735
23908.8201
23933.9966
23252.9754
23160.9761
23911.7297
23326.6385
22981.0483
23910.3409
23921.4159
23915.6169
23418.6909
22994.358
22912.7361
22911.2822
23898.9933
23913.8682
23908.5987
23917.1284
23359.1924
22995.7153
22842.4869
22845.7893
23892.7045
23903.3932
23899.6465
23128.3532
22861.6779
23885.2473
23912.6863
23891.7558
23921.2793
23911.9664
23321.904
22916.5207
22804.977
22804.4102
23886.6306
23906.105
22966.0228
22874.8142
23881.4371
23907.4578
22923.7449
22901.9725
23882.2576
23906.3283
23896.3832
23090.7826
22873.0581
23890.1957
23915.8334
23896.0201
23926.9024
23917.9363
23355.4335
22962.5507
22880.3455
22880.8308
23903.209
23920.8496
23027.4496
23032.2404
23905.9403
23931.2979
23913.2941
23400.6951
22910.521
23090.6367
22733.6156
22746.7578
23901.3387
23923.776
23915.457
23925.633
23258.2503
22878.726
23934.159
23903.6589
23321.2326
23906.9511
23952.0231
23227.6173
23103.883
22914.0001
22918.7974
23923.3445
23935.7698
23934.2792
23220.3529
23135.8278
23932.9158
23285.6696
22972.1688
23932.4122
23938.5343
23936.0782
23347.9353
23029.5967
23944.72
23932.4351
23363.2734
23000.3998
23008.6179
23929.6166
23947.3851
23293.7495
23081.038
23943.2452
23935.2552
23352.5473
22989.2852
23006.1743
23924.6587
23953.6371
23224.9371
23119.9841
23928.9791
23953.1127
23162.0135
23163.3741
23934.822
23951.4216
23944.2594
23393.3455
23003.977
23036.1267
23946.7922
23940.311
23328.452
22949.191
22981.1476
23927.7971
23957.9845
23189.2552
23074.3841
23927.3695
23956.383
23176.8182
23135.0273
23931.4408
23951.5556
23173.8107
23222.4935
23949.7621
23391.6962
22947.211
23943.4624
23940.8772
23330.1405
22884.5544
23009.3628
23927.9029
23941.7602
23940.0667
23214.1374
23160.4104
23934.9578
23944.2523
23943.4083
23389.5591
22991.0646
23048.9475
23936.6451
23944.0017
23307.8041
22991.1703
23017.1354
23938.986
23945.7915
23267.9965
22934.0228
22966.6927
23943.1629
23942.6447
23207.9951
22837.6361
22927.7678
23934.8346
23956.9247
23946.416
23962.2864
23349.1565
23195.8965
23944.2648
23959.1827
23364.3054
23300.9982
23952.1316
23955.3078
23381.8537
23300.3602
23246.8271
23242.6483
23941.9233
23956.6676
23289.1331
23237.1158
23940.8227
23947.779
23320.6105
23171.9404
23068.5222
23072.1872
23929.6462
23939.9065
22997.2788
22996.4851
23931.733
23936.0399
23945.0573
23943.0291
23009.5196
23026.7651
23943.5152
23095.763
22982.2393
23921.2661
23939.0584
23938.0426
23375.7614
22882.9932
23185.2914
23935.5549
23198.1955
23094.8729
23925.7473
23940.7903
23940.846
23347.5733
22851.436
23151.408
23933.2704
23152.9732
23031.8822
23935.8024
23932.3088
23956.5695
23196.5527
23061.822
23924.1117
23952.297
23117.5434
23206.4647
23943.823
23944.0956
23949.5986
23402.6724
23024.3476
23043.0406
23059.3113
23946.9601
23954.575
22988.6991
23098.7241
23950.8767
23942.5897
23958.1861
23248.6545
23080.2207
23935.3102
23950.8687
23236.6778
23198.825
23937.6223
23951.1406
23289.7919
23142.0931
23089.6788
23143.3253
23945.8052
23952.4298
23157.9507
23152.608
23941.8331
23952.6254
23189.0239
23196.0206
23945.9333
23952.6507
23246.2583
23258.6488
23948.1702
23949.6173
23312.1081
23192.0454
23126.3707
23200.7001
23947.4115
23946.2375
23147.2295
23147.7462
23945.6611
23932.557
23180.3787
22881.9024
23055.7532
23919.1066
23953.6826
23038.7952
23089.4057
23932.7498
)
;

boundaryField
{
    closed
    {
        type            calculated;
        value           nonuniform List<scalar> 0();
    }
    open
    {
        type            calculated;
        value           nonuniform List<scalar> 0();
    }
    sides
    {
        type            empty;
    }
    procBoundary3to2
    {
        type            processor;
        value           uniform 23933.23;
    }
    procBoundary3to4
    {
        type            processor;
        value           uniform 23946.3962;
    }
}


// ************************************************************************* //
