/*--------------------------------*- C++ -*----------------------------------*\
| =========                 |                                                 |
| \\      /  F ield         | OpenFOAM: The Open Source CFD Toolbox           |
|  \\    /   O peration     | Version:  2306                                  |
|   \\  /    A nd           | Website:  www.openfoam.com                      |
|    \\/     M anipulation  |                                                 |
\*---------------------------------------------------------------------------*/
FoamFile
{
    version     2.0;
    format      ascii;
    arch        "LSB;label=32;scalar=64";
    class       volScalarField;
    location    "0.00102";
    object      prefDh_T;
}
// * * * * * * * * * * * * * * * * * * * * * * * * * * * * * * * * * * * * * //

dimensions      [1 1 -3 -1 0 0 0];

internalField   nonuniform List<scalar> 
530
(
0.00654023553
0.00657751607
0.00661538371
0.00664981143
0.00668318819
0.00671496906
0.00674692615
0.00677766681
0.00680828043
0.00683801756
0.00686736919
0.0068961445
0.00692507036
0.00695448934
0.00698246512
0.00701080039
0.00703626902
0.00706126066
0.00708457046
0.00710864366
0.00713092392
0.00715411615
0.0071754149
0.00719777115
0.00721812914
0.00723971366
0.00725920016
0.00728004419
0.00729866638
0.00731879781
0.00733659074
0.00735604938
0.00737304816
0.00739186682
0.00740811284
0.00742585065
0.00743982379
0.00745566716
0.00746904561
0.00748438154
0.00749723531
0.00751204125
0.00752445488
0.00753867306
0.00755077265
0.00756428329
0.00757625274
0.00758887317
0.00760092776
0.00761247545
0.00762480223
0.00763507032
0.00764717999
0.00765758209
0.00766892675
0.00767933588
0.00768997642
0.00770034933
0.00771037612
0.00772061938
0.00773015601
0.00774016119
0.0077493315
0.00775901133
0.00776748932
0.00777561558
0.00778323646
0.00779100067
0.00779849267
0.00780591748
0.00781326769
0.00782040059
0.00782755505
0.00783449175
0.00784132808
0.00784823577
0.00785454817
0.00786166615
0.00786721047
0.00787414641
0.00788006725
0.00788629528
0.00789244382
0.00789813088
0.00790437589
0.00790964867
0.00791588562
0.00792084219
0.00792699136
0.0079317098
0.00793771577
0.00794225248
0.00794808237
0.00795247336
0.00795811142
0.00796237779
0.0079678192
0.00797197299
0.00797721892
0.00798126741
0.00798632195
0.00799027009
0.0079951386
0.00799899032
0.00800367861
0.00800743739
0.00801195127
0.00801562048
0.0080199656
0.00802354799
0.00802773058
0.00803122597
0.00803525657
0.00803844677
0.00804159595
0.00804426501
0.00804729259
0.00804990413
0.00805282346
0.00805537503
0.00805819098
0.00806068347
0.00806339833
0.00806583315
0.0080684489
0.00807082734
0.00807334605
0.00807566924
0.00807809305
0.008080362
0.00808269307
0.00808490873
0.00808714922
0.00808931245
0.00809146452
0.00809357612
0.00809564196
0.00809770261
0.00809968447
0.00810169485
0.00810359484
0.00810555605
0.00810737541
0.00810929049
0.00811102738
0.00811290474
0.00811454968
0.00811640806
0.00811793884
0.00811974663
0.0081212556
0.00812297863
0.00812444537
0.00812610116
0.00812751668
0.00812911342
0.00813047628
0.00813201652
0.00813332825
0.00813481261
0.00813607525
0.00813750428
0.00813871952
0.0081400941
0.00814126328
0.00814258461
0.00814370874
0.00814497821
0.00814605816
0.00814727722
0.00814831384
0.00814948388
0.00815047804
0.00815160038
0.00815255305
0.00815362889
0.00815454105
0.00815557157
0.00815644405
0.00815738068
0.00815813725
0.00815899876
0.00815971737
0.00816053929
0.00816122112
0.00816200463
0.00816265101
0.0081633972
0.00816400944
0.00816471944
0.00816529881
0.00816597375
0.00816652146
0.00816716252
0.00816767975
0.00816828811
0.00816877601
0.00816935285
0.00816981256
0.00817035909
0.0081707917
0.00817130912
0.00817171572
0.00817220524
0.0081725869
0.00817304972
0.00817340748
0.00817384482
0.00817417971
0.00817459275
0.00817490586
0.00817529572
0.0081755883
0.00817595591
0.00817622953
0.00817658514
0.0081768471
0.00817717571
0.0081774138
0.00817743469
0.00817734587
0.00817729504
0.0081771949
0.00817713169
0.00817702097
0.00817694603
0.0081768254
0.00817673941
0.00817660948
0.00817651315
0.00817637452
0.00817626854
0.00817612181
0.00817600686
0.0081758526
0.00817572935
0.00817556816
0.0081754372
0.00817526969
0.00817513161
0.00817495842
0.00817481369
0.00817463555
0.00817448456
0.00817430224
0.00817414527
0.00817395957
0.00817373841
0.00817345561
0.0081731984
0.0081729185
0.00817266401
0.00817238753
0.00817213577
0.00817186311
0.00817161418
0.00817134563
0.00817109973
0.00817083549
0.00817059282
0.00817033308
0.00817009388
0.00816983877
0.00816960328
0.00816935295
0.00816912139
0.00816887596
0.00816864854
0.00816840816
0.00816818505
0.00816794985
0.00816773124
0.00816750134
0.00816728738
0.0081670629
0.00816685374
0.0081666348
0.00816643058
0.00816621726
0.0081660181
0.00816581052
0.00816561654
0.00816541477
0.00816522607
0.00816503019
0.00816484687
0.00816465697
0.00816447909
0.00816429523
0.00816412287
0.0081639451
0.00816377834
0.0081636067
0.0081634456
0.00816328009
0.00816312475
0.00816296535
0.00816281587
0.0081626625
0.00816251904
0.00816237156
0.00816223428
0.00816209251
0.00816196158
0.00816182529
0.00816170087
0.00816157551
0.00816149449
0.00816140613
0.0081613272
0.0081612429
0.00816116659
0.0081610863
0.00816101305
0.00816093675
0.00816086691
0.0081607946
0.00816072843
0.00816066019
0.00816059788
0.00816053376
0.00816047547
0.00816041556
0.00816036138
0.00816030576
0.00816025579
0.00816020454
0.00816015884
0.00816011201
0.00816007063
0.00816002828
0.00815999125
0.00815995344
0.00815992076
0.00815988753
0.0081598592
0.0081598306
0.00815980658
0.00815978264
0.00815976292
0.0081597436
0.0081597282
0.00815971327
0.00815963498
0.00815955079
0.0081594714
0.00815939355
0.00815932057
0.00815924893
0.00815918225
0.00815911675
0.00815905623
0.00815899679
0.00815894228
0.00815888879
0.00815884016
0.00815879251
0.00815874961
0.00815870768
0.00815867037
0.00815863403
0.00815860219
0.00815857129
0.00815854477
0.00815851918
0.00815849784
0.0081584774
0.0081584611
0.00815844567
0.00815843426
0.0081584237
0.00815841703
0.00815841117
0.0081584091
0.00815840779
0.00815841016
0.00815841325
0.00815841991
0.00815842724
0.00815843804
0.00815844946
0.00815846424
0.0081584796
0.0081584982
0.00815851734
0.00815853961
0.00815856237
0.00815858817
0.0081586144
0.00815864357
0.00815867312
0.0081587055
0.00815873822
0.00815877366
0.0081588094
0.00815884776
0.00815888636
0.0081589275
0.00815896882
0.00815901258
0.00815905647
0.00815910272
0.00815914904
0.00815919763
0.00815924625
0.00815929704
0.00815934781
0.00815940067
0.00815945346
0.00815950825
0.00815956293
0.00815961952
0.00815967596
0.00815973422
0.00815979229
0.0081598521
0.00815991167
0.00815997291
0.00816003387
0.00816009642
0.00816015864
0.00816022238
0.00816028576
0.00816035058
0.008160415
0.00816048078
0.00816054614
0.00816061279
0.00816067898
0.00816074638
0.0081608133
0.00816088136
0.00816094891
0.00816101753
0.00816108563
0.00816115472
0.00816122325
0.00816129272
0.00816136161
0.00816143138
0.00816150054
0.00816157051
0.00816163987
0.00816170997
0.00816177945
0.0081618496
0.00816191911
0.00816198924
0.00816205872
0.00816212876
0.00816219814
0.00816226802
0.00816233731
0.0081624096
0.00816248628
0.00816256886
0.00816265641
0.00816275056
0.00816285029
0.00816295734
0.00816307063
0.00816319195
0.00816332014
0.00816345703
0.00816360138
0.00816375497
0.00816391649
0.00816408757
0.00816426686
0.0081644557
0.00816465268
0.0081648587
0.00816507235
0.00816529385
0.00816552183
0.00816575566
0.00816599402
0.00816623525
0.00816647817
0.00816672004
0.00816695982
0.00816719386
0.00816742135
0.00816763799
0.00816784349
0.00816803332
0.0081682082
0.00816836358
0.00816850225
0.00816861962
0.00816872035
0.00816880303
0.00816886816
0.00816891574
0.00816891323
0.00816891162
0.00816891044
0.00816890971
0.00816890931
0.00816890912
0.00816890904
0.00816890899
0.00816890898
0.00816890897
0.00816890897
0.00816890897
0.00816890897
0.00816890897
0.00816890897
0.00816890897
0.00816890897
0.00816890897
0.00816890897
0.00816890897
0.00816890897
0.00816890897
0.00816890897
0.00816890897
0.00816890897
0.00816890897
0.00816890897
0.00816890897
0.00816890897
0.00816890897
0.00816890897
0.00816890897
0.00816890897
0.00816890897
0.00816890897
0.00816890897
)
;

boundaryField
{
    closed
    {
        type            calculated;
        value           nonuniform List<scalar> 0();
    }
    open
    {
        type            calculated;
        value           uniform 0.00816890897;
    }
    sides
    {
        type            empty;
    }
    procBoundary5to4
    {
        type            processor;
        value           uniform 0.00650055707;
    }
}


// ************************************************************************* //
