/*--------------------------------*- C++ -*----------------------------------*\
| =========                 |                                                 |
| \\      /  F ield         | OpenFOAM: The Open Source CFD Toolbox           |
|  \\    /   O peration     | Version:  2306                                  |
|   \\  /    A nd           | Website:  www.openfoam.com                      |
|    \\/     M anipulation  |                                                 |
\*---------------------------------------------------------------------------*/
FoamFile
{
    version     2.0;
    format      ascii;
    arch        "LSB;label=32;scalar=64";
    class       volScalarField;
    location    "0.00102";
    object      PV;
}
// * * * * * * * * * * * * * * * * * * * * * * * * * * * * * * * * * * * * * //

dimensions      [0 0 0 0 0 0 0];

internalField   nonuniform List<scalar> 
530
(
0.00775648829
0.00776276364
0.00776885553
0.00777487009
0.00778064352
0.00778639013
0.00779191628
0.0077974417
0.0078027263
0.00780803992
0.0078130904
0.00781819935
0.00782292531
0.00782762611
0.00783207175
0.00783658315
0.00784080084
0.00784509415
0.00784909038
0.00785320324
0.00785700193
0.00786093769
0.0078645456
0.00786830926
0.00787173126
0.00787532285
0.00787855403
0.00788198099
0.00788503555
0.00788830791
0.00789119059
0.00789431368
0.0078970295
0.00790000831
0.00790256241
0.00790539703
0.00790777282
0.00791045088
0.00791267353
0.0079152179
0.00791729138
0.00791970189
0.00792163545
0.00792390685
0.00792571627
0.00792783374
0.00792954699
0.00793147716
0.00793314024
0.0079348259
0.00793649848
0.00793785285
0.00793944883
0.00794080038
0.00794219189
0.00794351048
0.00794470575
0.00794597453
0.00794699692
0.00794818897
0.00794906887
0.00795016042
0.00795092266
0.00795189866
0.00795255471
0.00795339045
0.00795394011
0.00795464987
0.00795510943
0.00795569257
0.00795606246
0.00795652253
0.00795680056
0.0079571415
0.00795732668
0.00795754774
0.00795765092
0.00795773464
0.00795779952
0.00795774817
0.00795771054
0.00795753971
0.00795742173
0.0079571244
0.00795694077
0.00795651032
0.00795626954
0.00795570204
0.00795540736
0.00795470407
0.00795435458
0.00795352024
0.00795311321
0.00795215357
0.00795168607
0.00795060671
0.00795007617
0.00794888218
0.00794828644
0.00794698248
0.00794631978
0.00794491018
0.00794417907
0.00794266791
0.00794186717
0.00794025833
0.00793938698
0.00793768417
0.00793674145
0.00793494812
0.0079339336
0.00793205301
0.00793096646
0.00792900107
0.00792783614
0.00792578431
0.00792454599
0.00792241468
0.00792110205
0.00791889324
0.00791750668
0.00791522203
0.00791376213
0.00791140318
0.00790987075
0.00790743885
0.00790583495
0.00790333125
0.0079016572
0.00789908264
0.00789734005
0.00789469539
0.00789288604
0.00789017193
0.00788829774
0.00788551484
0.0078835777
0.00788072689
0.00787872846
0.00787581119
0.00787375253
0.0078707712
0.00786865267
0.00786560995
0.0078634333
0.00786032442
0.00785810762
0.00785488095
0.00785272623
0.00784945117
0.00784711285
0.007843864
0.00784142913
0.00783815778
0.00783563801
0.00783234378
0.00782974032
0.0078264259
0.00782374213
0.00782040726
0.00781764825
0.00781429135
0.00781146235
0.00780808183
0.00780518755
0.00780178236
0.00779882685
0.00779539653
0.00779238326
0.00778892789
0.00778585993
0.00778237992
0.00777926014
0.00777575616
0.00777258728
0.00776906016
0.0077658448
0.00776229552
0.00775903624
0.00775545998
0.00775214995
0.00774854959
0.00774520012
0.00774158093
0.00773819449
0.00773455776
0.00773113684
0.00772748394
0.00772403099
0.00772036331
0.00771688075
0.00771319975
0.00770968998
0.00770599713
0.00770246254
0.00769875935
0.00769520232
0.00769149032
0.0076879132
0.00768419394
0.00768059906
0.00767687412
0.0076732638
0.00766953476
0.0076659113
0.00766217977
0.00765854544
0.00765481304
0.00765117007
0.00764743844
0.00764378908
0.00764005985
0.00763640632
0.00763268111
0.00762902569
0.00762530095
0.00762164113
0.00761792504
0.00761426932
0.00761057093
0.00760692904
0.00760324374
0.00759960945
0.00759593704
0.00759231198
0.00758865372
0.00758503948
0.0075813966
0.00757779474
0.00757416844
0.00757058046
0.00756697194
0.00756339928
0.0075598097
0.00755625377
0.00755268427
0.00754914644
0.00754559813
0.00754207972
0.00753855366
0.00753505598
0.00753155321
0.00752807751
0.00752459901
0.00752114654
0.00751769324
0.0075142652
0.00751083316
0.00750742204
0.00750401313
0.00750062725
0.00749724546
0.00749388602
0.0074905323
0.00748720044
0.00748387572
0.00748057253
0.00747727774
0.00747400421
0.00747074026
0.00746749738
0.00746426514
0.00746105384
0.00745785415
0.00745467531
0.007451509
0.00744836347
0.0074452313
0.00744211989
0.00743902261
0.00743594608
0.00743288439
0.00742984348
0.00742681805
0.00742381344
0.0074208249
0.00741785724
0.00741490618
0.00741197609
0.00740906307
0.00740617111
0.00740329665
0.00740044335
0.00739760794
0.00739479379
0.00739199787
0.00738922332
0.0073864673
0.00738373277
0.00738101704
0.0073783229
0.00737564778
0.00737299436
0.00737036018
0.00736774778
0.0073651548
0.00736258366
0.00736003214
0.00735750248
0.00735499263
0.0073525046
0.00735003661
0.00734759036
0.00734516439
0.00734275998
0.00734037615
0.00733801266
0.00733566457
0.00733333826
0.00733103283
0.00732874943
0.00732648669
0.00732424613
0.00732202609
0.00731982828
0.00731765089
0.00731549573
0.0073133609
0.00731124826
0.00730915588
0.00730708561
0.00730503553
0.00730300745
0.00730099947
0.00729901339
0.00729704731
0.007295103
0.00729317859
0.0072912758
0.00728939279
0.00728753125
0.00728568937
0.00728386879
0.00728206771
0.00728028779
0.00727852719
0.0072767876
0.0072750671
0.00727336749
0.00727168675
0.00727002674
0.00726838536
0.00726676451
0.00726516418
0.00726358422
0.0072620224
0.00726048049
0.00725895658
0.0072574523
0.00725596586
0.00725449876
0.00725304933
0.00725161898
0.00725020608
0.00724881199
0.00724743515
0.00724607685
0.00724473557
0.00724341257
0.00724210635
0.00724081815
0.00723954647
0.00723829254
0.0072370549
0.00723583473
0.00723463058
0.00723344363
0.00723227246
0.00723111819
0.00722997944
0.00722885731
0.00722775044
0.0072266599
0.00722558435
0.00722452485
0.00722348006
0.00722245103
0.00722143645
0.00722043734
0.0072194524
0.00721848263
0.00721752676
0.00721658577
0.00721565841
0.00721474564
0.00721384621
0.00721296108
0.00721208902
0.00721123096
0.0072103857
0.00720955415
0.00720873511
0.0072079295
0.00720713612
0.00720635588
0.00720558759
0.00720483216
0.0072040884
0.00720335721
0.00720263743
0.00720192992
0.00720123356
0.00720054918
0.00719987567
0.00719921388
0.00719856268
0.00719792291
0.00719729348
0.00719667521
0.007196067
0.00719546968
0.00719488216
0.00719430526
0.00719373791
0.0071931809
0.00719263319
0.00719209555
0.00719156696
0.00719104818
0.0071905382
0.00719003778
0.00718954591
0.00718906334
0.00718858907
0.00718812386
0.00718766672
0.00718721838
0.00718677788
0.00718634593
0.00718592159
0.00718550557
0.00718509693
0.00718469636
0.00718430296
0.00718391739
0.00718353878
0.00718316776
0.00718280349
0.0071824466
0.00718209624
0.00718175302
0.00718141615
0.00718108619
0.00718076238
0.00718044528
0.00718013412
0.00717982945
0.00717953054
0.00717923792
0.00717895088
0.00717866991
0.00717839434
0.00717812436
0.0071778499
0.00717756265
0.00717726189
0.00717694821
0.00717662102
0.00717628116
0.00717592824
0.00717556338
0.00717518648
0.007174799
0.00717440118
0.00717399486
0.00717358072
0.00717316099
0.00717273684
0.00717231086
0.0071718848
0.00717146151
0.00717104329
0.00717063311
0.00717023377
0.00716984811
0.00716947926
0.00716912962
0.00716880235
0.00716849906
0.00716822253
0.0071679733
0.00716775327
0.0071675617
0.00716739919
0.00716726377
0.00716715455
0.00716706855
0.0071670037
0.00716695636
0.00716692417
0.0071669031
0.00716689136
0.0071668866
0.0071668886
0.00716689575
0.0071669
0.00716690179
0.00716690246
0.00716690265
0.00716690268
0.00716690268
0.00716690267
0.00716690266
0.00716690266
0.00716690266
0.00716690266
0.00716690266
0.00716690266
0.00716690266
0.00716690266
0.00716690266
0.00716690266
0.00716690266
0.00716690266
0.00716690266
0.00716690266
0.00716690266
0.00716690266
0.00716690266
0.00716690266
0.00716690266
0.00716690266
0.00716690266
0.00716690266
0.00716690266
0.00716690266
0.00716690266
0.00716690266
0.00716690266
0.00716690266
)
;

boundaryField
{
    closed
    {
        type            zeroGradient;
    }
    open
    {
        type            zeroGradient;
    }
    sides
    {
        type            empty;
    }
    procBoundary5to4
    {
        type            processor;
        value           uniform 0.00775014757;
    }
}


// ************************************************************************* //
