/*--------------------------------*- C++ -*----------------------------------*\
| =========                 |                                                 |
| \\      /  F ield         | OpenFOAM: The Open Source CFD Toolbox           |
|  \\    /   O peration     | Version:  2306                                  |
|   \\  /    A nd           | Website:  www.openfoam.com                      |
|    \\/     M anipulation  |                                                 |
\*---------------------------------------------------------------------------*/
FoamFile
{
    version     2.0;
    format      ascii;
    arch        "LSB;label=32;scalar=64";
    class       volScalarField;
    location    "0.00154";
    object      H2;
}
// * * * * * * * * * * * * * * * * * * * * * * * * * * * * * * * * * * * * * //

dimensions      [0 0 0 0 0 0 0];

internalField   nonuniform List<scalar> 
530
(
0.0107714132
0.0106627569
0.0106617653
0.0110183345
0.0110082753
0.0107742203
0.0106629194
0.010661954
0.0110181866
0.0110082618
0.0107777254
0.0106632828
0.0106623519
0.0110184844
0.0110083806
0.0107830521
0.0106635676
0.0106631252
0.0110198583
0.0110096192
0.0108076624
0.0106635057
0.0106639729
0.0110306999
0.0110063049
0.0109310118
0.0106748293
0.0106675333
0.0106456701
0.0106452345
0.0110341092
0.0110104244
0.0110124254
0.0110031275
0.0107237575
0.010687318
0.0110200691
0.0109978682
0.0107553815
0.0106799161
0.0106650928
0.0106633589
0.0110279949
0.011009167
0.0107283602
0.0106594931
0.0106569515
0.0110234437
0.0110080214
0.0107360072
0.0106709311
0.0106524746
0.0106506868
0.0110509554
0.0110143618
0.0110342816
0.0110124151
0.0109509734
0.0106632364
0.0106618978
0.0110365623
0.0110085237
0.0107390962
0.0106753466
0.0106636508
0.0106620711
0.0110341047
0.0110103557
0.0107281346
0.0106582918
0.0106566703
0.011027519
0.0110098742
0.0107902738
0.0106647203
0.0106615581
0.0110278651
0.0110025793
0.0107036331
0.010687868
0.0110331274
0.010999318
0.0108721352
0.0106817844
0.010675714
0.0106529455
0.0106516392
0.0110351357
0.011002814
0.0110112358
0.010761456
0.0106575001
0.0106548108
0.0110261842
0.01100692
0.0106918888
0.0106746811
0.0110228773
0.0110081765
0.0107408366
0.0106610352
0.0106573843
0.0110254964
0.0110070937
0.0106886435
0.0106709773
0.0110234841
0.0110065744
0.0106848968
0.010673794
0.0110211538
0.0110111411
0.010734628
0.0106612807
0.0106628814
0.0110198639
0.0110154971
0.0107451958
0.0106586904
0.0106631804
0.0110196912
0.0110188727
0.0107380693
0.0106570574
0.0106610102
0.0110171061
0.0110213683
0.0106877143
0.0106806856
0.0110138267
0.011018834
0.0107307315
0.0106617266
0.0106701617
0.0110151384
0.0110224609
0.0107397224
0.0106603697
0.0106709051
0.011013845
0.0110242562
0.0107323327
0.0106597552
0.0106722682
0.0110122122
0.0110265866
0.0107185821
0.0106576581
0.0106697328
0.0110125879
0.0110372615
0.0106841105
0.0106857126
0.0110059497
0.0110241187
0.0107074968
0.0106614491
0.0106734419
0.011010594
0.0110330894
0.0106853823
0.0106872822
0.0110049169
0.0110197574
0.0107129897
0.0106634561
0.0106773862
0.0110095452
0.0110193137
0.010717512
0.0106608336
0.0106737667
0.0110135563
0.0110224167
0.0106869951
0.0106883095
0.0110092596
0.0110130703
0.0107121462
0.0106643624
0.0106764841
0.0110157648
0.0110141291
0.0107496788
0.0106667723
0.0106788297
0.0110177615
0.0110134172
0.0107696181
0.0106702647
0.0106815793
0.0110188763
0.011011185
0.0107798052
0.010679044
0.0106741732
0.0106583301
0.0106643205
0.0110288876
0.0110206997
0.0106805724
0.0106785976
0.0110352174
0.0110174801
0.0106817855
0.0106812208
0.0110333189
0.0110161396
0.0106946424
0.0106541028
0.0106584312
0.011031068
0.0110199292
0.010684309
0.0106743172
0.011043224
0.0110176784
0.0106796393
0.0106722032
0.011041057
0.0110159378
0.0106780074
0.0106713091
0.0110401081
0.011014896
0.0106785859
0.0106735111
0.011037153
0.0110134946
0.0106803613
0.0106760345
0.0110326807
0.0110137518
0.0106961911
0.0106531962
0.0106581658
0.0110266692
0.0110124519
0.0106875183
0.0106792134
0.0110292602
0.0110116607
0.0107101511
0.010659128
0.0106631401
0.0110224131
0.0110083164
0.0106919066
0.0106823212
0.0110254012
0.0110092142
0.0107199914
0.0106607831
0.0106671217
0.0110178923
0.0110114241
0.010737964
0.0106609579
0.0106650655
0.0110204767
0.0110079015
0.0106894054
0.0106804834
0.0110226977
0.0110084489
0.0107469272
0.0106644623
0.010670851
0.0110160404
0.0110109994
0.0107626034
0.0106639865
0.010668937
0.0110255646
0.0110027976
0.0108839657
0.0106812195
0.0106597723
0.0106628526
0.0110166052
0.0110110343
0.0107557532
0.0106612486
0.0106907777
0.011020363
0.010717136
0.0106782525
0.0110325194
0.0109970372
0.0110181481
0.0107028643
0.0106480551
0.0106577736
0.0110191513
0.0110110637
0.0107700882
0.0106647518
0.0106705849
0.0110136637
0.0110090962
0.0107687844
0.0106638656
0.0106679492
0.0110128496
0.0110087166
0.0107652933
0.0106632744
0.0106674153
0.0110121792
0.0110087485
0.0107612199
0.0106634718
0.0106682696
0.0110112278
0.0110102608
0.0107561633
0.0106617143
0.0106636259
0.0110161679
0.0110085217
0.0106824377
0.0106687151
0.0110148828
0.0110114434
0.0107700572
0.0106557459
0.0106596838
0.0110114504
0.0110142378
0.0107427111
0.0106532215
0.0106571993
0.0110115708
0.0110177103
0.0107233302
0.0106386003
0.0106503088
0.0110259803
0.0110056253
0.0110161764
0.0106898579
0.0106713178
0.0110068868
0.0110128679
0.0107233664
0.0106541725
0.0106570228
0.011009398
0.0110152149
0.0107382765
0.0106537038
0.0106577724
0.0110130378
0.0110093904
0.0106872043
0.0106809485
0.0110076441
0.0110083813
0.0107832027
0.0106670866
0.0106689841
0.0110065859
0.0110080041
0.0107341498
0.0106770184
0.0106588932
0.0106600327
0.01101682
0.0110132205
0.0106739261
0.0106684954
0.0110088233
0.01101884
0.0106984044
0.0106449903
0.0106473951
0.0110159958
0.0110150445
0.0106757157
0.0106646012
0.0110151862
0.0110155352
0.010673862
0.0106688231
0.0110145242
0.0110180116
0.0106740822
0.0106706588
0.0110135354
0.011021621
0.0106739674
0.0106727316
0.0110125748
0.0110258876
0.0106743581
0.0106767027
0.0110112969
0.0110279896
0.0106740898
0.0106795604
0.0110052927
0.0110285182
0.0106877441
0.0106430493
0.0106569061
0.0110148517
0.0110461184
0.0106700286
0.0106725522
0.011012728
0.0110505684
0.0106706864
0.0106810592
0.0110111976
0.0110522273
0.010672614
0.0106858695
0.0110048186
0.0110387058
0.010682712
0.0106454985
0.0106674029
0.0110146295
0.0110675953
0.0106718255
0.0106830555
0.0110114996
0.011069196
0.0106744452
0.0106931847
0.0110102559
0.0110686267
0.0106769214
0.0106978969
0.0110052715
0.0110502369
0.0106821962
0.0106365024
0.010670198
0.0110240281
0.011018139
0.0110391227
0.0110231874
0.0109737005
0.0106541659
0.0106516445
0.0106392317
0.010675639
0.0110188041
0.011036417
0.0106684056
0.0106975685
0.0110042358
0.0110488985
0.0106881378
0.0106617311
0.0107002468
0.0110126369
0.0110661024
0.010681655
0.0107163753
0.0110003806
0.0110377103
0.010719085
0.0106648204
0.0107079349
0.0110038689
0.0110407632
0.010703757
0.0106580771
0.0107021795
0.0110045032
0.011044108
0.010688498
0.0106544958
0.0106945478
0.0110121951
0.0110757999
0.0106747223
0.0107057451
0.0109996915
0.0110413449
0.0106870053
0.0106583618
0.0107004146
0.0110047888
0.0110426724
0.0106833845
0.0106508721
0.0106904337
0.0110123632
0.0110704526
0.0106710088
0.010699164
0.0110000838
0.011041494
0.0106806105
0.0106540731
0.0106889141
0.0110127775
0.0110661872
0.0106733812
0.0107006308
0.0110057971
0.0110630762
0.0106749575
0.0107120282
0.01099837
0.0110317556
0.0106985042
0.0106619807
0.0107059759
0.0110032632
0.0110311059
0.0106973352
0.0106577462
0.0107016301
0.011004125
0.0110299843
0.0106989001
0.0106574862
0.0107008412
0.0110041298
0.0110284858
0.0107017558
0.0106578201
0.0107003804
0.0110039581
0.0110270283
0.0107039402
)
;

boundaryField
{
    closed
    {
        type            calculated;
        value           nonuniform List<scalar> 0();
    }
    open
    {
        type            calculated;
        value           nonuniform List<scalar> 0();
    }
    sides
    {
        type            empty;
    }
    procBoundary2to1
    {
        type            processor;
        value           uniform 0.0110083;
    }
    procBoundary2to3
    {
        type            processor;
        value           uniform 0.0106578231;
    }
}


// ************************************************************************* //
