/*--------------------------------*- C++ -*----------------------------------*\
| =========                 |                                                 |
| \\      /  F ield         | OpenFOAM: The Open Source CFD Toolbox           |
|  \\    /   O peration     | Version:  2306                                  |
|   \\  /    A nd           | Website:  www.openfoam.com                      |
|    \\/     M anipulation  |                                                 |
\*---------------------------------------------------------------------------*/
FoamFile
{
    version     2.0;
    format      ascii;
    arch        "LSB;label=32;scalar=64";
    class       volScalarField;
    location    "0.00154";
    object      p;
}
// * * * * * * * * * * * * * * * * * * * * * * * * * * * * * * * * * * * * * //

dimensions      [1 -1 -2 0 0 0 0];

internalField   nonuniform List<scalar> 
530
(
101277.66
101276.734
101276.331
101274.417
101273.786
101272.724
101271.449
101269.798
101269.241
101267.663
101266.197
101264.583
101262.746
101262.236
101260.726
101259.322
101257.79
101255.851
101255.768
101254.254
101253.062
101252.018
101251.007
101250.076
101249.158
101248.328
101247.436
101246.545
101245.579
101244.393
101244.663
101243.847
101243.17
101242.625
101242.197
101241.838
101241.567
101241.323
101241.211
101241.134
101240.981
101241.137
101241.277
101241.522
101241.667
101242.015
101242.221
101243.001
101243.242
101243.818
101244.485
101245.366
101246.599
101246.4
101247.415
101248.471
101249.507
101250.58
101251.661
101252.925
101254.315
101255.565
101257.007
101258.602
101260.199
101261.033
101264.555
101265.695
101267.585
101269.611
101271.686
101274.637
101276.86
101279.273
101281.935
101284.954
101288.249
101291.431
101294.832
101298.404
101302.172
101305.927
101310.021
101314.495
101319.329
101324.512
101329.997
101335.424
101341.019
101346.969
101353.403
101359.62
101367.08
101373.937
101381.011
101388.908
101397.629
101405.758
101414.618
101424.459
101434.932
101445.894
101456.595
101467.689
101479.747
101492.795
101505.355
101518.166
101531.772
101546.318
101559.447
101573.231
101587.58
101601.973
101616.457
101628.985
101641.832
101654.794
101667.548
101680.123
101690.553
101700.919
101710.858
101720.096
101728.987
101736.547
101745.234
101752.7
101758.923
101761.854
101763.748
101764.684
101764.629
101763.735
101761.421
101757.795
101752.835
101746.583
101739.5
101731.822
101723.108
101712.826
101701.459
101689.471
101677.649
101664.902
101650.7
101635.738
101620.436
101606.024
101590.875
101573.918
101556.827
101541.057
101524.874
101507.768
101490.614
101473.37
101457.384
101443.665
101427.502
101411.032
101395.65
101380.951
101366.287
101352.356
101338.716
101326.415
101314.534
101302.571
101291.053
101279.731
101269.793
101260.751
101252.621
101245.444
101232.8
101225.322
101221.922
101217.931
101213.819
101210.621
101207.978
101206.202
101205.034
101204.316
101204.221
101204.313
101204.818
101205.464
101206.186
101207.104
101207.975
101209.064
101210.177
101211.389
101212.848
101214.652
101216.822
101219.306
101222.436
101226.062
101229.872
101233.561
101237.585
101241.963
101246.383
101250.549
101254.954
101259.315
101263.657
101267.683
101271.483
101275.328
101279.257
101282.914
101286.194
101289.581
101293.249
101296.954
101300.501
101304.203
101308.098
101311.72
101314.789
101317.681
101320.457
101322.886
101324.888
101326.815
101328.682
101330.357
101331.707
101333.017
101334.18
101335.183
101335.981
101336.55
101337.07
101337.461
101337.703
101337.68
101337.578
101337.301
101336.813
101336.161
101335.3
101334.333
101333.109
101331.74
101330.264
101328.772
101327.191
101325.507
101323.879
101322.25
101320.686
101319.126
101317.559
101316.11
101314.733
101313.478
101312.208
101311.066
101310.058
101309.265
101308.631
101308.146
101307.868
101307.708
101307.739
101307.929
101308.262
101308.706
101309.188
101309.792
101310.501
101311.32
101312.216
101313.156
101314.066
101315.073
101316.151
101317.285
101318.413
101319.531
101320.737
101322.011
101323.218
101324.492
101325.842
101327.245
101328.708
101330.146
101331.545
101333.056
101334.66
101336.344
101337.991
101339.63
101341.382
101343.246
101345.198
101347.086
101348.952
101350.907
101352.96
101355.084
101357.084
101359.012
101360.975
101363.012
101365.168
101367.14
101368.946
101370.675
101372.568
101374.386
101376.104
101377.806
101379.529
101381.347
101382.85
101384.337
101385.897
101387.489
101389.046
101390.336
101391.567
101392.712
101393.756
101394.681
101395.361
101395.94
101396.38
101396.673
101396.849
101396.786
101396.64
101396.356
101395.868
101395.291
101394.672
101393.951
101393.115
101392.214
101391.266
101390.358
101389.463
101388.523
101387.624
101386.812
101386.031
101385.591
101384.954
101384.613
101384.434
101384.45
101384.655
101385.128
101385.85
101386.719
101387.944
101389.54
101391.487
101393.899
101396.698
101399.566
101402.968
101406.98
101411.649
101416.191
101421.376
101427.296
101433.869
101441.602
101446.569
101454.306
101462.511
101471.557
101479.927
101489.061
101499.43
101510.165
101520.188
101531.018
101543.083
101555.344
101566.489
101578.166
101590.67
101602.897
101613.529
101624.209
101635.163
101645.788
101655.276
101665.364
101676.201
101686.839
101695.869
101704.892
101713.606
101722.777
101731.822
101739.202
101746.826
101754.609
101762.52
101769.457
101776.41
101782.801
101788.508
101792.853
101796.896
101800.286
101803.326
101805.497
101807.514
101808.767
101809.848
101810.724
101810.709
101810.512
101809.422
101808.122
101806.4
101804.226
101800.013
101791.45
101792.456
101789.591
101786.234
101784.519
101782.063
101781.398
101781.153
101780.757
101781.086
101775.058
101772.793
101768.845
101764.451
101759.96
101755.483
101751.146
101746.912
101743.004
101739.232
101735.535
101731.652
101728.011
101724.646
101721.424
101717.775
101713.984
101710.1
101706.162
101702.363
101698.238
101694.375
101690.836
101687.792
101684.869
101682.433
101680.549
101679.055
101677.98
101676.67
101675.26
101673.611
101671.314
101667.768
101661.111
101662.868
101662.084
101660.111
101657.782
101654.654
101651.27
101647.602
101643.847
101639.647
101635.373
101631.287
101627.568
101624.408
101621.385
101619.039
101617.661
101617.373
101617.929
101618.519
101619.362
101621.24
101622.839
101623.744
101624.557
101625.245
101625.359
101625.538
101625.291
101624.733
101623.901
101622.948
101621.639
101620.463
101619.521
101618.929
101618.496
101618.426
101618.685
101619.252
101620.1
101620.895
101621.726
101622.468
101623.133
101623.769
101624.158
101624.464
101624.654
101624.819
101625.067
101625.204
101625.367
101625.507
101625.69
101626.012
101626.266
)
;

boundaryField
{
    closed
    {
        type            zeroGradient;
    }
    open
    {
        type            waveTransmissive;
        gamma           1.25;
        fieldInf        101325;
        lInf            1;
        value           nonuniform List<scalar> 0();
    }
    sides
    {
        type            empty;
    }
    procBoundary2to1
    {
        type            processor;
        value           uniform 101278.531;
    }
    procBoundary2to3
    {
        type            processor;
        value           uniform 101626.564;
    }
}


// ************************************************************************* //
