/*--------------------------------*- C++ -*----------------------------------*\
| =========                 |                                                 |
| \\      /  F ield         | OpenFOAM: The Open Source CFD Toolbox           |
|  \\    /   O peration     | Version:  2306                                  |
|   \\  /    A nd           | Website:  www.openfoam.com                      |
|    \\/     M anipulation  |                                                 |
\*---------------------------------------------------------------------------*/
FoamFile
{
    version     2.0;
    format      ascii;
    arch        "LSB;label=32;scalar=64";
    class       volScalarField;
    location    "0.00154";
    object      prefDh_T;
}
// * * * * * * * * * * * * * * * * * * * * * * * * * * * * * * * * * * * * * //

dimensions      [1 1 -3 -1 0 0 0];

internalField   nonuniform List<scalar> 
530
(
-0.000591749504
-0.000518451882
-0.000518448746
-0.000744655287
-0.000745025549
-0.000591929506
-0.000518810983
-0.000518796827
-0.000744931299
-0.000744868488
-0.000592255388
-0.000519493607
-0.00051943993
-0.000744769865
-0.000744449171
-0.000593074223
-0.000519657071
-0.00051966348
-0.000744083847
-0.000742405617
-0.000596504649
-0.000515151279
-0.000520408656
-0.000738625521
-0.00074225112
-0.000636755362
-0.000552034499
-0.000524608393
-0.000471034668
-0.000471124958
-0.000742159179
-0.000745679184
-0.000743146112
-0.000748496022
-0.000596072832
-0.000588907213
-0.000745663548
-0.000747619827
-0.000591946798
-0.000568568918
-0.000524734337
-0.000524614433
-0.000744509472
-0.000745740999
-0.00059292962
-0.0005069896
-0.000507174729
-0.000740881203
-0.000745216251
-0.000595565578
-0.000538947927
-0.000484502895
-0.000484969007
-0.000734491729
-0.00074194509
-0.00073199315
-0.000741804312
-0.000645911964
-0.000517322008
-0.000510365551
-0.000738642409
-0.000742680989
-0.000594865508
-0.000550974885
-0.000518551097
-0.000518465999
-0.000741284231
-0.000745056546
-0.000594683205
-0.000504042943
-0.000504172945
-0.000741157606
-0.000743691638
-0.000593208943
-0.000520688395
-0.000520619257
-0.000739488366
-0.000747309706
-0.000604742708
-0.00058656336
-0.000739582365
-0.000743923391
-0.000613536422
-0.000570771303
-0.000550787541
-0.00048929171
-0.000489897505
-0.000741389555
-0.000745286388
-0.000742194455
-0.000590668022
-0.000501589986
-0.000503305071
-0.000742302228
-0.000747187159
-0.000595461506
-0.000551826274
-0.000747309377
-0.000743571404
-0.000590635457
-0.000508718416
-0.000513096726
-0.00074279652
-0.000748354852
-0.000583116285
-0.000547490495
-0.000747874124
-0.000746555023
-0.000575158634
-0.000553658065
-0.000748115559
-0.000742686527
-0.000592648581
-0.000511441857
-0.000525930333
-0.000745869297
-0.000741267163
-0.000592773386
-0.000505439681
-0.00052680479
-0.000746605219
-0.00073926535
-0.000591442878
-0.000500199324
-0.000525296647
-0.000746731403
-0.000738572778
-0.000581686868
-0.000574023959
-0.000749960062
-0.000737159664
-0.000591997189
-0.000513245625
-0.000550284551
-0.000747960976
-0.000736713328
-0.000591349112
-0.00050970991
-0.000552721425
-0.00074818973
-0.00073604234
-0.000592360643
-0.000508728558
-0.000556052223
-0.000749573733
-0.000735173093
-0.000592598823
-0.000502083152
-0.000551154378
-0.000748044664
-0.00073043253
-0.000575837436
-0.00058595589
-0.000753464246
-0.000735395025
-0.000592632166
-0.000511450234
-0.000560905971
-0.000748618188
-0.00073426626
-0.000579602218
-0.00058842976
-0.000752985529
-0.00073844203
-0.000592634418
-0.000517778492
-0.00056833994
-0.000750424301
-0.000740848936
-0.000591487745
-0.000509645292
-0.000557853527
-0.000746477109
-0.000741709674
-0.000585572408
-0.000586813827
-0.000749826202
-0.000742841826
-0.000592261799
-0.000518499844
-0.000563128818
-0.00074586451
-0.000743054825
-0.000589884912
-0.000525277266
-0.000566480332
-0.000744125692
-0.000741991797
-0.000590823371
-0.000534536049
-0.000571476803
-0.000743489992
-0.0007414881
-0.000591498643
-0.000556348287
-0.000552666213
-0.000501841294
-0.000524261222
-0.000738932182
-0.000744963084
-0.000567526856
-0.000556256409
-0.000735169543
-0.000743605932
-0.000573109462
-0.000562916671
-0.000736250368
-0.000742316828
-0.000596560011
-0.00048495595
-0.000509181356
-0.000734723611
-0.000745753048
-0.000574689571
-0.000547219738
-0.000730314207
-0.000745497468
-0.000563280263
-0.000541792037
-0.000732766381
-0.000746881537
-0.000560118444
-0.000540263179
-0.000734009658
-0.000747188003
-0.000562700434
-0.000545615511
-0.000736289878
-0.000746606538
-0.000569300125
-0.000552084153
-0.000738804836
-0.000744592283
-0.000596629735
-0.000486495619
-0.000509856547
-0.000739791683
-0.000748182851
-0.000586499038
-0.000561209881
-0.000740963836
-0.000744338751
-0.000593866569
-0.000502867793
-0.000525112797
-0.000741852351
-0.000749693181
-0.000597140794
-0.000571481693
-0.000743162344
-0.000745442358
-0.000593744803
-0.000510170632
-0.000532749005
-0.00074621581
-0.000745279497
-0.000590556314
-0.000509141728
-0.000529566286
-0.000743363127
-0.0007493649
-0.000589696363
-0.000566082368
-0.000745347524
-0.000744780208
-0.000591863063
-0.000520324528
-0.000540428981
-0.000746887186
-0.000743331575
-0.000590496844
-0.000514796171
-0.00053882753
-0.000741142174
-0.000746144677
-0.000617569335
-0.000572502297
-0.000506011626
-0.000520886145
-0.000746731419
-0.000745308772
-0.00059087824
-0.000511370124
-0.000595599621
-0.000748261152
-0.000595958692
-0.000563197204
-0.000747762029
-0.000747290384
-0.000745473635
-0.000596301703
-0.00047287247
-0.000507293884
-0.000742196973
-0.000743629864
-0.000593784849
-0.000521419991
-0.000538013562
-0.000747495342
-0.000743925065
-0.000591132942
-0.000520359984
-0.00053418963
-0.000748357666
-0.000744999752
-0.000590795981
-0.000519307352
-0.000532997117
-0.00074822491
-0.000744903098
-0.000591433994
-0.000519662086
-0.000533390028
-0.000748549694
-0.000743214019
-0.000590835049
-0.000511255993
-0.000524326801
-0.000745253831
-0.000746681486
-0.000571073179
-0.000533356016
-0.000750439628
-0.000743067885
-0.000591792345
-0.000497995144
-0.000510468214
-0.000748427725
-0.000742736546
-0.000593032158
-0.000489500521
-0.00050335216
-0.000747945132
-0.000742245823
-0.000594618194
-0.000448121925
-0.00048908559
-0.000745633451
-0.000743629954
-0.000742689147
-0.000590997166
-0.000536458143
-0.000752176025
-0.000741514504
-0.00059457336
-0.000492019566
-0.000504013645
-0.00074852586
-0.000741990793
-0.000592650061
-0.000489147349
-0.000508097942
-0.000745620271
-0.000743871853
-0.000581215555
-0.000562034041
-0.000751132694
-0.000739960401
-0.000593055729
-0.000526083366
-0.000535291644
-0.000747918808
-0.000742285165
-0.000595375171
-0.000552182738
-0.00050626763
-0.000510429472
-0.000747976274
-0.00074241746
-0.000547854531
-0.000528958866
-0.000752498093
-0.000738994285
-0.000598728617
-0.000460922264
-0.000483244068
-0.000743718881
-0.000745315704
-0.000545539221
-0.000526402261
-0.000747219932
-0.000742612826
-0.000542119847
-0.000538383851
-0.000747529558
-0.000740957833
-0.000543828139
-0.000544307621
-0.000748179754
-0.000738813605
-0.000545052363
-0.000550568679
-0.000748925814
-0.000735979827
-0.000547928509
-0.000560968425
-0.000750018677
-0.000733061858
-0.00055016794
-0.000565476125
-0.000753333199
-0.000733951178
-0.000589351355
-0.000459264955
-0.000515419891
-0.000745524331
-0.000727903778
-0.000535949188
-0.00055241761
-0.000749109779
-0.000722635605
-0.000540211205
-0.00057408636
-0.000749897978
-0.000719598183
-0.000548107378
-0.000584886856
-0.00075271096
-0.000728380118
-0.000574367858
-0.000465864154
-0.000546489428
-0.000744840619
-0.000715812632
-0.000541780547
-0.000578956236
-0.00074777822
-0.000711810942
-0.000549972911
-0.00060140789
-0.000747593783
-0.000709120957
-0.000556985546
-0.000604266084
-0.000748125619
-0.000720059374
-0.000565769526
-0.000431715174
-0.000554031178
-0.000740193259
-0.000739815489
-0.000730492312
-0.000732787903
-0.000657150538
-0.000478636571
-0.000467239205
-0.000451123451
-0.00055003267
-0.000743441637
-0.000689932974
-0.00053536097
-0.000606417779
-0.000749216532
-0.000720325003
-0.000587821705
-0.000502344018
-0.000595345871
-0.000742149301
-0.000706600827
-0.000569633558
-0.000603246086
-0.00075005602
-0.000726008964
-0.000590649414
-0.000518812341
-0.000591254251
-0.000748917978
-0.000729591584
-0.000593851105
-0.000502591312
-0.000591237381
-0.000749889416
-0.000729431997
-0.000596081136
-0.000488787856
-0.000593921913
-0.000745451364
-0.000716366398
-0.00055573088
-0.000605017477
-0.000751714245
-0.000729617335
-0.00059068606
-0.000502138011
-0.000591657449
-0.000749382118
-0.000733070217
-0.000578804894
-0.000479820028
-0.000595669162
-0.000746454978
-0.000722053193
-0.00054765877
-0.000608469618
-0.000752857509
-0.000730727914
-0.000573560035
-0.000485073174
-0.000596375428
-0.000744453629
-0.000726110818
-0.000549139464
-0.0006059738
-0.000749336627
-0.000723479665
-0.000558587051
-0.000608214971
-0.000752818647
-0.000734091715
-0.000593638738
-0.000510845017
-0.000592908757
-0.00074959074
-0.000738920306
-0.000594958126
-0.000499785638
-0.000593456629
-0.000749113331
-0.000739868159
-0.000595085386
-0.000498953265
-0.000594051237
-0.000749028696
-0.000740380369
-0.0005944032
-0.000499891895
-0.000594294432
-0.000749132742
-0.000741061237
-0.000593689904
)
;

boundaryField
{
    closed
    {
        type            calculated;
        value           nonuniform List<scalar> 0();
    }
    open
    {
        type            calculated;
        value           nonuniform List<scalar> 0();
    }
    sides
    {
        type            empty;
    }
    procBoundary2to1
    {
        type            processor;
        value           uniform -0.000745095453;
    }
    procBoundary2to3
    {
        type            processor;
        value           uniform -0.000500475203;
    }
}


// ************************************************************************* //
