/*--------------------------------*- C++ -*----------------------------------*\
| =========                 |                                                 |
| \\      /  F ield         | OpenFOAM: The Open Source CFD Toolbox           |
|  \\    /   O peration     | Version:  2306                                  |
|   \\  /    A nd           | Website:  www.openfoam.com                      |
|    \\/     M anipulation  |                                                 |
\*---------------------------------------------------------------------------*/
FoamFile
{
    version     2.0;
    format      ascii;
    arch        "LSB;label=32;scalar=64";
    class       volScalarField;
    location    "0.00154";
    object      prefDh_H;
}
// * * * * * * * * * * * * * * * * * * * * * * * * * * * * * * * * * * * * * //

dimensions      [1 1 -3 0 0 0 0];

internalField   nonuniform List<scalar> 
530
(
23386.3246
23097.7067
23098.4686
23950.1361
23955.4847
23387.552
23098.9614
23099.661
23951.1899
23954.9241
23389.3734
23101.3041
23101.8251
23950.4894
23953.3657
23393.0618
23101.7111
23102.0805
23947.4694
23945.5058
23409.1706
23084.4578
23104.2861
23923.4751
23946.2753
23556.4922
23217.6402
23117.6617
22928.9414
22929.5791
23934.8695
23956.9811
23947.0533
23970.0462
23386.7254
23350.4313
23953.0797
23968.998
23382.8257
23277.5785
23120.0571
23120.9752
23945.7697
23957.7062
23378.887
23056.2037
23058.8331
23934.4953
23956.2733
23388.3033
23170.2034
22975.4504
22978.4748
23900.5387
23941.9509
23898.1183
23942.2209
23587.9019
23092.9934
23067.3336
23921.2108
23946.9364
23387.0722
23213.0895
23097.3954
23098.2957
23931.7154
23954.7649
23383.8371
23045.8163
23047.525
23933.8718
23950.0387
23395.3121
23104.7808
23106.9968
23927.7137
23965.9928
23406.5943
23340.7173
23925.9636
23955.1019
23474.5977
23284.5025
23212.0536
22993.3515
22996.5973
23931.6868
23958.6103
23944.0984
23380.7234
23037.0163
23045.5993
23938.5299
23963.8145
23371.8508
23216.9581
23957.8951
23950.2842
23375.4465
23061.6721
23081.2882
23940.5856
23967.9515
23326.5198
23203.2799
23959.6895
23961.6754
23298.8359
23224.8436
23961.4855
23945.9099
23379.6395
23071.9209
23126.4432
23953.903
23939.0538
23382.6267
23050.8671
23129.5815
23956.6241
23930.4893
23377.0574
23032.024
23125.5171
23958.1079
23926.9968
23321.7795
23298.2204
23971.0474
23922.9107
23376.8139
23078.5006
23214.8699
23963.3224
23919.8545
23377.2022
23065.9689
23223.7247
23964.6621
23916.7186
23378.2482
23062.6701
23235.5237
23970.2992
23912.6545
23375.525
23038.7862
23218.6432
23964.6407
23891.3007
23302.1924
23340.3524
23986.8093
23914.4381
23372.8889
23071.8258
23253.4544
23967.5023
23906.7966
23315.753
23348.5894
23985.4981
23927.1674
23374.2476
23094.5776
23278.9777
23974.4268
23936.0237
23372.0869
23065.3724
23241.2254
23958.6063
23937.8915
23337.645
23341.2887
23972.3864
23945.699
23372.9748
23096.6506
23259.4053
23955.5182
23946.044
23375.5248
23120.8255
23270.3956
23948.4555
23942.4964
23383.2392
23153.713
23287.4415
23945.7198
23941.5727
23387.7645
23230.795
23220.6571
23037.3678
23118.8458
23925.3012
23950.304
23272.9253
23230.8166
23909.2119
23946.694
23293.6358
23254.4183
23913.8657
23942.5816
23380.9742
22976.0481
23065.411
23909.2502
23953.458
23297.5322
23199.4037
23888.5095
23953.4329
23257.2036
23180.154
23898.2222
23959.1143
23246.3228
23174.9778
23903.0865
23960.6338
23255.8689
23193.8644
23912.4876
23959.0973
23280.0347
23216.8093
23923.3358
23951.7359
23381.5525
22982.5271
23068.2081
23929.2831
23965.1928
23340.7907
23249.5205
23932.4814
23951.657
23377.0709
23040.7062
23123.0752
23938.4074
23972.2838
23378.4301
23286.7945
23941.9425
23956.6112
23379.1464
23067.4234
23149.355
23955.9367
23955.1416
23374.5039
23063.3505
23138.7257
23944.6251
23971.2671
23351.5662
23267.3738
23950.8951
23954.5312
23380.4663
23103.5824
23175.9962
23959.0938
23948.2913
23380.5279
23082.7332
23171.3815
23934.5929
23961.7088
23489.2516
23291.7752
23052.2522
23107.0013
23958.3075
23955.4028
23379.8799
23071.6701
23373.4483
23962.3246
23384.7691
23258.0986
23955.7027
23968.1451
23953.1599
23382.2471
22934.3078
23058.665
23940.9488
23949.3407
23391.7639
23107.5687
23166.8758
23962.2325
23951.1909
23383.9051
23104.1825
23154.2488
23965.664
23955.2153
23382.0603
23100.5943
23150.0748
23965.4531
23954.8543
23382.8402
23101.8049
23150.8992
23967.0027
23948.1628
23379.8605
23070.8815
23119.6517
23953.1566
23961.3526
23285.0965
23150.4077
23972.3544
23947.1636
23386.1005
23024.5578
23069.397
23966.4745
23944.8534
23382.7443
22993.9515
23043.9835
23964.6878
23941.6992
23382.465
22846.8681
22994.4559
23950.6216
23951.5162
23943.909
23356.2441
23160.2785
23981.7966
23940.9953
23382.3459
23002.8786
23046.6498
23967.6471
23941.7751
23380.5507
22992.2646
23061.7529
23955.7255
23950.8815
23320.401
23251.2255
23977.7369
23937.1874
23393.0483
23123.6801
23157.6641
23966.5838
23945.7178
23387.3001
23216.3628
23053.8867
23068.9832
23962.7078
23944.1093
23202.1899
23133.6366
23982.1836
23929.5248
23388.1014
22891.1099
22974.233
23947.6929
23953.8275
23191.7521
23126.8796
23960.6332
23943.8897
23180.0634
23169.7576
23962.0127
23936.9355
23186.4804
23191.1865
23964.7496
23927.7647
23191.3071
23213.7421
23967.8204
23915.8435
23202.1144
23250.7778
23972.2669
23904.4776
23211.0237
23265.8265
23986.5999
23907.4766
23351.7733
22886.0973
23090.6351
23954.6563
23878.6574
23159.3554
23221.0936
23968.4221
23857.8602
23175.2895
23298.1216
23971.8718
23846.2234
23204.279
23336.0071
23984.5488
23883.316
23297.7155
22909.4582
23202.4848
23952.2808
23826.4645
23180.4208
23315.3647
23964.1148
23811.3522
23209.9657
23394.4993
23963.9467
23801.8386
23235.0802
23403.8327
23967.8543
23848.6788
23264.6583
22786.5339
23229.4734
23931.7819
23932.7657
23890.7781
23905.4023
23626.1661
22952.0607
22910.6889
22857.7907
23209.192
23945.5742
23736.3622
23158.4041
23409.4779
23972.1978
23850.1691
23345.3992
23036.8247
23378.8711
23943.3758
23791.8743
23280.1788
23405.4199
23976.764
23875.1472
23370.0813
23097.4987
23369.0575
23971.2693
23886.8749
23375.4557
23040.421
23367.593
23974.5143
23884.9733
23377.5441
22990.3395
23373.4002
23955.4532
23825.2419
23232.1061
23407.8955
23983.0106
23886.7373
23357.7253
23038.4786
23368.3605
23972.573
23898.6795
23314.4667
22958.7608
23377.395
23959.0025
23847.9145
23203.9072
23416.1813
23986.9696
23890.6888
23296.4718
22976.5137
23379.0459
23951.6251
23864.2616
23207.6337
23404.8466
23972.006
23855.974
23243.0322
23418.579
23987.5158
23906.6965
23373.5595
23069.1073
23373.3058
23973.9346
23924.3774
23377.0483
23029.9408
23373.8053
23971.8704
23928.2419
23377.7958
23026.9513
23375.3127
23971.5637
23930.6845
23376.544
23030.2928
23375.8955
23972.0071
23933.7192
23375.0396
)
;

boundaryField
{
    closed
    {
        type            calculated;
        value           nonuniform List<scalar> 0();
    }
    open
    {
        type            calculated;
        value           nonuniform List<scalar> 0();
    }
    sides
    {
        type            empty;
    }
    procBoundary2to1
    {
        type            processor;
        value           uniform 23955.7267;
    }
    procBoundary2to3
    {
        type            processor;
        value           uniform 23032.5186;
    }
}


// ************************************************************************* //
