/*--------------------------------*- C++ -*----------------------------------*\
| =========                 |                                                 |
| \\      /  F ield         | OpenFOAM: The Open Source CFD Toolbox           |
|  \\    /   O peration     | Version:  2306                                  |
|   \\  /    A nd           | Website:  www.openfoam.com                      |
|    \\/     M anipulation  |                                                 |
\*---------------------------------------------------------------------------*/
FoamFile
{
    version     2.0;
    format      ascii;
    arch        "LSB;label=32;scalar=64";
    class       volScalarField;
    location    "0.00144";
    object      PV;
}
// * * * * * * * * * * * * * * * * * * * * * * * * * * * * * * * * * * * * * //

dimensions      [0 0 0 0 0 0 0];

internalField   nonuniform List<scalar> 
530
(
-0.00716356616
-0.00715111508
-0.00694209156
-0.00692554767
-0.00705838307
-0.00716213142
-0.00715332803
-0.00694423987
-0.00692554956
-0.00705344923
-0.00715981758
-0.00715572196
-0.00694675986
-0.00692576439
-0.00704712356
-0.00715780951
-0.00715818694
-0.00695018713
-0.00692594647
-0.00703700414
-0.00715270782
-0.00715462879
-0.00695816396
-0.00692454648
-0.00702625347
-0.00713515867
-0.00714148445
-0.00716471222
-0.00716533843
-0.00697357158
-0.00693181646
-0.00693278719
-0.00692738175
-0.00704747362
-0.00711507455
-0.0069912416
-0.00692787728
-0.00704429495
-0.00714082218
-0.00716455308
-0.00716552257
-0.00698852436
-0.00692943119
-0.00703342189
-0.00715782195
-0.00716349519
-0.00698145374
-0.006925832
-0.00703742563
-0.00713634762
-0.00716440411
-0.00716440626
-0.00697437813
-0.00693120537
-0.00693126832
-0.00692851332
-0.00702118359
-0.00715501523
-0.00716135006
-0.00697603825
-0.00692531375
-0.0070481537
-0.00714395966
-0.00716598643
-0.00716544215
-0.00696963804
-0.00692788373
-0.00704758799
-0.00716246369
-0.0071584148
-0.00695006191
-0.00692775425
-0.00705338811
-0.00716014016
-0.00714376562
-0.00693739271
-0.00692721055
-0.00708279236
-0.00711407505
-0.0069680567
-0.00692727426
-0.0070408638
-0.00714506349
-0.00714579704
-0.00716200432
-0.00714782306
-0.00696393787
-0.00692494146
-0.00693658152
-0.00708624866
-0.00716424212
-0.00713089927
-0.0069313471
-0.00693394456
-0.00711799564
-0.007138119
-0.00696845858
-0.00693470011
-0.00708461374
-0.00717028296
-0.0070803693
-0.00693568037
-0.00702950769
-0.00714171841
-0.00702962653
-0.00693249273
-0.00701907387
-0.00715061492
-0.00713037021
-0.00692923713
-0.00693247349
-0.00708017861
-0.00716802528
-0.00714010668
-0.00692834706
-0.00693241289
-0.0070935244
-0.007174397
-0.00714261499
-0.0069278236
-0.00693096997
-0.00710747858
-0.00717091633
-0.00708757824
-0.00693047697
-0.00696909612
-0.00714814462
-0.00713758578
-0.00692507717
-0.00692933776
-0.00709355191
-0.00716902804
-0.0071316102
-0.00692518918
-0.00692737538
-0.00710303035
-0.00717034846
-0.00712841323
-0.00692530009
-0.00692720907
-0.00711071223
-0.00717192443
-0.00712392753
-0.00692711286
-0.00692612976
-0.007128525
-0.0071723076
-0.00707137495
-0.00693042146
-0.00698425682
-0.00714578053
-0.00712559179
-0.0069281321
-0.00692613265
-0.00713250768
-0.00717089197
-0.00703521867
-0.00692949892
-0.00702352665
-0.00714421102
-0.00710030505
-0.0069270963
-0.00692515917
-0.00712494646
-0.0071733896
-0.0071111622
-0.00693241167
-0.00692549791
-0.00714458974
-0.00717609684
-0.00700814038
-0.00692792269
-0.00709480427
-0.00714191402
-0.00695700891
-0.0069271069
-0.00702917917
-0.00714665925
-0.00715989896
-0.00705898551
-0.00692909902
-0.00693179361
-0.00713346419
-0.00716958196
-0.0070776594
-0.00693349457
-0.00692547726
-0.00713785843
-0.00716348347
-0.00701450097
-0.00693088059
-0.00695943508
-0.00713721636
-0.00716079365
-0.00718059588
-0.00717928378
-0.00694411029
-0.00692796855
-0.00713133466
-0.00714732487
-0.00694256178
-0.0069261082
-0.00712782994
-0.00714160401
-0.00693902589
-0.00692877393
-0.00709966014
-0.00718179978
-0.00715662221
-0.00693685717
-0.00692570109
-0.00713545184
-0.00715276321
-0.00694338629
-0.00692839265
-0.00713971645
-0.00715359856
-0.00694307941
-0.00692898778
-0.00714077972
-0.00715377519
-0.00694211577
-0.00692950435
-0.00714018476
-0.00715144841
-0.00694044465
-0.00692946436
-0.00713659809
-0.00714424451
-0.00693644221
-0.00692745771
-0.0071244365
-0.00718530333
-0.00713980584
-0.0069356153
-0.00692937929
-0.00713699384
-0.0071404577
-0.00693277802
-0.00692643365
-0.00711836742
-0.00717718204
-0.0071223541
-0.00693386648
-0.00693696147
-0.0071388709
-0.00713116598
-0.0069299
-0.00692507784
-0.00711712011
-0.00717159944
-0.0071272753
-0.00693013836
-0.00692381033
-0.00711621592
-0.0071759501
-0.0071275511
-0.00693167475
-0.00692620298
-0.00713386896
-0.00713475461
-0.00692778151
-0.00692487162
-0.00711004023
-0.00716924147
-0.00713143881
-0.00692775655
-0.00692485627
-0.00707705469
-0.0071594954
-0.00713393374
-0.00692669865
-0.00692384838
-0.00705800799
-0.00715013575
-0.00716460863
-0.0071420118
-0.00692371409
-0.00692475394
-0.00710639002
-0.00717075585
-0.00713116303
-0.00692614179
-0.00692323425
-0.00713410607
-0.00713312991
-0.00692131681
-0.00692604464
-0.00710699528
-0.00716806609
-0.00713022354
-0.00692291131
-0.00692459019
-0.00709175418
-0.00716339249
-0.00713268832
-0.00692146304
-0.00692510655
-0.00709061392
-0.00716418679
-0.00713334742
-0.00692121815
-0.00692512366
-0.00709283625
-0.00716529925
-0.00713481089
-0.00692110513
-0.00692496395
-0.00709076353
-0.00716555044
-0.00713603463
-0.00692117626
-0.00692506604
-0.00708709294
-0.00716467608
-0.00713703981
-0.00692140229
-0.0069249478
-0.00708598004
-0.00716432657
-0.00713810654
-0.00692169186
-0.00692467371
-0.00708863375
-0.00716517309
-0.00713959939
-0.00692179296
-0.00692395067
-0.00710248784
-0.00717077521
-0.00714416518
-0.00692143252
-0.00692580168
-0.00711654292
-0.0071903473
-0.00714852876
-0.00693190995
-0.00692468271
-0.00692814011
-0.00714038252
-0.007156867
-0.00692234883
-0.0069279823
-0.00711858929
-0.00717726951
-0.00714796568
-0.00692462884
-0.00692441431
-0.00710390824
-0.00717047613
-0.00714408802
-0.00692668271
-0.00692078562
-0.00712741145
-0.00713537314
-0.00692564305
-0.00692546299
-0.00709058515
-0.00716246972
-0.00714154099
-0.00692668014
-0.00692293237
-0.00709028054
-0.00715738143
-0.00716517818
-0.00716399011
-0.00692736977
-0.00692256546
-0.00713792471
-0.00714928482
-0.00693087291
-0.00692641559
-0.00712465171
-0.00718458752
-0.0071607952
-0.00693275619
-0.00692286679
-0.00714037461
-0.00715309615
-0.00693688387
-0.00692470224
-0.00714193076
-0.00715288704
-0.00693801283
-0.00692528817
-0.00714161604
-0.00715327362
-0.00693875743
-0.00692550179
-0.00714127874
-0.00715334926
-0.00693916997
-0.00692535101
-0.00713983631
-0.0071520336
-0.00693875363
-0.00692454468
-0.0071359539
-0.00714612956
-0.00693753616
-0.00692805618
-0.00713179958
-0.00719032169
-0.00716282741
-0.00693555044
-0.00692333657
-0.00714154532
-0.0071564734
-0.00694029694
-0.00692495869
-0.00714011119
-0.00715267317
-0.00693933104
-0.00692410366
-0.0071343959
-0.00714387356
-0.00693721411
-0.00692756517
-0.00713037772
-0.00718707603
-0.00715752154
-0.00693499999
-0.00692252679
-0.00713936035
-0.00715293281
-0.00693926281
-0.00692429535
-0.0071347291
-0.00714750541
-0.00693790845
-0.00692375865
-0.00712805443
-0.00713753997
-0.00693491271
-0.0069275398
-0.00711733712
-0.00718185085
-0.0071400439
-0.00693578249
-0.00693166417
-0.00693054677
-0.00695347441
-0.00714632452
-0.00717240626
-0.00715785345
-0.00717495258
-0.00716384942
-0.00693204521
-0.00692222993
-0.00712546107
-0.00713761953
-0.00693407867
-0.00692588975
-0.00710302968
-0.00716422195
-0.00714208205
-0.00693124778
-0.00692036717
-0.00711855164
-0.00713016475
-0.00693213992
-0.00692461788
-0.00709892277
-0.00716127497
-0.00713724911
-0.00692823006
-0.00692285692
-0.00710343397
-0.00716407753
-0.00714231635
-0.00692727263
-0.00692328994
-0.00711016615
-0.00716952653
-0.00715058734
-0.00692862867
-0.00692079327
-0.00712762432
-0.00713868782
-0.00692881694
-0.00692408492
-0.00711155976
-0.00716754136
-0.00714720565
-0.00692573971
-0.00692342249
-0.00711632873
-0.00717353854
-0.00715440683
-0.00692711472
-0.00692144432
-0.00713478257
-0.00714308377
-0.00692559066
-0.00692499788
-0.00711876421
-0.00717482841
-0.00715473356
-0.00692696514
-0.00692178046
-0.00713908933
-0.00714468434
-0.00692511499
-0.00692260917
-0.00713357103
-0.00713667712
-0.00692130774
-0.00692570258
-0.00710975995
-0.00716663915
-0.00713774409
-0.00692191872
-0.00692455473
-0.0071074165
-0.00716710288
-0.00713726918
-0.00692116969
-0.0069248661
-0.00710548242
-0.00716603429
-0.00713634743
-0.00692082463
-0.00692513511
-0.00710333703
-0.00716501797
-0.00713590298
-0.00692052625
-0.00692537593
-0.00710193461
-0.00716471817
)
;

boundaryField
{
    closed
    {
        type            zeroGradient;
    }
    open
    {
        type            zeroGradient;
    }
    sides
    {
        type            empty;
    }
    procBoundary2to1
    {
        type            processor;
        value           uniform -0.00706269991;
    }
    procBoundary2to3
    {
        type            processor;
        value           uniform -0.00713639785;
    }
}


// ************************************************************************* //
