/*--------------------------------*- C++ -*----------------------------------*\
| =========                 |                                                 |
| \\      /  F ield         | OpenFOAM: The Open Source CFD Toolbox           |
|  \\    /   O peration     | Version:  2306                                  |
|   \\  /    A nd           | Website:  www.openfoam.com                      |
|    \\/     M anipulation  |                                                 |
\*---------------------------------------------------------------------------*/
FoamFile
{
    version     2.0;
    format      ascii;
    arch        "LSB;label=32;scalar=64";
    class       volScalarField;
    location    "0.00118";
    object      prefDZ_H2;
}
// * * * * * * * * * * * * * * * * * * * * * * * * * * * * * * * * * * * * * //

dimensions      [1 -1 -1 0 0 0 0];

internalField   nonuniform List<scalar> 
530
(
6.22835806e-05
6.34803044e-05
6.36301508e-05
6.22409364e-05
6.16352281e-05
6.22852836e-05
6.34798511e-05
6.36285723e-05
6.21909476e-05
6.16445563e-05
6.22899981e-05
6.34791428e-05
6.3618246e-05
6.21377109e-05
6.1654452e-05
6.22935285e-05
6.34668716e-05
6.36129005e-05
6.2017966e-05
6.16388367e-05
6.17838309e-05
6.23524661e-05
6.3518486e-05
6.35207285e-05
6.35669268e-05
6.35730447e-05
6.18695879e-05
6.14507474e-05
6.23069216e-05
6.34610659e-05
6.3564542e-05
6.18613617e-05
6.16102092e-05
6.18230683e-05
6.23280168e-05
6.35134736e-05
6.35609544e-05
6.18052391e-05
6.15873747e-05
6.23268353e-05
6.34956999e-05
6.35424416e-05
6.17248358e-05
6.15316464e-05
6.23508769e-05
6.35130282e-05
6.34753229e-05
6.35305147e-05
6.35167936e-05
6.15533371e-05
6.14601402e-05
6.17616558e-05
6.23410508e-05
6.35469351e-05
6.34908442e-05
6.16414365e-05
6.15439863e-05
6.18933686e-05
6.23495463e-05
6.36063314e-05
6.35650907e-05
6.22917546e-05
6.19973465e-05
6.23466569e-05
6.35802543e-05
6.35516865e-05
6.16782362e-05
6.15541184e-05
6.23115972e-05
6.3598158e-05
6.33709276e-05
6.22810492e-05
6.23458251e-05
6.36183695e-05
6.35349863e-05
6.2272379e-05
6.20503155e-05
6.21632767e-05
6.19839044e-05
6.22606119e-05
6.34777909e-05
6.36014606e-05
6.34601828e-05
6.16131968e-05
6.136643e-05
6.23006363e-05
6.35425386e-05
6.32309764e-05
6.21436239e-05
6.23488165e-05
6.35788093e-05
6.34842486e-05
6.15281204e-05
6.13992369e-05
6.23084005e-05
6.35545691e-05
6.32367802e-05
6.21159549e-05
6.2351109e-05
6.36076572e-05
6.31948292e-05
6.20717892e-05
6.23539373e-05
6.36007533e-05
6.34390619e-05
6.1553201e-05
6.15047884e-05
6.2313286e-05
6.35598159e-05
6.34473807e-05
6.16167167e-05
6.1576255e-05
6.2321217e-05
6.3567117e-05
6.34091905e-05
6.16252309e-05
6.15979721e-05
6.23167026e-05
6.35822067e-05
6.31903279e-05
6.22033185e-05
6.23223451e-05
6.36067079e-05
6.32961714e-05
6.16334942e-05
6.16405265e-05
6.23179475e-05
6.35736319e-05
6.32914437e-05
6.16971704e-05
6.16919631e-05
6.23248375e-05
6.35773142e-05
6.32721668e-05
6.171485e-05
6.17132123e-05
6.23225624e-05
6.35712949e-05
6.32482529e-05
6.17356863e-05
6.16925772e-05
6.22956006e-05
6.35577157e-05
6.29384539e-05
6.23360908e-05
6.22822824e-05
6.3574778e-05
6.31800988e-05
6.16112332e-05
6.1585849e-05
6.22714506e-05
6.35465074e-05
6.29352536e-05
6.23463824e-05
6.22750774e-05
6.35736195e-05
6.32030452e-05
6.17772864e-05
6.16955492e-05
6.22920284e-05
6.35615804e-05
6.32451406e-05
6.19318094e-05
6.16398344e-05
6.2273158e-05
6.35567164e-05
6.30686375e-05
6.22954218e-05
6.22665614e-05
6.35857897e-05
6.33079699e-05
6.2019837e-05
6.16910574e-05
6.2272404e-05
6.35926981e-05
6.34007579e-05
6.22992409e-05
6.17657172e-05
6.22752327e-05
6.36035509e-05
6.34599342e-05
6.23143209e-05
6.17557169e-05
6.22756719e-05
6.36029658e-05
6.35077972e-05
6.23074468e-05
6.17465511e-05
6.19857608e-05
6.17707547e-05
6.22971649e-05
6.35825758e-05
6.36077304e-05
6.22252453e-05
6.21339745e-05
6.36176963e-05
6.36241258e-05
6.20802136e-05
6.20334831e-05
6.36099506e-05
6.3582923e-05
6.21646972e-05
6.14689679e-05
6.22948059e-05
6.34993552e-05
6.26597566e-05
6.18244679e-05
6.23900537e-05
6.34292453e-05
6.3489583e-05
6.19416527e-05
6.18178731e-05
6.321694e-05
6.35397854e-05
6.18823641e-05
6.13624817e-05
6.30223858e-05
6.3526036e-05
6.22944216e-05
6.1835089e-05
6.29940238e-05
6.35418167e-05
6.22670872e-05
6.202127e-05
6.296531e-05
6.35106896e-05
6.22938498e-05
6.16977611e-05
6.18110547e-05
6.31756661e-05
6.3538938e-05
6.22384877e-05
6.18134091e-05
6.27111985e-05
6.34991541e-05
6.22527988e-05
6.21830313e-05
6.27870989e-05
6.34881962e-05
6.23277073e-05
6.18072622e-05
6.17532689e-05
6.29474279e-05
6.35292598e-05
6.22633656e-05
6.21256911e-05
6.27141569e-05
6.35059565e-05
6.23530011e-05
6.17621797e-05
6.16908449e-05
6.29218708e-05
6.35196628e-05
6.24040498e-05
6.1914662e-05
6.17938411e-05
6.28549859e-05
6.35547369e-05
6.22869333e-05
6.22184746e-05
6.27782531e-05
6.35274906e-05
6.24204011e-05
6.19206593e-05
6.18193661e-05
6.29213195e-05
6.35585372e-05
6.25861808e-05
6.22828275e-05
6.18029529e-05
6.18003234e-05
6.29496595e-05
6.35412822e-05
6.24371441e-05
6.18906923e-05
6.17977771e-05
6.3058108e-05
6.35523279e-05
6.23793979e-05
6.17155811e-05
6.16458184e-05
6.30470858e-05
6.36130972e-05
6.23295766e-05
6.21765055e-05
6.32114438e-05
6.35845206e-05
6.23435235e-05
6.1716521e-05
6.17475888e-05
6.3361039e-05
6.3561397e-05
6.23753415e-05
6.17595381e-05
6.18264532e-05
6.33805452e-05
6.35487062e-05
6.23575148e-05
6.17367295e-05
6.18436643e-05
6.33789193e-05
6.35324169e-05
6.2349013e-05
6.17546242e-05
6.18870369e-05
6.33544145e-05
6.35236458e-05
6.23608629e-05
6.18402263e-05
6.19826164e-05
6.33655572e-05
6.3511602e-05
6.23347176e-05
6.17854165e-05
6.199982e-05
6.34998366e-05
6.35025077e-05
6.23339733e-05
6.17020397e-05
6.18705531e-05
6.31731785e-05
6.34957246e-05
6.23922061e-05
6.17464296e-05
6.17190387e-05
6.23807764e-05
6.35699667e-05
6.3517687e-05
6.2322315e-05
6.16262628e-05
6.17335362e-05
6.29716401e-05
6.34911157e-05
6.23707693e-05
6.17188341e-05
6.18278797e-05
6.29831049e-05
6.34961805e-05
6.23721991e-05
6.17478851e-05
6.18077697e-05
6.29561319e-05
6.35272604e-05
6.23165337e-05
6.21533513e-05
6.28848787e-05
6.35300405e-05
6.24063099e-05
6.17984929e-05
6.1827101e-05
6.29689771e-05
6.3546008e-05
6.23323748e-05
6.22084852e-05
6.29718429e-05
6.35520944e-05
6.23806072e-05
6.20176936e-05
6.19792397e-05
6.16345498e-05
6.16765852e-05
6.2907204e-05
6.35575475e-05
6.23422255e-05
6.20916226e-05
6.30844951e-05
6.35398181e-05
6.23389558e-05
6.1544013e-05
6.15972313e-05
6.30754563e-05
6.35850156e-05
6.23756799e-05
6.19194308e-05
6.30942289e-05
6.35973655e-05
6.23786309e-05
6.18335262e-05
6.31184875e-05
6.35884336e-05
6.23932874e-05
6.17924837e-05
6.31326632e-05
6.35844704e-05
6.24084888e-05
6.176091e-05
6.31673691e-05
6.3583033e-05
6.23758893e-05
6.1746804e-05
6.32577906e-05
6.35752143e-05
6.23298556e-05
6.1772604e-05
6.3422061e-05
6.35195012e-05
6.23396658e-05
6.1166437e-05
6.1201991e-05
6.33396579e-05
6.35687779e-05
6.24309488e-05
6.18042207e-05
6.33451121e-05
6.3591892e-05
6.23816692e-05
6.18201271e-05
6.33379313e-05
6.35845275e-05
6.24027359e-05
6.18130299e-05
6.33581154e-05
6.35273247e-05
6.23320013e-05
6.12379644e-05
6.12676356e-05
6.3264737e-05
6.35798337e-05
6.24301201e-05
6.18942321e-05
6.32801876e-05
6.36060568e-05
6.24273299e-05
6.1949239e-05
6.32909424e-05
6.36014362e-05
6.24109233e-05
6.20017816e-05
6.33388761e-05
6.35318908e-05
6.23729886e-05
6.15772655e-05
6.15927456e-05
6.31456428e-05
6.35679238e-05
6.30238264e-05
6.22946592e-05
6.18475447e-05
6.19634573e-05
6.14522142e-05
6.14776535e-05
6.33025415e-05
6.35441039e-05
6.35397774e-05
6.23505638e-05
6.18467735e-05
6.30721274e-05
6.34918148e-05
6.24983804e-05
6.17102671e-05
6.17127395e-05
6.32869054e-05
6.35874129e-05
6.24059322e-05
6.20944236e-05
6.33899299e-05
6.35507767e-05
6.23640315e-05
6.15678875e-05
6.15706754e-05
6.34199555e-05
6.3524902e-05
6.23886993e-05
6.16090289e-05
6.16107325e-05
6.34387408e-05
6.35162727e-05
6.23729102e-05
6.15377458e-05
6.1547601e-05
6.3436872e-05
6.35815213e-05
6.2353588e-05
6.1829328e-05
6.34616222e-05
6.35474431e-05
6.23348791e-05
6.1420078e-05
6.14202692e-05
6.34947503e-05
6.35120627e-05
6.23397552e-05
6.14249179e-05
6.14348482e-05
6.35158801e-05
6.3575062e-05
6.23475893e-05
6.19228697e-05
6.35365417e-05
6.35375922e-05
6.23109246e-05
6.13882078e-05
6.14428491e-05
6.35175151e-05
6.35921194e-05
6.23193137e-05
6.19500647e-05
6.35151943e-05
6.36034888e-05
6.22620391e-05
6.20003418e-05
6.35464063e-05
6.35463653e-05
6.23190478e-05
6.1448796e-05
6.15636816e-05
6.35590759e-05
6.35190398e-05
6.23407883e-05
6.14964582e-05
6.16259152e-05
6.35586809e-05
6.35215435e-05
6.23518551e-05
6.15479144e-05
6.16721389e-05
6.35611171e-05
6.3523879e-05
6.23527151e-05
6.15503724e-05
6.16668215e-05
6.35619061e-05
6.35267237e-05
6.23564886e-05
6.15584829e-05
6.16586822e-05
6.35636135e-05
6.35323127e-05
6.23541902e-05
6.15386475e-05
)
;

boundaryField
{
    closed
    {
        type            calculated;
        value           nonuniform List<scalar> 0();
    }
    open
    {
        type            calculated;
        value           nonuniform List<scalar> 0();
    }
    sides
    {
        type            empty;
    }
    procBoundary2to1
    {
        type            processor;
        value           uniform 6.16184173e-05;
    }
    procBoundary2to3
    {
        type            processor;
        value           uniform 6.16204134e-05;
    }
}


// ************************************************************************* //
