/*--------------------------------*- C++ -*----------------------------------*\
| =========                 |                                                 |
| \\      /  F ield         | OpenFOAM: The Open Source CFD Toolbox           |
|  \\    /   O peration     | Version:  2306                                  |
|   \\  /    A nd           | Website:  www.openfoam.com                      |
|    \\/     M anipulation  |                                                 |
\*---------------------------------------------------------------------------*/
FoamFile
{
    version     2.0;
    format      ascii;
    arch        "LSB;label=32;scalar=64";
    class       surfaceScalarField;
    location    "0.00164";
    object      phi;
}
// * * * * * * * * * * * * * * * * * * * * * * * * * * * * * * * * * * * * * //

dimensions      [1 0 -1 0 0 0 0];

oriented        oriented;

internalField   nonuniform List<scalar> 
530
(
3.13210834e-07
3.05578118e-07
3.15063832e-07
3.39676194e-07
3.34492237e-07
3.3305248e-07
3.33655661e-07
3.23205617e-07
3.07555152e-07
3.06730496e-07
3.17978723e-07
3.23895405e-07
3.16019512e-07
3.13974716e-07
3.17838746e-07
3.08352393e-07
3.00611397e-07
2.98165532e-07
2.9510169e-07
2.87511601e-07
2.90569178e-07
3.14797806e-07
3.0829314e-07
3.06827754e-07
3.03944997e-07
2.84154685e-07
2.67946493e-07
2.87303527e-07
3.00070407e-07
2.90003817e-07
2.86931972e-07
2.96470375e-07
2.93134542e-07
2.81871751e-07
2.78372668e-07
2.74288404e-07
2.70376516e-07
2.61697054e-07
2.53928211e-07
2.42454945e-07
2.42059312e-07
2.04252565e-07
1.9392053e-07
2.11097457e-07
2.36054589e-07
2.25285119e-07
2.2290224e-07
2.21680286e-07
2.01394131e-07
2.00878891e-07
1.90025871e-07
1.91717897e-07
1.85212909e-07
1.79530098e-07
1.75164231e-07
1.45835887e-07
1.66478645e-07
1.57428479e-07
1.57793551e-07
1.57327588e-07
1.46369846e-07
1.40679073e-07
1.62318038e-07
1.84276497e-07
1.80004053e-07
1.79273214e-07
1.82045535e-07
1.76320985e-07
1.86006423e-07
2.07900378e-07
2.05325038e-07
2.06695006e-07
1.97445351e-07
1.98961288e-07
2.30028941e-07
2.28528034e-07
2.22873183e-07
2.23133905e-07
2.16584149e-07
2.19352945e-07
1.83416135e-07
1.97584094e-07
2.26350738e-07
2.25918895e-07
2.27500357e-07
2.29571062e-07
2.3258471e-07
2.21277519e-07
2.23969411e-07
2.62907917e-07
2.62485449e-07
2.64541823e-07
2.69747542e-07
2.66953121e-07
2.79456846e-07
2.98442486e-07
2.97561463e-07
3.00388964e-07
2.94618109e-07
3.00274428e-07
3.31810428e-07
3.32810386e-07
3.29110915e-07
3.34332574e-07
3.31147459e-07
3.34071262e-07
3.31079496e-07
3.39166679e-07
3.67863277e-07
3.67427164e-07
3.70206279e-07
3.73897202e-07
3.38276101e-07
3.22108654e-07
3.41306637e-07
3.46524416e-07
3.55459012e-07
3.5761317e-07
3.62176217e-07
3.62850308e-07
3.40449162e-07
3.42240607e-07
3.41517549e-07
3.40655852e-07
3.45495356e-07
3.43707937e-07
3.50399797e-07
3.1853841e-07
3.28989653e-07
3.38688922e-07
3.35661928e-07
3.3716147e-07
3.04110477e-07
3.0912875e-07
3.44041763e-07
3.4387725e-07
3.47486279e-07
3.50179271e-07
3.37778246e-07
3.34286928e-07
3.33328503e-07
3.34962321e-07
3.37333927e-07
3.38182517e-07
2.79136334e-07
2.72137382e-07
2.87777752e-07
3.00786128e-07
3.03776801e-07
3.04515028e-07
3.07810455e-07
2.79149553e-07
2.80327764e-07
3.21175362e-07
3.23443466e-07
3.25054346e-07
3.28026946e-07
3.29205308e-07
3.31933161e-07
2.92844399e-07
2.75555926e-07
2.97515498e-07
3.19381152e-07
3.25014268e-07
3.27155789e-07
3.32093143e-07
3.34028549e-07
3.35893921e-07
3.1057832e-07
2.91619459e-07
3.13521207e-07
3.36513461e-07
3.40892497e-07
3.46230586e-07
3.51563882e-07
3.57148202e-07
2.91867586e-07
2.84856205e-07
3.07843205e-07
3.27376696e-07
3.38077335e-07
3.41985607e-07
3.50895386e-07
3.54959159e-07
3.51780671e-07
3.44295135e-07
3.65525099e-07
3.78984216e-07
3.88101832e-07
3.91365653e-07
3.75896352e-07
3.76479877e-07
3.84219723e-07
3.88284788e-07
3.74334037e-07
3.76654991e-07
3.81403582e-07
3.83876196e-07
3.35450951e-07
3.48152099e-07
3.83428538e-07
3.89128305e-07
3.93218696e-07
3.97644494e-07
4.00818182e-07
4.03567484e-07
4.0348704e-07
3.93742896e-07
4.12163166e-07
4.34616219e-07
4.38770848e-07
4.4169001e-07
4.28792329e-07
4.2046452e-07
4.28299003e-07
4.30289453e-07
4.3792895e-07
4.1518238e-07
3.98370123e-07
4.19733445e-07
4.38821471e-07
4.46268468e-07
4.50348959e-07
4.56074881e-07
4.59238394e-07
4.02875966e-07
4.13239083e-07
4.45893387e-07
4.52316542e-07
4.55926097e-07
4.62043848e-07
4.64953696e-07
4.37478539e-07
4.34343065e-07
4.4065728e-07
4.13770036e-07
4.31623027e-07
4.37552195e-07
4.41886286e-07
4.50550698e-07
4.49944983e-07
4.41161002e-07
4.64842755e-07
4.79476664e-07
4.88392281e-07
4.91860307e-07
4.99554009e-07
5.027617e-07
5.01016036e-07
4.91374269e-07
5.04964747e-07
5.3396111e-07
5.30047989e-07
5.33861459e-07
5.40935147e-07
5.2857481e-07
5.22932167e-07
5.31753725e-07
5.3412256e-07
5.43003096e-07
5.45828216e-07
5.40747401e-07
5.3151326e-07
5.34760718e-07
5.47214728e-07
5.51843745e-07
5.63328323e-07
5.66094751e-07
5.49987163e-07
5.48853701e-07
5.56042408e-07
5.57635154e-07
5.42891818e-07
5.48021116e-07
5.42751121e-07
5.46461543e-07
5.53815841e-07
5.52620261e-07
5.47192905e-07
5.56676391e-07
5.59056382e-07
5.68146684e-07
5.7104372e-07
5.66809613e-07
5.59071075e-07
5.61711379e-07
5.73453994e-07
5.78945407e-07
5.89968744e-07
5.93499451e-07
5.85061453e-07
5.6842923e-07
5.82893123e-07
5.86050383e-07
5.94406865e-07
5.93352562e-07
5.83822579e-07
5.86821519e-07
5.97011368e-07
6.06369177e-07
6.139125e-07
6.17744444e-07
6.25840728e-07
6.29426333e-07
6.09277611e-07
6.03757385e-07
6.1107208e-07
6.17790617e-07
6.23014152e-07
6.30010473e-07
6.36313141e-07
6.16625039e-07
6.13859904e-07
6.26963932e-07
6.2797399e-07
6.47433951e-07
6.52262066e-07
6.58776666e-07
6.42755656e-07
6.40798759e-07
6.47837011e-07
6.27813594e-07
6.40674926e-07
6.46546038e-07
6.51867137e-07
6.5347449e-07
6.50273145e-07
6.49958729e-07
6.56055732e-07
6.7273036e-07
6.71946612e-07
6.82405016e-07
6.94701904e-07
6.99916244e-07
7.03797464e-07
6.94729674e-07
6.94040017e-07
7.00795485e-07
7.05148032e-07
7.04369091e-07
7.11569916e-07
7.24129395e-07
7.29398218e-07
7.33495874e-07
7.24245603e-07
7.25913682e-07
7.33585716e-07
7.36172192e-07
7.31847621e-07
7.46348084e-07
7.39971767e-07
7.44131425e-07
7.3526047e-07
7.38740772e-07
7.50428992e-07
7.54798966e-07
7.66045789e-07
7.68662072e-07
7.69665166e-07
7.79818671e-07
7.94045071e-07
8.00246905e-07
8.04891107e-07
7.96980152e-07
7.99705005e-07
8.07292872e-07
8.11249769e-07
8.03837065e-07
8.07288901e-07
8.15496194e-07
8.19211535e-07
8.14411345e-07
8.07321093e-07
8.18984017e-07
8.20564361e-07
8.35270322e-07
8.43833326e-07
8.39432807e-07
8.41324444e-07
8.49193334e-07
8.66284679e-07
8.70467291e-07
8.74433298e-07
8.8895203e-07
8.91101754e-07
8.91992694e-07
8.99364256e-07
9.03890826e-07
9.0771428e-07
9.06766227e-07
9.13341846e-07
8.88034642e-07
9.19827601e-07
9.25532586e-07
9.29053216e-07
9.35211363e-07
9.24269009e-07
9.44464165e-07
9.49940893e-07
9.53713684e-07
9.58894245e-07
9.46139891e-07
9.65997808e-07
9.71153192e-07
9.61571812e-07
9.6639303e-07
9.76634759e-07
9.82619185e-07
9.86657569e-07
9.91311408e-07
9.95019831e-07
9.97552717e-07
9.99663661e-07
1.00612586e-06
1.00931465e-06
1.00620824e-06
1.00950422e-06
1.01588551e-06
1.01859369e-06
1.01947403e-06
1.01957023e-06
1.02362317e-06
1.04476687e-06
1.03807625e-06
1.04109701e-06
1.03785685e-06
1.0405062e-06
1.04694173e-06
1.04940856e-06
1.05081408e-06
1.05068863e-06
1.05290751e-06
1.07268613e-06
1.06685458e-06
1.06991727e-06
1.06544945e-06
1.07682282e-06
1.076626e-06
1.07945415e-06
1.08196758e-06
1.08524424e-06
1.0873869e-06
1.09560051e-06
1.1010299e-06
1.09731899e-06
1.10039995e-06
1.1082349e-06
1.11107967e-06
1.1130453e-06
1.11524261e-06
1.11716217e-06
1.12404859e-06
1.12925111e-06
1.1258952e-06
1.12803864e-06
1.13577468e-06
1.13846555e-06
1.13993864e-06
1.14257933e-06
1.1441743e-06
1.1496359e-06
1.155354e-06
1.15246435e-06
1.15563878e-06
1.16598299e-06
1.17030279e-06
1.1690545e-06
1.17446511e-06
1.17934108e-06
1.18740972e-06
1.1914921e-06
1.19032922e-06
1.19710405e-06
1.204767e-06
1.20849161e-06
1.18993037e-06
1.19508158e-06
1.20057899e-06
1.20295477e-06
1.21966681e-06
1.21493901e-06
1.21665375e-06
1.2126976e-06
1.22409062e-06
1.21985952e-06
1.21931749e-06
1.23763861e-06
1.24026718e-06
1.23830154e-06
1.24329023e-06
1.24458096e-06
1.24334739e-06
1.24469102e-06
1.25027456e-06
1.25233099e-06
1.25582693e-06
1.25855644e-06
1.25969706e-06
1.27749165e-06
1.27142275e-06
1.27320665e-06
1.27446924e-06
1.27673232e-06
1.28186678e-06
1.28401104e-06
1.28503813e-06
1.28754154e-06
1.2923054e-06
1.29430791e-06
1.29563689e-06
1.29800836e-06
1.30256461e-06
1.30404182e-06
1.306851e-06
1.3089267e-06
1.30650315e-06
1.3184655e-06
1.31259061e-06
1.31472706e-06
1.31627009e-06
1.31740041e-06
1.3224748e-06
1.32407603e-06
1.32734897e-06
1.32304568e-06
1.3006261e-06
1.31900063e-06
1.32116507e-06
1.31993336e-06
1.32109969e-06
)
;

boundaryField
{
    closed
    {
        type            calculated;
        value           nonuniform List<scalar> 0();
    }
    open
    {
        type            calculated;
        value           nonuniform List<scalar> 0();
    }
    sides
    {
        type            empty;
        value           nonuniform List<scalar> 0();
    }
    procBoundary3to2
    {
        type            processor;
        value           uniform -3.14933793e-07;
    }
    procBoundary3to4
    {
        type            processor;
        value           uniform 1.32267275e-06;
    }
}


// ************************************************************************* //
