/*--------------------------------*- C++ -*----------------------------------*\
| =========                 |                                                 |
| \\      /  F ield         | OpenFOAM: The Open Source CFD Toolbox           |
|  \\    /   O peration     | Version:  2306                                  |
|   \\  /    A nd           | Website:  www.openfoam.com                      |
|    \\/     M anipulation  |                                                 |
\*---------------------------------------------------------------------------*/
FoamFile
{
    version     2.0;
    format      ascii;
    arch        "LSB;label=32;scalar=64";
    class       volScalarField;
    location    "0.00164";
    object      prefDZ_H;
}
// * * * * * * * * * * * * * * * * * * * * * * * * * * * * * * * * * * * * * //

dimensions      [1 -1 -1 0 0 0 0];

internalField   nonuniform List<scalar> 
531
(
0.000110320245
0.000107821983
0.000105443406
0.000106465405
0.000110214935
0.000110325448
0.000110200293
0.000107844466
0.000106473878
0.00010691776
0.000105787228
0.000105904554
0.00011021272
0.000110242698
0.000106315641
0.00010658555
0.000110252479
0.000110228486
0.000110232526
0.00010786342
0.000105212325
0.000106290837
0.000110189534
0.000110217098
0.000110190018
0.000107094291
0.000105734373
0.000105162267
0.000105116505
0.000110258378
0.000110198912
0.000105319906
0.000105405386
0.000110344558
0.000110251585
0.000110361906
0.000110277878
0.000107370267
0.000106694645
0.000110375827
0.000110265543
0.000107726346
0.000106822842
0.000106086544
0.00010621315
0.000110390864
0.000110297272
0.000110380637
0.000107784621
0.00010637027
0.000110400757
0.000110305424
0.00010692882
0.000107211733
0.000110444122
0.000107789917
0.000106302057
0.000110398601
0.00011034156
0.000110369877
0.000107793808
0.000106395857
0.000106152625
0.000106192997
0.000110341479
0.000110260228
0.000110326401
0.00010788097
0.000105991819
0.0001062714
0.000110348694
0.000110233429
0.000107771826
0.00010574324
0.000106998564
0.00011025316
0.000107761001
0.000105518939
0.000110395343
0.000110229148
0.000107557987
0.00010513671
0.000105557863
0.000110289688
0.00011027646
0.000110325078
0.000110265437
0.000107804987
0.000105644058
0.00010633694
0.000110296196
0.000110284472
0.000110300759
0.000107893741
0.000106161602
0.000106261594
0.00011034084
0.000110244697
0.000107783262
0.000105690851
0.000106912726
0.000110244164
0.000107772948
0.000105571199
0.000110386279
0.000110206233
0.000107841872
0.000105518456
0.000106154825
0.00011020316
0.000110215392
0.000110203942
0.000107340088
0.000106281043
0.00010507112
0.000105072395
0.000110188942
0.000110190679
0.000110167553
0.000110228187
0.000105907043
0.000105887043
0.000110190292
0.000110237393
0.000110161858
0.000110244922
0.000110144083
0.000107416611
0.000105184543
0.000105256739
0.000110155671
0.000110193568
0.00010710236
0.000103957793
0.000104804578
0.000110131725
0.000110164661
0.000110134798
0.000106514205
0.000105262343
0.000110267343
0.000110139392
0.000110256595
0.000110172852
0.000107817432
0.000106337331
0.000105551918
0.000105603867
0.000110206712
0.000110123257
0.000110151827
0.000107217938
0.000103753088
0.00010458224
0.00011010984
0.000110159577
0.000110118429
0.000110166529
0.000110121639
0.000107041467
0.000106128937
0.000104779331
0.000104828092
0.000110212959
0.000110153437
0.000110186431
0.000110179425
0.00011015365
0.00010740993
0.000106294609
0.000105326873
0.000105362416
0.00011025226
0.000110170203
0.000110256137
0.000110209434
0.00010788445
0.000106299732
0.000105616809
0.000105622876
0.000110264333
0.000110201239
0.000110261209
0.000110224184
0.000107878238
0.000106667439
0.000106174818
0.000106150123
0.000110245121
0.000110233219
0.000106632338
0.000106211391
0.000110273562
0.000110213514
0.000107071276
0.000106098878
0.000110290421
0.000110209478
0.00010765259
0.000105062137
0.000105585293
0.000110176675
0.000110234884
0.000110187211
0.000110236891
0.000110197965
0.000107924667
0.000107010574
0.000106071856
0.000106077948
0.000110213942
0.000110189314
0.000106181851
0.000106257383
0.000110224067
0.000110182606
0.000110166447
0.000107572113
0.000105843162
0.000104821875
0.000104837771
0.000110173083
0.00011013856
0.000110171143
0.00011016389
0.000107196026
0.000104298192
0.000104658612
0.000110107586
0.000110202851
0.000110130005
0.000110231935
0.000106990677
0.000106990583
0.000110230804
0.000107480459
0.000105688627
0.000110236783
0.00011019088
0.000110196367
0.000107908374
0.000105832411
0.000105357446
0.000105342956
0.00011020858
0.00011015254
0.000110212982
0.000110166387
0.000107935621
0.000106401159
0.000105614351
0.000105647385
0.00011017144
0.000110166674
0.000110155101
0.000107069294
0.000105603371
0.000110239239
0.000110123761
0.000110248625
0.000110128835
0.00010792644
0.000106380788
0.000106667249
0.000105276366
0.000105318828
0.000110142745
0.000110220219
0.000106336266
0.000105960859
0.000110170241
0.000110206039
0.000106110184
0.000106138311
0.000110202249
0.000110208526
0.000110176588
0.000106828362
0.00010578401
0.000110263198
0.000110170281
0.00011027186
0.000110174704
0.000107920868
0.000106438283
0.000106679224
0.000105410873
0.000105444106
0.000110180398
0.000110248874
0.000106462066
0.000106471299
0.000110213154
0.000110258008
0.000110173703
0.000107875596
0.000106153766
0.0001066051
0.000105042152
0.000105095863
0.000110160777
0.000110250811
0.000110167445
0.000110278334
0.000107363192
0.000107193492
0.000110213486
0.000108039657
0.00010595018
0.000110295616
0.000110236306
0.000107861842
0.00010653015
0.000105797055
0.00010583613
0.000110284872
0.000110264001
0.000110291422
0.000107578784
0.00010673899
0.000110332227
0.000107519573
0.000105812302
0.00011029587
0.000110299868
0.000110285802
0.000107802363
0.00010601302
0.000110356187
0.000110254054
0.000107795872
0.000105894771
0.000105941102
0.000110268692
0.000110299038
0.000107584158
0.000106425133
0.000110335518
0.000110231602
0.000107785402
0.000105994819
0.000106048156
0.000110224316
0.000110333714
0.000107221788
0.000106635382
0.000110255779
0.000110307329
0.000106803402
0.000106808719
0.000110302982
0.000110299494
0.00011029076
0.000107834933
0.000105863827
0.000105874106
0.000110291068
0.000110250283
0.000107850046
0.000105428664
0.000105501924
0.00011018506
0.000110309981
0.000107035489
0.000106238444
0.000110199092
0.000110300077
0.000106862568
0.000106574164
0.000110207634
0.000110295302
0.00010689458
0.000106903104
0.000110247253
0.000107813592
0.000105565472
0.000110310117
0.000110227714
0.000107814633
0.000105596057
0.000106029109
0.000110214564
0.000110278237
0.000110267228
0.000107888578
0.000107250133
0.000110278484
0.000110258497
0.000107975698
0.00010764843
0.000106611831
0.000106608523
0.000110278243
0.00011027566
0.000107824887
0.000106039721
0.000106053267
0.00011026878
0.000110294011
0.000107843933
0.000105674652
0.000105689475
0.000110266325
0.000110278484
0.000107698407
0.000105021143
0.000105105914
0.000110210226
0.000110321813
0.000110265949
0.000110353301
0.000107848333
0.000106969801
0.00011028992
0.000110364047
0.000107843141
0.000107433909
0.000110309199
0.000110350442
0.000107849216
0.000107602935
0.000106690378
0.000106695636
0.000110269281
0.000110369777
0.00010762863
0.000107030908
0.000110288976
0.000110336218
0.000107823025
0.000107127132
0.000106314002
0.00010632099
0.00011021835
0.000110317818
0.000106710909
0.000106715171
0.000110217083
0.000110316671
0.000110239325
0.000107812672
0.000105605364
0.000106230541
0.000110223668
0.000107488583
0.000106077679
0.000110225703
0.000110252581
0.000110245807
0.000107842226
0.000105646937
0.00010630905
0.000110207264
0.000107579092
0.000106135129
0.00011019889
0.000110225939
0.000110228267
0.000107870016
0.000105553179
0.000106147532
0.000110177902
0.000107300679
0.000105874411
0.000110151729
0.000110220909
0.000110194624
0.000107908029
0.000106012297
0.000110170497
0.000110212783
0.000106809799
0.000106815112
0.000110160113
0.0001102475
0.000110205106
0.000107855824
0.000106233368
0.000105654069
0.000105656565
0.000110128296
0.000110236289
0.000106055985
0.00010606249
0.000110146773
0.000110270406
0.000110225798
0.000107879092
0.000106149087
0.000110219202
0.000110250322
0.000107661891
0.000106834243
0.000110228517
0.000110267922
0.00010785658
0.000107036698
0.00010627026
0.000106285216
0.000110160355
0.000110312305
0.000107058051
0.000106533771
0.00011017884
0.000110334876
0.000107243494
0.000106763014
0.000110205001
0.000110337297
0.000107584174
0.000107059905
0.00011024125
0.00011031212
0.000107826409
0.000107251218
0.00010652186
0.000106520339
0.000110208898
0.000110285318
0.000107538215
0.000106582856
0.000110236362
0.000110225109
0.000107805628
0.000105984996
0.000106015885
0.000110141605
0.000110291024
0.000107093714
0.000106408618
0.000110134218
)
;

boundaryField
{
    closed
    {
        type            calculated;
        value           nonuniform List<scalar> 0();
    }
    open
    {
        type            calculated;
        value           nonuniform List<scalar> 0();
    }
    sides
    {
        type            empty;
    }
    procBoundary3to2
    {
        type            processor;
        value           uniform 0.000110301106;
    }
    procBoundary3to4
    {
        type            processor;
        value           uniform 0.000110242655;
    }
}


// ************************************************************************* //
