/*--------------------------------*- C++ -*----------------------------------*\
| =========                 |                                                 |
| \\      /  F ield         | OpenFOAM: The Open Source CFD Toolbox           |
|  \\    /   O peration     | Version:  2306                                  |
|   \\  /    A nd           | Website:  www.openfoam.com                      |
|    \\/     M anipulation  |                                                 |
\*---------------------------------------------------------------------------*/
FoamFile
{
    version     2.0;
    format      ascii;
    arch        "LSB;label=32;scalar=64";
    class       volScalarField;
    location    "0.00164";
    object      rho;
}
// * * * * * * * * * * * * * * * * * * * * * * * * * * * * * * * * * * * * * //

dimensions      [1 -3 0 0 0 0 0];

internalField   nonuniform List<scalar> 
531
(
0.902110416
0.937508073
0.966258802
0.954386257
0.903119887
0.902440314
0.903405156
0.935198288
0.95426864
0.949105643
0.962246899
0.96089355
0.903193887
0.902999444
0.956105474
0.952962509
0.902746564
0.903426234
0.902888931
0.936545868
0.968903199
0.956385463
0.90323364
0.903343084
0.903298526
0.947026449
0.962832142
0.969492878
0.970007534
0.902488069
0.903209723
0.96767137
0.966660342
0.901748363
0.902773835
0.90180391
0.90260803
0.943789407
0.951663313
0.901932666
0.902869563
0.939625538
0.950164986
0.95874473
0.957260016
0.90133453
0.90261068
0.901475599
0.938938205
0.955426249
0.901610893
0.902483595
0.948916726
0.94561876
0.900991015
0.93886772
0.956214373
0.901500573
0.902214205
0.90170204
0.937184872
0.95510916
0.957942646
0.957465455
0.901763947
0.902975825
0.901939379
0.937143377
0.959799158
0.956542945
0.902040659
0.902974233
0.937222609
0.962668511
0.948070821
0.902570418
0.937873319
0.965271217
0.901691568
0.902864135
0.941537809
0.969702782
0.964832024
0.90228101
0.902441323
0.902214559
0.902592696
0.936489256
0.963812306
0.955761142
0.902175286
0.902708983
0.902252409
0.937381557
0.957792376
0.956627978
0.902064707
0.902848997
0.937463903
0.963249017
0.949045683
0.902594554
0.937815479
0.964636477
0.901701768
0.90313636
0.938025754
0.965238266
0.957862516
0.903041462
0.903275056
0.903225015
0.944059783
0.95637747
0.970430007
0.97041183
0.902889176
0.903172216
0.903273112
0.902878861
0.960723439
0.960965806
0.902878275
0.902978359
0.903253754
0.903032039
0.903593996
0.94316117
0.969091331
0.968282257
0.903601655
0.902990976
0.946821831
0.983303442
0.973512949
0.903423298
0.903510246
0.90354769
0.953666687
0.968189394
0.90240181
0.903745937
0.902769212
0.903532983
0.938484587
0.955709813
0.964846209
0.964226684
0.902742111
0.904083855
0.903283333
0.945471601
0.985652263
0.97608503
0.90362496
0.903496654
0.903758296
0.903623074
0.903987147
0.947522713
0.95812342
0.973803265
0.973218076
0.902621829
0.903604472
0.903045934
0.903558361
0.903603432
0.943227584
0.956197777
0.967451239
0.967023968
0.902349161
0.903410393
0.902681455
0.903124111
0.93768895
0.956140872
0.964088809
0.964010444
0.902235426
0.903176954
0.902664511
0.903034983
0.936893227
0.951879874
0.957612836
0.957901987
0.902557515
0.902951236
0.952298292
0.957193517
0.90241245
0.90313363
0.947192548
0.958503351
0.902398804
0.903116755
0.940420789
0.970531592
0.964487881
0.903153656
0.902989933
0.903291016
0.903176903
0.903461116
0.93689733
0.947913521
0.958834148
0.958762437
0.90282767
0.903406016
0.957560247
0.956678272
0.902706057
0.903654635
0.903401156
0.941381535
0.961483769
0.973350779
0.973152313
0.902927988
0.903617189
0.903364643
0.903416059
0.945769611
0.979393518
0.975254663
0.903750058
0.903101988
0.903833367
0.902989646
0.948165557
0.948168186
0.902683965
0.942462218
0.963304128
0.902603979
0.903589876
0.903090164
0.936741596
0.961631366
0.96716055
0.967318226
0.902682238
0.903644598
0.903104704
0.903581579
0.936937788
0.955031954
0.964182206
0.963792728
0.903046362
0.903695738
0.903416843
0.947269364
0.964300523
0.902612693
0.904002655
0.902858934
0.904024626
0.933472849
0.955278857
0.951956567
0.968099423
0.967630897
0.903521371
0.903035795
0.955806397
0.96017657
0.903217975
0.903281448
0.958441141
0.958116572
0.902857045
0.903337521
0.903307338
0.950093239
0.962229006
0.902341698
0.903590183
0.902615674
0.903612335
0.93346502
0.954632658
0.951836527
0.966566585
0.966200812
0.903203969
0.902846001
0.954363085
0.954259417
0.902877595
0.90307528
0.90353406
0.934624647
0.957947098
0.952710728
0.970848797
0.970255661
0.903284272
0.902780848
0.90355811
0.902664935
0.943887056
0.945863176
0.902965486
0.931202435
0.960333492
0.902344635
0.903006544
0.938063597
0.953586468
0.96212303
0.961661211
0.90205651
0.902882878
0.902270397
0.941378447
0.951170156
0.901764015
0.942073379
0.961957585
0.902035335
0.902571763
0.902343731
0.938775125
0.959622875
0.901844497
0.902818359
0.938197664
0.960997489
0.960474613
0.902614485
0.902414933
0.941331441
0.95483694
0.902027073
0.903080866
0.937959382
0.959837066
0.959236047
0.903003968
0.9021338
0.945565278
0.952398106
0.902569064
0.902493901
0.950441596
0.950380352
0.902053314
0.902746842
0.902450746
0.937528557
0.96137137
0.961257663
0.902379402
0.902765981
0.93823135
0.966417633
0.965595318
0.903290214
0.902264577
0.947745235
0.957028408
0.903059767
0.902493147
0.949761193
0.953122445
0.902970984
0.902621722
0.949390605
0.949292407
0.902632656
0.936305772
0.964845217
0.902250779
0.903033073
0.937812429
0.96448505
0.959472549
0.902962077
0.902865984
0.902860851
0.93754014
0.945257747
0.902531182
0.903167287
0.932393605
0.940611185
0.952690951
0.952730842
0.902466983
0.902699684
0.937919689
0.95934909
0.959202002
0.902566354
0.902420335
0.93802075
0.963597489
0.963436474
0.902520663
0.902458763
0.940034476
0.971185088
0.970228539
0.902887803
0.902139983
0.902799409
0.901975068
0.937625019
0.948543121
0.902419665
0.90208007
0.93835726
0.943133694
0.902246325
0.902326353
0.935030485
0.94116314
0.951807346
0.951750411
0.902502783
0.901949915
0.940870544
0.947842999
0.902406051
0.902337801
0.93757877
0.946727057
0.956197772
0.956122986
0.902807608
0.902395533
0.951580486
0.95153378
0.902700364
0.902636972
0.902952722
0.936345134
0.964438838
0.957183204
0.902814237
0.942524497
0.95895669
0.902628611
0.90319782
0.90290769
0.936281254
0.963965645
0.956277622
0.902989443
0.941482548
0.958298224
0.902905459
0.903473102
0.90310126
0.936784758
0.965060849
0.958165231
0.903246557
0.94474237
0.961337844
0.90319383
0.903470476
0.903203262
0.937434032
0.959739466
0.903361676
0.903425119
0.950470872
0.950410494
0.903212337
0.903357559
0.903293757
0.936952861
0.957183377
0.963919532
0.963896334
0.903459128
0.903099846
0.959256724
0.959188442
0.903186517
0.903033695
0.902997074
0.937855233
0.958182459
0.903006721
0.903086067
0.940564306
0.950214297
0.902978653
0.903027372
0.93747762
0.947860658
0.956782694
0.956615784
0.903379286
0.902489475
0.947616722
0.953727082
0.903246953
0.902328753
0.945459013
0.951059815
0.90307375
0.902364663
0.941488589
0.947602764
0.902865374
0.902677691
0.937342532
0.945377413
0.953875343
0.953897089
0.903015884
0.902786557
0.942031822
0.953166283
0.902897609
0.903309654
0.937611206
0.960114177
0.959775002
0.903727743
0.902677779
0.94722549
0.955205596
0.903518201
)
;

boundaryField
{
    closed
    {
        type            calculated;
        value           nonuniform List<scalar> 0();
    }
    open
    {
        type            calculated;
        value           nonuniform List<scalar> 0();
    }
    sides
    {
        type            empty;
    }
    procBoundary3to2
    {
        type            processor;
        value           uniform 0.902719522;
    }
    procBoundary3to4
    {
        type            processor;
        value           uniform 0.903199531;
    }
}


// ************************************************************************* //
