/*--------------------------------*- C++ -*----------------------------------*\
| =========                 |                                                 |
| \\      /  F ield         | OpenFOAM: The Open Source CFD Toolbox           |
|  \\    /   O peration     | Version:  2306                                  |
|   \\  /    A nd           | Website:  www.openfoam.com                      |
|    \\/     M anipulation  |                                                 |
\*---------------------------------------------------------------------------*/
FoamFile
{
    version     2.0;
    format      ascii;
    arch        "LSB;label=32;scalar=64";
    class       volScalarField;
    location    "0.0011";
    object      alpha;
}
// * * * * * * * * * * * * * * * * * * * * * * * * * * * * * * * * * * * * * //

dimensions      [1 -1 -1 0 0 0 0];

internalField   nonuniform List<scalar> 
530
(
7.6533199e-05
7.65426586e-05
7.65381767e-05
7.65376669e-05
7.66697702e-05
7.66472628e-05
7.66752289e-05
7.66678207e-05
7.67854768e-05
7.67512292e-05
7.67933035e-05
7.67841531e-05
7.68955473e-05
7.68547418e-05
7.69162042e-05
7.6900149e-05
7.70045574e-05
7.69569533e-05
7.70322713e-05
7.70156169e-05
7.7110538e-05
7.70645085e-05
7.714517e-05
7.71293666e-05
7.7215221e-05
7.71724555e-05
7.72603913e-05
7.72420283e-05
7.73186795e-05
7.72776917e-05
7.73635957e-05
7.73524365e-05
7.74216886e-05
7.73814787e-05
7.74618115e-05
7.7459251e-05
7.75210683e-05
7.74836112e-05
7.75535096e-05
7.75626833e-05
7.76118383e-05
7.75842232e-05
7.76358514e-05
7.76532337e-05
7.76934494e-05
7.76782313e-05
7.77164196e-05
7.77371681e-05
7.77754502e-05
7.77620537e-05
7.77949238e-05
7.78179828e-05
7.78571322e-05
7.78459674e-05
7.78748606e-05
7.7898023e-05
7.79386192e-05
7.79299319e-05
7.79551922e-05
7.79795741e-05
7.80204091e-05
7.80139344e-05
7.8035565e-05
7.80610905e-05
7.81024167e-05
7.80982779e-05
7.81208882e-05
7.81429726e-05
7.81876493e-05
7.81831092e-05
7.82089296e-05
7.82298552e-05
7.82777775e-05
7.82723591e-05
7.82988537e-05
7.83199375e-05
7.83682334e-05
7.83643669e-05
7.83899123e-05
7.8412208e-05
7.84595175e-05
7.84570186e-05
7.84815985e-05
7.85057161e-05
7.85517049e-05
7.8550644e-05
7.85745003e-05
7.85998029e-05
7.86452063e-05
7.86451643e-05
7.86691145e-05
7.86948656e-05
7.87402888e-05
7.87410959e-05
7.87660708e-05
7.87920968e-05
7.88378182e-05
7.88388385e-05
7.8864028e-05
7.88925097e-05
7.89380251e-05
7.89397452e-05
7.89640703e-05
7.89953998e-05
7.90402839e-05
7.90427767e-05
7.90657504e-05
7.91005e-05
7.9143926e-05
7.91476049e-05
7.91702912e-05
7.92047178e-05
7.92487617e-05
7.92540481e-05
7.9275338e-05
7.93110903e-05
7.93552924e-05
7.93615583e-05
7.93836715e-05
7.94187858e-05
7.94632612e-05
7.94708311e-05
7.94942606e-05
7.95291744e-05
7.95735596e-05
7.95820138e-05
7.96056765e-05
7.96420665e-05
7.96851752e-05
7.96949175e-05
7.97180046e-05
7.97570484e-05
7.9797611e-05
7.98093199e-05
7.98313341e-05
7.98729569e-05
7.99112391e-05
7.99249361e-05
7.99454827e-05
7.99905066e-05
8.00254946e-05
8.00415232e-05
8.00623738e-05
8.01088428e-05
8.01397444e-05
8.01586343e-05
8.01722719e-05
8.02251127e-05
8.02489976e-05
8.02758721e-05
8.02812069e-05
8.03322922e-05
8.03526002e-05
8.03856092e-05
8.04077136e-05
8.04354334e-05
8.04576577e-05
8.04933532e-05
8.05287897e-05
8.05391845e-05
8.05615381e-05
8.060196e-05
8.06460295e-05
8.06410209e-05
8.06649918e-05
8.07088853e-05
8.07581842e-05
8.0743021e-05
8.07674914e-05
8.08145103e-05
8.08690451e-05
8.08428211e-05
8.08704823e-05
8.09165823e-05
8.09750641e-05
8.09418027e-05
8.09728514e-05
8.10170726e-05
8.1078944e-05
8.10420624e-05
8.10739687e-05
8.11192058e-05
8.11832669e-05
8.11422611e-05
8.11759861e-05
8.12192874e-05
8.12866769e-05
8.12415718e-05
8.12759509e-05
8.13171863e-05
8.1388179e-05
8.13391394e-05
8.13737314e-05
8.14129176e-05
8.14875155e-05
8.14347232e-05
8.14693019e-05
8.15065269e-05
8.15846845e-05
8.15283598e-05
8.15625925e-05
8.15978408e-05
8.16790734e-05
8.16198309e-05
8.16539629e-05
8.16868028e-05
8.17693438e-05
8.17088816e-05
8.17440731e-05
8.17732588e-05
8.18560582e-05
8.17940372e-05
8.1831633e-05
8.18573471e-05
8.19400686e-05
8.18763287e-05
8.19165549e-05
8.19382576e-05
8.20212037e-05
8.19564428e-05
8.19985914e-05
8.20165835e-05
8.20987208e-05
8.20350378e-05
8.20773222e-05
8.20923809e-05
8.21732078e-05
8.21123232e-05
8.21532751e-05
8.21655966e-05
8.22435721e-05
8.21881136e-05
8.22264814e-05
8.22361416e-05
8.23107065e-05
8.22625113e-05
8.22969717e-05
8.23040758e-05
8.23753161e-05
8.23357809e-05
8.23647369e-05
8.23693981e-05
8.24374237e-05
8.24065385e-05
8.24297476e-05
8.24340914e-05
8.2497146e-05
8.24719671e-05
8.24920642e-05
8.24968384e-05
8.25545441e-05
8.25340189e-05
8.25517072e-05
8.25566443e-05
8.26095738e-05
8.25935376e-05
8.26086761e-05
8.26135687e-05
8.26622003e-05
8.26504686e-05
8.26629796e-05
8.26677871e-05
8.27123956e-05
8.2705069e-05
8.2714704e-05
8.27194163e-05
8.27601671e-05
8.27543316e-05
8.27637496e-05
8.27685888e-05
8.28056383e-05
8.28006253e-05
8.2810263e-05
8.28153229e-05
8.28488571e-05
8.2844622e-05
8.28543118e-05
8.28594895e-05
8.28898594e-05
8.2886255e-05
8.28959321e-05
8.29010953e-05
8.29286577e-05
8.29255364e-05
8.29351539e-05
8.29402025e-05
8.29652839e-05
8.29625574e-05
8.29720412e-05
8.29768773e-05
8.29998208e-05
8.29973388e-05
8.3006645e-05
8.30112061e-05
8.30323419e-05
8.30299638e-05
8.30390434e-05
8.30432953e-05
8.30628232e-05
8.30605528e-05
8.30693439e-05
8.30732636e-05
8.30913691e-05
8.3089144e-05
8.30976481e-05
8.31012114e-05
8.31181079e-05
8.31158182e-05
8.31240428e-05
8.31272366e-05
8.31429983e-05
8.31406278e-05
8.31486085e-05
8.31514341e-05
8.31661514e-05
8.31636965e-05
8.31714257e-05
8.31738939e-05
8.31876413e-05
8.3185108e-05
8.3192577e-05
8.31947017e-05
8.32075486e-05
8.32049433e-05
8.32121485e-05
8.32139419e-05
8.32259568e-05
8.32232817e-05
8.32302278e-05
8.32316965e-05
8.32429497e-05
8.32402007e-05
8.32469011e-05
8.3248045e-05
8.32586093e-05
8.32557756e-05
8.32622514e-05
8.32630651e-05
8.32730142e-05
8.32700806e-05
8.32763576e-05
8.32768327e-05
8.32862392e-05
8.32831884e-05
8.32892948e-05
8.32894219e-05
8.32983557e-05
8.32951708e-05
8.33011349e-05
8.3300905e-05
8.33094305e-05
8.33061019e-05
8.33119455e-05
8.33113561e-05
8.3319523e-05
8.33160662e-05
8.33217878e-05
8.33208595e-05
8.33286791e-05
8.33251805e-05
8.33307095e-05
8.33295259e-05
8.3336919e-05
8.33336186e-05
8.33387356e-05
8.33375147e-05
8.33441752e-05
8.33418705e-05
8.33458204e-05
8.33452574e-05
8.33503696e-05
8.33508392e-05
8.33520152e-05
8.33535416e-05
8.33553192e-05
8.33637192e-05
8.33571142e-05
8.33643578e-05
8.3359874e-05
8.33670329e-05
8.33620338e-05
8.33687039e-05
8.33651028e-05
8.33680587e-05
8.3367137e-05
8.33704229e-05
8.33715624e-05
8.33710741e-05
8.33728312e-05
8.33728011e-05
8.33808503e-05
8.33738797e-05
8.33810659e-05
8.33752533e-05
8.33810583e-05
8.33767649e-05
8.33826636e-05
8.33780319e-05
8.33820386e-05
8.33796085e-05
8.3384177e-05
8.33807905e-05
8.33842537e-05
8.33822907e-05
8.33863625e-05
8.33833902e-05
8.33865304e-05
8.33847543e-05
8.33884408e-05
8.33858146e-05
8.33886036e-05
8.33870164e-05
8.33902479e-05
8.33881881e-05
8.33903978e-05
8.33891967e-05
8.3391672e-05
8.33908694e-05
8.33918313e-05
8.33916589e-05
8.33926746e-05
8.33949076e-05
8.33929748e-05
8.33948766e-05
8.33934873e-05
8.33962157e-05
8.33939861e-05
8.33966148e-05
8.33944331e-05
8.33958547e-05
8.33949852e-05
8.33966137e-05
8.3395363e-05
8.33963826e-05
8.33959087e-05
8.33971909e-05
8.33962476e-05
8.33971018e-05
8.3396757e-05
8.33978816e-05
8.33970579e-05
8.33978203e-05
8.33975161e-05
8.33985548e-05
8.33978006e-05
8.33984764e-05
8.33981888e-05
8.33992453e-05
8.33985809e-05
8.33991726e-05
8.33989326e-05
8.34007912e-05
8.34002691e-05
8.33999765e-05
8.33997112e-05
8.34008111e-05
8.34009009e-05
8.34008417e-05
8.34008138e-05
8.34010498e-05
8.34010595e-05
8.3401225e-05
8.34012346e-05
8.34013925e-05
8.34014117e-05
8.34015437e-05
8.34015735e-05
8.34016733e-05
8.34017149e-05
8.34017774e-05
8.34018299e-05
8.34018547e-05
8.34019135e-05
8.34019062e-05
8.34019634e-05
8.34019345e-05
8.34019817e-05
8.34019431e-05
8.34019749e-05
8.34019367e-05
8.34019528e-05
8.34019221e-05
8.34019268e-05
8.34019084e-05
8.34019087e-05
8.34019045e-05
8.34018325e-05
8.34017627e-05
8.34017135e-05
8.34016789e-05
8.34016558e-05
8.34016414e-05
8.34016328e-05
8.34016281e-05
8.34016256e-05
8.34016245e-05
8.34016239e-05
8.34016237e-05
8.34016236e-05
8.34016236e-05
8.34016236e-05
8.34016236e-05
8.34016236e-05
8.34016236e-05
8.34016236e-05
8.34016236e-05
8.34016236e-05
8.34016236e-05
8.34016236e-05
8.34016236e-05
8.34016236e-05
8.34016236e-05
8.34016236e-05
8.34016236e-05
8.34016236e-05
8.34016236e-05
8.34016236e-05
8.34016236e-05
8.34016236e-05
8.34016236e-05
8.34016236e-05
8.34016236e-05
8.34016236e-05
8.34016236e-05
8.34016236e-05
8.34016236e-05
8.34016236e-05
8.34016236e-05
8.34016236e-05
8.34016236e-05
)
;

boundaryField
{
    closed
    {
        type            calculated;
        value           nonuniform List<scalar> 0();
    }
    open
    {
        type            calculated;
        value           uniform 8.34016236e-05;
    }
    sides
    {
        type            empty;
    }
    procBoundary5to4
    {
        type            processor;
        value           uniform 7.63974747e-05;
    }
}


// ************************************************************************* //
