/*--------------------------------*- C++ -*----------------------------------*\
| =========                 |                                                 |
| \\      /  F ield         | OpenFOAM: The Open Source CFD Toolbox           |
|  \\    /   O peration     | Version:  2306                                  |
|   \\  /    A nd           | Website:  www.openfoam.com                      |
|    \\/     M anipulation  |                                                 |
\*---------------------------------------------------------------------------*/
FoamFile
{
    version     2.0;
    format      ascii;
    arch        "LSB;label=32;scalar=64";
    class       volScalarField;
    location    "0.0011";
    object      H;
}
// * * * * * * * * * * * * * * * * * * * * * * * * * * * * * * * * * * * * * //

dimensions      [0 0 0 0 0 0 0];

internalField   nonuniform List<scalar> 
530
(
1.58569961e-05
1.26031911e-05
2.91529564e-10
2.91503259e-10
1.57185273e-05
1.07088469e-05
3.13226622e-10
3.12004188e-10
1.452675e-05
9.86801976e-06
3.31849703e-10
3.30291629e-10
1.33679812e-05
9.06460794e-06
3.55140307e-10
3.51950935e-10
1.23410005e-05
8.42545285e-06
3.80609332e-10
3.77180885e-10
1.15521208e-05
7.75158426e-06
4.052682e-10
4.01903586e-10
1.09441547e-05
7.10797994e-06
4.30265402e-10
4.26221765e-10
1.04180639e-05
6.78737964e-06
4.52409454e-10
4.49850966e-10
9.91070864e-06
6.47079951e-06
4.74486247e-10
4.73960358e-10
9.26617373e-06
6.26789594e-06
5.01880832e-10
5.04592985e-10
8.81204245e-06
6.11092811e-06
5.26170051e-10
5.31182291e-10
8.52498172e-06
5.95419977e-06
5.49467536e-10
5.55460493e-10
8.27365861e-06
5.95674113e-06
5.71700588e-10
5.78406032e-10
8.03589195e-06
5.90730081e-06
5.93923575e-10
6.00703506e-10
7.84334132e-06
5.8122873e-06
6.15875228e-10
6.23054998e-10
7.66741056e-06
5.68318196e-06
6.44507881e-10
6.54031846e-10
7.55691419e-06
5.5261172e-06
6.76999332e-10
6.8530207e-10
7.41824006e-06
5.4223689e-06
7.10076884e-10
7.18009703e-10
7.21194839e-06
5.27691305e-06
7.43505231e-10
7.51566062e-10
7.02875437e-06
5.0937925e-06
7.77070493e-10
7.85675465e-10
6.86830599e-06
4.91942773e-06
8.10641476e-10
8.20047238e-10
6.71037057e-06
4.76149773e-06
8.49144821e-10
8.61608865e-10
6.53887184e-06
4.62325853e-06
8.96429825e-10
9.09260806e-10
6.37282638e-06
4.48456712e-06
9.44693952e-10
9.57826471e-10
6.20018157e-06
4.34703174e-06
9.93376155e-10
1.00794007e-09
6.0351005e-06
4.1921631e-06
1.0431292e-09
1.05938194e-09
5.90167937e-06
4.04778501e-06
1.09384287e-09
1.11213513e-09
5.78237679e-06
3.89912755e-06
1.14871434e-09
1.1714137e-09
5.63830938e-06
3.78513678e-06
1.21895793e-09
1.24290418e-09
5.47498046e-06
3.68302104e-06
1.29177159e-09
1.31567119e-09
5.32729098e-06
3.5725031e-06
1.36665548e-09
1.39080785e-09
5.18044993e-06
3.44819478e-06
1.44278984e-09
1.46837837e-09
5.0524192e-06
3.30674417e-06
1.52036381e-09
1.54827806e-09
4.93897485e-06
3.18077753e-06
1.60096876e-09
1.63831658e-09
4.82520554e-06
3.08465793e-06
1.70490557e-09
1.74604737e-09
4.70503608e-06
2.98157712e-06
1.81261363e-09
1.85587494e-09
4.54282534e-06
2.91211008e-06
1.91519247e-09
1.96524815e-09
4.38907237e-06
2.86004257e-06
2.01824652e-09
2.06736025e-09
4.16675761e-06
2.93189699e-06
2.1401668e-09
2.16686069e-09
3.5754924e-06
3.19379435e-06
2.25901323e-09
2.26832612e-09
3.08529336e-06
3.2532677e-06
2.39946563e-09
2.39468232e-09
2.79973409e-06
3.25987425e-06
2.54193947e-09
2.52388519e-09
2.55511644e-06
3.25643763e-06
2.685082e-09
2.65197031e-09
2.33930639e-06
3.22903187e-06
2.82418195e-09
2.78075408e-09
2.15301115e-06
3.20299381e-06
2.96261811e-09
2.91308473e-09
1.99432585e-06
3.1229193e-06
3.1038488e-09
3.04734017e-09
1.82211585e-06
3.0313315e-06
3.24611025e-09
3.18247675e-09
1.65596744e-06
2.93855672e-06
3.40619595e-09
3.32723581e-09
1.49793948e-06
2.84615117e-06
3.57986549e-09
3.49239906e-09
1.34645474e-06
2.75453442e-06
3.75229327e-09
3.656525e-09
1.2038759e-06
2.66508941e-06
3.92229155e-09
3.81915368e-09
1.10669591e-06
2.5790332e-06
4.08726066e-09
3.97972784e-09
1.07017578e-06
2.48876657e-06
4.24794489e-09
4.13540555e-09
1.03379482e-06
2.38443218e-06
4.40835908e-09
4.28787936e-09
9.98285997e-07
2.29068809e-06
4.58751698e-09
4.43826921e-09
9.68322597e-07
2.18877642e-06
4.76208966e-09
4.60383127e-09
9.50791112e-07
2.07221811e-06
4.93550826e-09
4.77916163e-09
9.38673205e-07
1.93693349e-06
5.12979856e-09
4.9706745e-09
9.23593896e-07
1.78404263e-06
5.31832701e-09
5.1773234e-09
9.06124505e-07
1.6086899e-06
5.50274937e-09
5.38478491e-09
8.88262539e-07
1.41846914e-06
5.68285929e-09
5.58884268e-09
8.69414386e-07
1.30706016e-06
5.85873672e-09
5.78073712e-09
8.48001258e-07
1.24192222e-06
6.03030286e-09
5.96563043e-09
8.24520994e-07
1.18068813e-06
6.1971598e-09
6.14569774e-09
7.99625808e-07
1.12305144e-06
6.35893116e-09
6.32049867e-09
7.73437738e-07
1.06776333e-06
6.51527401e-09
6.49050581e-09
7.4638131e-07
1.01217014e-06
6.66596185e-09
6.64593216e-09
7.17309331e-07
9.5263065e-07
6.81116286e-09
6.79373964e-09
6.86749849e-07
8.98286163e-07
6.95078423e-09
6.93586614e-09
6.55853501e-07
8.47495444e-07
7.08472359e-09
7.07187604e-09
6.25296925e-07
7.99995224e-07
7.21281704e-09
7.20158924e-09
5.95472347e-07
7.55484461e-07
7.33497429e-09
7.3250995e-09
5.6649535e-07
7.13933515e-07
7.45129174e-09
7.44227483e-09
5.38419676e-07
6.738191e-07
7.56184286e-09
7.55321029e-09
5.1065884e-07
6.35699962e-07
7.66637303e-09
7.65815103e-09
4.83700791e-07
5.99574324e-07
7.76509352e-09
7.75706669e-09
4.57609773e-07
5.65307179e-07
7.85876615e-09
7.85009096e-09
4.32354803e-07
5.32685853e-07
7.95844339e-09
7.94893004e-09
4.0799453e-07
5.01556665e-07
8.05168715e-09
8.04177724e-09
3.84574662e-07
4.71840692e-07
8.13868624e-09
8.12840527e-09
3.62111435e-07
4.43506649e-07
8.21966857e-09
8.20904342e-09
3.40572136e-07
4.16522242e-07
8.29488656e-09
8.28392817e-09
3.19903159e-07
3.90861315e-07
8.36460657e-09
8.35329909e-09
3.00051465e-07
3.66504669e-07
8.42909806e-09
8.41739849e-09
2.80975519e-07
3.43443894e-07
8.48862604e-09
8.47647233e-09
2.62647852e-07
3.21685515e-07
8.54344929e-09
8.53077015e-09
2.45054207e-07
3.01250067e-07
8.59381979e-09
8.5805458e-09
2.28195372e-07
2.82154164e-07
8.63997817e-09
8.62606908e-09
2.12103491e-07
2.64346696e-07
8.68213884e-09
8.66766024e-09
1.96865917e-07
2.47599014e-07
8.72046679e-09
8.7057804e-09
1.82707134e-07
2.31296451e-07
8.75502084e-09
8.74113784e-09
1.70247714e-07
2.13923317e-07
8.78549604e-09
8.77577724e-09
1.60841842e-07
1.90244106e-07
8.81154234e-09
8.81350325e-09
1.54728128e-07
1.49629932e-07
8.83236569e-09
8.86786804e-09
1.54894085e-07
6.61404714e-08
8.85154248e-09
6.12185929e-08
1.49347524e-07
8.88885327e-09
8.87358887e-09
1.06462555e-07
1.33833282e-07
8.89607105e-09
8.90087954e-09
1.16607059e-07
1.03340631e-07
8.9060851e-09
8.94023934e-09
1.23205534e-07
3.20898337e-08
8.91641729e-09
5.32450518e-08
1.23064114e-07
8.94782266e-09
8.9281412e-09
7.7229022e-08
1.18561021e-07
8.95418649e-09
8.93978873e-09
7.89565516e-08
1.11955941e-07
8.96341321e-09
8.95076891e-09
7.5607135e-08
1.04533709e-07
8.97218946e-09
8.96101154e-09
7.13931524e-08
9.64253801e-08
8.97981757e-09
8.97104473e-09
6.78339968e-08
8.62592418e-08
8.98581972e-09
8.9823958e-09
6.6419321e-08
6.90908387e-08
8.99003024e-09
8.9995491e-09
6.64806818e-08
3.90004415e-08
8.99343528e-09
2.72494276e-08
6.58702938e-08
9.00673305e-09
8.99741121e-09
4.51146844e-08
6.33315933e-08
9.00667624e-09
9.00132252e-09
4.83697994e-08
6.0055272e-08
9.00908724e-09
9.00504465e-09
4.71891935e-08
5.62609528e-08
9.0119855e-09
9.00845325e-09
4.45351101e-08
5.23369774e-08
9.0148118e-09
9.01157671e-09
4.14577333e-08
4.83900047e-08
9.01771432e-09
9.01486313e-09
3.66323304e-08
4.22772048e-08
9.02428145e-09
9.02203588e-09
2.91472188e-08
3.45700646e-08
1.9384724e-08
1.96225869e-08
2.1000586e-08
2.26999916e-08
2.00331225e-08
2.10732009e-08
1.94433865e-08
2.02879473e-08
1.87981559e-08
1.92553438e-08
1.81353698e-08
1.81513556e-08
1.74457974e-08
1.69871871e-08
1.67085064e-08
1.58040273e-08
1.58914537e-08
1.4647847e-08
1.49666582e-08
1.35590308e-08
1.39328527e-08
1.25605515e-08
1.28300569e-08
1.16550254e-08
1.17301589e-08
1.08341002e-08
1.07064808e-08
1.00907921e-08
9.79982544e-09
9.41932912e-09
9.06021674e-09
9.02833621e-09
9.02803564e-09
9.02782368e-09
9.02767511e-09
9.02757577e-09
9.0275138e-09
9.02747714e-09
9.02745688e-09
9.02744645e-09
9.02744143e-09
9.02743919e-09
9.02743829e-09
9.02743793e-09
9.02743781e-09
9.02743776e-09
9.02743775e-09
9.02743775e-09
9.02743775e-09
9.02743774e-09
9.02743774e-09
9.02743774e-09
9.02743774e-09
9.02743774e-09
9.02743774e-09
9.02743774e-09
9.02743774e-09
9.02743774e-09
9.02743774e-09
9.02743774e-09
9.02743774e-09
9.02743774e-09
9.02743774e-09
9.02743774e-09
9.02743774e-09
9.02743774e-09
9.02743774e-09
9.02743774e-09
9.02743774e-09
9.02743774e-09
9.02743774e-09
9.02743774e-09
9.02743774e-09
9.02743774e-09
9.02743774e-09
)
;

boundaryField
{
    closed
    {
        type            calculated;
        value           nonuniform List<scalar> 0();
    }
    open
    {
        type            calculated;
        value           uniform 9.02743774e-09;
    }
    sides
    {
        type            empty;
    }
    procBoundary5to4
    {
        type            processor;
        value           uniform 2.69503904e-10;
    }
}


// ************************************************************************* //
