/*--------------------------------*- C++ -*----------------------------------*\
| =========                 |                                                 |
| \\      /  F ield         | OpenFOAM: The Open Source CFD Toolbox           |
|  \\    /   O peration     | Version:  2306                                  |
|   \\  /    A nd           | Website:  www.openfoam.com                      |
|    \\/     M anipulation  |                                                 |
\*---------------------------------------------------------------------------*/
FoamFile
{
    version     2.0;
    format      ascii;
    arch        "LSB;label=32;scalar=64";
    class       volScalarField;
    location    "0.00044";
    object      H;
}
// * * * * * * * * * * * * * * * * * * * * * * * * * * * * * * * * * * * * * //

dimensions      [0 0 0 0 0 0 0];

internalField   nonuniform List<scalar> 
531
(
2.8626408e-08
8.15909532e-10
1.61757369e-08
4.34271002e-08
2.85589903e-08
8.81295936e-10
1.6732105e-08
3.8494549e-08
2.11200452e-08
1.74857855e-08
3.75596254e-08
2.66886724e-08
9.68759659e-10
1.4306606e-08
4.05594588e-08
2.68991891e-08
9.94974673e-10
6.07925484e-09
3.85675511e-08
4.80529403e-08
2.79995198e-08
9.27391921e-10
1.42245688e-08
4.1229376e-08
2.64697266e-08
1.00243367e-09
1.49748643e-08
4.06585862e-08
2.66809815e-08
1.05610428e-09
5.70367104e-09
3.87478532e-08
4.77494148e-08
2.72076221e-08
9.79969122e-10
1.38979069e-08
4.00429768e-08
2.66677305e-08
1.09293271e-09
3.02837038e-09
3.83015035e-08
4.80893193e-08
2.72307023e-08
9.76622914e-10
1.44806255e-08
4.16803619e-08
2.62324177e-08
1.04269962e-09
1.54365549e-08
4.11668414e-08
2.69966334e-08
1.10612959e-09
3.971434e-09
3.94696075e-08
4.85126646e-08
2.71144612e-08
9.96510484e-10
1.46663047e-08
4.2012467e-08
2.61326453e-08
1.06389742e-09
1.55778274e-08
4.13294651e-08
2.70857139e-08
1.136347e-09
3.27189105e-09
4.00143699e-08
4.87396701e-08
2.6793209e-08
1.02335084e-09
1.47067676e-08
4.20196222e-08
2.58108004e-08
1.0969888e-09
1.58273485e-08
4.12580818e-08
2.76044092e-08
1.20109868e-09
8.21328226e-10
3.93068318e-08
4.91723385e-08
2.62363319e-08
1.04013384e-09
1.47991975e-08
4.12714228e-08
2.75635538e-08
1.22303126e-09
9.27755186e-10
3.89036835e-08
4.83178398e-08
2.58812856e-08
1.05028749e-09
1.46682401e-08
4.09113086e-08
2.73563746e-08
1.23616279e-09
9.04909555e-10
3.85237166e-08
4.70831886e-08
2.72424973e-08
1.16320707e-09
8.69061118e-10
3.89811939e-08
4.70487646e-08
2.71347112e-08
1.16206217e-09
8.7485529e-10
3.95570319e-08
4.74327938e-08
2.69641375e-08
1.20567171e-09
1.02499752e-09
3.67565405e-08
4.66333301e-08
2.59767335e-08
1.0592557e-09
1.39498449e-08
4.08300974e-08
2.76824522e-08
1.24302127e-09
7.93231297e-10
4.05016854e-08
4.80069928e-08
2.51316724e-08
1.04433871e-09
1.42459376e-08
4.02936628e-08
2.67616695e-08
1.25058105e-09
8.19605343e-10
4.04413711e-08
4.70404911e-08
2.33228259e-08
1.03838666e-09
1.91382821e-08
3.63247464e-08
1.99209147e-08
2.13279758e-08
4.05378132e-08
2.3405629e-08
1.05072066e-09
1.99646515e-08
4.24494283e-08
2.19794386e-08
1.0253715e-09
2.10694503e-08
4.17627329e-08
2.45521908e-08
1.23803837e-09
7.48413249e-10
4.34943392e-08
4.78705624e-08
2.06423921e-08
9.66960948e-10
2.10302373e-08
4.10942265e-08
2.34814588e-08
1.24125282e-09
6.67628832e-10
4.4357034e-08
4.78760629e-08
1.90855705e-08
9.47941615e-10
2.26417465e-08
4.10122374e-08
2.22087444e-08
1.25156289e-09
7.02605516e-10
4.41570525e-08
4.68029643e-08
2.15830707e-08
1.19299119e-09
7.5158352e-10
4.39454273e-08
4.55397727e-08
2.20197078e-08
1.1788139e-09
6.4304863e-10
4.59254819e-08
4.68934126e-08
1.64714816e-08
8.98517465e-10
2.5468838e-08
4.12240757e-08
1.46842445e-08
9.50310256e-10
2.68529895e-08
4.08337942e-08
2.04026529e-08
1.20762197e-09
5.48371764e-10
4.80143996e-08
4.81713594e-08
1.44772364e-08
8.44937155e-10
2.88162832e-08
4.20123124e-08
1.18540195e-08
9.27321579e-10
2.92390962e-08
4.11454039e-08
1.8403201e-08
1.1541821e-09
5.36176785e-09
4.73972332e-08
4.72241803e-08
1.10618643e-08
9.05697721e-10
2.92975096e-08
4.03293112e-08
1.79489777e-08
1.21165704e-09
4.47630318e-10
4.72883051e-08
4.75533338e-08
8.8586217e-09
9.57272939e-10
3.05223696e-08
3.87785806e-08
1.41200324e-08
1.33384937e-09
8.00567674e-10
3.83833819e-08
4.8446051e-08
2.73386633e-08
6.50935885e-10
3.11538187e-08
3.48257213e-08
1.2064134e-08
2.62739338e-08
3.93437106e-08
4.33215739e-09
1.06869597e-09
3.28118376e-08
4.03784221e-08
1.49499731e-08
1.16991296e-09
5.2724501e-09
4.75094913e-08
4.77056243e-08
6.3951007e-09
9.18009092e-10
3.53523334e-08
4.32352408e-08
2.46089768e-09
9.69781378e-10
3.77527532e-08
4.41005608e-08
3.18450285e-09
9.79355779e-10
3.81117291e-08
4.37820932e-08
1.26773363e-09
1.0228071e-09
3.4581745e-08
4.22219796e-08
1.80074163e-08
1.13726732e-09
8.38158801e-10
4.71285201e-08
4.9569053e-08
6.81592973e-09
9.78643588e-10
3.38778549e-08
4.21261037e-08
1.57874577e-08
1.16479576e-09
9.45122103e-10
4.54394318e-08
4.86357067e-08
7.73846401e-09
1.01651196e-09
3.38169096e-08
4.23368482e-08
1.61827392e-08
1.17477075e-09
9.90681727e-10
4.22425837e-08
4.68837346e-08
2.0420927e-08
1.06459396e-09
3.11208626e-09
4.47180545e-08
4.64501635e-08
1.25889543e-08
1.06844182e-09
1.64740424e-08
4.40913369e-08
4.30498979e-08
7.6691555e-09
1.10188878e-09
1.95329359e-08
4.65707184e-08
4.48639516e-08
2.27536092e-09
1.10371068e-09
3.61692738e-08
4.28433199e-08
5.4886046e-10
1.13378199e-09
3.40803632e-08
4.2575079e-08
1.88216454e-08
1.06731246e-09
5.98248976e-10
4.67584473e-08
4.96410516e-08
5.32897672e-09
1.05473323e-09
3.14954837e-08
4.20603234e-08
2.15702855e-08
1.03417879e-09
9.97526143e-10
4.20415478e-08
4.98045986e-08
7.82650746e-09
1.03231713e-09
3.06576307e-08
4.17329241e-08
2.18430836e-08
1.05747354e-09
1.09187244e-09
3.52837846e-08
4.78448575e-08
2.82365358e-08
8.69082414e-10
1.00313941e-09
3.62746915e-08
4.76483566e-08
1.77853045e-08
9.52889393e-10
1.42057338e-08
3.97165562e-08
4.2686608e-08
2.74822592e-08
8.76785803e-10
1.04166303e-09
3.55331006e-08
4.86537876e-08
1.46766903e-08
9.37533135e-10
3.05320199e-08
4.28874207e-08
7.50251859e-09
1.08952526e-09
2.87981854e-08
4.2115032e-08
2.42669427e-08
9.01813337e-10
8.51297943e-10
3.99049838e-08
4.90975876e-08
1.4230148e-08
9.93169648e-10
2.58038977e-08
4.12513653e-08
2.74385745e-08
8.99541679e-10
1.09949289e-09
3.23897276e-08
4.79190651e-08
2.28516718e-08
8.65279106e-10
9.10826494e-09
4.17604951e-08
3.86199737e-08
6.7406777e-10
2.01703687e-08
3.54861652e-08
1.88467208e-08
1.89124863e-08
3.80702978e-08
2.85091537e-08
9.51500155e-10
1.26185913e-09
2.74538347e-08
4.5371033e-08
3.39858384e-08
7.58032114e-10
1.22800551e-09
2.94403988e-08
4.71312165e-08
3.4456428e-08
7.31574288e-10
1.22167037e-09
2.86793223e-08
4.65229556e-08
3.61714662e-08
6.94956886e-10
1.1973444e-09
3.11635097e-08
4.76761503e-08
1.94983227e-08
9.55065242e-10
2.14970408e-08
4.17787813e-08
2.93997861e-08
9.00978884e-10
1.04127155e-09
3.58069904e-08
4.83771135e-08
1.7454093e-08
1.00714229e-09
2.18329098e-08
4.15877241e-08
3.0361248e-08
9.33591809e-10
1.13250279e-09
3.37688814e-08
4.82766856e-08
1.99076612e-08
9.88951188e-10
2.20577781e-08
4.16033864e-08
2.64358978e-08
1.01090558e-09
9.42293418e-10
3.7242652e-08
4.75535971e-08
2.38293367e-08
9.41393457e-10
9.69487442e-09
4.32372336e-08
4.34670126e-08
1.66610672e-09
1.19621273e-09
2.98297167e-08
4.39837489e-08
1.90291001e-08
1.05304999e-09
2.12204264e-08
4.01283012e-08
2.56807982e-08
9.218078e-09
3.06365667e-08
4.14246783e-08
7.33306616e-09
1.14001368e-09
2.75624472e-08
4.46923869e-08
2.20819822e-08
1.00299572e-09
2.31939445e-08
4.40708714e-08
1.96167612e-08
1.04150585e-09
1.98347466e-08
4.31211585e-08
3.47865368e-08
9.6636265e-10
1.25771788e-09
2.92854418e-08
4.84918332e-08
2.90983406e-08
9.05952437e-10
2.10183763e-08
4.38205122e-08
1.67905022e-08
1.07857412e-09
2.06987771e-08
4.28886104e-08
3.39719108e-08
1.01072518e-09
1.24611154e-09
3.01560595e-08
4.83892539e-08
2.90629099e-08
9.23995053e-10
2.17960762e-08
4.39370961e-08
1.50499574e-08
1.09701282e-09
2.06982051e-08
4.30211444e-08
3.5786724e-08
9.98754675e-10
1.28331435e-09
2.70908435e-08
4.81381037e-08
3.06508338e-08
9.19190138e-10
1.89139483e-08
4.4531267e-08
2.05487703e-08
1.05326869e-09
1.80917958e-08
4.33907178e-08
3.69300495e-08
9.97586099e-10
1.28007284e-09
2.55113513e-08
4.76477065e-08
4.19549805e-08
9.33943335e-10
1.24087646e-09
2.58560981e-08
4.66380513e-08
4.12708603e-08
9.61602256e-10
1.25065243e-09
2.5036063e-08
4.59421932e-08
4.13862705e-08
9.81706865e-10
1.25520048e-09
2.43419713e-08
4.56444657e-08
4.16273213e-08
9.98073465e-10
1.25206087e-09
2.38682231e-08
4.57053001e-08
4.28482513e-08
1.01292896e-09
1.23667866e-09
2.4645182e-08
4.66781098e-08
4.25681663e-08
9.7802119e-10
1.26741825e-09
1.88706005e-08
4.44951625e-08
4.41114847e-08
1.06282773e-09
1.19052512e-09
2.55358375e-08
4.90021365e-08
3.67104872e-08
9.67318851e-10
1.44490171e-09
)
;

boundaryField
{
    closed
    {
        type            calculated;
        value           nonuniform List<scalar> 0();
    }
    open
    {
        type            calculated;
        value           nonuniform List<scalar> 0();
    }
    sides
    {
        type            empty;
    }
    procBoundary1to0
    {
        type            processor;
        value           uniform 4.16696952e-08;
    }
    procBoundary1to2
    {
        type            processor;
        value           uniform 1.24649129e-09;
    }
}


// ************************************************************************* //
