/*--------------------------------*- C++ -*----------------------------------*\
| =========                 |                                                 |
| \\      /  F ield         | OpenFOAM: The Open Source CFD Toolbox           |
|  \\    /   O peration     | Version:  2306                                  |
|   \\  /    A nd           | Website:  www.openfoam.com                      |
|    \\/     M anipulation  |                                                 |
\*---------------------------------------------------------------------------*/
FoamFile
{
    version     2.0;
    format      ascii;
    arch        "LSB;label=32;scalar=64";
    class       volScalarField;
    location    "0.00038";
    object      mu;
}
// * * * * * * * * * * * * * * * * * * * * * * * * * * * * * * * * * * * * * //

dimensions      [1 -1 -1 0 0 0 0];

internalField   nonuniform List<scalar> 
530
(
1.99621164e-05
1.98249982e-05
1.97986887e-05
1.97985528e-05
1.9798536e-05
1.97985358e-05
1.97985358e-05
1.97985358e-05
1.97985358e-05
1.97985358e-05
1.97985358e-05
1.97985358e-05
1.97985358e-05
1.97985358e-05
1.97985358e-05
1.97985358e-05
1.97985358e-05
1.97985358e-05
1.97985358e-05
1.97985358e-05
1.97985358e-05
1.97985358e-05
1.97985358e-05
1.97985358e-05
1.97985358e-05
1.97985358e-05
1.97985358e-05
1.97985358e-05
1.97985358e-05
1.97985358e-05
1.97985358e-05
1.97985358e-05
1.97985358e-05
1.97985358e-05
1.97985358e-05
1.97985358e-05
1.97985358e-05
1.97985358e-05
1.97985358e-05
1.97985358e-05
1.97985358e-05
1.97985358e-05
1.97985358e-05
1.97985358e-05
1.97985358e-05
1.97985358e-05
1.97985358e-05
1.97985358e-05
1.97985358e-05
1.97985358e-05
1.97985358e-05
1.97985358e-05
1.97985358e-05
1.97985358e-05
1.97985358e-05
1.97985358e-05
1.97985358e-05
1.97985358e-05
1.97985358e-05
1.97985358e-05
1.97985358e-05
1.97985358e-05
1.97985358e-05
1.97985358e-05
1.97985358e-05
1.97985358e-05
1.97985358e-05
1.97985358e-05
1.97985358e-05
1.97985358e-05
1.97985358e-05
1.97985358e-05
1.97985358e-05
1.97985358e-05
1.97985358e-05
1.97985358e-05
1.97985358e-05
1.97985358e-05
1.97985358e-05
1.97985358e-05
1.97985358e-05
1.97985358e-05
1.97985358e-05
1.97985358e-05
1.97985358e-05
1.97985358e-05
1.97985359e-05
1.97985358e-05
1.97985354e-05
1.97985361e-05
1.97985426e-05
1.97985402e-05
1.97984867e-05
1.97985279e-05
1.97989823e-05
1.9798976e-05
1.979628e-05
1.97969414e-05
1.981046e-05
1.98113661e-05
1.9768899e-05
1.97691803e-05
1.99431308e-05
1.99397126e-05
1.97632873e-05
1.96840473e-05
2.0180079e-05
2.02653327e-05
1.97689378e-05
1.95233356e-05
1.97869812e-05
2.02840641e-05
2.01844206e-05
1.94882259e-05
1.9661026e-05
2.02854085e-05
2.01883822e-05
1.95096032e-05
1.96716118e-05
2.02871997e-05
2.02024649e-05
1.94975198e-05
1.96600029e-05
2.02902106e-05
2.02028615e-05
1.94869176e-05
1.96608098e-05
2.0291004e-05
2.02108398e-05
1.94919089e-05
1.96689309e-05
2.03018158e-05
2.02220182e-05
1.95362087e-05
1.97225486e-05
2.03129208e-05
2.02595966e-05
1.96977252e-05
1.94666721e-05
1.97555065e-05
2.02982598e-05
2.02530574e-05
1.95799925e-05
1.9737317e-05
2.03146149e-05
2.02694871e-05
1.96940525e-05
1.94937793e-05
1.97551913e-05
2.02993198e-05
2.02623713e-05
1.956942e-05
1.97154465e-05
2.03081169e-05
2.02691936e-05
1.95981642e-05
1.95055406e-05
1.99273271e-05
2.02638397e-05
1.96756994e-05
1.95464635e-05
2.02856318e-05
2.02425407e-05
1.94944858e-05
1.96410328e-05
2.02984849e-05
2.02533835e-05
1.95457217e-05
1.96872559e-05
2.03169166e-05
2.02699029e-05
1.96877975e-05
1.94933349e-05
1.97601361e-05
2.02879583e-05
2.028395e-05
1.95229437e-05
1.96185021e-05
2.03081256e-05
2.02771743e-05
1.95370078e-05
1.96572098e-05
2.03144258e-05
2.02828795e-05
1.97075545e-05
1.94810279e-05
1.97586499e-05
2.0296413e-05
2.03005363e-05
1.9567592e-05
1.96537686e-05
2.03106902e-05
2.02862344e-05
1.96998045e-05
1.9498899e-05
1.97645253e-05
2.02790206e-05
2.02974386e-05
1.95063108e-05
1.957365e-05
2.02851421e-05
2.02850231e-05
1.94901548e-05
1.95491702e-05
2.02880493e-05
2.02827338e-05
1.94879072e-05
1.95549733e-05
2.02947777e-05
2.02875988e-05
1.95077131e-05
1.96032965e-05
2.03103318e-05
2.02852813e-05
1.97381694e-05
1.94988553e-05
1.97627239e-05
2.02825988e-05
2.03066324e-05
1.9530022e-05
1.95747633e-05
2.02874091e-05
2.02954926e-05
1.94873741e-05
1.95416491e-05
2.029973e-05
2.02849159e-05
1.95566724e-05
1.95023626e-05
2.00077557e-05
2.02713855e-05
1.97956409e-05
1.94899783e-05
1.97206288e-05
2.02873334e-05
2.03062168e-05
1.95028491e-05
1.95522517e-05
2.03074236e-05
2.02972997e-05
1.9540203e-05
1.96192952e-05
2.03186048e-05
2.02912383e-05
1.97371591e-05
1.95105576e-05
1.97481103e-05
2.02891746e-05
2.0308783e-05
1.95362073e-05
1.9602162e-05
2.03253772e-05
2.02991961e-05
1.9756812e-05
1.96943061e-05
1.98121816e-05
1.98165187e-05
1.97703365e-05
1.98492057e-05
2.03029156e-05
1.977157e-05
1.9474961e-05
1.97551694e-05
2.02831438e-05
2.02892769e-05
1.95130828e-05
1.95957214e-05
2.03013865e-05
2.02675806e-05
1.95037688e-05
1.96047364e-05
2.03144361e-05
2.02755541e-05
1.96407678e-05
1.94815155e-05
1.98714882e-05
2.02573642e-05
1.96097974e-05
1.96264797e-05
2.02891177e-05
2.02776986e-05
2.02638285e-05
1.93734241e-05
1.93079744e-05
2.00876652e-05
2.02269896e-05
1.95920754e-05
1.96990047e-05
2.03188795e-05
2.02730014e-05
1.97531866e-05
1.94539063e-05
1.9738413e-05
2.03099934e-05
2.02835861e-05
1.97401852e-05
1.95096467e-05
1.97522184e-05
2.02982005e-05
2.02635339e-05
1.95483001e-05
1.96781225e-05
2.03169975e-05
2.02776987e-05
1.96984152e-05
1.95243895e-05
1.97514235e-05
2.02958303e-05
2.02734159e-05
1.95637954e-05
1.95554301e-05
1.98784395e-05
2.02938498e-05
1.98887399e-05
1.96340648e-05
1.96391861e-05
1.98846782e-05
2.0314784e-05
1.98839825e-05
1.97582798e-05
1.97610211e-05
1.97735326e-05
1.98802259e-05
2.00392772e-05
1.98539889e-05
1.97694059e-05
1.97155101e-05
1.97603381e-05
2.03360474e-05
2.02918237e-05
1.97414085e-05
1.94965861e-05
1.976578e-05
2.0283069e-05
2.0269591e-05
1.94660482e-05
1.960004e-05
2.03035365e-05
2.02634962e-05
1.95196996e-05
1.96536801e-05
2.03194978e-05
2.0281549e-05
1.97441504e-05
1.95108294e-05
1.97459183e-05
2.02904857e-05
2.02966304e-05
1.95482696e-05
1.95306484e-05
2.00074636e-05
2.02881952e-05
1.99119636e-05
1.94871428e-05
1.96333866e-05
2.03136044e-05
2.02891191e-05
1.97456626e-05
1.95215359e-05
1.97543998e-05
2.02816188e-05
2.02981954e-05
1.94990244e-05
1.95500067e-05
2.03168811e-05
2.02850492e-05
1.97618566e-05
1.95117393e-05
1.97488622e-05
2.03143511e-05
2.03261043e-05
1.97186753e-05
1.9692814e-05
1.98378204e-05
1.99385268e-05
1.98130208e-05
1.97668739e-05
1.97695605e-05
1.98422287e-05
1.99074929e-05
1.9799586e-05
1.97213008e-05
1.97670461e-05
2.03040889e-05
2.03147601e-05
1.95160572e-05
1.95454963e-05
2.02932571e-05
2.0292724e-05
1.97289753e-05
1.95006466e-05
1.97592808e-05
2.02775166e-05
2.03167188e-05
1.95181986e-05
1.9478426e-05
2.02743859e-05
2.02938301e-05
1.95693974e-05
1.95649277e-05
2.02907864e-05
2.02937925e-05
1.97482535e-05
1.95039555e-05
1.96810104e-05
2.02860132e-05
2.03104541e-05
1.95838372e-05
1.95582024e-05
2.02913044e-05
2.02980624e-05
1.97502207e-05
1.95110336e-05
1.96681603e-05
2.02817284e-05
2.03099206e-05
1.95809749e-05
1.95438639e-05
2.0293959e-05
2.02915093e-05
1.97574294e-05
1.95061179e-05
1.97375268e-05
2.0268624e-05
2.03097419e-05
1.95745359e-05
1.95284317e-05
2.02541036e-05
2.02743761e-05
1.95433149e-05
1.95093713e-05
2.02609655e-05
2.02870387e-05
1.95470234e-05
1.95109384e-05
2.02953828e-05
2.0284484e-05
1.97639963e-05
1.95006269e-05
1.9624349e-05
2.02874144e-05
2.03088571e-05
1.9602812e-05
1.95434765e-05
2.02977308e-05
2.03044593e-05
1.97580491e-05
1.95276841e-05
1.95973821e-05
2.03009997e-05
2.03030499e-05
1.97537171e-05
1.95187273e-05
1.97533458e-05
2.02847188e-05
2.03288256e-05
1.95755155e-05
1.94731041e-05
2.02958409e-05
2.02867262e-05
1.97526257e-05
1.95125908e-05
1.98119962e-05
2.02949848e-05
1.98449382e-05
1.97175794e-05
1.97611451e-05
1.99289706e-05
1.98911957e-05
1.97653125e-05
1.97652103e-05
1.98326424e-05
1.98348493e-05
1.97841364e-05
1.97812126e-05
1.98240518e-05
1.9828737e-05
1.97704395e-05
1.97685386e-05
1.99062892e-05
1.99214834e-05
1.97680558e-05
1.96644061e-05
1.98832707e-05
2.03090438e-05
1.97132475e-05
1.94873958e-05
2.02828351e-05
2.02889221e-05
1.9620267e-05
1.9536769e-05
2.02878025e-05
2.02922091e-05
1.97825671e-05
1.9506467e-05
1.95170195e-05
2.02872131e-05
2.02976643e-05
1.97965676e-05
1.96612053e-05
1.95688227e-05
1.95692538e-05
2.02539283e-05
2.03022573e-05
1.96836424e-05
1.96085944e-05
2.0226263e-05
2.02926711e-05
2.02350824e-05
1.95414843e-05
1.94299192e-05
2.02647173e-05
2.0281571e-05
1.97719488e-05
1.94861248e-05
1.94862017e-05
2.02768363e-05
2.02866134e-05
1.97924177e-05
1.94758612e-05
1.94790694e-05
2.02342949e-05
2.03016725e-05
1.96110918e-05
1.95176606e-05
2.02600549e-05
2.028942e-05
2.02890727e-05
1.96672324e-05
1.95795562e-05
)
;

boundaryField
{
    closed
    {
        type            calculated;
        value           uniform 2.70957236e-05;
    }
    open
    {
        type            calculated;
        value           nonuniform List<scalar> 0();
    }
    sides
    {
        type            empty;
    }
    procBoundary0to1
    {
        type            processor;
        value           uniform 2.02385981e-05;
    }
}


// ************************************************************************* //
