/*--------------------------------*- C++ -*----------------------------------*\
| =========                 |                                                 |
| \\      /  F ield         | OpenFOAM: The Open Source CFD Toolbox           |
|  \\    /   O peration     | Version:  2306                                  |
|   \\  /    A nd           | Website:  www.openfoam.com                      |
|    \\/     M anipulation  |                                                 |
\*---------------------------------------------------------------------------*/
FoamFile
{
    version     2.0;
    format      ascii;
    arch        "LSB;label=32;scalar=64";
    class       volScalarField;
    location    "0.00038";
    object      prefDZ_H;
}
// * * * * * * * * * * * * * * * * * * * * * * * * * * * * * * * * * * * * * //

dimensions      [1 -1 -1 0 0 0 0];

internalField   nonuniform List<scalar> 
530
(
0.000108736731
0.00010798912
0.000107840976
0.000107840192
0.000107840096
0.000107840095
0.000107840095
0.000107840095
0.000107840095
0.000107840095
0.000107840095
0.000107840095
0.000107840095
0.000107840095
0.000107840095
0.000107840095
0.000107840095
0.000107840095
0.000107840095
0.000107840095
0.000107840095
0.000107840095
0.000107840095
0.000107840095
0.000107840095
0.000107840095
0.000107840095
0.000107840095
0.000107840095
0.000107840095
0.000107840095
0.000107840095
0.000107840095
0.000107840095
0.000107840095
0.000107840095
0.000107840095
0.000107840095
0.000107840095
0.000107840095
0.000107840095
0.000107840095
0.000107840095
0.000107840095
0.000107840095
0.000107840095
0.000107840095
0.000107840095
0.000107840095
0.000107840095
0.000107840095
0.000107840095
0.000107840095
0.000107840095
0.000107840095
0.000107840095
0.000107840095
0.000107840095
0.000107840095
0.000107840095
0.000107840095
0.000107840095
0.000107840095
0.000107840095
0.000107840095
0.000107840095
0.000107840095
0.000107840095
0.000107840095
0.000107840095
0.000107840095
0.000107840095
0.000107840095
0.000107840095
0.000107840095
0.000107840095
0.000107840095
0.000107840095
0.000107840095
0.000107840095
0.000107840095
0.000107840095
0.000107840095
0.000107840095
0.000107840095
0.000107840095
0.000107840096
0.000107840095
0.000107840094
0.000107840097
0.000107840123
0.000107840117
0.000107839918
0.000107840103
0.000107841873
0.000107842013
0.000107831847
0.000107835151
0.000107887925
0.000107893521
0.000107747052
0.00010775777
0.000108464882
0.000108449508
0.000107846847
0.000107417698
0.000109573108
0.000110107849
0.000107839672
0.000106534494
0.000107854136
0.000110240291
0.000109599726
0.000106344507
0.000107281876
0.000110252175
0.000109610413
0.00010646162
0.000107341024
0.000110262159
0.000109678804
0.000106395644
0.000107277049
0.000110278003
0.000109680886
0.000106338136
0.000107280355
0.000110284069
0.000109718978
0.000106367171
0.000107324551
0.00011035181
0.000109791857
0.000106612821
0.000107620914
0.000110432869
0.000110065413
0.000107494586
0.000106223625
0.000107789183
0.000110332314
0.000109994936
0.000106851935
0.00010770447
0.000110445517
0.000110129447
0.000107475092
0.000106372605
0.000107787076
0.000110340232
0.000110056131
0.000106794212
0.000107584574
0.000110402659
0.000110127058
0.000106946171
0.000106434181
0.000108395857
0.000110094698
0.000107361948
0.000106658198
0.000110219562
0.000109937584
0.000106375714
0.000107171219
0.000110336483
0.000110003465
0.000106666251
0.000107426092
0.000110458382
0.000110138209
0.000107441081
0.00010636727
0.000107823351
0.00011027053
0.000110201993
0.000106537538
0.000107051455
0.000110394203
0.000110158808
0.000106618638
0.00010726361
0.000110443266
0.00011022167
0.00010754922
0.000106302255
0.000107826345
0.000110322222
0.00011031672
0.000106784348
0.000107246523
0.000110420322
0.000110246354
0.000107506354
0.000106397718
0.000107827991
0.000110213701
0.000110297872
0.000106443632
0.000106805527
0.000110249719
0.000110217302
0.00010635613
0.000106669266
0.000110266436
0.000110204257
0.000106344871
0.000106700992
0.000110308224
0.00011023776
0.000106456724
0.000106967816
0.000110413824
0.000110244719
0.000107716102
0.000106397728
0.000107840182
0.000110235989
0.000110363515
0.000106574483
0.000106813874
0.000110265553
0.000110291016
0.00010634119
0.000106633503
0.00011033029
0.000110240878
0.000106715471
0.000106417602
0.00010876106
0.000110164431
0.000107847441
0.000106350351
0.000107617915
0.000110263698
0.000110358667
0.000106427859
0.00010669329
0.000110388177
0.000110301382
0.000106636449
0.000107060065
0.000110468819
0.000110281494
0.000107712539
0.000106464294
0.00010776813
0.000110278556
0.000110375988
0.000106610817
0.000106972169
0.000110498294
0.000110336825
0.000107805364
0.000107473196
0.000107914615
0.000107923383
0.000107870392
0.000108053603
0.000110339121
0.000107772622
0.000106268572
0.000107764175
0.000110239745
0.000110246399
0.000106481898
0.000106934068
0.000110352169
0.000110105609
0.000106436068
0.000106982018
0.000110438269
0.000110174193
0.000107180972
0.000106305927
0.000108153174
0.000110051942
0.000107005549
0.000107103071
0.000110244104
0.000110210566
0.00011005845
0.000105710656
0.000105352683
0.000109132903
0.000109851029
0.000106912194
0.000107494118
0.000110471267
0.000110165185
0.000107678515
0.000106159206
0.000107718391
0.000110413583
0.00011022517
0.000107727076
0.000106460457
0.000107768033
0.000110333529
0.000110075792
0.000106679097
0.000107385234
0.000110459768
0.00011018545
0.000107499618
0.000106541915
0.00010772811
0.000110322934
0.000110152181
0.000106759275
0.000106716005
0.000108180673
0.00011030555
0.000108221973
0.000107143658
0.000107171196
0.000108205196
0.000110417507
0.00010819985
0.000107801671
0.00010778927
0.000107795729
0.000108184914
0.000108908328
0.000108073231
0.000107815443
0.000107590479
0.000107772617
0.000110562142
0.000110265185
0.000107732913
0.000106385563
0.000107798671
0.000110236477
0.00011010785
0.000106224888
0.000106954204
0.000110362051
0.00011007103
0.000106523344
0.000107247295
0.000110473412
0.000110214743
0.000107742333
0.000106466754
0.000107752594
0.000110289968
0.000110308144
0.000106670614
0.000106577903
0.000108759881
0.000110268449
0.000108323879
0.000106343337
0.000107140025
0.000110436014
0.000110266552
0.000107744884
0.000106523898
0.000107776574
0.000110231546
0.000110308859
0.000106403545
0.000106683395
0.00011042276
0.000110245811
0.000107772793
0.00010647267
0.00010777127
0.000110425337
0.000110496465
0.000107608537
0.000107464384
0.000108005265
0.000108444546
0.000107903843
0.000107764722
0.000107765229
0.000108021663
0.00010830627
0.000107856208
0.000107615873
0.000107835323
0.000110340203
0.000110391986
0.000106499353
0.00010665299
0.000110301001
0.000110298932
0.000107665969
0.00010640933
0.000107766152
0.000110198426
0.00011043
0.000106510959
0.000106291258
0.000110165926
0.000110293981
0.000106794254
0.00010676259
0.000110275597
0.000110305194
0.000107730433
0.000106429001
0.000107402622
0.000110248701
0.000110403413
0.000106873896
0.000106729203
0.00011027691
0.000110332254
0.000107733871
0.000106467662
0.000107332246
0.000110221732
0.000110400962
0.000106856977
0.000106650474
0.00011028693
0.000110290482
0.000107761552
0.000106438423
0.000107709363
0.000110138353
0.000110392348
0.000106809633
0.000106557155
0.00011001103
0.00011014736
0.000106638061
0.000106451753
0.000110079649
0.000110255594
0.00010666715
0.000106467014
0.000110290009
0.000110246083
0.000107767899
0.000106409957
0.000107091885
0.000110255091
0.00011039829
0.000106975977
0.000106650569
0.000110311155
0.000110372118
0.000107738545
0.000106563497
0.00010694611
0.000110347316
0.000110366979
0.000107751857
0.000106510823
0.00010775487
0.000110241423
0.000110508108
0.000106825442
0.000106263521
0.00011029121
0.000110258621
0.000107782748
0.000106472131
0.000107898143
0.00011028048
0.000108031907
0.000107595048
0.000107733075
0.000108401559
0.000108231399
0.000107748698
0.000107734697
0.000107979456
0.000107987814
0.000107790666
0.000107780191
0.00010794471
0.000107963963
0.000107760487
0.0001077612
0.000108299931
0.000108368107
0.000107805047
0.000107307772
0.000108199472
0.000110381093
0.00010757774
0.000106339925
0.000110201771
0.000110275737
0.000107069913
0.00010661042
0.000110234055
0.00011029686
0.00010780691
0.000106445167
0.000106504621
0.000110251289
0.000110338484
0.000107862738
0.000107293004
0.000106783017
0.000106790992
0.000110026772
0.000110363813
0.000107408028
0.000107005269
0.000109817709
0.00011030644
0.00010987508
0.000106640381
0.000106018432
0.000110075511
0.000110227913
0.000107799816
0.000106332389
0.00010633383
0.000110179315
0.00011026243
0.000107839604
0.000106273948
0.00010629923
0.000109893698
0.00011035338
0.000107012123
0.000106508646
0.000110003818
0.000110284419
0.000110267427
0.000107322092
0.000106840467
)
;

boundaryField
{
    closed
    {
        type            calculated;
        value           uniform 0.000143454472;
    }
    open
    {
        type            calculated;
        value           nonuniform List<scalar> 0();
    }
    sides
    {
        type            empty;
    }
    procBoundary0to1
    {
        type            processor;
        value           uniform 0.000109904961;
    }
}


// ************************************************************************* //
