/*--------------------------------*- C++ -*----------------------------------*\
| =========                 |                                                 |
| \\      /  F ield         | OpenFOAM: The Open Source CFD Toolbox           |
|  \\    /   O peration     | Version:  2306                                  |
|   \\  /    A nd           | Website:  www.openfoam.com                      |
|    \\/     M anipulation  |                                                 |
\*---------------------------------------------------------------------------*/
FoamFile
{
    version     2.0;
    format      ascii;
    arch        "LSB;label=32;scalar=64";
    class       surfaceScalarField;
    location    "0.00018";
    object      phi;
}
// * * * * * * * * * * * * * * * * * * * * * * * * * * * * * * * * * * * * * //

dimensions      [1 0 -1 0 0 0 0];

oriented        oriented;

internalField   nonuniform List<scalar> 
529
(
-1.07663199e-06
-1.03902714e-06
-1.00489798e-06
-9.7423286e-07
-9.47083737e-07
-9.23613294e-07
-9.03958932e-07
-8.88198243e-07
-8.76401798e-07
-8.68653145e-07
-8.65029295e-07
-8.65589549e-07
-8.70381051e-07
-8.79442933e-07
-8.92804039e-07
-9.10480655e-07
-9.32476584e-07
-9.58783371e-07
-9.8937988e-07
-1.02423181e-06
-1.06329158e-06
-1.10649818e-06
-1.15377705e-06
-1.20504004e-06
-1.26018557e-06
-1.3190987e-06
-1.38165137e-06
-1.4477025e-06
-1.51709851e-06
-1.58967375e-06
-1.665251e-06
-1.74364199e-06
-1.82464798e-06
-1.90806058e-06
-1.99366256e-06
-2.08122867e-06
-2.17052646e-06
-2.26131722e-06
-2.35335703e-06
-2.44639787e-06
-2.54018853e-06
-2.63447577e-06
-2.72900542e-06
-2.8235235e-06
-2.9177773e-06
-3.01151649e-06
-3.10449427e-06
-3.19646837e-06
-3.28720219e-06
-3.37646562e-06
-3.46403618e-06
-3.54969998e-06
-3.63325246e-06
-3.7144992e-06
-3.79325673e-06
-3.86935324e-06
-3.94262915e-06
-4.01293764e-06
-4.08014511e-06
-4.14413162e-06
-4.20479119e-06
-4.26203201e-06
-4.31577663e-06
-4.36596207e-06
-4.4125398e-06
-4.45547576e-06
-4.49475013e-06
-4.53035727e-06
-4.56230543e-06
-4.5906165e-06
-4.61532555e-06
-4.63648052e-06
-4.6541418e-06
-4.66838168e-06
-4.67928385e-06
-4.68694285e-06
-4.69146345e-06
-4.6929601e-06
-4.69155626e-06
-4.68738374e-06
-4.68058207e-06
-4.67129779e-06
-4.65968382e-06
-4.64589872e-06
-4.63010604e-06
-4.61247363e-06
-4.59317298e-06
-4.57237851e-06
-4.55026692e-06
-4.52701656e-06
-4.50280674e-06
-4.47781714e-06
-4.45222716e-06
-4.42621535e-06
-4.3999588e-06
-4.37363258e-06
-4.34740918e-06
-4.321458e-06
-4.29594484e-06
-4.27103138e-06
-4.24687477e-06
-4.22362714e-06
-4.20143517e-06
-4.18043975e-06
-4.16077557e-06
-4.14257079e-06
-4.12594666e-06
-4.11101729e-06
-4.09788936e-06
-4.08666188e-06
-4.07742597e-06
-4.07026462e-06
-4.06525263e-06
-4.06245638e-06
-4.06193381e-06
-4.0637343e-06
-4.06789862e-06
-4.07445894e-06
-4.08343883e-06
-4.09485332e-06
-4.10870897e-06
-4.12500395e-06
-4.1437282e-06
-4.1648636e-06
-4.18838413e-06
-4.21425611e-06
-4.24243841e-06
-4.27288276e-06
-4.30553401e-06
-4.34033045e-06
-4.37720414e-06
-4.41608128e-06
-4.45688255e-06
-4.49952353e-06
-4.54391505e-06
-4.58996366e-06
-4.63757201e-06
-4.68663926e-06
-4.73706157e-06
-4.78873245e-06
-4.84154329e-06
-4.89538369e-06
-4.95014197e-06
-5.00570555e-06
-5.06196134e-06
-5.11879618e-06
-5.17609724e-06
-5.23375231e-06
-5.29165026e-06
-5.34968132e-06
-5.40773741e-06
-5.46571244e-06
-5.5235026e-06
-5.58100661e-06
-5.63812596e-06
-5.69476509e-06
-5.75083163e-06
-5.80623651e-06
-5.86089414e-06
-5.91472251e-06
-5.96764325e-06
-6.01958175e-06
-6.07046718e-06
-6.1202325e-06
-6.16881448e-06
-6.21615368e-06
-6.26219437e-06
-6.30688453e-06
-6.35017575e-06
-6.3920231e-06
-6.43238507e-06
-6.47122342e-06
-6.50850304e-06
-6.5441918e-06
-6.57826041e-06
-6.6106822e-06
-6.64143299e-06
-6.67049087e-06
-6.69783603e-06
-6.72345054e-06
-6.74731815e-06
-6.7694241e-06
-6.78975493e-06
-6.80829823e-06
-6.82504247e-06
-6.83997683e-06
-6.85309095e-06
-6.86437477e-06
-6.87381839e-06
-6.88141184e-06
-6.88714496e-06
-6.89100726e-06
-6.89298777e-06
-6.89307494e-06
-6.89125652e-06
-6.88751952e-06
-6.88185011e-06
-6.87423361e-06
-6.86465444e-06
-6.85309616e-06
-6.83954147e-06
-6.82397228e-06
-6.80636979e-06
-6.78671459e-06
-6.76498678e-06
-6.74116617e-06
-6.7152324e-06
-6.68716522e-06
-6.65694469e-06
-6.62455146e-06
-6.58996703e-06
-6.55317412e-06
-6.51415694e-06
-6.47290161e-06
-6.42939647e-06
-6.38363254e-06
-6.33560386e-06
-6.28530797e-06
-6.23274629e-06
-6.17792457e-06
-6.12085334e-06
-6.06154833e-06
-6.00003091e-06
-5.93632848e-06
-5.87047493e-06
-5.80251102e-06
-5.73248472e-06
-5.66045162e-06
-5.58647517e-06
-5.51062705e-06
-5.43298738e-06
-5.35364495e-06
-5.27269735e-06
-5.19025113e-06
-5.10642183e-06
-5.02133401e-06
-4.9351212e-06
-4.84792577e-06
-4.75989878e-06
-4.67119967e-06
-4.58199603e-06
-4.49246314e-06
-4.40278355e-06
-4.31314652e-06
-4.22374743e-06
-4.1347871e-06
-4.046471e-06
-3.95900847e-06
-3.87261177e-06
-3.78749518e-06
-3.70387389e-06
-3.62196298e-06
-3.54197622e-06
-3.4641249e-06
-3.3886166e-06
-3.31565386e-06
-3.24543291e-06
-3.17814235e-06
-3.11396175e-06
-3.05306034e-06
-2.99559567e-06
-2.94171229e-06
-2.89154043e-06
-2.84519478e-06
-2.80277327e-06
-2.76435597e-06
-2.73000404e-06
-2.69975874e-06
-2.67364062e-06
-2.6516488e-06
-2.63376032e-06
-2.61992973e-06
-2.61008878e-06
-2.60414625e-06
-2.60198801e-06
-2.60347719e-06
-2.60845463e-06
-2.61673935e-06
-2.62812942e-06
-2.64240282e-06
-2.65931862e-06
-2.67861829e-06
-2.70002716e-06
-2.72325608e-06
-2.74800324e-06
-2.7739561e-06
-2.80079345e-06
-2.82818763e-06
-2.85580676e-06
-2.8833171e-06
-2.91038548e-06
-2.93668169e-06
-2.96188093e-06
-2.98566621e-06
-3.00773076e-06
-3.02778031e-06
-3.04553534e-06
-3.06073326e-06
-3.07313041e-06
-3.08250395e-06
-3.08865365e-06
-3.09140342e-06
-3.09060279e-06
-3.08612807e-06
-3.07788344e-06
-3.0658018e-06
-3.04984537e-06
-3.03000618e-06
-3.00630628e-06
-2.97879782e-06
-2.94756287e-06
-2.91271307e-06
-2.87438914e-06
-2.83276015e-06
-2.78802265e-06
-2.74039965e-06
-2.69013942e-06
-2.63751415e-06
-2.58281854e-06
-2.52636817e-06
-2.46849783e-06
-2.40955973e-06
-2.34992161e-06
-2.28996478e-06
-2.23008204e-06
-2.17067557e-06
-2.11215477e-06
-2.05493403e-06
-1.9994305e-06
-1.94606181e-06
-1.89524373e-06
-1.84738793e-06
-1.80289959e-06
-1.7621751e-06
-1.72559981e-06
-1.69354566e-06
-1.66636899e-06
-1.64440832e-06
-1.62798216e-06
-1.61738694e-06
-1.61289497e-06
-1.61475248e-06
-1.62317779e-06
-1.63835956e-06
-1.66045518e-06
-1.68958927e-06
-1.72585238e-06
-1.76929976e-06
-1.81995044e-06
-1.87778636e-06
-1.94275186e-06
-2.01475323e-06
-2.09365861e-06
-2.17929809e-06
-2.27146405e-06
-2.3699118e-06
-2.47436042e-06
-2.58449392e-06
-2.69996264e-06
-2.82038492e-06
-2.94534903e-06
-3.0744153e-06
-3.20711856e-06
-3.34297076e-06
-3.48146375e-06
-3.6220723e-06
-3.76425725e-06
-3.90746881e-06
-4.05114992e-06
-4.19473977e-06
-4.33767729e-06
-4.4794046e-06
-4.61937056e-06
-4.75703418e-06
-4.89186799e-06
-5.02336131e-06
-5.15102335e-06
-5.27438616e-06
-5.39300747e-06
-5.50647319e-06
-5.61439983e-06
-5.7164366e-06
-5.81226728e-06
-5.90161185e-06
-5.98422784e-06
-6.05991144e-06
-6.12849829e-06
-6.18986409e-06
-6.24392486e-06
-6.29063702e-06
-6.32999718e-06
-6.36204173e-06
-6.38684619e-06
-6.40452433e-06
-6.41522715e-06
-6.41914162e-06
-6.41648929e-06
-6.40752472e-06
-6.39253379e-06
-6.37183187e-06
-6.3457619e-06
-6.31469231e-06
-6.27901496e-06
-6.23914285e-06
-6.19550793e-06
-6.1485587e-06
-6.0987579e-06
-6.04658002e-06
-5.99250892e-06
-5.93703529e-06
-5.88065422e-06
-5.82386263e-06
-5.76715678e-06
-5.71102977e-06
-5.65596902e-06
-5.60245382e-06
-5.55095286e-06
-5.50192179e-06
-5.45580087e-06
-5.41301259e-06
-5.37395941e-06
-5.33902156e-06
-5.30855484e-06
-5.28288867e-06
-5.26232402e-06
-5.24713168e-06
-5.23755046e-06
-5.2337857e-06
-5.2360078e-06
-5.24435099e-06
-5.25891226e-06
-5.27975051e-06
-5.30688586e-06
-5.34029923e-06
-5.37993214e-06
-5.4256867e-06
-5.47742595e-06
-5.53497436e-06
-5.59811859e-06
-5.66660863e-06
-5.74015901e-06
-5.81845043e-06
-5.90113152e-06
-5.98782093e-06
-6.07810953e-06
-6.17156295e-06
-6.26772422e-06
-6.36611658e-06
-6.46624652e-06
-6.56760684e-06
-6.66967987e-06
-6.77194075e-06
-6.87386076e-06
-6.97491063e-06
-7.07456386e-06
-7.17229996e-06
-7.26760759e-06
-7.35998769e-06
-7.44895635e-06
-7.53404764e-06
-7.61481616e-06
-7.69083954e-06
-7.76172055e-06
-7.82708917e-06
-7.8866043e-06
-7.93995533e-06
-7.98686339e-06
-8.02708243e-06
-8.06040003e-06
-8.08663796e-06
-8.10565255e-06
-8.11733483e-06
-8.12161043e-06
-8.11843932e-06
-8.10781538e-06
-8.08976573e-06
-8.06434995e-06
-8.0316592e-06
-7.9918151e-06
-7.9449686e-06
-7.89129873e-06
-7.8310112e-06
-7.76433701e-06
-7.69153096e-06
-7.6128701e-06
-7.52865215e-06
-7.43919395e-06
-7.34482973e-06
-7.24590955e-06
-7.1427976e-06
-7.03587055e-06
-6.92551589e-06
-6.81213025e-06
-6.69611775e-06
-6.57788831e-06
-6.45785609e-06
-6.33643783e-06
-6.21405124e-06
-6.09111284e-06
-5.96803654e-06
-5.8452339e-06
-5.72311243e-06
-5.6020683e-06
-5.48248589e-06
-5.36473762e-06
-5.2492111e-06
-5.13628763e-06
-5.0262627e-06
-4.91938451e-06
-4.81602424e-06
-4.71658191e-06
-4.62144348e-06
-4.53047265e-06
-4.44355668e-06
-4.3615167e-06
-4.28517411e-06
-4.21399293e-06
-4.14701669e-06
-4.08500518e-06
-4.02871664e-06
-3.97942151e-06
-3.93499785e-06
-3.89434503e-06
-3.85915511e-06
-3.83056927e-06
-3.80735916e-06
-3.78831561e-06
-3.77378314e-06
-3.76417878e-06
)
;

boundaryField
{
    closed
    {
        type            calculated;
        value           nonuniform List<scalar> 0();
    }
    open
    {
        type            calculated;
        value           nonuniform List<scalar> 0();
    }
    sides
    {
        type            empty;
        value           nonuniform List<scalar> 0();
    }
    procBoundary2to1
    {
        type            processor;
        value           uniform 1.11748051e-06;
    }
    procBoundary2to3
    {
        type            processor;
        value           uniform -3.75988729e-06;
    }
}


// ************************************************************************* //
