/*--------------------------------*- C++ -*----------------------------------*\
| =========                 |                                                 |
| \\      /  F ield         | OpenFOAM: The Open Source CFD Toolbox           |
|  \\    /   O peration     | Version:  2306                                  |
|   \\  /    A nd           | Website:  www.openfoam.com                      |
|    \\/     M anipulation  |                                                 |
\*---------------------------------------------------------------------------*/
FoamFile
{
    version     2.0;
    format      ascii;
    arch        "LSB;label=32;scalar=64";
    class       volScalarField;
    location    "0.0014";
    object      prefDZ_H2O;
}
// * * * * * * * * * * * * * * * * * * * * * * * * * * * * * * * * * * * * * //

dimensions      [1 -1 -1 0 0 0 0];

internalField   nonuniform List<scalar> 
531
(
-7.49789315e-07
-7.32392036e-07
-7.32166813e-07
-7.80527578e-07
-7.75518194e-07
-7.64537856e-07
-7.34003585e-07
-7.33841501e-07
-7.80171711e-07
-7.4158053e-07
-7.32995246e-07
-7.81105191e-07
-7.74525146e-07
-7.75760287e-07
-7.4614138e-07
-7.36944e-07
-7.78823627e-07
-7.738833e-07
-7.51931864e-07
-7.39686483e-07
-7.34812827e-07
-7.3450279e-07
-7.79373734e-07
-7.74568445e-07
-7.45171353e-07
-7.37747716e-07
-7.31993098e-07
-7.31800097e-07
-7.80375446e-07
-7.75611614e-07
-7.40441527e-07
-7.33221439e-07
-7.41790298e-07
-7.77002034e-07
-7.73648118e-07
-7.7460579e-07
-7.74345784e-07
-7.43666585e-07
-7.34524477e-07
-7.79395335e-07
-7.75637046e-07
-7.46783829e-07
-7.304156e-07
-7.29792557e-07
-7.54765492e-07
-7.76467984e-07
-7.74481169e-07
-7.74582811e-07
-7.40745795e-07
-7.37635641e-07
-7.80177113e-07
-7.48851938e-07
-7.31655062e-07
-7.80815583e-07
-7.75411732e-07
-7.39093648e-07
-7.36041481e-07
-7.79872875e-07
-7.7407703e-07
-7.52578186e-07
-7.40148213e-07
-7.33587392e-07
-7.33368425e-07
-7.79030618e-07
-7.74566712e-07
-7.76062282e-07
-7.57033154e-07
-7.33693984e-07
-7.33341884e-07
-7.80191966e-07
-7.75575239e-07
-7.49974764e-07
-7.3254329e-07
-7.32179605e-07
-7.80016061e-07
-7.74982489e-07
-7.39444426e-07
-7.35437502e-07
-7.80458413e-07
-7.74424158e-07
-7.38846726e-07
-7.36494622e-07
-7.79755569e-07
-7.74861824e-07
-7.75633426e-07
-7.67048316e-07
-7.39437689e-07
-7.3221534e-07
-7.32039058e-07
-7.8057864e-07
-7.74491865e-07
-7.75801255e-07
-7.52039139e-07
-7.33220136e-07
-7.32878026e-07
-7.80232099e-07
-7.75738666e-07
-7.47982869e-07
-7.31930863e-07
-7.31627237e-07
-7.77202501e-07
-7.7525731e-07
-7.39224244e-07
-7.35003857e-07
-7.79444821e-07
-7.74595896e-07
-7.3844554e-07
-7.36502501e-07
-7.8054607e-07
-7.73841967e-07
-7.74716946e-07
-7.4536826e-07
-7.37473032e-07
-7.31438865e-07
-7.30676661e-07
-7.58772996e-07
-7.76601212e-07
-7.75075754e-07
-7.75489659e-07
-7.39501552e-07
-7.33695425e-07
-7.73119201e-07
-7.75221887e-07
-7.76168692e-07
-7.74527275e-07
-7.56842769e-07
-7.3870678e-07
-7.33594205e-07
-7.33249917e-07
-7.80513239e-07
-7.75954133e-07
-7.44695888e-07
-7.29945824e-07
-7.29775794e-07
-7.71009265e-07
-7.75463392e-07
-7.76026487e-07
-7.38733945e-07
-7.33465307e-07
-7.74101912e-07
-7.75512538e-07
-7.76090942e-07
-7.74937261e-07
-7.50445699e-07
-7.37379893e-07
-7.3166033e-07
-7.31463862e-07
-7.73984361e-07
-7.74714593e-07
-7.75639771e-07
-7.44527587e-07
-7.29641072e-07
-7.29411451e-07
-7.66935787e-07
-7.76176401e-07
-7.75582563e-07
-7.75178116e-07
-7.5157652e-07
-7.37651051e-07
-7.31939535e-07
-7.3173116e-07
-7.68744617e-07
-7.75520959e-07
-7.76483612e-07
-7.74421211e-07
-7.74684257e-07
-7.43921493e-07
-7.37123772e-07
-7.29735806e-07
-7.29409118e-07
-7.64935281e-07
-7.75974065e-07
-7.76378165e-07
-7.74613384e-07
-7.74836855e-07
-7.42951442e-07
-7.36398851e-07
-7.29474714e-07
-7.29410027e-07
-7.72361007e-07
-7.76168575e-07
-7.76161739e-07
-7.75387684e-07
-7.47627058e-07
-7.3635475e-07
-7.31150745e-07
-7.31107641e-07
-7.80993426e-07
-7.74716668e-07
-7.76060667e-07
-7.41123065e-07
-7.34407197e-07
-7.79205867e-07
-7.74785952e-07
-7.38959259e-07
-7.35869822e-07
-7.79380535e-07
-7.74604617e-07
-7.38337638e-07
-7.36126622e-07
-7.80284497e-07
-7.76063728e-07
-7.76372172e-07
-7.76555351e-07
-7.40586165e-07
-7.32046984e-07
-7.32509151e-07
-7.78444369e-07
-7.45354825e-07
-7.33348168e-07
-7.78957587e-07
-7.7495096e-07
-7.39634913e-07
-7.36426838e-07
-7.7836335e-07
-7.74308995e-07
-7.45117975e-07
-7.38264872e-07
-7.32124011e-07
-7.31971216e-07
-7.79551136e-07
-7.7618439e-07
-7.76497078e-07
-7.76353033e-07
-7.47801692e-07
-7.29293396e-07
-7.29109975e-07
-7.67678592e-07
-7.76312304e-07
-7.76259641e-07
-7.75520022e-07
-7.37569139e-07
-7.35059285e-07
-7.80262169e-07
-7.39820564e-07
-7.31473836e-07
-7.80591774e-07
-7.7472586e-07
-7.76169571e-07
-7.50053082e-07
-7.3631839e-07
-7.31469928e-07
-7.31346183e-07
-7.80317583e-07
-7.75454418e-07
-7.7645897e-07
-7.74798867e-07
-7.50607734e-07
-7.37865855e-07
-7.31927143e-07
-7.31735682e-07
-7.80434041e-07
-7.75731382e-07
-7.76736304e-07
-7.75539774e-07
-7.39485499e-07
-7.33518266e-07
-7.78384519e-07
-7.75382064e-07
-7.48336507e-07
-7.332309e-07
-7.3337546e-07
-7.77874066e-07
-7.44042237e-07
-7.32974502e-07
-7.78730896e-07
-7.75108517e-07
-7.38003411e-07
-7.34995282e-07
-7.79146328e-07
-7.74696022e-07
-7.36443845e-07
-7.3518517e-07
-7.79870804e-07
-7.74464291e-07
-7.75501372e-07
-7.37506389e-07
-7.34669494e-07
-7.79933311e-07
-7.739686e-07
-7.76026904e-07
-7.44587529e-07
-7.30219505e-07
-7.30497897e-07
-7.78519968e-07
-7.38455473e-07
-7.32571283e-07
-7.80024315e-07
-7.74486637e-07
-7.76170776e-07
-7.4314764e-07
-7.35124999e-07
-7.77606716e-07
-7.7469281e-07
-7.43493449e-07
-7.37041834e-07
-7.31244452e-07
-7.31207473e-07
-7.80440188e-07
-7.75892687e-07
-7.76476896e-07
-7.75691661e-07
-7.54318536e-07
-7.33051145e-07
-7.32817317e-07
-7.78319504e-07
-7.7510364e-07
-7.39335803e-07
-7.34880064e-07
-7.77649333e-07
-7.75386706e-07
-7.45668866e-07
-7.31804924e-07
-7.31689064e-07
-7.78677419e-07
-7.74981316e-07
-7.75384272e-07
-7.38128821e-07
-7.3724347e-07
-7.79147825e-07
-7.40111688e-07
-7.29187681e-07
-7.80438827e-07
-7.76051861e-07
-7.77174682e-07
-7.75253305e-07
-7.37552738e-07
-7.36093499e-07
-7.79599951e-07
-7.42324442e-07
-7.27438116e-07
-7.60405783e-07
-7.76819066e-07
-7.74946491e-07
-7.75337778e-07
-7.37174422e-07
-7.35782139e-07
-7.79340938e-07
-7.40802668e-07
-7.27548493e-07
-7.66438487e-07
-7.76556093e-07
-7.75471835e-07
-7.75358504e-07
-7.38333716e-07
-7.37008604e-07
-7.78390273e-07
-7.41001447e-07
-7.32038355e-07
-7.78962043e-07
-7.74543461e-07
-7.75932269e-07
-7.44446992e-07
-7.31960492e-07
-7.31855009e-07
-7.7762572e-07
-7.75995588e-07
-7.43583394e-07
-7.30507325e-07
-7.30424934e-07
-7.78219024e-07
-7.75074692e-07
-7.75730672e-07
-7.38768485e-07
-7.37777969e-07
-7.78282865e-07
-7.45295296e-07
-7.31050267e-07
-7.78041197e-07
-7.75565217e-07
-7.3695781e-07
-7.33733307e-07
-7.78514622e-07
-7.75003733e-07
-7.36456101e-07
-7.3393653e-07
-7.78791218e-07
-7.74885263e-07
-7.35054397e-07
-7.33364637e-07
-7.79628932e-07
-7.74871949e-07
-7.76262023e-07
-7.74570725e-07
-7.41795832e-07
-7.36648894e-07
-7.765162e-07
-7.73931565e-07
-7.46212603e-07
-7.38133349e-07
-7.34324483e-07
-7.34259026e-07
-7.77526426e-07
-7.75227285e-07
-7.43677806e-07
-7.32801145e-07
-7.3272181e-07
-7.77067173e-07
-7.75768831e-07
-7.44717617e-07
-7.31328258e-07
-7.3112269e-07
-7.78201902e-07
-7.75253065e-07
-7.35294162e-07
-7.33416021e-07
-7.79902637e-07
-7.74726289e-07
-7.77032139e-07
-7.74247424e-07
-7.74418434e-07
-7.38780858e-07
-7.35759565e-07
-7.77048676e-07
-7.74678235e-07
-7.38383361e-07
-7.34230768e-07
-7.76892138e-07
-7.75515229e-07
-7.43019799e-07
-7.30191162e-07
-7.30107926e-07
-7.78037595e-07
-7.74906202e-07
-7.75213712e-07
-7.37682501e-07
-7.33784401e-07
-7.77126703e-07
-7.75638912e-07
-7.42644248e-07
-7.30428595e-07
-7.30298298e-07
-7.77839622e-07
-7.74843721e-07
-7.74979776e-07
-7.38088151e-07
-7.34754493e-07
-7.76943246e-07
-7.75319566e-07
-7.44527985e-07
-7.32527713e-07
-7.3234682e-07
-7.77371427e-07
-7.75011013e-07
-7.39110372e-07
-7.35355302e-07
-7.76801366e-07
-7.75048142e-07
-7.4754188e-07
-7.33762748e-07
-7.33549836e-07
-7.77011602e-07
-7.74847173e-07
-7.39500581e-07
-7.35680974e-07
-7.76691632e-07
-7.75112971e-07
-7.47723227e-07
-7.33016731e-07
-7.32825696e-07
-7.77622159e-07
-7.74727278e-07
-7.37057729e-07
-7.35789273e-07
-7.78331395e-07
-7.73941649e-07
-7.75149694e-07
-7.3905437e-07
-7.35059189e-07
-7.77263303e-07
-7.74571704e-07
-7.38378829e-07
-7.35422563e-07
-7.7704352e-07
-7.74525817e-07
-7.41189662e-07
-7.36205541e-07
-7.30545796e-07
-7.30590829e-07
-7.7931574e-07
-7.7507349e-07
-7.76073278e-07
-7.37083815e-07
-7.34185771e-07
-7.78881107e-07
-7.74269361e-07
-7.75728738e-07
-7.39378909e-07
-7.34264785e-07
-7.77442553e-07
-7.75034868e-07
-7.3873283e-07
-7.34636329e-07
-7.77058467e-07
-7.75542082e-07
-7.44700822e-07
-7.31872765e-07
-7.31635496e-07
-7.78054055e-07
-7.75114429e-07
-7.37725861e-07
-7.34569262e-07
-7.78413542e-07
-7.74636102e-07
-7.36328769e-07
-7.35367548e-07
-7.78749564e-07
-7.74232614e-07
-7.75195931e-07
-7.38309594e-07
-7.33876213e-07
-7.77351067e-07
-7.75898464e-07
-7.42939756e-07
-7.29346419e-07
-7.29268141e-07
-7.78748148e-07
-7.75177732e-07
-7.75953562e-07
-7.37940145e-07
-7.33758579e-07
-7.78446288e-07
-7.74949355e-07
-7.35818615e-07
-7.34830063e-07
-7.78844484e-07
-7.74313264e-07
-7.75067675e-07
-7.38400507e-07
-7.35149193e-07
-7.7723017e-07
)
;

boundaryField
{
    closed
    {
        type            calculated;
        value           nonuniform List<scalar> 0();
    }
    open
    {
        type            calculated;
        value           nonuniform List<scalar> 0();
    }
    sides
    {
        type            empty;
    }
    procBoundary3to2
    {
        type            processor;
        value           uniform -7.75290789e-07;
    }
    procBoundary3to4
    {
        type            processor;
        value           uniform -7.7484094e-07;
    }
}


// ************************************************************************* //
