/*--------------------------------*- C++ -*----------------------------------*\
| =========                 |                                                 |
| \\      /  F ield         | OpenFOAM: The Open Source CFD Toolbox           |
|  \\    /   O peration     | Version:  2306                                  |
|   \\  /    A nd           | Website:  www.openfoam.com                      |
|    \\/     M anipulation  |                                                 |
\*---------------------------------------------------------------------------*/
FoamFile
{
    version     2.0;
    format      ascii;
    arch        "LSB;label=32;scalar=64";
    class       volScalarField;
    location    "0.0014";
    object      prefDZ_H;
}
// * * * * * * * * * * * * * * * * * * * * * * * * * * * * * * * * * * * * * //

dimensions      [1 -1 -1 0 0 0 0];

internalField   nonuniform List<scalar> 
531
(
0.000107933132
0.000105267133
0.000105302522
0.000109816326
0.000110083098
0.000108510788
0.000105875562
0.000105861761
0.000109862672
0.000107902511
0.000105489035
0.000109896065
0.00011011619
0.000110093811
0.000107940114
0.000106992058
0.000109951044
0.000110225447
0.000107992899
0.000107958582
0.000106127632
0.000106162702
0.000109903523
0.000110198746
0.000107954061
0.000107256064
0.000105173417
0.000105203581
0.000109980314
0.000110171979
0.000107774197
0.000105648547
0.000107675816
0.000110040317
0.000110446077
0.000110189002
0.000110317807
0.000107884928
0.000106190593
0.000109980285
0.000110171951
0.000107882385
0.000104768485
0.000104563066
0.000107919302
0.000110135254
0.000110333209
0.000110283583
0.000107988943
0.00010727076
0.00010984534
0.000107876668
0.000105047404
0.000109860416
0.000110134275
0.00010765799
0.000106672049
0.000109880504
0.000110203265
0.000108004691
0.000107968731
0.000105693475
0.000105756213
0.000109670068
0.00011016791
0.000109972532
0.000108120963
0.000105717562
0.00010573191
0.000109868906
0.000110105552
0.000107926687
0.000105318241
0.000105392582
0.000109745817
0.000110256021
0.000107730554
0.000106540262
0.000109797344
0.000110260514
0.000107524381
0.000106866873
0.000109730244
0.000110125708
0.000110007733
0.000108670638
0.000107850893
0.000105182528
0.000105266207
0.000109811216
0.000110179133
0.00011000414
0.000107956745
0.000105552525
0.000105578205
0.000109859032
0.000110101884
0.000107909802
0.000105101963
0.000105190132
0.000109493251
0.00011021644
0.000107667396
0.000106362983
0.000109692852
0.000110229512
0.000107385026
0.000106873655
0.000109804505
0.000110222594
0.000110078366
0.000107876102
0.000107117354
0.000105150789
0.000104796046
0.000108118438
0.000110085393
0.000110316994
0.000110202809
0.000107911564
0.000105883735
0.000109160012
0.00011017436
0.000110056452
0.000110206591
0.0001081357
0.000107629137
0.000105665693
0.00010569885
0.00010979564
0.000110101563
0.000107953387
0.00010444587
0.00010445949
0.000108984813
0.000110100847
0.000110078094
0.000107623895
0.000105734921
0.000109242101
0.000110110075
0.000110061345
0.00011014885
0.000107957487
0.000107117956
0.000105074335
0.000105066814
0.000109233737
0.00011015234
0.000110104679
0.000107902614
0.000104323197
0.000104364758
0.000108668451
0.000110073287
0.000110103587
0.0001101094
0.000107989849
0.000107188448
0.000105172254
0.000105152415
0.000108805809
0.000110111329
0.000110083894
0.000110185002
0.000110097348
0.000107885373
0.000106974892
0.000104514239
0.000104346005
0.000108521621
0.000110121447
0.000110187621
0.000110211095
0.00011013716
0.000107879725
0.000106729373
0.00010437643
0.000104332985
0.000109104018
0.000110099074
0.000110126933
0.000110139265
0.000107902405
0.000106745305
0.000104901832
0.000104924929
0.00010986598
0.000110140861
0.000110114205
0.000107990742
0.000106098323
0.000109892181
0.000110190846
0.000107603767
0.000106630362
0.000109855579
0.000110163348
0.00010735358
0.000106632643
0.00010977281
0.000109995533
0.000109959433
0.000110049643
0.000107952196
0.000105081756
0.000105412094
0.000109909745
0.000107894723
0.000105678952
0.000109942773
0.000110164009
0.000107882116
0.000106800337
0.000109953415
0.000110162125
0.000107946248
0.00010739084
0.000105190619
0.000105192597
0.000109715133
0.000110034031
0.000109996841
0.000110018047
0.000107926075
0.000104189946
0.000104256292
0.00010872265
0.000110098515
0.000110081365
0.000110164935
0.000107137743
0.000106360023
0.000109830791
0.000107917239
0.000104918434
0.00010987716
0.000110065166
0.0001100298
0.000107960977
0.00010669718
0.000104965501
0.000104997647
0.000109783929
0.000110121817
0.000109990841
0.000110156111
0.000107973823
0.000107290377
0.000105112682
0.00010516997
0.00010979647
0.00011013841
0.000110018344
0.000110170646
0.000107872823
0.000105779894
0.000109994035
0.000110117253
0.000107904851
0.000105624585
0.000105738967
0.000110006302
0.000107899993
0.000105562659
0.00010994591
0.000110155094
0.000107300385
0.000106321288
0.000109905388
0.000110188546
0.000106750101
0.000106399624
0.000109923548
0.000110173882
0.000110145967
0.000107182602
0.000106215368
0.000109938709
0.00011021872
0.00011008574
0.00010786876
0.000104527163
0.000104768467
0.000109948406
0.000107566535
0.000105372865
0.000109948397
0.000110118961
0.000110094211
0.000107931249
0.000106312375
0.000110021457
0.000110130718
0.000107926833
0.000106957982
0.000104932647
0.000104940065
0.000109871257
0.000110074555
0.000110043337
0.000110074907
0.000108027142
0.000105547762
0.000105571552
0.000109938853
0.000110170893
0.000107780969
0.000106242239
0.00010999828
0.000110103597
0.000107919725
0.000105098691
0.000105119929
0.000109945797
0.000110091685
0.000110096546
0.000107348127
0.000107049444
0.000109936668
0.000107978273
0.000104149424
0.000109870657
0.000110072531
0.000109965149
0.000110172939
0.000107104481
0.000106758576
0.000109893397
0.000107749828
0.000103485151
0.000108223492
0.000110004547
0.000110296658
0.00011016321
0.000107092936
0.000106630267
0.000109968703
0.000107806433
0.000103549463
0.000108632496
0.000110015656
0.000110206688
0.000110125389
0.00010746729
0.000106994954
0.000109999927
0.000107930243
0.000105178515
0.000110001771
0.000110085743
0.000110071164
0.000107958728
0.000105118074
0.000105164162
0.000109950117
0.000110061349
0.000107970089
0.000104619305
0.000104641594
0.00010998065
0.000110067593
0.000110063352
0.000107568418
0.000107227695
0.000109989305
0.000107909647
0.000104851716
0.000110004572
0.000110106521
0.000106934042
0.000105860594
0.000109939632
0.000110172761
0.000106716428
0.000105977901
0.000109913317
0.000110209393
0.000106223656
0.000105815222
0.000109925495
0.000110237131
0.000110051047
0.000110263966
0.000107975428
0.00010693349
0.00011011449
0.000110230006
0.000107895094
0.000107407419
0.000106058738
0.000106071204
0.000110062701
0.000110144841
0.00010791027
0.000105490053
0.000105501573
0.000110067152
0.000110083628
0.0001078844
0.000104900984
0.000104999434
0.000109932148
0.000110191032
0.000106325647
0.000105819746
0.000109942057
0.000110223136
0.000110052406
0.000110240411
0.000110185642
0.000107662485
0.000106592582
0.000110143149
0.000110212379
0.000107535432
0.000106061472
0.000110148006
0.000110167838
0.000107868693
0.000104599354
0.00010464508
0.000110071124
0.000110181683
0.000110163786
0.000107279963
0.000105875533
0.000110124663
0.000110140625
0.000107883082
0.000104661945
0.000104698765
0.000110075443
0.000110172415
0.000110164869
0.000107406536
0.000106200184
0.00011012578
0.00011012532
0.000107863357
0.000105377027
0.000105437569
0.000110038667
0.000110190349
0.000107730007
0.000106416882
0.000110106685
0.000110123705
0.000107885242
0.000105814736
0.00010583472
0.000110074623
0.000110183247
0.000107865028
0.000106521675
0.000110114577
0.000110116801
0.000107878144
0.000105547748
0.000105610888
0.000110029208
0.000110225179
0.000107008627
0.000106632865
0.000110079398
0.000110219962
0.000110186485
0.000107747658
0.000106356872
0.000110123473
0.000110226746
0.000107508973
0.000106494343
0.00011013793
0.000110203866
0.000107917641
0.0001067048
0.000104755474
0.000104761001
0.000110039429
0.000110143137
0.000110129953
0.000107050089
0.000106023638
0.000110066562
0.000110172901
0.000110149039
0.000107838891
0.000106032769
0.000110091108
0.000110147462
0.000107609784
0.000106139339
0.00011010158
0.000110083441
0.000107877648
0.000105085636
0.000105185544
0.000109946117
0.000110199431
0.000107163565
0.000106196033
0.000109966163
0.000110204827
0.000106695351
0.000106469382
0.00011001264
0.000110181407
0.00011011412
0.000107462052
0.000105866813
0.000110085966
0.000110084729
0.000107922407
0.000104217249
0.000104290225
0.000110004505
0.000110113059
0.000110096061
0.000107305943
0.000105852588
0.000110017089
0.000110162994
0.000106549939
0.000106271395
0.000110036434
0.000110178231
0.000110133578
0.000107494579
0.000106327537
0.000110115642
)
;

boundaryField
{
    closed
    {
        type            calculated;
        value           nonuniform List<scalar> 0();
    }
    open
    {
        type            calculated;
        value           nonuniform List<scalar> 0();
    }
    sides
    {
        type            empty;
    }
    procBoundary3to2
    {
        type            processor;
        value           uniform 0.000110119305;
    }
    procBoundary3to4
    {
        type            processor;
        value           uniform 0.000110126179;
    }
}


// ************************************************************************* //
