/*--------------------------------*- C++ -*----------------------------------*\
| =========                 |                                                 |
| \\      /  F ield         | OpenFOAM: The Open Source CFD Toolbox           |
|  \\    /   O peration     | Version:  2306                                  |
|   \\  /    A nd           | Website:  www.openfoam.com                      |
|    \\/     M anipulation  |                                                 |
\*---------------------------------------------------------------------------*/
FoamFile
{
    version     2.0;
    format      ascii;
    arch        "LSB;label=32;scalar=64";
    class       surfaceScalarField;
    location    "0.002";
    object      phi;
}
// * * * * * * * * * * * * * * * * * * * * * * * * * * * * * * * * * * * * * //

dimensions      [1 0 -1 0 0 0 0];

oriented        oriented;

internalField   nonuniform List<scalar> 
530
(
1.67233601e-06
1.67825367e-06
1.68386219e-06
1.68611731e-06
1.69708915e-06
1.7197438e-06
1.71192075e-06
1.64708782e-06
1.7030435e-06
1.70977661e-06
1.71398246e-06
1.72189588e-06
1.73490201e-06
1.74007078e-06
1.74007178e-06
1.747785e-06
1.76525122e-06
1.76759275e-06
1.79058125e-06
1.77649221e-06
1.73789378e-06
1.77460471e-06
1.78033061e-06
1.78041294e-06
1.78665837e-06
1.80549456e-06
1.8088301e-06
1.82242203e-06
1.79827815e-06
1.80889814e-06
1.82421927e-06
1.82988561e-06
1.82670876e-06
1.83491948e-06
1.8403149e-06
1.81747276e-06
1.83116337e-06
1.83179316e-06
1.80539075e-06
1.84533646e-06
1.85486347e-06
1.86543783e-06
1.86753177e-06
1.85861117e-06
1.8638428e-06
1.85374467e-06
1.89683731e-06
1.87648815e-06
1.87784463e-06
1.88419224e-06
1.89583558e-06
1.8802945e-06
1.92137978e-06
1.89508491e-06
1.89290769e-06
1.91560957e-06
1.89016014e-06
1.90576364e-06
1.9221413e-06
1.92789396e-06
1.92861184e-06
1.9358358e-06
1.94781445e-06
1.95326676e-06
1.95112065e-06
1.97261394e-06
1.98511825e-06
1.99442849e-06
1.97680778e-06
1.99404554e-06
1.99512788e-06
1.99626249e-06
2.00511038e-06
2.02243092e-06
2.02413427e-06
2.03480676e-06
2.02117831e-06
1.98349764e-06
2.019302e-06
2.02162548e-06
2.0286107e-06
2.0248011e-06
2.03771485e-06
2.05592852e-06
2.06123077e-06
2.07506714e-06
2.09783575e-06
2.1079099e-06
2.09098255e-06
2.02392074e-06
2.08024543e-06
2.08778749e-06
2.08453646e-06
2.09184121e-06
2.04271478e-06
2.05478785e-06
2.05076787e-06
2.0993554e-06
2.07240785e-06
2.07704356e-06
2.09242734e-06
2.10031713e-06
2.10604369e-06
2.11046916e-06
2.11938383e-06
2.14161849e-06
2.14718673e-06
2.15558216e-06
2.13649585e-06
2.1447008e-06
2.14403059e-06
2.15637277e-06
2.16310191e-06
2.16614598e-06
2.16954745e-06
2.18495896e-06
2.1942289e-06
2.1957849e-06
2.19857881e-06
2.18721184e-06
2.2002752e-06
2.19307023e-06
2.23272026e-06
2.20725537e-06
2.20191238e-06
2.20663251e-06
2.18958491e-06
2.23573866e-06
2.19643258e-06
2.19544493e-06
2.21336207e-06
2.2188742e-06
2.21892133e-06
2.22018257e-06
2.2381474e-06
2.24316641e-06
2.24404864e-06
2.2448229e-06
2.25499479e-06
2.26995921e-06
2.25215867e-06
2.27259527e-06
2.24569373e-06
2.24514368e-06
2.27088774e-06
2.27763966e-06
2.28101912e-06
2.27897616e-06
2.28188961e-06
2.29255939e-06
2.3101578e-06
2.30683249e-06
2.30742047e-06
2.33230984e-06
2.33314361e-06
2.326537e-06
2.32702839e-06
2.35282636e-06
2.34670906e-06
2.3386419e-06
2.33451844e-06
2.32506383e-06
2.3167792e-06
2.4266768e-06
2.404378e-06
2.46128462e-06
2.40991469e-06
2.40701199e-06
2.43480541e-06
2.43226022e-06
2.42230694e-06
2.41939252e-06
2.44855195e-06
2.45162195e-06
2.44166233e-06
2.43920097e-06
2.41852905e-06
2.41485057e-06
2.39397012e-06
2.44687414e-06
2.39387584e-06
2.38804581e-06
2.41289982e-06
2.40775938e-06
2.39836782e-06
2.39403442e-06
2.37877948e-06
2.3765098e-06
2.37471744e-06
2.37794987e-06
2.40483375e-06
2.40854084e-06
2.3844932e-06
2.27574746e-06
2.33304518e-06
2.33081559e-06
2.31284269e-06
2.30948982e-06
2.31790412e-06
2.33607416e-06
2.30910694e-06
2.21461397e-06
2.26855739e-06
2.26397003e-06
2.20626254e-06
2.27158689e-06
2.27770983e-06
2.26878421e-06
2.26524491e-06
2.24999045e-06
2.25199405e-06
2.24094491e-06
2.16193872e-06
2.20906863e-06
2.20410365e-06
2.21174256e-06
2.19576312e-06
2.13341726e-06
2.15994178e-06
2.15529644e-06
2.17898639e-06
2.17535838e-06
2.16420916e-06
2.16092542e-06
2.14760713e-06
2.14701738e-06
2.13755546e-06
2.08598266e-06
2.10065444e-06
2.09618646e-06
2.09726407e-06
2.09988939e-06
2.09420533e-06
2.07907055e-06
2.06523008e-06
2.06505964e-06
2.05106195e-06
2.04494867e-06
2.08625113e-06
2.09264887e-06
2.07824892e-06
2.01102826e-06
2.03690084e-06
2.03101411e-06
2.01551716e-06
2.01301645e-06
2.02167732e-06
2.01346612e-06
2.00243944e-06
2.04147733e-06
1.98933893e-06
1.98253095e-06
2.00111844e-06
1.97991038e-06
1.97163063e-06
1.94768988e-06
1.93947671e-06
1.92326489e-06
1.91495953e-06
1.94898429e-06
1.94526118e-06
1.9216127e-06
1.91120683e-06
1.90529979e-06
1.89257138e-06
1.93638289e-06
1.87314647e-06
1.86377398e-06
1.8928091e-06
1.88584253e-06
1.85895301e-06
1.85020881e-06
1.83532413e-06
1.82594815e-06
1.86203343e-06
1.86887975e-06
1.8558688e-06
1.8821526e-06
1.82596521e-06
1.81617753e-06
1.80160475e-06
1.79295813e-06
1.79263872e-06
1.80762989e-06
1.79975881e-06
1.83810521e-06
1.7762817e-06
1.76808912e-06
1.79839127e-06
1.78656538e-06
1.75724603e-06
1.74998025e-06
1.73723086e-06
1.7291406e-06
1.77519912e-06
1.78592083e-06
1.77659368e-06
1.80552628e-06
1.74888455e-06
1.74264341e-06
1.70237335e-06
1.76788589e-06
1.75399343e-06
1.71693666e-06
1.71026835e-06
1.69489931e-06
1.68376583e-06
1.67663453e-06
1.67274111e-06
1.63230206e-06
1.61310806e-06
1.60553142e-06
1.59685927e-06
1.58983161e-06
1.58447239e-06
1.58552778e-06
1.58443403e-06
1.59316371e-06
1.55830665e-06
1.55118267e-06
1.58213786e-06
1.57651964e-06
1.54483197e-06
1.53718713e-06
1.52641352e-06
1.51840582e-06
1.50314354e-06
1.49812629e-06
1.49365994e-06
1.51835584e-06
1.46458843e-06
1.4595486e-06
1.44830015e-06
1.47032675e-06
1.46052782e-06
1.43366687e-06
1.42531066e-06
1.42656128e-06
1.42202129e-06
1.42572246e-06
1.39622814e-06
1.37865602e-06
1.37053661e-06
1.39056594e-06
1.38072991e-06
1.3493217e-06
1.34146632e-06
1.33120069e-06
1.3232747e-06
1.31755221e-06
1.30910118e-06
1.31394915e-06
1.34264097e-06
1.31731862e-06
1.30712826e-06
1.30080764e-06
1.29089983e-06
1.28143457e-06
1.2706046e-06
1.27881185e-06
1.2427678e-06
1.23589185e-06
1.22268846e-06
1.21309811e-06
1.20318504e-06
1.20350149e-06
1.19291812e-06
1.18137095e-06
1.17172292e-06
1.16604905e-06
1.15679787e-06
1.14758718e-06
1.13796928e-06
1.12828132e-06
1.11865519e-06
1.10932816e-06
1.10014415e-06
1.09097385e-06
1.08212675e-06
1.07315082e-06
1.06459218e-06
1.05607094e-06
1.04802453e-06
1.04046239e-06
1.03365312e-06
1.02819691e-06
1.02366334e-06
1.02588385e-06
1.03562172e-06
1.01881293e-06
1.00325214e-06
9.87683323e-07
9.72433671e-07
9.58194873e-07
9.43996936e-07
9.31152813e-07
9.18372863e-07
9.0691812e-07
8.91438762e-07
8.78219169e-07
8.63532372e-07
8.53142585e-07
8.32028085e-07
8.18861103e-07
8.04481386e-07
7.93399755e-07
7.82393592e-07
7.73002398e-07
7.63176984e-07
7.55121203e-07
7.36301826e-07
7.1819103e-07
6.97530457e-07
6.75328908e-07
6.53089812e-07
6.24771032e-07
5.99319236e-07
5.69518798e-07
5.6073578e-07
4.4186968e-07
4.10424414e-07
3.72338264e-07
3.39768157e-07
2.97330132e-07
2.64255463e-07
2.28847649e-07
1.97443258e-07
1.63753264e-07
1.35516913e-07
1.03037248e-07
9.45282544e-08
8.568631e-08
7.74312872e-08
6.93853859e-08
6.1581936e-08
5.42088242e-08
4.70100918e-08
4.01827898e-08
3.34696551e-08
2.65292564e-08
1.95929656e-08
1.34781884e-08
6.43704539e-09
-1.24669843e-09
9.47763245e-08
1.53214705e-07
2.40458586e-07
3.5535801e-07
4.06408499e-07
4.47233737e-07
4.82325357e-07
5.13388825e-07
5.38868287e-07
5.64387037e-07
5.84143952e-07
6.03149986e-07
6.22338109e-07
6.4066666e-07
6.58906029e-07
6.75914218e-07
6.91773018e-07
7.06315567e-07
7.20001238e-07
7.32417251e-07
7.43847538e-07
7.53924953e-07
7.63154573e-07
7.71539856e-07
7.79129709e-07
7.86099727e-07
7.92541721e-07
7.98228139e-07
8.03086403e-07
8.08192412e-07
8.13344081e-07
8.1673205e-07
8.19037558e-07
8.23698237e-07
8.29415264e-07
8.30414031e-07
8.29710758e-07
8.34413441e-07
8.40769636e-07
8.47665911e-07
8.99139286e-07
8.43403273e-07
7.54867095e-07
8.58288177e-07
1.01083884e-06
9.2369382e-07
7.83196755e-07
6.68101093e-07
5.89147615e-07
1.01966864e-06
1.06424418e-06
6.84848275e-07
1.04627283e-06
1.1001986e-06
5.34048525e-07
5.64881862e-07
9.23952231e-07
1.37081985e-06
1.3237723e-06
5.85657075e-07
6.45786535e-07
1.01711391e-06
9.78293352e-07
8.41287671e-07
8.19744299e-07
9.87379683e-07
9.8022024e-07
7.97519654e-07
8.4675474e-07
1.10862251e-06
1.06669035e-06
6.4443252e-07
6.77439675e-07
9.49861959e-07
9.38532113e-07
8.95913841e-07
9.00036517e-07
7.32743071e-07
7.58870161e-07
1.06131982e-06
1.0179426e-06
8.17658517e-07
9.0987208e-07
1.06840653e-06
7.89604053e-07
6.44149491e-07
)
;

boundaryField
{
    closed
    {
        type            calculated;
        value           nonuniform List<scalar> 0();
    }
    open
    {
        type            calculated;
        value           nonuniform List<scalar> 0();
    }
    sides
    {
        type            empty;
        value           nonuniform List<scalar> 0();
    }
    procBoundary4to3
    {
        type            processor;
        value           uniform -1.66625137e-06;
    }
    procBoundary4to5
    {
        type            processor;
        value           uniform 8.58283799e-07;
    }
}


// ************************************************************************* //
