/*--------------------------------*- C++ -*----------------------------------*\
| =========                 |                                                 |
| \\      /  F ield         | OpenFOAM: The Open Source CFD Toolbox           |
|  \\    /   O peration     | Version:  2306                                  |
|   \\  /    A nd           | Website:  www.openfoam.com                      |
|    \\/     M anipulation  |                                                 |
\*---------------------------------------------------------------------------*/
FoamFile
{
    version     2.0;
    format      ascii;
    arch        "LSB;label=32;scalar=64";
    class       volScalarField;
    location    "0.00106";
    object      H2;
}
// * * * * * * * * * * * * * * * * * * * * * * * * * * * * * * * * * * * * * //

dimensions      [0 0 0 0 0 0 0];

internalField   nonuniform List<scalar> 
530
(
0.0109827774
0.0108202385
0.0108035067
0.0108034669
0.0108034607
0.0108034603
0.0108034603
0.0108034603
0.0108034603
0.0108034603
0.0108034603
0.0108034603
0.0108034603
0.0108034603
0.0108034603
0.0108034603
0.0108034603
0.0108034603
0.0108034603
0.0108034603
0.0108034603
0.0108034603
0.0108034603
0.0108034603
0.0108034603
0.0108034603
0.0108034603
0.0108034603
0.0108034603
0.0108034603
0.0108034603
0.0108034603
0.0108034603
0.0108034603
0.0108034603
0.0108034603
0.0108034603
0.0108034603
0.0108034603
0.0108034603
0.0108034603
0.0108034603
0.0108034603
0.0108034603
0.0108034603
0.0108034603
0.0108034603
0.0108034603
0.0108034603
0.0108034603
0.0108034603
0.0108034603
0.0108034603
0.0108034603
0.0108034603
0.0108034603
0.0108034603
0.0108034603
0.0108034603
0.0108034603
0.0108034603
0.0108034603
0.0108034603
0.0108034603
0.0108034603
0.0108034603
0.0108034603
0.0108034603
0.0108034604
0.0108034605
0.0108034606
0.0108034613
0.0108034622
0.0108034634
0.0108034705
0.0108034884
0.0108034305
0.0108034488
0.0108039642
0.0108044308
0.0108017222
0.0107976535
0.0108075018
0.0108240014
0.0108232483
0.010701025
0.0107001691
0.01106214
0.0110291441
0.0107010529
0.0106602178
0.010744182
0.0110304858
0.0110203466
0.0107145825
0.0106501555
0.010679454
0.0110550129
0.0109971573
0.0110026469
0.0107535178
0.0106799181
0.0106416814
0.0106402184
0.0110521071
0.0110299594
0.0110444255
0.0110292587
0.0109264862
0.0106351469
0.010633926
0.0110852791
0.0110197231
0.01084503
0.0106846836
0.0106825746
0.0106448727
0.010641613
0.0108276803
0.0110268691
0.0110163797
0.0110104318
0.0110125556
0.0108060545
0.0106596708
0.0106562171
0.0110570456
0.0110175519
0.0107589913
0.0106458189
0.0106717684
0.0110452834
0.0107768385
0.0106624721
0.0110621698
0.0110117981
0.0106978378
0.0106687461
0.0110653104
0.0110089966
0.0106977435
0.0106673251
0.0110759291
0.0110016213
0.0109361056
0.0106943885
0.0106570425
0.0106788837
0.0110438246
0.0107749202
0.0106665164
0.0110629429
0.0110145496
0.0106972434
0.0106717039
0.0110617103
0.0110206225
0.0110586828
0.0106514178
0.0106406977
0.0110620769
0.0110219272
0.0106946038
0.0106685927
0.0110723906
0.0110141306
0.0107032979
0.0106745239
0.0110397239
0.011019147
0.0110501482
0.0106544166
0.0106468749
0.0110804443
0.0110152692
0.0107577386
0.0106990121
0.0106496544
0.0106440557
0.0110770794
0.0110183754
0.0106999852
0.0106708702
0.0110706041
0.0110137474
0.0107054932
0.0106768389
0.011047183
0.0110201402
0.0110648097
0.0106549207
0.0106452682
0.0110508273
0.0110243517
0.0106951825
0.0106683624
0.0110795885
0.0110222889
0.010934872
0.0106486125
0.0106460297
0.0110823168
0.0110129212
0.0108410262
0.0106939922
0.0106632252
0.0106736805
0.0110440922
0.0107850455
0.0106646541
0.0110637899
0.0110117318
0.0106988405
0.0106669043
0.0110663062
0.0110098499
0.010697713
0.0106651636
0.0110622078
0.0110101462
0.0107319482
0.0106661095
0.0108220548
0.0110211202
0.0108231226
0.0106669506
0.0107824189
0.0110240824
0.0107373001
0.0106645296
0.0110613802
0.0110106597
0.010694448
0.0106635901
0.0110666147
0.0110098312
0.0106958145
0.010665446
0.0110673014
0.0110026909
0.0108597432
0.0106941163
0.0106611145
0.0106661946
0.0110447155
0.010789511
0.0106651828
0.0110616405
0.0110147318
0.0106971095
0.0106713855
0.0110766812
0.01102078
0.0109786642
0.0106479021
0.010644433
0.0110797085
0.0110226489
0.0106907902
0.0106674732
0.0110624859
0.0110226915
0.0110408888
0.0106515084
0.0106454022
0.0110848145
0.0110182813
0.0106945752
0.0106748961
0.011061593
0.0110038287
0.0107913933
0.0107134191
0.0106530947
0.0106469134
0.0110721156
0.0110178797
0.0106976755
0.010669904
0.010998019
0.0110128366
0.0110284379
0.0106717866
0.0106441471
0.0107907209
0.0110448916
0.0110023724
0.0110199837
0.0107316805
0.0106299257
0.0106268124
0.0110778604
0.0110308441
0.0109657623
0.0106508472
0.0106490925
0.0110216504
0.0110287231
0.0109698154
0.0106524325
0.0106512195
0.0110823139
0.0110273368
0.0108965957
0.0106507241
0.0106498249
0.0110771773
0.0110272325
0.0109074506
0.0106501187
0.0106466426
0.0110742724
0.0110210988
0.0106953509
0.0106691217
0.0110692037
0.0110203473
0.010910656
0.0106461404
0.0106456317
0.0110688215
0.0110211902
0.0107683163
0.0106648239
0.0106670007
0.0110448504
0.0110164151
0.0110181535
0.0110190704
0.0107802544
0.0106233265
0.0106185255
0.0110707671
0.0110221271
0.0106890087
0.0106600742
0.0110634601
0.0110149317
0.0106946436
0.010669019
0.0110614148
0.0110204038
0.0108787964
0.0106453064
0.0106415914
0.0110688787
0.0110181834
0.0106943949
0.0106697501
0.0110597816
0.0110122738
0.0107021147
0.0106762568
0.0110623988
0.0110168578
0.0109185192
0.0106504584
0.010651468
0.0110641563
0.0110168296
0.0108095641
0.0106864744
0.0106821935
0.0106481815
0.0106454417
0.0109302679
0.0110262584
0.0110315676
0.0110181181
0.011020174
0.010678012
0.0106477385
0.011061869
0.0110121615
0.0107962596
0.0106840957
0.0106822724
0.0106770202
0.0106512936
0.0106560512
0.011040172
0.0110046423
0.0110058704
0.0107602213
0.0106871107
0.0110563737
0.0110145516
0.0109430974
0.0106427566
0.0106408716
0.0110766153
0.0110211143
0.0106879676
0.0106624435
0.0110610127
0.0110166804
0.0108471547
0.0106583156
0.0106514023
0.0108192326
0.0110217848
0.0107034602
0.010681471
0.0110590124
0.0108306246
0.0106475188
0.0108923488
0.0110173455
0.0110238951
0.0107236257
0.0106629049
0.0110682168
0.0110347156
0.0110353182
0.0110375152
0.010686906
0.0106647785
0.0106612893
0.0106470946
0.0106889316
0.0110394207
0.010736105
0.0106712875
0.0110597498
0.0110076037
0.0110182503
0.0107001102
0.0106731766
0.0110590241
0.0110092642
0.0108723345
0.010667253
0.0106550311
0.0107512329
0.0110327878
0.0108006131
0.0106698925
0.0107592065
0.0110357512
0.0110087816
0.0110141565
0.0106556525
0.0106390725
0.011076906
0.0110295574
0.0107949366
0.0106443958
0.010642737
0.0110669605
0.0110274291
0.0108422816
0.0106484912
0.0106468961
0.0110690658
0.0110264882
0.0108365158
0.0106484973
0.0106448699
0.0110662855
0.0110138254
0.0108234416
0.0106871082
0.0106621172
0.0106686819
0.0110534598
0.0110157028
0.0110274095
0.0110197508
0.0106888428
0.0106422769
0.011065726
0.011031169
0.010782657
0.010635508
0.0106301994
0.0110685672
0.0110205555
0.0106971685
0.0106653611
0.0110662068
0.0110122945
0.0106998174
0.0106703786
0.0110620848
0.0110126541
0.0106996071
0.0106702969
0.0110601019
0.0110206367
0.0108402216
0.0106432991
0.0106389648
0.0110696261
0.0110187966
0.0106948388
0.0106670801
0.0110625612
0.0110135482
0.0106996817
0.0106723986
0.0110593635
0.0110198445
0.0108511072
0.0106463901
0.010642544
0.0110691127
0.0110179603
0.0106960347
0.0106695424
0.0110599608
0.0110132285
0.010701003
0.01067396
0.0110571267
0.0110209198
0.0108490698
0.0106421358
0.0106374201
0.011070471
0.0110194671
0.0106894135
0.0106596489
0.0110651351
0.0110129454
0.0106940082
0.0106666578
0.0110600397
0.0110122232
0.0106984109
0.0106722558
)
;

boundaryField
{
    closed
    {
        type            calculated;
        value           uniform 0.0144384246;
    }
    open
    {
        type            calculated;
        value           nonuniform List<scalar> 0();
    }
    sides
    {
        type            empty;
    }
    procBoundary0to1
    {
        type            processor;
        value           uniform 0.0110553493;
    }
}


// ************************************************************************* //
