/*--------------------------------*- C++ -*----------------------------------*\
| =========                 |                                                 |
| \\      /  F ield         | OpenFOAM: The Open Source CFD Toolbox           |
|  \\    /   O peration     | Version:  2306                                  |
|   \\  /    A nd           | Website:  www.openfoam.com                      |
|    \\/     M anipulation  |                                                 |
\*---------------------------------------------------------------------------*/
FoamFile
{
    version     2.0;
    format      ascii;
    arch        "LSB;label=32;scalar=64";
    class       volScalarField;
    location    "0.00106";
    object      prefDPV_H2O;
}
// * * * * * * * * * * * * * * * * * * * * * * * * * * * * * * * * * * * * * //

dimensions      [1 -1 -1 0 0 0 0];

internalField   nonuniform List<scalar> 
530
(
-3.79144511e-07
-3.73396876e-07
-3.7305785e-07
-3.73065992e-07
-3.73066662e-07
-3.73066669e-07
-3.73066669e-07
-3.73066669e-07
-3.73066669e-07
-3.73066669e-07
-3.73066669e-07
-3.73066669e-07
-3.73066669e-07
-3.73066669e-07
-3.73066669e-07
-3.73066669e-07
-3.73066669e-07
-3.73066669e-07
-3.73066669e-07
-3.73066669e-07
-3.73066669e-07
-3.73066669e-07
-3.73066669e-07
-3.73066669e-07
-3.73066669e-07
-3.73066669e-07
-3.73066669e-07
-3.73066669e-07
-3.73066669e-07
-3.73066669e-07
-3.73066669e-07
-3.73066669e-07
-3.73066669e-07
-3.73066669e-07
-3.73066669e-07
-3.73066669e-07
-3.73066669e-07
-3.73066669e-07
-3.73066669e-07
-3.73066669e-07
-3.73066669e-07
-3.73066669e-07
-3.73066669e-07
-3.73066669e-07
-3.73066669e-07
-3.73066669e-07
-3.73066669e-07
-3.73066669e-07
-3.73066669e-07
-3.73066669e-07
-3.73066669e-07
-3.73066669e-07
-3.73066669e-07
-3.73066669e-07
-3.73066669e-07
-3.73066669e-07
-3.73066669e-07
-3.73066669e-07
-3.73066669e-07
-3.73066669e-07
-3.73066669e-07
-3.73066669e-07
-3.73066669e-07
-3.73066669e-07
-3.73066669e-07
-3.73066669e-07
-3.73066669e-07
-3.73066669e-07
-3.73066669e-07
-3.73066668e-07
-3.73066666e-07
-3.73066667e-07
-3.73066664e-07
-3.73066573e-07
-3.73066777e-07
-3.73067145e-07
-3.73063488e-07
-3.73062918e-07
-3.7308991e-07
-3.73110959e-07
-3.72965012e-07
-3.72728021e-07
-3.73270589e-07
-3.74130739e-07
-3.74094425e-07
-3.67009749e-07
-3.66937418e-07
-3.86275603e-07
-3.84853126e-07
-3.67260301e-07
-3.64444635e-07
-3.69736995e-07
-3.84911856e-07
-3.84475188e-07
-3.68113427e-07
-3.63729951e-07
-3.65880836e-07
-3.85968773e-07
-3.83477621e-07
-3.83715579e-07
-3.70182708e-07
-3.6568793e-07
-3.63296273e-07
-3.63235862e-07
-3.85666282e-07
-3.84889519e-07
-3.85511223e-07
-3.8485939e-07
-3.79451979e-07
-3.62900639e-07
-3.62867902e-07
-3.87276148e-07
-3.84449445e-07
-3.75204018e-07
-3.65932061e-07
-3.65802726e-07
-3.63617998e-07
-3.63396141e-07
-3.74387627e-07
-3.84756321e-07
-3.8430363e-07
-3.8404937e-07
-3.84141233e-07
-3.73125753e-07
-3.64417005e-07
-3.64312528e-07
-3.86056128e-07
-3.84355405e-07
-3.70494361e-07
-3.63616085e-07
-3.65239417e-07
-3.85549275e-07
-3.71509335e-07
-3.6465885e-07
-3.86278003e-07
-3.8410774e-07
-3.66717335e-07
-3.65094698e-07
-3.86413055e-07
-3.83986871e-07
-3.66630914e-07
-3.65060898e-07
-3.86871385e-07
-3.83669429e-07
-3.79945839e-07
-3.66818576e-07
-3.64157177e-07
-3.65718586e-07
-3.85486305e-07
-3.7140431e-07
-3.64845556e-07
-3.86311308e-07
-3.84226843e-07
-3.66595133e-07
-3.65119587e-07
-3.86140205e-07
-3.84488354e-07
-3.86124767e-07
-3.63869263e-07
-3.63189835e-07
-3.86148295e-07
-3.84544077e-07
-3.6634705e-07
-3.64969438e-07
-3.86717205e-07
-3.84209027e-07
-3.66839026e-07
-3.65282987e-07
-3.85079599e-07
-3.84424967e-07
-3.85757831e-07
-3.64072909e-07
-3.63546957e-07
-3.87067002e-07
-3.84258255e-07
-3.70267385e-07
-3.66779177e-07
-3.63681391e-07
-3.63519423e-07
-3.86920545e-07
-3.84391039e-07
-3.66673939e-07
-3.65117661e-07
-3.86640226e-07
-3.8419264e-07
-3.6696571e-07
-3.65394857e-07
-3.85446086e-07
-3.84467697e-07
-3.86386334e-07
-3.6406436e-07
-3.63415387e-07
-3.85606323e-07
-3.84648491e-07
-3.6637587e-07
-3.64860151e-07
-3.87028e-07
-3.84559944e-07
-3.79881651e-07
-3.63675367e-07
-3.63596457e-07
-3.87148046e-07
-3.84156694e-07
-3.74982389e-07
-3.66593226e-07
-3.64572887e-07
-3.65267741e-07
-3.85497902e-07
-3.71926939e-07
-3.64780232e-07
-3.86347825e-07
-3.84104786e-07
-3.6673895e-07
-3.649954e-07
-3.86456228e-07
-3.84023381e-07
-3.66681448e-07
-3.64907714e-07
-3.86279705e-07
-3.84036166e-07
-3.68933735e-07
-3.64927241e-07
-3.74064639e-07
-3.84508798e-07
-3.74088964e-07
-3.64965079e-07
-3.71893632e-07
-3.84636088e-07
-3.69258655e-07
-3.64843371e-07
-3.86244014e-07
-3.84058145e-07
-3.66502675e-07
-3.64814915e-07
-3.86469569e-07
-3.84022423e-07
-3.66546526e-07
-3.64946946e-07
-3.86499417e-07
-3.83715785e-07
-3.75988489e-07
-3.6670697e-07
-3.64449915e-07
-3.64884026e-07
-3.85524751e-07
-3.72200929e-07
-3.64772658e-07
-3.86255103e-07
-3.84234633e-07
-3.66614635e-07
-3.65100983e-07
-3.86903431e-07
-3.84495115e-07
-3.82093037e-07
-3.63621662e-07
-3.63456752e-07
-3.8700266e-07
-3.84575207e-07
-3.66085131e-07
-3.64812158e-07
-3.8618227e-07
-3.8457724e-07
-3.85176797e-07
-3.63827042e-07
-3.63494e-07
-3.87255144e-07
-3.84387193e-07
-3.66372257e-07
-3.65388671e-07
-3.86252365e-07
-3.83766602e-07
-3.72208816e-07
-3.67733172e-07
-3.63887584e-07
-3.6370856e-07
-3.86706329e-07
-3.84369797e-07
-3.66576724e-07
-3.65050602e-07
-3.83033616e-07
-3.84153145e-07
-3.84824077e-07
-3.6543967e-07
-3.63275099e-07
-3.72394836e-07
-3.85531301e-07
-3.83702224e-07
-3.84460823e-07
-3.68806065e-07
-3.62468074e-07
-3.62383228e-07
-3.86938493e-07
-3.84927303e-07
-3.81449612e-07
-3.63767883e-07
-3.63645801e-07
-3.84188613e-07
-3.84836171e-07
-3.81651946e-07
-3.6383422e-07
-3.63774414e-07
-3.8714645e-07
-3.84776684e-07
-3.77905003e-07
-3.63741359e-07
-3.63711635e-07
-3.86925062e-07
-3.84772232e-07
-3.78474331e-07
-3.63709442e-07
-3.63595552e-07
-3.86799482e-07
-3.84508581e-07
-3.66405641e-07
-3.64932243e-07
-3.86580529e-07
-3.84476475e-07
-3.78640606e-07
-3.63588613e-07
-3.6356681e-07
-3.86565421e-07
-3.8451244e-07
-3.70968196e-07
-3.64666124e-07
-3.6483554e-07
-3.85530567e-07
-3.84307275e-07
-3.84381952e-07
-3.84421293e-07
-3.71668059e-07
-3.62212729e-07
-3.62076524e-07
-3.8664889e-07
-3.84551861e-07
-3.66097219e-07
-3.64508265e-07
-3.86333232e-07
-3.84243118e-07
-3.66454254e-07
-3.64968634e-07
-3.86245045e-07
-3.84478897e-07
-3.76990178e-07
-3.63485525e-07
-3.63368243e-07
-3.86567181e-07
-3.84382771e-07
-3.66387298e-07
-3.65061896e-07
-3.86174091e-07
-3.84129183e-07
-3.66840938e-07
-3.65401232e-07
-3.86286935e-07
-3.84326567e-07
-3.79045086e-07
-3.63852413e-07
-3.6388408e-07
-3.86363854e-07
-3.84325366e-07
-3.73281972e-07
-3.6596074e-07
-3.65764023e-07
-3.63685754e-07
-3.63568719e-07
-3.79657654e-07
-3.84730354e-07
-3.8495848e-07
-3.84380285e-07
-3.84468745e-07
-3.65609925e-07
-3.6376424e-07
-3.86265268e-07
-3.84123578e-07
-3.72564339e-07
-3.66019003e-07
-3.65797547e-07
-3.65560767e-07
-3.63923046e-07
-3.64239512e-07
-3.85328929e-07
-3.83801872e-07
-3.8385458e-07
-3.70492917e-07
-3.66121359e-07
-3.86027613e-07
-3.84227322e-07
-3.80300651e-07
-3.6338476e-07
-3.63314744e-07
-3.86901791e-07
-3.84508896e-07
-3.66038321e-07
-3.64589395e-07
-3.86227785e-07
-3.84318452e-07
-3.75318399e-07
-3.64464765e-07
-3.63978346e-07
-3.73899376e-07
-3.84537578e-07
-3.67174554e-07
-3.65808058e-07
-3.86141481e-07
-3.74484933e-07
-3.6365241e-07
-3.77751312e-07
-3.84347553e-07
-3.84627609e-07
-3.68303474e-07
-3.64547346e-07
-3.86538877e-07
-3.85093926e-07
-3.85120023e-07
-3.85214599e-07
-3.66205038e-07
-3.64574439e-07
-3.64672141e-07
-3.63594473e-07
-3.6635364e-07
-3.85296655e-07
-3.69214959e-07
-3.65117712e-07
-3.8617368e-07
-3.83929013e-07
-3.84385956e-07
-3.66876243e-07
-3.65267681e-07
-3.86142107e-07
-3.83999063e-07
-3.76655456e-07
-3.65151311e-07
-3.6412783e-07
-3.70200334e-07
-3.85011157e-07
-3.72900016e-07
-3.64919504e-07
-3.7060498e-07
-3.85138603e-07
-3.83978128e-07
-3.84210394e-07
-3.64215661e-07
-3.63151725e-07
-3.86914473e-07
-3.84872218e-07
-3.72413189e-07
-3.63373082e-07
-3.63333523e-07
-3.86484032e-07
-3.8478074e-07
-3.75029571e-07
-3.6362628e-07
-3.63587599e-07
-3.8657501e-07
-3.84740321e-07
-3.74727111e-07
-3.63639041e-07
-3.63547944e-07
-3.86455074e-07
-3.84195601e-07
-3.74005501e-07
-3.66157442e-07
-3.64432194e-07
-3.64959979e-07
-3.85901253e-07
-3.84276484e-07
-3.84779901e-07
-3.84450184e-07
-3.6622274e-07
-3.63373845e-07
-3.86431734e-07
-3.84941521e-07
-3.7178319e-07
-3.62850712e-07
-3.62702405e-07
-3.86553281e-07
-3.84484654e-07
-3.66527224e-07
-3.64823006e-07
-3.86451322e-07
-3.84129487e-07
-3.66711579e-07
-3.65134288e-07
-3.86273743e-07
-3.84145181e-07
-3.6675706e-07
-3.65054198e-07
-3.86188477e-07
-3.84488857e-07
-3.74943635e-07
-3.63358879e-07
-3.63227479e-07
-3.86599542e-07
-3.84408981e-07
-3.66429568e-07
-3.64913449e-07
-3.8629432e-07
-3.84183771e-07
-3.66753785e-07
-3.65166628e-07
-3.86156551e-07
-3.84454871e-07
-3.75525726e-07
-3.63542053e-07
-3.63436145e-07
-3.86577247e-07
-3.84373116e-07
-3.66503121e-07
-3.65051694e-07
-3.86182086e-07
-3.84170172e-07
-3.66836397e-07
-3.65241821e-07
-3.86060018e-07
-3.84501105e-07
-3.75417364e-07
-3.63275181e-07
-3.63140052e-07
-3.8663587e-07
-3.84437657e-07
-3.66077697e-07
-3.64506829e-07
-3.86405283e-07
-3.8415723e-07
-3.66369096e-07
-3.64925891e-07
-3.86185517e-07
-3.8412661e-07
-3.66665573e-07
-3.65179057e-07
)
;

boundaryField
{
    closed
    {
        type            calculated;
        value           uniform -5.12649089e-07;
    }
    open
    {
        type            calculated;
        value           nonuniform List<scalar> 0();
    }
    sides
    {
        type            empty;
    }
    procBoundary0to1
    {
        type            processor;
        value           uniform -3.85983212e-07;
    }
}


// ************************************************************************* //
