/*--------------------------------*- C++ -*----------------------------------*\
| =========                 |                                                 |
| \\      /  F ield         | OpenFOAM: The Open Source CFD Toolbox           |
|  \\    /   O peration     | Version:  2306                                  |
|   \\  /    A nd           | Website:  www.openfoam.com                      |
|    \\/     M anipulation  |                                                 |
\*---------------------------------------------------------------------------*/
FoamFile
{
    version     2.0;
    format      ascii;
    arch        "LSB;label=32;scalar=64";
    class       volScalarField;
    location    "0.00034";
    object      H2;
}
// * * * * * * * * * * * * * * * * * * * * * * * * * * * * * * * * * * * * * //

dimensions      [0 0 0 0 0 0 0];

internalField   nonuniform List<scalar> 
530
(
0.0108309492
0.01080628
0.0108034674
0.0108034615
0.0108034603
0.0108034603
0.0108034603
0.0108034603
0.0108034603
0.0108034603
0.0108034603
0.0108034603
0.0108034603
0.0108034603
0.0108034603
0.0108034603
0.0108034603
0.0108034603
0.0108034603
0.0108034603
0.0108034603
0.0108034603
0.0108034603
0.0108034603
0.0108034603
0.0108034603
0.0108034603
0.0108034603
0.0108034603
0.0108034603
0.0108034603
0.0108034603
0.0108034603
0.0108034603
0.0108034603
0.0108034603
0.0108034603
0.0108034603
0.0108034603
0.0108034603
0.0108034603
0.0108034603
0.0108034603
0.0108034603
0.0108034603
0.0108034603
0.0108034603
0.0108034603
0.0108034603
0.0108034603
0.0108034603
0.0108034603
0.0108034603
0.0108034603
0.0108034603
0.0108034603
0.0108034603
0.0108034603
0.0108034603
0.0108034603
0.0108034603
0.0108034603
0.0108034603
0.0108034603
0.0108034603
0.0108034603
0.0108034603
0.0108034603
0.0108034603
0.0108034603
0.0108034603
0.0108034603
0.0108034603
0.0108034603
0.0108034603
0.0108034603
0.0108034603
0.0108034603
0.0108034603
0.0108034603
0.0108034603
0.0108034603
0.0108034603
0.0108034603
0.0108034603
0.0108034603
0.0108034603
0.0108034603
0.0108034603
0.0108034603
0.0108034606
0.0108034602
0.010803458
0.0108034607
0.0108034765
0.0108034615
0.0108033717
0.0108034369
0.0108038403
0.0108036191
0.0108021936
0.010802775
0.0108066605
0.0108055225
0.0107977188
0.0107993068
0.0108115307
0.0108097584
0.0107933435
0.0107943254
0.0108171603
0.0108176539
0.0107884333
0.0107850407
0.0108183463
0.0108292938
0.0107941223
0.0107765097
0.0108064977
0.0108356969
0.0108061313
0.010776255
0.0107982458
0.0108331616
0.0108085743
0.0107724327
0.0107976983
0.0108515489
0.0108181945
0.010745358
0.0107667798
0.0109101069
0.0108872703
0.0107196196
0.0107136665
0.0109352746
0.0110059633
0.0107586933
0.01069543
0.0107898211
0.0110779139
0.0108741833
0.0106967759
0.0107167297
0.0109860124
0.0109937612
0.0107254062
0.0107114714
0.0108524709
0.0109298124
0.0107892446
0.0107361252
0.0107953447
0.0108658693
0.0108193395
0.0107683844
0.0107900108
0.0108271537
0.0108102959
0.010786048
0.0108046497
0.0108260991
0.0107976067
0.0107707897
0.0108064843
0.0108592115
0.0108142933
0.0107459247
0.0107699339
0.010895345
0.0108745795
0.0107378107
0.0107340375
0.0108794343
0.0109159456
0.010772101
0.0107262796
0.0108068697
0.0109198091
0.0108253521
0.0107292843
0.0107601055
0.0109042522
0.0108842693
0.0107397807
0.0107354476
0.0108665272
0.0109042271
0.0107792159
0.010734189
0.0108013901
0.0108965112
0.0108256967
0.0107448193
0.0107708591
0.0108646957
0.0108484899
0.0107646755
0.0107674438
0.0108369411
0.0108388454
0.0107802483
0.0107765486
0.0108256586
0.0108320091
0.0107837803
0.0107756797
0.010823062
0.0108396518
0.0107906557
0.0107677578
0.0108076622
0.0108497344
0.0108107454
0.0107648339
0.0107845979
0.0108466779
0.0108348144
0.0107713333
0.0107711948
0.0108334273
0.0108396268
0.010784983
0.0107721373
0.0108174537
0.010841982
0.0107946952
0.0107641313
0.0108048951
0.0108614673
0.0108154433
0.0107482788
0.0107716244
0.0108873952
0.0108685886
0.010741608
0.0107378407
0.0108743206
0.0109108315
0.0107720652
0.0107286753
0.0108078066
0.0109121181
0.010822383
0.0107375509
0.0107694005
0.0108753144
0.0108552516
0.0107611375
0.0107626084
0.010834313
0.0108397323
0.0107906978
0.0107833489
0.0108077038
0.0108109413
0.0107993278
0.0108050981
0.010816388
0.0107970713
0.0107755021
0.0108062822
0.0108572245
0.0108175635
0.0107393428
0.0107552214
0.010924333
0.010920878
0.0107232036
0.0107031508
0.0108856443
0.0110584186
0.0107911248
0.010684214
0.0107297129
0.0110348962
0.0110332007
0.0106760806
0.0106752877
0.0110466048
0.0110213238
0.010732949
0.0106697801
0.0107515964
0.011029456
0.0109704987
0.0106775709
0.0106831499
0.0110545234
0.0110300064
0.0107197364
0.0106859364
0.0108167398
0.0110444663
0.0108290423
0.0107036408
0.0107522611
0.0109245781
0.0108905166
0.0107402712
0.0107409519
0.0108544249
0.0108704967
0.010785209
0.0107612233
0.0108026764
0.0108396347
0.0108152704
0.0107815162
0.0107872508
0.0108159016
0.0108183648
0.010802481
0.0107939602
0.010798138
0.0108070816
0.0108092828
0.0108059439
0.0108000235
0.0107993195
0.0108025617
0.0108066805
0.0108068168
0.0108037564
0.0108003562
0.0107995917
0.0108030192
0.0108101551
0.0108096246
0.0107961448
0.0107923037
0.0108068736
0.010822187
0.0108081612
0.010779062
0.0107847649
0.0108375375
0.0108401802
0.0107776449
0.0107572392
0.0108161655
0.0108810721
0.0108160087
0.0107364832
0.0107559159
0.0109075705
0.0109084132
0.0107457228
0.0107244514
0.0108291166
0.0109395948
0.0108160004
0.0107243579
0.0107547488
0.0109020697
0.0109010418
0.0107537796
0.0107422971
0.010816975
0.0108719291
0.0108131995
0.0107626434
0.0107808946
0.0108329788
0.0108317871
0.0107892622
0.0107850681
0.0108055103
0.0108153965
0.0108059261
0.0107976211
0.0108006603
0.010805536
0.0108049005
0.0108030728
0.0108030993
0.0108033987
0.0108038515
0.010804083
0.0108022014
0.0108009122
0.0108054655
0.0108098092
0.0108026092
0.0107918542
0.0107994285
0.0108221199
0.0108169239
0.0107816784
0.0107801834
0.0108267217
0.0108412814
0.0107906553
0.0107624951
0.0108012053
0.0108616197
0.0108245515
0.0107559691
0.0107662307
0.0108595646
0.0108624111
0.0107710203
0.0107532425
0.0108180557
0.0108690158
0.0108084412
0.0107551021
0.0107795947
0.0108566643
0.0108474994
0.0107688049
0.0107650409
0.0108227431
0.0108481588
0.0108004227
0.0107703498
0.0107934769
0.010833681
0.0108218081
0.0107836188
0.010785459
0.0108167449
0.0108189363
0.0107970023
0.0107924984
0.0108074075
0.0108126964
0.0107996197
0.010793349
0.0108072729
0.0108184504
0.0108029721
0.0107832867
0.010794823
0.0108319086
0.010826885
0.0107774004
0.0107712907
0.0108221196
0.0108523762
0.0108026931
0.0107597298
0.0107817301
0.0108560568
0.0108488817
0.0107697371
0.010761337
0.0108197064
0.0108547651
0.010805506
0.0107667441
0.0107875678
0.010836462
0.0108287336
0.0107827476
0.010782429
0.0108142415
0.0108214103
0.010800386
0.0107913994
0.0108023513
0.0108115587
0.0108061389
0.0107986819
0.0108007724
0.0108061342
0.0108055872
0.0108020973
0.0108021055
0.0108040423
0.010804197
0.0108032783
0.0108030937
0.0108035561
0.0108036715
0.010803225
0.0108031105
0.0108041534
0.0108047795
0.0108021651
0.0107990105
0.0108045415
0.0108163938
0.0108079869
0.0107726182
0.0107795909
0.0108706117
0.0108615262
0.0107244782
0.0106906761
0.0109495065
0.0110186656
0.0107502086
0.010664819
0.0107178238
0.0110144449
0.0110018674
0.0106775717
0.0106704197
0.0106920301
0.0107982189
0.0110081116
0.0110101474
0.010651527
0.0106553782
0.0110152939
0.0110119891
0.0108168451
0.0106612088
0.0106872983
0.0110184093
0.0110069367
0.0106659219
0.0106580409
0.010795861
0.0110161381
0.0110104163
0.0106653315
0.0106566747
0.0107681804
0.0110246215
0.0110134655
0.010645513
0.0106448828
0.0110431408
0.0110174563
0.0110288459
0.0106563973
0.0107312729
0.0110261687
)
;

boundaryField
{
    closed
    {
        type            calculated;
        value           uniform 0.0144518141;
    }
    open
    {
        type            calculated;
        value           nonuniform List<scalar> 0();
    }
    sides
    {
        type            empty;
    }
    procBoundary0to1
    {
        type            processor;
        value           uniform 0.0106673224;
    }
}


// ************************************************************************* //
