/*--------------------------------*- C++ -*----------------------------------*\
| =========                 |                                                 |
| \\      /  F ield         | OpenFOAM: The Open Source CFD Toolbox           |
|  \\    /   O peration     | Version:  2306                                  |
|   \\  /    A nd           | Website:  www.openfoam.com                      |
|    \\/     M anipulation  |                                                 |
\*---------------------------------------------------------------------------*/
FoamFile
{
    version     2.0;
    format      ascii;
    arch        "LSB;label=32;scalar=64";
    class       volScalarField;
    location    "0.00034";
    object      prefDPV_T;
}
// * * * * * * * * * * * * * * * * * * * * * * * * * * * * * * * * * * * * * //

dimensions      [1 -1 -1 -1 0 0 0];

internalField   nonuniform List<scalar> 
530
(
5.98562366e-10
5.97610793e-10
5.97549656e-10
5.97549782e-10
5.97549775e-10
5.97549775e-10
5.97549775e-10
5.97549775e-10
5.97549775e-10
5.97549775e-10
5.97549775e-10
5.97549775e-10
5.97549775e-10
5.97549775e-10
5.97549775e-10
5.97549775e-10
5.97549775e-10
5.97549775e-10
5.97549775e-10
5.97549775e-10
5.97549775e-10
5.97549775e-10
5.97549775e-10
5.97549775e-10
5.97549775e-10
5.97549775e-10
5.97549775e-10
5.97549775e-10
5.97549775e-10
5.97549775e-10
5.97549775e-10
5.97549775e-10
5.97549775e-10
5.97549775e-10
5.97549775e-10
5.97549775e-10
5.97549775e-10
5.97549775e-10
5.97549775e-10
5.97549775e-10
5.97549775e-10
5.97549775e-10
5.97549775e-10
5.97549775e-10
5.97549775e-10
5.97549775e-10
5.97549775e-10
5.97549775e-10
5.97549775e-10
5.97549775e-10
5.97549775e-10
5.97549775e-10
5.97549775e-10
5.97549775e-10
5.97549775e-10
5.97549775e-10
5.97549775e-10
5.97549775e-10
5.97549775e-10
5.97549775e-10
5.97549775e-10
5.97549775e-10
5.97549775e-10
5.97549775e-10
5.97549775e-10
5.97549775e-10
5.97549775e-10
5.97549775e-10
5.97549775e-10
5.97549775e-10
5.97549775e-10
5.97549775e-10
5.97549775e-10
5.97549775e-10
5.97549775e-10
5.97549775e-10
5.97549775e-10
5.97549775e-10
5.97549775e-10
5.97549775e-10
5.97549775e-10
5.97549775e-10
5.97549775e-10
5.97549775e-10
5.97549775e-10
5.97549775e-10
5.97549775e-10
5.97549774e-10
5.97549773e-10
5.97549776e-10
5.97549789e-10
5.97549768e-10
5.97549644e-10
5.97549795e-10
5.97550679e-10
5.97549844e-10
5.97544826e-10
5.97548469e-10
5.97570993e-10
5.97558644e-10
5.97478985e-10
5.97511487e-10
5.97728348e-10
5.97664888e-10
5.97228568e-10
5.97317516e-10
5.9799958e-10
5.97900955e-10
5.96983075e-10
5.97038202e-10
5.98312342e-10
5.98339694e-10
5.96707035e-10
5.96515551e-10
5.98378291e-10
5.98983863e-10
5.97026924e-10
5.96032684e-10
5.97719272e-10
5.99336929e-10
5.97698845e-10
5.96017818e-10
5.97258104e-10
5.99196621e-10
5.97834948e-10
5.95798767e-10
5.97227043e-10
6.00205485e-10
5.98368458e-10
5.94234125e-10
5.95473309e-10
6.03386811e-10
6.02150772e-10
5.9270657e-10
5.92331786e-10
6.04743052e-10
6.08510467e-10
5.95010174e-10
5.91217259e-10
5.96779297e-10
6.12307317e-10
6.01440944e-10
5.91284088e-10
5.92524225e-10
6.07450651e-10
6.07862852e-10
5.93052208e-10
5.92195906e-10
6.00255431e-10
6.04447362e-10
5.96749826e-10
5.93691092e-10
5.9709403e-10
6.00988312e-10
5.98432769e-10
5.95567386e-10
5.96795449e-10
5.98864627e-10
5.97930618e-10
5.9657143e-10
5.97615973e-10
5.98806551e-10
5.9722225e-10
5.95705537e-10
5.97718414e-10
6.00625683e-10
5.98152428e-10
5.94271251e-10
5.95656239e-10
6.0259055e-10
6.014636e-10
5.93797464e-10
5.93574036e-10
6.01729197e-10
6.03702221e-10
5.95780788e-10
5.93106154e-10
5.97738796e-10
6.03909875e-10
5.98765059e-10
5.93285642e-10
5.95093135e-10
6.0307143e-10
6.01990276e-10
5.93911977e-10
5.93657538e-10
6.01026233e-10
6.03070354e-10
5.96184811e-10
5.93580301e-10
5.97432979e-10
6.02653382e-10
5.98784808e-10
5.94206873e-10
5.95711081e-10
6.00925353e-10
6.00039947e-10
5.95356454e-10
5.95515972e-10
5.99404902e-10
5.99509987e-10
5.96244103e-10
5.96034338e-10
5.98782842e-10
5.99133399e-10
5.96444391e-10
5.95985092e-10
5.98639541e-10
5.99554351e-10
5.96832129e-10
5.95533775e-10
5.97784134e-10
6.00107972e-10
5.97955746e-10
5.95366541e-10
5.96490462e-10
5.99940385e-10
5.99288355e-10
5.95737955e-10
5.95730457e-10
5.99211848e-10
5.99553055e-10
5.9651217e-10
5.95783314e-10
5.98328576e-10
5.9968206e-10
5.97058963e-10
5.95324986e-10
5.97629646e-10
6.00749002e-10
5.98216369e-10
5.94408652e-10
5.95753008e-10
6.02159952e-10
6.01137555e-10
5.94021043e-10
5.937987e-10
6.01451027e-10
6.03426805e-10
5.95779008e-10
5.93251668e-10
5.97791231e-10
6.03496081e-10
5.98601359e-10
5.93779332e-10
5.95627798e-10
6.0150365e-10
6.00410378e-10
5.95153189e-10
5.95239388e-10
5.99260084e-10
5.99558772e-10
5.96833708e-10
5.96419409e-10
5.97786108e-10
5.9796633e-10
5.97318165e-10
5.97640907e-10
5.98268571e-10
5.97192069e-10
5.95973052e-10
5.97706512e-10
6.00516006e-10
5.98332065e-10
5.93881148e-10
5.94804267e-10
6.04153675e-10
6.0396558e-10
5.929309e-10
5.91643119e-10
6.02065685e-10
6.11284956e-10
5.96845549e-10
5.90673316e-10
5.93279376e-10
6.10032698e-10
6.09953517e-10
5.90281872e-10
5.90243236e-10
6.10642939e-10
6.09315302e-10
5.93482867e-10
5.89977617e-10
5.94566649e-10
6.09750278e-10
6.06622966e-10
5.90353082e-10
5.90623939e-10
6.11062674e-10
6.09765818e-10
5.92691145e-10
5.9075699e-10
5.98276982e-10
6.10548722e-10
5.98965617e-10
5.91677666e-10
5.94638791e-10
6.04164573e-10
6.02329181e-10
5.93934465e-10
5.93981703e-10
6.00363297e-10
6.01241518e-10
5.96523088e-10
5.95157827e-10
5.97505023e-10
5.99552983e-10
5.98207185e-10
5.9631578e-10
5.96640347e-10
5.98242205e-10
5.98379204e-10
5.97494827e-10
5.9701772e-10
5.97252025e-10
5.97751774e-10
5.97874501e-10
5.97688372e-10
5.97357624e-10
5.97318241e-10
5.97499553e-10
5.97729486e-10
5.97737087e-10
5.97566286e-10
5.97376248e-10
5.97333448e-10
5.97525069e-10
5.97923068e-10
5.97893434e-10
5.97140389e-10
5.96924518e-10
5.97740146e-10
5.98590755e-10
5.97811612e-10
5.96177186e-10
5.96499181e-10
5.99438466e-10
5.99582887e-10
5.960975e-10
5.94928016e-10
5.98256668e-10
6.01816443e-10
5.9824647e-10
5.93716744e-10
5.94849684e-10
6.03251688e-10
6.03296589e-10
5.94263628e-10
5.92996278e-10
5.98972573e-10
6.04972959e-10
5.98245789e-10
5.92991223e-10
5.94784321e-10
6.0295389e-10
6.02899444e-10
5.94728634e-10
5.94059797e-10
5.98300057e-10
6.01319643e-10
5.98091488e-10
5.95239583e-10
5.96281156e-10
5.99186465e-10
5.99121619e-10
5.96753009e-10
5.96517012e-10
5.97663895e-10
5.98214315e-10
5.97687312e-10
5.97222993e-10
5.97393237e-10
5.97665592e-10
5.97630173e-10
5.97528109e-10
5.97529604e-10
5.97546322e-10
5.9757162e-10
5.97584528e-10
5.9747943e-10
5.97407301e-10
5.97661705e-10
5.97903708e-10
5.97502169e-10
5.96899302e-10
5.97324147e-10
5.98587198e-10
5.98298976e-10
5.9632576e-10
5.96240568e-10
5.98842044e-10
5.99643867e-10
5.96831958e-10
5.95232072e-10
5.97423241e-10
6.00758026e-10
5.98721315e-10
5.94856611e-10
5.95446519e-10
6.00646172e-10
6.00801409e-10
5.95720227e-10
5.94698472e-10
5.98361507e-10
6.01161266e-10
5.97826963e-10
5.9480592e-10
5.96207207e-10
6.00487228e-10
5.99985814e-10
5.95593873e-10
5.95378637e-10
5.98621338e-10
6.00021641e-10
5.97379523e-10
5.95681798e-10
5.96990479e-10
5.99225693e-10
5.98570108e-10
5.96435088e-10
5.96539374e-10
5.98289185e-10
5.98410849e-10
5.97188304e-10
5.96935555e-10
5.97769961e-10
5.98064336e-10
5.97335016e-10
5.96983291e-10
5.97762485e-10
5.98383776e-10
5.97522354e-10
5.96416394e-10
5.97065825e-10
5.99128244e-10
5.98850571e-10
5.96083668e-10
5.95735398e-10
5.98587218e-10
6.00252722e-10
5.97506261e-10
5.95073648e-10
5.96327917e-10
6.00454371e-10
6.00061572e-10
5.95647268e-10
5.95166306e-10
5.98453094e-10
6.00383528e-10
5.97663518e-10
5.95475776e-10
5.96658123e-10
5.99378832e-10
5.98953177e-10
5.96385819e-10
5.96368129e-10
5.98150097e-10
5.98547904e-10
5.97377773e-10
5.96873767e-10
5.97487768e-10
5.98001098e-10
5.97699273e-10
5.97282487e-10
5.97399533e-10
5.97698998e-10
5.97668501e-10
5.97473601e-10
5.97474067e-10
5.97582262e-10
5.97590895e-10
5.97539573e-10
5.97529248e-10
5.9755504e-10
5.97561444e-10
5.97536426e-10
5.97529925e-10
5.97587987e-10
5.97622676e-10
5.97476208e-10
5.97298994e-10
5.9760733e-10
5.98265941e-10
5.97795674e-10
5.95800202e-10
5.96188633e-10
6.01241171e-10
6.00736603e-10
5.92974047e-10
5.90997079e-10
6.05503534e-10
6.09169268e-10
5.94492601e-10
5.89738739e-10
5.92627046e-10
6.08966391e-10
6.08290106e-10
5.90360934e-10
5.90013688e-10
5.91063427e-10
5.97240239e-10
6.0862741e-10
6.08715944e-10
5.89098239e-10
5.89283607e-10
6.08997619e-10
6.08830044e-10
5.98291549e-10
5.89564568e-10
5.90841568e-10
6.09170962e-10
6.08553701e-10
5.89794941e-10
5.89411776e-10
5.9709208e-10
6.09053826e-10
6.08740501e-10
5.89765573e-10
5.89345316e-10
5.95516768e-10
6.09505215e-10
6.08894351e-10
5.88808368e-10
5.88776018e-10
6.10465498e-10
6.09124687e-10
6.09705489e-10
5.89331993e-10
5.93321033e-10
6.09572172e-10
)
;

boundaryField
{
    closed
    {
        type            calculated;
        value           uniform 7.29306575e-10;
    }
    open
    {
        type            calculated;
        value           nonuniform List<scalar> 0();
    }
    sides
    {
        type            empty;
    }
    procBoundary0to1
    {
        type            processor;
        value           uniform 5.89861166e-10;
    }
}


// ************************************************************************* //
