/*--------------------------------*- C++ -*----------------------------------*\
| =========                 |                                                 |
| \\      /  F ield         | OpenFOAM: The Open Source CFD Toolbox           |
|  \\    /   O peration     | Version:  2306                                  |
|   \\  /    A nd           | Website:  www.openfoam.com                      |
|    \\/     M anipulation  |                                                 |
\*---------------------------------------------------------------------------*/
FoamFile
{
    version     2.0;
    format      ascii;
    arch        "LSB;label=32;scalar=64";
    class       volScalarField;
    location    "0.00174";
    object      prefDZ_H2O;
}
// * * * * * * * * * * * * * * * * * * * * * * * * * * * * * * * * * * * * * //

dimensions      [1 -1 -1 0 0 0 0];

internalField   nonuniform List<scalar> 
530
(
-7.74062367e-07
-7.49178606e-07
-7.35892967e-07
-7.35717288e-07
-7.7821137e-07
-7.74070897e-07
-7.49689881e-07
-7.3597777e-07
-7.35795086e-07
-7.78585251e-07
-7.7411097e-07
-7.50097464e-07
-7.35993423e-07
-7.35781284e-07
-7.79013271e-07
-7.74207674e-07
-7.49565508e-07
-7.35658479e-07
-7.3545739e-07
-7.7955644e-07
-7.74506906e-07
-7.49136173e-07
-7.34408464e-07
-7.34320336e-07
-7.79115431e-07
-7.73656645e-07
-7.7379505e-07
-7.45071605e-07
-7.36172424e-07
-7.33477121e-07
-7.33281715e-07
-7.77570989e-07
-7.74642623e-07
-7.75725798e-07
-7.74000037e-07
-7.46386735e-07
-7.37858866e-07
-7.79849868e-07
-7.73652815e-07
-7.47626257e-07
-7.38065083e-07
-7.35705857e-07
-7.35513009e-07
-7.79536044e-07
-7.74839689e-07
-7.4920617e-07
-7.34806219e-07
-7.34403751e-07
-7.76438768e-07
-7.74615421e-07
-7.46522083e-07
-7.36106908e-07
-7.33019544e-07
-7.3279665e-07
-7.70199411e-07
-7.7503074e-07
-7.76193366e-07
-7.74028026e-07
-7.74075431e-07
-7.46445052e-07
-7.37166505e-07
-7.79364827e-07
-7.74153587e-07
-7.47643486e-07
-7.37208206e-07
-7.34482263e-07
-7.34326585e-07
-7.74706322e-07
-7.75219233e-07
-7.51177784e-07
-7.34832512e-07
-7.34457379e-07
-7.729572e-07
-7.75130553e-07
-7.54092585e-07
-7.35536918e-07
-7.35032544e-07
-7.72678546e-07
-7.7418135e-07
-7.47105844e-07
-7.39111232e-07
-7.7844476e-07
-7.73678202e-07
-7.55687836e-07
-7.38327967e-07
-7.3779836e-07
-7.34881928e-07
-7.34682825e-07
-7.72259704e-07
-7.74613479e-07
-7.74928706e-07
-7.60789349e-07
-7.35299739e-07
-7.35116553e-07
-7.80040216e-07
-7.54878394e-07
-7.37232022e-07
-7.65322901e-07
-7.74427891e-07
-7.74641828e-07
-7.57083687e-07
-7.34297663e-07
-7.34522084e-07
-7.78987644e-07
-7.52565076e-07
-7.36308023e-07
-7.78704868e-07
-7.74064702e-07
-7.42979596e-07
-7.38599936e-07
-7.79481065e-07
-7.73454463e-07
-7.53130446e-07
-7.39080774e-07
-7.3557154e-07
-7.35605513e-07
-7.80279706e-07
-7.74940177e-07
-7.54877697e-07
-7.35294809e-07
-7.35571309e-07
-7.795979e-07
-7.7499214e-07
-7.5564902e-07
-7.35471492e-07
-7.37061052e-07
-7.77517007e-07
-7.54700391e-07
-7.38959854e-07
-7.77314261e-07
-7.74032208e-07
-7.51166004e-07
-7.38573943e-07
-7.35484199e-07
-7.36194276e-07
-7.78168121e-07
-7.7531807e-07
-7.53747117e-07
-7.3543335e-07
-7.3623703e-07
-7.79598681e-07
-7.75483687e-07
-7.51922975e-07
-7.34902231e-07
-7.35937067e-07
-7.79451318e-07
-7.75375415e-07
-7.53032969e-07
-7.35272366e-07
-7.3752764e-07
-7.76876057e-07
-7.60854813e-07
-7.38918457e-07
-7.68462094e-07
-7.74158906e-07
-7.56917459e-07
-7.38497289e-07
-7.355758e-07
-7.37578465e-07
-7.76284418e-07
-7.59870706e-07
-7.4062571e-07
-7.77278321e-07
-7.73764332e-07
-7.57350309e-07
-7.38627603e-07
-7.35240217e-07
-7.36237224e-07
-7.77951022e-07
-7.74792282e-07
-7.56764104e-07
-7.36063922e-07
-7.37847744e-07
-7.76410031e-07
-7.6493078e-07
-7.39101597e-07
-7.62707902e-07
-7.74004214e-07
-7.6117708e-07
-7.38740968e-07
-7.35522023e-07
-7.36350294e-07
-7.79701998e-07
-7.74640315e-07
-7.58706401e-07
-7.36492177e-07
-7.36545262e-07
-7.77542886e-07
-7.74745006e-07
-7.58593614e-07
-7.36419409e-07
-7.36479245e-07
-7.80555878e-07
-7.74359415e-07
-7.5859122e-07
-7.37741895e-07
-7.37304913e-07
-7.3434811e-07
-7.35263013e-07
-7.77503399e-07
-7.67723391e-07
-7.37146291e-07
-7.50230451e-07
-7.75176741e-07
-7.5854292e-07
-7.38649396e-07
-7.57420354e-07
-7.74624713e-07
-7.58799686e-07
-7.38183946e-07
-7.34646464e-07
-7.35330177e-07
-7.77837425e-07
-7.65026133e-07
-7.36635128e-07
-7.50852668e-07
-7.75545783e-07
-7.57022335e-07
-7.37168265e-07
-7.53908293e-07
-7.75188037e-07
-7.55060512e-07
-7.36995244e-07
-7.54820474e-07
-7.75115876e-07
-7.54207317e-07
-7.37184936e-07
-7.56236643e-07
-7.75039655e-07
-7.52555773e-07
-7.3753965e-07
-7.59897191e-07
-7.75336091e-07
-7.54478963e-07
-7.35153307e-07
-7.34692626e-07
-7.63166638e-07
-7.74972102e-07
-7.49915366e-07
-7.37466913e-07
-7.60821319e-07
-7.75311945e-07
-7.5459917e-07
-7.35172102e-07
-7.34797385e-07
-7.68819643e-07
-7.74650497e-07
-7.48518551e-07
-7.37910862e-07
-7.64082764e-07
-7.75111713e-07
-7.54594855e-07
-7.35323882e-07
-7.35091921e-07
-7.8049372e-07
-7.74904921e-07
-7.50976337e-07
-7.35187863e-07
-7.34871775e-07
-7.78395299e-07
-7.74401409e-07
-7.46170662e-07
-7.37894756e-07
-7.67704852e-07
-7.75027692e-07
-7.52167679e-07
-7.34866775e-07
-7.34672939e-07
-7.78360053e-07
-7.74059064e-07
-7.75284621e-07
-7.52539203e-07
-7.35383626e-07
-7.3516907e-07
-7.79367865e-07
-7.74550033e-07
-7.48586938e-07
-7.37374199e-07
-7.35638962e-07
-7.35540912e-07
-7.69065103e-07
-7.75021485e-07
-7.42431426e-07
-7.38666096e-07
-7.73818751e-07
-7.48709116e-07
-7.35667509e-07
-7.60527076e-07
-7.750852e-07
-7.74085301e-07
-7.75818699e-07
-7.48254661e-07
-7.33391726e-07
-7.3391678e-07
-7.78168916e-07
-7.75896582e-07
-7.41027517e-07
-7.37121985e-07
-7.79981636e-07
-7.75734659e-07
-7.45254723e-07
-7.35162e-07
-7.36333353e-07
-7.77672524e-07
-7.75550944e-07
-7.4719194e-07
-7.35984057e-07
-7.37208802e-07
-7.77257258e-07
-7.75424877e-07
-7.46416285e-07
-7.35711158e-07
-7.37014906e-07
-7.7719979e-07
-7.75472573e-07
-7.45177214e-07
-7.35273963e-07
-7.36244595e-07
-7.77481091e-07
-7.74925094e-07
-7.40761976e-07
-7.38209888e-07
-7.76584713e-07
-7.74841457e-07
-7.44097279e-07
-7.3532673e-07
-7.36564119e-07
-7.76389399e-07
-7.7486472e-07
-7.45309906e-07
-7.35531078e-07
-7.36533897e-07
-7.75783266e-07
-7.7412277e-07
-7.45579782e-07
-7.37546147e-07
-7.36533989e-07
-7.36858375e-07
-7.7624569e-07
-7.73861154e-07
-7.42354965e-07
-7.39515371e-07
-7.7629571e-07
-7.74175888e-07
-7.45730445e-07
-7.35770699e-07
-7.36453736e-07
-7.7632074e-07
-7.74695838e-07
-7.44332265e-07
-7.34832257e-07
-7.35345919e-07
-7.76817054e-07
-7.74108934e-07
-7.41287228e-07
-7.38236363e-07
-7.77404022e-07
-7.7413254e-07
-7.46001115e-07
-7.36188766e-07
-7.36276911e-07
-7.76234729e-07
-7.74039484e-07
-7.44845306e-07
-7.36671459e-07
-7.35589346e-07
-7.35262121e-07
-7.77891071e-07
-7.74013366e-07
-7.41092796e-07
-7.37764555e-07
-7.78472473e-07
-7.73715108e-07
-7.42924949e-07
-7.37668447e-07
-7.35392834e-07
-7.36873705e-07
-7.77162016e-07
-7.45723922e-07
-7.36292412e-07
-7.79502333e-07
-7.74171084e-07
-7.3987019e-07
-7.36491609e-07
-7.80151917e-07
-7.74107855e-07
-7.39761184e-07
-7.36340406e-07
-7.79897147e-07
-7.74155318e-07
-7.40052765e-07
-7.36440919e-07
-7.79177569e-07
-7.74164446e-07
-7.40537407e-07
-7.36724824e-07
-7.78736579e-07
-7.74163697e-07
-7.4088115e-07
-7.37028797e-07
-7.78978899e-07
-7.74759123e-07
-7.42893897e-07
-7.33830798e-07
-7.33497115e-07
-7.75980761e-07
-7.74693375e-07
-7.41611384e-07
-7.36107036e-07
-7.7658449e-07
-7.74382192e-07
-7.41034073e-07
-7.36403009e-07
-7.76069174e-07
-7.74322444e-07
-7.41436042e-07
-7.36885016e-07
-7.76626875e-07
-7.74816657e-07
-7.43362239e-07
-7.33991308e-07
-7.33644159e-07
-7.74316568e-07
-7.74699434e-07
-7.42338415e-07
-7.36416315e-07
-7.74500583e-07
-7.74527992e-07
-7.42223844e-07
-7.36925114e-07
-7.74667973e-07
-7.74393371e-07
-7.43161887e-07
-7.37919055e-07
-7.75925735e-07
-7.74340346e-07
-7.44686865e-07
-7.36792709e-07
-7.35367091e-07
-7.35285797e-07
-7.77982385e-07
-7.7454613e-07
-7.75103028e-07
-7.74140343e-07
-7.54330291e-07
-7.36714359e-07
-7.35084954e-07
-7.34885219e-07
-7.75774647e-07
-7.74816712e-07
-7.41750271e-07
-7.36810848e-07
-7.74692199e-07
-7.74998737e-07
-7.43099939e-07
-7.34116312e-07
-7.33863601e-07
-7.78168591e-07
-7.7467282e-07
-7.43750655e-07
-7.38296196e-07
-7.76607948e-07
-7.74404443e-07
-7.4608958e-07
-7.36274764e-07
-7.36098515e-07
-7.79184857e-07
-7.74394113e-07
-7.48008593e-07
-7.36129859e-07
-7.36018983e-07
-7.79069047e-07
-7.74459382e-07
-7.46142836e-07
-7.35424033e-07
-7.35187068e-07
-7.79615411e-07
-7.74237583e-07
-7.43009299e-07
-7.38146652e-07
-7.79432369e-07
-7.74241434e-07
-7.44244839e-07
-7.35511736e-07
-7.35379204e-07
-7.78651539e-07
-7.74507342e-07
-7.44481281e-07
-7.34821684e-07
-7.34637613e-07
-7.78937254e-07
-7.74279297e-07
-7.41635101e-07
-7.3751888e-07
-7.80195917e-07
-7.74382287e-07
-7.42152659e-07
-7.34663044e-07
-7.34436188e-07
-7.78878286e-07
-7.74271427e-07
-7.41512078e-07
-7.37313999e-07
-7.79912166e-07
-7.73888283e-07
-7.41378337e-07
-7.38155413e-07
-7.79277115e-07
-7.73925763e-07
-7.44150819e-07
-7.36131913e-07
-7.36046297e-07
-7.76990685e-07
-7.73937225e-07
-7.46134049e-07
-7.3596848e-07
-7.35965279e-07
-7.76443634e-07
-7.73882359e-07
-7.45282492e-07
-7.3579547e-07
-7.35928742e-07
-7.76201757e-07
-7.73847065e-07
-7.44950013e-07
-7.35735936e-07
-7.36004e-07
-7.75934736e-07
-7.73831655e-07
-7.44678824e-07
)
;

boundaryField
{
    closed
    {
        type            calculated;
        value           nonuniform List<scalar> 0();
    }
    open
    {
        type            calculated;
        value           nonuniform List<scalar> 0();
    }
    sides
    {
        type            empty;
    }
    procBoundary2to1
    {
        type            processor;
        value           uniform -7.77858126e-07;
    }
    procBoundary2to3
    {
        type            processor;
        value           uniform -7.3566568e-07;
    }
}


// ************************************************************************* //
