/*--------------------------------*- C++ -*----------------------------------*\
| =========                 |                                                 |
| \\      /  F ield         | OpenFOAM: The Open Source CFD Toolbox           |
|  \\    /   O peration     | Version:  2306                                  |
|   \\  /    A nd           | Website:  www.openfoam.com                      |
|    \\/     M anipulation  |                                                 |
\*---------------------------------------------------------------------------*/
FoamFile
{
    version     2.0;
    format      ascii;
    arch        "LSB;label=32;scalar=64";
    class       volScalarField;
    location    "0.00076";
    object      h;
}
// * * * * * * * * * * * * * * * * * * * * * * * * * * * * * * * * * * * * * //

dimensions      [0 2 -2 0 0 0 0];

internalField   nonuniform List<scalar> 
531
(
-3950.20181
10303.8291
10260.3605
-1668.45718
-4880.33036
-4503.27051
10130.5983
10272.3105
-3239.64785
-4240.75693
10119.229
10216.1922
285.757021
-5252.51225
-4646.99208
10063.732
10409.8244
2321.46415
-3383.96512
-4041.76381
-3980.91608
10120.9169
10399.246
54.0124948
-4052.15812
-3893.83491
10197.5961
10342.3342
1035.81032
-4813.79066
-4071.78333
9858.51615
10600.1489
10186.084
-1931.31937
-5243.14049
-5162.27463
10058.6188
10064.2776
-1764.26942
-5785.81223
-4699.31037
9697.69163
10546.7394
10150.9763
-1802.19352
-5775.90774
-4590.9999
9651.44451
10173.7628
-5108.9321
-6011.48663
9282.32396
10019.5966
-4412.71386
-5421.44005
9691.45074
10000.0866
-290.90927
-6338.13516
-5086.14626
9499.65467
10491.8254
10101.3745
-1834.22479
-5703.89369
-4628.73651
9955.27073
10331.2299
-517.618462
-4135.20441
-3592.79186
10144.7031
10247.6142
-934.327043
-5995.36912
-5380.37106
9494.13747
10264.7779
10134.7998
-3931.85843
-5866.60824
9487.74027
9889.20012
-1354.01284
-6435.77053
-5247.40703
9531.81789
10477.6533
10369.673
-2036.595
-4347.5504
-5146.68077
-5039.5584
9399.59299
10154.3708
1299.79253
-5143.84091
-5118.25986
9545.21968
10214.888
-3144.82664
-4415.1503
9247.77234
10301.2925
-4007.77778
-4271.68044
8995.02074
10552.2975
10096.5163
-1842.87405
-5030.51144
-6199.53031
-6181.50415
8779.29036
10238.1647
9647.22985
-3333.61426
-6198.97759
8801.71698
9970.02074
9905.15248
10065.0457
-386.674654
-4701.54389
-3755.46579
-5161.57544
-5174.41826
9477.11724
10136.1538
748.043598
-5467.78349
-5247.06636
9273.814
10291.6328
9872.65186
-3682.91879
-5444.45342
8618.03148
10390.0464
9842.11875
-1998.77116
-5687.25885
-6358.17892
-6372.92975
8779.99576
10391.5751
9998.00706
-1019.83944
-6349.04564
-5563.53026
9210.60943
10089.9637
10023.0656
10022.6632
-2064.2662
-5787.59616
-7062.92978
-7070.02777
8447.93396
9940.81121
9715.84608
10135.3654
4196.41396
-4419.33581
-4372.48671
-6238.49583
-6242.69787
8796.32452
10053.5273
10022.9774
10200.2357
1491.97816
-4246.14506
-3560.56337
-5361.19011
-5367.96328
9050.07416
10199.7099
10178.9255
10283.7464
1227.49405
-4456.66285
-3821.4194
-6159.71465
-6162.10115
8797.22698
10195.8437
9814.46884
-3662.6671
-5795.05973
8407.92894
10110.8555
9503.31886
-4306.62903
-7264.53079
8601.70992
9877.69943
-4098.14615
-5493.91276
9063.59068
10046.3844
1173.02469
-5637.3189
-5660.11561
9208.72734
10123.227
-2952.78924
-4642.32288
9133.08617
10226.5348
2713.3731
-4859.3218
-4885.04116
9223.63302
10085.7153
-298.853472
-5684.66309
-5288.1279
9324.6783
10496.4156
10183.6031
-1095.51897
-4577.09711
-5757.47447
-5745.99215
8833.04301
10436.5983
10173.3361
-643.442741
-5247.1185
-5261.51519
9562.24421
10213.9843
-2068.74026
-4300.6638
9458.14525
10083.6413
-610.751105
-6339.00476
-6332.75391
9131.76865
9929.6847
9988.75975
9917.55839
-2202.30812
-6017.59683
-7452.58408
-7443.17525
8400.4392
9764.66672
9839.33052
9869.01884
76.9705379
-5934.42221
-5921.53215
9454.28376
9944.66876
-967.352932
-6113.00194
-6092.29529
9366.80798
10063.4843
-3323.78644
-4916.19077
9130.91904
10197.5249
-3624.72411
-4650.36008
9190.13139
10258.7746
-3104.34073
-4258.19637
9471.40823
10254.639
-266.112857
-4716.90801
-4720.17727
9697.83552
10220.9168
772.379434
-4887.39972
-4907.13917
9650.44741
10244.5977
-2593.04948
-4233.86137
9584.86968
10208.6742
-923.723323
-5042.04101
-5054.67823
9754.48458
10202.4556
379.339928
-4557.94438
-1957.293
9914.98555
10793.6943
10590.7619
2186.79331
-3695.81307
-3814.11802
-5817.6765
-5836.39327
9273.9468
10094.1342
-4271.03211
-4970.05491
9010.36686
10282.3236
9978.48036
-3928.93869
-5664.47704
9450.81618
9964.32696
-1731.91136
-5862.93938
-5751.69169
9737.75469
10151.5661
-2650.14557
-4347.80457
9732.44268
10182.3438
-731.001241
-5376.41881
-5276.72814
9772.36363
10195.816
-2728.04983
-4329.45299
9755.95969
10181.111
-757.487228
-5391.48561
-5277.76949
9787.62101
10194.5311
-2732.54775
-4300.52028
9789.25554
10193.3587
-581.951288
-5349.91734
-5197.00107
9799.03624
10213.4815
-2716.67156
-4159.96617
9823.40918
10264.1058
-207.880648
-4881.9576
-4736.71154
9942.39556
10241.3586
1066.63204
-4801.11845
-4710.67711
9936.12574
10145.4689
-539.432218
-5559.7994
-5317.34967
9690.51506
10176.2684
-3497.82429
-4456.10682
9519.41715
10377.9458
-3821.53867
-3415.91691
9483.22495
-1752.43006
-5698.94291
8854.75657
10220.9453
8999.71233
-4706.23391
-6172.96132
9536.62971
10039.2729
-180.222582
-5537.94889
-5164.41949
9678.71998
10303.694
-3366.82826
-3287.41698
9376.72242
-754.328823
-5947.72598
9700.13571
10098.7425
-2953.24658
-4615.35382
9796.6274
10074.1459
-229.096067
-6431.04328
-5935.52149
9244.8401
10143.0299
9820.02677
-4574.00987
-5391.56205
8853.2788
10435.9663
9538.13583
-1753.45896
-6946.1765
-6541.81583
9606.09025
9987.68831
370.356281
-5293.21821
-4981.84413
9748.63399
10220.7061
1832.5617
-4848.24494
-4656.62951
9736.7329
10229.4836
896.160762
-4938.45071
-4722.83557
9700.66025
10234.8392
1439.26887
-4875.2903
-4710.61199
9686.76095
10179.0301
420.510343
-5287.99149
-5096.03454
9573.69939
10188.3766
-2562.20645
-4318.19965
9566.2595
10186.5928
-183.703955
-5402.79564
-5217.90997
9528.98778
10175.8732
-2492.78791
-4306.77358
9520.3073
10191.2657
-100.313657
-5382.19441
-5209.78397
9490.79055
10186.3209
-2410.34059
-4195.75449
9478.79524
10245.3387
256.024678
-5016.05817
-4905.95335
9553.38735
10162.6166
711.869172
-5266.17969
-5132.88149
9448.84293
10235.1178
-2267.50686
-3788.03613
9431.35501
10465.9622
516.862812
-3159.79271
-5181.71523
-5119.83949
9015.43495
10419.2528
10048.9578
-2580.66529
-5175.79712
9197.55649
9987.58828
-899.906987
-6097.71954
-5997.24722
9236.42527
10048.8086
-2517.35191
-4753.43112
9201.31415
10075.9479
-557.968424
-5872.03488
-5770.52455
9171.43367
10095.7575
-2805.12839
-4545.57215
9020.44019
10239.3325
-2680.46564
-4136.31462
9166.21352
10283.755
362.819
-4606.357
-4558.10874
9402.22568
10255.6958
920.493709
-4816.56331
-4773.22769
9319.41586
10175.0443
402.266796
-5176.11878
-5143.27567
9245.42492
10183.8275
-2142.82825
-4246.11587
9133.73752
10218.7468
163.291626
-5078.61513
-5059.8633
)
;

boundaryField
{
    closed
    {
        type            lookUpEnthalpy;
        h0              nonuniform List<scalar> 0();
        value           nonuniform List<scalar> 0();
    }
    open
    {
        type            zeroGradient;
    }
    sides
    {
        type            empty;
    }
    procBoundary3to2
    {
        type            processor;
        value           uniform -4371.63591;
    }
    procBoundary3to4
    {
        type            processor;
        value           uniform 9248.33732;
    }
}


// ************************************************************************* //
