/*--------------------------------*- C++ -*----------------------------------*\
| =========                 |                                                 |
| \\      /  F ield         | OpenFOAM: The Open Source CFD Toolbox           |
|  \\    /   O peration     | Version:  2306                                  |
|   \\  /    A nd           | Website:  www.openfoam.com                      |
|    \\/     M anipulation  |                                                 |
\*---------------------------------------------------------------------------*/
FoamFile
{
    version     2.0;
    format      ascii;
    arch        "LSB;label=32;scalar=64";
    class       volScalarField;
    location    "0.00076";
    object      H2O;
}
// * * * * * * * * * * * * * * * * * * * * * * * * * * * * * * * * * * * * * //

dimensions      [0 0 0 0 0 0 0];

internalField   nonuniform List<scalar> 
531
(
0.00695915115
0.00107831092
0.00107307143
0.00627092223
0.00722334271
0.00711401073
0.00105262727
0.00107382625
0.00676023962
0.007040552
0.00105072626
0.00106563959
0.00549143247
0.00732657563
0.00715420332
0.00104240247
0.00109413693
0.00456154
0.00680104921
0.00698481647
0.00696754276
0.0010509455
0.00109273522
0.00560874725
0.00698770314
0.00694319172
0.00106241842
0.00108482826
0.00517387688
0.00720323318
0.00699300714
0.0010115945
0.00112224903
0.00106133792
0.00636927568
0.00732522928
0.00730165063
0.00104176214
0.00104383606
0.00630663586
0.0074858392
0.00716949016
0.000988526453
0.00111455683
0.00105838293
0.00632275139
0.00748628517
0.00713955039
0.000982234193
0.00105974316
0.00729074171
0.00754426068
0.00092445503
0.00103699524
0.00709122584
0.00737943877
0.00098689479
0.0010356451
0.0057635951
0.00764869015
0.00727999134
0.000958332618
0.00110655177
0.00105016537
0.0063332381
0.00746240847
0.00715013364
0.00102748802
0.0010832213
0.00586184868
0.00701171296
0.00685854962
0.00105512924
0.00107206987
0.00600398409
0.00754669147
0.00736412788
0.000957339499
0.0010734399
0.00105439399
0.00695391638
0.00750614085
0.000955493036
0.00101807612
0.00616099387
0.0076760534
0.00732602503
0.000963508692
0.00110477911
0.00108959665
0.00641047477
0.00707266452
0.00729875872
0.00726999792
0.00094246292
0.00105866261
0.00507546969
0.0073029944
0.00728838338
0.000966956407
0.00106542998
0.00673182613
0.00708987835
0.000920851851
0.001078447
0.00697645516
0.0070496206
0.000880965803
0.00111583758
0.00104944636
0.00634436557
0.00726886259
0.0076049129
0.00760053616
0.000847496156
0.00107089794
0.000981884269
0.00678548916
0.00760462046
0.000851057329
0.00103051324
0.00102094321
0.00104451077
0.00580127996
0.00717477098
0.00690439103
0.00730902649
0.00730901859
0.000957644277
0.00105636719
0.00537540939
0.00739711601
0.00733028533
0.000925401446
0.00107843476
0.00101571567
0.00688392765
0.00738451645
0.000821728462
0.00109226006
0.00101071293
0.00639983712
0.00745793616
0.00765224807
0.00765553469
0.000849595664
0.00109353693
0.00103665634
0.00605174898
0.00765737233
0.00742134811
0.000917116477
0.00104889278
0.00103926392
0.00103817861
0.00642505182
0.00748689946
0.00786212323
0.0078594293
0.000800715709
0.00102732562
0.000996487884
0.00105622704
0.00371085537
0.007093224
0.00708005517
0.00762014869
0.00761658054
0.000853526147
0.0010432595
0.00103964295
0.00106497308
0.00502146097
0.0070440406
0.00684948402
0.00736598166
0.00736317604
0.000893768877
0.00106499252
0.00106345875
0.00107766838
0.00516095485
0.00710472824
0.00692332702
0.00760005124
0.00759657025
0.000855739416
0.00106583513
0.00100840509
0.00687846561
0.00749047647
0.000792824592
0.00105233776
0.000960956639
0.00706040074
0.00791918016
0.000822590617
0.00101773174
0.00700163167
0.0074033747
0.000894298204
0.00104314493
0.00516243205
0.00744561248
0.00744485339
0.000917468009
0.00105240983
0.00667877293
0.00715539913
0.00090403713
0.00106827833
0.00442574432
0.00721802238
0.00722391881
0.000918858978
0.00104722479
0.00576672045
0.00745594039
0.00733942256
0.000932614492
0.00110782879
0.00106167592
0.00606793697
0.00713743904
0.0074748517
0.00747073254
0.000857677372
0.00109919173
0.00106024947
0.0059001863
0.00733108074
0.00733196763
0.000971191075
0.00106653076
0.00642693065
0.00705957297
0.000954466245
0.00104808769
0.00589598432
0.00765019971
0.00764387768
0.00090503136
0.00102518784
0.00103362948
0.00102292453
0.00646969037
0.00755587019
0.00797461
0.00797092015
0.000793482334
0.00100115309
0.00101291464
0.00101646969
0.00564155964
0.00753167135
0.00752490115
0.000954969903
0.00102747184
0.00602367749
0.00758474076
0.00756871621
0.000942110158
0.00104331936
0.00678262036
0.00723210555
0.000903961977
0.00106300476
0.00686754122
0.00715635484
0.000912371047
0.0010721494
0.00672157308
0.00704609871
0.000954608564
0.00107201426
0.00574815176
0.00717679221
0.00717723291
0.000988956644
0.00106736995
0.00530368651
0.00722551305
0.00722866465
0.000981389656
0.00106980824
0.00658102298
0.00703886704
0.00097061722
0.00106461209
0.00599146637
0.00726769141
0.0072712444
0.000996246385
0.00106416448
0.00544735675
0.00713191036
0.00637367052
0.00102174513
0.00115028358
0.00112222474
0.00463833938
0.00688773516
0.00692080812
0.00749660319
0.00749449926
0.000925992063
0.00104805091
0.00705105898
0.00724858749
0.00088361805
0.00107661415
0.00103171878
0.00695312082
0.0074514193
0.000950220883
0.00103024114
0.00630023243
0.00751145012
0.0074719426
0.000995522396
0.00105703156
0.0065942747
0.00707267924
0.000993201343
0.00106227385
0.0059275762
0.00736788221
0.00733526186
0.000999636927
0.00106318141
0.00661690917
0.00706688691
0.000996285023
0.00106161481
0.0059327116
0.00737117583
0.00733494146
0.00100162169
0.00106285931
0.00661839462
0.00705860887
0.00100115299
0.00106343918
0.00586242931
0.00735920732
0.00731158011
0.00100324663
0.00106554561
0.00661378537
0.00701862517
0.00100628315
0.00107376591
0.00572093928
0.00722419736
0.00718224022
0.00102442877
0.00107067126
0.00519790199
0.00720066197
0.00717561693
0.0010232551
0.0010570154
0.00584324521
0.00742191243
0.00734508996
0.000987279783
0.00105973683
0.00683171555
0.00710157206
0.000960748319
0.00108999306
0.00692337901
0.00680860661
0.000954915395
0.00632217604
0.00746393243
0.000859253561
0.00107065358
0.000883554231
0.00717430968
0.00761123143
0.000962546631
0.0010441902
0.00571151422
0.00741826377
0.00730261811
0.000985531304
0.00107892863
0.00679466372
0.00677292447
0.000938408384
0.00593575949
0.00753418763
0.000987459004
0.00105060365
0.00667901618
0.00715083783
0.00100222212
0.00104766334
0.00574774477
0.00767868022
0.00752775668
0.000918897233
0.00105733426
0.0010087671
0.00713759237
0.00737009845
0.000856732686
0.00109894199
0.00096738638
0.00631237241
0.00783348248
0.00770188403
0.000974170485
0.00103419042
0.00552262714
0.00734635042
0.00725486445
0.000995486437
0.0010692248
0.00487641985
0.00721656802
0.00716056924
0.000993198335
0.00106950191
0.00527599267
0.00724155676
0.00717866717
0.000987664837
0.001069959
0.00503173687
0.00722276181
0.00717511324
0.000985434231
0.00106165588
0.00546208719
0.0073423997
0.00728293484
0.000968646092
0.0010616981
0.00656945059
0.0070633623
0.000967004096
0.00106252572
0.00571119185
0.00737603979
0.00731767634
0.000962010389
0.0010598976
0.00654961486
0.00706023435
0.000960011527
0.00106336617
0.00567851099
0.00737065259
0.00731516484
0.000956323519
0.00106132594
0.00652610684
0.00702855831
0.000953783208
0.00107102834
0.00554531119
0.00726360217
0.00723086174
0.000965238639
0.00105937162
0.00534453642
0.00733723004
0.00729348811
0.000950031259
0.00106853242
0.00648551748
0.00691348538
0.000947033675
0.00110290045
0.00546231309
0.0067370098
0.0073126053
0.00729164228
0.000882469453
0.00109692744
0.00104221277
0.00657436509
0.00730944749
0.000910472697
0.00103365732
0.00599728168
0.00758267346
0.00754236057
0.000918666573
0.00104146578
0.00655476328
0.00718819996
0.000911756273
0.00104697213
0.00587001121
0.00751682245
0.00747631027
0.000908901848
0.00104791917
0.00663546795
0.00712704442
0.000884764083
0.00106929384
0.00660078946
0.00701193872
0.000906427018
0.00107729321
0.0055101102
0.00714821673
0.00713203758
0.00094315188
0.00107318437
0.00528210448
0.00720757226
0.00719343168
0.000929877951
0.0010612223
0.00547834214
0.0073119833
0.00729634136
0.000919456982
0.00106082969
0.00645105518
0.0070425148
0.000901405446
0.00106678293
0.00558125537
0.00728197916
0.00727386689
)
;

boundaryField
{
    closed
    {
        type            calculated;
        value           nonuniform List<scalar> 0();
    }
    open
    {
        type            calculated;
        value           nonuniform List<scalar> 0();
    }
    sides
    {
        type            empty;
    }
    procBoundary3to2
    {
        type            processor;
        value           uniform 0.00707833927;
    }
    procBoundary3to4
    {
        type            processor;
        value           uniform 0.000919137416;
    }
}


// ************************************************************************* //
