/*--------------------------------*- C++ -*----------------------------------*\
| =========                 |                                                 |
| \\      /  F ield         | OpenFOAM: The Open Source CFD Toolbox           |
|  \\    /   O peration     | Version:  2306                                  |
|   \\  /    A nd           | Website:  www.openfoam.com                      |
|    \\/     M anipulation  |                                                 |
\*---------------------------------------------------------------------------*/
FoamFile
{
    version     2.0;
    format      ascii;
    arch        "LSB;label=32;scalar=64";
    class       volScalarField;
    location    "0.00076";
    object      prefDPV_H2;
}
// * * * * * * * * * * * * * * * * * * * * * * * * * * * * * * * * * * * * * //

dimensions      [1 -1 -1 0 0 0 0];

internalField   nonuniform List<scalar> 
531
(
-3.07015235e-05
-3.15579139e-05
-3.15289661e-05
-3.09020251e-05
-3.05793552e-05
-3.06310433e-05
-3.15521135e-05
-3.15502352e-05
-3.07923827e-05
-3.06644783e-05
-3.15789739e-05
-3.15453814e-05
-3.08923402e-05
-3.05328247e-05
-3.06127534e-05
-3.15624799e-05
-3.15528748e-05
-3.09261333e-05
-3.07736893e-05
-3.06898466e-05
-3.06979695e-05
-3.15649931e-05
-3.15478533e-05
-3.09009054e-05
-3.06885532e-05
-3.07089424e-05
-3.15631934e-05
-3.1536211e-05
-3.09019173e-05
-3.05892267e-05
-3.06863116e-05
-3.15551274e-05
-3.1549827e-05
-3.15408418e-05
-3.09087247e-05
-3.05328363e-05
-3.05440134e-05
-3.15551339e-05
-3.15274536e-05
-3.09036683e-05
-3.04557864e-05
-3.06054461e-05
-3.15242215e-05
-3.15458801e-05
-3.15084175e-05
-3.09080105e-05
-3.04541495e-05
-3.06188766e-05
-3.15139938e-05
-3.15358672e-05
-3.05470923e-05
-3.04313225e-05
-3.15255292e-05
-3.15293452e-05
-3.06400333e-05
-3.05061829e-05
-3.15356746e-05
-3.15090376e-05
-3.09108595e-05
-3.03780475e-05
-3.05540392e-05
-3.1521712e-05
-3.15440585e-05
-3.15171785e-05
-3.09061775e-05
-3.04666705e-05
-3.06140494e-05
-3.15263987e-05
-3.15354585e-05
-3.09197306e-05
-3.06771475e-05
-3.07474773e-05
-3.15413371e-05
-3.15168372e-05
-3.09066443e-05
-3.04271228e-05
-3.05149044e-05
-3.15237886e-05
-3.15337165e-05
-3.15277827e-05
-3.07039877e-05
-3.04475835e-05
-3.15393741e-05
-3.15184208e-05
-3.0908621e-05
-3.03655821e-05
-3.05326612e-05
-3.15186282e-05
-3.15374259e-05
-3.15248398e-05
-3.09175824e-05
-3.06486327e-05
-3.05446342e-05
-3.05571445e-05
-3.15282967e-05
-3.1510845e-05
-3.09101919e-05
-3.05403773e-05
-3.05505052e-05
-3.15029028e-05
-3.15457728e-05
-3.08057331e-05
-3.06417246e-05
-3.15034286e-05
-3.15420528e-05
-3.06929116e-05
-3.06600949e-05
-3.1506613e-05
-3.15361453e-05
-3.15170546e-05
-3.09223224e-05
-3.05570092e-05
-3.04001554e-05
-3.0401852e-05
-3.14997161e-05
-3.15140647e-05
-3.15105821e-05
-3.07810674e-05
-3.04003492e-05
-3.14997281e-05
-3.15157492e-05
-3.15129794e-05
-3.15196619e-05
-3.09112702e-05
-3.06007354e-05
-3.07265323e-05
-3.05371465e-05
-3.05388039e-05
-3.14920408e-05
-3.15063145e-05
-3.09262299e-05
-3.04960123e-05
-3.05287011e-05
-3.14985583e-05
-3.15191844e-05
-3.15165832e-05
-3.0735951e-05
-3.05044958e-05
-3.15002803e-05
-3.1530089e-05
-3.15213779e-05
-3.09242419e-05
-3.04686227e-05
-3.03773282e-05
-3.03762021e-05
-3.14821846e-05
-3.15160195e-05
-3.14963224e-05
-3.09243299e-05
-3.03716384e-05
-3.04861471e-05
-3.14850042e-05
-3.15120565e-05
-3.15074119e-05
-3.15191015e-05
-3.09310753e-05
-3.04550535e-05
-3.02763459e-05
-3.02795941e-05
-3.14530535e-05
-3.1502653e-05
-3.14755778e-05
-3.15065358e-05
-3.09974152e-05
-3.06390517e-05
-3.06450635e-05
-3.03913187e-05
-3.0395029e-05
-3.14723291e-05
-3.15138307e-05
-3.15034877e-05
-3.15171358e-05
-3.09201708e-05
-3.06617609e-05
-3.07517462e-05
-3.05107568e-05
-3.05141741e-05
-3.14716563e-05
-3.15159642e-05
-3.14997755e-05
-3.15143268e-05
-3.09238372e-05
-3.06332954e-05
-3.07175832e-05
-3.03996043e-05
-3.0403011e-05
-3.1458899e-05
-3.15011966e-05
-3.15003673e-05
-3.07381696e-05
-3.04527631e-05
-3.14617435e-05
-3.15087269e-05
-3.1498542e-05
-3.06546327e-05
-3.0250111e-05
-3.14713299e-05
-3.1503003e-05
-3.06815551e-05
-3.04936407e-05
-3.14832892e-05
-3.15037135e-05
-3.0916855e-05
-3.0473488e-05
-3.04770494e-05
-3.14800532e-05
-3.15317911e-05
-3.08298429e-05
-3.06109072e-05
-3.14929614e-05
-3.15252655e-05
-3.09418881e-05
-3.05815064e-05
-3.05794517e-05
-3.14873398e-05
-3.15249571e-05
-3.09108837e-05
-3.04701001e-05
-3.05256311e-05
-3.15055042e-05
-3.15324229e-05
-3.15280895e-05
-3.09108644e-05
-3.06189255e-05
-3.04621554e-05
-3.04644376e-05
-3.14849484e-05
-3.15293898e-05
-3.15264636e-05
-3.09119237e-05
-3.05279812e-05
-3.0529026e-05
-3.14884893e-05
-3.15235102e-05
-3.093209e-05
-3.06545634e-05
-3.14941885e-05
-3.15104714e-05
-3.09190343e-05
-3.03768065e-05
-3.03816874e-05
-3.14830401e-05
-3.15071921e-05
-3.15123972e-05
-3.1511806e-05
-3.09248547e-05
-3.04216388e-05
-3.02236844e-05
-3.02258175e-05
-3.14504754e-05
-3.14973259e-05
-3.14938409e-05
-3.1502474e-05
-3.09247155e-05
-3.04330529e-05
-3.04375357e-05
-3.14850927e-05
-3.15070061e-05
-3.09142389e-05
-3.04075507e-05
-3.04193689e-05
-3.14798703e-05
-3.15340157e-05
-3.07823845e-05
-3.05759852e-05
-3.14906616e-05
-3.15417643e-05
-3.07433993e-05
-3.06111303e-05
-3.14983707e-05
-3.15414632e-05
-3.08102152e-05
-3.06615479e-05
-3.15135334e-05
-3.15322705e-05
-3.09069938e-05
-3.06009214e-05
-3.06009553e-05
-3.1518599e-05
-3.15262764e-05
-3.09033435e-05
-3.05782759e-05
-3.05779967e-05
-3.15230003e-05
-3.15471034e-05
-3.08734615e-05
-3.06650872e-05
-3.15351001e-05
-3.15430695e-05
-3.08985953e-05
-3.05596158e-05
-3.05579912e-05
-3.15412014e-05
-3.15334271e-05
-3.0891321e-05
-3.06215233e-05
-3.08990879e-05
-3.15214887e-05
-3.15569566e-05
-3.15246719e-05
-3.09235634e-05
-3.07339965e-05
-3.0719175e-05
-3.04500667e-05
-3.04543134e-05
-3.14933534e-05
-3.15317412e-05
-3.06585456e-05
-3.05678084e-05
-3.15040532e-05
-3.15249451e-05
-3.15166096e-05
-3.0704327e-05
-3.04716502e-05
-3.15309385e-05
-3.15091152e-05
-3.09128033e-05
-3.04423457e-05
-3.04640607e-05
-3.15128024e-05
-3.15258908e-05
-3.08683187e-05
-3.06486553e-05
-3.15346091e-05
-3.15174362e-05
-3.09069164e-05
-3.0510964e-05
-3.05279753e-05
-3.15283822e-05
-3.15332811e-05
-3.08577382e-05
-3.06516327e-05
-3.15460219e-05
-3.15235755e-05
-3.09026607e-05
-3.05098866e-05
-3.05284069e-05
-3.15341927e-05
-3.15356206e-05
-3.08569891e-05
-3.06554914e-05
-3.15524757e-05
-3.15236616e-05
-3.09005363e-05
-3.05154837e-05
-3.05393946e-05
-3.15363179e-05
-3.15383718e-05
-3.08591424e-05
-3.06740191e-05
-3.15547373e-05
-3.15269027e-05
-3.09043317e-05
-3.05787749e-05
-3.05984903e-05
-3.15492493e-05
-3.15227453e-05
-3.09127216e-05
-3.05899182e-05
-3.06011771e-05
-3.15588135e-05
-3.15143504e-05
-3.08986268e-05
-3.04851657e-05
-3.05242233e-05
-3.15264921e-05
-3.15439581e-05
-3.07598235e-05
-3.06362764e-05
-3.15316427e-05
-3.15383973e-05
-3.07175469e-05
-3.07704522e-05
-3.153677e-05
-3.09446479e-05
-3.04646772e-05
-3.15019213e-05
-3.14919536e-05
-3.14888997e-05
-3.06018026e-05
-3.03912525e-05
-3.15536824e-05
-3.14856575e-05
-3.09053093e-05
-3.04857182e-05
-3.05433991e-05
-3.15256745e-05
-3.15393767e-05
-3.07768263e-05
-3.07867596e-05
-3.15382793e-05
-3.09063312e-05
-3.0432443e-05
-3.15592972e-05
-3.15078506e-05
-3.08297003e-05
-3.06115208e-05
-3.15546125e-05
-3.15004748e-05
-3.09164948e-05
-3.0362662e-05
-3.04367082e-05
-3.15214088e-05
-3.15069577e-05
-3.15050632e-05
-3.06183518e-05
-3.05108791e-05
-3.15338721e-05
-3.15318674e-05
-3.14892536e-05
-3.09213596e-05
-3.02876345e-05
-3.03555134e-05
-3.15296235e-05
-3.15047735e-05
-3.0922951e-05
-3.05199585e-05
-3.05635495e-05
-3.15382661e-05
-3.15042897e-05
-3.09266732e-05
-3.05813853e-05
-3.06079797e-05
-3.15512376e-05
-3.15152238e-05
-3.09127667e-05
-3.05701456e-05
-3.05999626e-05
-3.15527219e-05
-3.151936e-05
-3.09164189e-05
-3.0579222e-05
-3.0601644e-05
-3.15583207e-05
-3.15189488e-05
-3.09043547e-05
-3.05228886e-05
-3.05526154e-05
-3.15406939e-05
-3.15404556e-05
-3.08797047e-05
-3.06534376e-05
-3.1558616e-05
-3.15223317e-05
-3.09042619e-05
-3.05069014e-05
-3.05365047e-05
-3.15356479e-05
-3.15390315e-05
-3.08888805e-05
-3.06548207e-05
-3.15550702e-05
-3.15204627e-05
-3.09046839e-05
-3.05091797e-05
-3.05377597e-05
-3.15319936e-05
-3.15418973e-05
-3.08997418e-05
-3.06695562e-05
-3.15486109e-05
-3.15260445e-05
-3.09108728e-05
-3.05599682e-05
-3.05757685e-05
-3.15489338e-05
-3.15168421e-05
-3.09080119e-05
-3.05248124e-05
-3.05476979e-05
-3.1528942e-05
-3.15436091e-05
-3.09184567e-05
-3.07224984e-05
-3.15344005e-05
-3.15404888e-05
-3.09224668e-05
-3.08031923e-05
-3.05364611e-05
-3.0547686e-05
-3.15303589e-05
-3.15249995e-05
-3.15181321e-05
-3.08775438e-05
-3.0538589e-05
-3.15411396e-05
-3.1510138e-05
-3.09127838e-05
-3.040752e-05
-3.04312543e-05
-3.15078702e-05
-3.15281497e-05
-3.08870693e-05
-3.05951563e-05
-3.15269633e-05
-3.15100351e-05
-3.09137811e-05
-3.04386516e-05
-3.04624809e-05
-3.15038108e-05
-3.15387155e-05
-3.08501276e-05
-3.06244566e-05
-3.15088839e-05
-3.15405837e-05
-3.08659358e-05
-3.06770955e-05
-3.15245716e-05
-3.15187996e-05
-3.09151211e-05
-3.06127613e-05
-3.06214247e-05
-3.15238334e-05
-3.15179296e-05
-3.09185838e-05
-3.05855356e-05
-3.05929269e-05
-3.15312449e-05
-3.15169491e-05
-3.09080151e-05
-3.0536311e-05
-3.05464259e-05
-3.15150884e-05
-3.15448625e-05
-3.09340295e-05
-3.0663296e-05
-3.15237323e-05
-3.15303009e-05
-3.09098612e-05
-3.05512059e-05
-3.05562394e-05
)
;

boundaryField
{
    closed
    {
        type            calculated;
        value           nonuniform List<scalar> 0();
    }
    open
    {
        type            calculated;
        value           nonuniform List<scalar> 0();
    }
    sides
    {
        type            empty;
    }
    procBoundary3to2
    {
        type            processor;
        value           uniform -3.06466184e-05;
    }
    procBoundary3to4
    {
        type            processor;
        value           uniform -3.15260444e-05;
    }
}


// ************************************************************************* //
