/*--------------------------------*- C++ -*----------------------------------*\
| =========                 |                                                 |
| \\      /  F ield         | OpenFOAM: The Open Source CFD Toolbox           |
|  \\    /   O peration     | Version:  2306                                  |
|   \\  /    A nd           | Website:  www.openfoam.com                      |
|    \\/     M anipulation  |                                                 |
\*---------------------------------------------------------------------------*/
FoamFile
{
    version     2.0;
    format      ascii;
    arch        "LSB;label=32;scalar=64";
    class       volScalarField;
    location    "0.00128";
    object      prefDZ_H;
}
// * * * * * * * * * * * * * * * * * * * * * * * * * * * * * * * * * * * * * //

dimensions      [1 -1 -1 0 0 0 0];

internalField   nonuniform List<scalar> 
531
(
0.000110071516
0.000107688074
0.000106147879
0.000104440897
0.000104461552
0.000109912172
0.000110044332
0.0001099215
0.000110088222
0.000110044155
0.000106748693
0.000105042884
0.000109987305
0.000110095818
0.000106160152
0.000105538513
0.000109944603
0.000110123105
0.000105985688
0.000105832338
0.000109984259
0.000110136405
0.000110082187
0.000107088476
0.000105520189
0.000110040836
0.000110162596
0.000106295627
0.000106148725
0.000110030091
0.000110219562
0.000110068428
0.000107880278
0.000105482374
0.00010553605
0.000110098193
0.000110153305
0.00010804715
0.000105938693
0.000105965715
0.000110131385
0.000110239811
0.000110145754
0.000107842296
0.000106233785
0.000106271195
0.000110114891
0.000110245488
0.000107948049
0.000106749619
0.000105421878
0.000105472277
0.000110003204
0.000110233774
0.00011006736
0.000110283788
0.000106982666
0.000106692572
0.000110068201
0.000107843551
0.000105048765
0.000110105845
0.000110192768
0.000107321437
0.000106282385
0.000110077129
0.000110260898
0.00010730964
0.000106526263
0.000110088107
0.000110291413
0.000107420838
0.000106591305
0.000110111816
0.000110287033
0.000107697294
0.000106626102
0.000110151192
0.000110221298
0.000107826608
0.000106188097
0.000106214758
0.000110100288
0.000110279765
0.000107912656
0.000106633911
0.000105389063
0.000105426469
0.000109991433
0.00011024066
0.000110097366
0.00011027739
0.000110248597
0.000107848027
0.000106903164
0.000105856976
0.000105878937
0.000110006044
0.000110259223
0.000106809447
0.000106046153
0.000109969707
0.000110273464
0.000106976935
0.000106275428
0.000109968553
0.000110275636
0.000107239031
0.000106511898
0.000109984435
0.000110269301
0.00010749727
0.000106649114
0.000110015624
0.000110251422
0.000107814794
0.000106667364
0.000110057365
0.000110195682
0.000107850659
0.000106124516
0.000106156238
0.00011000675
0.000110224459
0.000107885935
0.000105295383
0.00010532252
0.000110080384
0.000110239296
0.000110204549
0.000107922859
0.000106196204
0.000110032
0.000110191874
0.000107781729
0.000106168193
0.000110008262
0.000110136113
0.000107908511
0.000104959591
0.000105029712
0.000109938774
0.000110178824
0.000110140054
0.000107188126
0.000105599956
0.000109931594
0.000110175177
0.000106149279
0.000105822344
0.000109903736
0.000110216795
0.000110159324
0.000107633392
0.000105811766
0.000109966342
0.000110176947
0.000107597568
0.000106572377
0.000109970891
0.000110175749
0.000107942377
0.000107024783
0.000106039184
0.000106059339
0.000109901078
0.000110182929
0.000106795178
0.000106456151
0.000109920068
0.000110216815
0.000110174174
0.000107730188
0.000105985949
0.000109990443
0.000110125494
0.000107897535
0.000105095042
0.000105154314
0.000109969114
0.000110198773
0.000110157177
0.000107198527
0.000105764562
0.000109949918
0.000110128023
0.000107719188
0.000106145513
0.000104639847
0.000104619804
0.000109750723
0.000110020083
0.000109920342
0.000110049094
0.000110053023
0.000110069278
0.000107611766
0.000105634104
0.000104381672
0.000104395179
0.000109773948
0.000110107169
0.000110016611
0.000110188969
0.000110179425
0.000107615798
0.000106149991
0.000110019183
0.000110148306
0.000107879748
0.00010562352
0.000105646396
0.000109944132
0.000110190169
0.000107918261
0.000104830416
0.000105118243
0.000110026186
0.000110206476
0.000110188247
0.000107565765
0.00010566797
0.000109985796
0.000110210768
0.000106442819
0.000106185671
0.000109977366
0.00011026269
0.000110211802
0.000107830969
0.000105456035
0.000105519629
0.000110060862
0.000110245413
0.000107756981
0.000106683508
0.000110020731
0.000110195352
0.000107894144
0.000107027065
0.000106259104
0.000106089875
0.000109967984
0.000110078928
0.000107921907
0.000104142996
0.000104597698
0.000109838454
0.000110125057
0.000109957044
0.000110147009
0.000110129083
0.000110173917
0.00010757736
0.000105465639
0.000110065312
0.000110181832
0.000107861744
0.000105383007
0.000105402079
0.000110033393
0.00011022194
0.000107863699
0.000105262051
0.0001056213
0.000110116996
0.000110268098
0.000110245879
0.000107847475
0.000106789485
0.000110157043
0.00011023502
0.000107815922
0.000107064663
0.000105847227
0.000105868736
0.000110078285
0.000110221119
0.000110246136
0.000110228293
0.000107974934
0.000106535831
0.000106654849
0.000105295662
0.000105297666
0.000110113536
0.000110241176
0.000110212998
0.000107875719
0.000106803164
0.000110158164
0.000110204835
0.000107870417
0.000107062203
0.000105572374
0.000105577382
0.000110019256
0.000110210147
0.000110139003
0.000110248937
0.00010670277
0.000106399887
0.000110035301
0.000110240981
0.000110146304
0.000107858499
0.000104756926
0.000105390262
0.000110040324
0.000110244165
0.000110150237
0.000107501329
0.000105742837
0.000105799224
0.00010466389
0.000107662094
0.000110106896
0.000110472308
0.000110210305
0.000110369671
0.000107657602
0.000105903402
0.000110190299
0.000110187022
0.000107672137
0.000106209423
0.000104886647
0.000104935898
0.00011007026
0.000110105608
0.000110190976
0.000110137791
0.000108007085
0.000105839738
0.000105850159
0.000110223701
0.000110195054
0.000107830322
0.000105224924
0.00010566521
0.000110201583
0.000110264564
0.0001102467
0.000107867231
0.000106513479
0.00011030706
0.000110247
0.000107859358
0.000106578368
0.000104957852
0.000104955352
0.000110264866
0.000110312192
0.000110277227
0.000110386516
0.000110300657
0.000107581202
0.000105955682
0.000104683713
0.000104323356
0.000108091835
0.000110501917
0.00011069443
0.000110626988
0.00011070377
0.000106038458
0.00010511092
0.00011087999
0.000110937133
0.000110967098
0.00010660202
0.000105053492
0.000111324247
0.000111372909
0.000105706691
0.000105435909
0.000111077366
0.000111452231
0.00011125694
0.000105642195
0.000104862833
0.000110764826
0.000110959918
0.000110811411
0.000106384584
0.000104164668
0.000110085737
0.000110721654
0.000110299091
0.000110706615
0.000110516043
0.000110766223
0.000110688382
0.000110873038
0.000110860709
0.000111036913
0.000111102477
0.000111314661
0.00011154284
0.000111885416
0.000112586536
0.000113633016
0.0001129785
0.000112556385
0.000111994765
0.000111638305
0.000111209561
0.000110954375
0.00011066527
0.000110540584
0.000110180607
0.000109932584
0.000109748281
0.000110073836
0.000109621638
0.000109541581
0.00010924488
0.000109314001
0.000109165468
0.000109375222
0.000108834315
0.000108702384
0.000107833302
0.000107735619
0.000106841413
0.000106729453
0.000106257509
0.000114532979
0.000113017846
0.000112711203
0.000111138477
0.000110751349
0.0001091543
0.000108645982
0.00010697663
0.00010627952
0.00010476351
0.000104880661
0.000105167409
0.000105299621
0.000105602537
0.000105746416
0.00010608016
0.000106223924
0.000115217818
0.000117134534
0.000123039952
0.000121891485
0.000137758223
0.00014428888
0.000152499765
0.000157865913
0.000164536476
0.000169346406
0.000176209778
0.000181528052
0.000189182549
0.000194986845
0.000203146622
0.0002089761
0.00021730106
0.000222922476
0.000230994544
0.000236269953
0.000243725134
0.000248363464
0.000255053171
0.000259509394
0.000266067189
0.000269914819
0.000275496241
0.000278692117
0.000283564465
0.000286292529
0.00029020771
0.000292240143
0.000295682768
0.000297356526
0.000300459404
0.000301830372
0.00030465696
0.00030575816
0.000308332166
0.000309261187
0.000311683838
0.000312188464
0.000314333172
0.000315272523
0.00031784972
0.000317508462
0.000319647849
0.000320276691
0.000323298867
0.000323785986
0.000327107359
0.000325109561
0.000326858451
0.000329824781
0.000332316539
0.000328030924
0.000330897539
0.000334483757
0.000335140196
0.000331123765
0.000333220006
0.000335641473
0.000337220706
0.000334432629
0.000335575091
0.000337906545
0.000338926335
0.000336750958
0.000337619057
0.000339782712
0.000340508759
0.000338513152
0.000339199719
0.000341316376
0.000341756393
0.000339900753
0.000340427213
0.000342518604
0.000342741593
0.000341004508
0.000341433248
0.000343498514
0.00034357804
0.000341941071
0.000342284738
0.000344271387
0.000344330533
)
;

boundaryField
{
    closed
    {
        type            calculated;
        value           nonuniform List<scalar> 0();
    }
    open
    {
        type            calculated;
        value           nonuniform List<scalar> 0();
    }
    sides
    {
        type            empty;
    }
    procBoundary4to3
    {
        type            processor;
        value           uniform 0.000110067107;
    }
    procBoundary4to5
    {
        type            processor;
        value           uniform 0.000342775593;
    }
}


// ************************************************************************* //
