/*--------------------------------*- C++ -*----------------------------------*\
| =========                 |                                                 |
| \\      /  F ield         | OpenFOAM: The Open Source CFD Toolbox           |
|  \\    /   O peration     | Version:  2306                                  |
|   \\  /    A nd           | Website:  www.openfoam.com                      |
|    \\/     M anipulation  |                                                 |
\*---------------------------------------------------------------------------*/
FoamFile
{
    version     2.0;
    format      ascii;
    arch        "LSB;label=32;scalar=64";
    class       volScalarField;
    location    "6e-05";
    object      prefDh_H2;
}
// * * * * * * * * * * * * * * * * * * * * * * * * * * * * * * * * * * * * * //

dimensions      [1 1 -3 0 0 0 0];

internalField   nonuniform List<scalar> 
3816
(
29.3946604
29.0124206
28.9166648
28.9165973
28.9165866
28.9165866
28.9165866
28.9165866
28.9165866
28.9165866
28.9165866
28.9165866
28.9165866
28.9165866
28.9165866
28.9165866
28.9165866
28.9165866
28.9165866
28.9165866
28.9165866
28.9165866
28.9165866
28.9165866
28.9165866
28.9165866
28.9165866
28.9165866
28.9165866
28.9165866
28.9165866
28.9165866
28.9165866
28.9165866
28.9165866
28.9165866
28.9165866
28.9165866
28.9165866
28.9165866
28.9165866
28.9165866
28.9165866
28.9165866
28.9165866
28.9165866
28.9165866
28.9165866
28.9165866
28.9165866
28.9165866
28.9165866
28.9165866
28.9165866
28.9165866
28.9165866
28.9165866
28.9165866
28.9165866
28.9165866
28.9165866
28.9165866
28.9165866
28.9165866
28.9165866
28.9165866
28.9165866
28.9165866
28.9165866
28.9165866
28.9165866
28.9165866
28.9165866
28.9165866
28.9165866
28.9165866
28.9165866
28.9165866
28.9165866
28.9165866
28.9165866
28.9165866
28.9165866
28.9165866
28.9165867
28.9165868
28.9165872
28.9165885
28.9165925
28.9166037
28.916633
28.9167047
28.9168679
28.9172139
28.9178986
28.919162
28.9213217
28.9247837
28.929968
28.937697
28.9467523
28.9548901
28.9773244
29.0066862
28.9831715
28.9346206
29.1084665
29.2980534
28.9145995
28.985117
28.0793144
28.5754918
38.5407791
37.8111792
28.6297311
23.8908281
28.3733767
38.1446235
38.8034119
37.9904281
25.4642756
22.0666379
29.0086402
37.9134259
38.2956928
24.5280824
24.2788117
31.2357532
37.7794342
38.4105075
23.796366
22.1958881
24.3029791
29.0591579
38.5702667
38.5742002
38.8227509
38.6389392
28.5354788
24.0033598
26.6825347
26.1326534
28.6453173
38.1976624
39.055444
27.093908
25.95666
38.2103117
38.949333
25.2347494
25.0729468
38.2892466
38.9068535
22.4948759
28.8762786
38.6887463
28.6770498
24.5020807
38.4913149
38.554146
25.343686
24.2518355
26.3419701
29.0849769
38.3630652
38.6805258
27.5919143
26.9732808
38.6703044
38.4605269
26.3750018
23.0824794
28.5319334
38.2233637
39.013513
26.4043682
26.108837
38.3131068
38.8677298
25.7309477
25.0247135
38.4370308
38.7406688
24.8852688
24.5187529
38.4933133
38.6750438
24.2295383
24.8696726
38.5385959
38.5439055
22.7337614
28.9357009
38.6563383
28.4532175
25.0897622
38.5636941
38.3456257
25.6656186
25.6282306
38.4947826
38.0642127
24.715753
25.3307169
38.4638941
37.9112701
24.0686843
25.0288139
38.4257561
37.7745664
23.5804821
24.7840241
38.3826526
37.6812178
23.2156338
24.6909655
38.3416848
37.6128191
22.9206626
25.516722
38.304241
37.5434116
21.9365647
29.2840453
38.0384183
25.3571108
24.228972
27.8549414
29.425906
38.681142
37.3926281
28.8493971
37.8360358
37.492613
24.2297955
24.9266509
26.2313071
29.0442643
38.3095896
37.3655251
27.2006128
29.6902009
38.4175841
37.0588905
26.0494127
29.0849408
38.4828791
36.8215374
24.9794869
28.5028793
38.4857662
36.6165813
24.2547134
28.1764516
38.4576317
36.4228894
23.8787937
28.0868628
38.4283418
36.2439288
23.82414
28.2636996
38.3973116
36.1895141
23.9285243
29.1719876
38.1660818
36.288683
22.2974008
29.1244168
36.5079625
27.6921437
29.7600329
38.3771962
36.3363578
25.7300378
29.8419174
38.4167824
35.8152136
24.8725505
29.7409212
38.3924729
35.4005058
24.4377502
29.6800764
38.3562508
35.1167793
24.2081654
29.7064116
38.2924296
34.9216614
23.9499158
29.9870942
38.0133899
35.2337404
21.255448
29.1594527
37.1773506
23.5413124
23.5060201
29.0253133
29.4633046
38.2720667
37.2289528
27.3259378
30.3051937
38.3775576
37.0816535
25.9266808
29.6625863
38.3805704
37.1193734
24.6945517
28.9832886
38.1324267
37.4784358
21.2616275
29.2280833
37.7442833
23.4131245
23.319702
29.1816821
29.3462475
38.3958375
38.0187459
27.3979664
29.7666255
38.5417005
37.9857473
25.9412553
28.0728578
38.5876935
38.1140947
24.754871
26.7568161
38.5704651
38.2863651
23.9710217
25.8035267
38.4329976
38.5139895
23.4504559
25.4558232
38.0922774
39.009541
20.4590681
28.9170998
38.5101111
28.3027535
25.7715579
37.9812178
38.6358322
25.9711052
25.6892534
37.8613778
39.0011165
22.5414973
28.8686842
38.4688592
29.1673093
25.885405
37.9021932
38.5321497
26.6254785
25.5542041
37.9448673
38.5479375
25.5435875
24.8724794
37.9618584
38.5061206
24.9007466
24.3490506
37.9564487
38.4785279
24.5189878
23.9529077
37.91375
38.5522971
24.0513927
23.7096281
37.9461101
38.7372431
21.7219743
28.08082
38.5559199
27.4548302
23.1744445
27.0722137
29.0951425
38.1665264
38.7818268
28.2741525
26.743753
38.4680465
38.5141804
26.9954123
22.8181551
28.526308
38.0584397
39.036601
27.5087794
26.0476085
38.119427
38.7842033
26.7500521
25.360541
38.1946806
38.6763835
26.1049105
24.8674878
38.2245972
38.6277759
25.6113638
24.5247937
38.2425432
38.5916197
25.2186803
24.3035043
38.2900299
38.5616627
24.8379857
24.1314279
38.3788082
38.5221617
24.4228869
24.0479744
38.4591556
38.3719924
24.0524411
24.1227908
38.4725224
38.1465078
23.8195512
24.4726806
38.4271515
37.8962623
23.5539682
25.5468491
38.432199
37.5608283
22.285217
29.1993457
38.1366074
26.2472645
24.4794332
27.8689455
29.0539092
38.3574448
37.1887927
27.9606548
29.5363306
38.495365
36.8600899
26.3481892
29.418175
38.5547725
36.5424058
25.0304691
28.7915665
38.5060098
36.7311261
21.7890072
21.6793984
29.0739727
38.0542818
36.6122463
25.4633276
29.8611021
38.2566556
36.477303
23.9471767
23.9353292
27.3280934
29.3336036
38.3060827
36.5482807
27.4647487
30.0886031
38.4515451
35.959821
25.9315628
30.1107314
38.5035314
35.5215528
24.8521074
30.1188139
38.3638417
35.6225572
21.7613101
21.5925913
29.229596
37.9448129
36.9119702
25.534758
30.3713598
38.3034143
36.6829498
25.5300888
29.7619521
38.3714618
36.5700782
25.1314204
29.3039945
38.3904574
36.6793099
24.7162861
28.8035213
38.3874716
36.7671459
24.3700065
28.3341315
38.3671582
36.8004482
24.0464989
27.8755824
38.3372922
36.8722472
23.758777
27.5075449
38.2744821
37.0052135
23.3936789
27.50701
38.0399474
37.3663178
20.7217876
29.356129
37.6130876
23.3881753
23.3214988
28.9865475
29.3467733
38.2305473
37.8469507
27.4674692
29.6332619
38.4154247
37.7583001
25.9600168
28.1820349
38.463629
37.8198642
24.7867584
27.2773981
38.4406157
37.9203329
23.9148538
27.6666171
38.3945105
35.2294063
23.2996485
28.8950451
38.3741195
33.7215968
23.0087592
29.1585523
38.2054266
34.2375005
22.86744
28.955314
37.8679403
34.2264679
19.5510758
29.0643576
38.7507359
25.9772913
29.0895643
38.4467878
29.3999436
27.1287647
37.7820564
38.5586242
27.1013773
26.336981
37.7778153
38.460869
25.7984345
25.5778984
37.6800014
38.4265414
24.8630464
24.699362
37.6185774
38.9062082
21.6162664
28.9598848
38.3507961
29.2586074
24.8333326
37.8892504
38.3962518
26.2146435
24.8615151
37.893431
38.4286518
25.1580583
24.3874014
37.9336949
38.3940589
24.6409329
24.0696799
37.9768946
38.3833897
24.3162189
23.8845913
38.0285008
38.3650413
24.0742455
23.8024123
38.0981453
38.3473023
23.8443852
23.767006
38.1959703
38.3241736
23.6512333
23.7530552
38.2848652
38.2588561
23.4515006
23.777435
38.2907556
38.1262249
23.2263088
23.7024096
38.2416858
38.0248699
22.9571948
23.5921349
38.1840666
38.0407142
22.517174
23.9609952
38.2371566
38.0234672
20.7173673
29.1442755
38.3380905
27.3566446
24.7675777
38.375994
37.7278861
24.9226694
25.5225495
38.3162928
37.6303454
24.1283011
26.1147859
38.3547157
37.4472792
23.0019115
28.968207
37.9549647
27.3733063
27.2080528
38.6053414
37.3731894
24.5306829
22.5580414
28.9699409
38.0239148
36.8486039
26.2080415
29.1292282
38.2327075
36.5219787
25.4523326
28.5700518
38.2935812
36.1511071
24.6147303
28.4260976
38.2986628
35.7324929
24.0845528
28.4862162
38.2809236
35.3907845
23.8793912
28.656721
38.2654914
35.1816978
23.8264418
28.8262959
38.2596198
35.1046866
23.8115011
28.9084801
38.2568118
35.1329464
23.8017167
28.8844671
38.2533495
35.2480814
23.7814843
28.7601743
38.2492338
35.4611678
23.7454675
28.5758966
38.262049
35.84126
23.7741375
28.2875125
38.2753808
36.2646116
23.7821321
27.9573448
38.2857919
36.7359442
23.7971556
27.6349268
38.2959408
37.0122112
23.8237617
27.4269653
38.3016032
37.1630944
23.8632866
27.3538073
38.3040644
37.1899704
23.8865384
27.3165381
38.3108856
37.2186847
23.8757522
27.17586
38.3171538
37.2965735
23.8855881
26.9364876
38.279484
37.4074857
23.9131865
26.5865782
38.2111717
37.5749952
23.9413965
26.1171842
38.1314948
37.784493
23.9499173
25.554527
38.0649721
38.0318012
23.8943496
25.0465138
37.9025803
38.1764003
23.9290397
24.579842
37.7308075
38.3135825
23.7287015
24.1862456
37.7627277
38.7344174
21.3562277
29.2112845
38.403606
26.348226
23.064358
27.3857279
29.0007356
37.9682031
38.7894378
27.4124092
24.6350458
29.1434515
38.3679913
38.413999
28.6276646
38.0181678
39.2502471
22.2703701
24.3574348
37.8641876
39.1670558
21.9094533
28.7175944
38.522003
28.6125748
24.6269252
38.5518183
38.4459399
25.4402819
24.7882992
38.5110431
38.3505221
24.3349527
24.4375086
38.4752457
38.1519189
23.8026524
24.2623383
38.4207908
37.9287734
23.4600499
24.292142
38.3400907
37.7111064
23.0564633
24.9397287
38.2773744
37.3731564
21.2710734
29.2445778
37.9386825
24.8423709
23.7675905
27.1751754
29.2441826
38.3204335
36.8153618
26.6318928
28.6111269
38.645134
36.5474896
28.9413659
37.5097396
36.4144727
22.173448
28.9178031
38.0637643
36.1764083
24.6859951
29.1180939
38.1715682
35.7694252
25.0461933
29.5050249
38.2581532
35.3801389
24.806818
29.6533787
38.2903663
35.0621829
24.5243998
29.6996863
38.2937395
34.8906541
24.1798448
29.8741088
38.1554499
34.8768552
22.2532878
29.1047077
36.8927571
24.1267925
24.0796714
29.221664
29.4017783
38.3669259
36.9841488
28.0157848
30.2501967
38.5022662
36.8876824
26.4444292
30.2923885
38.5529865
36.8584457
25.3289588
29.2832387
38.5498739
36.9231157
24.5313527
28.3377762
38.5189043
37.2758485
23.8912161
27.7338353
38.3160198
37.92481
21.6027745
29.2851639
38.1395486
23.7546297
23.5195662
28.8935589
29.2024177
38.4532805
38.5080802
27.7811702
29.0891544
38.6368415
38.4860695
26.1957243
27.3752128
38.6677428
38.5778253
25.1576286
26.2103637
38.5814041
38.6466668
24.5726849
25.3653429
38.3973038
38.6783226
24.0489953
25.1775581
38.1362837
38.9779434
21.186445
28.9222571
38.5855007
27.9393846
24.9877037
37.9370279
38.6829578
25.356174
24.936963
37.9590832
38.8470488
22.1485064
29.3004791
38.5375501
26.6505713
23.6951739
27.4182633
28.892927
38.0248237
38.9742845
27.7778571
26.7129368
38.0836943
39.0344871
24.5500601
28.7770136
38.579243
28.5695189
24.5842482
27.8991838
28.9026255
38.2702105
38.846039
28.9648599
27.0029955
38.446512
38.7601541
26.6472886
25.5123151
38.4900077
38.6073767
25.2663952
24.638806
38.4979693
38.3798783
24.3843444
24.2235396
38.4555403
38.1728883
23.7697993
24.4561667
38.5265551
38.0491077
22.1553571
28.9015401
38.4836119
27.8050228
26.2331642
38.659025
37.4742542
24.2508821
28.8782085
37.7765868
27.7864374
27.9074224
38.5129435
36.899157
25.6914828
28.0656953
38.4682221
36.6526306
24.6459997
27.9179461
38.4254604
36.5292209
24.039472
27.8847845
38.3991177
36.5243128
23.8048224
27.8175572
38.3684571
36.5392022
23.652932
27.7659201
38.3248735
36.5670086
23.5474441
27.8949041
38.2572676
36.2738455
23.3308713
28.9014661
37.9892552
34.9920431
20.7363419
29.1539777
36.6111219
27.3965007
29.9386264
38.0271708
33.9251796
23.4855809
29.5535031
35.9190597
27.7952379
29.6558409
38.1561808
31.5485243
23.759351
23.8773614
29.5457132
37.8460266
34.0360296
25.8631551
29.2849393
38.051517
32.521869
25.2006658
28.9850594
37.8123559
31.1538347
22.2422034
29.3160453
36.9130112
23.6308578
23.5108536
29.5454095
29.6430609
38.3228713
37.0450637
28.1110927
30.317256
38.4275282
36.5653702
26.3437568
30.4575052
38.4305779
35.7972195
25.1689431
29.7382955
38.4188274
36.0628959
24.350599
28.6018513
38.4308002
36.8668918
23.7649205
27.610624
38.4258878
36.9571514
23.4027047
27.0001663
38.4102788
37.1090769
23.2575003
26.5632813
38.3660947
37.3003899
23.2556212
26.2990571
38.2535407
37.5752207
23.017772
26.4248269
38.0631584
38.0616781
20.4076056
29.1158648
38.2146595
26.7650742
26.4489098
38.2679876
38.1875937
25.3058881
25.9830345
38.4186622
38.3361855
24.4957055
25.279391
38.4211965
38.4518504
24.13373
24.6429571
38.3740206
38.4683339
24.0404478
24.2568715
38.2416299
38.4539645
24.0720191
24.1079497
38.1501642
38.436498
24.0876657
24.1193239
38.1006908
38.4302758
24.0102809
24.1372652
38.0517531
38.5090639
23.752064
25.6936834
38.0332381
35.1200486
20.0412881
29.0447461
38.3210303
28.2376456
23.3626595
28.2204573
29.6689079
38.6747555
38.0788748
28.5762522
38.4851394
38.8030737
23.7936857
24.1766018
38.2585017
38.3270583
25.0928018
24.9659402
38.318344
37.978569
24.5046435
25.0581478
38.2938245
37.6325563
23.966544
24.9903626
38.258832
37.7163231
20.8053962
29.0432881
38.0525712
27.1214286
26.3224286
38.3134579
37.0148784
24.4481089
26.2520844
38.1004647
37.0918479
19.9096093
29.5009735
37.417669
22.4949898
22.1528493
26.2682298
29.1990774
37.9119635
38.1227005
37.1037119
25.4342646
27.1472766
37.9802158
37.1891083
22.072556
29.1945268
37.360453
24.6462138
24.6381763
29.426051
29.5228979
38.3319995
37.2003393
29.0618828
37.3148008
37.6992397
22.6171099
29.4354239
38.0360827
36.0620274
24.10237
29.8398649
38.1462778
33.3693459
24.0310828
29.1327341
38.1178732
31.5452956
23.6408395
28.7309635
38.0120452
30.3950449
23.1196265
28.5478404
37.8080206
29.4395216
21.5664817
29.2006411
31.7439684
23.850915
23.8554538
29.4957065
29.7268882
38.2233255
35.3463376
27.919037
29.3818072
38.3385232
37.8941162
30.0423231
26.0581892
28.6257723
38.0264068
30.5598017
24.5731794
28.6319364
37.8368073
29.4535877
22.8938669
30.7734434
33.2500966
27.4045337
29.1997977
38.1707868
31.5833476
25.2170692
28.8862826
38.1596303
30.9380996
24.3835693
28.8292496
38.1683798
31.1902862
24.0278835
28.9485039
38.208099
32.0911434
23.8471001
29.3656044
38.2681902
33.8863531
23.7783336
28.9805068
38.3303374
36.9001209
23.7646129
27.0148025
38.3682378
38.0359605
23.8890977
26.0108787
38.3674541
38.2561961
24.0002431
25.6411572
38.3262648
38.4377865
23.7612753
26.5268991
38.3607868
33.9010458
22.969638
21.3689313
28.7756365
37.8543677
38.9481568
24.7163322
25.4037756
38.1459129
38.6175226
24.6070746
24.3873319
38.2262131
38.4684063
24.1725101
24.0432582
38.2547783
38.3492524
23.8190091
23.8518889
38.2718496
38.2768111
23.6657865
23.7622782
38.2861344
38.212911
23.5375547
23.7047186
38.2778164
38.13575
23.3753046
23.6249071
38.2387849
38.0678572
23.1758952
23.4505466
38.1815319
38.1316297
22.6643084
23.2555723
38.3080272
38.2926016
20.8440749
28.9741746
38.4379633
27.8921085
24.2654373
38.3606553
38.1508992
24.4882779
24.5873114
38.3670049
38.3434762
21.6035663
28.9159682
38.4246183
27.9684191
24.8036419
38.4201019
38.1747882
24.9065086
24.9127175
38.364147
38.2035615
24.0617145
24.4076853
38.3694845
38.2417197
23.6947513
24.1198758
38.3689231
38.298321
23.5098962
23.9247617
38.3460969
38.3781451
23.3859314
23.8087259
38.3169308
38.4968776
22.9843465
24.216523
38.3845787
38.594551
21.4005984
28.9137459
38.5882442
27.1733903
24.7890875
38.351624
38.4295221
25.0983046
24.9223328
38.3431995
38.4165869
23.6949115
24.9896089
38.3792458
38.4279401
21.5799357
28.9282429
38.50744
26.5291118
24.8742145
38.3737009
38.1571925
24.4314962
24.6854959
38.3249808
38.0428393
23.4645281
24.2989234
38.2605265
38.0199699
22.6285644
24.5266926
38.2268464
38.0088699
20.4568913
29.2758599
38.2546824
25.8324925
24.8810821
38.19484
37.4369239
22.9923687
23.1206488
38.2752643
36.6210866
22.4317764
36.7059238
37.7566972
22.3272602
25.9694906
37.6826836
37.7331691
24.9676892
26.269383
38.1291812
37.7816393
23.8841972
26.4304442
38.3032148
37.8431971
21.781221
29.2631908
38.3790586
25.4244867
24.6903816
28.288907
28.8819817
38.4685369
38.0671527
27.4287934
29.1362243
38.0106874
29.2660855
29.363696
38.6122058
38.0334148
25.6761567
27.5666264
38.6127503
37.9792733
24.4387151
27.3775593
38.5241196
37.9123951
23.1205229
28.9795209
38.2780592
25.6658599
25.3135747
28.8893235
28.9670178
38.4583732
37.9440007
27.3386674
28.9307189
38.5639169
37.8147916
25.5032441
27.4269613
38.5888319
37.7754175
24.4259437
26.5527669
38.5760784
37.8057502
23.7413652
26.0701609
38.5460512
37.8920479
23.0114277
26.6334597
38.4632849
38.0108552
21.0882667
28.9218772
38.1623169
26.5957834
26.6082931
38.4655736
38.157475
23.0327383
28.9453299
38.2091139
26.6747945
26.6768429
38.4502573
38.1121958
25.2202065
26.0786845
38.4602343
38.1289661
24.2475558
25.5616893
38.4207965
38.2337258
23.4434836
25.8894843
38.3772298
38.4225161
21.7838529
29.0376953
38.5751364
26.4402579
25.4837414
38.2352994
38.5293322
24.4197029
25.6578675
38.2924526
38.7095766
21.461426
29.3596116
38.7086408
25.3907749
24.2505234
27.1714542
28.9997102
38.2616847
38.8830909
26.8635013
27.6260165
38.4820931
38.5424855
24.8457341
23.3776542
28.7009367
38.0946008
39.0912974
25.7492601
26.543252
38.2341418
38.9560787
25.5113572
26.290304
38.3201242
38.9696702
23.5826551
28.975837
38.6626091
26.6440048
25.1748537
28.1983502
28.8284952
38.3923678
38.7884042
26.5474746
25.8036043
28.8330519
38.379215
39.0558046
25.9726977
26.4510983
38.6295824
38.8727259
25.2347202
26.0055404
38.8136984
38.6981557
25.4414782
26.8598179
38.9216147
38.4063967
25.9583181
25.8374565
28.700183
24.564385
28.6656165
35.0420299
38.660576
37.4704277
24.9069664
24.9681697
38.5951219
38.0203223
24.1603115
25.5223523
38.51725
38.0865225
23.679513
26.5348783
38.4839342
38.0311065
22.4537542
28.9784907
38.1225734
26.5726356
26.2875288
38.437799
38.0145073
25.2928048
26.2347041
38.5378936
37.9773043
24.7586503
26.2908538
38.7022481
38.0349838
24.9169563
26.8086799
38.9085947
38.1289876
26.3206402
26.3875731
28.4597589
26.7934801
28.5072332
38.6437401
38.4887414
24.5583049
24.5611114
28.6061305
38.8015072
38.8000581
38.5541946
25.0879048
23.5540619
28.5976232
38.6274069
38.5390563
26.2646928
28.9836699
38.8533908
38.5120577
27.6533233
27.7081146
28.6111615
28.8605932
28.2798968
28.6538392
38.8616928
38.3172686
26.2179347
28.1972351
38.7721209
38.021226
25.7880809
27.868086
38.6523797
37.7761863
24.8644338
27.2145195
38.5552524
37.6383027
23.980175
27.1473427
38.3812587
37.5238643
22.6115582
29.1107238
37.3428641
26.673412
27.3435443
38.288955
37.0520829
24.7247536
27.1292737
38.1851242
36.6940333
22.7681927
26.4978933
38.0968086
36.4003514
18.1426672
17.8527983
22.4908618
21.7286198
29.0834912
37.8849547
38.2570661
37.3241598
38.0236871
35.8405869
20.6095194
27.2152857
37.8480829
37.9246768
36.7393181
23.4976175
23.4411037
28.7455377
29.4153438
38.2134089
36.9630872
27.8901399
29.9320783
38.47597
36.9364225
26.5152037
30.0251286
38.5983509
36.9633825
25.6223772
30.0577807
38.3588688
36.9439729
22.9421287
29.2404085
37.0710458
26.3006667
29.1114299
36.9146233
28.72701
30.1133319
38.2110382
37.0032173
21.6014896
21.4526572
25.3402057
25.7640413
26.2446151
29.241957
38.2152993
38.3170343
38.4855038
37.9998635
29.8620258
21.3597943
21.7307381
27.5933519
27.9152227
29.7357179
38.2345811
37.0146983
29.0846435
37.1534281
37.5434989
23.4103708
29.5782752
38.0399424
37.3490164
25.0359417
28.921914
38.3314607
37.1212838
24.889834
28.6719155
38.3987612
36.9600043
24.501843
28.2913728
38.4417416
37.024415
24.1072138
27.6826053
38.4978704
37.394889
23.8759256
26.951471
38.5507762
38.0584028
24.131006
26.6848952
38.4984696
38.3036034
24.6768571
27.1155834
38.2925598
38.2752649
21.4000166
20.8976217
25.3247585
25.3620621
26.6669128
26.9067156
29.9819672
38.4625444
38.0608715
38.7569293
38.1290906
38.8286825
38.3235216
27.5402761
21.4170628
25.7280917
25.4111351
27.639276
30.3864478
38.3880424
38.7042628
26.8571188
25.9629553
38.2246585
38.7990745
25.2153162
25.5168122
38.1960227
39.0292623
21.5607804
28.7906789
38.6639392
27.9138572
24.6206159
38.4713179
38.6108578
24.8716177
24.3109145
38.5148544
38.55865
23.8942591
23.9381322
38.4609437
38.513119
23.6901432
23.8285525
38.3147271
38.5843075
23.2081445
24.2780603
38.2853199
38.6607778
20.2996832
29.1096693
38.6086483
27.0582136
23.9325416
38.4259523
38.485302
24.7632217
24.400104
38.4513853
38.4092891
24.0840535
24.2011027
38.4584515
38.4391611
23.808953
24.115584
38.4149988
38.5416831
23.493859
24.6623109
38.5231655
38.6027412
21.6714458
28.9330599
38.7552572
27.9640228
24.9826532
38.6426773
38.3378095
25.7347463
25.172894
38.6907505
38.7032256
24.4679951
29.1261026
38.8387891
29.0624778
24.7373589
39.2470597
38.6724057
25.5655052
25.4807429
38.9557122
38.6116631
28.8509207
26.815646
27.8401788
28.0091596
26.1009912
28.826463
38.6224103
38.6314996
38.4190326
28.7276227
25.2540886
25.0560113
24.8359587
38.8720627
38.1266602
26.5039991
23.7586361
39.0023776
38.0255555
26.8047696
18.2043679
22.8211079
38.5658532
38.3306707
38.668385
38.3013716
29.1039297
22.6116319
29.9830652
38.035847
29.5103699
23.7242435
28.6425561
38.1919092
38.8658935
24.2179988
24.0856584
38.284208
38.305746
24.4247753
23.9758581
38.391361
38.3322022
24.4373508
24.0296211
38.4751013
38.3662378
24.7784861
24.3796844
38.4914672
38.3041251
24.4119528
24.2302316
38.4225485
38.2072183
23.9948877
23.8978735
38.3711828
38.1156419
23.1164093
23.8462377
38.5461234
37.9291764
21.9389169
25.3758332
38.4415602
25.748792
26.0141047
38.4482981
28.3734656
19.6336989
28.7471859
38.2559299
38.7611706
38.2417292
38.4786929
27.3366549
22.983701
26.340028
26.075443
29.434111
38.3187795
38.6389467
29.2494488
29.0202027
38.9870764
38.3614328
28.4195414
24.7857421
28.6533017
38.5729996
38.7815833
25.9775282
25.2449414
38.7031929
38.6764091
24.4102983
24.4685904
38.7093032
38.7513726
22.4713481
28.7095554
38.6967794
28.0557466
25.3375361
38.7111647
38.4686784
24.0735119
22.4818139
26.0581611
25.8815425
29.5118989
38.1525648
38.3351135
38.2195892
38.4889638
25.1713419
23.7322307
27.6635897
29.1158557
38.3868761
39.0118292
26.7279304
28.3929258
38.1684295
38.4393599
22.4720185
29.2098856
38.5124171
25.7442319
23.929884
29.4677528
29.3902209
38.3957965
36.4442226
27.7858112
29.1564696
38.433659
30.8226991
25.8765008
28.9138044
38.4273043
28.7804542
23.7677541
29.0664667
29.9663912
24.2723933
23.7806072
28.9485464
34.286535
38.153359
37.9759175
37.9336743
28.6036537
24.6476121
25.9947337
27.3641496
28.7785722
38.8157053
38.201892
28.6687267
27.7027927
29.3703384
37.9984847
29.2917977
25.7295504
30.5076521
31.9268578
28.2844342
28.9819393
38.2486818
30.7694629
26.031448
28.816204
37.9620945
30.8299025
23.1230199
29.1225038
33.0788755
27.6392297
29.3719009
38.409352
33.4692797
25.3636943
29.5700677
38.4560116
34.4170042
24.7391485
29.8401121
38.3363358
34.7734111
21.3948298
21.3402739
29.0214523
37.9455759
36.8610206
25.2003208
29.7191337
38.4065038
36.9190486
25.3000386
28.964665
38.5229826
37.1352744
25.258368
28.9473772
38.4070897
37.3930357
23.7567351
29.0067951
37.4590827
27.9010339
28.4352258
38.3975833
37.4953973
25.4999252
27.9409055
38.3520862
37.1202703
21.1562318
21.0218079
25.0934593
23.6153429
28.9813296
37.8871071
37.9339808
37.8347786
37.0493381
20.5171674
20.4889117
23.205283
29.3942594
38.1464113
37.7830423
38.123658
36.9394513
23.2766586
25.2763797
38.2105494
36.8488139
24.1485661
27.142384
38.3193024
36.9136969
25.5034899
28.3436436
38.4223627
36.9672415
25.4363433
28.4226225
38.500507
37.0027658
25.0453525
28.3220518
38.5007005
37.024652
24.4893002
28.6065971
38.3321068
37.0169529
22.2745302
29.1285187
37.2293951
23.9267791
23.9077541
28.0929417
29.2412743
38.1490803
37.1113651
24.2448828
24.1803556
28.1595365
29.4399379
38.1918404
37.1605105
24.2489837
28.9884867
37.9242181
38.1915032
37.0248072
24.7679384
27.4618276
38.2889646
36.8720753
25.335614
28.8600916
38.3823725
37.013647
24.9668287
28.5371163
38.4596415
37.189991
24.5635966
27.9847431
38.4785244
37.3539314
24.2894093
27.4407665
38.4725266
37.5205257
24.0471026
26.9503182
38.4667646
37.7108441
23.8828793
26.5730609
38.4525207
37.9990758
23.6779912
26.2360421
38.2781619
38.6149996
22.1377439
29.0432409
38.635402
27.4775066
26.3283996
38.4510666
39.1930522
23.4477524
28.8531936
38.843778
28.708825
26.4975796
28.7820569
29.0357031
28.3859854
28.084729
28.7071473
38.6141504
39.1170607
27.7494002
29.8851928
38.98782
27.6883869
26.8165225
38.3041335
38.9029299
26.3414221
26.4326677
38.4622455
38.4771796
24.4703607
22.3478156
28.9358687
38.1419282
38.7330149
25.86853
23.4498436
28.2171821
38.2702466
39.0031363
27.3079935
26.6947351
38.3091281
38.9871432
26.4566535
29.0391039
38.8152023
29.0663648
25.9960864
38.4007331
38.8139859
26.8219358
25.7399483
38.3928418
38.6789075
26.113269
25.4573664
38.3480041
38.6098537
25.851752
25.1747612
38.3929074
38.5198099
25.577542
24.5041005
38.5849677
38.3378683
27.0877273
21.9583284
24.7257156
38.2419949
38.6860888
26.5814088
25.2810606
38.4527904
38.7643671
25.8522967
24.7861899
38.6652282
38.8541794
25.9143383
24.993111
38.9968461
38.965706
28.6617473
27.6961212
28.6302642
28.5518215
26.7743531
27.024863
38.8564405
38.9602395
28.9326646
28.8902616
31.4331568
29.6813575
24.214333
25.1717991
38.4698896
38.6136796
29.191532
25.823668
38.8191921
38.596725
29.096032
25.3668968
24.4632343
24.4595862
38.2784853
38.5106639
29.4268634
28.2004368
38.7643605
38.8000675
38.4203722
28.5948366
28.1293396
28.4870821
27.6979084
26.7481251
38.8777459
38.8053252
29.1825624
24.3292389
22.3347727
22.3718845
38.2758912
38.1146138
38.2262313
38.1936537
29.055393
25.5433518
23.5599476
23.6959798
38.3876687
38.0139059
30.0745428
26.6962106
27.8986078
38.3303841
38.8480867
26.3392893
24.7406445
38.4902857
38.8494989
28.847783
28.0584148
38.8009173
38.9402444
28.7541286
26.7812363
28.6366302
28.6118275
27.3431896
24.5917164
21.0990707
21.1569644
37.7800002
38.010994
37.7467279
37.9869525
29.5826546
24.506381
25.5969868
37.9127061
38.6457078
28.6905148
25.0675122
37.5376736
38.5324011
27.4030527
24.9242286
37.3153704
38.4095125
27.2520785
25.0608516
37.2994771
38.4033455
27.1336266
25.195352
37.305699
38.407224
27.0146
25.3915546
37.3057858
38.4063426
26.8218975
25.7130097
37.3280838
38.449448
26.5467528
27.2785834
37.7894776
33.1474414
24.5284653
29.2526192
35.4288383
28.9531896
28.4543373
37.3340004
36.9398562
26.4051837
29.4561529
37.6784738
31.2740022
25.671749
24.8642161
25.7635558
29.4391489
37.6688585
31.503961
26.3831985
28.6139296
37.6448373
28.7827691
21.5386138
23.233194
23.4541922
28.7947513
37.3710715
38.8201371
37.9384052
39.0172643
38.6778499
28.5206737
22.41927
24.2793509
29.3087112
33.6035186
37.9501102
29.2906236
24.4056671
27.4619405
35.2128495
38.2711737
29.5486192
25.8919659
28.8853391
38.1327499
29.4721265
23.8862121
29.2074217
30.4374086
22.640633
24.5035321
32.2428679
37.9613377
38.2858577
37.5877312
28.5376957
22.1386722
25.3837842
31.088639
37.7753009
30.1629021
25.5813494
28.9338865
37.6237517
29.4163922
21.7174508
22.3735911
24.9978076
29.2054485
38.1606605
38.1348657
31.4110458
25.5390259
29.0695885
38.1903383
33.2243913
25.3088449
29.4110569
38.2695712
34.5180082
24.3784461
29.2462968
35.9269469
27.2330149
29.4901705
38.4822197
36.8747595
23.7422342
23.8072349
28.8630708
38.1898148
37.0165108
25.3182587
29.041531
38.3454963
37.1747529
25.285866
27.6595101
38.3851566
37.2639698
24.7440041
26.8847625
38.4316752
37.2963338
23.7948182
26.5767217
38.5002141
37.3555245
22.168221
27.5355447
38.1811984
23.8021103
22.694054
25.0487714
27.657833
38.8025253
38.5938057
38.8200641
38.2264883
28.906588
27.2875426
27.6400538
28.8408874
38.9411483
37.5759577
26.8960759
28.8970729
37.7804183
28.4061088
29.1308093
38.6787212
37.2813478
25.4980452
28.6416056
38.6093026
36.9437657
23.2664998
29.2961562
37.7554678
23.189286
21.7149101
23.3253376
28.4324443
38.3316755
37.5782425
38.2003972
36.3044813
23.6293224
28.1417777
38.0521905
38.2447274
36.6039954
24.8970061
27.6462907
38.3886436
36.7529628
24.2117618
24.2369982
26.2423011
29.2707771
38.4784764
36.9737984
25.7334257
25.7632839
29.0966002
38.1450678
37.1239896
26.5371709
30.0169621
38.3638414
37.0597687
25.2707382
28.5861204
38.2967181
37.3026109
23.1070473
23.0819812
24.5248138
29.5403098
38.3340377
37.7608229
22.5933365
27.5068704
38.3196221
37.5620247
38.218271
37.5388579
23.7704565
25.5121952
38.2701681
38.0822402
23.1241948
23.0959967
24.1862652
29.2636844
38.2040038
38.3752507
38.6830393
26.2944581
25.384356
38.3417337
38.6067788
26.0724615
26.1516377
38.2639505
38.6655809
24.0859431
23.4182231
24.436861
29.2842488
38.1110879
38.417962
38.479884
24.3522117
20.6795155
29.0083531
37.9562998
39.1074685
25.0153345
26.3684489
38.0423474
39.0909834
22.7433948
28.8125284
38.6421598
28.4694576
25.3510684
38.3876307
38.6528866
25.5122489
25.9226005
38.4594396
38.6609099
22.5197099
28.9329549
38.5232435
27.3835417
27.063772
38.3941353
38.0617566
23.1788324
28.9313613
38.0327963
27.2576018
28.8558136
37.8985633
25.7161173
24.4182762
27.4204199
25.8933704
29.30182
38.0782747
38.4661137
36.9491878
25.8516879
28.2124418
38.5487895
36.7622862
25.4648172
29.2731548
38.5585792
36.6535416
25.5201738
30.1148179
38.5026278
36.4478523
23.4650512
23.4095309
29.1449006
38.0438361
36.9064225
25.3849318
29.9466762
38.3984306
36.8040763
24.6028385
29.3332259
38.4020385
36.8680536
22.2271787
22.0937135
27.382887
29.3906041
37.7849627
38.3339409
36.7920124
26.337853
29.3160984
38.3996108
36.7964832
25.3106087
29.8375122
38.1298959
36.8983261
21.6762256
29.2347559
37.3372853
23.0985432
23.074216
28.9317782
29.3228316
37.5410492
38.2992178
37.1666007
26.2246324
29.4093822
38.2533483
34.9525211
20.9947705
20.8400269
26.3024762
27.5682772
31.0056884
37.1394566
38.0328481
36.4658212
26.1646694
28.700729
38.3891621
37.2176183
25.153028
28.5557894
38.3531781
37.0746939