/*--------------------------------*- C++ -*----------------------------------*\
| =========                 |                                                 |
| \\      /  F ield         | OpenFOAM: The Open Source CFD Toolbox           |
|  \\    /   O peration     | Version:  2306                                  |
|   \\  /    A nd           | Website:  www.openfoam.com                      |
|    \\/     M anipulation  |                                                 |
\*---------------------------------------------------------------------------*/
FoamFile
{
    version     2.0;
    format      ascii;
    arch        "LSB;label=32;scalar=64";
    class       volScalarField;
    location    "6e-05";
    object      prefDh_H2O;
}
// * * * * * * * * * * * * * * * * * * * * * * * * * * * * * * * * * * * * * //

dimensions      [1 1 -3 0 0 0 0];

internalField   nonuniform List<scalar> 
3816
(
89.8222836
89.8176338
89.8195727
89.8195746
89.8195748
89.8195748
89.8195748
89.8195748
89.8195748
89.8195748
89.8195748
89.8195748
89.8195748
89.8195748
89.8195748
89.8195748
89.8195748
89.8195748
89.8195748
89.8195748
89.8195748
89.8195748
89.8195748
89.8195748
89.8195748
89.8195748
89.8195748
89.8195748
89.8195748
89.8195748
89.8195748
89.8195748
89.8195748
89.8195748
89.8195748
89.8195748
89.8195748
89.8195748
89.8195748
89.8195748
89.8195748
89.8195748
89.8195748
89.8195748
89.8195748
89.8195748
89.8195748
89.8195748
89.8195748
89.8195748
89.8195748
89.8195748
89.8195748
89.8195748
89.8195748
89.8195748
89.8195748
89.8195748
89.8195748
89.8195748
89.8195748
89.8195748
89.8195748
89.8195748
89.8195748
89.8195748
89.8195748
89.8195748
89.8195748
89.8195748
89.8195748
89.8195748
89.8195748
89.8195748
89.8195748
89.8195748
89.8195748
89.8195748
89.8195748
89.8195748
89.8195748
89.8195748
89.8195748
89.8195748
89.8195748
89.8195748
89.8195748
89.8195747
89.8195747
89.8195745
89.8195739
89.8195726
89.8195696
89.8195632
89.8195506
89.8195285
89.8194886
89.8193997
89.8193357
89.8195132
89.8183238
89.8157724
89.8240496
89.8391518
89.7966743
89.7264583
89.8805886
90.0500161
89.4879111
88.3153865
88.2008355
89.2185959
92.5056771
92.525268
89.7204904
87.8700736
88.3651089
92.3977629
92.2238032
92.7725087
87.9674968
87.7583616
89.1947805
92.4124287
92.7298319
87.9256736
87.9210681
91.1419315
92.3849181
92.5739283
87.8495577
87.7383973
87.8863529
88.9790778
92.3011126
92.2295243
92.2092257
92.2577104
89.1751702
87.8546853
88.0313937
88.0382565
88.3829177
92.3300139
92.1743307
88.1116234
87.9759937
92.3877518
92.2429882
87.9621064
87.9051972
92.4368842
92.1920142
87.7308856
88.4669637
92.3725684
88.2162722
87.8861471
92.3269491
92.3132105
87.9568017
87.8641676
88.0478144
88.3246523
92.292673
92.1907649
88.1376298
88.0810732
92.2929787
92.3023882
88.0115765
87.7936069
88.6263287
92.3627841
92.1593671
88.0589157
87.987559
92.3378147
92.2389061
87.9974167
87.9088433
92.3279794
92.2779334
87.9250639
87.8707214
92.3250345
92.3005805
87.8701143
87.8978756
92.3364849
92.2580194
87.7432867
88.5136052
92.3568859
88.2014129
87.9286716
92.2366132
92.3557906
87.9817857
87.977982
92.2936736
92.4407129
87.9056942
87.9596559
92.3164131
92.500382
87.855083
87.9402234
92.3324939
92.559885
87.8180119
87.9237841
92.3470881
92.6154965
87.7914394
87.9169119
92.3601546
92.6575496
87.7707771
87.9834817
92.3815239
92.6494282
87.7012649
88.2830889
92.5545615
87.9661618
87.8821901
88.1563663
88.3075631
92.1858096
92.6816314
88.6819561
92.4513768
92.7495607
87.8810703
87.9358206
88.0408001
88.6639813
92.2895865
92.7556435
88.1127613
88.3762735
92.2852447
92.8767065
88.012875
88.2894463
92.3100035
92.9805172
87.9240876
88.2521044
92.3359588
93.0655084
87.8666729
88.233099
92.3564451
93.0494497
87.8386236
88.228655
92.3686889
92.9864379
87.8363265
88.2422468
92.3750363
92.966736
87.850702
88.3152708
92.4145793
92.9974757
87.7673395
89.241243
93.0765318
88.1569612
88.3686853
92.3164769
93.0137926
87.9917877
88.3756477
92.3503552
92.8469437
87.9231031
88.3634781
92.3727321
92.7106292
87.8905038
88.353108
92.3876681
92.6158954
87.8752074
88.3512265
92.4023119
92.5517051
87.863972
88.3729212
92.4586226
92.646937
87.6926908
89.0765187
92.9824793
87.8559294
87.8828782
88.2733069
89.3348497
92.2865178
92.9495314
88.1278207
88.5152764
92.3154891
92.9929822
88.0125182
88.3716618
92.3478693
93.00402
87.9202004
88.3113094
92.4219793
92.964193
87.6787157
89.0446988
92.8083123
87.8413326
87.8558937
88.2817446
89.3106552
92.2485741
92.6916951
88.1247203
88.3547862
92.2760193
92.6888456
88.0019047
88.225906
92.3008429
92.6594866
87.9047775
88.1226846
92.3237666
92.6200421
87.8449749
88.0450281
92.353334
92.5495991
87.8177826
87.9942568
92.4381653
92.3989603
87.5948335
89.0425998
92.5159977
88.2013509
88.0196502
92.3910913
92.4032247
88.0206704
87.9954215
92.4780461
92.3067807
87.7469897
89.1158836
92.4707174
88.2671218
88.0219214
92.4427997
92.3600101
88.0677317
87.9897971
92.4891947
92.3663108
87.9792678
87.9368851
92.5054403
92.3828188
87.9290705
87.8964029
92.5112733
92.3878465
87.9032221
87.8616624
92.5167723
92.3784537
87.8722783
87.826897
92.5302715
92.2837512
87.6814109
88.1763311
92.4643272
88.1249552
87.7923692
88.113858
88.4514888
92.323508
92.1996522
88.2047057
88.0601969
92.3840891
92.315952
88.0708048
87.7781066
88.9661855
92.397991
92.1800883
88.155807
87.9889362
92.4491711
92.2568426
88.0900347
87.9441841
92.4622052
92.2815804
88.033182
87.9080002
92.4702593
92.2950568
87.9911941
87.8823626
92.4674203
92.3037189
87.9579965
87.8662508
92.4480871
92.3099319
87.9255374
87.8537685
92.4109167
92.3198698
87.8899791
87.8475502
92.370112
92.3636268
87.857704
87.8537704
92.3445315
92.4430357
87.8389078
87.8820259
92.3452835
92.5400796
87.8187587
87.9708273
92.3674003
92.602514
87.7200978
88.3384882
92.5423335
88.0444632
87.8897934
88.1705687
88.6654313
92.2510795
92.7157912
88.1702599
88.3900545
92.2668355
92.8762208
88.033149
88.3101517
92.3035492
93.0046633
87.9228971
88.2597289
92.3418445
92.9241054
87.6811918
87.7187139
88.8657037
92.4128813
93.0764625
87.982227
88.3941064
92.3656129
93.0709432
87.8620607
87.8971138
88.1277804
89.065882
92.3042713
93.0806188
88.1325921
88.5968912
92.3157338
92.8993003
88.003719
88.4631522
92.3494849
92.750607
87.9175406
88.4387361
92.3955326
92.7941765
87.6866969
87.7338302
89.1860747
92.4308253
93.0745854
87.9935794
88.4410204
92.3572533
93.1105632
87.9822559
88.379762
92.3519359
93.088157
87.9476883
88.3472312
92.3562934
93.1003662
87.9137844
88.3103942
92.3617224
93.07205
87.886665
88.2734974
92.3684638
93.0571969
87.8621774
88.2359404
92.3756362
93.0358376
87.8416397
88.2031145
92.3871673
93.0014993
87.8216808
88.1911943
92.4408719
92.9244939
87.6387736
88.8615986
92.797071
87.8445068
87.8519771
88.2751814
89.2164926
92.2633381
92.6781342
88.1387197
88.3427761
92.2863966
92.7125496
88.0103279
88.2328767
92.3127372
92.7133159
87.9160259
88.1688329
92.3446892
92.7623873
87.8491805
88.20041
92.3772918
92.6651286
87.8026627
88.2747756
92.3907606
92.1464157
87.7839289
88.2815707
92.4175495
92.326511
87.7859433
88.268545
92.5033596
92.3288837
87.5223961
89.0783562
92.4910362
88.0104135
88.8352895
92.4628744
88.3595608
88.1258851
92.4586066
92.3770037
88.1038237
88.0686329
92.5145184
92.4499931
88.003415
88.0186424
92.5417392
92.4650594
87.940897
87.9341589
92.5768009
92.3530516
87.6811417
88.7877442
92.510086
88.2743728
87.9434547
92.4832263
92.3757217
88.0434905
87.9389478
92.5171882
92.3769233
87.9576331
87.8996939
92.5108907
92.3728086
87.9141714
87.8712688
92.4919543
92.3668329
87.8859315
87.8542561
92.4638446
92.3615121
87.8645521
87.8465779
92.4282977
92.3582002
87.8449157
87.8439678
92.3888801
92.3641271
87.8297547
87.844622
92.3595945
92.3867464
87.8159542
87.8483809
92.3595455
92.4344438
87.8006415
87.8436034
92.3715351
92.4766256
87.7835706
87.8306022
92.3868862
92.4987636
87.7503617
87.8477604
92.3979617
92.4403826
87.6036801
88.4555659
92.4737653
88.1268251
87.9147267
92.2830802
92.5598905
87.9325853
87.9773285
92.3385056
92.6125924
87.8709268
88.0192343
92.3602137
92.6121215
87.7823297
88.9172041
92.5348877
88.1271656
88.1144965
92.2541176
92.6383796
87.8914557
87.7824682
88.802255
92.3764596
92.835989
88.047614
88.274439
92.3384746
92.9903254
87.978219
88.242622
92.3575348
92.9890892
87.9083564
88.2398293
92.3791123
92.8439307
87.8661247
88.2479454
92.3934677
92.7263853
87.8505658
88.263325
92.3999646
92.6536846
87.8469307
88.2786606
92.4021826
92.6255957
87.8461265
88.2880335
92.4018484
92.6334253
87.8457204
88.2902245
92.4001385
92.6708934
87.8446457
88.2856672
92.397727
92.7408549
87.8420967
88.2775445
92.3935581
92.8640791
87.8442713
88.2626128
92.3886786
93.0003447
87.8448493
88.2447942
92.3838123
93.0601474
87.8459455
88.2240198
92.3792247
92.9845994
87.8480755
88.2080649
92.3761013
92.9399404
87.8513124
88.2026382
92.3743495
92.9284973
87.8531104
88.2001145
92.3721041
92.9157917
87.8518951
88.1890887
92.3708245
92.8907201
87.8512263
88.1694795
92.3820317
92.8568168
87.851694
88.140781
92.4034175
92.806785
87.8527855
88.1021898
92.4304465
92.7430856
87.8532319
88.0549833
92.4556388
92.6651361
87.8499205
88.0071024
92.5029104
92.6076372
87.8541786
87.9593187
92.545971
92.5514297
87.845105
87.9074644
92.5492204
92.4031989
87.6563576
88.2832983
92.5250432
88.0463045
87.7939586
88.149608
88.7804912
92.3501006
92.25395
88.1317801
87.9061736
88.7629062
92.2893128
92.3799393
88.5971498
92.5656067
92.1940852
87.7581007
87.8356986
92.49225
92.199134
87.7092821
88.6074919
92.4110239
88.2109915
87.9103072
92.2959758
92.3364549
87.9675777
87.9169612
92.3376855
92.37177
87.8802818
87.8873402
92.3518963
92.4358308
87.8389834
87.8737078
92.3598555
92.5114962
87.8148803
87.8752514
92.3711818
92.5923337
87.7867484
87.9262467
92.3952043
92.6467681
87.6496783
88.2673294
92.5876073
87.9398546
87.8436204
88.1213463
88.5875236
92.2817668
92.7725124
88.059277
88.2448827
92.2270059
92.9795555
88.5687169
92.5793515
93.0691716
87.7360582
88.2660103
92.4164341
92.9820066
87.9253959
88.2960087
92.3786104
92.8479218
87.9469179
88.3308912
92.3757755
92.7150132
87.9241865
88.3405285
92.3851635
92.6038654
87.9008655
88.3404586
92.3965068
92.5421408
87.8759175
88.3767837
92.4351728
92.5347392
87.7582541
89.100198
93.0198263
87.8912082
87.9155137
88.2807276
89.4031524
92.2664084
93.0019093
88.1752031
88.6025387
92.2895581
93.0503464
88.0439789
88.4196448
92.3197464
93.0769075
87.9532589
88.340304
92.3408116
93.071061
87.889894
88.265067
92.3555678
92.9909078
87.844485
88.2062632
92.4000954
92.8237663
87.6891291
88.7970222
92.6720091
87.8598585
87.8542384
88.2555188
89.1591987
92.2280095
92.5082983
88.1502214
88.2883243
92.246391
92.4981771
88.0154681
88.1542635
92.2745801
92.4678003
87.9313295
88.0581823
92.3093459
92.4392568
87.8885908
87.9854628
92.3537303
92.4221863
87.858735
87.9548996
92.4364775
92.3172919
87.6370561
88.878809
92.4662742
88.1709676
87.9409983
92.4244514
92.3599529
87.971284
87.9230368
92.4842045
92.269335
87.7114301
88.2890337
92.4566489
88.0635288
87.830965
88.1465098
88.6569132
92.3332676
92.1915801
88.1713223
88.0407071
92.4541943
92.1859214
87.9003285
88.684543
92.3958873
88.2041649
87.9027782
88.171437
88.7176148
92.2836094
92.1889707
88.2595085
88.0749509
92.3675752
92.2652853
88.0743402
87.9624257
92.3892304
92.326169
87.9643857
87.8976213
92.3941042
92.4033538
87.894769
87.8642148
92.3976433
92.4818749
87.8455545
87.8714814
92.4030032
92.4832054
87.7049898
88.5743355
92.4803759
88.1595871
88.0114033
92.2972981
92.6381935
87.8696498
89.0875017
92.6089258
88.1590671
88.1630438
92.2801335
92.8533851
87.9842153
88.1951878
92.3255939
92.9610957
87.9000115
88.1962209
92.3444855
93.0350859
87.8522446
88.2060181
92.3593518
93.080424
87.8359261
88.2121909
92.3719809
93.0872905
87.8276206
88.2161155
92.3843099
93.0875579
87.8239647
88.2262315
92.4017405
92.9904801
87.8163382
88.2938342
92.4667678
92.5755654
87.6535115
89.4109743
93.0956397
88.1435342
88.3722216
92.3989343
92.2151248
87.8604466
90.0522085
92.8892324
88.1726062
88.6807435
92.3937928
91.302738
87.8483263
87.8817746
89.9969795
92.4339159
92.2508888
88.0296041
88.8200355
92.4176502
91.6998698
87.9734174
88.8776977
92.4935627
91.1439657
87.7789295
89.9050866
93.0317584
87.8575786
87.9007156
88.434465
89.6816426
92.260051
92.9894252
88.187287
88.6178462
92.3033093
93.0895606
88.0425083
88.453977
92.3439902
92.8451755
87.9487006
88.3735526
92.3640915
92.9280545
87.8828374
88.2882684
92.3685465
93.0592213
87.8349206
88.2104277
92.3724354
93.0140436
87.8057312
88.158051
92.3737818
92.9579192
87.7954238
88.1191893
92.3743915
92.8878442
87.7999838
88.090948
92.3839647
92.8000581
87.7929306
88.0832394
92.4338024
92.6538486
87.5995342
89.2362924
92.5686167
88.0931558
88.0787014
92.2985875
92.534463
87.9601857
88.0427123
92.3108674
92.4655407
87.8902565
87.9805902
92.3284637
92.4116532
87.8603253
87.9243538
92.3508005
92.3914741
87.8534217
87.8905772
92.3969077
92.3912389
87.8590067
87.8812556
92.4342374
92.407991
87.8650073
87.8889103
92.4512043
92.4324877
87.8653926
87.8910352
92.4499197
92.4299155
87.8557547
88.0329122
92.4644015
92.6499605
87.5618506
88.8088154
92.4891747
88.1725419
87.8334155
88.1840197
88.3938993
92.2180052
92.3811255
88.9383313
92.4338182
92.3154421
87.8566045
87.8464974
92.4028908
92.4412928
87.9621574
87.9292049
92.3983769
92.5319511
87.9119596
87.9427912
92.3938764
92.6107248
87.8696943
87.9486522
92.4251736
92.7242894
87.6109973
89.2773212
92.555519
88.1207996
88.0488727
92.3285428
92.7717968
87.90697
88.0624458
92.4310486
92.8896761
87.5621083
88.5462647
92.7841611
87.7714391
87.7302286
88.0606457
89.6184981
92.3889335
92.278424
92.9467667
87.9869562
88.1432476
92.3995747
92.9044039
87.7478803
89.1934774
92.8100746
87.9298598
87.9644978
88.4897169
89.4086275
92.1989119
92.8180265
89.2050026
92.6509803
92.8819277
87.7943003
88.3329763
92.4368442
92.9190503
87.8834063
88.3677775
92.4264087
92.0143261
87.8745224
88.5960961
92.4545098
91.3109105
87.8460016
88.8216599
92.4968098
90.8034046
87.8132201
89.0419387
92.565638
90.3008635
87.6927715
89.8903821
91.3895274
87.8564904
87.8872018
88.4634324
90.0365323
92.3001066
92.6866349
88.1752769
89.4911264
92.3565151
92.3941056
90.6371798
88.037294
89.0580763
92.4642691
90.8884697
87.9218096
89.1598696
92.5366384
90.2990408
87.7957863
90.9221804
91.9754369
88.1402467
88.815633
92.3986415
91.3247441
87.9623145
88.9553188
92.4397536
91.0447184
87.8974399
88.9376374
92.443231
91.1565157
87.8699133
88.7806609
92.4290516
91.5315439
87.854903
88.5292395
92.405929
92.204174
87.847264
88.3001317
92.3812981
93.0230026
87.8409317
88.1643866
92.3601155
92.6682961
87.8489652
88.0711224
92.348525
92.5446402
87.8584955
88.0204089
92.3504577
92.4401138
87.8437719
88.0990884
92.3679434
92.2319285
87.7641966
87.7044592
89.1660679
92.4197769
92.2575308
87.9385029
87.9568803
92.373329
92.3459684
87.9160844
87.8906844
92.3903058
92.3824327
87.8793203
87.8709042
92.4038146
92.4027342
87.8515658
87.8586549
92.4030283
92.4138294
87.8398025
87.8512485
92.4000647
92.425525
87.8307142
87.8459581
92.4002656
92.4456884
87.8197547
87.8397911
92.4043884
92.4699353
87.8075834
87.823084
92.4147429
92.4883723
87.767127
87.7907273
92.4021871
92.3833372
87.6142299
88.6705512
92.4485202
88.1697045
87.8757492
92.3070422
92.4518247
87.9036119
87.8923198
92.3620159
92.3521369
87.6702873
88.7924183
92.4158202
88.1706889
87.9219774
92.2714671
92.4012585
87.9287215
87.9353933
92.3265048
92.4123372
87.8609062
87.8979531
92.3382308
92.4114561
87.8307788
87.8753287
92.3436196
92.4067923
87.816507
87.8574378
92.3489634
92.4004376
87.8087661
87.8419284
92.3581529
92.3863519
87.7774067
87.8648406
92.3669067
92.2972415
87.6448093
88.9214431
92.3803094
88.1077403
87.9145618
92.2792479
92.3894569
87.9443546
87.9259452
92.3274895
92.4019613
87.8319253
87.9240797
92.3585766
92.3463186
87.6587278
88.7847736
92.4085852
88.0553835
87.9212171
92.2908526
92.4703087
87.889225
87.914253
92.3376674
92.5105395
87.8164475
87.8836742
92.3663489
92.5335245
87.7537375
87.8969072
92.4014128
92.4818609
87.5849059
88.421575
92.4915949
88.0128315
87.9407673
92.3320748
92.6265221
87.7816828
87.8428457
92.3722712
92.9335371
87.7245983
92.9136035
92.593778
87.8090451
88.0287198
92.4056713
92.581932
87.9593777
88.0541747
92.3513368
92.6026571
87.8550972
88.0613337
92.374224
92.5717541
87.6821265
88.4435306
92.5018749
87.9725538
87.9037586
88.1955667
88.985484
92.2221676
92.4849756
88.1262883
89.6345374
92.5036491
88.3273965
88.3944685
92.2269516
92.5849607
87.9728658
88.1394462
92.2931327
92.6456329
87.877231
88.1272833
92.3323397
92.6272781
87.7800782
88.9303452
92.518057
87.991593
87.96162
88.2434848
89.1967269
92.2231204
92.5827339
88.1147999
88.2615181
92.2646146
92.6591783
87.9616725
88.1447142
92.2964178
92.6970484
87.8740825
88.0756499
92.3180799
92.7051775
87.8204916
88.0340855
92.3382646
92.6850711
87.7658955
88.0729729
92.3785342
92.6048354
87.6287031
88.9110626
92.6352933
88.0561685
88.0665189
92.3097788
92.5398251
87.778621
89.2331435
92.5425698
88.0670472
88.0762264
92.2801087
92.5450363
87.9463483
88.0312045
92.3083429
92.5360568
87.8693116
87.9879688
92.334147
92.5020692
87.8101867
88.006238
92.3711966
92.4007094
87.6749211
89.4293113
92.4054464
88.0599375
87.9714873
92.313293
92.3866654
87.8979183
87.9830165
92.3664247
92.2919889
87.6583842
88.2957541
92.3880738
87.9706858
87.8694724
88.1203567
88.5087448
92.2873788
92.2169404
88.082143
88.1385765
92.316192
92.3121671
87.8976546
87.8201384
88.5749007
92.3885515
92.2061781
88.00134
88.0345982
92.3566742
92.2633266
87.9744105
88.0165532
92.3708038
92.2250404
87.8132449
88.4642843
92.3652411
88.0522588
87.940215
88.187824
89.4117006
92.2472393
92.2294981
88.0424128
87.9916436
89.603756
92.2809986
92.2215634
88.0068392
88.0199665
92.2686218
92.3000004
87.9312442
87.9878277
92.2521558
92.3421322
87.9384798
88.0653724
92.2266384
92.3381269
87.9749523
88.0197477
88.3203807
87.9502323
88.29699
92.6177148
92.2031474
92.660416
87.9093539
87.9417586
92.2915773
92.5307009
87.8539016
87.970453
92.3211253
92.5202031
87.8216129
88.0484344
92.3457805
92.4732429
87.7272746
88.7875475
92.5310585
88.0571537
88.0315113
92.2796288
92.5467353
87.9504335
88.03362
92.2917135
92.5607516
87.8989932
88.0378143
92.2789699
92.5533014
87.8992045
88.0767535
92.2324266
92.4953283
88.000403
88.0479226
88.6707291
88.0706222
88.8111325
92.2662881
92.4141103
87.874
87.8801134
88.8746372
92.2377353
92.189303
92.4432604
87.9122685
87.8123367
88.6778946
92.2884372
92.4390552
88.0145972
88.2644769
92.2095833
92.439764
88.1155154
88.1334986
88.6478028
88.3412812
88.1674289
88.8521812
92.2019812
92.51584
88.0044692
88.1812805
92.2473189
92.5964588
87.97672
88.1678332
92.2782014
92.6632268
87.9085128
88.1221421
92.3131933
92.7199098
87.8446777
88.1180167
92.3581126
92.719099
87.7615135
89.4917914
92.7953634
88.0723504
88.1539594
92.3149612
92.8499064
87.9200312
88.1518524
92.3727668
92.9501042
87.7708667
88.1159985
92.4567343
93.0639262
87.4100438
87.4506582
87.7414289
87.7256847
88.4198943
92.3837639
92.3452678
92.6755981
92.4432339
92.8380735
87.6155854
88.1373257
92.4746386
92.3790693
93.0786978
87.8447751
87.8729814
88.2521056
89.1498601
92.2724469
92.9056647
88.1688397
88.5705427
92.2784653
92.9805901
88.0456881
88.4174317
92.2985099
93.0165922
87.9754169
88.4060607
92.3656015
93.0564547
87.8017971
89.4787299
93.0207394
88.0827229
89.3948197
92.9650381
88.2432057
88.5564524
92.3530951
93.0166644
87.6861901
87.7099691
87.970776
88.0106391
88.0378579
89.8077406
92.3446472
92.3350438
92.4374606
92.4910504
90.5463875
87.6673971
87.689359
88.1711107
88.1827489
89.9872726
92.2514867
92.9460353
89.0552157
92.7197581
92.8978314
87.8664461
88.3532991
92.4038736
92.931159
87.9520231
88.3159929
92.3576643
92.9831114
87.9302204
88.3010976
92.3559837
93.019734
87.8958423
88.2705665
92.3578471
93.0038272
87.8608104
88.2222133
92.3538053
92.9064677
87.8379041
88.1582319
92.3396741
92.7016488
87.857184
88.1221834
92.3265536
92.5568661
87.9105252
88.1446598
92.3778886
92.5221273
87.6617964
87.6574298
87.9753817
87.9966859
88.0817107
88.0970983
90.4435307
92.2739598
92.379444
92.259795
92.4578025
92.229163
92.4758294
88.1079849
87.6930517
87.9672419
88.0066761
88.1304599
90.7042435
92.2433582
92.345108
88.0837599
88.0074148
92.337686
92.3036005
87.9623194
87.9559145
92.3925331
92.2194395
87.6667781
88.7256315
92.3895141
88.159596
87.9024251
92.2874768
92.3339518
87.9170319
87.8747898
92.327217
92.3464451
87.8387422
87.8447977
92.3398413
92.3570014
87.8289691
87.8326834
92.3548466
92.3456175
87.8013896
87.8568078
92.3948592
92.2614307
87.5684966
88.3072583
92.3993459
88.0937457
87.8422161
92.2769027
92.3434582
87.9125017
87.8811454
92.3128164
92.3671937
87.8551658
87.8648636
92.3249093
92.3708242
87.8352939
87.8522114
92.336354
92.3557091
87.8107501
87.8876562
92.3403312
92.2735628
87.656935
88.4703882
92.3557718
88.1579179
87.9198457
92.2290007
92.3382903
87.9771607
87.9639615
92.2665918
92.4978848
87.862946
88.8281138
92.2956433
88.4514147
87.8860711
92.246841
92.3000383
87.9492361
87.9525924
92.1946319
92.2787961
88.4506431
88.0676963
88.1511033
88.1605178
88.0180364
88.2224835
92.281788
92.1547112
92.3166822
88.8912796
87.9612601
87.9152437
87.9294775
92.2496797
92.3698214
88.0227221
87.8605588
92.2138212
92.4634033
88.0579347
87.4224258
87.7515575
92.4193362
92.389809
92.3092922
92.4016527
88.2693492
87.7619252
90.5125386
92.3825503
90.1765457
87.8566064
88.2142821
92.3720835
92.3345537
87.8850111
87.8635536
92.3537808
92.3629448
87.8986044
87.8554435
92.3536048
92.3573372
87.8972418
87.8542291
92.3521542
92.3510748
87.9231605
87.8789295
92.356016
92.3724211
87.8965603
87.8668027
92.3753909
92.4081981
87.8694252
87.8418706
92.3989842
92.4430931
87.7986911
87.8407082
92.4210234
92.4587747
87.6898274
87.9714702
92.4572721
88.0049201
87.9953681
92.4869843
88.1897103
87.5389551
89.3955138
92.3922729
92.2817714
92.3471893
92.4206102
88.1254376
87.784467
88.0324884
88.028564
90.1433621
92.2474908
92.2586325
88.4013447
88.356407
92.20912
92.320092
88.1802279
87.9264623
88.3164426
92.3001165
92.3099954
88.0120664
87.9107617
92.3385105
92.3982577
87.8877646
87.8522028
92.3536716
92.3263159
87.7300411
88.5464706
92.4115749
88.1652677
87.9528201
92.3064965
92.3974709
87.8537119
87.7413174
88.0217266
88.0164605
90.0815864
92.3263179
92.4317526
92.3279721
92.4967377
87.9500783
87.8578752
88.1516214
88.8304531
92.2650897
92.3046187
88.0789709
88.2276394
92.3511429
92.6210885
87.7595983
89.0247884
92.5520351
88.0048355
87.8930902
88.3003234
89.4288838
92.2394908
93.0537894
88.1543563
89.0530522
92.3206954
90.9793653
88.0060292
89.7217939
92.4167338
89.8109124
87.8275782
89.9254089
90.5481003
87.8572344
87.873829
88.5291537
92.3862306
92.3357465
92.4414288
92.5139267
89.4613707
87.9349405
87.9934759
88.1415252
89.3077646
92.3257583
92.4139002
89.6348769
88.1583361
90.0728069
92.4751609
90.21766
88.0018926
90.799917
91.4651138
88.1957112
89.3317169
92.416191
90.984937
88.0212116
89.2000213
92.5052178
91.0261647
87.8144146
89.8617141
91.9081454
88.1422356
88.7272762
92.3705909
92.0427799
87.957711
88.5691629
92.3801207
92.3733578
87.9102983
88.5113334
92.4162119
92.5044409
87.6520537
87.7112813
89.1378159
92.4310172
93.0664175
87.9612195
88.3339787
92.334271
93.004365
87.9512694
88.2765103
92.3116728
92.9085532
87.9480647
88.2664455
92.3349644
92.7995822
87.8479795
89.150066
92.7675325
88.1684323
88.2219256
92.277456
92.7429438
87.9740798
88.1887397
92.3615167
92.8006677
87.6314922
87.6679675
87.9435175
87.864938
88.9649355
92.4337365
92.4536664
92.4658992
92.9262025
87.6129227
87.614909
87.8242482
88.4914504
92.4075609
92.4852833
92.4052213
92.9493321
87.8079029
87.993418
92.3641907
92.8980766
87.8714455
88.1432625
92.3297769
92.8604855
87.9740916
88.2359755
92.306833
92.870849
87.9625061
88.2385701
92.3081496
92.9056152
87.9283425
88.2279722
92.3238273
92.9411897
87.8882615
88.2492155
92.3765629
92.9628421
87.7428614
88.9558287
92.8936542
87.8719369
87.8834432
88.1983975
89.1321745
92.3315188
92.9384576
87.8905397
87.9221524
88.1956302
89.6764086
92.3401229
93.0057051
87.8915638
88.2794304
92.3839892
92.327271
93.1300569
87.9236932
88.1989501
92.3530622
93.0364822
87.9668841
88.3174687
92.3412747
92.9843934
87.9312443
88.2900829
92.3407876
92.9463475
87.8959462
88.2440677
92.3435555
92.9019204
87.8737698
88.1989926
92.3465017
92.8494573
87.8547393
88.1566289
92.3479101
92.7852889
87.841844
88.1191962
92.3501206
92.706631
87.8298678
88.0695004
92.3833808
92.5484645
87.7236655
89.095173
92.5063108
88.1414851
88.0465304
92.3068437
92.3863423
87.8008008
88.4206231
92.3353949
89.1339394
88.0391509
88.6862241
88.4253983
88.1860325
88.1673848
88.719853
92.2230538
92.2640342
88.1265167
90.4425113
92.274524
88.1464239
88.0644681
92.3419798
92.2825931
88.0279947
88.0434839
92.3608909
92.3252382
87.8657505
87.7422754
88.2293065
92.4217461
92.2575825
87.9944424
87.8143861
88.1751883
92.3795143
92.2000814
88.1175566
88.0372298
92.3917035
92.1871196
88.0330704
88.3019786
92.3143813
88.4288556
87.991762
92.359431
92.2523186
88.0709672
87.973596
92.4141505
92.267478
88.0178813
87.9560615
92.432749
92.2791709
87.9989856
87.9365
92.4375014
92.2971174
87.971274
87.8913968
92.4027672
92.3622661
88.0776373
87.7105255
87.8908303
92.4196471
92.2674374
88.0646845
87.9341745
92.4262865
92.2648464
87.9962161
87.8895808
92.4141456
92.261251
87.9850288
87.8996815
92.3341936
92.2147137
88.4521369
88.1167544
89.2488824
89.2679417
88.049683
88.059582
92.2578904
92.1557519
88.7199408
88.2455608
91.2475255
90.3285424
87.8815467
87.9346251
92.3487602
92.2689451
88.2743581
87.9874863
92.3477919
92.2851083
88.4682169
87.9624365
87.9040348
87.8876506
92.4378395
92.2625908
88.2912961
88.1761953
92.430966
92.1632268
92.3054383
89.3111781
88.1911371
88.9378001
88.15387
88.0383342
92.4001159
92.2670517
88.3296414
87.8822233
87.7344721
87.7414394
92.5492256
92.3848387
92.3853628
92.3507234
89.3127092
87.994864
87.8319786
87.8528198
92.521806
92.339442
90.5159759
88.0869091
88.1743823
92.398924
92.3274575
88.0412385
87.9000274
92.5103174
92.2466955
88.2363685
88.1518389
92.4365253
92.1894068
89.4654361
88.039975
88.6855369
89.0452772
88.108472
87.8925865
87.6519616
87.6465849
92.7910088
92.4271785
92.519676
92.4011776
90.0841411
87.9271693
87.9893842
92.5419371
92.3106806
88.2534452
87.9372771
92.7614811
92.3683161
88.1641897
87.942811
92.7948543
92.4007948
88.1505935
87.9609935
92.7906049
92.4213164
88.1345648
87.9763604
92.778642
92.448321
88.1180343
87.9965987
92.7684004
92.4816058
88.0961032
88.0263271
92.7534731
92.5219038
88.0641477
88.1526267
92.6051603
91.9516687
87.9218414
90.0148487
92.7333437
88.3929344
88.2617852
92.7037382
92.9473196
88.0576079
88.3886992
92.6236581
91.1703038
87.9947958
87.9225592
88.0262841
90.1678238
92.4829573
91.2747598
88.0622018
89.2986051
92.6271465
89.594499
87.6891643
87.7670627
87.8414086
89.6427765
92.6128159
92.2900145
92.5369409
92.2594596
92.4017669
88.7382275
87.7594446
87.8927401
88.3058742
92.1177448
92.3702466
89.9489836
87.9442054
88.1279691
92.6857314
92.3511202
90.2451338
88.023076
89.6403786
92.4492597
90.3075889
87.853001
89.9667051
90.8081964
87.7603251
87.8937862
91.5938283
92.4363914
92.3975985
92.6460995
89.5839761
87.7434558
87.9573344
91.0523859
92.5217462
90.6706272
88.0092817
89.4752677
92.5861399
90.3184144
87.6949813
87.7287491
87.939011
89.7573536
92.3754087
92.398451
91.2642094
87.9801832
88.6972014
92.412557
91.9599734
87.959197
88.6952412
92.389813
92.4271278
87.9045752
89.6983279
92.9069209
88.1083692
88.4012496
92.2861176
92.8541564
87.830283
87.8702028
88.8392697
92.3596903
92.8670067
87.9648285
88.2597138
92.3204216
92.8158956
87.9567444
88.1527212
92.3164442
92.775993
87.9104487
88.0943158
92.3266924
92.7492552
87.8303038
88.0713136
92.3504972
92.7200108
87.7022096
88.1290026
92.5471909
87.8406979
87.7368703
87.9247592
88.1095832
92.2337839
92.2765613
92.1898192
92.4250136
88.2283302
88.1061961
88.1119272
88.8218571
92.1924995
92.5954588
88.0626194
88.9149164
92.6200165
88.1954937
88.2539165
92.2413108
92.784367
87.9544156
88.2363763
92.3199105
92.8782985
87.7972728
88.3205843
92.6921386
87.8128054
87.676905
87.8110111
88.1825591
92.3960903
92.5379803
92.4111957
93.0239645
87.8369952
88.2007687
92.416733
92.326971
93.1022959
87.9273782
88.1837424
92.3418209
92.9759629
87.8719761
87.9136357
88.028947
88.6570968
92.2909827
92.8498096
87.9903717
88.0352751
89.2970182
92.3269416
92.8959511
88.0637079
88.3915129
92.3209085
92.9328993
87.9586861
88.262175
92.3550807
92.8702045
87.7951872
87.8253998
87.9080275
88.3574623
92.3776377
92.795888
87.7463293
88.1617439
92.3885533
92.5744613
92.3836619
92.8338681
87.8434391
88.0225661
92.3607104
92.6043526
87.7947738
87.810552
87.8865749
88.5704412
92.4155984
92.2269937
92.4746811
88.034929
87.9810261
92.3042812
92.3913673
88.0188669
88.0381754
92.3639104
92.3821222
87.8584042
87.8131741
87.903753
88.4765392
92.4637049
92.2615775
92.4548962
87.8616255
87.6172874
88.3155298
92.4769282
92.2413824
87.9517786
88.0246383
92.4529289
92.2309592
87.7624211
88.7297839
92.4305911
88.2030424
87.9669159
92.3314269
92.3385909
87.9745945
87.9974963
92.3376577
92.323141
87.7284834
89.4387166
92.4307502
88.1285988
88.0884299
92.3056771
92.5076168
87.7864292
89.0975791
92.5971762
88.1224242
88.8579367
92.5310471
87.9946379
87.9060007
88.1227556
88.0128546
89.9459402
92.356944
92.2550044
92.9897853
87.9908284
88.217929
92.3002628
93.0225826
87.9583019
88.311458
92.3095565
93.0462936
87.9651446
88.41936
92.3414144
93.0691971
87.8070252
87.865359
89.5109271
92.3926222
93.0569012
87.9733004
88.4163304
92.3572461
93.1272254
87.9003554
88.3219993
92.3868637
93.1324138
87.7200901
87.7578132
88.128203
89.8840791
92.403841
92.2818772
93.1280424
88.0415851
88.3370282
92.3355519
93.1026795
87.9670588
88.3814324
92.4172973
93.1219187
87.7153443
89.1579446
92.9477992
87.8235933
87.8333808
88.2784859
89.7657828
92.4163179
92.2758052
93.0501544
88.0387424
88.3368902
92.4059069
92.5630288
87.6348273
87.6764299
88.0578958
88.1883075
91.0229685
92.5299187
92.355355
93.0492141
88.0364864
88.2995088
92.3305886
92.948689
87.9502292
88.2900267
92.3600207