/*--------------------------------*- C++ -*----------------------------------*\
| =========                 |                                                 |
| \\      /  F ield         | OpenFOAM: The Open Source CFD Toolbox           |
|  \\    /   O peration     | Version:  2306                                  |
|   \\  /    A nd           | Website:  www.openfoam.com                      |
|    \\/     M anipulation  |                                                 |
\*---------------------------------------------------------------------------*/
FoamFile
{
    version     2.0;
    format      ascii;
    arch        "LSB;label=32;scalar=64";
    class       volScalarField;
    location    "0.0005";
    object      alpha;
}
// * * * * * * * * * * * * * * * * * * * * * * * * * * * * * * * * * * * * * //

dimensions      [1 -1 -1 0 0 0 0];

internalField   nonuniform List<scalar> 
530
(
3.51980825e-05
3.52483099e-05
3.67909465e-05
3.68300001e-05
3.68093123e-05
3.59771869e-05
3.56251228e-05
3.51251422e-05
3.51276212e-05
3.66762309e-05
3.68006807e-05
3.60466834e-05
3.5319139e-05
3.52966688e-05
3.65727226e-05
3.6834563e-05
3.63351126e-05
3.56902945e-05
3.5054032e-05
3.50636662e-05
3.66987132e-05
3.67940156e-05
3.62323283e-05
3.54042522e-05
3.53588124e-05
3.6538378e-05
3.68065142e-05
3.68003645e-05
3.57430997e-05
3.53890414e-05
3.51064092e-05
3.51085517e-05
3.66815526e-05
3.67921528e-05
3.61313016e-05
3.54112226e-05
3.53549998e-05
3.67161935e-05
3.68397518e-05
3.57633816e-05
3.53201805e-05
3.66497171e-05
3.68247963e-05
3.57635745e-05
3.52563086e-05
3.65155903e-05
3.68209168e-05
3.57368459e-05
3.52787817e-05
3.60795295e-05
3.67822325e-05
3.60978888e-05
3.52348574e-05
3.52159392e-05
3.67661377e-05
3.68329354e-05
3.56789115e-05
3.52475749e-05
3.64000692e-05
3.6787507e-05
3.59512801e-05
3.51929766e-05
3.53231703e-05
3.67993776e-05
3.68273063e-05
3.53746825e-05
3.54271674e-05
3.67978228e-05
3.68310688e-05
3.54209079e-05
3.52352901e-05
3.67684623e-05
3.67987974e-05
3.58106235e-05
3.52065141e-05
3.56755338e-05
3.68101438e-05
3.6782776e-05
3.53575094e-05
3.55129027e-05
3.68507438e-05
3.68201722e-05
3.57243859e-05
3.51268896e-05
3.57206897e-05
3.68062143e-05
3.66519041e-05
3.54005313e-05
3.56620767e-05
3.68486854e-05
3.68265803e-05
3.57110657e-05
3.5147066e-05
3.5703891e-05
3.68376416e-05
3.68362549e-05
3.57066298e-05
3.50987078e-05
3.57105313e-05
3.68050347e-05
3.65454305e-05
3.54057488e-05
3.57090097e-05
3.68516778e-05
3.68400154e-05
3.57126481e-05
3.51599033e-05
3.56910249e-05
3.68374898e-05
3.68520272e-05
3.57065313e-05
3.5159879e-05
3.57021032e-05
3.682203e-05
3.68488191e-05
3.56628628e-05
3.52287637e-05
3.57752641e-05
3.68190253e-05
3.68377237e-05
3.5688061e-05
3.52078531e-05
3.57462321e-05
3.68139658e-05
3.68351463e-05
3.56449948e-05
3.5145978e-05
3.57648912e-05
3.68037299e-05
3.6334385e-05
3.54221362e-05
3.5712822e-05
3.68403042e-05
3.68483175e-05
3.57041208e-05
3.51612323e-05
3.57020467e-05
3.68082025e-05
3.68414406e-05
3.56981931e-05
3.51632939e-05
3.57114051e-05
3.6794248e-05
3.64412503e-05
3.54673493e-05
3.57187766e-05
3.68280302e-05
3.6848013e-05
3.56942392e-05
3.51922211e-05
3.57045891e-05
3.67921796e-05
3.68356231e-05
3.56975668e-05
3.52471509e-05
3.58618368e-05
3.67976634e-05
3.61571507e-05
3.54574639e-05
3.54842583e-05
3.64849624e-05
3.66207126e-05
3.57395126e-05
3.57489953e-05
3.58391679e-05
3.59975925e-05
3.58625994e-05
3.5775265e-05
3.58058248e-05
3.58858626e-05
3.58802085e-05
3.58016491e-05
3.57913953e-05
3.58711705e-05
3.59331742e-05
3.58135058e-05
3.57442265e-05
3.58286461e-05
3.61479743e-05
3.59381873e-05
3.56003897e-05
3.57341864e-05
3.68005014e-05
3.63696411e-05
3.53456323e-05
3.57172711e-05
3.67685696e-05
3.67960186e-05
3.55682405e-05
3.52201838e-05
3.60486734e-05
3.679561e-05
3.59408151e-05
3.52710144e-05
3.56915935e-05
3.67774575e-05
3.62437863e-05
3.54343735e-05
3.5720252e-05
3.67785535e-05
3.67742865e-05
3.55463478e-05
3.5170142e-05
3.58879175e-05
3.6788278e-05
3.59927859e-05
3.53264212e-05
3.57005744e-05
3.67854897e-05
3.60147107e-05
3.53883258e-05
3.57426547e-05
3.67843721e-05
3.67357354e-05
3.55634178e-05
3.51376131e-05
3.58066131e-05
3.67819347e-05
3.58593836e-05
3.53938589e-05
3.58822797e-05
3.67861865e-05
3.64338276e-05
3.54379236e-05
3.52027477e-05
3.60389207e-05
3.6803517e-05
3.57757482e-05
3.5341327e-05
3.60053342e-05
3.67876066e-05
3.63434453e-05
3.53532121e-05
3.52701404e-05
3.64176402e-05
3.67875464e-05
3.59814557e-05
3.52451085e-05
3.52370266e-05
3.6681284e-05
3.68216975e-05
3.57612706e-05
3.52856465e-05
3.61310323e-05
3.67849686e-05
3.64527602e-05
3.52910491e-05
3.5162173e-05
3.63305109e-05
3.67832961e-05
3.60604846e-05
3.52496914e-05
3.52446758e-05
3.67602133e-05
3.68069209e-05
3.58891204e-05
3.52910771e-05
3.52869946e-05
3.67715459e-05
3.68197785e-05
3.58671712e-05
3.52836679e-05
3.53374506e-05
3.68134896e-05
3.68238021e-05
3.58367218e-05
3.5242748e-05
3.54296029e-05
3.68137028e-05
3.68569037e-05
3.57019402e-05
3.55283534e-05
3.58543745e-05
3.62269033e-05
3.58830007e-05
3.57438774e-05
3.57822764e-05
3.59092612e-05
3.58919775e-05
3.58118644e-05
3.58099661e-05
3.58412203e-05
3.58463446e-05
3.58352963e-05
3.58302013e-05
3.58329213e-05
3.58354242e-05
3.58348159e-05
3.5833631e-05
3.58336294e-05
3.58340069e-05
3.58340248e-05
3.58339151e-05
3.58338706e-05
3.58338877e-05
3.58339004e-05
3.58338953e-05
3.58338881e-05
3.58338877e-05
3.58338882e-05
3.5833888e-05
3.58338875e-05
3.58338872e-05
3.58338872e-05
3.58338871e-05
3.58338871e-05
3.58338871e-05
3.5833887e-05
3.5833887e-05
3.5833887e-05
3.5833887e-05
3.5833887e-05
3.5833887e-05
3.5833887e-05
3.5833887e-05
3.5833887e-05
3.5833887e-05
3.5833887e-05
3.5833887e-05
3.5833887e-05
3.5833887e-05
3.5833887e-05
3.5833887e-05
3.5833887e-05
3.5833887e-05
3.5833887e-05
3.5833887e-05
3.5833887e-05
3.5833887e-05
3.5833887e-05
3.5833887e-05
3.5833887e-05
3.5833887e-05
3.5833887e-05
3.5833887e-05
3.5833887e-05
3.5833887e-05
3.5833887e-05
3.5833887e-05
3.5833887e-05
3.5833887e-05
3.5833887e-05
3.5833887e-05
3.5833887e-05
3.5833887e-05
3.5833887e-05
3.5833887e-05
3.5833887e-05
3.5833887e-05
3.5833887e-05
3.5833887e-05
3.5833887e-05
3.5833887e-05
3.5833887e-05
3.5833887e-05
3.5833887e-05
3.58338869e-05
3.58338868e-05
3.5833887e-05
3.58338879e-05
3.58338877e-05
3.5833884e-05
3.58338836e-05
3.58338979e-05
3.58339022e-05
3.58338622e-05
3.58338369e-05
3.58339507e-05
3.58340736e-05
3.58338124e-05
3.58333429e-05
3.58338739e-05
3.58356955e-05
3.58349091e-05
3.58293819e-05
3.58294511e-05
3.58467729e-05
3.58482367e-05
3.58122656e-05
3.58029028e-05
3.58783548e-05
3.5922551e-05
3.57857105e-05
3.57421261e-05
3.58952203e-05
3.61751503e-05
3.58187166e-05
3.55880685e-05
3.57456091e-05
3.67815737e-05
3.61915013e-05
3.53570018e-05
3.54332518e-05
3.67226087e-05
3.67998065e-05
3.57210538e-05
3.53473652e-05
3.62890094e-05
3.68043943e-05
3.57041684e-05
3.54257607e-05
3.62948895e-05
3.68120687e-05
3.58714745e-05
3.51881491e-05
3.5486238e-05
3.67705904e-05
3.67914124e-05
3.54914606e-05
3.54656538e-05
3.67742707e-05
3.6641056e-05
3.54763027e-05
3.55623632e-05
3.68072425e-05
3.684186e-05
3.57581121e-05
3.50827052e-05
3.56724876e-05
3.67879312e-05
3.59588309e-05
3.54130378e-05
3.58072125e-05
3.68168217e-05
3.68253327e-05
3.5641838e-05
3.51043432e-05
3.5733391e-05
3.67940951e-05
3.58543825e-05
3.53964009e-05
3.58666683e-05
3.68078879e-05
3.68107394e-05
3.55293905e-05
3.50620907e-05
3.58482344e-05
3.67986854e-05
3.5793596e-05
3.53773415e-05
3.58926669e-05
3.68130734e-05
3.68145378e-05
3.55001902e-05
3.50609882e-05
3.58302156e-05
3.67904761e-05
3.66516425e-05
3.55178614e-05
3.51989194e-05
3.5879081e-05
3.67859797e-05
3.65659992e-05
3.55412366e-05
3.52462136e-05
3.5922328e-05
3.67799193e-05
3.63207293e-05
3.54518249e-05
3.51919356e-05
3.58510304e-05
3.67727746e-05
3.64716004e-05
3.54733451e-05
3.51757772e-05
3.58763187e-05
3.67817762e-05
3.58110763e-05
3.53692225e-05
3.59479497e-05
3.67879626e-05
3.62112841e-05
3.53793384e-05
3.52654182e-05
3.61559101e-05
3.68050588e-05
3.57575754e-05
3.53284791e-05
3.60364057e-05
3.68105845e-05
3.57499781e-05
3.52966544e-05
3.59395524e-05
3.67892349e-05
3.61979907e-05
3.53044617e-05
3.52735677e-05
3.64461608e-05
3.68285467e-05
3.57647965e-05
3.54170854e-05
3.58970875e-05
3.68144072e-05
3.66723123e-05
3.57169356e-05
3.52301638e-05
3.52333433e-05
3.59673297e-05
3.68218977e-05
3.58287136e-05
3.54225403e-05
3.57553703e-05
3.68047291e-05
3.68673674e-05
3.60128671e-05
3.54884715e-05
3.50528839e-05
3.5525021e-05
3.68255248e-05
3.59879133e-05
3.54084327e-05
3.58691748e-05
3.68094002e-05
3.67319549e-05
3.55349117e-05
3.5332245e-05
3.60309416e-05
3.68027322e-05
3.66507418e-05
3.55227707e-05
3.52188299e-05
3.5928257e-05
3.6807303e-05
3.64685217e-05
3.53900831e-05
3.49893116e-05
3.57947467e-05
3.6815606e-05
3.58677797e-05
3.53268239e-05
)
;

boundaryField
{
    closed
    {
        type            calculated;
        value           nonuniform List<scalar> 0();
    }
    open
    {
        type            calculated;
        value           nonuniform List<scalar> 0();
    }
    sides
    {
        type            empty;
    }
    procBoundary2to1
    {
        type            processor;
        value           uniform 3.59525196e-05;
    }
    procBoundary2to3
    {
        type            processor;
        value           uniform 3.57956697e-05;
    }
}


// ************************************************************************* //
