/*--------------------------------*- C++ -*----------------------------------*\
| =========                 |                                                 |
| \\      /  F ield         | OpenFOAM: The Open Source CFD Toolbox           |
|  \\    /   O peration     | Version:  2306                                  |
|   \\  /    A nd           | Website:  www.openfoam.com                      |
|    \\/     M anipulation  |                                                 |
\*---------------------------------------------------------------------------*/
FoamFile
{
    version     2.0;
    format      ascii;
    arch        "LSB;label=32;scalar=64";
    class       volScalarField;
    location    "0.0005";
    object      T;
}
// * * * * * * * * * * * * * * * * * * * * * * * * * * * * * * * * * * * * * //

dimensions      [0 0 0 1 0 0 0];

internalField   nonuniform List<scalar> 
530
(
323.207538
323.801479
339.059165
340.091934
339.80685
330.856034
328.236597
322.339682
322.384389
337.641558
339.616256
331.487892
324.610762
324.377623
336.587938
340.147834
334.205106
328.877098
321.476561
321.633053
337.858394
339.545903
333.218989
325.606526
325.088599
336.245329
339.789588
339.488945
329.180398
325.407643
322.1142
322.137732
337.68771
339.517765
332.267842
325.699424
325.044218
338.053936
340.116932
329.820854
324.644841
337.368838
339.908819
329.821146
323.890858
336.021446
339.83884
329.362968
324.145883
331.755162
339.318504
331.951514
323.620586
323.408639
338.848975
339.995154
328.8449
323.779026
334.868239
339.41635
330.651175
323.12883
324.654225
339.403767
339.758512
325.263559
325.869433
339.44323
339.936854
325.794346
323.631986
338.698343
339.581702
329.578123
323.287267
328.804084
339.611831
339.011717
325.067918
326.881363
340.208759
339.858567
328.973469
322.35196
329.296896
339.554209
337.380677
325.569965
328.641859
340.198338
339.937424
328.968853
322.588855
329.073208
340.034503
340.051085
328.998033
322.015813
329.069373
339.541112
336.309981
325.63101
329.204239
340.233282
340.143757
328.892776
322.745067
328.901524
340.012772
340.283265
328.923014
322.741437
328.935822
339.802482
340.152313
328.680898
323.548397
329.188833
339.837116
340.012454
328.95641
323.296397
329.002634
339.735451
339.937824
328.482023
322.570112
329.047418
339.566666
334.213787
325.836365
329.197024
340.029837
340.213376
328.829986
322.751998
329.039364
339.561269
340.076208
328.903859
322.774203
328.830328
339.380835
335.268492
326.363353
329.242482
339.843662
340.179953
328.773207
323.114043
328.900386
339.347071
339.972821
329.013133
323.759763
329.784969
339.47565
332.500916
326.235714
326.538352
335.70622
337.063506
329.120167
329.546809
329.665377
331.015573
329.836526
329.184452
329.380535
330.017713
329.967177
329.340726
329.267751
329.892097
330.430433
329.43692
329.091351
329.564671
332.414033
330.491158
327.91145
329.404848
339.350934
334.561304
324.916572
329.222951
338.971355
339.303648
327.553438
323.437366
331.463547
339.455168
330.518568
324.050914
328.810611
339.06914
333.330359
325.965861
328.975015
339.145458
338.964241
327.310107
322.851596
330.000705
339.33355
330.976341
324.71106
328.624492
339.207517
331.162491
325.432932
328.899044
339.260675
338.373225
327.52151
322.470856
329.317432
339.220725
329.82461
325.502305
329.939942
339.330105
335.182492
326.030826
323.253893
331.367665
339.574427
329.254043
324.891592
331.048464
339.375739
334.293943
325.017613
324.041941
335.048611
339.415876
330.921552
323.729813
323.667912
337.689636
339.892414
329.512302
324.236031
332.240138
339.362539
335.365346
324.294736
322.766469
334.184122
339.349478
331.615776
323.79056
323.751297
338.542754
339.71424
330.163354
324.296655
324.255128
338.880465
339.912489
329.946805
324.222177
324.847091
339.594225
339.970538
329.721212
323.73347
325.914557
339.596607
340.273262
328.967104
327.067935
329.786642
333.167232
330.012374
329.107956
329.226277
330.224091
330.068953
329.416017
329.396629
329.63867
329.678375
329.587801
329.546043
329.567149
329.586677
329.581536
329.571751
329.571626
329.574522
329.574605
329.573675
329.573285
329.573402
329.573487
329.573438
329.573373
329.573366
329.573367
329.573364
329.573359
329.573356
329.573355
329.573354
329.573354
329.573353
329.573353
329.573353
329.573353
329.573353
329.573353
329.573353
329.573353
329.573353
329.573353
329.573353
329.573353
329.573353
329.573353
329.573353
329.573353
329.573353
329.573353
329.573353
329.573353
329.573353
329.573353
329.573353
329.573353
329.573353
329.573353
329.573352
329.573353
329.573353
329.573353
329.573352
329.573352
329.573353
329.573353
329.573353
329.573352
329.573353
329.573353
329.573353
329.573353
329.573353
329.573353
329.573353
329.573353
329.573353
329.573353
329.573353
329.573353
329.573353
329.573353
329.573352
329.573352
329.573353
329.57336
329.573358
329.57333
329.573327
329.573444
329.573479
329.573162
329.572964
329.573885
329.574892
329.572804
329.569119
329.573365
329.588278
329.581844
329.538542
329.538717
329.680724
329.692362
329.41202
329.343254
329.952295
330.336349
329.240446
329.077841
330.10375
332.671177
329.491213
327.772137
328.936766
339.1118
332.827766
325.040898
325.948217
338.162332
339.377227
329.28607
324.923663
333.769862
339.437173
328.949315
325.863745
333.828547
339.736848
329.936725
323.073403
326.588416
338.891531
339.198358
326.622983
326.312349
338.960707
337.258984
326.441353
327.47025
339.461224
340.118247
329.046748
321.837997
328.550924
339.211418
330.660325
325.710897
329.326014
339.784668
339.813675
328.448324
322.077
328.759308
339.377678
329.759022
325.52341
329.830629
339.678293
339.562007
327.122448
321.579461
329.643557
339.488892
329.290158
325.307555
330.058678
339.755806
339.61955
326.785033
321.564006
329.52967
339.408656
337.361769
326.977351
323.18565
329.968951
339.370114
336.494437
327.246091
323.739138
330.344996
339.276823
334.070538
326.194813
323.108631
329.762527
339.156589
335.551659
326.445813
322.916087
329.932628
339.240136
329.455367
325.206642
330.542201
339.376582
333.017936
325.328457
323.987802
332.484652
339.594048
329.159617
324.734821
331.350426
339.656924
329.007057
324.360959
330.464487
339.397004
332.89042
324.43905
324.094484
335.322625
339.960659
329.270205
325.787279
330.137272
339.824467
337.57073
329.194217
323.55967
323.631287
330.733524
339.844788
329.555978
325.848231
328.929048
339.654727
340.594489
331.182675
326.647523
321.491245
327.058857
339.735697
330.924801
325.678016
329.885241
339.746202
338.237589
327.171308
324.757198
331.323201
339.678749
337.352062
327.04038
323.422745
330.394798
339.692872
335.532613
325.498815
320.7479
329.224718
339.737791
329.854232
324.727605
)
;

boundaryField
{
    closed
    {
        type            fixedValue;
        value           nonuniform List<scalar> 0();
    }
    open
    {
        type            zeroGradient;
    }
    sides
    {
        type            empty;
    }
    procBoundary2to1
    {
        type            processor;
        value           uniform 330.64594;
    }
    procBoundary2to3
    {
        type            processor;
        value           uniform 329.29649;
    }
}


// ************************************************************************* //
