/*--------------------------------*- C++ -*----------------------------------*\
| =========                 |                                                 |
| \\      /  F ield         | OpenFOAM: The Open Source CFD Toolbox           |
|  \\    /   O peration     | Version:  2306                                  |
|   \\  /    A nd           | Website:  www.openfoam.com                      |
|    \\/     M anipulation  |                                                 |
\*---------------------------------------------------------------------------*/
FoamFile
{
    version     2.0;
    format      ascii;
    arch        "LSB;label=32;scalar=64";
    class       volScalarField;
    location    "0.00184";
    object      p;
}
// * * * * * * * * * * * * * * * * * * * * * * * * * * * * * * * * * * * * * //

dimensions      [1 -1 -2 0 0 0 0];

internalField   nonuniform List<scalar> 
531
(
101304.363
101304.428
101304.495
101304.563
101304.628
101304.706
101304.788
101304.867
101304.939
101305.021
101305.103
101305.183
101305.257
101305.339
101305.419
101305.508
101305.586
101305.672
101305.753
101305.846
101305.939
101306.02
101306.109
101306.198
101306.288
101306.368
101306.456
101306.544
101306.631
101306.721
101306.801
101306.888
101306.973
101307.055
101307.152
101307.245
101307.321
101307.409
101307.497
101307.584
101307.67
101307.749
101307.834
101307.916
101307.994
101308.086
101308.176
101308.251
101308.334
101308.408
101308.498
101308.586
101308.673
101308.741
101308.821
101308.901
101308.974
101309.062
101309.131
101309.209
101309.281
101309.359
101309.428
101309.505
101309.577
101309.648
101309.712
101309.777
101309.855
101309.911
101309.979
101310.04
101310.106
101310.161
101310.225
101310.28
101310.343
101310.401
101310.451
101310.508
101310.565
101310.613
101310.667
101310.714
101310.765
101310.802
101310.852
101310.901
101310.952
101310.993
101311.022
101311.061
101311.1
101311.137
101311.172
101311.197
101311.23
101311.263
101311.286
101311.317
101311.339
101311.359
101311.377
101311.402
101311.418
101311.431
101311.443
101311.452
101311.469
101311.471
101311.483
101311.484
101311.487
101311.486
101311.494
101311.491
101311.484
101311.475
101311.473
101311.466
101311.447
101311.44
101311.429
101311.408
101311.395
101311.371
101311.354
101311.333
101311.304
101311.285
101311.256
101311.229
101311.198
101311.174
101311.139
101311.105
101311.07
101311.041
101310.998
101310.959
101310.92
101310.877
101310.833
101310.8
101310.755
101310.707
101310.66
101310.62
101310.578
101310.525
101310.479
101310.429
101310.387
101310.334
101310.279
101310.229
101310.188
101310.134
101310.079
101310.026
101309.979
101309.932
101309.88
101309.828
101309.78
101309.722
101309.671
101309.63
101309.58
101309.524
101309.477
101309.437
101309.387
101309.336
101309.291
101309.25
101309.207
101309.156
101309.112
101309.066
101309.02
101308.981
101308.938
101308.891
101308.849
101308.812
101308.775
101308.738
101308.695
101308.655
101308.621
101308.581
101308.549
101308.508
101308.467
101308.435
101308.404
101308.373
101308.332
101308.303
101308.273
101308.24
101308.206
101308.179
101308.153
101308.122
101308.095
101308.069
101308.046
101308.021
101307.99
101307.974
101307.952
101307.927
101307.906
101307.882
101307.868
101307.849
101307.834
101307.822
101307.807
101307.794
101307.782
101307.773
101307.76
101307.742
101307.733
101307.718
101307.698
101307.681
101307.667
101307.646
101307.622
101307.598
101307.575
101307.543
101307.515
101307.486
101307.447
101307.408
101307.371
101307.333
101307.299
101307.264
101307.224
101307.172
101307.124
101307.074
101307.019
101306.954
101306.805
101306.715
101306.624
101306.517
101306.398
101306.281
101306.162
101306.034
101305.898
101305.745
101305.578
101305.418
101305.249
101305.06
101304.855
101304.637
101304.423
101304.205
101303.956
101303.697
101303.436
101303.172
101302.891
101302.588
101302.273
101301.948
101301.594
101301.228
101300.859
101300.496
101300.118
101299.726
101299.318
101298.876
101298.407
101297.92
101297.439
101296.966
101296.447
101295.898
101295.36
101294.819
101294.264
101293.682
101293.088
101292.474
101291.85
101291.201
101290.575
101289.954
101289.321
101288.686
101287.969
101287.236
101286.534
101285.818
101285.102
101284.362
101283.587
101282.8
101282.047
101281.291
101280.545
101279.801
101279.017
101278.211
101277.417
101276.625
101275.893
101275.177
101274.493
101273.752
101273.028
101272.355
101271.698
101271.078
101270.48
101269.891
101269.329
101268.807
101268.367
101267.965
101267.612
101267.335
101267.093
101266.907
101266.772
101266.699
101266.726
101266.821
101267.009
101267.272
101267.586
101268.012
101268.588
101269.261
101269.959
101270.758
101271.661
101272.685
101273.934
101275.316
101276.819
101278.343
101279.891
101281.552
101283.322
101285.196
101287.171
101289.245
101291.433
101293.929
101296.519
101299.08
101301.726
101304.453
101307.469
101310.461
101313.409
101316.4
101319.422
101322.459
101325.517
101328.553
101331.589
101334.719
101337.759
101340.678
101343.547
101346.308
101348.987
101351.543
101353.986
101356.286
101358.445
101360.442
101362.274
101363.928
101365.397
101366.676
101367.747
101368.589
101369.252
101369.72
101369.988
101370.055
101369.925
101369.598
101369.082
101368.382
101367.507
101366.469
101365.275
101363.942
101362.475
101360.889
101359.206
101357.449
101355.63
101353.77
101351.888
101349.999
101348.119
101346.256
101344.424
101342.626
101340.89
101339.197
101337.597
101336.066
101334.826
101333.266
101332.021
101330.828
101329.731
101328.678
101327.732
101326.861
101326.079
101325.375
101324.758
101324.225
101323.773
101323.403
101323.113
101322.902
101322.767
101322.709
101322.726
101322.821
101322.991
101323.237
101323.568
101324.008
101324.411
101324.809
101325.274
101325.891
101326.486
101327.165
101327.875
101328.577
101329.277
101329.978
101330.689
101331.403
101332.121
101332.834
101333.545
101334.246
101334.949
101335.644
101336.339
101337.027
101337.714
101338.395
101339.076
101339.749
101340.415
101341.068
101341.706
101342.319
101342.901
101343.437
101343.931
101344.366
101344.68
101344.84
101344.869
101344.917
101344.797
101344.429
101343.85
101343.424
101341.894
101338.87
101336.814
101336.487
101333.113
101325.579
101320.949
101320.971
101324.218
101330.804
101333.149
101339.756
101354.431
101364.463
101381.591
101415.114
101451.073
101482.993
101504.878
101524.411
101555.648
101583.118
101599.979
101612.184
101625.076
101637.339
101642.512
101644.472
101649.238
101652.434
101648.496
101642.3
101640.838
101639.559
101630.906
101620.337
101616.413
101613.922
101604.068
101592.398
101588.301
101586.474
101577.294
101566.144
101562.729
101562.156
101554.272
)
;

boundaryField
{
    closed
    {
        type            zeroGradient;
    }
    open
    {
        type            waveTransmissive;
        gamma           1.25;
        fieldInf        101325;
        lInf            1;
        value           nonuniform List<scalar> 0();
    }
    sides
    {
        type            empty;
    }
    procBoundary4to3
    {
        type            processor;
        value           uniform 101304.298;
    }
    procBoundary4to5
    {
        type            processor;
        value           uniform 101543.781;
    }
}


// ************************************************************************* //
