/*--------------------------------*- C++ -*----------------------------------*\
| =========                 |                                                 |
| \\      /  F ield         | OpenFOAM: The Open Source CFD Toolbox           |
|  \\    /   O peration     | Version:  2306                                  |
|   \\  /    A nd           | Website:  www.openfoam.com                      |
|    \\/     M anipulation  |                                                 |
\*---------------------------------------------------------------------------*/
FoamFile
{
    version     2.0;
    format      ascii;
    arch        "LSB;label=32;scalar=64";
    class       volScalarField;
    location    "0.0007";
    object      alpha;
}
// * * * * * * * * * * * * * * * * * * * * * * * * * * * * * * * * * * * * * //

dimensions      [1 -1 -1 0 0 0 0];

internalField   nonuniform List<scalar> 
530
(
3.65616598e-05
3.59404766e-05
3.5835315e-05
3.58340069e-05
3.583389e-05
3.58338872e-05
3.5833887e-05
3.5833887e-05
3.5833887e-05
3.5833887e-05
3.5833887e-05
3.5833887e-05
3.5833887e-05
3.5833887e-05
3.5833887e-05
3.5833887e-05
3.5833887e-05
3.5833887e-05
3.5833887e-05
3.5833887e-05
3.5833887e-05
3.5833887e-05
3.5833887e-05
3.5833887e-05
3.5833887e-05
3.5833887e-05
3.5833887e-05
3.5833887e-05
3.5833887e-05
3.5833887e-05
3.5833887e-05
3.5833887e-05
3.5833887e-05
3.5833887e-05
3.5833887e-05
3.5833887e-05
3.5833887e-05
3.5833887e-05
3.5833887e-05
3.5833887e-05
3.5833887e-05
3.5833887e-05
3.5833887e-05
3.5833887e-05
3.5833887e-05
3.5833887e-05
3.5833887e-05
3.5833887e-05
3.5833887e-05
3.5833887e-05
3.5833887e-05
3.5833887e-05
3.5833887e-05
3.5833887e-05
3.5833887e-05
3.5833887e-05
3.5833887e-05
3.5833887e-05
3.5833887e-05
3.5833887e-05
3.5833887e-05
3.5833887e-05
3.5833887e-05
3.5833887e-05
3.5833887e-05
3.5833887e-05
3.5833887e-05
3.5833887e-05
3.5833887e-05
3.5833887e-05
3.5833887e-05
3.5833887e-05
3.5833887e-05
3.58338871e-05
3.58338871e-05
3.58338874e-05
3.58338877e-05
3.58338895e-05
3.58338928e-05
3.58338952e-05
3.5833907e-05
3.58339304e-05
3.58339758e-05
3.58340024e-05
3.58340724e-05
3.58342355e-05
3.58344931e-05
3.58349224e-05
3.5835865e-05
3.58379457e-05
3.58386581e-05
3.58286667e-05
3.58174663e-05
3.58399995e-05
3.5929982e-05
3.59160925e-05
3.57655729e-05
3.56439966e-05
3.56700056e-05
3.63454551e-05
3.68588627e-05
3.67815084e-05
3.56753817e-05
3.53745027e-05
3.55029978e-05
3.53320748e-05
3.57461784e-05
3.68451926e-05
3.68497214e-05
3.68265697e-05
3.55491753e-05
3.52232215e-05
3.52852652e-05
3.57756122e-05
3.6838468e-05
3.68362716e-05
3.68254473e-05
3.56268039e-05
3.52816541e-05
3.53604352e-05
3.57221764e-05
3.6846602e-05
3.68264569e-05
3.56079468e-05
3.56620726e-05
3.68699333e-05
3.68243735e-05
3.54124989e-05
3.49909051e-05
3.56123135e-05
3.68296776e-05
3.68435418e-05
3.54624264e-05
3.54798413e-05
3.68495089e-05
3.68384554e-05
3.53943384e-05
3.54399107e-05
3.68490829e-05
3.68293533e-05
3.53633239e-05
3.54221536e-05
3.68475383e-05
3.68287027e-05
3.53470287e-05
3.54165112e-05
3.68462063e-05
3.68229241e-05
3.5391708e-05
3.5462535e-05
3.68450216e-05
3.6820425e-05
3.54213828e-05
3.55175629e-05
3.68542945e-05
3.68088675e-05
3.53681344e-05
3.4933069e-05
3.55801027e-05
3.68144465e-05
3.68301433e-05
3.54703934e-05
3.55193861e-05
3.68496327e-05
3.6815145e-05
3.53770808e-05
3.49000414e-05
3.55222502e-05
3.68095081e-05
3.68341065e-05
3.5417432e-05
3.54128396e-05
3.68294987e-05
3.68392814e-05
3.53462512e-05
3.53648875e-05
3.68304511e-05
3.68345035e-05
3.53600191e-05
3.53741144e-05
3.68274623e-05
3.68356229e-05
3.53936971e-05
3.53970895e-05
3.68227912e-05
3.68352067e-05
3.54258556e-05
3.54430904e-05
3.68277654e-05
3.68191216e-05
3.543934e-05
3.49277427e-05
3.54405606e-05
3.67923048e-05
3.68426835e-05
3.55323652e-05
3.54410979e-05
3.67837588e-05
3.68400914e-05
3.55464651e-05
3.54872405e-05
3.6787907e-05
3.68174889e-05
3.55912062e-05
3.50339056e-05
3.5430998e-05
3.67743086e-05
3.6840498e-05
3.56437018e-05
3.54888238e-05
3.67516677e-05
3.68200847e-05
3.56536563e-05
3.49938344e-05
3.53040686e-05
3.67495747e-05
3.68412618e-05
3.56575862e-05
3.53841051e-05
3.66691359e-05
3.68378809e-05
3.56721637e-05
3.53750629e-05
3.65985831e-05
3.6828944e-05
3.57068691e-05
3.54146995e-05
3.65243776e-05
3.68270417e-05
3.5701872e-05
3.54404819e-05
3.64579469e-05
3.68044122e-05
3.57262805e-05
3.50301867e-05
3.5010266e-05
3.65411321e-05
3.68309193e-05
3.571992e-05
3.53779808e-05
3.61998589e-05
3.68121112e-05
3.57412889e-05
3.54500832e-05
3.61338741e-05
3.68034207e-05
3.5771267e-05
3.55272682e-05
3.6089067e-05
3.678407e-05
3.58610732e-05
3.52023428e-05
3.50456441e-05
3.6024806e-05
3.67979552e-05
3.58635362e-05
3.55891351e-05
3.59510861e-05
3.67915374e-05
3.58895772e-05
3.56531048e-05
3.59398823e-05
3.67728201e-05
3.60246169e-05
3.54451447e-05
3.52201528e-05
3.59020207e-05
3.67756673e-05
3.60372113e-05
3.57171964e-05
3.59434911e-05
3.67746332e-05
3.61370075e-05
3.56933984e-05
3.55470505e-05
3.53996812e-05
3.53428535e-05
3.58250508e-05
3.67537047e-05
3.62380548e-05
3.55886776e-05
3.52461468e-05
3.57887688e-05
3.67731406e-05
3.61164213e-05
3.57011998e-05
3.5845758e-05
3.67891639e-05
3.61433435e-05
3.57164318e-05
3.58940701e-05
3.67923905e-05
3.62661389e-05
3.56885246e-05
3.54947439e-05
3.54765113e-05
3.53215584e-05
3.52532043e-05
3.5764844e-05
3.67387972e-05
3.68440145e-05
3.62338258e-05
3.56973888e-05
3.5802086e-05
3.67956454e-05
3.61261671e-05
3.57196911e-05
3.58159865e-05
3.679619e-05
3.6305e-05
3.55675181e-05
3.51923004e-05
3.57516281e-05
3.67844208e-05
3.63481086e-05
3.55550192e-05
3.51544185e-05
3.57372015e-05
3.67904595e-05
3.6159667e-05
3.57081702e-05
3.58025569e-05
3.68129833e-05
3.63567018e-05
3.56074366e-05
3.52527054e-05
3.57750323e-05
3.67956625e-05
3.64731778e-05
3.5667815e-05
3.52924454e-05
3.57808005e-05
3.67954655e-05
3.65605006e-05
3.5700119e-05
3.53609287e-05
3.58130478e-05
3.67980072e-05
3.65189695e-05
3.5726709e-05
3.54715125e-05
3.53837834e-05
3.5764548e-05
3.68064255e-05
3.65567845e-05
3.56629952e-05
3.52327243e-05
3.57562002e-05
3.68053723e-05
3.65531063e-05
3.56098902e-05
3.51591667e-05
3.57346537e-05
3.68115182e-05
3.62311173e-05
3.56413735e-05
3.57817859e-05
3.6833472e-05
3.6179559e-05
3.56435537e-05
3.57900226e-05
3.68382317e-05
3.64384232e-05
3.55774775e-05
3.51649495e-05
3.57449157e-05
3.68171061e-05
3.65346508e-05
3.55443003e-05
3.51118896e-05
3.57390114e-05
3.68126704e-05
3.61997235e-05
3.55711421e-05
3.57742622e-05
3.68387582e-05
3.64911448e-05
3.55567111e-05
3.51469532e-05
3.57566589e-05
3.68131091e-05
3.61892948e-05
3.55845258e-05
3.57825142e-05
3.68404532e-05
3.65587995e-05
3.56003445e-05
3.51649842e-05
3.57581692e-05
3.68204809e-05
3.66457284e-05
3.55778434e-05
3.511796e-05
3.57473025e-05
3.68176285e-05
3.66169151e-05
3.55174989e-05
3.5068879e-05
3.57509521e-05
3.68154951e-05
3.61495099e-05
3.54911597e-05
3.57638885e-05
3.68327334e-05
3.61449276e-05
3.54945743e-05
3.57660179e-05
3.68388051e-05
3.65630837e-05
3.54860628e-05
3.50415225e-05
3.57513808e-05
3.68209653e-05
3.6099459e-05
3.54307429e-05
3.57612907e-05
3.68343122e-05
3.61199775e-05
3.54391909e-05
3.57611031e-05
3.683898e-05
3.67257138e-05
3.54973867e-05
3.50316021e-05
3.57682018e-05
3.68131423e-05
3.60933961e-05
3.53936419e-05
3.57544896e-05
3.68408314e-05
3.67702056e-05
3.5505315e-05
3.50262559e-05
3.57687847e-05
3.68093973e-05
3.60955821e-05
3.5381691e-05
3.57530247e-05
3.68439652e-05
3.67814749e-05
3.548169e-05
3.49809597e-05
3.5751732e-05
3.68129946e-05
3.61199855e-05
3.53638507e-05
3.57466332e-05
3.68342738e-05
3.61259668e-05
3.54257613e-05
3.5767112e-05
3.6829304e-05
3.61046438e-05
3.54001351e-05
3.5747627e-05
3.68513242e-05
3.68196548e-05
3.54816863e-05
3.50036226e-05
3.57522972e-05
3.68084385e-05
3.62051137e-05
3.54156954e-05
3.57430598e-05
3.68513663e-05
3.68249145e-05
3.55049456e-05
3.50371803e-05
3.57432498e-05
3.682634e-05
3.683101e-05
3.54814573e-05
3.50257275e-05
3.5747565e-05
3.68101689e-05
3.63727471e-05
3.54978411e-05
3.57543746e-05
3.68533539e-05
3.68295414e-05
3.55118956e-05
3.50491732e-05
3.5752101e-05
3.68093295e-05
3.6328033e-05
3.55229996e-05
3.57700359e-05
3.68477965e-05
3.68199727e-05
3.5565803e-05
3.5062563e-05
3.57494801e-05
3.68218177e-05
3.68168452e-05
3.53667297e-05
3.47474849e-05
3.56826414e-05
3.68247795e-05
3.68493095e-05
3.681415e-05
3.68324506e-05
3.57351951e-05
3.54282652e-05
3.55067996e-05
3.54335957e-05
3.52544573e-05
3.57435598e-05
3.68259081e-05
3.65311979e-05
3.57079503e-05
3.57848276e-05
3.68401288e-05
3.68567936e-05
3.56872038e-05
3.52297294e-05
3.57161191e-05
3.68098207e-05
3.68748712e-05
3.57254397e-05
3.531803e-05
3.52807617e-05
3.57264893e-05
3.68234361e-05
3.64934377e-05
3.56009203e-05
3.5742779e-05
3.68328309e-05
3.68655061e-05
3.56744347e-05
3.51589181e-05
)
;

boundaryField
{
    closed
    {
        type            calculated;
        value           uniform 5.13009248e-05;
    }
    open
    {
        type            calculated;
        value           nonuniform List<scalar> 0();
    }
    sides
    {
        type            empty;
    }
    procBoundary0to1
    {
        type            processor;
        value           uniform 3.5690103e-05;
    }
}


// ************************************************************************* //
