/*--------------------------------*- C++ -*----------------------------------*\
| =========                 |                                                 |
| \\      /  F ield         | OpenFOAM: The Open Source CFD Toolbox           |
|  \\    /   O peration     | Version:  2306                                  |
|   \\  /    A nd           | Website:  www.openfoam.com                      |
|    \\/     M anipulation  |                                                 |
\*---------------------------------------------------------------------------*/
FoamFile
{
    version     2.0;
    format      ascii;
    arch        "LSB;label=32;scalar=64";
    class       volScalarField;
    location    "0.0007";
    object      PV;
}
// * * * * * * * * * * * * * * * * * * * * * * * * * * * * * * * * * * * * * //

dimensions      [0 0 0 0 0 0 0];

internalField   nonuniform List<scalar> 
530
(
-0.00715781376
-0.00712393481
-0.00711301372
-0.00711280789
-0.00711278845
-0.00711278783
-0.0071127878
-0.00711278771
-0.00711278769
-0.00711278745
-0.00711278747
-0.00711278753
-0.00711278735
-0.00711278744
-0.0071127874
-0.00711278758
-0.007112788
-0.00711278815
-0.00711278829
-0.00711278865
-0.00711278876
-0.00711278843
-0.00711278897
-0.00711278915
-0.00711278834
-0.00711278798
-0.00711278896
-0.0071127896
-0.00711278954
-0.00711278837
-0.00711278765
-0.00711278705
-0.00711278714
-0.00711278748
-0.00711278808
-0.00711278809
-0.00711278793
-0.00711278727
-0.00711278682
-0.00711278587
-0.00711278519
-0.007112785
-0.00711278538
-0.00711278589
-0.00711278596
-0.00711278605
-0.00711278584
-0.00711278594
-0.00711278616
-0.00711278598
-0.00711278611
-0.00711278614
-0.00711278611
-0.00711278625
-0.00711278605
-0.00711278616
-0.0071127861
-0.007112786
-0.00711278605
-0.00711278617
-0.00711278597
-0.00711278596
-0.007112786
-0.00711278591
-0.00711278581
-0.00711278573
-0.00711278576
-0.00711278567
-0.00711278562
-0.00711278561
-0.00711278559
-0.00711278555
-0.00711278559
-0.00711278563
-0.00711278567
-0.00711278576
-0.00711278592
-0.00711278611
-0.00711278663
-0.0071127883
-0.00711279091
-0.00711279298
-0.00711279792
-0.0071128128
-0.00711284593
-0.00711287354
-0.00711292876
-0.00711299217
-0.00711298452
-0.00711280301
-0.00711301761
-0.00711606695
-0.00711965052
-0.00711497767
-0.00709545319
-0.00710035333
-0.00713521149
-0.0071982593
-0.00718246325
-0.00704149879
-0.00698365081
-0.00699620691
-0.00717967174
-0.00721726159
-0.00720075517
-0.00721826339
-0.00713924886
-0.00698641114
-0.0069845578
-0.00699066873
-0.00720083035
-0.00722615584
-0.00722002984
-0.00713875133
-0.00698774279
-0.00698622933
-0.00699081401
-0.00719554705
-0.00722324492
-0.00721521876
-0.00718563594
-0.00698645955
-0.00698993985
-0.00719853909
-0.00719585168
-0.00698440823
-0.00699072684
-0.00721064167
-0.00724532757
-0.00719632935
-0.00698992269
-0.00698863298
-0.00721159505
-0.00720880155
-0.00698774743
-0.00699011793
-0.00721653882
-0.00721299432
-0.00698817366
-0.00699154578
-0.0072190607
-0.00721505746
-0.00698846991
-0.00699179223
-0.00722022366
-0.00721558072
-0.00698852011
-0.00699226686
-0.00721716405
-0.00721253248
-0.00698828856
-0.00699212729
-0.00721445603
-0.00720879739
-0.00698671777
-0.00699303259
-0.00721588159
-0.00725079285
-0.00720067502
-0.0069914608
-0.0069895349
-0.00721141049
-0.00720767674
-0.00698668826
-0.00699176822
-0.00721500222
-0.00725273821
-0.00720490416
-0.00699223188
-0.00698908166
-0.00721580173
-0.00721500773
-0.00698983268
-0.00698917878
-0.00721997317
-0.00721932837
-0.00699004764
-0.00698974596
-0.00721901631
-0.00721906671
-0.00699051146
-0.00698954182
-0.00721618792
-0.00721732537
-0.0069911475
-0.00698927612
-0.00721280035
-0.00721449056
-0.00699038458
-0.0069912018
-0.0072091929
-0.00725079418
-0.00721121237
-0.00699502352
-0.00698777884
-0.00720560934
-0.00721209357
-0.00699673247
-0.00698818656
-0.00720306803
-0.007210454
-0.00699620782
-0.00699097561
-0.00719705848
-0.00724352964
-0.00721254419
-0.00699756576
-0.00698744647
-0.00719583245
-0.00720920299
-0.00700177597
-0.00699048794
-0.00719157945
-0.00724610483
-0.00722212433
-0.00700174094
-0.00698774304
-0.00719534158
-0.00721588027
-0.00701350074
-0.00698888676
-0.00719379919
-0.00721747533
-0.00701954496
-0.00699006898
-0.0071856437
-0.00721483299
-0.00702589832
-0.00699030455
-0.0071774602
-0.00721340959
-0.00703122625
-0.00699338511
-0.00715518736
-0.007244528
-0.00724486567
-0.00702436212
-0.00698982981
-0.00715988016
-0.00721562724
-0.00705701474
-0.00699295865
-0.00714892855
-0.0072110878
-0.00706462665
-0.00699416035
-0.00713700363
-0.00720588777
-0.007069377
-0.00699701309
-0.00711256747
-0.0072303693
-0.00724017819
-0.00707861647
-0.00699502054
-0.00711323536
-0.00719853601
-0.00708811961
-0.00699636386
-0.00710632688
-0.00719470842
-0.00708970226
-0.00699889558
-0.00708328227
-0.00721087153
-0.00722783641
-0.00709754014
-0.00699753192
-0.00708303417
-0.00717600513
-0.00709161758
-0.00699727944
-0.0070676921
-0.00718865329
-0.00720259636
-0.00721346829
-0.00721926564
-0.00711154799
-0.00700032741
-0.00705441747
-0.00719708356
-0.00722518661
-0.0071178026
-0.00699844344
-0.00707013
-0.00717983393
-0.00710856757
-0.00699644419
-0.00706708705
-0.00717059428
-0.00710146532
-0.00699544963
-0.00705205997
-0.00717951083
-0.00720752256
-0.00720713681
-0.00721776924
-0.00722687394
-0.0071192004
-0.00700322972
-0.00698728781
-0.00705656449
-0.00718303707
-0.00711854032
-0.00699616593
-0.00706865522
-0.0071891965
-0.00711715238
-0.00699607247
-0.00704764882
-0.0071987448
-0.00723204747
-0.00712969842
-0.00699739443
-0.00704227643
-0.00719947335
-0.00723365349
-0.0071322226
-0.00699609048
-0.00706339974
-0.00719243202
-0.0071206915
-0.00699298607
-0.00704146003
-0.00719583746
-0.00722828088
-0.00712748901
-0.00699481764
-0.00702986191
-0.00719155121
-0.00722651086
-0.00712729115
-0.00699437212
-0.00702166301
-0.00718736866
-0.00722213365
-0.00712108721
-0.00699312137
-0.00702543257
-0.00717304916
-0.00721130494
-0.00721638011
-0.00713862594
-0.00699274661
-0.00702165347
-0.00719218128
-0.00723159317
-0.00713716798
-0.00699326709
-0.00702209371
-0.00719582466
-0.00723571218
-0.00713942916
-0.00699279044
-0.00705451722
-0.00719788363
-0.00712869749
-0.0069897159
-0.00706091883
-0.00719786609
-0.00713032159
-0.00698923433
-0.00703345661
-0.00719814353
-0.00723597241
-0.00714201156
-0.00699210069
-0.00702404757
-0.00720091418
-0.00723939415
-0.00713789268
-0.00699235234
-0.00705777666
-0.0072041582
-0.00713639966
-0.00698889731
-0.00702813084
-0.0072002257
-0.00723719024
-0.00713548401
-0.00699203436
-0.00705938268
-0.00720329608
-0.00713753665
-0.00698823447
-0.00702202674
-0.00719734206
-0.00723708554
-0.00714585629
-0.00699084787
-0.00701425404
-0.00719896867
-0.00724083431
-0.00714845293
-0.00699129451
-0.00701652265
-0.00720351914
-0.00724330553
-0.00713766377
-0.00699161399
-0.00706326703
-0.00720999248
-0.00713703231
-0.0069893449
-0.00706431996
-0.00720985953
-0.00714594302
-0.00698873917
-0.00702179426
-0.00720566589
-0.00724522855
-0.00713778818
-0.00699125383
-0.00706935571
-0.007214335
-0.00713705293
-0.00698925234
-0.00706730601
-0.00721391213
-0.00715381043
-0.00698860338
-0.00700746165
-0.00720507248
-0.00724729031
-0.00713332894
-0.0069918953
-0.00707027891
-0.00721724864
-0.00715860889
-0.00698813587
-0.0070006464
-0.00720450823
-0.0072478735
-0.00713418357
-0.0069922603
-0.00706986492
-0.0072180153
-0.00716058962
-0.00698772533
-0.00699907434
-0.00720593667
-0.00725061827
-0.007140223
-0.00699209407
-0.00706628642
-0.00721902674
-0.00714514159
-0.00698922266
-0.00706606439
-0.00721433019
-0.00713861168
-0.00698977511
-0.00706932743
-0.00721596529
-0.00716123597
-0.00698695452
-0.00699356535
-0.00720600116
-0.00724816154
-0.00714222867
-0.00699243609
-0.00705634752
-0.00721513061
-0.00716587034
-0.00698656475
-0.00699195698
-0.00720512761
-0.00724531972
-0.00715702135
-0.00698993876
-0.00699112979
-0.00720706652
-0.00724574733
-0.00714795049
-0.00699196493
-0.00703851515
-0.00720895273
-0.0071641741
-0.0069862094
-0.00699150309
-0.00720368335
-0.00724449578
-0.00714566918
-0.00699209334
-0.00704337747
-0.00720697032
-0.00715675844
-0.0069865757
-0.00699272948
-0.0072005017
-0.00724458663
-0.00716105895
-0.00699061337
-0.00699289901
-0.00721365839
-0.0072653422
-0.00718046989
-0.00699125973
-0.0069866628
-0.0069910174
-0.00698916979
-0.00717388469
-0.00721479745
-0.00720646585
-0.00721139863
-0.00722463859
-0.00716556202
-0.00698887531
-0.00702368942
-0.00719081034
-0.00714358433
-0.00698681487
-0.00698575966
-0.00717899258
-0.00722955291
-0.0071592641
-0.0069913673
-0.00698364073
-0.00716888875
-0.00721894363
-0.00722147227
-0.00717213165
-0.00699034996
-0.00702743728
-0.0071974633
-0.00715924388
-0.00698905953
-0.0069853746
-0.0071727425
-0.00723464646
)
;

boundaryField
{
    closed
    {
        type            zeroGradient;
    }
    open
    {
        type            zeroGradient;
    }
    sides
    {
        type            empty;
    }
    procBoundary0to1
    {
        type            processor;
        value           uniform -0.00717411087;
    }
}


// ************************************************************************* //
