/*--------------------------------*- C++ -*----------------------------------*\
| =========                 |                                                 |
| \\      /  F ield         | OpenFOAM: The Open Source CFD Toolbox           |
|  \\    /   O peration     | Version:  2306                                  |
|   \\  /    A nd           | Website:  www.openfoam.com                      |
|    \\/     M anipulation  |                                                 |
\*---------------------------------------------------------------------------*/
FoamFile
{
    version     2.0;
    format      ascii;
    arch        "LSB;label=32;scalar=64";
    class       volScalarField;
    location    "0.0007";
    object      Z;
}
// * * * * * * * * * * * * * * * * * * * * * * * * * * * * * * * * * * * * * //

dimensions      [0 0 0 0 0 0 0];

internalField   nonuniform List<scalar> 
530
(
0.0145530444
0.014485388
0.0144621884
0.0144617454
0.0144617078
0.0144617069
0.0144617069
0.0144617069
0.0144617069
0.0144617069
0.0144617069
0.0144617069
0.0144617069
0.0144617069
0.0144617069
0.0144617069
0.0144617069
0.0144617069
0.0144617069
0.0144617069
0.0144617069
0.0144617069
0.0144617069
0.0144617069
0.0144617069
0.0144617069
0.0144617069
0.0144617069
0.0144617069
0.0144617069
0.0144617069
0.0144617069
0.0144617069
0.0144617069
0.0144617069
0.0144617069
0.0144617069
0.0144617069
0.0144617069
0.0144617069
0.0144617069
0.0144617069
0.0144617069
0.0144617069
0.0144617069
0.0144617069
0.0144617069
0.0144617069
0.0144617069
0.0144617069
0.0144617069
0.0144617069
0.0144617069
0.0144617069
0.0144617069
0.0144617069
0.0144617069
0.0144617069
0.0144617069
0.0144617069
0.0144617069
0.0144617069
0.0144617069
0.0144617069
0.0144617069
0.0144617069
0.0144617069
0.0144617069
0.0144617069
0.0144617069
0.0144617069
0.0144617069
0.0144617069
0.0144617069
0.0144617069
0.014461707
0.0144617072
0.0144617074
0.0144617077
0.0144617108
0.0144617141
0.0144617141
0.0144617159
0.014461743
0.0144618014
0.0144618302
0.0144619011
0.0144619584
0.0144617651
0.0144609859
0.0144613248
0.0144699286
0.0144801397
0.014465375
0.0144081824
0.0144200159
0.0145277285
0.0147189426
0.0146761678
0.01424863
0.0140592329
0.0141019854
0.0146676411
0.0147830466
0.0147371524
0.0147889681
0.0145416199
0.0140725411
0.0140596047
0.0140919876
0.0147329425
0.0148144789
0.0147966482
0.0145346543
0.0140768044
0.014061324
0.0140913533
0.0147143313
0.0148032456
0.0147794555
0.0146794162
0.0140708196
0.0140839498
0.0147214335
0.0147108612
0.0140712435
0.0140860748
0.0147652813
0.0148723502
0.0147167348
0.0140806802
0.0140830868
0.0147608089
0.0147534596
0.0140770267
0.0140873865
0.0147768128
0.0147652053
0.0140787251
0.0140905005
0.0147845688
0.0147708647
0.0140793502
0.0140915988
0.0147883832
0.0147724454
0.0140790414
0.0140914208
0.0147782379
0.0147622487
0.0140778137
0.0140902242
0.0147705973
0.0147501651
0.0140760451
0.0140912024
0.0147801555
0.0148882746
0.014729382
0.0140840575
0.0140834323
0.0147608572
0.0147488216
0.0140755051
0.014088623
0.0147780672
0.01489544
0.0147437388
0.0140863957
0.0140821721
0.0147742496
0.0147731175
0.0140813502
0.0140831886
0.0147888884
0.0147857343
0.0140822349
0.0140824911
0.0147853655
0.0147841093
0.0140830933
0.0140812944
0.0147764759
0.0147785256
0.0140853859
0.0140798429
0.0147669716
0.0147689084
0.0140861393
0.0140843995
0.0147597995
0.0148886998
0.0147640321
0.0140949189
0.0140776496
0.0147425555
0.014764606
0.014103037
0.0140771021
0.0147361163
0.0147569748
0.014104054
0.0140826061
0.0147206239
0.0148649942
0.0147679559
0.014103113
0.0140748537
0.0147122949
0.0147547492
0.0141223227
0.0140817816
0.0147033733
0.0148738141
0.014799183
0.0141170776
0.0140765761
0.0147093914
0.0147774638
0.0141577229
0.0140795647
0.0147042726
0.0147809753
0.0141765811
0.0140809569
0.0146775966
0.0147718284
0.0141970592
0.0140819124
0.0146534422
0.0147668067
0.0142166161
0.0140903575
0.0145867167
0.0148669214
0.0148711162
0.014191336
0.0140845652
0.0145992809
0.0147773708
0.0142952925
0.0140927886
0.0145649003
0.0147609783
0.0143181175
0.0140952086
0.0145283966
0.0147431341
0.0143342607
0.0141036224
0.0144553244
0.0148227491
0.0148583826
0.0143600855
0.0140999479
0.0144549908
0.014721971
0.0143903785
0.0141040187
0.0144353072
0.0147079632
0.0143955714
0.0141105713
0.0143658221
0.0147608676
0.0148176647
0.0144170581
0.0141057188
0.0143618001
0.0146489417
0.0143984585
0.0141058949
0.0143184689
0.014692935
0.0147379048
0.0147736506
0.0147912016
0.0144625371
0.0141176963
0.0142807046
0.014720474
0.0148110369
0.0144812183
0.0141127074
0.0143262797
0.0146619672
0.0144495096
0.014105144
0.0143157249
0.0146316377
0.0144258263
0.0141016403
0.01427093
0.014663991
0.0147518761
0.014752899
0.014788824
0.0148132997
0.0144886023
0.0141206018
0.0140715307
0.0142822769
0.0146704778
0.0144778699
0.0141037769
0.0143219891
0.0146867463
0.0144726104
0.014104347
0.0142587565
0.0147239932
0.014828217
0.0145146919
0.0141103289
0.0142457813
0.0147273397
0.0148355014
0.0145233803
0.014105927
0.0143092795
0.0146991742
0.0144845132
0.0140967836
0.0142429654
0.0147152166
0.0148158306
0.0145061126
0.0141009932
0.0142086765
0.0147011945
0.0148089655
0.0145050794
0.0140986689
0.0141855108
0.0146868695
0.0147942678
0.014484824
0.0140933275
0.0141957992
0.0146412392
0.0147623513
0.0147810483
0.0145378418
0.0140966758
0.014186497
0.0147038632
0.0148250452
0.0145346181
0.014097416
0.0141888604
0.0147154648
0.0148393047
0.0145423649
0.0140953564
0.0142843302
0.0147163792
0.0145061876
0.0140838043
0.0143020686
0.014715683
0.0145088758
0.014082921
0.0142195955
0.0147222602
0.0148385355
0.0145474226
0.0140928932
0.0141944992
0.0147315804
0.0148504928
0.0145373411
0.0140925402
0.0142950838
0.0147361895
0.0145275817
0.0140821125
0.0142060007
0.0147287318
0.0148427085
0.0145280548
0.0140900812
0.0142986369
0.0147332581
0.014529268
0.0140791983
0.0141876537
0.0147193181
0.0148412055
0.0145564784
0.0140881051
0.0141661742
0.014725463
0.0148532227
0.014565774
0.0140901894
0.0141740906
0.0147403945
0.0148625202
0.0145354587
0.0140902921
0.0143127725
0.0147557982
0.0145305716
0.0140819992
0.0143144865
0.0147546838
0.0145538425
0.0140800661
0.0141874509
0.0147465994
0.0148678992
0.0145346453
0.0140888477
0.0143311282
0.0147697835
0.0145305057
0.0140812994
0.0143236244
0.0147679388
0.0145763015
0.014078759
0.0141467625
0.0147444213
0.0148727706
0.0145206937
0.0140892454
0.0143336649
0.0147795447
0.0145917984
0.0140781468
0.0141273953
0.0147429531
0.0148746307
0.0145231227
0.0140901812
0.0143328039
0.0147823288
0.0145979144
0.0140772475
0.0141232276
0.014748053
0.0148839842
0.0145412889
0.0140902215
0.0143232647
0.0147856024
0.0145542113
0.014080776
0.014321166
0.014769846
0.0145331874
0.0140806659
0.0143294088
0.014775507
0.0145994843
0.0140740353
0.0141056134
0.0147479004
0.0148769757
0.0145464423
0.0140894898
0.0142934542
0.0147731595
0.0146147512
0.0140736619
0.0140989025
0.0147447912
0.0148687885
0.0145899042
0.0140832283
0.0140982927
0.0147510103
0.0148708124
0.0145632367
0.0140877362
0.0142419209
0.0147528586
0.014607969
0.0140712059
0.0140978433
0.0147404981
0.0148657774
0.0145557307
0.0140871364
0.0142544701
0.0147463373
0.0145839259
0.0140707284
0.0141010534
0.0147294676
0.0148650136
0.0146009601
0.0140862806
0.0141035388
0.0147757053
0.0149343368
0.0146679717
0.0140937001
0.01407402
0.0140835005
0.0140843113
0.0146423391
0.0147734905
0.0147498028
0.0147665524
0.0148100122
0.0146168014
0.0140804418
0.0141975206
0.0146964148
0.0145459183
0.0140689902
0.0140746858
0.0146621412
0.014820341
0.0146001367
0.0140848358
0.0140705244
0.0146279385
0.0147908791
0.0147998208
0.0146368572
0.0140860993
0.0142077642
0.0147192278
0.0145952294
0.0140785205
0.0140748054
0.0146439805
0.0148361433
)
;

boundaryField
{
    closed
    {
        type            zeroGradient;
    }
    open
    {
        type            zeroGradient;
    }
    sides
    {
        type            empty;
    }
    procBoundary0to1
    {
        type            processor;
        value           uniform 0.0146465549;
    }
}


// ************************************************************************* //
