/*--------------------------------*- C++ -*----------------------------------*\
| =========                 |                                                 |
| \\      /  F ield         | OpenFOAM: The Open Source CFD Toolbox           |
|  \\    /   O peration     | Version:  2306                                  |
|   \\  /    A nd           | Website:  www.openfoam.com                      |
|    \\/     M anipulation  |                                                 |
\*---------------------------------------------------------------------------*/
FoamFile
{
    version     2.0;
    format      ascii;
    arch        "LSB;label=32;scalar=64";
    class       volScalarField;
    location    "0.00092";
    object      H2O;
}
// * * * * * * * * * * * * * * * * * * * * * * * * * * * * * * * * * * * * * //

dimensions      [0 0 0 0 0 0 0];

internalField   nonuniform List<scalar> 
531
(
0.00441318107
0.000973877262
0.000933157848
0.00706081971
0.00718324373
0.00463889727
0.000964924008
0.000994695063
0.00714414448
0.00736467049
0.00493754427
0.000944090855
0.00197829649
0.00663477043
0.00534370994
0.000968185135
0.00232645009
0.00663485419
0.00530183207
0.00097864229
0.001614272
0.00719758588
0.00745557218
0.00521153129
0.000973681429
0.000728640402
0.00710186442
0.00744890247
0.00492492703
0.0010372844
0.00106957879
0.000949816156
0.00108123681
0.000782818957
0.00663792903
0.00714059467
0.00688397542
0.00696966137
0.00708549844
0.00525011464
0.0010315925
0.000838770718
0.00686222431
0.00743118514
0.00486203827
0.00100501873
0.00110140842
0.00201242943
0.00683302818
0.00748652772
0.00539343798
0.00101707118
0.00113748491
0.00670244928
0.0056284266
0.00103573688
0.0017220603
0.00702114367
0.00733139949
0.00732870308
0.00529130418
0.00100493972
0.0010662225
0.000986720928
0.00105149943
0.00243942761
0.00693828477
0.00725242208
0.00724756296
0.005304129
0.00102066455
0.000856258851
0.00688161385
0.0073171747
0.00499217358
0.00102896538
0.000902231706
0.00684081053
0.00726912989
0.00487221129
0.00102796544
0.000873186675
0.00690496344
0.00731066167
0.00492015517
0.00102245547
0.000861567306
0.00695129581
0.00730521634
0.00483787761
0.00102631776
0.000867409386
0.00695182581
0.00726934685
0.00471055353
0.00103457088
0.000868913023
0.00695393886
0.00725123626
0.00461996437
0.0010422922
0.000858331822
0.00697281059
0.0072660393
0.00456466396
0.00104624553
0.000832248046
0.00702896921
0.0073100079
0.00449905287
0.00103832452
0.000732294489
0.00711587648
0.00733364264
0.00453614449
0.00105398432
0.00107758961
0.00303131221
0.00704310778
0.00716800292
0.00705896277
0.00436857184
0.00102852812
0.00153660435
0.00720428187
0.00726965388
0.00368222579
0.00103684144
0.00301228803
0.00668202224
0.00505570056
0.00103930834
0.00157275547
0.00723173236
0.00727045348
0.00345228343
0.00101628758
0.00284301264
0.00727561994
0.00716260372
0.00258414924
0.0010293344
0.00420652526
0.00667257448
0.00413196346
0.0010414023
0.00271724583
0.00726557911
0.0070849198
0.0019205178
0.00101653181
0.0040076224
0.00726999261
0.00685887076
0.00078360654
0.00101464865
0.00469494932
0.0072735986
0.0067238818
0.000890168761
0.00100906179
0.00502071843
0.00726057773
0.00660714727
0.000945144046
0.00100536661
0.00511463491
0.00723943563
0.00727395779
0.00654554734
0.000976229757
0.00100139383
0.00616935179
0.00643251232
0.000827539892
0.00100739361
0.00555359814
0.00734331702
0.00646239132
0.000976378693
0.00097952232
0.00580676693
0.00735249872
0.00632336051
0.00100352663
0.000963244167
0.00621073377
0.00740460222
0.0063596805
0.00101416299
0.000921185365
0.0065234566
0.00635939852
0.000962026897
0.000972753716
0.00633896747
0.00734406909
0.00628073429
0.00104110317
0.000959077496
0.0063566126
0.00732785733
0.00623782278
0.00104738168
0.000953499753
0.00647549103
0.00738411077
0.00634556756
0.0010467873
0.000897207934
0.00661652498
0.00636717546
0.000997772496
0.000962172089
0.00654106858
0.00734968474
0.00617992335
0.00105428004
0.00095359815
0.00649220785
0.0073137236
0.0058811782
0.00105646349
0.000871705192
0.00676613163
0.00672536594
0.0025037209
0.00110668613
0.000843333821
0.00679482303
0.00679346448
0.00555188294
0.00491086972
0.00467493754
0.0051131018
0.00556138416
0.00653518501
0.00639438726
0.00314176726
0.00110870347
0.000782161954
0.00686836237
0.00646556093
0.00106007115
0.00092654789
0.00686737278
0.00752768181
0.00630016601
0.00102432996
0.000822259681
0.00702394091
0.00668908281
0.00101504877
0.000833644014
0.00701179229
0.00666163191
0.00102697756
0.000838664302
0.00697752268
0.00649858786
0.00104907591
0.000922204226
0.00717139592
0.0075548239
0.00618550284
0.00104384136
0.00085725324
0.00686130454
0.00635726137
0.00107076092
0.000939314928
0.00709601031
0.00744763554
0.00595132939
0.00105374533
0.000867085571
0.00683281117
0.00626134759
0.00107926192
0.000949681252
0.00704138688
0.00736483711
0.00548268675
0.00105598297
0.000946748456
0.00715278884
0.00737944701
0.00582798242
0.00106243855
0.000874759624
0.00678081868
0.00618735885
0.00108201007
0.000952250026
0.00702436364
0.00735799199
0.00548256332
0.00105574274
0.000943294904
0.00712269219
0.00739681657
0.00582158677
0.0010600653
0.000868182175
0.00676394436
0.00615769648
0.00107604917
0.000944481442
0.00705368823
0.00737330913
0.00545817666
0.00105229208
0.000932393387
0.00712228185
0.00739530648
0.0057362949
0.00106014817
0.000836787593
0.00670846684
0.00601770372
0.00107801367
0.000936118326
0.00704632148
0.00729786487
0.00524592692
0.00106152359
0.000925729964
0.00704771022
0.00727502342
0.00517963824
0.00105999565
0.000912883132
0.00711724057
0.00732639424
0.00540987093
0.00106932987
0.000812646357
0.00666610867
0.00619711344
0.00103966055
0.00106038115
0.0045275844
0.00692653033
0.00684243186
0.00666585565
0.00667973827
0.00431968672
0.00109831182
0.000903814381
0.00703592031
0.00729633544
0.00547880104
0.00105160476
0.000736297842
0.00682995896
0.0062473778
0.0010477645
0.00070944413
0.00686971617
0.00609274655
0.00104353281
0.000871833764
0.00741405283
0.00755787986
0.00562515411
0.00103653456
0.000711609331
0.00683957293
0.00604228825
0.00105468572
0.00087072967
0.00739350316
0.00749532963
0.00551756957
0.00104117313
0.000708248151
0.00680530068
0.00598293336
0.00105413833
0.000844119216
0.00742132067
0.0075090534
0.00544698688
0.00103289924
0.00073569329
0.00683131265
0.00599035147
0.00104050089
0.000782418929
0.00749397582
0.00761899985
0.00548660522
0.00100784692
0.00106225208
0.00699774148
0.0062052865
0.00102133768
0.00134952544
0.00697557064
0.00618480422
0.00102317595
0.00121428728
0.00692581556
0.0060160059
0.00101965009
0.00100148594
0.00752212158
0.00763237168
0.00539137419
0.00100552927
0.000833224363
0.00696518418
0.00622701393
0.001041631
0.00074350866
0.0068199482
0.00582800691
0.00104161351
0.000744248994
0.00742265858
0.00750889492
0.00523060804
0.00103905288
0.000770370993
0.00675082377
0.00578201477
0.00107535757
0.000851795956
0.00715901358
0.00719339433
0.00435141472
0.00107190065
0.000898436927
0.00713042146
0.0071463351
0.00690490381
0.00503949364
0.00106063552
0.000921577339
0.00738859091
0.00751088673
0.0058571363
0.00103756274
0.000854020504
0.00699181159
0.00660795366
0.00105901666
0.000870079593
0.00698526873
0.00666469137
0.00105683601
0.00089851619
0.00698924497
0.00657445038
0.00103711671
0.000961896666
0.00739403327
0.00775699715
0.00649342121
0.00100614485
0.000925584402
0.00704748099
0.00688289777
0.00103401709
0.00093808433
0.00704635801
0.00690403879
0.00103047348
0.00095783647
0.0069894812
0.00686136308
0.00103784812
0.000985389522
0.00686419624
0.00668244261
0.0010429335
0.00103106572
0.00694834152
0.00747695823
0.00615798227
0.00102433526
0.00103257169
0.00676442845
0.00740335651
0.00608921879
0.00101736005
0.00103590722
0.00672875347
0.00745580891
0.00610991553
0.000964262681
0.00103743605
0.00103425373
0.000976501678
0.00665981381
0.00720992833
0.00720921074
0.00644118421
0.000997422762
0.00104066763
0.00655540882
0.00740999695
0.00647543648
0.000987324898
0.00104375091
0.00626527398
0.00729435282
0.00634526613
0.000996711518
0.00105177766
0.00606811865
0.00723344089
0.006288855
0.00100041239
0.00105133062
0.00603743016
0.00726699074
0.0064834491
0.000989298311
0.00104434663
0.00607433319
0.00737892063
0.00671878937
0.00096939644
0.00102870126
0.00626286085
0.00753496431
0.00681284484
0.000902912739
0.00100898106
0.00102332725
)
;

boundaryField
{
    closed
    {
        type            calculated;
        value           nonuniform List<scalar> 0();
    }
    open
    {
        type            calculated;
        value           nonuniform List<scalar> 0();
    }
    sides
    {
        type            empty;
    }
    procBoundary3to2
    {
        type            processor;
        value           uniform 0.00706597219;
    }
    procBoundary3to4
    {
        type            processor;
        value           uniform 0.000832142293;
    }
}


// ************************************************************************* //
