/*--------------------------------*- C++ -*----------------------------------*\
| =========                 |                                                 |
| \\      /  F ield         | OpenFOAM: The Open Source CFD Toolbox           |
|  \\    /   O peration     | Version:  2306                                  |
|   \\  /    A nd           | Website:  www.openfoam.com                      |
|    \\/     M anipulation  |                                                 |
\*---------------------------------------------------------------------------*/
FoamFile
{
    version     2.0;
    format      ascii;
    arch        "LSB;label=32;scalar=64";
    class       volScalarField;
    location    "0.00092";
    object      prefDZ_T;
}
// * * * * * * * * * * * * * * * * * * * * * * * * * * * * * * * * * * * * * //

dimensions      [1 -1 -1 -1 0 0 0];

internalField   nonuniform List<scalar> 
531
(
-1.20495716e-09
-1.22870448e-09
-1.23282858e-09
-1.18889334e-09
-1.18855008e-09
-1.20330758e-09
-1.22885663e-09
-1.23231477e-09
-1.18842841e-09
-1.18774936e-09
-1.20108597e-09
-1.22924277e-09
-1.22400878e-09
-1.19033477e-09
-1.19835221e-09
-1.22836768e-09
-1.22111705e-09
-1.19018721e-09
-1.19867347e-09
-1.22810401e-09
-1.22704781e-09
-1.18776963e-09
-1.18708679e-09
-1.19921091e-09
-1.22845174e-09
-1.23410245e-09
-1.18820903e-09
-1.18736572e-09
-1.20103532e-09
-1.22766576e-09
-1.226398e-09
-1.23045043e-09
-1.22636927e-09
-1.23339885e-09
-1.19016301e-09
-1.18871334e-09
-1.18910459e-09
-1.18888992e-09
-1.18828305e-09
-1.199046e-09
-1.2272576e-09
-1.23137343e-09
-1.1890375e-09
-1.18752817e-09
-1.2014739e-09
-1.22868498e-09
-1.22578045e-09
-1.22370932e-09
-1.18886591e-09
-1.18688679e-09
-1.19789286e-09
-1.227618e-09
-1.23111091e-09
-1.18981009e-09
-1.19657286e-09
-1.22703494e-09
-1.22614037e-09
-1.18846333e-09
-1.18714238e-09
-1.18725012e-09
-1.1984932e-09
-1.22818488e-09
-1.22641335e-09
-1.22880633e-09
-1.22699377e-09
-1.22020293e-09
-1.18887888e-09
-1.18762496e-09
-1.18757532e-09
-1.1987004e-09
-1.22769323e-09
-1.23076691e-09
-1.1891134e-09
-1.18780935e-09
-1.20081524e-09
-1.22783049e-09
-1.22964242e-09
-1.18936338e-09
-1.18797895e-09
-1.20167114e-09
-1.22788538e-09
-1.23034745e-09
-1.18908014e-09
-1.18782838e-09
-1.2013337e-09
-1.22798309e-09
-1.23058751e-09
-1.18889512e-09
-1.18784967e-09
-1.2019174e-09
-1.22793109e-09
-1.23042437e-09
-1.18893491e-09
-1.1880079e-09
-1.2028346e-09
-1.22781276e-09
-1.23039158e-09
-1.1889635e-09
-1.18810209e-09
-1.20350173e-09
-1.22769879e-09
-1.23066744e-09
-1.18890353e-09
-1.18806408e-09
-1.20392295e-09
-1.22762474e-09
-1.23138042e-09
-1.18861881e-09
-1.18791255e-09
-1.20438773e-09
-1.22774888e-09
-1.23444538e-09
-1.18808578e-09
-1.18777164e-09
-1.20397592e-09
-1.2276241e-09
-1.22669515e-09
-1.21543883e-09
-1.18847125e-09
-1.18801486e-09
-1.188423e-09
-1.20530509e-09
-1.22771758e-09
-1.22769967e-09
-1.18776396e-09
-1.18779179e-09
-1.21038233e-09
-1.22766054e-09
-1.21557006e-09
-1.19004907e-09
-1.20040525e-09
-1.22734326e-09
-1.22739952e-09
-1.18756168e-09
-1.18780961e-09
-1.21215742e-09
-1.22818647e-09
-1.21691628e-09
-1.18757063e-09
-1.18793635e-09
-1.21903202e-09
-1.22770627e-09
-1.20633822e-09
-1.19005798e-09
-1.20697234e-09
-1.22735035e-09
-1.21792442e-09
-1.18760984e-09
-1.18835419e-09
-1.22447035e-09
-1.22836924e-09
-1.20781896e-09
-1.18802184e-09
-1.18909868e-09
-1.23352077e-09
-1.22845837e-09
-1.20280647e-09
-1.18798831e-09
-1.18956781e-09
-1.23020369e-09
-1.22860968e-09
-1.20048097e-09
-1.18798072e-09
-1.18986997e-09
-1.22889889e-09
-1.22842789e-09
-1.19998602e-09
-1.18760463e-09
-1.18765555e-09
-1.19007175e-09
-1.22817886e-09
-1.22832837e-09
-1.19323088e-09
-1.19110537e-09
-1.23177539e-09
-1.22855803e-09
-1.19685355e-09
-1.18732624e-09
-1.19058281e-09
-1.22795041e-09
-1.22902724e-09
-1.19509488e-09
-1.18726491e-09
-1.19154865e-09
-1.22740651e-09
-1.22935771e-09
-1.19241062e-09
-1.18705862e-09
-1.19121391e-09
-1.22748829e-09
-1.23027392e-09
-1.1909714e-09
-1.19147858e-09
-1.22815401e-09
-1.22920865e-09
-1.19175788e-09
-1.18718684e-09
-1.19187177e-09
-1.22683509e-09
-1.2293126e-09
-1.19149705e-09
-1.18722741e-09
-1.19214839e-09
-1.22672987e-09
-1.22944585e-09
-1.19069e-09
-1.18704198e-09
-1.19136897e-09
-1.22704072e-09
-1.23082367e-09
-1.1903826e-09
-1.19141925e-09
-1.22733319e-09
-1.22936653e-09
-1.19051443e-09
-1.18705414e-09
-1.19248915e-09
-1.2265068e-09
-1.22922397e-09
-1.19044633e-09
-1.18715007e-09
-1.19442301e-09
-1.22686613e-09
-1.23117429e-09
-1.18976197e-09
-1.1895294e-09
-1.21968946e-09
-1.22609594e-09
-1.23185744e-09
-1.18953813e-09
-1.1898056e-09
-1.19691636e-09
-1.20144012e-09
-1.20299281e-09
-1.19999573e-09
-1.19676483e-09
-1.19079349e-09
-1.191173e-09
-1.21459939e-09
-1.22598491e-09
-1.23318876e-09
-1.18886108e-09
-1.19103532e-09
-1.22625234e-09
-1.23019256e-09
-1.18891173e-09
-1.18651779e-09
-1.19169525e-09
-1.22766948e-09
-1.2321577e-09
-1.18859157e-09
-1.18998381e-09
-1.22756024e-09
-1.23228812e-09
-1.1886374e-09
-1.19030305e-09
-1.22730225e-09
-1.23203076e-09
-1.18860096e-09
-1.1910351e-09
-1.22684703e-09
-1.23008408e-09
-1.18779021e-09
-1.1864373e-09
-1.19269487e-09
-1.2273493e-09
-1.23103925e-09
-1.18911758e-09
-1.19183623e-09
-1.22649888e-09
-1.22962985e-09
-1.18808823e-09
-1.18690547e-09
-1.19425407e-09
-1.2271612e-09
-1.23056303e-09
-1.18919992e-09
-1.19246355e-09
-1.22634002e-09
-1.22923711e-09
-1.18827238e-09
-1.18719218e-09
-1.19735233e-09
-1.22721901e-09
-1.22897472e-09
-1.18800687e-09
-1.18707153e-09
-1.19515731e-09
-1.22693408e-09
-1.23014142e-09
-1.18938171e-09
-1.19299548e-09
-1.22626699e-09
-1.22906383e-09
-1.18833117e-09
-1.18724235e-09
-1.19736444e-09
-1.22722015e-09
-1.22893165e-09
-1.18813914e-09
-1.18703137e-09
-1.19521235e-09
-1.22697444e-09
-1.2300947e-09
-1.18945746e-09
-1.19321069e-09
-1.22634175e-09
-1.22917201e-09
-1.18821243e-09
-1.18719411e-09
-1.1975391e-09
-1.22726785e-09
-1.22911779e-09
-1.18813857e-09
-1.18704724e-09
-1.19578632e-09
-1.22694797e-09
-1.23085198e-09
-1.18966931e-09
-1.1941234e-09
-1.22626877e-09
-1.22934197e-09
-1.18826014e-09
-1.1875071e-09
-1.19899786e-09
-1.22706109e-09
-1.22927152e-09
-1.18842985e-09
-1.1875213e-09
-1.19948174e-09
-1.22704916e-09
-1.22958658e-09
-1.18810485e-09
-1.18737292e-09
-1.1979577e-09
-1.22698035e-09
-1.23160792e-09
-1.19015666e-09
-1.19285334e-09
-1.22681787e-09
-1.227345e-09
-1.20392499e-09
-1.18908717e-09
-1.18927447e-09
-1.19025977e-09
-1.18998788e-09
-1.2056975e-09
-1.22637352e-09
-1.23011814e-09
-1.18850005e-09
-1.18762743e-09
-1.19752716e-09
-1.22721734e-09
-1.23333449e-09
-1.1892523e-09
-1.1928926e-09
-1.22679119e-09
-1.23467656e-09
-1.18896035e-09
-1.19379493e-09
-1.22707518e-09
-1.23076196e-09
-1.18683149e-09
-1.18657882e-09
-1.1966098e-09
-1.22761711e-09
-1.23414882e-09
-1.1892865e-09
-1.19417421e-09
-1.22704618e-09
-1.2308727e-09
-1.18698938e-09
-1.18695009e-09
-1.1973649e-09
-1.22762275e-09
-1.23436902e-09
-1.18948149e-09
-1.19463923e-09
-1.22721021e-09
-1.23152911e-09
-1.18685596e-09
-1.18698177e-09
-1.19782978e-09
-1.22787041e-09
-1.23456827e-09
-1.18940607e-09
-1.19461196e-09
-1.2275981e-09
-1.23319403e-09
-1.18646413e-09
-1.18655721e-09
-1.19750017e-09
-1.22846248e-09
-1.23176942e-09
-1.18870963e-09
-1.19301811e-09
-1.22782816e-09
-1.22929981e-09
-1.18860893e-09
-1.19316425e-09
-1.22766844e-09
-1.2304511e-09
-1.18879197e-09
-1.1943336e-09
-1.22796649e-09
-1.2322336e-09
-1.18623839e-09
-1.18637711e-09
-1.19813692e-09
-1.2284243e-09
-1.23374267e-09
-1.18879193e-09
-1.19298848e-09
-1.22734707e-09
-1.23449565e-09
-1.18924933e-09
-1.19564448e-09
-1.22746017e-09
-1.23424836e-09
-1.18667589e-09
-1.18692726e-09
-1.19924755e-09
-1.22761019e-09
-1.23224233e-09
-1.18969906e-09
-1.19588041e-09
-1.22684237e-09
-1.23153413e-09
-1.18795115e-09
-1.18835914e-09
-1.20544129e-09
-1.22744123e-09
-1.23025704e-09
-1.18844742e-09
-1.1883149e-09
-1.18924867e-09
-1.2005793e-09
-1.22718835e-09
-1.22971472e-09
-1.18704702e-09
-1.18672355e-09
-1.19502358e-09
-1.22760275e-09
-1.23058335e-09
-1.18868839e-09
-1.1908983e-09
-1.22684791e-09
-1.23059939e-09
-1.1885301e-09
-1.19068119e-09
-1.22677602e-09
-1.2299743e-09
-1.18851196e-09
-1.19097776e-09
-1.22724649e-09
-1.22902522e-09
-1.18682015e-09
-1.1856482e-09
-1.1908813e-09
-1.22824704e-09
-1.22909757e-09
-1.18846037e-09
-1.18944422e-09
-1.22739037e-09
-1.22912499e-09
-1.18829305e-09
-1.18939639e-09
-1.22738774e-09
-1.22870492e-09
-1.18850393e-09
-1.18951532e-09
-1.22720758e-09
-1.22809348e-09
-1.18902857e-09
-1.19027199e-09
-1.2270392e-09
-1.22748164e-09
-1.18862523e-09
-1.18673875e-09
-1.19286834e-09
-1.22778026e-09
-1.22712664e-09
-1.1895795e-09
-1.18698772e-09
-1.19335478e-09
-1.22786352e-09
-1.22716367e-09
-1.18965525e-09
-1.18692986e-09
-1.19323742e-09
-1.22916698e-09
-1.22740127e-09
-1.22786676e-09
-1.22821885e-09
-1.19018007e-09
-1.18786127e-09
-1.18785943e-09
-1.191255e-09
-1.22805619e-09
-1.22713938e-09
-1.19025541e-09
-1.18702152e-09
-1.19077674e-09
-1.22836688e-09
-1.22699692e-09
-1.1921127e-09
-1.18752436e-09
-1.19162438e-09
-1.22820635e-09
-1.22689824e-09
-1.19342271e-09
-1.18780255e-09
-1.19199536e-09
-1.22814308e-09
-1.22694849e-09
-1.19364566e-09
-1.18767611e-09
-1.19078513e-09
-1.2282953e-09
-1.22712208e-09
-1.1934203e-09
-1.18713358e-09
-1.18984367e-09
-1.2284568e-09
-1.22748859e-09
-1.19211728e-09
-1.18655932e-09
-1.18958135e-09
-1.23013857e-09
-1.22890082e-09
-1.2281043e-09
)
;

boundaryField
{
    closed
    {
        type            calculated;
        value           nonuniform List<scalar> 0();
    }
    open
    {
        type            calculated;
        value           nonuniform List<scalar> 0();
    }
    sides
    {
        type            empty;
    }
    procBoundary3to2
    {
        type            processor;
        value           uniform -1.18905285e-09;
    }
    procBoundary3to4
    {
        type            processor;
        value           uniform -1.23191663e-09;
    }
}


// ************************************************************************* //
