/*--------------------------------*- C++ -*----------------------------------*\
| =========                 |                                                 |
| \\      /  F ield         | OpenFOAM: The Open Source CFD Toolbox           |
|  \\    /   O peration     | Version:  2306                                  |
|   \\  /    A nd           | Website:  www.openfoam.com                      |
|    \\/     M anipulation  |                                                 |
\*---------------------------------------------------------------------------*/
FoamFile
{
    version     2.0;
    format      ascii;
    arch        "LSB;label=32;scalar=64";
    class       volScalarField;
    location    "0.00092";
    object      prefDPV_T;
}
// * * * * * * * * * * * * * * * * * * * * * * * * * * * * * * * * * * * * * //

dimensions      [1 -1 -1 -1 0 0 0];

internalField   nonuniform List<scalar> 
531
(
5.98001769e-10
6.09543113e-10
6.11598622e-10
5.90232032e-10
5.90075833e-10
5.97198178e-10
6.09618214e-10
6.11347813e-10
5.90009841e-10
5.89698061e-10
5.96115621e-10
6.09809006e-10
6.07292702e-10
5.90899356e-10
5.94785738e-10
6.09374154e-10
6.05881246e-10
5.90825451e-10
5.94942358e-10
6.09243472e-10
6.08776156e-10
5.89686695e-10
5.89377829e-10
5.95203199e-10
6.09416761e-10
6.12215189e-10
5.89894502e-10
5.89516717e-10
5.96089813e-10
6.09030677e-10
6.08400426e-10
6.10413183e-10
6.08387319e-10
6.11869205e-10
5.90813725e-10
5.90152128e-10
5.90315127e-10
5.90218598e-10
5.89929479e-10
5.95123794e-10
6.08826048e-10
6.10862815e-10
5.90278727e-10
5.89595822e-10
5.96303302e-10
6.0953667e-10
6.08095145e-10
6.07146413e-10
5.90189027e-10
5.89281619e-10
5.94561207e-10
6.09004645e-10
6.10760084e-10
5.90645226e-10
5.93921324e-10
6.08715188e-10
6.08333151e-10
5.90011519e-10
5.8938968e-10
5.89443309e-10
5.94852506e-10
6.09286702e-10
6.08407739e-10
6.09595384e-10
6.08696297e-10
6.05435226e-10
5.90209035e-10
5.89621276e-10
5.89595779e-10
5.94955827e-10
6.0904263e-10
6.10561511e-10
5.90319237e-10
5.89721991e-10
5.95984753e-10
6.09112125e-10
6.10004319e-10
5.90439217e-10
5.89800767e-10
5.96401538e-10
6.09139455e-10
6.1035364e-10
5.90305573e-10
5.89730687e-10
5.96237257e-10
6.09187706e-10
6.10472399e-10
5.90218845e-10
5.89740652e-10
5.96521468e-10
6.09162126e-10
6.10391478e-10
5.90238842e-10
5.898153e-10
5.96968171e-10
6.09103862e-10
6.10375245e-10
5.90253435e-10
5.89860154e-10
5.97293203e-10
6.09047718e-10
6.10512012e-10
5.90225821e-10
5.89843021e-10
5.97498534e-10
6.09011127e-10
6.1086562e-10
5.90090411e-10
5.89772771e-10
5.9772483e-10
6.0907233e-10
6.12386942e-10
5.89834561e-10
5.89705221e-10
5.97523106e-10
6.0901163e-10
6.08549826e-10
6.03110927e-10
5.90018307e-10
5.89805737e-10
5.89996176e-10
5.98171433e-10
6.09055642e-10
6.09094378e-10
5.89684712e-10
5.89707072e-10
6.00645285e-10
6.09028018e-10
6.03174794e-10
5.90762308e-10
5.95785458e-10
6.08869692e-10
6.08947876e-10
5.89586908e-10
5.89716102e-10
6.01510768e-10
6.09288708e-10
6.03831467e-10
5.89597041e-10
5.89765715e-10
6.04863918e-10
6.09050078e-10
5.98673526e-10
5.90765563e-10
5.9898314e-10
6.08873458e-10
6.0432329e-10
5.89615393e-10
5.89965041e-10
6.07517858e-10
6.09380082e-10
5.99395079e-10
5.89822368e-10
5.90308943e-10
6.11930215e-10
6.09424429e-10
5.96953343e-10
5.89806035e-10
5.90526615e-10
6.10283587e-10
6.09499464e-10
5.9582092e-10
5.89800553e-10
5.90663e-10
6.09637228e-10
6.09408213e-10
5.95581324e-10
5.89609416e-10
5.89639374e-10
5.90756175e-10
6.09280632e-10
6.09358048e-10
5.92298142e-10
5.91261106e-10
6.11062533e-10
6.09473473e-10
5.94055953e-10
5.89483323e-10
5.91004131e-10
6.09166447e-10
6.09705033e-10
5.9319995e-10
5.89453781e-10
5.91474233e-10
6.0889747e-10
6.09868482e-10
5.91894448e-10
5.89357144e-10
5.91310616e-10
6.08939491e-10
6.10321962e-10
5.91203966e-10
5.91441635e-10
6.09266686e-10
6.09794991e-10
5.91578724e-10
5.89413584e-10
5.91631733e-10
6.0861586e-10
6.09845499e-10
5.91450618e-10
5.89431822e-10
5.91766192e-10
6.08563936e-10
6.09911507e-10
5.91057954e-10
5.89346167e-10
5.91386566e-10
6.08719264e-10
6.10594194e-10
5.90920975e-10
5.91412712e-10
6.08860196e-10
6.09872781e-10
5.90977334e-10
5.89347829e-10
5.91931539e-10
6.08453166e-10
6.09800617e-10
5.90938289e-10
5.89391258e-10
5.92871635e-10
6.08633025e-10
6.10766752e-10
5.90629291e-10
5.90507567e-10
6.05184739e-10
6.08253426e-10
6.11105196e-10
5.9052085e-10
5.90654654e-10
5.94086947e-10
5.96289406e-10
5.97044433e-10
5.95586044e-10
5.94012478e-10
5.91116352e-10
5.91292378e-10
6.02701735e-10
6.08198142e-10
6.11764147e-10
5.90191143e-10
5.91228558e-10
6.08326585e-10
6.10281864e-10
5.90216386e-10
5.8910205e-10
5.9154547e-10
6.0903115e-10
6.1125305e-10
5.90076117e-10
5.90730526e-10
6.08975556e-10
6.11319417e-10
5.90097517e-10
5.90886915e-10
6.08847868e-10
6.11191326e-10
5.90074856e-10
5.91232683e-10
6.08622685e-10
6.1022719e-10
5.89693632e-10
5.89065226e-10
5.9203371e-10
6.08873194e-10
6.10697734e-10
5.90318721e-10
5.91618576e-10
6.08450982e-10
6.10001972e-10
5.89833233e-10
5.89285964e-10
5.92792063e-10
6.0878023e-10
6.10460752e-10
5.90356313e-10
5.91923588e-10
6.08372486e-10
6.09806769e-10
5.89918465e-10
5.89418935e-10
5.94298778e-10
6.08809365e-10
6.09675305e-10
5.8979978e-10
5.89360372e-10
5.93232085e-10
6.08667636e-10
6.10250828e-10
5.90440701e-10
5.92182646e-10
6.08336275e-10
6.09720429e-10
5.8994573e-10
5.89443185e-10
5.94304763e-10
6.08809908e-10
6.0965341e-10
5.89862172e-10
5.89342491e-10
5.93258965e-10
6.08687552e-10
6.10226774e-10
5.90476479e-10
5.92287472e-10
6.08373005e-10
6.09773679e-10
5.89890014e-10
5.89420991e-10
5.94389819e-10
6.08833386e-10
6.09745292e-10
5.89861832e-10
5.89350247e-10
5.93538182e-10
6.0867433e-10
6.10601967e-10
5.90575478e-10
5.92731219e-10
6.08336732e-10
6.0985774e-10
5.89912966e-10
5.8956808e-10
5.95099716e-10
6.08731024e-10
6.09821424e-10
5.89998163e-10
5.89572252e-10
5.95335436e-10
6.08724898e-10
6.09977542e-10
5.89844289e-10
5.89504532e-10
5.94594259e-10
6.086915e-10
6.1097726e-10
5.90814162e-10
5.92112842e-10
6.08607097e-10
6.08872808e-10
5.97497398e-10
5.90311868e-10
5.90394888e-10
5.90865775e-10
5.90731367e-10
5.98362872e-10
6.08391274e-10
6.10242268e-10
5.90031814e-10
5.89628168e-10
5.94385103e-10
6.08808063e-10
6.11832184e-10
5.90382182e-10
5.9213519e-10
6.08594634e-10
6.12500103e-10
5.90241044e-10
5.92572952e-10
6.08736139e-10
6.10560681e-10
5.89244572e-10
5.89136523e-10
5.93939426e-10
6.09006278e-10
6.1223659e-10
5.90400549e-10
5.92757798e-10
6.08722837e-10
6.10615912e-10
5.89321028e-10
5.89314469e-10
5.94307021e-10
6.09009593e-10
6.12346283e-10
5.90493821e-10
5.92984579e-10
6.0880477e-10
6.10941187e-10
5.89257769e-10
5.89332113e-10
5.9453308e-10
6.091325e-10
6.12448461e-10
5.90459383e-10
5.9297151e-10
6.08997197e-10
6.11766807e-10
5.89070822e-10
5.89133588e-10
5.94372194e-10
6.09425766e-10
6.11081738e-10
5.90131895e-10
5.92194887e-10
6.0911015e-10
6.09875735e-10
5.90078599e-10
5.92266051e-10
6.09030507e-10
6.10437874e-10
5.90163901e-10
5.92835187e-10
6.0917911e-10
6.11308015e-10
5.88961355e-10
5.89045079e-10
5.94681918e-10
6.09406435e-10
6.12045377e-10
5.90168936e-10
5.92181478e-10
6.08871841e-10
6.12412961e-10
5.90379412e-10
5.93473272e-10
6.08928375e-10
6.12289726e-10
5.89167726e-10
5.89304778e-10
5.95222447e-10
6.09003085e-10
6.11289895e-10
5.90595815e-10
5.9358741e-10
6.08623175e-10
6.109445e-10
5.89772665e-10
5.89981483e-10
5.9823787e-10
6.08922136e-10
6.10311124e-10
5.900176e-10
5.8995326e-10
5.90389987e-10
5.95870688e-10
6.08794536e-10
6.1004251e-10
5.89349273e-10
5.89202973e-10
5.93167571e-10
6.08999209e-10
6.10469522e-10
5.90120493e-10
5.9117819e-10
6.08624192e-10
6.10479243e-10
5.90040357e-10
5.91076721e-10
6.08588024e-10
6.10169816e-10
5.9003178e-10
5.91213689e-10
6.08821086e-10
6.09702159e-10
5.89236313e-10
5.88695959e-10
5.91154985e-10
6.09317901e-10
6.09734456e-10
5.90013418e-10
5.9048512e-10
6.08892673e-10
6.09749496e-10
5.8992946e-10
5.90463873e-10
6.08890979e-10
6.09541627e-10
5.90027788e-10
5.9051797e-10
6.08801711e-10
6.09238934e-10
5.90274509e-10
5.90874026e-10
6.08718089e-10
6.08937979e-10
5.90083266e-10
5.89206217e-10
5.92117998e-10
6.09086525e-10
6.08760684e-10
5.9053767e-10
5.89321466e-10
5.92354837e-10
6.09127399e-10
6.08779553e-10
5.9057104e-10
5.89299236e-10
5.92297932e-10
6.09773263e-10
6.08898486e-10
6.09130816e-10
6.09300649e-10
5.90825077e-10
5.89734192e-10
5.89733174e-10
5.91335687e-10
6.09221577e-10
6.08767923e-10
5.90849432e-10
5.89339252e-10
5.91100894e-10
6.093758e-10
6.08697043e-10
5.91750118e-10
5.89576272e-10
5.91512999e-10
6.09296562e-10
6.08648575e-10
5.92387242e-10
5.89707801e-10
5.91693389e-10
6.09265326e-10
6.08673645e-10
5.92495844e-10
5.89648774e-10
5.91105537e-10
6.09340232e-10
6.08759671e-10
5.92386414e-10
5.89391392e-10
5.9066414e-10
6.09418834e-10
6.08941203e-10
5.91752242e-10
5.891238e-10
5.90544815e-10
6.10252385e-10
6.09644966e-10
6.09248386e-10
)
;

boundaryField
{
    closed
    {
        type            calculated;
        value           nonuniform List<scalar> 0();
    }
    open
    {
        type            calculated;
        value           nonuniform List<scalar> 0();
    }
    sides
    {
        type            empty;
    }
    procBoundary3to2
    {
        type            processor;
        value           uniform 5.90312605e-10;
    }
    procBoundary3to4
    {
        type            processor;
        value           uniform 6.11133605e-10;
    }
}


// ************************************************************************* //
