/*--------------------------------*- C++ -*----------------------------------*\
| =========                 |                                                 |
| \\      /  F ield         | OpenFOAM: The Open Source CFD Toolbox           |
|  \\    /   O peration     | Version:  2306                                  |
|   \\  /    A nd           | Website:  www.openfoam.com                      |
|    \\/     M anipulation  |                                                 |
\*---------------------------------------------------------------------------*/
FoamFile
{
    version     2.0;
    format      ascii;
    arch        "LSB;label=32;scalar=64";
    class       volScalarField;
    location    "0.0011";
    object      prefDZ_T;
}
// * * * * * * * * * * * * * * * * * * * * * * * * * * * * * * * * * * * * * //

dimensions      [1 -1 -1 -1 0 0 0];

internalField   nonuniform List<scalar> 
531
(
-1.2288598e-09
-1.22950037e-09
-1.1940011e-09
-1.1877582e-09
-1.1903315e-09
-1.22927846e-09
-1.2292854e-09
-1.19345855e-09
-1.18734651e-09
-1.1934545e-09
-1.22865354e-09
-1.22971872e-09
-1.18994575e-09
-1.19706439e-09
-1.22707942e-09
-1.22578508e-09
-1.18908648e-09
-1.19314452e-09
-1.22661393e-09
-1.22819169e-09
-1.1904961e-09
-1.18725975e-09
-1.18923293e-09
-1.23170476e-09
-1.22770904e-09
-1.19879872e-09
-1.18766338e-09
-1.18897831e-09
-1.22361408e-09
-1.22697362e-09
-1.22913806e-09
-1.2267445e-09
-1.22759463e-09
-1.20344025e-09
-1.18818725e-09
-1.18838613e-09
-1.18883772e-09
-1.18826823e-09
-1.18920823e-09
-1.23223752e-09
-1.22787195e-09
-1.2033801e-09
-1.18866198e-09
-1.18904268e-09
-1.22352024e-09
-1.22652048e-09
-1.22726419e-09
-1.19276414e-09
-1.18812402e-09
-1.19052729e-09
-1.23104068e-09
-1.2279034e-09
-1.19295753e-09
-1.18938993e-09
-1.21836112e-09
-1.2289762e-09
-1.20729114e-09
-1.18821493e-09
-1.18726452e-09
-1.18784475e-09
-1.23028635e-09
-1.22762937e-09
-1.23049596e-09
-1.22723912e-09
-1.22791537e-09
-1.19645606e-09
-1.18796983e-09
-1.18738991e-09
-1.19091911e-09
-1.2325202e-09
-1.22809463e-09
-1.19429334e-09
-1.18782143e-09
-1.19234342e-09
-1.23241377e-09
-1.22837036e-09
-1.19539597e-09
-1.18800947e-09
-1.19228165e-09
-1.23261061e-09
-1.22831752e-09
-1.19596932e-09
-1.1880448e-09
-1.19185434e-09
-1.23279226e-09
-1.22820632e-09
-1.196302e-09
-1.18805359e-09
-1.19161989e-09
-1.23278343e-09
-1.2280251e-09
-1.19652008e-09
-1.18809535e-09
-1.19158321e-09
-1.2325654e-09
-1.22782376e-09
-1.19669779e-09
-1.18812011e-09
-1.191611e-09
-1.23221931e-09
-1.22765209e-09
-1.19657613e-09
-1.18806189e-09
-1.19141613e-09
-1.23187536e-09
-1.2275573e-09
-1.19594765e-09
-1.18780145e-09
-1.1910054e-09
-1.23149616e-09
-1.22761445e-09
-1.19464323e-09
-1.18747366e-09
-1.19117745e-09
-1.23249587e-09
-1.22582397e-09
-1.22764482e-09
-1.19380568e-09
-1.18778277e-09
-1.18735313e-09
-1.19086533e-09
-1.2298335e-09
-1.22752604e-09
-1.19234703e-09
-1.18689666e-09
-1.19027429e-09
-1.22921597e-09
-1.22794293e-09
-1.19228241e-09
-1.19123445e-09
-1.22920692e-09
-1.2280582e-09
-1.19219536e-09
-1.18723493e-09
-1.19100336e-09
-1.22842962e-09
-1.22850656e-09
-1.1921429e-09
-1.18713445e-09
-1.19039573e-09
-1.22819318e-09
-1.22914193e-09
-1.1927185e-09
-1.19259385e-09
-1.2289612e-09
-1.22905527e-09
-1.19213255e-09
-1.18770151e-09
-1.19245538e-09
-1.2281433e-09
-1.22915644e-09
-1.19293338e-09
-1.18783163e-09
-1.19304471e-09
-1.22804126e-09
-1.2292563e-09
-1.19328616e-09
-1.18805079e-09
-1.19352966e-09
-1.22800342e-09
-1.22935387e-09
-1.19347853e-09
-1.18814002e-09
-1.1932674e-09
-1.22783954e-09
-1.22931158e-09
-1.19328527e-09
-1.18800563e-09
-1.18813276e-09
-1.19254708e-09
-1.22786282e-09
-1.23056057e-09
-1.19296001e-09
-1.19356747e-09
-1.22902827e-09
-1.22958064e-09
-1.19294438e-09
-1.18783264e-09
-1.19228614e-09
-1.2280827e-09
-1.22953774e-09
-1.1933701e-09
-1.18762032e-09
-1.19182901e-09
-1.22808543e-09
-1.22952608e-09
-1.19310665e-09
-1.18749318e-09
-1.19151247e-09
-1.22806834e-09
-1.2301204e-09
-1.19160738e-09
-1.19193392e-09
-1.22875756e-09
-1.22917216e-09
-1.19292488e-09
-1.18745038e-09
-1.19049436e-09
-1.22800399e-09
-1.22886329e-09
-1.19383752e-09
-1.18730574e-09
-1.19024182e-09
-1.22797981e-09
-1.22861636e-09
-1.19391457e-09
-1.18720911e-09
-1.18984861e-09
-1.2277727e-09
-1.22769453e-09
-1.1918275e-09
-1.1906328e-09
-1.22927724e-09
-1.22795712e-09
-1.19465315e-09
-1.18721867e-09
-1.18949997e-09
-1.22805444e-09
-1.22797629e-09
-1.19571324e-09
-1.1870711e-09
-1.18904883e-09
-1.22827525e-09
-1.2276731e-09
-1.19184631e-09
-1.18921154e-09
-1.22144081e-09
-1.22810529e-09
-1.22732086e-09
-1.22786094e-09
-1.19565231e-09
-1.18801195e-09
-1.18856761e-09
-1.1889545e-09
-1.189109e-09
-1.1885751e-09
-1.18985953e-09
-1.23012837e-09
-1.22584309e-09
-1.22796561e-09
-1.20202931e-09
-1.18875501e-09
-1.18952337e-09
-1.22835718e-09
-1.22724106e-09
-1.19729352e-09
-1.18681689e-09
-1.18783446e-09
-1.22930041e-09
-1.22690066e-09
-1.19191859e-09
-1.18912234e-09
-1.23092502e-09
-1.22712077e-09
-1.19047922e-09
-1.18909597e-09
-1.23103227e-09
-1.22736666e-09
-1.19028467e-09
-1.18944551e-09
-1.23095112e-09
-1.22802861e-09
-1.19071833e-09
-1.18640892e-09
-1.18901599e-09
-1.23008415e-09
-1.22737675e-09
-1.19084422e-09
-1.19000083e-09
-1.23120137e-09
-1.22782713e-09
-1.19189777e-09
-1.18694099e-09
-1.18956796e-09
-1.23008308e-09
-1.22728875e-09
-1.19184924e-09
-1.19038624e-09
-1.23142698e-09
-1.22763125e-09
-1.19315956e-09
-1.18719513e-09
-1.19010599e-09
-1.22996592e-09
-1.2277384e-09
-1.19390705e-09
-1.18731548e-09
-1.18969225e-09
-1.23032724e-09
-1.22705758e-09
-1.19299272e-09
-1.19042123e-09
-1.23227152e-09
-1.22758601e-09
-1.19465549e-09
-1.18736342e-09
-1.18990407e-09
-1.2303965e-09
-1.22775391e-09
-1.19525082e-09
-1.18742658e-09
-1.18943475e-09
-1.23090647e-09
-1.22711536e-09
-1.19379223e-09
-1.19038077e-09
-1.23338797e-09
-1.2276841e-09
-1.19567943e-09
-1.18745451e-09
-1.18962914e-09
-1.23103014e-09
-1.22781864e-09
-1.19624932e-09
-1.18757564e-09
-1.18942973e-09
-1.23131164e-09
-1.22720155e-09
-1.19466119e-09
-1.19055604e-09
-1.23400443e-09
-1.22765092e-09
-1.19701951e-09
-1.18770671e-09
-1.18983703e-09
-1.23116279e-09
-1.22774947e-09
-1.19740865e-09
-1.18778542e-09
-1.18994252e-09
-1.23110953e-09
-1.22761237e-09
-1.19805154e-09
-1.18812967e-09
-1.1901277e-09
-1.23098181e-09
-1.226709e-09
-1.19808359e-09
-1.19300768e-09
-1.23332607e-09
-1.22685447e-09
-1.19921606e-09
-1.18921158e-09
-1.18963229e-09
-1.1898178e-09
-1.18911759e-09
-1.19100059e-09
-1.23035352e-09
-1.22727718e-09
-1.19967615e-09
-1.1881288e-09
-1.1893886e-09
-1.23116773e-09
-1.22701768e-09
-1.19571294e-09
-1.19020097e-09
-1.2325739e-09
-1.22714952e-09
-1.19444777e-09
-1.18998078e-09
-1.233345e-09
-1.22794761e-09
-1.19604511e-09
-1.18700345e-09
-1.18790266e-09
-1.23161314e-09
-1.22734385e-09
-1.19404627e-09
-1.18956234e-09
-1.2341237e-09
-1.2279792e-09
-1.19595454e-09
-1.186943e-09
-1.18785152e-09
-1.23131747e-09
-1.22727612e-09
-1.19376157e-09
-1.18960503e-09
-1.23363685e-09
-1.22793987e-09
-1.1950843e-09
-1.18670911e-09
-1.18797068e-09
-1.23086121e-09
-1.22747269e-09
-1.19260699e-09
-1.1896038e-09
-1.23193104e-09
-1.22831379e-09
-1.19254681e-09
-1.18632959e-09
-1.18835881e-09
-1.23017137e-09
-1.22811914e-09
-1.19125986e-09
-1.18955395e-09
-1.23051709e-09
-1.22875973e-09
-1.19059967e-09
-1.19003058e-09
-1.22988721e-09
-1.23034214e-09
-1.19013544e-09
-1.19064835e-09
-1.22950348e-09
-1.23051156e-09
-1.18909358e-09
-1.18653824e-09
-1.19163576e-09
-1.22951617e-09
-1.23344654e-09
-1.19017631e-09
-1.19296539e-09
-1.22847952e-09
-1.23091838e-09
-1.1900898e-09
-1.19482563e-09
-1.22833933e-09
-1.23340278e-09
-1.18858418e-09
-1.18772075e-09
-1.20093243e-09
-1.22892308e-09
-1.2193847e-09
-1.19096609e-09
-1.20165051e-09
-1.22808302e-09
-1.22527099e-09
-1.18862804e-09
-1.18872701e-09
-1.20968934e-09
-1.22895887e-09
-1.21980526e-09
-1.18868041e-09
-1.18799696e-09
-1.18889837e-09
-1.21380067e-09
-1.23000914e-09
-1.20688272e-09
-1.1879811e-09
-1.188559e-09
-1.21783722e-09
-1.2303451e-09
-1.20086157e-09
-1.19047595e-09
-1.21514458e-09
-1.23038868e-09
-1.19961243e-09
-1.19028945e-09
-1.21817164e-09
-1.23093617e-09
-1.19690464e-09
-1.19024302e-09
-1.22252133e-09
-1.23188746e-09
-1.19463159e-09
-1.18681303e-09
-1.18822645e-09
-1.2302946e-09
-1.23173038e-09
-1.19304874e-09
-1.19006672e-09
-1.22759169e-09
-1.23144161e-09
-1.1923748e-09
-1.19012741e-09
-1.23309716e-09
-1.23117798e-09
-1.19163234e-09
-1.19038673e-09
-1.23234028e-09
-1.23180882e-09
-1.19161722e-09
-1.1912557e-09
-1.23026479e-09
-1.23113961e-09
-1.19103832e-09
-1.18703391e-09
-1.19142926e-09
-1.22926403e-09
-1.23063785e-09
-1.19118842e-09
-1.18716385e-09
-1.19220435e-09
-1.22869204e-09
-1.23016781e-09
-1.19102958e-09
-1.18715194e-09
-1.19311973e-09
-1.22893447e-09
-1.22805197e-09
-1.22812152e-09
-1.23062404e-09
-1.19134139e-09
-1.18778898e-09
-1.18830244e-09
-1.19256055e-09
-1.22814121e-09
-1.22884954e-09
-1.19083404e-09
-1.18751901e-09
-1.19307351e-09
-1.22817641e-09
-1.22824072e-09
-1.19102869e-09
-1.18773983e-09
-1.19338067e-09
-1.2285219e-09
-1.22827782e-09
-1.19162074e-09
-1.18798461e-09
-1.19348175e-09
-1.22917173e-09
-1.22852113e-09
-1.19181838e-09
-1.18798118e-09
-1.19288195e-09
-1.23005885e-09
-1.22893669e-09
-1.19156766e-09
-1.18769235e-09
-1.19182619e-09
-1.23112871e-09
-1.22941241e-09
-1.19113718e-09
-1.18733765e-09
-1.19110424e-09
-1.23207257e-09
-1.22868301e-09
-1.22844174e-09
-1.23318327e-09
)
;

boundaryField
{
    closed
    {
        type            calculated;
        value           nonuniform List<scalar> 0();
    }
    open
    {
        type            calculated;
        value           nonuniform List<scalar> 0();
    }
    sides
    {
        type            empty;
    }
    procBoundary3to2
    {
        type            processor;
        value           uniform -1.19177746e-09;
    }
    procBoundary3to4
    {
        type            processor;
        value           uniform -1.18946846e-09;
    }
}


// ************************************************************************* //
