/*--------------------------------*- C++ -*----------------------------------*\
| =========                 |                                                 |
| \\      /  F ield         | OpenFOAM: The Open Source CFD Toolbox           |
|  \\    /   O peration     | Version:  2306                                  |
|   \\  /    A nd           | Website:  www.openfoam.com                      |
|    \\/     M anipulation  |                                                 |
\*---------------------------------------------------------------------------*/
FoamFile
{
    version     2.0;
    format      ascii;
    arch        "LSB;label=32;scalar=64";
    class       volScalarField;
    location    "0.0009";
    object      prefDh_H2;
}
// * * * * * * * * * * * * * * * * * * * * * * * * * * * * * * * * * * * * * //

dimensions      [1 1 -3 0 0 0 0];

internalField   nonuniform List<scalar> 
530
(
4040.75094
4049.34244
4056.98268
4065.22535
4072.53239
4080.4485
4087.45255
4095.04706
4101.75812
4109.07164
4115.39257
4122.11482
4128.02266
4134.82876
4140.90368
4147.71876
4153.55397
4160.09084
4165.70083
4171.96862
4177.36693
4183.37605
4188.57524
4194.33729
4199.25302
4204.45695
4208.9527
4213.93625
4218.23386
4223.01013
4227.11001
4231.69464
4235.59514
4240.0047
4243.70362
4247.95444
4251.45013
4255.55746
4258.84974
4262.826
4265.91783
4269.76776
4272.66998
4276.29391
4279.01666
4282.2988
4284.89401
4287.93101
4290.4746
4293.27649
4295.75927
4298.34124
4300.75387
4303.13081
4305.46627
4307.65096
4309.90478
4311.90787
4314.0776
4315.90812
4317.9925
4319.65854
4321.65677
4323.16613
4325.07723
4326.43772
4328.26046
4329.47978
4331.21366
4332.29847
4333.94509
4334.9003
4336.43193
4337.21152
4338.55373
4339.1489
4340.41294
4340.87538
4342.0677
4342.42348
4343.53445
4343.76911
4344.79114
4344.90918
4345.84147
4345.8467
4346.68903
4346.58481
4347.33731
4347.12675
4347.78976
4347.47584
4348.04975
4347.63543
4348.12071
4347.60895
4348.00607
4347.39984
4347.70932
4347.01166
4347.23405
4346.44801
4346.58388
4345.71256
4345.76256
4344.80911
4344.77395
4343.7415
4343.62202
4342.51375
4342.31089
4341.12996
4340.84485
4339.5944
4339.22839
4337.91152
4337.46621
4336.08598
4335.56321
4334.12266
4333.52456
4332.02672
4331.32643
4329.71684
4328.91845
4327.25234
4326.37624
4324.655
4323.70299
4321.92782
4320.90193
4319.07363
4317.97636
4316.09498
4314.92961
4312.99393
4311.76432
4309.7734
4308.5235
4306.46104
4305.10704
4303.03234
4301.58105
4299.48931
4297.9479
4295.83531
4294.20996
4292.07371
4290.37003
4288.20805
4286.43121
4284.24203
4282.39678
4280.17949
4278.27012
4276.02428
4274.05465
4271.78026
4269.75386
4267.45122
4265.37124
4263.04088
4260.91998
4258.58805
4256.43259
4254.07521
4251.87563
4249.49377
4247.25264
4244.84734
4242.56715
4240.1395
4237.82269
4235.37381
4233.02281
4230.55383
4228.17104
4225.68314
4223.2709
4220.76529
4218.32595
4215.80386
4213.3397
4210.80242
4208.3157
4205.76454
4203.25748
4200.69381
4198.16856
4195.59377
4193.05246
4190.46799
4187.9127
4185.32001
4182.75276
4180.15335
4177.5804
4174.98962
4172.41588
4169.81632
4167.23195
4164.62539
4162.03243
4159.42061
4156.82108
4154.20578
4151.60167
4148.98467
4146.37796
4143.76104
4141.15368
4138.53861
4135.93257
4133.32114
4130.71836
4128.11234
4125.51476
4122.91592
4120.3255
4117.73561
4115.15429
4112.5751
4110.00488
4107.43813
4104.8832
4102.33699
4099.81517
4097.30125
4094.79662
4092.30109
4089.81469
4087.33835
4084.87117
4082.4148
4079.96774
4077.53216
4075.10607
4072.69204
4070.28774
4067.89602
4065.51427
4063.14558
4060.78713
4058.44216
4056.1077
4053.78712
4051.4773
4049.18175
4046.89722
4044.62729
4042.36864
4040.1249
4037.8927
4035.67569
4033.47048
4031.2807
4029.10297
4026.94089
4024.79113
4022.6572
4020.53584
4018.43047
4016.33792
4014.26149
4012.19812
4010.15098
4008.11716
4006.09964
4004.09566
4002.10805
4000.13422
3998.17678
3996.23336
3994.30632
3992.39356
3990.49712
3988.61523
3986.74955
3984.89872
3983.06394
3981.24433
3979.44058
3977.65232
3975.87969
3974.12289
3972.38616
3970.68103
3968.99037
3967.31491
3965.65408
3964.00849
3962.37763
3960.76207
3959.16131
3957.57592
3956.00534
3954.45023
3952.90988
3951.38511
3949.87504
3948.38065
3946.90086
3945.43685
3943.98733
3942.55367
3941.13439
3939.73103
3938.34193
3936.96879
3935.60976
3934.26675
3932.93769
3931.62469
3930.32543
3929.04231
3927.7727
3926.51478
3925.26523
3924.03219
3922.81278
3921.60971
3920.42015
3919.24676
3918.08674
3916.94275
3915.81196
3914.69705
3913.59516
3912.50902
3911.4357
3910.37797
3909.33288
3908.30321
3907.286
3906.28401
3905.29431
3904.31964
3903.35708
3902.40933
3901.47353
3900.5523
3899.64286
3898.74777
3897.86428
3896.9949
3896.13697
3895.29289
3894.46009
3893.64089
3892.83281
3892.03805
3891.25425
3890.48351
3889.72357
3888.9764
3888.23988
3887.51585
3886.8023
3886.10096
3885.40995
3884.73086
3884.06194
3883.40464
3882.75736
3882.12141
3881.49532
3880.88027
3880.27492
3879.68032
3879.09525
3878.52065
3877.95541
3877.40037
3876.85451
3876.31856
3875.79164
3875.27434
3874.76589
3874.2668
3873.77639
3873.29506
3872.82224
3872.35823
3871.90255
3871.45543
3871.01645
3870.58577
3870.16306
3869.7484
3869.34152
3868.94244
3868.55096
3868.16705
3867.79054
3867.42138
3867.05943
3866.7046
3866.35677
3866.01586
3865.68177
3865.35437
3865.03359
3864.71932
3864.41146
3864.1099
3863.81456
3863.52535
3863.24214
3862.96488
3862.69342
3862.42774
3862.16765
3861.91318
3861.66409
3861.42046
3861.18202
3860.94888
3860.72073
3860.49773
3860.27951
3860.0663
3859.85768
3859.65393
3859.45457
3859.25995
3859.06952
3858.8837
3858.70189
3858.52456
3858.35105
3858.1819
3858.01639
3857.85512
3857.69731
3857.54363
3857.39323
3857.24684
3857.10357
3856.9642
3856.82778
3856.69516
3856.56533
3856.43918
3856.31568
3856.19575
3856.07832
3855.96436
3855.85277
3855.74453
3855.63853
3855.53577
3855.43513
3855.33753
3855.23843
3855.13584
3855.02862
3854.91817
3854.80327
3854.68558
3854.56381
3854.4399
3854.31256
3854.18395
3854.05282
3853.92156
3853.78904
3853.65773
3853.52674
3853.39849
3853.27246
3853.15072
3853.03338
3852.92179
3852.81683
3852.71882
3852.62948
3852.54791
3852.47645
3852.41317
3852.36036
3852.31575
3852.28066
3852.25328
3852.2335
3852.22014
3852.21225
3852.20884
3852.20859
3852.2115
3852.21508
3852.22065
3852.21059
3852.1982
3852.19169
3852.18836
3852.18681
3852.18612
3852.18587
3852.18578
3852.18573
3852.18571
3852.18571
3852.18571
3852.18571
3852.18571
3852.18571
3852.18571
3852.18571
3852.18571
3852.18571
3852.18571
3852.18571
3852.18571
3852.18571
3852.18571
3852.18571
3852.18571
3852.18571
3852.18571
3852.18571
3852.18571
3852.18571
3852.18571
3852.18571
3852.18571
3852.18571
3852.18571
3852.18571
3852.18571
3852.18571
)
;

boundaryField
{
    closed
    {
        type            calculated;
        value           nonuniform List<scalar> 0();
    }
    open
    {
        type            calculated;
        value           uniform 3852.18571;
    }
    sides
    {
        type            empty;
    }
    procBoundary5to4
    {
        type            processor;
        value           uniform 4032.50188;
    }
}


// ************************************************************************* //
