/*--------------------------------*- C++ -*----------------------------------*\
| =========                 |                                                 |
| \\      /  F ield         | OpenFOAM: The Open Source CFD Toolbox           |
|  \\    /   O peration     | Version:  2306                                  |
|   \\  /    A nd           | Website:  www.openfoam.com                      |
|    \\/     M anipulation  |                                                 |
\*---------------------------------------------------------------------------*/
FoamFile
{
    version     2.0;
    format      ascii;
    arch        "LSB;label=32;scalar=64";
    class       volScalarField;
    location    "0.0009";
    object      prefDh_H;
}
// * * * * * * * * * * * * * * * * * * * * * * * * * * * * * * * * * * * * * //

dimensions      [1 1 -3 0 0 0 0];

internalField   nonuniform List<scalar> 
530
(
92622.9921
92704.322
92776.9464
92854.9083
92924.3146
92999.1322
93065.6138
93137.2541
93200.7874
93269.6828
93329.426
93392.5918
93448.348
93512.1731
93569.3267
93633.1217
93687.9935
93749.1703
93801.8998
93860.5515
93911.2691
93967.4996
94016.3263
94070.2491
94116.3496
94164.8974
94206.9658
94253.4846
94293.714
94338.3268
94376.7248
94419.5776
94456.1333
94497.3799
94532.077
94571.8688
94604.6964
94643.1743
94674.1345
94711.4136
94740.5372
94776.6621
94804.0521
94838.1115
94863.8354
94894.6931
94919.2408
94947.8537
94971.9532
94998.4142
95021.9841
95046.4338
95069.3908
95091.9671
95114.2481
95135.0703
95156.6351
95175.803
95196.6292
95214.2282
95234.3042
95250.4109
95269.7288
95284.4173
95302.9674
95316.312
95334.0823
95346.1556
95363.1408
95374.0061
95390.2198
95399.9242
95415.0917
95423.2172
95436.6175
95443.1196
95455.7931
95461.1569
95473.1091
95477.4618
95488.6336
95491.9385
95502.2935
95504.5893
95514.1229
95515.4423
95524.1552
95524.5269
95532.4226
95531.8732
95538.9568
95537.5116
95543.7887
95541.473
95546.9496
95543.7887
95548.4709
95544.4902
95548.3841
95543.6095
95546.7216
95541.1793
95543.516
95537.2327
95538.8011
95531.8037
95532.6113
95524.9268
95524.982
95516.6377
95515.9499
95506.9732
95505.5533
95495.9711
95493.8318
95483.6709
95480.8271
95470.1138
95466.5825
95455.3432
95451.1437
95439.4045
95434.3115
95421.6119
95415.6576
95402.4631
95395.8202
95382.1422
95374.8267
95360.6749
95352.7046
95338.0858
95329.4821
95314.3962
95305.1876
95289.624
95279.8438
95263.7932
95253.8132
95237.1373
95226.2531
95209.4491
95197.7199
95180.7464
95168.2334
95151.0574
95137.8134
95120.4109
95106.4838
95088.8369
95074.2707
95056.3669
95041.202
95023.0336
95007.3063
94988.8697
94972.6128
94953.908
94937.1509
94918.1806
94900.9502
94881.7193
94864.01
94844.4484
94826.2822
94806.4804
94787.9194
94767.886
94748.9521
94728.6962
94709.4108
94688.942
94669.326
94648.654
94628.7283
94607.8631
94587.6483
94566.6001
94546.1165
94524.896
94504.1637
94482.7817
94461.8205
94440.2883
94419.1176
94397.4468
94376.0857
94354.2882
94332.7556
94310.8438
94289.1579
94267.1444
94245.3233
94223.2211
94201.2824
94179.1047
94157.0807
94134.8797
94112.7745
94090.4755
94068.2596
94045.8785
94023.57
94001.1228
93978.7398
93956.2426
93933.8028
93911.2718
93888.793
93866.2443
93843.744
93821.1939
93798.6896
93776.1542
93753.6636
93731.1592
93708.6997
93686.2424
93663.8317
93641.4377
93619.0934
93596.7788
93574.5189
93552.2997
93530.1834
93508.1966
93486.1336
93464.152
93442.2335
93420.4061
93398.6416
93376.9755
93355.3735
93333.876
93312.4447
93291.1229
93269.8699
93248.7309
93227.6634
93206.7139
93185.8389
93165.0854
93144.4095
93123.8584
93103.3877
93083.045
93062.7856
93042.6571
93022.6147
93002.7057
92982.8858
92963.2016
92943.6092
92924.1547
92904.7947
92885.5745
92866.4516
92847.47
92828.5885
92809.8496
92791.2135
92772.7212
92754.3342
92736.092
92717.9577
92699.9689
92682.0905
92664.3581
92646.7385
92629.2653
92611.9074
92594.6959
92577.602
92560.6544
92543.827
92527.1451
92510.5863
92494.1718
92477.8834
92461.7378
92445.7214
92429.8457
92414.1028
92398.4979
92383.0296
92367.7262
92352.6587
92337.718
92322.9082
92308.227
92293.6771
92279.2571
92264.9689
92250.8114
92236.7865
92222.8926
92209.1322
92195.5026
92182.0077
92168.6431
92155.4142
92142.3149
92129.3525
92116.5186
92103.8226
92091.2542
92078.8243
92066.521
92054.3569
92042.3182
92030.4193
92018.6442
92007.0097
91995.4971
91984.1261
91972.8749
91961.6568
91950.4345
91939.3598
91928.4079
91917.6018
91906.9175
91896.3777
91885.9584
91875.6825
91865.5256
91855.5108
91845.6134
91835.857
91826.2163
91816.7152
91807.3283
91798.0795
91788.9432
91779.9434
91771.0545
91762.3004
91753.6558
91745.144
91736.7402
91728.4672
91720.3007
91712.263
91704.3303
91696.5242
91688.8217
91681.2436
91673.7675
91666.4136
91659.1603
91652.0267
91644.9924
91638.0753
91631.2561
91624.5517
91617.9437
91611.4479
91605.0471
91598.7561
91592.5586
91586.4683
91580.4701
91574.5765
91568.7736
91563.0727
91557.461
91551.9487
91546.5243
91541.1965
91535.9552
91530.808
91525.7458
91520.775
91515.8878
91511.0895
91506.3732
91501.7432
91497.1938
91492.7283
91488.3417
91484.0365
91479.8087
91475.6599
91471.5869
91467.5905
91463.6683
91459.8205
91456.0451
91452.3419
91448.7094
91445.1469
91441.6535
91438.2278
91434.8696
91431.577
91428.3501
91425.1869
91422.0875
91419.0499
91416.0744
91413.1587
91410.3034
91407.5061
91404.7672
91402.0846
91399.4587
91396.8874
91394.3709
91391.9074
91389.4967
91387.1376
91384.8295
91382.5713
91380.3624
91378.202
91376.0888
91374.0229
91372.0024
91370.0278
91368.0967
91366.2103
91364.3656
91362.5642
91360.8029
91359.0837
91357.4026
91355.7626
91354.159
91352.5953
91351.0663
91349.5761
91348.119
91346.6995
91345.3115
91343.9602
91342.6387
91341.3529
91340.0953
91338.8724
91337.6764
91336.5139
91335.3769
91334.2725
91333.1921
91332.1434
91331.1174
91330.1221
91329.1483
91328.2041
91327.2803
91326.3852
91325.5093
91324.6603
91323.799
91322.9079
91321.9775
91321.0199
91320.0248
91319.0065
91317.9544
91316.8852
91315.7879
91314.6817
91313.5559
91312.4313
91311.2984
91310.1789
91309.0654
91307.9788
91306.915
91305.8919
91304.9108
91303.9829
91303.1164
91302.3133
91301.5889
91300.9344
91300.37
91299.8781
91299.478
91299.1492
91298.9021
91298.7206
91298.6019
91298.5363
91298.5134
91298.5258
91298.5599
91298.6183
91298.6734
91298.7448
91298.6583
91298.5432
91298.4829
91298.4522
91298.4379
91298.4316
91298.4292
91298.4284
91298.428
91298.4278
91298.4278
91298.4278
91298.4278
91298.4278
91298.4278
91298.4278
91298.4278
91298.4278
91298.4278
91298.4278
91298.4278
91298.4278
91298.4278
91298.4278
91298.4278
91298.4278
91298.4278
91298.4278
91298.4278
91298.4278
91298.4278
91298.4278
91298.4278
91298.4278
91298.4278
91298.4278
91298.4278
91298.4278
91298.4278
)
;

boundaryField
{
    closed
    {
        type            calculated;
        value           nonuniform List<scalar> 0();
    }
    open
    {
        type            calculated;
        value           uniform 91298.4278;
    }
    sides
    {
        type            empty;
    }
    procBoundary5to4
    {
        type            processor;
        value           uniform 92544.4667;
    }
}


// ************************************************************************* //
