/*--------------------------------*- C++ -*----------------------------------*\
| =========                 |                                                 |
| \\      /  F ield         | OpenFOAM: The Open Source CFD Toolbox           |
|  \\    /   O peration     | Version:  2306                                  |
|   \\  /    A nd           | Website:  www.openfoam.com                      |
|    \\/     M anipulation  |                                                 |
\*---------------------------------------------------------------------------*/
FoamFile
{
    version     2.0;
    format      ascii;
    arch        "LSB;label=32;scalar=64";
    class       volScalarField;
    location    "0.00062";
    object      alpha;
}
// * * * * * * * * * * * * * * * * * * * * * * * * * * * * * * * * * * * * * //

dimensions      [1 -1 -1 0 0 0 0];

internalField   nonuniform List<scalar> 
530
(
7.63747012e-05
7.63501946e-05
7.64231317e-05
7.64446833e-05
7.65131675e-05
7.6472719e-05
7.65575174e-05
7.65604096e-05
7.66823872e-05
7.66063551e-05
7.66286195e-05
7.6664816e-05
7.67957171e-05
7.67299517e-05
7.67170465e-05
7.67732841e-05
7.6900209e-05
7.68467534e-05
7.68149252e-05
7.68855177e-05
7.70016228e-05
7.69578395e-05
7.69212872e-05
7.69990826e-05
7.71042467e-05
7.70680955e-05
7.70338421e-05
7.71150074e-05
7.721073e-05
7.71825513e-05
7.715193e-05
7.72349923e-05
7.73219549e-05
7.73009393e-05
7.72772241e-05
7.73594242e-05
7.74430839e-05
7.74250911e-05
7.74096525e-05
7.74875792e-05
7.75699542e-05
7.7555703e-05
7.75502942e-05
7.76232631e-05
7.77008222e-05
7.76927181e-05
7.76968948e-05
7.77663354e-05
7.78413107e-05
7.783692e-05
7.78504545e-05
7.79207873e-05
7.79848758e-05
7.79874269e-05
7.80407222e-05
7.80797549e-05
7.8134739e-05
7.81452127e-05
7.82144574e-05
7.82431247e-05
7.83030851e-05
7.83078884e-05
7.83991326e-05
7.84211433e-05
7.84730471e-05
7.84840915e-05
7.86093566e-05
7.86165634e-05
7.86434191e-05
7.86652356e-05
7.87604932e-05
7.8813676e-05
7.88301426e-05
7.88564336e-05
7.8927901e-05
7.8964887e-05
7.90308161e-05
7.90724057e-05
7.91014915e-05
7.91333474e-05
7.92282771e-05
7.92674179e-05
7.92716879e-05
7.93046137e-05
7.93562015e-05
7.9404107e-05
7.94525875e-05
7.94832736e-05
7.95456495e-05
7.95924057e-05
7.96344893e-05
7.96692837e-05
7.97745255e-05
7.97843731e-05
7.98179642e-05
7.98562008e-05
7.99424955e-05
7.99984649e-05
8.00190417e-05
8.00459755e-05
8.00863384e-05
8.02076961e-05
8.02376606e-05
8.02255652e-05
8.02538615e-05
8.03792457e-05
8.03566706e-05
8.04022431e-05
8.04300264e-05
8.0542552e-05
8.0526376e-05
8.05746175e-05
8.06020118e-05
8.07119253e-05
8.06990034e-05
8.07407115e-05
8.07673813e-05
8.08840077e-05
8.08664268e-05
8.09003226e-05
8.09297696e-05
8.10524421e-05
8.10282805e-05
8.10572767e-05
8.10888842e-05
8.12158723e-05
8.11821611e-05
8.12093554e-05
8.1240824e-05
8.13701434e-05
8.13301699e-05
8.13576437e-05
8.13867137e-05
8.14985326e-05
8.1472625e-05
8.1499126e-05
8.15290488e-05
8.16129764e-05
8.15991438e-05
8.16349571e-05
8.16664282e-05
8.17517789e-05
8.17418343e-05
8.17671082e-05
8.17978248e-05
8.18818959e-05
8.18722346e-05
8.18917309e-05
8.19220877e-05
8.200286e-05
8.19876517e-05
8.20086239e-05
8.20368337e-05
8.21122894e-05
8.20940428e-05
8.21198321e-05
8.21435067e-05
8.22148657e-05
8.21917282e-05
8.22208979e-05
8.22455381e-05
8.23004028e-05
8.22872947e-05
8.23169137e-05
8.23427048e-05
8.23937891e-05
8.23816674e-05
8.24095874e-05
8.24344691e-05
8.24832359e-05
8.24717308e-05
8.24962978e-05
8.25201729e-05
8.25662191e-05
8.25555444e-05
8.25776053e-05
8.2599864e-05
8.26422287e-05
8.26313082e-05
8.26522033e-05
8.26734143e-05
8.27118425e-05
8.27018252e-05
8.27230275e-05
8.27414619e-05
8.27752682e-05
8.27663285e-05
8.27853058e-05
8.28049509e-05
8.28327288e-05
8.28263999e-05
8.28426018e-05
8.28638596e-05
8.28869579e-05
8.28822122e-05
8.28957745e-05
8.29180271e-05
8.29374655e-05
8.29337069e-05
8.2944752e-05
8.29675833e-05
8.29846337e-05
8.29810999e-05
8.29898641e-05
8.30128488e-05
8.30284855e-05
8.30245226e-05
8.30312444e-05
8.30541544e-05
8.30672687e-05
8.30643583e-05
8.30694706e-05
8.30919313e-05
8.31030543e-05
8.31006909e-05
8.31046788e-05
8.31259121e-05
8.31353275e-05
8.31333386e-05
8.31369678e-05
8.31566291e-05
8.3164937e-05
8.31630146e-05
8.31664621e-05
8.31845192e-05
8.31918232e-05
8.31899859e-05
8.31931457e-05
8.32097117e-05
8.32160115e-05
8.32143866e-05
8.32170038e-05
8.32325348e-05
8.32375864e-05
8.32364847e-05
8.32383637e-05
8.32532796e-05
8.32566567e-05
8.32562645e-05
8.32570974e-05
8.3270789e-05
8.32719431e-05
8.32740221e-05
8.32737529e-05
8.32876354e-05
8.32871615e-05
8.3290056e-05
8.32888485e-05
8.33024522e-05
8.33009459e-05
8.33041987e-05
8.33025314e-05
8.33154149e-05
8.33134418e-05
8.3316651e-05
8.33148779e-05
8.33267639e-05
8.33247155e-05
8.33276031e-05
8.33259496e-05
8.33366792e-05
8.33348274e-05
8.33372158e-05
8.33358055e-05
8.33453204e-05
8.33438597e-05
8.33458002e-05
8.33444997e-05
8.33531059e-05
8.33520887e-05
8.335316e-05
8.33519175e-05
8.33599088e-05
8.33611067e-05
8.33597288e-05
8.33602309e-05
8.33641524e-05
8.33694683e-05
8.33663245e-05
8.33690858e-05
8.336885e-05
8.33781636e-05
8.33712641e-05
8.3376494e-05
8.33732191e-05
8.33841535e-05
8.33755542e-05
8.33819635e-05
8.33771846e-05
8.3388714e-05
8.33793452e-05
8.33862565e-05
8.3380758e-05
8.33926004e-05
8.33827155e-05
8.33899411e-05
8.338385e-05
8.33937502e-05
8.33856569e-05
8.33936759e-05
8.33865126e-05
8.33943446e-05
8.33881588e-05
8.33958624e-05
8.33887343e-05
8.33961067e-05
8.33903135e-05
8.33965484e-05
8.33906268e-05
8.33982506e-05
8.33928571e-05
8.33971457e-05
8.33929116e-05
8.33985683e-05
8.33986025e-05
8.3397642e-05
8.33970141e-05
8.33979501e-05
8.33975154e-05
8.33981061e-05
8.33978728e-05
8.33974783e-05
8.33960913e-05
8.33981936e-05
8.33968594e-05
8.33975479e-05
8.33961494e-05
8.33983792e-05
8.33969856e-05
8.3397792e-05
8.33965805e-05
8.33987434e-05
8.33974646e-05
8.33982206e-05
8.33971365e-05
8.33991382e-05
8.33979808e-05
8.33986595e-05
8.33976894e-05
8.33995076e-05
8.33984676e-05
8.33990646e-05
8.33981947e-05
8.33998354e-05
8.33989008e-05
8.33994225e-05
8.33986398e-05
8.34001177e-05
8.33992781e-05
8.33997326e-05
8.3399029e-05
8.34003565e-05
8.33996047e-05
8.34000014e-05
8.33993665e-05
8.34005597e-05
8.3399882e-05
8.34002374e-05
8.3399652e-05
8.34007425e-05
8.34001149e-05
8.34004394e-05
8.3399888e-05
8.34008984e-05
8.34003171e-05
8.34006158e-05
8.34001071e-05
8.34010207e-05
8.34004974e-05
8.34007635e-05
8.34003057e-05
8.34011244e-05
8.34006605e-05
8.34008946e-05
8.34004818e-05
8.34012174e-05
8.34007954e-05
8.34010074e-05
8.34006232e-05
8.3401304e-05
8.34009145e-05
8.34011047e-05
8.34007488e-05
8.34013697e-05
8.34010199e-05
8.34011933e-05
8.34008767e-05
8.34014266e-05
8.34011262e-05
8.34012747e-05
8.34009943e-05
8.34014825e-05
8.34012178e-05
8.3401339e-05
8.34010848e-05
8.34015303e-05
8.34013001e-05
8.3401401e-05
8.34011815e-05
8.34015651e-05
8.34013726e-05
8.34014527e-05
8.34012672e-05
8.34015973e-05
8.3401435e-05
8.34015018e-05
8.34013435e-05
8.34016288e-05
8.34014895e-05
8.34015484e-05
8.34014116e-05
8.34016602e-05
8.34015384e-05
8.34015921e-05
8.34014736e-05
8.34016895e-05
8.34015846e-05
8.3401633e-05
8.34015337e-05
8.34017157e-05
8.340163e-05
8.34016713e-05
8.34015929e-05
8.34017403e-05
8.34016753e-05
8.34017076e-05
8.34016504e-05
8.34017639e-05
8.34017194e-05
8.34017426e-05
8.34017055e-05
8.34017871e-05
8.34017614e-05
8.34017772e-05
8.34017577e-05
8.34018115e-05
8.34018001e-05
8.34018111e-05
8.34018054e-05
8.34018373e-05
8.34018322e-05
8.34018394e-05
8.34018465e-05
8.3401862e-05
8.34018449e-05
8.34018285e-05
8.34018293e-05
8.34018078e-05
8.34018e-05
8.34017861e-05
8.34017795e-05
8.34017668e-05
8.34017604e-05
8.34017492e-05
8.34017426e-05
8.34017317e-05
8.34017248e-05
8.34017143e-05
8.34017074e-05
8.34016975e-05
8.34016907e-05
8.34016818e-05
8.34016754e-05
8.34016677e-05
8.3401662e-05
8.34016556e-05
8.34016506e-05
8.34016456e-05
8.34016416e-05
8.34016378e-05
8.34016348e-05
8.34016321e-05
8.340163e-05
8.34016283e-05
8.3401627e-05
8.34016259e-05
8.34016252e-05
8.34016246e-05
8.34016242e-05
8.3401624e-05
8.34016238e-05
8.34016237e-05
8.34016237e-05
8.34016236e-05
8.34016236e-05
8.34016236e-05
8.34016236e-05
8.34016236e-05
8.34016236e-05
8.34016236e-05
8.34016236e-05
8.34016236e-05
8.34016236e-05
8.34016236e-05
8.34016236e-05
8.34016236e-05
8.34016236e-05
8.34016236e-05
8.34016236e-05
8.34016236e-05
8.34016236e-05
8.34016236e-05
8.34016236e-05
8.34016236e-05
8.34016236e-05
8.34016236e-05
8.34016236e-05
8.34016236e-05
8.34016236e-05
8.34016236e-05
8.34016236e-05
8.34016236e-05
8.34016236e-05
8.34016236e-05
8.34016236e-05
8.34016236e-05
8.34016236e-05
8.34016236e-05
8.34016236e-05
8.34016236e-05
8.34016236e-05
8.34016236e-05
8.34016236e-05
8.34016236e-05
8.34016236e-05
8.34016236e-05
8.34016236e-05
8.34016236e-05
8.34016236e-05
8.34016236e-05
)
;

boundaryField
{
    closed
    {
        type            calculated;
        value           nonuniform List<scalar> 0();
    }
    open
    {
        type            calculated;
        value           uniform 8.34016236e-05;
    }
    sides
    {
        type            empty;
    }
    procBoundary5to4
    {
        type            processor;
        value           uniform 7.62975677e-05;
    }
}


// ************************************************************************* //
