/*--------------------------------*- C++ -*----------------------------------*\
| =========                 |                                                 |
| \\      /  F ield         | OpenFOAM: The Open Source CFD Toolbox           |
|  \\    /   O peration     | Version:  2306                                  |
|   \\  /    A nd           | Website:  www.openfoam.com                      |
|    \\/     M anipulation  |                                                 |
\*---------------------------------------------------------------------------*/
FoamFile
{
    version     2.0;
    format      ascii;
    arch        "LSB;label=32;scalar=64";
    class       volScalarField;
    location    "0.00062";
    object      H2O;
}
// * * * * * * * * * * * * * * * * * * * * * * * * * * * * * * * * * * * * * //

dimensions      [0 0 0 0 0 0 0];

internalField   nonuniform List<scalar> 
530
(
0.120868151
0.120911904
0.120954294
0.121358303
0.120315714
0.120666196
0.121383515
0.121452948
0.120256192
0.120538551
0.121341283
0.121347611
0.120191313
0.120491837
0.121212479
0.121262736
0.120131856
0.120467151
0.121120897
0.121199591
0.120098501
0.120440536
0.121054908
0.121148619
0.120082291
0.12042103
0.121008241
0.121108937
0.120074767
0.120417445
0.120978879
0.121083129
0.120080936
0.120423695
0.120968213
0.121072942
0.1201144
0.120444095
0.12097781
0.121077314
0.120164339
0.120482467
0.121010249
0.121101187
0.120227734
0.120535006
0.121060634
0.121147365
0.120308756
0.120610271
0.121131271
0.121218869
0.120398263
0.120711953
0.121269837
0.121308868
0.120533301
0.120822089
0.121389009
0.121411122
0.120690623
0.120947423
0.121534252
0.121544854
0.120865097
0.121116023
0.121731289
0.121721291
0.121078509
0.121316963
0.121702766
0.121856732
0.121405735
0.121553857
0.121626667
0.121756968
0.12186761
0.121967461
0.121549233
0.121750308
0.122262655
0.122331938
0.121670886
0.121928135
0.122398438
0.122451764
0.121884733
0.122151211
0.122612559
0.122664929
0.122139117
0.122384048
0.122911454
0.122897007
0.122461077
0.122603948
0.122946956
0.123171139
0.122946317
0.122824166
0.122865457
0.12345344
0.123483982
0.123099429
0.123010474
0.123634909
0.123613499
0.123384478
0.12327424
0.123822446
0.12383877
0.123652552
0.123541161
0.124057655
0.124081865
0.123889092
0.123802173
0.124327646
0.124322646
0.124104942
0.124063148
0.12459925
0.124559026
0.124324081
0.124324289
0.124865167
0.124787757
0.124544905
0.124577213
0.125112398
0.125012676
0.124766788
0.124826896
0.125303483
0.125235541
0.12497887
0.125097172
0.125479675
0.125437532
0.125186066
0.125346494
0.125708019
0.12567653
0.125426553
0.125579747
0.125927258
0.125896782
0.125665495
0.12580375
0.126133229
0.126091985
0.125882882
0.126007402
0.12632064
0.126275011
0.126100683
0.126198105
0.126500096
0.126444206
0.12628012
0.126386351
0.12665437
0.126614438
0.126457166
0.126570822
0.126826455
0.126788711
0.126639389
0.12674997
0.12699507
0.126958662
0.126812404
0.126919636
0.127154239
0.127119962
0.12697941
0.127079605
0.12730267
0.12726837
0.127134437
0.127229295
0.127440607
0.127409208
0.127287744
0.127370255
0.127568699
0.127539919
0.127419066
0.127505921
0.127687996
0.127664051
0.127542041
0.127634922
0.127802349
0.127781633
0.127659469
0.127755949
0.12791098
0.127892478
0.127770284
0.1278687
0.128014453
0.127996681
0.127875219
0.127973724
0.128112563
0.128094156
0.127973024
0.128071676
0.128201751
0.128185376
0.128065802
0.128163668
0.128285217
0.128270326
0.128155605
0.128248351
0.128362158
0.128348578
0.128240883
0.12832688
0.12843389
0.1284211
0.128320827
0.128400095
0.128500336
0.128488359
0.128394965
0.128467993
0.128561345
0.128550488
0.128462621
0.128531385
0.128616936
0.128607828
0.128524629
0.128590755
0.128667318
0.128660086
0.128580211
0.128641036
0.128709994
0.128707882
0.128630988
0.128691904
0.128752055
0.128751926
0.128678275
0.128737773
0.128790675
0.128791788
0.12872239
0.128778775
0.128826223
0.128827744
0.128763415
0.128815512
0.128858871
0.128860162
0.128801304
0.128848406
0.128888691
0.128889431
0.128835915
0.128877903
0.128915728
0.128916197
0.128866963
0.128905346
0.128940707
0.12893993
0.128893539
0.128929666
0.128966449
0.128962071
0.128924678
0.128944206
0.12899001
0.128983352
0.128959223
0.128961594
0.129014232
0.12900033
0.128989284
0.128978907
0.129032668
0.129015152
0.129011873
0.128995243
0.129047735
0.129028322
0.129030149
0.129010302
0.129060662
0.12904018
0.129046174
0.129023696
0.129064806
0.129050701
0.129063298
0.129035555
0.12906785
0.129059943
0.12907379
0.129045716
0.129076291
0.129068229
0.12907771
0.129054424
0.129086462
0.129077123
0.129081721
0.129064384
0.129090678
0.129091153
0.129085544
0.129082546
0.129091797
0.129086124
0.129089255
0.129094855
0.129092925
0.129081704
0.129091082
0.12909457
0.129095044
0.129083171
0.129093066
0.12909652
0.12909735
0.129086072
0.12909566
0.129099106
0.129099882
0.129089415
0.129098311
0.129101583
0.129102264
0.129092678
0.129100778
0.129103829
0.129104399
0.129095679
0.129103
0.12910581
0.129106276
0.12909836
0.129104963
0.129107534
0.129107911
0.129100738
0.129106676
0.129109027
0.129109333
0.12910283
0.129108174
0.129110306
0.129110572
0.129104639
0.129109525
0.129111399
0.129111637
0.129106178
0.129110704
0.129112342
0.129112563
0.129107592
0.129111686
0.129113162
0.129113351
0.129108868
0.129112537
0.129113884
0.129114037
0.12911
0.129113301
0.12911449
0.129114624
0.129110939
0.129113995
0.129115014
0.129115127
0.129111773
0.129114561
0.129115467
0.129115569
0.12911258
0.129115054
0.129115885
0.129115958
0.129113311
0.129115514
0.129116245
0.129116277
0.129113893
0.12911591
0.129116558
0.129116566
0.129114482
0.129116225
0.129116822
0.129116811
0.129115005
0.129116508
0.129117045
0.12911703
0.129115467
0.129116767
0.129117236
0.129117225
0.129115877
0.129117008
0.129117402
0.129117399
0.129116244
0.129117225
0.129117552
0.129117556
0.129116589
0.129117415
0.129117689
0.129117696
0.129116916
0.129117585
0.129117818
0.129117823
0.129117223
0.12911774
0.129117938
0.12911794
0.12911751
0.129117884
0.129118047
0.129118049
0.129117776
0.129118024
0.129118145
0.129118149
0.129118016
0.129118164
0.129118225
0.129118232
0.129118226
0.129118299
0.12911827
0.129118249
0.129118271
0.129118239
0.129118231
0.129118211
0.129118211
0.129118192
0.129118188
0.129118172
0.129118168
0.129118151
0.129118146
0.129118131
0.129118125
0.12911811
0.129118104
0.12911809
0.129118083
0.129118071
0.129118064
0.129118053
0.129118047
0.129118038
0.129118033
0.129118026
0.129118021
0.129118015
0.129118012
0.129118008
0.129118005
0.129118003
0.129118001
0.129117999
0.129117998
0.129117998
0.129117997
0.129117997
0.129117996
0.129117996
0.129117996
0.129117996
0.129117996
0.129117996
0.129117996
0.129117996
0.129117996
0.129117996
0.129117996
0.129117996
0.129117996
0.129117996
0.129117996
0.129117996
0.129117996
0.129117996
0.129117996
0.129117996
0.129117996
0.129117996
0.129117996
0.129117996
0.129117996
0.129117996
0.129117996
0.129117996
0.129117996
0.129117996
0.129117996
0.129117996
0.129117996
0.129117996
0.129117996
0.129117996
0.129117996
0.129117996
0.129117996
0.129117996
0.129117996
0.129117996
0.129117996
0.129117996
0.129117996
0.129117996
0.129117996
0.129117996
)
;

boundaryField
{
    closed
    {
        type            calculated;
        value           nonuniform List<scalar> 0();
    }
    open
    {
        type            calculated;
        value           uniform 0.129117996;
    }
    sides
    {
        type            empty;
    }
    procBoundary5to4
    {
        type            processor;
        value           uniform 0.120710396;
    }
}


// ************************************************************************* //
