/*--------------------------------*- C++ -*----------------------------------*\
| =========                 |                                                 |
| \\      /  F ield         | OpenFOAM: The Open Source CFD Toolbox           |
|  \\    /   O peration     | Version:  2306                                  |
|   \\  /    A nd           | Website:  www.openfoam.com                      |
|    \\/     M anipulation  |                                                 |
\*---------------------------------------------------------------------------*/
FoamFile
{
    version     2.0;
    format      ascii;
    arch        "LSB;label=32;scalar=64";
    class       volScalarField;
    location    "0.00062";
    object      prefDZ_H2O;
}
// * * * * * * * * * * * * * * * * * * * * * * * * * * * * * * * * * * * * * //

dimensions      [1 -1 -1 0 0 0 0];

internalField   nonuniform List<scalar> 
530
(
2.0541344e-06
2.05884084e-06
2.06129507e-06
2.0775326e-06
2.03584215e-06
2.05479701e-06
2.0828952e-06
2.08698745e-06
2.03587489e-06
2.05439708e-06
2.08892053e-06
2.08993988e-06
2.03881397e-06
2.05789378e-06
2.09142631e-06
2.0929936e-06
2.04208978e-06
2.06235565e-06
2.09417151e-06
2.09613805e-06
2.04640048e-06
2.06659144e-06
2.09715594e-06
2.09932275e-06
2.05106292e-06
2.0708446e-06
2.10031554e-06
2.10257609e-06
2.05556834e-06
2.07535868e-06
2.10363151e-06
2.10594487e-06
2.06014892e-06
2.07978264e-06
2.10715004e-06
2.10942436e-06
2.06523368e-06
2.08424393e-06
2.11083499e-06
2.11298951e-06
2.070474e-06
2.0888707e-06
2.11474624e-06
2.1167639e-06
2.07579534e-06
2.0933901e-06
2.11882266e-06
2.12074254e-06
2.08121825e-06
2.0983438e-06
2.1230911e-06
2.12503541e-06
2.08651819e-06
2.10398869e-06
2.12835161e-06
2.12942418e-06
2.09334085e-06
2.10919007e-06
2.1331347e-06
2.13392353e-06
2.09986146e-06
2.11454053e-06
2.13821574e-06
2.13882263e-06
2.10694373e-06
2.12105633e-06
2.14380852e-06
2.14415465e-06
2.11588538e-06
2.12819171e-06
2.14282968e-06
2.14761235e-06
2.12920046e-06
2.13648228e-06
2.137752e-06
2.14309213e-06
2.14670942e-06
2.15001939e-06
2.13050435e-06
2.14049129e-06
2.15964424e-06
2.16175559e-06
2.13082335e-06
2.14392364e-06
2.16416063e-06
2.16545015e-06
2.13561293e-06
2.14959838e-06
2.16924072e-06
2.17048903e-06
2.14308828e-06
2.1553646e-06
2.17533125e-06
2.17560509e-06
2.15440234e-06
2.16012084e-06
2.17327066e-06
2.18130026e-06
2.17108783e-06
2.16450217e-06
2.16564436e-06
2.18685543e-06
2.1876552e-06
2.17165618e-06
2.1656996e-06
2.18919642e-06
2.19081302e-06
2.17908631e-06
2.17114842e-06
2.19191466e-06
2.19528266e-06
2.1850971e-06
2.17704244e-06
2.19629042e-06
2.19982025e-06
2.18958738e-06
2.18264282e-06
2.2017475e-06
2.20421574e-06
2.19303853e-06
2.18798718e-06
2.20727474e-06
2.20846044e-06
2.19627349e-06
2.19327958e-06
2.21259404e-06
2.21248524e-06
2.1995149e-06
2.19829412e-06
2.21735336e-06
2.21633088e-06
2.20274483e-06
2.20312809e-06
2.22068789e-06
2.2200271e-06
2.20521849e-06
2.20879301e-06
2.22365617e-06
2.22330603e-06
2.20756597e-06
2.2137837e-06
2.227248e-06
2.226997e-06
2.21214693e-06
2.21795098e-06
2.23061064e-06
2.23036696e-06
2.21677618e-06
2.22171032e-06
2.23373385e-06
2.23334772e-06
2.22034635e-06
2.22463682e-06
2.23655056e-06
2.2360883e-06
2.22402074e-06
2.22716773e-06
2.23914637e-06
2.23857344e-06
2.22624207e-06
2.22962182e-06
2.24129571e-06
2.24097638e-06
2.22855198e-06
2.23229229e-06
2.24363879e-06
2.24334417e-06
2.23131085e-06
2.23496046e-06
2.24587945e-06
2.24560035e-06
2.23391843e-06
2.23745582e-06
2.24795543e-06
2.24769693e-06
2.23643063e-06
2.23975338e-06
2.24985441e-06
2.24958962e-06
2.23865521e-06
2.24180039e-06
2.2515916e-06
2.25134877e-06
2.2409475e-06
2.24367859e-06
2.25317223e-06
2.25295608e-06
2.24261842e-06
2.24553511e-06
2.25460167e-06
2.2544509e-06
2.24415449e-06
2.24731154e-06
2.25594918e-06
2.25583785e-06
2.24566352e-06
2.24896414e-06
2.2572025e-06
2.25711564e-06
2.24711936e-06
2.25048745e-06
2.25837137e-06
2.25828996e-06
2.24853933e-06
2.25189922e-06
2.25945658e-06
2.25936436e-06
2.24984464e-06
2.25321145e-06
2.26041463e-06
2.26034867e-06
2.25110239e-06
2.25445573e-06
2.26129773e-06
2.26124515e-06
2.25241289e-06
2.25558337e-06
2.2620896e-06
2.26204577e-06
2.25370851e-06
2.25663466e-06
2.26281444e-06
2.26277189e-06
2.25494345e-06
2.25763205e-06
2.26347177e-06
2.26343097e-06
2.25609665e-06
2.25856899e-06
2.26406237e-06
2.26402643e-06
2.25713864e-06
2.25946507e-06
2.26458845e-06
2.26456504e-06
2.25808836e-06
2.26033584e-06
2.26505272e-06
2.26504658e-06
2.25890874e-06
2.26098523e-06
2.26542358e-06
2.26547836e-06
2.2596578e-06
2.26177132e-06
2.26579299e-06
2.26586771e-06
2.26038697e-06
2.26246826e-06
2.26612728e-06
2.26621055e-06
2.26110083e-06
2.26307804e-06
2.26643001e-06
2.26651192e-06
2.26179171e-06
2.26361625e-06
2.26670281e-06
2.26677654e-06
2.26245048e-06
2.26408995e-06
2.26694719e-06
2.26700835e-06
2.2630697e-06
2.26450606e-06
2.26716525e-06
2.267215e-06
2.26364291e-06
2.26491375e-06
2.26736372e-06
2.26739175e-06
2.26414023e-06
2.26527782e-06
2.2675821e-06
2.26754897e-06
2.26488628e-06
2.26533964e-06
2.26778474e-06
2.26770736e-06
2.26579969e-06
2.26558167e-06
2.26799562e-06
2.26782541e-06
2.26654033e-06
2.2658552e-06
2.26813993e-06
2.26792789e-06
2.2670353e-06
2.26613173e-06
2.26824924e-06
2.26801842e-06
2.26740151e-06
2.2664029e-06
2.26834235e-06
2.26809882e-06
2.26772349e-06
2.26664642e-06
2.26821229e-06
2.26816889e-06
2.26809768e-06
2.26686344e-06
2.26810003e-06
2.26822833e-06
2.26826127e-06
2.26704598e-06
2.268214e-06
2.26827935e-06
2.26821652e-06
2.2672076e-06
2.26842204e-06
2.26834006e-06
2.26818449e-06
2.26746264e-06
2.26847983e-06
2.26848045e-06
2.26815894e-06
2.26803447e-06
2.2684633e-06
2.26806821e-06
2.26815031e-06
2.26845966e-06
2.26845054e-06
2.26776074e-06
2.26809694e-06
2.26843371e-06
2.26845119e-06
2.26771356e-06
2.26807336e-06
2.26843591e-06
2.26845623e-06
2.26774112e-06
2.26809098e-06
2.26844686e-06
2.26846591e-06
2.26779916e-06
2.26812345e-06
2.26845881e-06
2.26847592e-06
2.26786485e-06
2.26815978e-06
2.26847014e-06
2.26848521e-06
2.26792934e-06
2.26819579e-06
2.26848023e-06
2.26849341e-06
2.26798928e-06
2.26822956e-06
2.26848901e-06
2.26850051e-06
2.26804432e-06
2.26826034e-06
2.26849662e-06
2.26850667e-06
2.26809423e-06
2.26828858e-06
2.26850307e-06
2.26851208e-06
2.26813826e-06
2.26831601e-06
2.26850848e-06
2.26851671e-06
2.2681762e-06
2.268341e-06
2.26851318e-06
2.26852075e-06
2.26821283e-06
2.26836197e-06
2.26851738e-06
2.26852413e-06
2.26824722e-06
2.26838096e-06
2.26852119e-06
2.26852714e-06
2.2682787e-06
2.26839892e-06
2.26852434e-06
2.26852972e-06
2.26830505e-06
2.26841634e-06
2.26852712e-06
2.26853196e-06
2.26832913e-06
2.26843065e-06
2.26852959e-06
2.268534e-06
2.26835373e-06
2.26844368e-06
2.2685321e-06
2.26853589e-06
2.26837671e-06
2.26845655e-06
2.26853427e-06
2.26853737e-06
2.26839518e-06
2.26846804e-06
2.26853622e-06
2.26853881e-06
2.26841454e-06
2.26847726e-06
2.26853795e-06
2.26854001e-06
2.26843189e-06
2.26848589e-06
2.26853943e-06
2.26854116e-06
2.26844748e-06
2.26849418e-06
2.26854073e-06
2.26854225e-06
2.26846151e-06
2.26850221e-06
2.2685419e-06
2.26854329e-06
2.26847429e-06
2.26850966e-06
2.26854301e-06
2.26854426e-06
2.26848651e-06
2.26851635e-06
2.26854411e-06
2.26854517e-06
2.26849832e-06
2.2685225e-06
2.2685452e-06
2.26854603e-06
2.26850959e-06
2.26852823e-06
2.26854627e-06
2.26854687e-06
2.26852025e-06
2.26853367e-06
2.2685473e-06
2.2685477e-06
2.26853017e-06
2.26853904e-06
2.26854824e-06
2.26854852e-06
2.26853913e-06
2.26854442e-06
2.26854903e-06
2.26854921e-06
2.26854675e-06
2.26854937e-06
2.26854933e-06
2.26854892e-06
2.26854893e-06
2.26854839e-06
2.26854819e-06
2.26854785e-06
2.26854767e-06
2.26854736e-06
2.26854719e-06
2.26854692e-06
2.26854675e-06
2.26854647e-06
2.2685463e-06
2.26854604e-06
2.26854586e-06
2.26854562e-06
2.26854545e-06
2.26854523e-06
2.26854506e-06
2.26854487e-06
2.26854473e-06
2.26854457e-06
2.26854444e-06
2.26854432e-06
2.26854422e-06
2.26854413e-06
2.26854405e-06
2.26854398e-06
2.26854393e-06
2.26854389e-06
2.26854386e-06
2.26854383e-06
2.26854381e-06
2.2685438e-06
2.26854379e-06
2.26854379e-06
2.26854378e-06
2.26854378e-06
2.26854378e-06
2.26854378e-06
2.26854378e-06
2.26854378e-06
2.26854378e-06
2.26854378e-06
2.26854378e-06
2.26854378e-06
2.26854378e-06
2.26854378e-06
2.26854378e-06
2.26854378e-06
2.26854378e-06
2.26854378e-06
2.26854378e-06
2.26854378e-06
2.26854378e-06
2.26854378e-06
2.26854378e-06
2.26854378e-06
2.26854378e-06
2.26854378e-06
2.26854378e-06
2.26854378e-06
2.26854378e-06
2.26854378e-06
2.26854378e-06
2.26854378e-06
2.26854378e-06
2.26854378e-06
2.26854378e-06
2.26854378e-06
2.26854378e-06
2.26854378e-06
2.26854378e-06
2.26854378e-06
2.26854378e-06
2.26854378e-06
2.26854378e-06
2.26854378e-06
2.26854378e-06
2.26854378e-06
2.26854378e-06
2.26854378e-06
2.26854378e-06
2.26854378e-06
2.26854378e-06
2.26854378e-06
)
;

boundaryField
{
    closed
    {
        type            calculated;
        value           nonuniform List<scalar> 0();
    }
    open
    {
        type            calculated;
        value           uniform 2.26854378e-06;
    }
    sides
    {
        type            empty;
    }
    procBoundary5to4
    {
        type            processor;
        value           uniform 2.04694555e-06;
    }
}


// ************************************************************************* //
