/*--------------------------------*- C++ -*----------------------------------*\
| =========                 |                                                 |
| \\      /  F ield         | OpenFOAM: The Open Source CFD Toolbox           |
|  \\    /   O peration     | Version:  2306                                  |
|   \\  /    A nd           | Website:  www.openfoam.com                      |
|    \\/     M anipulation  |                                                 |
\*---------------------------------------------------------------------------*/
FoamFile
{
    version     2.0;
    format      ascii;
    arch        "LSB;label=32;scalar=64";
    class       volScalarField;
    location    "0.00062";
    object      prefDPV_H2;
}
// * * * * * * * * * * * * * * * * * * * * * * * * * * * * * * * * * * * * * //

dimensions      [1 -1 -1 0 0 0 0];

internalField   nonuniform List<scalar> 
530
(
-8.63820045e-05
-8.6414992e-05
-8.64950903e-05
-8.66817058e-05
-8.62995992e-05
-8.6468821e-05
-8.68263066e-05
-8.68746757e-05
-8.64275727e-05
-8.65676893e-05
-8.69506598e-05
-8.69887745e-05
-8.65464019e-05
-8.67000139e-05
-8.70486806e-05
-8.71063476e-05
-8.66623307e-05
-8.68374409e-05
-8.71551084e-05
-8.72270064e-05
-8.67866983e-05
-8.69681584e-05
-8.72697457e-05
-8.73487801e-05
-8.69153884e-05
-8.70982425e-05
-8.7390383e-05
-8.74727795e-05
-8.70449837e-05
-8.72339026e-05
-8.75163894e-05
-8.76007103e-05
-8.71785576e-05
-8.73712089e-05
-8.76494872e-05
-8.77326754e-05
-8.73241779e-05
-8.75128042e-05
-8.77889998e-05
-8.78678697e-05
-8.74753404e-05
-8.76605504e-05
-8.79364843e-05
-8.80104514e-05
-8.76300113e-05
-8.78113136e-05
-8.80897555e-05
-8.81601761e-05
-8.77924592e-05
-8.79715893e-05
-8.82497918e-05
-8.83211646e-05
-8.7955621e-05
-8.81435359e-05
-8.84461049e-05
-8.84859459e-05
-8.81391208e-05
-8.83156706e-05
-8.86253912e-05
-8.86549004e-05
-8.8332194e-05
-8.8492698e-05
-8.88154472e-05
-8.88383454e-05
-8.85323251e-05
-8.86914497e-05
-8.9028242e-05
-8.90379827e-05
-8.875254e-05
-8.890011e-05
-8.91271632e-05
-8.9217775e-05
-8.90307678e-05
-8.91284474e-05
-8.91933744e-05
-8.92775427e-05
-8.93643589e-05
-8.94307689e-05
-8.92424612e-05
-8.93726827e-05
-8.9649219e-05
-8.97005989e-05
-8.93685201e-05
-8.95327211e-05
-8.97917412e-05
-8.98402212e-05
-8.95500946e-05
-8.97225018e-05
-8.99830955e-05
-9.00302725e-05
-8.9761525e-05
-8.99185625e-05
-9.02123851e-05
-9.02233489e-05
-9.001538e-05
-9.01042829e-05
-9.03090505e-05
-9.04381806e-05
-9.03392565e-05
-9.02878848e-05
-9.0329536e-05
-9.06476722e-05
-9.06780824e-05
-9.04938676e-05
-9.0449688e-05
-9.0794746e-05
-9.07983303e-05
-9.07006275e-05
-9.06340642e-05
-9.09401854e-05
-9.09680311e-05
-9.08885869e-05
-9.08204631e-05
-9.1108333e-05
-9.11401742e-05
-9.10556126e-05
-9.09988726e-05
-9.12902691e-05
-9.13069988e-05
-9.12067043e-05
-9.11721517e-05
-9.1470405e-05
-9.14681953e-05
-9.13532042e-05
-9.13424424e-05
-9.16446257e-05
-9.16212526e-05
-9.1496176e-05
-9.15045628e-05
-9.18061204e-05
-9.17679999e-05
-9.16362453e-05
-9.16602873e-05
-9.19336249e-05
-9.19090399e-05
-9.17629983e-05
-9.18222396e-05
-9.20470839e-05
-9.20341829e-05
-9.18843396e-05
-9.19737924e-05
-9.21841612e-05
-9.21749295e-05
-9.20274108e-05
-9.21121703e-05
-9.23124993e-05
-9.2303523e-05
-9.21653062e-05
-9.22408164e-05
-9.24317612e-05
-9.2417364e-05
-9.22857705e-05
-9.23528838e-05
-9.25395358e-05
-9.25221435e-05
-9.24032857e-05
-9.24547647e-05
-9.26396202e-05
-9.26177745e-05
-9.24978041e-05
-9.25524365e-05
-9.27226566e-05
-9.27106353e-05
-9.25897745e-05
-9.26492715e-05
-9.28131726e-05
-9.28020884e-05
-9.26844657e-05
-9.27423126e-05
-9.28997239e-05
-9.2889226e-05
-9.27733068e-05
-9.28291874e-05
-9.29799182e-05
-9.2970197e-05
-9.28572582e-05
-9.29096373e-05
-9.30532728e-05
-9.30432925e-05
-9.29332793e-05
-9.29829578e-05
-9.31203804e-05
-9.31112207e-05
-9.30073933e-05
-9.30505344e-05
-9.31814282e-05
-9.31732848e-05
-9.30686052e-05
-9.31146883e-05
-9.32366026e-05
-9.32309898e-05
-9.31248413e-05
-9.31747543e-05
-9.32886055e-05
-9.32845145e-05
-9.31779075e-05
-9.32301376e-05
-9.33369548e-05
-9.33338038e-05
-9.32274598e-05
-9.32808676e-05
-9.33820263e-05
-9.33790792e-05
-9.32739479e-05
-9.33273673e-05
-9.3423852e-05
-9.34204808e-05
-9.33165763e-05
-9.33700165e-05
-9.34607439e-05
-9.34583898e-05
-9.33564926e-05
-9.34094677e-05
-9.34947379e-05
-9.3492894e-05
-9.33949144e-05
-9.34449908e-05
-9.35252753e-05
-9.35237645e-05
-9.34311648e-05
-9.34774158e-05
-9.35532331e-05
-9.35517581e-05
-9.34648196e-05
-9.35073013e-05
-9.35785667e-05
-9.35771465e-05
-9.34956327e-05
-9.35346645e-05
-9.36013088e-05
-9.36000634e-05
-9.35232664e-05
-9.3559951e-05
-9.36215464e-05
-9.36207746e-05
-9.35481574e-05
-9.35835434e-05
-9.36393838e-05
-9.36392755e-05
-9.35697984e-05
-9.36024356e-05
-9.36535875e-05
-9.36558493e-05
-9.35892253e-05
-9.36224406e-05
-9.36677466e-05
-9.36707785e-05
-9.36073858e-05
-9.36400628e-05
-9.36805505e-05
-9.36839052e-05
-9.36244316e-05
-9.36554504e-05
-9.36921358e-05
-9.3695428e-05
-9.3640325e-05
-9.3668945e-05
-9.37025646e-05
-9.370553e-05
-9.36550048e-05
-9.36807486e-05
-9.37118968e-05
-9.37143633e-05
-9.36684311e-05
-9.36910456e-05
-9.37202164e-05
-9.37222258e-05
-9.36805774e-05
-9.3700682e-05
-9.3727782e-05
-9.37289344e-05
-9.36910357e-05
-9.37091835e-05
-9.37361412e-05
-9.37348824e-05
-9.37049491e-05
-9.37125469e-05
-9.37439049e-05
-9.37408946e-05
-9.37211309e-05
-9.37182855e-05
-9.37519905e-05
-9.37453541e-05
-9.37343498e-05
-9.37241578e-05
-9.37574879e-05
-9.37492242e-05
-9.37434803e-05
-9.37298014e-05
-9.37616308e-05
-9.37526412e-05
-9.37503633e-05
-9.37351362e-05
-9.37651578e-05
-9.37556729e-05
-9.375635e-05
-9.3739845e-05
-9.37643186e-05
-9.37583117e-05
-9.37629557e-05
-9.37439754e-05
-9.37633186e-05
-9.37605441e-05
-9.37661477e-05
-9.37474298e-05
-9.37656795e-05
-9.37624533e-05
-9.37659864e-05
-9.37504435e-05
-9.37693792e-05
-9.37647438e-05
-9.37659074e-05
-9.37548125e-05
-9.37701528e-05
-9.37701688e-05
-9.37658372e-05
-9.3764e-05
-9.37694601e-05
-9.37646462e-05
-9.37659482e-05
-9.37692526e-05
-9.37689201e-05
-9.3760097e-05
-9.37653153e-05
-9.37682049e-05
-9.37689051e-05
-9.37595285e-05
-9.3765103e-05
-9.37682561e-05
-9.37690648e-05
-9.37600731e-05
-9.37654908e-05
-9.37686498e-05
-9.3769408e-05
-9.37610564e-05
-9.37660755e-05
-9.37690867e-05
-9.37697681e-05
-9.3762131e-05
-9.37666937e-05
-9.37695027e-05
-9.37701032e-05
-9.37631652e-05
-9.37672859e-05
-9.37698735e-05
-9.37703996e-05
-9.37641122e-05
-9.37678269e-05
-9.37701965e-05
-9.3770656e-05
-9.37649703e-05
-9.3768309e-05
-9.37704761e-05
-9.37708781e-05
-9.37657393e-05
-9.37687422e-05
-9.3770713e-05
-9.37710736e-05
-9.37664099e-05
-9.37691557e-05
-9.37709112e-05
-9.37712406e-05
-9.3766981e-05
-9.37695265e-05
-9.37710835e-05
-9.37713867e-05
-9.37675284e-05
-9.37698316e-05
-9.3771238e-05
-9.37715085e-05
-9.3768039e-05
-9.3770104e-05
-9.37713787e-05
-9.37716171e-05
-9.37685034e-05
-9.37703592e-05
-9.37714947e-05
-9.37717107e-05
-9.37688879e-05
-9.37706059e-05
-9.37715975e-05
-9.37717916e-05
-9.37692376e-05
-9.37708046e-05
-9.37716888e-05
-9.37718659e-05
-9.37695959e-05
-9.37709841e-05
-9.37717827e-05
-9.37719349e-05
-9.37699302e-05
-9.37711621e-05
-9.37718636e-05
-9.37719889e-05
-9.37701961e-05
-9.377132e-05
-9.37719366e-05
-9.37720417e-05
-9.37704768e-05
-9.37714442e-05
-9.37720015e-05
-9.37720857e-05
-9.37707279e-05
-9.37715606e-05
-9.37720575e-05
-9.37721279e-05
-9.37709533e-05
-9.37716733e-05
-9.37721065e-05
-9.37721685e-05
-9.37711558e-05
-9.37717834e-05
-9.37721508e-05
-9.3772207e-05
-9.37713406e-05
-9.37718859e-05
-9.37721929e-05
-9.37722433e-05
-9.37715181e-05
-9.37719781e-05
-9.37722347e-05
-9.37722775e-05
-9.37716907e-05
-9.37720633e-05
-9.37722766e-05
-9.37723102e-05
-9.37718562e-05
-9.37721434e-05
-9.37723178e-05
-9.3772342e-05
-9.37720134e-05
-9.37722201e-05
-9.37723572e-05
-9.37723736e-05
-9.37721606e-05
-9.3772297e-05
-9.37723936e-05
-9.37724049e-05
-9.37722938e-05
-9.37723751e-05
-9.37724239e-05
-9.37724311e-05
-9.37724073e-05
-9.37724473e-05
-9.37724353e-05
-9.3772419e-05
-9.37724189e-05
-9.37723978e-05
-9.37723899e-05
-9.37723762e-05
-9.37723693e-05
-9.37723568e-05
-9.37723503e-05
-9.37723393e-05
-9.37723326e-05
-9.37723218e-05
-9.37723148e-05
-9.37723045e-05
-9.37722975e-05
-9.37722878e-05
-9.3772281e-05
-9.37722723e-05
-9.37722658e-05
-9.37722583e-05
-9.37722525e-05
-9.37722463e-05
-9.37722414e-05
-9.37722364e-05
-9.37722325e-05
-9.37722289e-05
-9.37722259e-05
-9.37722233e-05
-9.37722213e-05
-9.37722197e-05
-9.37722184e-05
-9.37722174e-05
-9.37722167e-05
-9.37722162e-05
-9.37722158e-05
-9.37722156e-05
-9.37722154e-05
-9.37722154e-05
-9.37722153e-05
-9.37722153e-05
-9.37722153e-05
-9.37722152e-05
-9.37722152e-05
-9.37722152e-05
-9.37722152e-05
-9.37722152e-05
-9.37722152e-05
-9.37722152e-05
-9.37722152e-05
-9.37722152e-05
-9.37722152e-05
-9.37722152e-05
-9.37722152e-05
-9.37722152e-05
-9.37722152e-05
-9.37722152e-05
-9.37722152e-05
-9.37722152e-05
-9.37722152e-05
-9.37722152e-05
-9.37722152e-05
-9.37722152e-05
-9.37722152e-05
-9.37722152e-05
-9.37722152e-05
-9.37722152e-05
-9.37722152e-05
-9.37722152e-05
-9.37722152e-05
-9.37722152e-05
-9.37722152e-05
-9.37722152e-05
-9.37722152e-05
-9.37722152e-05
-9.37722152e-05
-9.37722152e-05
-9.37722152e-05
-9.37722152e-05
-9.37722152e-05
-9.37722152e-05
-9.37722152e-05
-9.37722152e-05
-9.37722152e-05
-9.37722152e-05
-9.37722152e-05
-9.37722152e-05
)
;

boundaryField
{
    closed
    {
        type            calculated;
        value           nonuniform List<scalar> 0();
    }
    open
    {
        type            calculated;
        value           uniform -9.37722152e-05;
    }
    sides
    {
        type            empty;
    }
    procBoundary5to4
    {
        type            processor;
        value           uniform -8.62499549e-05;
    }
}


// ************************************************************************* //
