/*--------------------------------*- C++ -*----------------------------------*\
| =========                 |                                                 |
| \\      /  F ield         | OpenFOAM: The Open Source CFD Toolbox           |
|  \\    /   O peration     | Version:  2306                                  |
|   \\  /    A nd           | Website:  www.openfoam.com                      |
|    \\/     M anipulation  |                                                 |
\*---------------------------------------------------------------------------*/
FoamFile
{
    version     2.0;
    format      ascii;
    arch        "LSB;label=32;scalar=64";
    class       volScalarField;
    location    "0.00062";
    object      Z;
}
// * * * * * * * * * * * * * * * * * * * * * * * * * * * * * * * * * * * * * //

dimensions      [0 0 0 0 0 0 0];

internalField   nonuniform List<scalar> 
530
(
0.0137214634
0.0136930678
0.0136947313
0.0136327678
0.0137837865
0.0137100353
0.0136178541
0.0135930523
0.013798519
0.0137183154
0.0135805356
0.013581242
0.0137894701
0.0137112107
0.0135661158
0.0135718079
0.013778305
0.0137001303
0.0135560081
0.0135648981
0.0137645733
0.0136893564
0.0135487721
0.0135593505
0.0137513884
0.0136792793
0.0135437039
0.013555068
0.013740719
0.0136703232
0.0135405774
0.0135523416
0.0137320453
0.0136637201
0.0135395506
0.0135513475
0.0137250971
0.0136594914
0.0135407532
0.0135519599
0.0137200656
0.0136571703
0.0135445173
0.0135547614
0.0137168909
0.0136578356
0.0135502953
0.0135600661
0.0137166401
0.0136597512
0.0135583468
0.0135682159
0.013718558
0.0136618241
0.0135740368
0.0135784427
0.013718673
0.0136685525
0.0135875441
0.0135900471
0.0137250395
0.0136769923
0.0136039814
0.0136051899
0.0137309832
0.0136858223
0.0136272822
0.0136251388
0.0137320139
0.0136948326
0.0136612108
0.0136541984
0.0137238588
0.0137024808
0.0137143663
0.0137033563
0.0137040743
0.0136996065
0.01377068
0.0137441992
0.0136939889
0.0136942377
0.0138053094
0.0137702688
0.0137017869
0.0137078136
0.0138285962
0.0137896397
0.0137259936
0.0137319182
0.0138430681
0.013810767
0.0137597595
0.0137581558
0.0138462373
0.0138363221
0.0138092078
0.0137891363
0.0138372645
0.0138642709
0.0138683896
0.0138210303
0.0138244915
0.0138814241
0.013908016
0.0138565351
0.0138391687
0.013897925
0.0139328244
0.0138883557
0.013864653
0.0139198215
0.0139549293
0.013915316
0.0138921414
0.0139456321
0.0139771228
0.0139393993
0.0139193667
0.0139738061
0.014000107
0.0139625998
0.0139460943
0.0140028006
0.0140229569
0.0139856311
0.0139719613
0.0140312111
0.0140454988
0.0140086473
0.0139974114
0.0140592558
0.014067897
0.0140302782
0.0140226249
0.014089191
0.0140878683
0.0140502181
0.0140454749
0.0141184319
0.0141077018
0.0140760448
0.0140725011
0.0141393808
0.0141288984
0.0141008388
0.0140974088
0.0141585753
0.0141503287
0.0141241325
0.014119486
0.0141796582
0.0141726511
0.0141453343
0.0141401884
0.0141994595
0.0141947245
0.0141656554
0.0141593448
0.0142212218
0.0142162924
0.0141831252
0.0141786238
0.0142414332
0.0142354107
0.0142026094
0.014198355
0.0142590461
0.0142531589
0.0142216981
0.0142175944
0.0142756805
0.0142699998
0.0142397157
0.0142358524
0.0142914333
0.0142860587
0.0142565162
0.0142526495
0.0143065841
0.0143015581
0.0142721279
0.0142685879
0.0143205918
0.0143162724
0.0142866234
0.0142833792
0.0143345797
0.0143298475
0.0143001208
0.0142974242
0.0143476993
0.0143424755
0.0143130575
0.0143107261
0.0143597586
0.0143542452
0.0143253451
0.0143232641
0.0143707945
0.0143651783
0.0143370477
0.0143350489
0.0143808034
0.0143752744
0.0143481421
0.0143460711
0.0143901352
0.014384575
0.0143582253
0.0143563844
0.0143987135
0.0143930824
0.0143676608
0.0143659873
0.0144061935
0.0144008959
0.0143763607
0.0143748353
0.0144128201
0.0144079861
0.0143844715
0.0143830347
0.0144187937
0.0144143796
0.0143919834
0.0143906377
0.0144241844
0.0144201348
0.0143988795
0.0143976597
0.0144290896
0.0144252753
0.0144051619
0.0144041394
0.0144335389
0.014429807
0.0144108545
0.0144100439
0.0144376458
0.0144341546
0.0144156739
0.0144154434
0.0144413299
0.014437659
0.0144204244
0.0144204182
0.0144445111
0.0144408314
0.0144247858
0.0144249197
0.0144472194
0.0144437016
0.0144287999
0.0144289792
0.0144495208
0.0144462803
0.0144324859
0.0144326386
0.0144514732
0.0144485995
0.0144358521
0.0144359417
0.0144531141
0.0144506916
0.0144389038
0.0144389619
0.0144544587
0.0144524778
0.014441723
0.0144416391
0.0144555663
0.0144540293
0.0144446298
0.0144441359
0.0144558429
0.0144559025
0.0144472906
0.0144465365
0.0144555867
0.0144570937
0.0144500263
0.0144484507
0.0144556363
0.0144580404
0.0144521069
0.0144501219
0.014456021
0.0144588007
0.0144538062
0.0144516067
0.0144565134
0.0144593928
0.0144552641
0.0144529436
0.0144569274
0.0144598923
0.0144566599
0.0144541295
0.0144571605
0.0144603144
0.0144577452
0.014455171
0.0144576748
0.0144606871
0.0144582635
0.0144561046
0.0144584713
0.0144609738
0.014458474
0.0144571072
0.0144591889
0.0144609064
0.0144586406
0.014458694
0.0144598322
0.0144601433
0.0144587641
0.014460411
0.0144603585
0.0144591061
0.014458889
0.014461524
0.0144608857
0.0144590714
0.0144591264
0.0144619709
0.0144612694
0.0144592899
0.0144593852
0.0144621906
0.014461504
0.0144595808
0.0144596698
0.0144622978
0.0144616618
0.0144598595
0.0144599376
0.0144623508
0.014461773
0.0144601123
0.0144601777
0.0144623749
0.0144618528
0.0144603353
0.0144603888
0.0144623818
0.0144619108
0.0144605293
0.0144605728
0.0144623758
0.0144619524
0.0144606973
0.0144607326
0.0144623611
0.0144619801
0.0144608413
0.014460872
0.0144623423
0.0144619935
0.0144609642
0.0144609917
0.0144623223
0.0144619984
0.0144610704
0.0144610959
0.0144622938
0.0144620003
0.0144611627
0.0144611845
0.0144622604
0.0144619969
0.0144612439
0.0144612617
0.014462225
0.0144619883
0.0144613122
0.0144613277
0.0144621936
0.0144619744
0.0144613711
0.0144613844
0.0144621615
0.0144619617
0.0144614222
0.0144614341
0.0144621239
0.0144619472
0.0144614692
0.0144614778
0.014462086
0.01446193
0.0144615097
0.0144615137
0.0144620542
0.0144619127
0.014461545
0.0144615462
0.0144620191
0.0144618978
0.0144615748
0.0144615738
0.0144619868
0.0144618826
0.0144615999
0.0144615984
0.0144619568
0.0144618668
0.0144616214
0.0144616204
0.0144619291
0.0144618504
0.0144616402
0.01446164
0.0144619033
0.0144618346
0.014461657
0.0144616576
0.0144618779
0.0144618198
0.0144616725
0.0144616735
0.0144618529
0.0144618058
0.0144616871
0.0144616878
0.0144618287
0.0144617925
0.0144617006
0.014461701
0.0144618056
0.0144617797
0.014461713
0.0144617133
0.014461784
0.014461767
0.014461724
0.0144617246
0.0144617647
0.0144617545
0.0144617332
0.0144617339
0.0144617489
0.0144617437
0.0144617381
0.0144617358
0.0144617382
0.0144617346
0.0144617337
0.0144617315
0.0144617314
0.0144617292
0.0144617288
0.0144617269
0.0144617264
0.0144617246
0.014461724
0.0144617222
0.0144617216
0.0144617199
0.0144617191
0.0144617176
0.0144617168
0.0144617154
0.0144617146
0.0144617134
0.0144617127
0.0144617117
0.014461711
0.0144617102
0.0144617097
0.0144617091
0.0144617087
0.0144617082
0.0144617079
0.0144617076
0.0144617074
0.0144617073
0.0144617072
0.0144617071
0.014461707
0.014461707
0.0144617069
0.0144617069
0.0144617069
0.0144617069
0.0144617069
0.0144617069
0.0144617069
0.0144617069
0.0144617069
0.0144617069
0.0144617069
0.0144617069
0.0144617069
0.0144617069
0.0144617069
0.0144617069
0.0144617069
0.0144617069
0.0144617069
0.0144617069
0.0144617069
0.0144617069
0.0144617069
0.0144617069
0.0144617069
0.0144617069
0.0144617069
0.0144617069
0.0144617069
0.0144617069
0.0144617069
0.0144617069
0.0144617069
0.0144617069
0.0144617069
0.0144617069
0.0144617069
0.0144617069
0.0144617069
0.0144617069
0.0144617069
0.0144617069
0.0144617069
0.0144617069
0.0144617069
0.0144617069
0.0144617069
0.0144617069
)
;

boundaryField
{
    closed
    {
        type            zeroGradient;
    }
    open
    {
        type            zeroGradient;
    }
    sides
    {
        type            empty;
    }
    procBoundary5to4
    {
        type            processor;
        value           uniform 0.013735062;
    }
}


// ************************************************************************* //
