/*--------------------------------*- C++ -*----------------------------------*\
| =========                 |                                                 |
| \\      /  F ield         | OpenFOAM: The Open Source CFD Toolbox           |
|  \\    /   O peration     | Version:  2306                                  |
|   \\  /    A nd           | Website:  www.openfoam.com                      |
|    \\/     M anipulation  |                                                 |
\*---------------------------------------------------------------------------*/
FoamFile
{
    version     2.0;
    format      ascii;
    arch        "LSB;label=32;scalar=64";
    class       volScalarField;
    location    "0.00104";
    object      rho;
}
// * * * * * * * * * * * * * * * * * * * * * * * * * * * * * * * * * * * * * //

dimensions      [1 -3 0 0 0 0 0];

internalField   nonuniform List<scalar> 
530
(
0.186223451
0.18604726
0.185890742
0.185727923
0.185590602
0.185450472
0.185327903
0.185197429
0.18508433
0.184962338
0.18485723
0.184742402
0.184643879
0.184534874
0.184435798
0.184321602
0.1842261
0.184122063
0.184038359
0.183940016
0.183858888
0.183763194
0.18368414
0.183590443
0.183513095
0.18342099
0.183345139
0.183254426
0.183180013
0.183090663
0.18301776
0.182929981
0.182858867
0.182772793
0.18270356
0.182619479
0.182554958
0.182478057
0.182418237
0.182343958
0.182287376
0.182216058
0.182162916
0.182094809
0.182045266
0.181980546
0.181934685
0.181873473
0.181831284
0.181773661
0.181735036
0.181681055
0.181645788
0.181595482
0.181563199
0.181516743
0.18148716
0.18144458
0.181416908
0.181377763
0.18135133
0.181315858
0.181290283
0.181258341
0.181233577
0.181208513
0.181187736
0.181165757
0.181145691
0.181126579
0.181107195
0.181090711
0.181072001
0.181057942
0.181039915
0.181028118
0.181010799
0.181001148
0.180984567
0.180976992
0.180961178
0.180955837
0.180941311
0.180938195
0.180924727
0.180923367
0.180911158
0.180911564
0.180900669
0.180902882
0.180893358
0.180897415
0.180889327
0.180895256
0.180888674
0.180896494
0.180891483
0.180901204
0.18089782
0.180909449
0.180907736
0.180921269
0.180921263
0.180936687
0.18093841
0.180955704
0.180959166
0.180978298
0.180983498
0.181004426
0.181011354
0.181034021
0.181042664
0.181068441
0.181080715
0.18110861
0.181122596
0.18115226
0.181167947
0.181199326
0.181216693
0.181249734
0.181268751
0.181303403
0.181324038
0.18136025
0.181382465
0.181420189
0.181443947
0.181483135
0.181508396
0.181549002
0.181575729
0.181617709
0.181645865
0.181689178
0.181718723
0.181763334
0.181794231
0.18184011
0.181872319
0.181919436
0.181952923
0.182001246
0.182035986
0.182085467
0.182121458
0.182172023
0.182209286
0.18226085
0.182299435
0.182351846
0.182390674
0.182444974
0.182485486
0.182540288
0.182582586
0.182637851
0.182681868
0.182737631
0.182783269
0.182839583
0.182886746
0.182943657
0.182992265
0.183049803
0.183099792
0.183157975
0.18320929
0.183268128
0.183320718
0.183380214
0.183434031
0.183494185
0.183549178
0.183609987
0.183666107
0.183727566
0.183784763
0.183846862
0.183905085
0.183967813
0.184028122
0.184093417
0.184155345
0.184221227
0.184284033
0.184350479
0.184414113
0.184481096
0.184545506
0.184612996
0.184678132
0.184746098
0.184811908
0.184880315
0.184946749
0.185015562
0.185082568
0.18515175
0.185219276
0.185288791
0.185356786
0.185426594
0.185495006
0.185565068
0.185633846
0.185704124
0.185773216
0.185843671
0.185913026
0.185983616
0.186053186
0.186123869
0.186193605
0.18626434
0.186334194
0.186404937
0.186475421
0.186546934
0.186617709
0.186689292
0.186760206
0.18683183
0.186902849
0.186974486
0.187045575
0.187117198
0.187188324
0.18725991
0.18733104
0.187402562
0.187473665
0.1875451
0.187616146
0.187687471
0.187758431
0.187829622
0.187900468
0.187971502
0.18804221
0.188113064
0.188183607
0.188254259
0.188324614
0.188395043
0.188465186
0.188535368
0.188605276
0.188675193
0.188744844
0.188816551
0.188887949
0.188959279
0.189030303
0.189101239
0.189171869
0.189242393
0.189312611
0.189382706
0.189452495
0.189522143
0.189591485
0.18966067
0.189729547
0.189798251
0.189866645
0.189934853
0.190002746
0.19007044
0.190137815
0.190204978
0.190271818
0.190338432
0.190404718
0.190470766
0.190536481
0.190601946
0.190667072
0.190731935
0.190796452
0.190860697
0.190924587
0.190988193
0.191051436
0.191114385
0.191176962
0.191239234
0.191301125
0.1913627
0.191423885
0.191484742
0.191545198
0.191605317
0.191665023
0.191724381
0.191783316
0.191841892
0.191900033
0.191957804
0.192015129
0.192072073
0.192128559
0.192184653
0.192240277
0.192295498
0.19235024
0.192404566
0.192458404
0.192511814
0.192564807
0.192617412
0.192669523
0.1927212
0.192772371
0.192823099
0.19287331
0.192923071
0.192972307
0.193021085
0.193069331
0.193117112
0.193164357
0.193211131
0.193257366
0.193303125
0.193348344
0.193393086
0.193437287
0.19348101
0.193524194
0.193566901
0.193609072
0.19365077
0.193691936
0.193732633
0.193772804
0.193812513
0.193851703
0.193890439
0.193928666
0.193966446
0.194003727
0.194040572
0.194076928
0.194112858
0.194148313
0.194184184
0.194220137
0.194255667
0.194290725
0.194325374
0.194359564
0.194393358
0.194426707
0.19445967
0.194492204
0.194524363
0.194556106
0.194587486
0.194618462
0.194649087
0.19467932
0.194709213
0.194738725
0.194767907
0.19479672
0.194825212
0.194853346
0.194881168
0.194908641
0.194935812
0.194962644
0.194989181
0.195015388
0.195041309
0.195066908
0.195092228
0.195117236
0.195141973
0.195166404
0.195190573
0.195214444
0.19523806
0.195261387
0.195284466
0.195307263
0.19532982
0.195352104
0.195374155
0.19539594
0.195417499
0.195438801
0.195459885
0.195480719
0.195501341
0.195521721
0.195541897
0.195561838
0.195581581
0.195601095
0.195620418
0.195639519
0.195658433
0.195677131
0.195695648
0.195713953
0.195732081
0.195750001
0.195767747
0.195785288
0.195802658
0.195819826
0.195836824
0.19585362
0.195870247
0.195886673
0.195902928
0.195918983
0.195934866
0.195950547
0.195966054
0.195981356
0.195996482
0.196011401
0.19602614
0.196040669
0.196055015
0.196069147
0.196083092
0.19609682
0.196110358
0.196123675
0.196136797
0.196149696
0.196162398
0.196174874
0.19618715
0.196199199
0.196211046
0.196222665
0.196234082
0.196245271
0.196256257
0.196267018
0.196277578
0.196287914
0.19629805
0.196307967
0.196317686
0.196327191
0.196336503
0.196345614
0.196354863
0.196364528
0.196374629
0.196385142
0.196396081
0.196407411
0.196419137
0.196431213
0.196443627
0.196456312
0.19646923
0.196482277
0.196495364
0.196508317
0.196520941
0.196532918
0.196543841
0.196553105
0.196559899
0.196563114
0.19656132
0.196552755
0.196535335
0.196506855
0.196465323
0.196409515
0.196339197
0.19625617
0.196164949
0.19607266
0.195990253
0.195925225
0.19588136
0.195864708
0.195872462
0.19589653
0.195925583
0.195948956
0.19596754
0.195985773
0.196014064
0.196061521
0.19612901
0.196206106
0.196276231
0.196329449
0.196365172
0.196388583
0.196404276
0.196424227
0.196462054
0.19653343
0.196584895
0.196577027
0.196629873
0.196913813
0.19740258
0.197905244
0.197867825
0.196841737
0.19565147
0.195111198
0.195246658
0.195696812
0.196148076
0.196338477
0.196278157
0.196394837
0.196476343
0.196241548
0.196228878
0.196527674
0.196894701
0.197003775
0.196397826
0.195878661
0.196073624
)
;

boundaryField
{
    closed
    {
        type            calculated;
        value           nonuniform List<scalar> 0();
    }
    open
    {
        type            calculated;
        value           uniform 0.196128534;
    }
    sides
    {
        type            empty;
    }
    procBoundary5to4
    {
        type            processor;
        value           uniform 0.18639331;
    }
}


// ************************************************************************* //
