/*--------------------------------*- C++ -*----------------------------------*\
| =========                 |                                                 |
| \\      /  F ield         | OpenFOAM: The Open Source CFD Toolbox           |
|  \\    /   O peration     | Version:  2306                                  |
|   \\  /    A nd           | Website:  www.openfoam.com                      |
|    \\/     M anipulation  |                                                 |
\*---------------------------------------------------------------------------*/
FoamFile
{
    version     2.0;
    format      ascii;
    arch        "LSB;label=32;scalar=64";
    class       volScalarField;
    location    "0.0015";
    object      prefDh_H;
}
// * * * * * * * * * * * * * * * * * * * * * * * * * * * * * * * * * * * * * //

dimensions      [1 1 -3 0 0 0 0];

internalField   nonuniform List<scalar> 
530
(
92368.5067
92437.6301
92502.8239
92569.4569
92632.0866
92696.4145
92756.6863
92818.879
92876.7557
92933.9591
92987.2105
93042.5394
93093.9084
93147.457
93197.0563
93248.9168
93296.8511
93347.1141
93393.4821
93442.2367
93487.1319
93534.4658
93577.9772
93623.9778
93666.1897
93710.4725
93749.9294
93791.8181
93830.0839
93870.8402
93907.9612
93947.6292
93983.6514
94022.2727
94057.2414
94094.8563
94128.8149
94165.4631
94199.6373
94237.0233
94270.4427
94306.8481
94339.3003
94374.7697
94406.2985
94440.876
94471.5238
94505.2532
94535.0608
94567.9861
94596.9922
94627.9954
94654.9788
94685.0499
94711.2332
94740.5273
94765.929
94794.4662
94819.1052
94846.9041
94870.7986
94897.877
94921.0448
94947.4197
94969.8778
94995.566
95017.3308
95042.3485
95063.4358
95087.799
95108.2242
95131.9484
95151.7265
95174.827
95193.9726
95216.4643
95234.9919
95256.8896
95274.8133
95296.1317
95313.4651
95334.219
95350.9758
95371.1799
95387.3734
95407.0427
95422.686
95441.8359
95456.9421
95475.5878
95490.1702
95508.3272
95522.3992
95540.083
95553.6588
95570.8845
95583.6757
95599.9064
95612.0475
95627.8052
95639.4203
95654.7075
95665.8007
95680.6194
95691.1949
95705.5456
95715.6081
95729.4886
95739.0429
95752.4496
95761.4973
95774.4319
95782.9656
95795.4457
95803.4434
95815.5091
95822.9384
95834.2423
95841.8448
95852.0909
95859.7758
95869.0575
95876.7425
95885.1333
95892.7537
95900.3099
95907.8155
95914.5833
95921.9327
95927.9534
95935.1102
95940.4221
95947.3534
95951.992
95958.668
95962.6651
95968.883
95972.3044
95978.344
95981.1969
95986.8976
95989.2052
95994.5487
95996.3315
96001.3032
96002.5782
96007.1672
96007.9481
96012.1468
96012.4446
96016.248
96016.0716
96019.4768
96018.8338
96021.8391
96020.7359
96023.3408
96021.7832
96023.988
96021.981
96023.7868
96021.335
96022.7435
96019.851
96020.8648
96017.5351
96018.1573
96014.3937
96014.628
96010.4333
96010.2841
96005.6611
96005.1328
96000.0845
95999.1818
95993.7113
95992.4387
95986.5499
95984.9116
95978.6093
95976.6086
95969.8988
95967.5379
95960.4286
95957.7079
95950.2093
95947.127
95939.2522
95935.8039
95927.5694
95923.7472
95915.1732
95910.9657
95902.0773
95897.4693
95888.2958
95883.2694
95873.844
95868.3806
95858.7393
95852.8206
95843.0514
95836.7228
95826.9641
95820.3042
95810.0564
95802.9208
95792.4809
95784.8893
95774.2465
95766.2147
95755.3658
95746.9063
95735.8506
95726.9722
95715.7105
95706.4205
95694.9536
95685.2595
95673.5875
95663.4976
95651.6194
95641.1431
95629.0574
95618.2052
95605.9095
95594.6928
95582.1847
95570.6152
95557.8923
95545.9819
95533.0421
95520.8025
95507.6442
95495.0867
95481.7089
95468.8444
95455.2468
95442.0858
95428.2687
95414.8213
95400.7855
95387.0613
95372.8085
95358.8166
95344.3489
95330.0982
95315.4182
95300.9171
95286.0279
95271.2847
95256.1762
95241.0756
95225.652
95210.3246
95194.705
95179.1586
95163.3475
95147.59
95131.5923
95115.6313
95099.4521
95083.2952
95066.9397
95050.5943
95034.0681
95017.5416
95000.8502
94984.15
94967.2993
94950.4326
94933.4284
94916.4025
94899.251
94882.0731
94864.7803
94847.4575
94830.0296
94812.5692
94795.0125
94777.4216
94759.7424
94742.0281
94724.2328
94706.4023
94688.4972
94670.5577
94652.5492
94634.5077
94616.4024
94598.266
94580.0785
94561.889
94543.6385
94525.3524
94507.0113
94488.6359
94470.2114
94451.7543
94433.2534
94414.7222
94396.152
94377.554
94358.9216
94340.2642
94321.5767
94302.8672
94284.1316
94265.3773
94246.6007
94227.8086
94208.9981
94190.1753
94171.3378
94152.4915
94133.634
94114.7709
94095.9003
94077.0274
94058.1505
94039.2746
94020.3983
94001.5261
93982.657
93963.795
93944.9398
93926.0947
93907.2598
93888.4382
93869.63
93850.8384
93832.0631
93813.3077
93794.5714
93775.8588
93757.1674
93738.5037
93719.7702
93700.9994
93682.2599
93663.5585
93644.8918
93626.2653
93607.6767
93589.1305
93570.625
93552.1645
93533.7472
93515.3775
93497.0533
93478.7795
93460.5533
93442.3801
93424.2569
93406.189
93388.1733
93370.2154
93352.3119
93334.4684
93316.6815
93298.9568
93281.2908
93263.6892
93246.1483
93228.6738
93211.2621
93193.9188
93176.6403
93159.432
93142.2904
93125.221
93108.22
93091.293
93074.4362
93057.6551
93040.946
93024.3142
93007.756
92991.2768
92974.8728
92958.5491
92942.3023
92926.1372
92910.0506
92894.0468
92878.1233
92862.2836
92846.5259
92830.8527
92815.2633
92799.7593
92784.3405
92769.0081
92753.7621
92738.6038
92723.5324
92708.5505
92693.6931
92678.9367
92664.2661
92649.6836
92635.1887
92620.7826
92606.4651
92592.2376
92578.0995
92564.0525
92550.0956
92536.2309
92522.4569
92508.7761
92495.1866
92481.6911
92468.2875
92454.9787
92441.7623
92428.6413
92415.6133
92402.6811
92389.8425
92377.1
92364.4516
92351.8997
92339.4423
92327.0815
92314.8155
92302.6464
92290.5725
92278.5955
92266.7138
92254.9291
92243.2399
92231.6477
92220.1511
92208.7514
92197.4473
92186.24
92175.1282
92164.1131
92153.1934
92142.3702
92131.6422
92121.0103
92110.4735
92100.0325
92089.6864
92079.4355
92069.2794
92059.2179
92049.2511
92039.3781
92029.5959
92019.7549
92009.6525
91998.9436
91987.6021
91975.601
91962.9146
91949.5181
91935.3882
91920.5037
91904.8459
91888.3997
91871.1536
91853.1014
91834.2427
91814.5837
91794.1395
91772.933
91750.9997
91728.3843
91705.1478
91681.362
91657.118
91632.5193
91607.6907
91582.7692
91557.9144
91533.2949
91509.0999
91485.5221
91462.7676
91441.0369
91420.5313
91401.4333
91383.9086
91368.089
91354.0685
91341.8956
91331.5636
91323.0173
91316.1425
91310.7877
91306.7579
91303.8453
91301.8292
91300.5046
91299.6881
91299.2164
91298.996
91298.7898
91298.5991
91298.5
91298.4564
91298.4378
91298.4311
91298.4291
91298.4281
91298.4279
91298.4278
91298.4278
91298.4278
91298.4278
91298.4278
91298.4278
91298.4278
91298.4278
91298.4278
91298.4278
91298.4278
91298.4278
91298.4278
91298.4278
91298.4278
91298.4278
91298.4278
91298.4278
91298.4278
91298.4278
91298.4278
)
;

boundaryField
{
    closed
    {
        type            calculated;
        value           nonuniform List<scalar> 0();
    }
    open
    {
        type            calculated;
        value           uniform 91298.4278;
    }
    sides
    {
        type            empty;
    }
    procBoundary5to4
    {
        type            processor;
        value           uniform 92300.5357;
    }
}


// ************************************************************************* //
