/*--------------------------------*- C++ -*----------------------------------*\
| =========                 |                                                 |
| \\      /  F ield         | OpenFOAM: The Open Source CFD Toolbox           |
|  \\    /   O peration     | Version:  2306                                  |
|   \\  /    A nd           | Website:  www.openfoam.com                      |
|    \\/     M anipulation  |                                                 |
\*---------------------------------------------------------------------------*/
FoamFile
{
    version     2.0;
    format      ascii;
    arch        "LSB;label=32;scalar=64";
    class       volScalarField;
    location    "0.00078";
    object      H2;
}
// * * * * * * * * * * * * * * * * * * * * * * * * * * * * * * * * * * * * * //

dimensions      [0 0 0 0 0 0 0];

internalField   nonuniform List<scalar> 
530
(
0.000210382
0.000207542624
0.000204923797
0.000202199808
0.000199628445
0.00019691199
0.000194453575
0.000191832979
0.000189484648
0.000186955026
0.000184711082
0.000182154157
0.000179888645
0.000177329382
0.000175143834
0.00017260244
0.000170489689
0.000168030563
0.000166016557
0.000163635501
0.000161716407
0.000159408837
0.000157581461
0.000155342465
0.000153604117
0.000151428571
0.000149776842
0.000147659437
0.000146092106
0.000144048921
0.000142506884
0.000140514376
0.000138992901
0.000137102282
0.000135601546
0.00013380716
0.000132327238
0.000130623917
0.000129164808
0.000127547788
0.00012610929
0.000124574214
0.000123155846
0.000121698748
0.000120299762
0.000118917043
0.000117536451
0.000116224855
0.000114861435
0.000113606249
0.000112235412
0.000111036627
0.000109678937
0.000108543111
0.000107197635
0.000106122663
0.000104789022
0.000103772319
0.000102450987
0.000101489373
0.000100209383
9.9281483e-05
9.80232737e-05
9.71095624e-05
9.58992722e-05
9.49992256e-05
9.38349559e-05
9.29488908e-05
9.1825711e-05
9.09467558e-05
8.98614531e-05
8.89970575e-05
8.79508576e-05
8.71008225e-05
8.60918757e-05
8.52557854e-05
8.42824914e-05
8.34598409e-05
8.25182048e-05
8.16959574e-05
8.07742808e-05
7.99639644e-05
7.90735172e-05
7.82750028e-05
7.74146584e-05
7.66278755e-05
7.57965114e-05
7.50214162e-05
7.42179322e-05
7.34544907e-05
7.26778153e-05
7.19259972e-05
7.11750888e-05
7.04348648e-05
6.9708713e-05
6.89800516e-05
6.82776814e-05
6.75605426e-05
6.68810205e-05
6.61753473e-05
6.55177902e-05
6.48234978e-05
6.41870827e-05
6.35040473e-05
6.28880204e-05
6.22160698e-05
6.16197527e-05
6.09586608e-05
6.03814513e-05
5.97309402e-05
5.91723029e-05
5.85320571e-05
5.79915021e-05
5.73611943e-05
5.68382468e-05
5.62175648e-05
5.57117472e-05
5.51003867e-05
5.46112612e-05
5.40088189e-05
5.35361642e-05
5.29418592e-05
5.24860373e-05
5.18982523e-05
5.14607108e-05
5.08765366e-05
5.04601561e-05
4.98753803e-05
4.94827668e-05
4.89075765e-05
4.85077061e-05
4.79562128e-05
4.75544944e-05
4.70219777e-05
4.66219751e-05
4.6105445e-05
4.57090741e-05
4.52068737e-05
4.48150456e-05
4.43262221e-05
4.39394257e-05
4.3463283e-05
4.30764373e-05
4.26038193e-05
4.22198668e-05
4.17589245e-05
4.13801854e-05
4.09303263e-05
4.05570622e-05
4.0117782e-05
3.9750172e-05
3.93210476e-05
3.89591966e-05
3.85398737e-05
3.81838271e-05
3.77740063e-05
3.74237638e-05
3.70231878e-05
3.66787169e-05
3.62871584e-05
3.59484051e-05
3.55656568e-05
3.52325545e-05
3.48584214e-05
3.45308972e-05
3.41651911e-05
3.38431702e-05
3.34857065e-05
3.31691149e-05
3.28197098e-05
3.25084743e-05
3.21669458e-05
3.18609876e-05
3.15271636e-05
3.12263803e-05
3.08972533e-05
3.0598729e-05
3.0277583e-05
2.99859813e-05
2.96737018e-05
2.93888811e-05
2.90852249e-05
2.88070649e-05
2.85117808e-05
2.82401688e-05
2.7953006e-05
2.76878335e-05
2.74085435e-05
2.71497046e-05
2.68780413e-05
2.66254326e-05
2.63611529e-05
2.61146709e-05
2.58575368e-05
2.56170732e-05
2.53668567e-05
2.51322907e-05
2.48887801e-05
2.46599727e-05
2.44229754e-05
2.41994072e-05
2.39629815e-05
2.37388019e-05
2.35071963e-05
2.32869788e-05
2.30600754e-05
2.28437416e-05
2.26214209e-05
2.24089039e-05
2.21910308e-05
2.19822695e-05
2.17686996e-05
2.1563632e-05
2.13542177e-05
2.11527775e-05
2.0947371e-05
2.07494866e-05
2.05479409e-05
2.03535308e-05
2.01557062e-05
1.99646583e-05
1.97704506e-05
1.958256e-05
1.93919795e-05
1.92068178e-05
1.9031269e-05
1.88642965e-05
1.8695163e-05
1.85301261e-05
1.83628439e-05
1.81995435e-05
1.8034227e-05
1.78726281e-05
1.77092819e-05
1.75493997e-05
1.73880045e-05
1.72298613e-05
1.70703981e-05
1.69140128e-05
1.6756467e-05
1.66018549e-05
1.64462156e-05
1.62933887e-05
1.61396482e-05
1.5988616e-05
1.58367699e-05
1.56875386e-05
1.55375862e-05
1.53901582e-05
1.52421036e-05
1.50964762e-05
1.49503295e-05
1.48064945e-05
1.46622728e-05
1.45202154e-05
1.43779441e-05
1.42376437e-05
1.40973573e-05
1.39587877e-05
1.38205302e-05
1.36836645e-05
1.35466024e-05
1.3405109e-05
1.32645434e-05
1.31256179e-05
1.29873391e-05
1.28508743e-05
1.27148811e-05
1.25807846e-05
1.24470629e-05
1.23152613e-05
1.21837869e-05
1.20542217e-05
1.19249639e-05
1.17975864e-05
1.16705111e-05
1.15452786e-05
1.14203519e-05
1.12972231e-05
1.1174414e-05
1.10533462e-05
1.0932629e-05
1.08135755e-05
1.06949301e-05
1.05778387e-05
1.04612505e-05
1.03469406e-05
1.02347631e-05
1.01239348e-05
1.00134421e-05
9.90439293e-06
9.79560158e-06
9.68829906e-06
9.58121335e-06
9.47563256e-06
9.37024844e-06
9.26637031e-06
9.16267832e-06
9.06048774e-06
8.95847539e-06
8.85795951e-06
8.75761301e-06
8.65875995e-06
8.56006531e-06
8.46286338e-06
8.36580687e-06
8.27024421e-06
8.17481257e-06
8.08087705e-06
7.98705743e-06
7.8947367e-06
7.80251662e-06
7.71179814e-06
7.62116537e-06
7.53203653e-06
7.44297903e-06
7.35542713e-06
7.26793302e-06
7.18194532e-06
7.09600281e-06
7.01156654e-06
6.92716392e-06
6.84426623e-06
6.76139186e-06
6.68001984e-06
6.59866212e-06
6.51880276e-06
6.43895011e-06
6.36059033e-06
6.28223114e-06
6.20535775e-06
6.1284804e-06
6.05308008e-06
5.9776729e-06
5.90373221e-06
5.82978346e-06
5.75728883e-06
5.68478666e-06
5.6137244e-06
5.54265687e-06
5.47301311e-06
5.40336813e-06
5.3351289e-06
5.26689424e-06
5.20004541e-06
5.13320865e-06
5.06773595e-06
5.00228452e-06
4.93817353e-06
4.87409465e-06
4.81133082e-06
4.74861151e-06
4.68718014e-06
4.6258072e-06
4.56569349e-06
4.50565348e-06
4.44684248e-06
4.38812174e-06
4.3305984e-06
4.27318303e-06
4.21693217e-06
4.16080801e-06
4.10581437e-06
4.05096703e-06
3.99721523e-06
3.94363006e-06
3.89110466e-06
3.83876674e-06
3.7874522e-06
3.73634638e-06
3.6862271e-06
3.63633797e-06
3.5873983e-06
3.53871018e-06
3.4909344e-06
3.44343139e-06
3.39680375e-06
3.35046969e-06
3.30497441e-06
3.25979292e-06
3.21541417e-06
3.17136863e-06
3.12809057e-06
3.08516416e-06
3.04297095e-06
3.0011466e-06
2.96002239e-06
2.91928287e-06
2.8792118e-06
2.83953967e-06
2.8005059e-06
2.76188356e-06
2.72387124e-06
2.68628093e-06
2.64927424e-06
2.61269803e-06
2.57668119e-06
2.54110104e-06
2.50605825e-06
2.47145602e-06
2.43737154e-06
2.40372896e-06
2.37058705e-06
2.3378858e-06
2.30567079e-06
2.27389247e-06
2.24258868e-06
2.21171487e-06
2.18130666e-06
2.15131893e-06
2.12179069e-06
2.09267059e-06
2.06400675e-06
2.03573585e-06
2.00792087e-06
1.9804808e-06
1.95349915e-06
1.9268716e-06
1.90070778e-06
1.87487455e-06
1.84951308e-06
1.82445604e-06
1.79988147e-06
1.77558265e-06
1.75177955e-06
1.72822112e-06
1.70517405e-06
1.68233837e-06
1.66003191e-06
1.63790153e-06
1.61632028e-06
1.59487796e-06
1.57400651e-06
1.55323525e-06
1.53305821e-06
1.51294126e-06
1.49344322e-06
1.47396412e-06
1.45512967e-06
1.43627225e-06
1.41808598e-06
1.39983436e-06
1.38228086e-06
1.36461951e-06
1.34768335e-06
1.33059705e-06
1.3142628e-06
1.29773672e-06
1.28198894e-06
1.26600857e-06
1.25083182e-06
1.23538306e-06
1.22074649e-06
1.20525181e-06
1.18962029e-06
1.17250687e-06
1.15536364e-06
1.13657728e-06
1.11791173e-06
1.09743659e-06
1.07728381e-06
1.05515772e-06
1.03361044e-06
1.00994362e-06
9.87162543e-07
9.62160265e-07
9.38380416e-07
9.12369251e-07
8.87897925e-07
8.61354938e-07
8.36556927e-07
8.10137077e-07
7.85405997e-07
7.59955319e-07
7.35680114e-07
7.12204871e-07
6.88762527e-07
6.68294357e-07
6.46143605e-07
6.29347925e-07
6.09530354e-07
5.9553086e-07
5.81355556e-07
5.69358523e-07
5.57776424e-07
5.48911437e-07
5.40976386e-07
5.35559933e-07
5.35541458e-07
5.35529811e-07
5.35523178e-07
5.35519607e-07
5.35517808e-07
5.35516963e-07
5.35516596e-07
5.35516469e-07
5.355164e-07
5.35516374e-07
5.35516366e-07
5.35516364e-07
5.35516363e-07
5.35516363e-07
5.35516363e-07
5.35516363e-07
5.35516363e-07
5.35516363e-07
5.35516363e-07
5.35516363e-07
5.35516363e-07
5.35516363e-07
5.35516363e-07
5.35516363e-07
5.35516363e-07
5.35516363e-07
5.35516363e-07
5.35516363e-07
5.35516363e-07
5.35516363e-07
5.35516363e-07
5.35516363e-07
5.35516363e-07
5.35516363e-07
5.35516363e-07
5.35516363e-07
5.35516363e-07
5.35516363e-07
5.35516363e-07
5.35516363e-07
5.35516363e-07
5.35516363e-07
)
;

boundaryField
{
    closed
    {
        type            calculated;
        value           nonuniform List<scalar> 0();
    }
    open
    {
        type            calculated;
        value           uniform 5.35516363e-07;
    }
    sides
    {
        type            empty;
    }
    procBoundary5to4
    {
        type            processor;
        value           uniform 0.000213136074;
    }
}


// ************************************************************************* //
