/*--------------------------------*- C++ -*----------------------------------*\
| =========                 |                                                 |
| \\      /  F ield         | OpenFOAM: The Open Source CFD Toolbox           |
|  \\    /   O peration     | Version:  2306                                  |
|   \\  /    A nd           | Website:  www.openfoam.com                      |
|    \\/     M anipulation  |                                                 |
\*---------------------------------------------------------------------------*/
FoamFile
{
    version     2.0;
    format      ascii;
    arch        "LSB;label=32;scalar=64";
    class       volScalarField;
    location    "0.00078";
    object      prefDh_T;
}
// * * * * * * * * * * * * * * * * * * * * * * * * * * * * * * * * * * * * * //

dimensions      [1 1 -3 -1 0 0 0];

internalField   nonuniform List<scalar> 
530
(
0.00601923793
0.00607024514
0.00611725731
0.00616647756
0.00620830141
0.00625227629
0.00629220182
0.00633477785
0.00637300087
0.00641424068
0.00645084097
0.00649231257
0.00652886943
0.00656999231
0.00660358008
0.00664046294
0.00667117454
0.00670673769
0.00673590611
0.00677022164
0.00679791101
0.0068310554
0.00685731921
0.00688937208
0.00691425623
0.00694529807
0.00696884487
0.00699895682
0.00702120599
0.00704823691
0.00706777269
0.00709302897
0.00711219357
0.00713611323
0.00715491348
0.00717756842
0.00719601172
0.00721746727
0.00723556084
0.00725587681
0.00727362982
0.00729286045
0.00731028536
0.00732847955
0.00734559198
0.00736279383
0.00737961205
0.00739586121
0.00741240606
0.00742680195
0.00744135241
0.00745430225
0.00746867112
0.00748087657
0.00749507562
0.00750656209
0.00752059512
0.00753139313
0.00754525668
0.00755539954
0.00756883218
0.00757853035
0.00759170118
0.00760113838
0.00761381015
0.00762300443
0.00763518892
0.00764414789
0.00765586579
0.00766459398
0.00767586185
0.00768435382
0.00769518855
0.00770345262
0.00771387086
0.00772191737
0.00773193339
0.00773977315
0.00774918731
0.00775579859
0.00776385862
0.00777031467
0.00777806688
0.00778437266
0.00779182633
0.00779798584
0.0078051505
0.00781116716
0.00781805242
0.00782392929
0.00783054474
0.00783628455
0.00784263972
0.007848245
0.0078543492
0.0078598224
0.00786568465
0.00787102827
0.00787665716
0.00788187384
0.00788727746
0.00789237012
0.00789755595
0.00790252784
0.00790750274
0.00791235745
0.00791712771
0.00792186912
0.00792644059
0.00793107264
0.00793545096
0.00793997743
0.00794416837
0.00794859252
0.00795260224
0.00795692669
0.00796076166
0.0079649889
0.00796865488
0.00797278899
0.00797628887
0.00798033807
0.00798366941
0.00798764779
0.00799080228
0.00799472788
0.00799769446
0.0080015852
0.00800381356
0.00800676651
0.00800892485
0.00801174825
0.00801387165
0.00801658149
0.00801865798
0.00802126831
0.00802328957
0.00802580981
0.00802777239
0.0080302079
0.00803211137
0.00803446557
0.00803625781
0.00803844623
0.00804016644
0.0080422776
0.00804394535
0.00804598275
0.00804759834
0.00804956525
0.0080511292
0.00805302865
0.0080545417
0.00805637645
0.00805783962
0.00805961213
0.00806102668
0.00806273911
0.00806410656
0.00806576083
0.00806708285
0.00806868066
0.00806995906
0.00807150199
0.00807273864
0.00807422819
0.00807542495
0.00807686258
0.0080780213
0.00807940846
0.00808053093
0.00808186912
0.00808295712
0.00808424775
0.00808530321
0.0080865636
0.00808760096
0.00808880769
0.0080897986
0.00809094738
0.00809189429
0.00809298776
0.00809389287
0.00809493374
0.00809579909
0.0080967901
0.00809761763
0.00809856148
0.00809935305
0.00810025242
0.0081010098
0.00810186734
0.00810259221
0.00810341052
0.00810410455
0.00810488609
0.00810555101
0.0081062981
0.00810693574
0.00810765045
0.00810825539
0.00810884014
0.00810933552
0.00810990156
0.00811038502
0.00811093349
0.00811140594
0.008111938
0.00811240022
0.00811291713
0.0081133698
0.00811387292
0.0081143167
0.00811480734
0.0081152429
0.00811572239
0.0081161504
0.00811662003
0.0081170412
0.00811750217
0.00811791749
0.00811837065
0.00811878188
0.00811922703
0.00811963808
0.00811978363
0.00811978827
0.00811981787
0.00811983166
0.00811987123
0.0081198957
0.00811994446
0.00811997987
0.00812003779
0.00812008403
0.00812015124
0.00812020814
0.00812028474
0.00812035215
0.0081204382
0.00812051596
0.00812061148
0.00812069946
0.00812080442
0.00812090247
0.00812101681
0.00812112481
0.00812124845
0.00812136628
0.00812149906
0.00812162662
0.00812176835
0.00812190557
0.00812205598
0.00812220283
0.00812236157
0.00812251804
0.0081226847
0.00812285081
0.00812302486
0.00812320063
0.00812338895
0.00812362772
0.0081238696
0.00812411092
0.00812435733
0.00812460174
0.00812485244
0.00812510038
0.00812535519
0.00812560692
0.00812586576
0.00812612143
0.00812638423
0.0081266439
0.00812691061
0.00812717429
0.00812744486
0.00812771254
0.00812798686
0.00812825853
0.00812853647
0.00812881214
0.00812909349
0.00812937322
0.00812965774
0.00812990983
0.00813010837
0.00813030719
0.00813051246
0.00813071711
0.00813092864
0.00813113901
0.00813135642
0.00813157235
0.00813179529
0.00813201656
0.00813224475
0.0081324711
0.00813270425
0.00813293541
0.00813317325
0.00813340893
0.00813365118
0.00813389109
0.00813413749
0.00813438132
0.00813463158
0.00813487906
0.00813513288
0.00813538371
0.00813564082
0.00813589471
0.00813615481
0.00813641148
0.00813667427
0.00813693344
0.00813719865
0.00813746002
0.00813772735
0.00813799066
0.00813825983
0.0081385248
0.00813879553
0.00813906188
0.00813933388
0.00813960135
0.00813987437
0.0081401427
0.00814041644
0.00814068537
0.00814095959
0.00814122887
0.0081415033
0.0081417727
0.00814204708
0.00814231635
0.00814259044
0.00814285935
0.00814313292
0.00814340124
0.00814367405
0.00814394158
0.00814421339
0.00814447992
0.00814475053
0.00814501585
0.00814528504
0.00814554896
0.00814581654
0.00814607887
0.00814634463
0.0081466052
0.00814686897
0.00814712761
0.0081473892
0.00814764574
0.00814790499
0.00814815928
0.00814841603
0.00814866792
0.00814892203
0.00814917138
0.00814942269
0.00814966938
0.00814991776
0.00815016165
0.00815040698
0.00815064797
0.00815089013
0.0081511281
0.00815136699
0.00815160184
0.00815183736
0.008152069
0.00815230105
0.00815252939
0.0081527579
0.00815298285
0.00815320774
0.00815342923
0.00815365044
0.0081538684
0.00815408587
0.00815430024
0.00815451391
0.00815472464
0.00815493448
0.00815514151
0.00815534747
0.00815555076
0.00815575282
0.00815595234
0.00815615047
0.00815634617
0.00815654036
0.00815673222
0.00815692246
0.00815711045
0.00815729674
0.00815748085
0.00815766318
0.00815784339
0.00815802177
0.00815819808
0.00815837252
0.00815854492
0.00815871545
0.00815888393
0.00815905056
0.00815921513
0.00815937789
0.00815953857
0.00815969748
0.00815985426
0.00816000936
0.00816016228
0.0081603136
0.00816046266
0.00816061025
0.00816075548
0.00816089938
0.00816104079
0.00816118105
0.00816131868
0.00816145534
0.00816158922
0.00816172233
0.0081618525
0.00816198211
0.00816210861
0.00816223477
0.00816235764
0.0081624804
0.00816259968
0.0081627191
0.00816283485
0.00816295098
0.00816306323
0.00816317613
0.00816328495
0.00816339468
0.0081635001
0.00816360671
0.00816370881
0.00816381236
0.00816391119
0.00816401173
0.00816410735
0.00816420494
0.00816429741
0.00816439211
0.0081644816
0.00816457692
0.00816467282
0.00816477852
0.00816488411
0.00816500065
0.00816511613
0.00816524376
0.00816536906
0.00816550773
0.00816564244
0.00816579165
0.00816593496
0.00816609362
0.00816624425
0.00816641046
0.00816656669
0.00816673756
0.00816689727
0.00816706869
0.00816722952
0.00816739603
0.00816755559
0.00816771051
0.00816786634
0.0081680027
0.00816815161
0.00816826478
0.00816839931
0.00816849494
0.0081685923
0.00816867511
0.00816875565
0.00816881742
0.0081688733
0.00816891201
0.00816891155
0.00816891095
0.00816891032
0.0081689098
0.00816890944
0.00816890921
0.00816890908
0.00816890903
0.00816890899
0.00816890898
0.00816890897
0.00816890897
0.00816890897
0.00816890897
0.00816890897
0.00816890897
0.00816890897
0.00816890897
0.00816890897
0.00816890897
0.00816890897
0.00816890897
0.00816890897
0.00816890897
0.00816890897
0.00816890897
0.00816890897
0.00816890897
0.00816890897
0.00816890897
0.00816890897
0.00816890897
0.00816890897
0.00816890897
0.00816890897
0.00816890897
0.00816890897
0.00816890897
0.00816890897
0.00816890897
0.00816890897
0.00816890897
)
;

boundaryField
{
    closed
    {
        type            calculated;
        value           nonuniform List<scalar> 0();
    }
    open
    {
        type            calculated;
        value           uniform 0.00816890897;
    }
    sides
    {
        type            empty;
    }
    procBoundary5to4
    {
        type            processor;
        value           uniform 0.00597000987;
    }
}


// ************************************************************************* //
