/*--------------------------------*- C++ -*----------------------------------*\
| =========                 |                                                 |
| \\      /  F ield         | OpenFOAM: The Open Source CFD Toolbox           |
|  \\    /   O peration     | Version:  2306                                  |
|   \\  /    A nd           | Website:  www.openfoam.com                      |
|    \\/     M anipulation  |                                                 |
\*---------------------------------------------------------------------------*/
FoamFile
{
    version     2.0;
    format      ascii;
    arch        "LSB;label=32;scalar=64";
    class       volScalarField;
    location    "0.00078";
    object      Z;
}
// * * * * * * * * * * * * * * * * * * * * * * * * * * * * * * * * * * * * * //

dimensions      [0 0 0 0 0 0 0];

internalField   nonuniform List<scalar> 
530
(
0.0163702423
0.0163740826
0.0163772657
0.0163808418
0.0163835128
0.0163865412
0.0163889518
0.016391741
0.0163939061
0.0163964596
0.0163983841
0.016401034
0.0164030847
0.0164057363
0.0164074393
0.0164095838
0.0164109257
0.0164128074
0.0164139048
0.0164155251
0.0164163841
0.0164177456
0.0164183703
0.0164194783
0.0164198689
0.016420733
0.016420885
0.0164215181
0.0164214255
0.0164215645
0.0164210677
0.0164209351
0.0164202254
0.0164198543
0.0164189231
0.0164183234
0.0164171653
0.0164163435
0.016414957
0.0164139176
0.0164123037
0.0164110506
0.0164092111
0.0164077478
0.016405685
0.0164040149
0.0164017311
0.0163998576
0.0163973554
0.0163951801
0.016392265
0.016389817
0.0163866802
0.0163840373
0.0163806767
0.0163778439
0.0163742562
0.0163712383
0.0163674236
0.0163642223
0.0163603327
0.0163568328
0.0163528345
0.0163488839
0.0163449226
0.016340557
0.0163366044
0.0163318565
0.0163278943
0.0163228082
0.0163188193
0.0163133975
0.0163093589
0.0163036202
0.0162995198
0.0162934818
0.0162893093
0.0162829886
0.0162787092
0.0162719936
0.0162674959
0.0162605199
0.0162559234
0.0162486993
0.0162439978
0.0162365371
0.0162317259
0.0162240388
0.0162191146
0.0162112105
0.016206171
0.0161980585
0.0161929022
0.0161845895
0.0161793156
0.0161708105
0.0161654186
0.0161567291
0.0161512189
0.0161423531
0.0161367241
0.0161276907
0.0161219424
0.0161127503
0.016106882
0.0160975405
0.0160915518
0.0160820698
0.0160759612
0.0160663468
0.0160601202
0.0160503796
0.0160440395
0.0160341766
0.0160277303
0.0160177459
0.0160112037
0.016001097
0.0159944698
0.0159842408
0.0159775384
0.015967188
0.0159604225
0.0159499416
0.0159431486
0.0159324818
0.0159257647
0.0159147666
0.0159082398
0.0158971478
0.015889984
0.015879247
0.0158716863
0.0158611458
0.0158533025
0.0158428891
0.0158348154
0.0158244983
0.0158162269
0.0158059864
0.0157975449
0.015787365
0.0157787881
0.0157686727
0.0157599756
0.0157498998
0.0157410962
0.0157310545
0.0157221586
0.0157121484
0.0157031717
0.0156931926
0.0156841451
0.0156741977
0.0156650885
0.0156551741
0.015646012
0.0156361319
0.0156269254
0.0156170811
0.0156078386
0.0155980316
0.0155887616
0.0155789933
0.015569704
0.015559976
0.0155506755
0.0155409893
0.0155316854
0.015522043
0.0155127432
0.0155031465
0.0154938579
0.0154843093
0.0154750387
0.0154655472
0.0154563082
0.0154468683
0.0154376563
0.0154282686
0.0154190897
0.0154097574
0.0154006172
0.0153913436
0.0153822476
0.0153730359
0.0153639893
0.0153548429
0.0153458507
0.0153367729
0.0153278399
0.0153188341
0.0153099648
0.0153010342
0.0152922329
0.0152833808
0.0152746517
0.0152658813
0.0152572282
0.0152485426
0.01523997
0.0152313827
0.0152229041
0.0152144096
0.0152060195
0.0151976202
0.0151893215
0.0151810199
0.0151728154
0.0151646139
0.0151565063
0.0151484069
0.0151403986
0.0151324034
0.0151244969
0.0151166078
0.0151088051
0.0151010239
0.0150933273
0.0150856555
0.0150780668
0.0150705063
0.015063027
0.0150555795
0.0150482101
0.015040799
0.0150334267
0.0150260884
0.0150188262
0.0150115995
0.0150044475
0.0149973335
0.0149902924
0.0149832918
0.0149763625
0.0149694757
0.014962659
0.0149558866
0.014949183
0.0149425254
0.0149359355
0.014929393
0.0149229173
0.0149164903
0.0149101292
0.0149038178
0.0148975716
0.0148913761
0.014885245
0.0148791656
0.0148731497
0.0148671864
0.0148612858
0.0148554387
0.0148496533
0.0148439223
0.0148382521
0.0148326372
0.014827082
0.0148215831
0.0148161425
0.0148107616
0.0148054522
0.0148001995
0.0147950036
0.0147898639
0.014784781
0.0147797538
0.0147747833
0.0147698682
0.0147650095
0.0147602059
0.0147554583
0.0147507654
0.0147461281
0.0147415453
0.0147370175
0.0147325438
0.0147281246
0.014723759
0.0147194475
0.014715189
0.0147109841
0.0147068316
0.0147027322
0.0146986846
0.0146946882
0.014690741
0.0146868459
0.014683001
0.014679208
0.0146754642
0.014671772
0.0146681279
0.0146645349
0.0146609892
0.0146574941
0.0146540452
0.0146506464
0.0146472928
0.0146439889
0.0146407291
0.0146375185
0.0146343508
0.0146312319
0.0146281549
0.0146251261
0.0146221381
0.0146191978
0.0146162971
0.0146134438
0.0146106288
0.0146078607
0.0146051297
0.0146024452
0.0145997967
0.014597194
0.0145946263
0.0145921039
0.0145896152
0.0145871713
0.0145847601
0.0145823931
0.0145800577
0.0145777659
0.0145755046
0.0145732863
0.0145710975
0.0145689511
0.014566833
0.0145647568
0.014562708
0.0145607003
0.0145587191
0.0145567783
0.0145548629
0.0145529874
0.0145511364
0.0145493245
0.0145475363
0.0145457864
0.0145440593
0.0145423698
0.0145407024
0.0145390717
0.0145374624
0.0145358889
0.0145343362
0.0145328184
0.0145313207
0.0145298571
0.014528413
0.0145270021
0.01452561
0.0145242503
0.0145229088
0.0145215988
0.0145203066
0.0145190449
0.0145178004
0.0145165855
0.0145153875
0.014514218
0.0145130651
0.0145119397
0.0145108304
0.0145097478
0.0145086809
0.0145076396
0.0145066138
0.0145056127
0.0145046267
0.0145036644
0.014502717
0.0145017923
0.0145008823
0.014499994
0.01449912
0.0144982669
0.014497428
0.0144966089
0.0144958038
0.0144950176
0.0144942452
0.0144934907
0.0144927499
0.0144920262
0.0144913159
0.0144906219
0.0144899411
0.0144892756
0.0144886233
0.0144879854
0.0144873605
0.0144867493
0.0144861509
0.0144855654
0.0144849925
0.0144844318
0.0144838834
0.0144833467
0.014482822
0.0144823082
0.0144818063
0.0144813148
0.0144808348
0.0144803646
0.0144799057
0.0144794561
0.0144790175
0.0144785877
0.0144781686
0.0144777579
0.0144773575
0.0144769651
0.0144765827
0.0144762079
0.0144758428
0.014475485
0.0144751365
0.014474795
0.0144744623
0.0144741365
0.0144738191
0.0144735083
0.0144732055
0.0144729092
0.0144726203
0.014472338
0.0144720625
0.0144717935
0.0144715308
0.0144712746
0.0144710242
0.0144707803
0.0144705416
0.0144703094
0.014470082
0.0144698611
0.0144696444
0.0144694344
0.014469228
0.0144690283
0.0144688316
0.0144686419
0.0144684546
0.0144682744
0.0144680961
0.0144679249
0.0144677552
0.0144675927
0.0144674311
0.0144672768
0.0144671172
0.0144669549
0.0144667816
0.0144666069
0.0144664203
0.014466234
0.014466035
0.0144658386
0.0144656289
0.0144654247
0.0144652066
0.0144649974
0.0144647742
0.0144645637
0.0144643396
0.0144641319
0.0144639122
0.0144637117
0.0144635026
0.0144633132
0.0144631219
0.0144629467
0.0144627806
0.0144626218
0.0144624872
0.0144623468
0.0144622457
0.0144621287
0.0144620524
0.0144619778
0.0144619158
0.014461861
0.0144618203
0.0144617876
0.0144617609
0.0144617399
0.014461726
0.0144617174
0.0144617123
0.0144617095
0.0144617081
0.0144617074
0.0144617072
0.014461707
0.0144617069
0.0144617069
0.0144617069
0.0144617069
0.0144617069
0.0144617069
0.0144617069
0.0144617069
0.0144617069
0.0144617069
0.0144617069
0.0144617069
0.0144617069
0.0144617069
0.0144617069
0.0144617069
0.0144617069
0.0144617069
0.0144617069
0.0144617069
0.0144617069
0.0144617069
0.0144617069
0.0144617069
0.0144617069
0.0144617069
0.0144617069
0.0144617069
0.0144617069
0.0144617069
0.0144617069
0.0144617069
0.0144617069
)
;

boundaryField
{
    closed
    {
        type            zeroGradient;
    }
    open
    {
        type            zeroGradient;
    }
    sides
    {
        type            empty;
    }
    procBoundary5to4
    {
        type            processor;
        value           uniform 0.0163667815;
    }
}


// ************************************************************************* //
