/*--------------------------------*- C++ -*----------------------------------*\
| =========                 |                                                 |
| \\      /  F ield         | OpenFOAM: The Open Source CFD Toolbox           |
|  \\    /   O peration     | Version:  2306                                  |
|   \\  /    A nd           | Website:  www.openfoam.com                      |
|    \\/     M anipulation  |                                                 |
\*---------------------------------------------------------------------------*/
FoamFile
{
    version     2.0;
    format      ascii;
    arch        "LSB;label=32;scalar=64";
    class       volScalarField;
    location    "0.00068";
    object      PV;
}
// * * * * * * * * * * * * * * * * * * * * * * * * * * * * * * * * * * * * * //

dimensions      [0 0 0 0 0 0 0];

internalField   nonuniform List<scalar> 
530
(
0.00670425372
0.00668562785
0.00679548156
0.00681214865
0.00670560609
0.00668980383
0.00678916663
0.00680544487
0.0067064766
0.00669380518
0.00678277801
0.00679702559
0.00670621282
0.00669641645
0.0067751235
0.00679094341
0.00670340532
0.00669561931
0.00677016755
0.00678410843
0.00669677436
0.00669891474
0.00677039954
0.00678291029
0.00668593931
0.00670333345
0.00676976284
0.00677781568
0.00668401972
0.0067075741
0.00676782351
0.00677366273
0.00668492288
0.00671036986
0.00676580923
0.00677025061
0.0066855278
0.00671119244
0.00676415956
0.00676750098
0.00668563743
0.00671125971
0.00676272299
0.00676570321
0.00668561115
0.00671142295
0.00676194044
0.00676472566
0.00668630751
0.00671216731
0.00676173631
0.0067645268
0.0066878095
0.00671357143
0.00676224293
0.00676493033
0.00669021428
0.00671433405
0.00676454365
0.00676623061
0.00669410348
0.00671794328
0.00676529301
0.00676761412
0.00669885937
0.00672088515
0.00676608869
0.00677084122
0.00670634612
0.00672364701
0.00676918985
0.00677426481
0.00671012507
0.00672913394
0.00677156738
0.00677845222
0.00671535597
0.00673551686
0.00677619972
0.00678339898
0.00672026684
0.0067425724
0.00678188556
0.00678873873
0.0067276837
0.00674966719
0.00678840447
0.00679509608
0.00673658683
0.00675738347
0.00679640143
0.00680231163
0.00674683475
0.006766313
0.00680535059
0.00681095769
0.00675801163
0.00677652665
0.00681506198
0.00682045827
0.00677003293
0.00678774568
0.0068250135
0.00683050778
0.00678226623
0.00679960166
0.00683541903
0.00684121957
0.00679287933
0.00681004888
0.00684600804
0.00685047878
0.00680108984
0.0068153174
0.00686012711
0.00686015908
0.00681215617
0.00682642925
0.00687346458
0.00687142183
0.0068236575
0.00684063383
0.00688619015
0.00688599546
0.00683960292
0.00685001563
0.00689791117
0.0069004875
0.00685839318
0.00686243992
0.0069050858
0.0069131854
0.00687650611
0.00687397786
0.00691381623
0.00692641019
0.00689310101
0.00688608045
0.00692253851
0.00693861127
0.00690941132
0.00689845996
0.00692904333
0.00695073052
0.00692757284
0.00691073657
0.00693493552
0.00696207324
0.00694545677
0.00692342066
0.00694104387
0.0069732823
0.00696252268
0.00693572666
0.00694821106
0.00698416046
0.00697755136
0.00694771315
0.00695729529
0.0069948629
0.0069901468
0.00695957915
0.00696852182
0.00700553348
0.0070006906
0.00697121209
0.00698100496
0.00701605164
0.0070087838
0.00698238966
0.00699614993
0.00702622351
0.0070136648
0.00699312647
0.00701287045
0.00703580107
0.00701722345
0.00700366581
0.00702879251
0.00704424819
0.00702281297
0.00701424852
0.0070411431
0.00705207999
0.00703068298
0.0070250882
0.00705189184
0.0070591049
0.00703807987
0.00703658967
0.00706253626
0.00706498184
0.00704404946
0.0070483331
0.00707419116
0.00706595029
0.00704990537
0.00706737819
0.00708252448
0.00706619086
0.00705813733
0.00707988901
0.0070885389
0.00707192192
0.00706773918
0.00708851098
0.00709360618
0.00707813114
0.00707802352
0.00709676039
0.00709771689
0.00708261964
0.00708836586
0.00710502967
0.00709915172
0.00708773156
0.00710070584
0.00711120466
0.00710309729
0.00709383021
0.00710482162
0.00711619421
0.00711200324
0.00709973661
0.00710569122
0.00712047778
0.00711944427
0.00710623486
0.00711151454
0.00712523174
0.00712501772
0.00711148979
0.00711714161
0.00712950808
0.00712911563
0.00711634948
0.00712123735
0.00713351347
0.00713310234
0.00712038506
0.00712542236
0.00713695127
0.0071367902
0.00712359137
0.00712907234
0.00714037643
0.00714010967
0.00712687195
0.00713238751
0.00714346359
0.00714315155
0.0071300349
0.00713545816
0.00714622464
0.00714589272
0.00713308409
0.00713831753
0.00714869934
0.00714836362
0.00713595708
0.00714098446
0.00715093603
0.00715058581
0.00713860674
0.00714345259
0.00715296801
0.00715263312
0.00714103679
0.00714559632
0.00715478649
0.00715446763
0.00714345149
0.00714755182
0.0071564252
0.00715614245
0.00714546651
0.0071494179
0.00715791867
0.00715760868
0.00714729661
0.00715093616
0.00715947204
0.00715892087
0.00714894957
0.00715255801
0.00716064455
0.00716006617
0.00715049284
0.00715401695
0.00716163837
0.0071610617
0.0071520543
0.00715540791
0.00716241372
0.00716184834
0.0071536828
0.00715682648
0.00716282522
0.00716241011
0.00715590588
0.00715826088
0.00716103238
0.00716273866
0.00715850893
0.00715895983
0.00715759387
0.00716278191
0.00716320748
0.00715984878
0.00715835201
0.00716278126
0.00716468737
0.00716053778
0.00715940924
0.00716336299
0.00716500865
0.00716104132
0.00716056337
0.00716407775
0.00716518662
0.00716137165
0.00716165026
0.00716500708
0.0071654429
0.00716154029
0.00716274646
0.00716564719
0.00716560468
0.00716180836
0.00716340025
0.00716604932
0.00716582484
0.00716229155
0.00716379534
0.00716632023
0.00716602512
0.00716285305
0.00716418171
0.00716644184
0.00716618914
0.00716338624
0.00716458696
0.00716649034
0.00716631979
0.00716384856
0.00716489891
0.0071665823
0.00716643344
0.0071642437
0.00716516485
0.0071666607
0.00716653319
0.00716458562
0.00716538625
0.007166727
0.00716662056
0.00716487731
0.00716557729
0.0071667836
0.00716669662
0.00716512258
0.00716573641
0.00716683175
0.0071667606
0.00716533723
0.00716587297
0.00716687263
0.00716681368
0.00716551519
0.00716599653
0.00716690823
0.00716685548
0.00716566505
0.00716610475
0.00716693812
0.00716688974
0.00716579779
0.00716619592
0.00716695749
0.00716691706
0.0071659244
0.0071662695
0.00716697022
0.00716693758
0.00716603788
0.00716634
0.00716697847
0.00716695104
0.00716612948
0.0071664051
0.00716698663
0.00716696099
0.00716620967
0.00716645599
0.00716698988
0.00716696672
0.00716629255
0.00716650056
0.00716699016
0.00716697002
0.00716635539
0.0071665455
0.00716698967
0.00716696878
0.00716641012
0.00716658629
0.00716698756
0.00716696613
0.00716645813
0.00716662192
0.0071669837
0.00716696248
0.00716650242
0.00716664397
0.00716698588
0.00716695815
0.00716654253
0.00716667166
0.00716697864
0.00716695229
0.00716657817
0.00716669693
0.00716697084
0.00716694653
0.00716661049
0.00716671786
0.00716696264
0.0071669405
0.00716664167
0.00716673692
0.00716695323
0.00716693336
0.00716667107
0.00716675495
0.0071669439
0.0071669258
0.00716669754
0.00716677227
0.00716693495
0.00716691831
0.00716672137
0.0071667878
0.00716692561
0.00716691096
0.00716674535
0.0071668011
0.00716691453
0.00716690281
0.00716677051
0.00716681423
0.00716689677
0.00716689144
0.00716679383
0.00716682685
0.00716684419
0.00716685394
0.00716683199
0.0071668451
0.00716684428
0.00716685244
0.0071668498
0.0071668561
0.00716685602
0.00716686095
0.00716686197
0.00716686676
0.00716686991
0.00716687643
0.00716688003
0.00716688466
0.00716688795
0.00716689124
0.00716689383
0.00716689607
0.00716689786
0.00716689925
0.00716690032
0.00716690108
0.00716690162
0.00716690198
0.00716690221
0.00716690235
0.00716690243
0.00716690246
0.00716690248
0.00716690249
0.00716690249
0.00716690249
0.00716690249
0.00716690249
0.00716690248
0.00716690248
0.00716690248
0.00716690248
0.00716690248
0.00716690248
0.00716690248
0.00716690248
0.00716690248
0.00716690248
0.00716690248
0.00716690248
0.00716690248
0.00716690248
0.00716690248
0.00716690248
0.00716690248
0.00716690248
0.00716690248
0.00716690248
0.00716690248
0.00716690248
0.00716690248
0.00716690248
0.00716690248
0.00716690248
0.00716690248
0.00716690248
0.00716690248
0.00716690248
0.00716690248
0.00716690248
0.00716690248
0.00716690248
0.00716690248
0.00716690248
0.00716690248
0.00716690248
0.00716690248
0.00716690248
)
;

boundaryField
{
    closed
    {
        type            zeroGradient;
    }
    open
    {
        type            zeroGradient;
    }
    sides
    {
        type            empty;
    }
    procBoundary5to4
    {
        type            processor;
        value           uniform 0.00681911981;
    }
}


// ************************************************************************* //
