/*--------------------------------*- C++ -*----------------------------------*\
| =========                 |                                                 |
| \\      /  F ield         | OpenFOAM: The Open Source CFD Toolbox           |
|  \\    /   O peration     | Version:  2306                                  |
|   \\  /    A nd           | Website:  www.openfoam.com                      |
|    \\/     M anipulation  |                                                 |
\*---------------------------------------------------------------------------*/
FoamFile
{
    version     2.0;
    format      ascii;
    arch        "LSB;label=32;scalar=64";
    class       volScalarField;
    location    "0.00068";
    object      Z;
}
// * * * * * * * * * * * * * * * * * * * * * * * * * * * * * * * * * * * * * //

dimensions      [0 0 0 0 0 0 0];

internalField   nonuniform List<scalar> 
530
(
0.0139679929
0.0140263791
0.0137539697
0.0136892141
0.0139388056
0.0139826342
0.0137402509
0.0136823125
0.01390724
0.0139398527
0.013725845
0.0136763431
0.0138783221
0.0139001054
0.0137154011
0.0136651859
0.0138562587
0.01387261
0.0137006611
0.0136538195
0.0138468807
0.013841006
0.0136743171
0.0136383674
0.0138511993
0.0138074603
0.0136538002
0.0136317063
0.0138350902
0.0137764136
0.0136402691
0.013626563
0.0138169578
0.0137534619
0.0136312148
0.0136215634
0.0138020604
0.0137375102
0.0136229835
0.0136165661
0.0137908681
0.0137263971
0.0136163554
0.0136119234
0.0137830886
0.0137185071
0.0136115772
0.0136084478
0.0137770829
0.013712909
0.0136090163
0.0136066525
0.0137725824
0.0137092418
0.0136084578
0.0136069512
0.0137695206
0.0137102316
0.0136079686
0.013609183
0.01376622
0.0137089227
0.0136149358
0.0136145036
0.0137643377
0.0137116033
0.0136256212
0.013620857
0.0137600614
0.0137189024
0.0136338531
0.0136274833
0.0137681729
0.0137239381
0.0136461337
0.0136375094
0.0137764079
0.0137308746
0.0136573142
0.0136498132
0.01378812
0.0137394693
0.0136704835
0.0136640699
0.0137986753
0.0137516418
0.0136856972
0.0136797223
0.0138093929
0.0137657596
0.013701713
0.0136968818
0.0138207303
0.0137807644
0.0137189279
0.0137147893
0.0138329844
0.0137960912
0.0137375477
0.0137339653
0.0138461232
0.0138119312
0.0137577078
0.0137548376
0.0138609046
0.0138290042
0.0137785615
0.0137769801
0.0138795399
0.0138498721
0.0137981216
0.0138006107
0.0139040634
0.0138795331
0.0138137286
0.0138276311
0.0139280794
0.0139007368
0.0138289182
0.0138521492
0.0139496447
0.0139181669
0.0138465511
0.0138685827
0.0139659519
0.0139494924
0.0138727851
0.0138833443
0.0139744817
0.0139744517
0.0139103444
0.013904115
0.0139817463
0.0140006642
0.013943722
0.0139253523
0.0139932105
0.0140249717
0.0139749082
0.0139485018
0.0140064959
0.0140481858
0.0140072782
0.0139712541
0.0140204627
0.0140709596
0.0140367497
0.0139947732
0.0140363026
0.0140923355
0.0140655551
0.0140181442
0.0140522686
0.0141135736
0.0140924408
0.0140415361
0.0140700128
0.0141342183
0.0141166885
0.0140645832
0.0140896768
0.0141541354
0.0141379217
0.014086815
0.01411123
0.0141735339
0.0141564361
0.0141081062
0.0141349142
0.0141924118
0.0141713133
0.0141289485
0.01416146
0.0142102482
0.0141830968
0.0141501455
0.0141889259
0.0142267029
0.0141943906
0.0141725253
0.0142136474
0.0142412387
0.0142080115
0.01419424
0.0142349918
0.0142543357
0.0142221239
0.0142160053
0.0142563959
0.0142649954
0.0142342817
0.0142377142
0.0142788266
0.014274807
0.0142432927
0.0142635886
0.0142982768
0.0142766145
0.0142577538
0.0142885391
0.0143111131
0.0142842742
0.0142755634
0.0143063492
0.0143200612
0.0142952235
0.0142924753
0.0143223552
0.0143270074
0.0143052205
0.014309302
0.0143387934
0.0143333696
0.0143138379
0.0143282333
0.0143521483
0.014337535
0.0143248084
0.0143419332
0.0143626142
0.0143501296
0.0143364581
0.0143476439
0.0143720578
0.0143655468
0.0143483492
0.0143531037
0.0143801646
0.0143751461
0.0143591094
0.0143603796
0.0143889651
0.0143830862
0.0143686321
0.0143686995
0.0143968035
0.0143918082
0.0143767813
0.0143763954
0.0144044654
0.0143991924
0.0143845524
0.0143835703
0.0144119958
0.014406143
0.0143914196
0.0143904078
0.0144185189
0.0144125577
0.0143977739
0.0143967668
0.0144242764
0.0144183664
0.0144037181
0.014402717
0.0144293168
0.01442359
0.0144092437
0.0144082413
0.0144337969
0.0144282663
0.0144143266
0.0144133504
0.0144378411
0.0144324662
0.0144189513
0.0144179782
0.0144415201
0.0144364193
0.0144231389
0.0144222449
0.014444618
0.0144399985
0.0144269393
0.0144260859
0.014447594
0.0144430893
0.0144304051
0.0144296432
0.0144502402
0.0144461234
0.0144332326
0.0144328573
0.0144526182
0.0144484604
0.0144361174
0.0144358306
0.0144546341
0.014450521
0.0144388004
0.0144386017
0.0144561428
0.0144521873
0.0144414629
0.014441305
0.0144570393
0.0144533434
0.0144444515
0.014444152
0.0144565309
0.014453904
0.0144499059
0.0144471479
0.0144541925
0.0144550467
0.0144565752
0.0144499926
0.0144501463
0.0144555656
0.0144590531
0.0144524581
0.0144500041
0.0144563987
0.0144597528
0.0144537573
0.0144512764
0.0144575953
0.014459812
0.0144544323
0.0144526369
0.014458983
0.0144597986
0.0144546181
0.0144535987
0.014460614
0.014459531
0.0144551113
0.0144545724
0.0144616785
0.0144597906
0.0144556975
0.0144554816
0.0144621066
0.014460281
0.014456319
0.0144562956
0.0144622278
0.0144606238
0.0144570561
0.0144570243
0.014462265
0.0144608026
0.0144577965
0.0144576755
0.0144622987
0.0144610168
0.0144583569
0.014458236
0.0144623335
0.0144612059
0.0144588376
0.0144587182
0.0144623566
0.0144613812
0.0144592475
0.0144591282
0.0144623763
0.0144615277
0.0144595994
0.0144594733
0.0144623994
0.0144616587
0.0144598984
0.0144597714
0.0144624097
0.0144617686
0.0144601511
0.0144600259
0.0144624241
0.0144618488
0.0144603648
0.0144602473
0.0144624378
0.0144619104
0.0144605447
0.0144604369
0.0144624409
0.014461961
0.0144607052
0.0144606023
0.0144624201
0.0144620082
0.0144608442
0.0144607474
0.0144623907
0.0144620325
0.0144609644
0.0144608735
0.0144623712
0.0144620414
0.0144610637
0.0144609817
0.0144623504
0.0144620521
0.0144611487
0.0144610798
0.0144623108
0.014462057
0.0144612219
0.0144611618
0.0144622828
0.0144620476
0.0144612866
0.0144612367
0.0144622535
0.0144620327
0.0144613432
0.0144613012
0.0144622242
0.0144620166
0.0144613927
0.0144613576
0.0144621914
0.014462015
0.0144614227
0.0144614064
0.0144621575
0.0144619956
0.0144614624
0.0144614503
0.0144621246
0.0144619742
0.0144614976
0.0144614879
0.0144620923
0.0144619554
0.0144615285
0.0144615212
0.0144620577
0.0144619355
0.0144615579
0.0144615524
0.0144620225
0.0144619145
0.0144615844
0.0144615808
0.0144619894
0.0144618923
0.0144616082
0.0144616062
0.0144619582
0.0144618711
0.0144616311
0.0144616304
0.0144619242
0.0144618512
0.0144616554
0.0144616554
0.0144618843
0.014461827
0.0144616906
0.0144616871
0.0144618331
0.0144617909
0.0144617606
0.0144617432
0.0144617781
0.0144617602
0.014461764
0.0144617533
0.0144617586
0.0144617508
0.0144617524
0.0144617466
0.0144617466
0.0144617415
0.0144617398
0.0144617338
0.0144617316
0.0144617269
0.0144617245
0.014461721
0.0144617188
0.0144617162
0.0144617144
0.0144617126
0.0144617112
0.01446171
0.0144617092
0.0144617085
0.014461708
0.0144617076
0.0144617073
0.0144617072
0.0144617071
0.014461707
0.0144617069
0.0144617069
0.0144617069
0.0144617069
0.0144617069
0.0144617069
0.0144617069
0.0144617069
0.0144617069
0.0144617069
0.0144617069
0.0144617069
0.0144617069
0.0144617069
0.0144617069
0.0144617069
0.0144617069
0.0144617069
0.0144617069
0.0144617069
0.0144617069
0.0144617069
0.0144617069
0.0144617069
0.0144617069
0.0144617069
0.0144617069
0.0144617069
0.0144617069
0.0144617069
0.0144617069
0.0144617069
0.0144617069
0.0144617069
0.0144617069
0.0144617069
0.0144617069
0.0144617069
0.0144617069
0.0144617069
0.0144617069
0.0144617069
0.0144617069
0.0144617069
)
;

boundaryField
{
    closed
    {
        type            zeroGradient;
    }
    open
    {
        type            zeroGradient;
    }
    sides
    {
        type            empty;
    }
    procBoundary5to4
    {
        type            processor;
        value           uniform 0.0136985905;
    }
}


// ************************************************************************* //
