/*--------------------------------*- C++ -*----------------------------------*\
| =========                 |                                                 |
| \\      /  F ield         | OpenFOAM: The Open Source CFD Toolbox           |
|  \\    /   O peration     | Version:  2306                                  |
|   \\  /    A nd           | Website:  www.openfoam.com                      |
|    \\/     M anipulation  |                                                 |
\*---------------------------------------------------------------------------*/
FoamFile
{
    version     2.0;
    format      ascii;
    arch        "LSB;label=32;scalar=64";
    class       volScalarField;
    location    "0.00118";
    object      p;
}
// * * * * * * * * * * * * * * * * * * * * * * * * * * * * * * * * * * * * * //

dimensions      [1 -1 -2 0 0 0 0];

internalField   nonuniform List<scalar> 
531
(
101343.924
101340.153
101336.478
101333.062
101329.609
101326.072
101322.887
101319.854
101317.12
101314.417
101311.711
101309.305
101307.113
101305.301
101303.43
101301.657
101300.196
101299.156
101298.156
101297.304
101296.783
101296.689
101296.866
101297.248
101297.84
101298.684
101300.017
101301.675
101303.624
101305.604
101307.766
101310.444
101313.239
101316.267
101319.947
101323.269
101327.833
101332.3
101336.844
101341.398
101346.011
101350.82
101355.883
101361.127
101366.559
101371.949
101377.46
101383.108
101388.748
101394.381
101400.121
101405.829
101411.299
101417.038
101422.456
101427.631
101432.385
101437.472
101442.574
101447.782
101452.977
101457.975
101462.761
101467.104
101471.721
101476.387
101480.41
101485.219
101489.962
101495.064
101500.367
101504.244
101508.947
101513.673
101518.892
101523.962
101528.247
101533.092
101538.045
101543.291
101548.446
101552.954
101557.884
101562.961
101568.256
101573.437
101577.987
101582.766
101587.581
101592.432
101597.064
101601.049
101605.077
101608.991
101612.764
101616.287
101619.116
101621.803
101624.153
101626.097
101628.688
101629.763
101630.465
101630.9
101631.928
101631.193
101631.396
101630.834
101630.217
101629.685
101627.656
101626.297
101624.674
101622.409
101618.426
101619.509
101615.996
101613.508
101610.091
101607.099
101603.852
101601.758
101599.127
101597.301
101594.604
101591.833
101589.128
101586.896
101584.59
101582.364
101579.889
101577.205
101574.438
101571.804
101569.131
101566.417
101563.636
101560.854
101558.112
101555.117
101551.748
101548.489
101545.11
101541.934
101538.673
101535.333
101532.044
101528.779
101525.298
101521.592
101518.059
101514.442
101510.831
101507.01
101502.956
101499.106
101495.199
101491.299
101487.202
101482.892
101478.826
101474.737
101470.675
101466.447
101462.055
101457.968
101453.892
101449.921
101445.891
101441.82
101437.784
101434.111
101430.5
101427.091
101423.728
101420.46
101417.433
101414.619
101411.886
101409.234
101406.997
101404.931
101403.156
101401.558
101400.117
101399.069
101398.244
101397.788
101397.605
101397.682
101398.118
101398.805
101399.997
101401.483
101403.287
101405.373
101407.968
101410.985
101414.398
101417.942
101421.779
101426.046
101430.682
101435.602
101440.357
101445.231
101450.308
101455.621
101461.112
101466.154
101470.986
101476.216
101481.329
101485.797
101490.253
101494.736
101498.977
101502.792
101506.204
101509.405
101512.365
101515.249
101517.683
101519.614
101521.296
101522.627
101523.835
101524.626
101524.731
101524.496
101523.852
101522.693
101521.053
101518.957
101516.389
101513.403
101509.994
101506.296
101502.543
101498.521
101494.142
101489.253
101483.953
101478.443
101473.224
101467.76
101461.926
101455.852
101449.715
101444.078
101438.371
101432.097
101425.696
101419.687
101414.106
101407.59
101400.65
101393.89
101387.513
101381.303
101374.712
101368.157
101361.846
101355.512
101349.311
101343.278
101337.545
101331.955
101326.499
101321.166
101316.105
101311.073
101305.93
101300.639
101296.042
101291.399
101286.96
101282.209
101277.647
101273.339
101269.185
101265.08
101260.965
101257.549
101254.21
101251.179
101248.339
101245.627
101243.599
101241.674
101240.212
101238.97
101238.237
101238.046
101238.805
101240.528
101242.019
101240.761
101241.669
101243.871
101246.622
101250.281
101254.28
101258.537
101263.13
101268.042
101273.757
101280.117
101287.777
101296.856
101306.588
101316.138
101326.414
101338.362
101351.501
101365.643
101380.761
101395.417
101411.375
101428.004
101445.329
101461.805
101479.114
101497.66
101516.859
101535.266
101553.667
101572.398
101591.47
101610.231
101627.539
101644.082
101660.382
101676.442
101691.23
101703.99
101715.383
101726.085
101735.844
101744.913
101753.308
101761.356
101769.002
101775.959
101782.205
101787.778
101792.38
101795.915
101798.44
101799.821
101799.807
101798.342
101795.776
101792.081
101787.053
101781.351
101775.574
101769.658
101763.269
101757.028
101751.29
101745.155
101738.317
101730.869
101723.046
101715.443
101707.409
101698.385
101688.722
101679.607
101669.96
101659.803
101649.234
101638.11
101628.452
101619.009
101609.982
101600.962
101592.596
101584.783
101577.067
101569.387
101561.635
101554.858
101548.146
101541.778
101535.201
101529.127
101523.619
101518.564
101513.896
101509.511
101506.153
101503.009
101500.445
101497.98
101495.922
101493.957
101492.26
101490.408
101488.686
101486.851
101485.187
101483.295
101481.487
101479.483
101477.475
101475.171
101472.417
101469.821
101466.837
101464.259
101461.958
101460.318
101458.724
101457.307
101455.68
101453.603
101451.126
101449.075
101447.696
101446.767
101445.513
101443.744
101441.419
101437.806
101433.339
101428.796
101424.771
101421.132
101417.808
101414.642
101411.51
101408.514
101405.057
101400.794
101395.983
101390.806
101385.751
101381.323
101377.369
101373.88
101370.798
101368.031
101365.821
101363.461
101360.662
101357.442
101354.323
101351.196
101348.143
101345.018
101342.015
101338.859
101335.703
101332.668
101330.324
101328.516
101326.728
101324.822
101328.544
101332.205
101335.41
101338.346
101341.128
101344.121
101347.242
101350.42
101353.434
101356.461
101359.24
101361.802
101364.232
101366.94
101369.928
101373.199
101375.979
101379.276
101382.955
101386.725
101390.047
101393.22
101396.743
101400.92
101405.722
101410.545
101415.059
101419.546
101424.009
101428.615
101433.036
101437.35
101441.31
101444.822
101448.104
101451.152
101454.423
101458.653
101458.629
101461.431
101463.8
101465.988
101468.836
101468.162
101470.058
101471.622
101472.879
101475.13
101475.035
101476.895
101478.154
101479.329
101480.162
101481.597
101481.9
101482.469
101482.72
101482.816
101482.881
101482.681
101482.684
101482.525
101482.398
101482.574
101481.704
101481.331
101480.861
101480.365
101479.849
101479.173
101478.484
)
;

boundaryField
{
    closed
    {
        type            zeroGradient;
    }
    open
    {
        type            waveTransmissive;
        gamma           1.25;
        fieldInf        101325;
        lInf            1;
        value           nonuniform List<scalar> 0();
    }
    sides
    {
        type            empty;
    }
    procBoundary3to2
    {
        type            processor;
        value           uniform 101348.106;
    }
    procBoundary3to4
    {
        type            processor;
        value           uniform 101477.673;
    }
}


// ************************************************************************* //
