/*--------------------------------*- C++ -*----------------------------------*\
| =========                 |                                                 |
| \\      /  F ield         | OpenFOAM: The Open Source CFD Toolbox           |
|  \\    /   O peration     | Version:  2306                                  |
|   \\  /    A nd           | Website:  www.openfoam.com                      |
|    \\/     M anipulation  |                                                 |
\*---------------------------------------------------------------------------*/
FoamFile
{
    version     2.0;
    format      ascii;
    arch        "LSB;label=32;scalar=64";
    class       volScalarField;
    location    "0.00118";
    object      Z;
}
// * * * * * * * * * * * * * * * * * * * * * * * * * * * * * * * * * * * * * //

dimensions      [0 0 0 0 0 0 0];

internalField   nonuniform List<scalar> 
531
(
0.0148156593
0.0140924653
0.0140820807
0.0144993777
0.0148370925
0.0148250919
0.0140922206
0.0140823313
0.0144994381
0.0148379791
0.0148230056
0.0140970363
0.0140704936
0.0146995174
0.0147469147
0.014101171
0.0140669991
0.0147210008
0.0147673954
0.0141002027
0.0140780958
0.0145371961
0.0148477004
0.0148460274
0.0141025443
0.0140894801
0.014497845
0.0148987864
0.0148866401
0.0141268465
0.0140900762
0.0141092066
0.0140979063
0.0140887913
0.0142191021
0.0147112298
0.0148051479
0.0147781813
0.0148678336
0.0148584842
0.0141209509
0.0140893291
0.0144605021
0.0148587343
0.0148421124
0.0141227161
0.0140717161
0.0140874736
0.0145232288
0.0148425663
0.0148220315
0.014120184
0.0140720569
0.0146848238
0.0147754307
0.0141189953
0.0140710218
0.01451639
0.0147417762
0.0147976537
0.0148237918
0.01446024
0.0140879277
0.0140683194
0.014075252
0.0140711953
0.0144414956
0.0147499289
0.0148444465
0.0148372725
0.0141237198
0.0140844384
0.0144657838
0.0148345365
0.0148223774
0.0141297266
0.0140823023
0.0144523693
0.0148253299
0.0148167309
0.0141260217
0.0140819244
0.0144480476
0.0148232633
0.0148161261
0.0141240331
0.0140818119
0.0144487399
0.0148229951
0.0148173704
0.0141213524
0.0140821455
0.0144447454
0.0148226366
0.0148181132
0.0141195929
0.014082935
0.014434228
0.0148244838
0.0148216107
0.0141166177
0.0140835564
0.0144358316
0.014825414
0.0148233857
0.0141126984
0.0140836672
0.0144563477
0.0148294754
0.0148293583
0.0141074948
0.0140852937
0.0144538986
0.0148437733
0.0148428343
0.0141008401
0.0140739669
0.014078377
0.0145235406
0.0147670643
0.0148410072
0.0148400588
0.0141037483
0.0140875549
0.0145013425
0.0148451245
0.0148383826
0.014088531
0.0140752109
0.0146725314
0.0147531382
0.0140862002
0.014076235
0.0145278545
0.0148336848
0.0148335862
0.0140854937
0.0140843235
0.0145008241
0.0148389861
0.0148223865
0.0140830057
0.0140736311
0.0146700843
0.0147392258
0.0140805042
0.0140755584
0.0145226213
0.014823808
0.0148151775
0.0140793767
0.0140824724
0.0144928786
0.0148260819
0.0148098407
0.0140804909
0.0140825887
0.014486742
0.0148224889
0.0148031617
0.0140799785
0.014082382
0.0144759644
0.0148205382
0.0147940435
0.0140789992
0.0140725282
0.014553391
0.0147432305
0.0148158532
0.0148028166
0.0140800142
0.0140708684
0.0146681567
0.0147176895
0.0140765873
0.0140745063
0.0145294569
0.0148249812
0.014803492
0.0140777492
0.0140819567
0.0145109945
0.0148352557
0.0148083235
0.0140784817
0.0140833715
0.0145124348
0.0148382788
0.0148033676
0.014081251
0.0140713811
0.0146747988
0.014735312
0.0140753837
0.0140752241
0.0145538595
0.0148360506
0.0148124432
0.0140776508
0.014081511
0.0145288661
0.0148412123
0.0148144492
0.0140775039
0.0140830917
0.0145268692
0.0148385348
0.0148056415
0.0140813507
0.0140717998
0.0146918094
0.0147567369
0.0140694519
0.0140730172
0.0146389237
0.0148197889
0.0146039738
0.0140716616
0.0140727243
0.0147021757
0.0148644681
0.0147683575
0.0140821063
0.0140762435
0.0147196606
0.0148025993
0.0142566543
0.0140819703
0.0140852479
0.0140836875
0.014433424
0.0147801703
0.0147698965
0.014801952
0.0147882314
0.0148577897
0.0148168657
0.0140926313
0.0140770916
0.0140958242
0.0144695438
0.0148213183
0.0147914984
0.014079939
0.0140880298
0.0145152799
0.0148522616
0.0148198203
0.014081624
0.0140782626
0.0147055375
0.0147491453
0.0140780248
0.0140714294
0.0147362462
0.014752714
0.0140799587
0.014073682
0.0147441524
0.0147696774
0.0140743703
0.0140829411
0.0146415223
0.0148689097
0.0146860957
0.0140919306
0.0145176899
0.0147893837
0.0140777918
0.0140889394
0.0144520274
0.0148822542
0.0148454725
0.014106437
0.0140816499
0.0147265142
0.0147643093
0.0140936888
0.0140854446
0.0144683483
0.0148635082
0.0148466146
0.0140956186
0.0140924837
0.014463993
0.0148721539
0.014852254
0.0141018004
0.0140803544
0.0146965638
0.014758493
0.0141056491
0.0140833042
0.0144545574
0.0148508391
0.0148513404
0.0141050024
0.014090497
0.0144445334
0.0148623824
0.014855651
0.0141140015
0.0140787552
0.0146764421
0.0147562144
0.0141188334
0.0140817561
0.014445451
0.0148459355
0.014844704
0.0141280626
0.0140896817
0.0144299362
0.0148553514
0.014846594
0.0141316719
0.0140782812
0.0146624742
0.0147479815
0.0141252615
0.0140810872
0.014429449
0.0148395582
0.0148326354
0.0141340962
0.0140888685
0.014413763
0.0148464291
0.0148346164
0.0141343792
0.0140902194
0.0143871466
0.0148325185
0.0148103721
0.0141297944
0.0140759995
0.0146427144
0.0146804547
0.0141190194
0.01406515
0.0143415671
0.0146529618
0.014757608
0.0147522431
0.0148624804
0.0148325022
0.0141279309
0.0140950037
0.0144349022
0.0148395366
0.0148033819
0.0141233159
0.0140850924
0.0146858298
0.0147265698
0.0141008417
0.0140795157
0.0146849072
0.014730759
0.0141004417
0.0140875353
0.0145249557
0.0148626157
0.0148216296
0.0141122744
0.0140868144
0.014709425
0.0147564993
0.0140974812
0.0140895233
0.0145507142
0.0148701125
0.0148283721
0.0141082612
0.0140842012
0.0147116103
0.014763203
0.0140949824
0.0140881776
0.0145616143
0.0148729027
0.0148372903
0.014106162
0.014082939
0.0147134546
0.0147706432
0.0140988556
0.0140890236
0.0145776839
0.0148849704
0.0148554158
0.0141095117
0.0140794869
0.0147267621
0.0147742958
0.0141138364
0.0140742694
0.0147240349
0.0147657385
0.0141142196
0.014075434
0.0147131715
0.0147687227
0.0141124366
0.0140870869
0.0145834793
0.0148815173
0.0148710894
0.0141101333
0.0140791796
0.0147041108
0.0147647236
0.0141229501
0.0140744622
0.0146902948
0.0147515793
0.0141201468
0.0140834699
0.0145479535
0.0148459807
0.0148407168
0.0141170569
0.0140785324
0.014660608
0.0147379619
0.0141239542
0.0140821289
0.0145125668
0.014818955
0.0148165402
0.0141172734
0.0140790097
0.0145180151
0.0147459385
0.0148332511
0.0148327089
0.0141254508
0.014091508
0.0145570853
0.0148606121
0.0148505986
0.0141315088
0.0140793772
0.0146783042
0.0147545292
0.0141458606
0.0140759092
0.0146851798
0.0147509929
0.014148213
0.0140762015
0.0146846986
0.0147608839
0.0141467178
0.0140882037
0.0145686384
0.0148821874
0.0148703066
0.0141539984
0.0140810488
0.0146876936
0.0147781875
0.0141648742
0.0140759326
0.014686583
0.0147674983
0.0141650902
0.0140743779
0.0146781624
0.0147598538
0.0141624366
0.0140749193
0.0146620441
0.0147580058
0.0141540164
0.0140842875
0.0145273601
0.0148455283
0.0148401648
0.0141578787
0.0140890409
0.0145118799
0.0148440787
0.0148387825
0.014158361
0.014091498
0.014505322
0.0148642822
0.0148531567
0.0141848024
0.0140850119
0.0141068768
0.0140784098
0.0143936648
0.0147254871
0.014839807
0.0148293637
0.0141485766
0.0140870807
0.0145192565
0.0148344118
0.0148249568
0.0141472554
0.0140869374
0.0144851439
0.0148232402
0.0148141976
0.0141425128
0.0140861092
0.0144821316
0.0148212721
0.0148116481
0.0141376168
0.01408565
0.0144912476
0.0148248167
0.0148143957
0.0141393382
0.0140858821
0.0145120696
0.0148338435
0.0148208983
0.0141544846
0.0140867952
0.0145342038
0.014857202
0.0148482775
0.0142270697
0.0140875932
0.0140920577
)
;

boundaryField
{
    closed
    {
        type            zeroGradient;
    }
    open
    {
        type            zeroGradient;
    }
    sides
    {
        type            empty;
    }
    procBoundary3to2
    {
        type            processor;
        value           uniform 0.014831349;
    }
    procBoundary3to4
    {
        type            processor;
        value           uniform 0.0140863004;
    }
}


// ************************************************************************* //
