/*--------------------------------*- C++ -*----------------------------------*\
| =========                 |                                                 |
| \\      /  F ield         | OpenFOAM: The Open Source CFD Toolbox           |
|  \\    /   O peration     | Version:  2306                                  |
|   \\  /    A nd           | Website:  www.openfoam.com                      |
|    \\/     M anipulation  |                                                 |
\*---------------------------------------------------------------------------*/
FoamFile
{
    version     2.0;
    format      ascii;
    arch        "LSB;label=32;scalar=64";
    class       volScalarField;
    location    "0.0008";
    object      alpha;
}
// * * * * * * * * * * * * * * * * * * * * * * * * * * * * * * * * * * * * * //

dimensions      [1 -1 -1 0 0 0 0];

internalField   nonuniform List<scalar> 
530
(
3.51231474e-05
3.53884232e-05
3.68405782e-05
3.68179777e-05
3.60946762e-05
3.53919034e-05
3.53060287e-05
3.57420139e-05
3.68473332e-05
3.68278996e-05
3.57017818e-05
3.51768089e-05
3.56923658e-05
3.6858749e-05
3.68150237e-05
3.57131236e-05
3.50011116e-05
3.55047563e-05
3.68414964e-05
3.68213533e-05
3.68208376e-05
3.6813928e-05
3.57438793e-05
3.53320147e-05
3.53690345e-05
3.57663711e-05
3.68612092e-05
3.68190367e-05
3.56442867e-05
3.50749738e-05
3.56049062e-05
3.68563476e-05
3.68292828e-05
3.57342378e-05
3.52829264e-05
3.5349656e-05
3.59681456e-05
3.68299414e-05
3.67151894e-05
3.5265174e-05
3.51351761e-05
3.61319722e-05
3.68166418e-05
3.68443261e-05
3.68123179e-05
3.57150037e-05
3.53059403e-05
3.53116851e-05
3.57397746e-05
3.68616116e-05
3.68325277e-05
3.57262577e-05
3.53717949e-05
3.55006361e-05
3.53493958e-05
3.5695069e-05
3.68577837e-05
3.68480404e-05
3.57200622e-05
3.54443484e-05
3.5836931e-05
3.68132722e-05
3.68394832e-05
3.54126279e-05
3.54056789e-05
3.6852539e-05
3.68081888e-05
3.57353518e-05
3.51782661e-05
3.55726099e-05
3.68203357e-05
3.68583798e-05
3.54943367e-05
3.53123922e-05
3.68189363e-05
3.68415989e-05
3.54857043e-05
3.53496431e-05
3.6832475e-05
3.68257798e-05
3.57267352e-05
3.52158839e-05
3.57204117e-05
3.67837356e-05
3.68607601e-05
3.54830267e-05
3.521968e-05
3.67958467e-05
3.68059827e-05
3.57843927e-05
3.51962865e-05
3.54718282e-05
3.67793184e-05
3.68479008e-05
3.56299429e-05
3.53700682e-05
3.67423856e-05
3.68268184e-05
3.55843223e-05
3.54029657e-05
3.67489203e-05
3.68193355e-05
3.57559116e-05
3.52414804e-05
3.56027894e-05
3.67784809e-05
3.68458952e-05
3.5703832e-05
3.52196246e-05
3.57526442e-05
3.67636835e-05
3.65961567e-05
3.53826591e-05
3.52745911e-05
3.66337242e-05
3.68211497e-05
3.57921733e-05
3.52906341e-05
3.56147692e-05
3.67665239e-05
3.68432723e-05
3.56945114e-05
3.52198667e-05
3.57821643e-05
3.67512106e-05
3.65691784e-05
3.53920291e-05
3.51930124e-05
3.6254309e-05
3.67912706e-05
3.61043215e-05
3.5330178e-05
3.52508843e-05
3.64008386e-05
3.68012989e-05
3.60474637e-05
3.53050222e-05
3.52382637e-05
3.64471368e-05
3.68114024e-05
3.59578624e-05
3.54085058e-05
3.54186022e-05
3.67444827e-05
3.68373647e-05
3.57090061e-05
3.52861627e-05
3.63230083e-05
3.67862011e-05
3.60215979e-05
3.53297817e-05
3.52745001e-05
3.6500915e-05
3.68094977e-05
3.59466559e-05
3.53455229e-05
3.532578e-05
3.66350528e-05
3.68364893e-05
3.57406247e-05
3.53550406e-05
3.63088879e-05
3.67926892e-05
3.59838667e-05
3.52812835e-05
3.5250287e-05
3.65506524e-05
3.68051195e-05
3.59409948e-05
3.53321429e-05
3.53107417e-05
3.66085897e-05
3.68293683e-05
3.57484616e-05
3.54092698e-05
3.62138654e-05
3.67812591e-05
3.60157628e-05
3.52765411e-05
3.52282722e-05
3.64610278e-05
3.67913357e-05
3.59382881e-05
3.52213541e-05
3.51820695e-05
3.65365468e-05
3.68243187e-05
3.57387461e-05
3.52908382e-05
3.6430496e-05
3.68127617e-05
3.57367509e-05
3.52936414e-05
3.64367549e-05
3.68142667e-05
3.57325813e-05
3.53502031e-05
3.64986488e-05
3.68061537e-05
3.57299373e-05
3.5322546e-05
3.57571597e-05
3.67242008e-05
3.67432555e-05
3.53528208e-05
3.5079075e-05
3.63660244e-05
3.68185381e-05
3.57143229e-05
3.53532892e-05
3.64444605e-05
3.68037256e-05
3.57376732e-05
3.5348716e-05
3.5735545e-05
3.67040745e-05
3.6844646e-05
3.56701746e-05
3.50845464e-05
3.62908611e-05
3.68058809e-05
3.57075972e-05
3.53819068e-05
3.64033726e-05
3.68019925e-05
3.57394757e-05
3.53436298e-05
3.5726385e-05
3.66964347e-05
3.68496972e-05
3.56792995e-05
3.52411428e-05
3.63071921e-05
3.68104e-05
3.56959148e-05
3.53298696e-05
3.63625979e-05
3.67943586e-05
3.5835137e-05
3.52577581e-05
3.52496662e-05
3.66459493e-05
3.6843676e-05
3.5715412e-05
3.54426147e-05
3.64424868e-05
3.68148735e-05
3.58488615e-05
3.53205198e-05
3.53325412e-05
3.67189584e-05
3.68342279e-05
3.57601601e-05
3.52017382e-05
3.52378051e-05
3.67204425e-05
3.68618417e-05
3.57347657e-05
3.55503702e-05
3.65706838e-05
3.68300907e-05
3.57954069e-05
3.53039363e-05
3.5384698e-05
3.67410542e-05
3.68428975e-05
3.58058465e-05
3.53048184e-05
3.53837993e-05
3.67491324e-05
3.68409976e-05
3.58160552e-05
3.53066582e-05
3.53497145e-05
3.67485382e-05
3.68374662e-05
3.58305586e-05
3.52984082e-05
3.53018499e-05
3.67405489e-05
3.68294009e-05
3.58287057e-05
3.52410547e-05
3.52153069e-05
3.66108588e-05
3.68551225e-05
3.57772032e-05
3.55869073e-05
3.64166974e-05
3.68223085e-05
3.58541031e-05
3.53121254e-05
3.52821427e-05
3.65649182e-05
3.68214573e-05
3.59420341e-05
3.53797694e-05
3.5318495e-05
3.64387382e-05
3.68179778e-05
3.59833223e-05
3.54078619e-05
3.53219671e-05
3.63094698e-05
3.68129678e-05
3.60302162e-05
3.5440651e-05
3.53240247e-05
3.61816753e-05
3.680596e-05
3.61413794e-05
3.55299445e-05
3.53560366e-05
3.60573084e-05
3.67978135e-05
3.61925577e-05
3.55542771e-05
3.5343742e-05
3.59722991e-05
3.6789044e-05
3.62867653e-05
3.55938994e-05
3.53310311e-05
3.58905234e-05
3.67916551e-05
3.65170019e-05
3.57035782e-05
3.54062201e-05
3.53866612e-05
3.60728615e-05
3.67953917e-05
3.61563735e-05
3.55625374e-05
3.53543817e-05
3.5963141e-05
3.6783686e-05
3.61746304e-05
3.55501851e-05
3.52750107e-05
3.58587181e-05
3.67930205e-05
3.6060369e-05
3.56311346e-05
3.57645458e-05
3.67713158e-05
3.61874806e-05
3.55824008e-05
3.53535764e-05
3.5907348e-05
3.67993671e-05
3.60979119e-05
3.57238219e-05
3.58176637e-05
3.67912948e-05
3.61614314e-05
3.56989518e-05
3.55725553e-05
3.54978497e-05
3.54633124e-05
3.59772407e-05
3.68064007e-05
3.60447801e-05
3.5663272e-05
3.58145001e-05
3.67948193e-05
3.62142385e-05
3.55764689e-05
3.53145115e-05
3.59012259e-05
3.67959613e-05
3.59450194e-05
3.54129469e-05
3.57800264e-05
3.67983101e-05
3.58730666e-05
3.53333727e-05
3.57964766e-05
3.67875734e-05
3.58447771e-05
3.53576656e-05
3.58507577e-05
3.67867763e-05
3.5806579e-05
3.53503182e-05
3.59063146e-05
3.67906521e-05
3.57696749e-05
3.53692463e-05
3.59959617e-05
3.67893048e-05
3.57536797e-05
3.54827064e-05
3.61615565e-05
3.67694974e-05
3.58268202e-05
3.5319632e-05
3.53814559e-05
3.6446113e-05
3.67664277e-05
3.57335093e-05
3.53393095e-05
3.63020042e-05
3.67758493e-05
3.56985214e-05
3.53428839e-05
3.64546959e-05
3.67578055e-05
3.5738443e-05
3.55508682e-05
3.6752682e-05
3.67385151e-05
3.57471951e-05
3.52445113e-05
3.56410125e-05
3.68071481e-05
3.67315879e-05
3.57337053e-05
3.52999958e-05
3.59369586e-05
3.6731594e-05
3.56472797e-05
3.56112936e-05
3.68328424e-05
3.65182341e-05
3.56505588e-05
3.56999617e-05
3.68522562e-05
3.66907801e-05
3.56756246e-05
3.52274853e-05
3.56660291e-05
3.68324547e-05
3.68186834e-05
3.66003742e-05
3.57223286e-05
3.53724417e-05
3.53158299e-05
3.51101384e-05
3.56538678e-05
3.68248705e-05
3.67977389e-05
3.6183053e-05
3.57266586e-05
3.57488546e-05
3.68645297e-05
3.65547238e-05
3.53539917e-05
3.51938423e-05
3.57247109e-05
3.67993688e-05
3.62165289e-05
3.57425522e-05
3.57741579e-05
3.68452208e-05
3.65609341e-05
3.54422215e-05
3.53466563e-05
3.58119634e-05
3.68279449e-05
3.658799e-05
3.55795869e-05
3.53974152e-05
3.58169555e-05
3.68237075e-05
3.65915509e-05
3.55746714e-05
3.53965453e-05
3.58120937e-05
3.68175742e-05
3.66035484e-05
3.55796508e-05
3.53917858e-05
3.5803339e-05
3.68121467e-05
3.66082225e-05
3.55652229e-05
3.53521043e-05
3.57792606e-05
3.68055856e-05
3.66045813e-05
3.5500503e-05
3.52612987e-05
3.57303761e-05
3.67767895e-05
3.63535871e-05
3.57361165e-05
3.57536731e-05
3.68065636e-05
3.66023648e-05
3.54244387e-05
3.51941526e-05
3.57116792e-05
3.6771326e-05
3.6374415e-05
3.56168017e-05
3.57223585e-05
3.67899504e-05
3.63697175e-05
3.56458298e-05
3.57446143e-05
3.6811678e-05
3.6670761e-05
3.55080774e-05
3.53134764e-05
3.57723703e-05
3.68061019e-05
3.67308542e-05
3.56403141e-05
3.53714732e-05
3.57880395e-05
3.68141623e-05
3.67243489e-05
3.55654851e-05
3.52990582e-05
3.57649138e-05
3.68170958e-05
3.67371774e-05
3.553356e-05
3.53038471e-05
3.57734115e-05
3.68266195e-05
3.67591695e-05
3.56745933e-05
3.53871135e-05
3.57990222e-05
3.68297526e-05
3.67538612e-05
3.55942002e-05
3.53293235e-05
3.57815906e-05
)
;

boundaryField
{
    closed
    {
        type            calculated;
        value           nonuniform List<scalar> 0();
    }
    open
    {
        type            calculated;
        value           nonuniform List<scalar> 0();
    }
    sides
    {
        type            empty;
    }
    procBoundary2to1
    {
        type            processor;
        value           uniform 3.59248388e-05;
    }
    procBoundary2to3
    {
        type            processor;
        value           uniform 3.68279919e-05;
    }
}


// ************************************************************************* //
