/*--------------------------------*- C++ -*----------------------------------*\
| =========                 |                                                 |
| \\      /  F ield         | OpenFOAM: The Open Source CFD Toolbox           |
|  \\    /   O peration     | Version:  2306                                  |
|   \\  /    A nd           | Website:  www.openfoam.com                      |
|    \\/     M anipulation  |                                                 |
\*---------------------------------------------------------------------------*/
FoamFile
{
    version     2.0;
    format      ascii;
    arch        "LSB;label=32;scalar=64";
    class       volScalarField;
    location    "0.0008";
    object      prefDh_T;
}
// * * * * * * * * * * * * * * * * * * * * * * * * * * * * * * * * * * * * * //

dimensions      [1 1 -3 -1 0 0 0];

internalField   nonuniform List<scalar> 
530
(
-0.000492791158
-0.000541989147
-0.000744797001
-0.000742581331
-0.0006227032
-0.000542659966
-0.000526835715
-0.00059082244
-0.00074917306
-0.000743785381
-0.000596507978
-0.000502741183
-0.000595400588
-0.000750905228
-0.00074059974
-0.000600518049
-0.000469967147
-0.000563484818
-0.00074555147
-0.000742632732
-0.000742424685
-0.000739942461
-0.000595493615
-0.000531638612
-0.000538418792
-0.000593890054
-0.000751879656
-0.000741614222
-0.000589302401
-0.000483767722
-0.000581888249
-0.000750169768
-0.000744289591
-0.000595548133
-0.000522469013
-0.000534832923
-0.000607386257
-0.000744794976
-0.000714964377
-0.000519150205
-0.000495044106
-0.000627328836
-0.000741383982
-0.000748561599
-0.000739901359
-0.00059279621
-0.000526766657
-0.000527745995
-0.00059420023
-0.000751902237
-0.000745909002
-0.000590482587
-0.000539005489
-0.000562742962
-0.000534921575
-0.000598400291
-0.000750792671
-0.000749028446
-0.000593459483
-0.000552489632
-0.000593602838
-0.000741306752
-0.000744595743
-0.000546721149
-0.000545418217
-0.000747711416
-0.000740039541
-0.000595030542
-0.000503075666
-0.000576202212
-0.000741423576
-0.000750179236
-0.000562004601
-0.000528003903
-0.000739315396
-0.000746460862
-0.000560451196
-0.000534957258
-0.000742049843
-0.000743610677
-0.000597465872
-0.000510120503
-0.000596939981
-0.000733367842
-0.000750773262
-0.000559900223
-0.000510750078
-0.000732121765
-0.000739483002
-0.000597340205
-0.000506463839
-0.000557715208
-0.000731319253
-0.000747636007
-0.000587141817
-0.000538864617
-0.000720934434
-0.000742440309
-0.000578728729
-0.000544940383
-0.000722065206
-0.000742594993
-0.000594197791
-0.00051487128
-0.000581942582
-0.000731082605
-0.000747719811
-0.000589993138
-0.000510790307
-0.000587091907
-0.000728789981
-0.000695771364
-0.000541199215
-0.000521013007
-0.000702353215
-0.000742890065
-0.000593807066
-0.000524014017
-0.000584185005
-0.000728002019
-0.00074664222
-0.000589846538
-0.000510855648
-0.000587670585
-0.000726053418
-0.00069136571
-0.00054289178
-0.000505832654
-0.000644659413
-0.000735855332
-0.00062442631
-0.000531387152
-0.000516576943
-0.000666497831
-0.000738266412
-0.000617377487
-0.000526683995
-0.000514198952
-0.000673608825
-0.000740526726
-0.000606964409
-0.000545996699
-0.000547924816
-0.00072216315
-0.000745007468
-0.00059826969
-0.000523191521
-0.000654785393
-0.000734900276
-0.000614309847
-0.000531346224
-0.000520966122
-0.000681732637
-0.000740141748
-0.000605777759
-0.000534289369
-0.000530497322
-0.000702138545
-0.000745874433
-0.000599628959
-0.000535941857
-0.000652728102
-0.000736111385
-0.000610042747
-0.000522324658
-0.000516476514
-0.000689336257
-0.000739195474
-0.000605404574
-0.000531798338
-0.000527686049
-0.00069794389
-0.000744576593
-0.000600294644
-0.000546043659
-0.000638782415
-0.000733606161
-0.000613693301
-0.000521462505
-0.000512395777
-0.000675662004
-0.000735881902
-0.000605739486
-0.000511143999
-0.000503749478
-0.000686811768
-0.000742775392
-0.000604512811
-0.000524012889
-0.00067080018
-0.000740129062
-0.000604910845
-0.00052456028
-0.000671713242
-0.000740563616
-0.000603217018
-0.000535069201
-0.00068119408
-0.000739183405
-0.000592816812
-0.000530016157
-0.000592665256
-0.000719676771
-0.000722179466
-0.000535536165
-0.000484541918
-0.000661088072
-0.000741213258
-0.000597470536
-0.000535602965
-0.000672866789
-0.00073864599
-0.00059196478
-0.000534898536
-0.000598904284
-0.0007146883
-0.000746693767
-0.000593082773
-0.000485549083
-0.000650007697
-0.000738112086
-0.000594321427
-0.000540944128
-0.000666644896
-0.000738124305
-0.000590155461
-0.00053392781
-0.000602053569
-0.000712451319
-0.000747924187
-0.000589926759
-0.000514717847
-0.000652383865
-0.000739284416
-0.000591782069
-0.00053124962
-0.000660687265
-0.000736152626
-0.000595118371
-0.000517909831
-0.000516365642
-0.000703183674
-0.000747580888
-0.00059188367
-0.000552037577
-0.000672732548
-0.000741157069
-0.000595950162
-0.000529517876
-0.00053179439
-0.000716697163
-0.00074589119
-0.000589394391
-0.00050738177
-0.000514087982
-0.000716736715
-0.000752222294
-0.000593421525
-0.000571884056
-0.000692348595
-0.000745137144
-0.000592284151
-0.000526413529
-0.000541425014
-0.000721781649
-0.000748274632
-0.000592398567
-0.000526534103
-0.000541253864
-0.000723444129
-0.000747841527
-0.000593151131
-0.000526892597
-0.000534931413
-0.000723076609
-0.00074698014
-0.000594517632
-0.000525380546
-0.000526054783
-0.000720843548
-0.000745011467
-0.000594686618
-0.000514745547
-0.000509882566
-0.000698460825
-0.0007504596
-0.000596181801
-0.000578690239
-0.000668978034
-0.000743033738
-0.000597077852
-0.000528020553
-0.000522380567
-0.000691368743
-0.000743109244
-0.000605293585
-0.000540559052
-0.000529114212
-0.000672145096
-0.00074215867
-0.000609716148
-0.000545760316
-0.000529750103
-0.000652772572
-0.000740812012
-0.000615159124
-0.000551807133
-0.000530135142
-0.000634185214
-0.000739102703
-0.000629226035
-0.000568281333
-0.00053610161
-0.000616964708
-0.000736973841
-0.00063607991
-0.000572729208
-0.000533837918
-0.000605903712
-0.000734774046
-0.000649215409
-0.00057999851
-0.000531472194
-0.000596288542
-0.000735349989
-0.000683082081
-0.00059029462
-0.000545589822
-0.000541833504
-0.000619236171
-0.000736486743
-0.00063116538
-0.000574310018
-0.000535880863
-0.000605064082
-0.000733434055
-0.000633620681
-0.000572024578
-0.000521096598
-0.000592947675
-0.00073479643
-0.000618109833
-0.000587102682
-0.000584179099
-0.000729437779
-0.000635262343
-0.000578137739
-0.000535725809
-0.000599020661
-0.000736832182
-0.000623228533
-0.000603135995
-0.00058956458
-0.000734631301
-0.00063169686
-0.000599664822
-0.000576343358
-0.000562542665
-0.000556148506
-0.000607520024
-0.0007387902
-0.000616333091
-0.000593070215
-0.000588782391
-0.00073540607
-0.000639005349
-0.00057702123
-0.00052848635
-0.000598315658
-0.000735693445
-0.00060384133
-0.000546739719
-0.000584793683
-0.000735164366
-0.00059482157
-0.000531991778
-0.000586309642
-0.000733000698
-0.00059243219
-0.000536535031
-0.000592012542
-0.0007331208
-0.000589315524
-0.000535132669
-0.000598015765
-0.000734126701
-0.000586783098
-0.000538603811
-0.000608973404
-0.000734160546
-0.000587489872
-0.00055969083
-0.000631431426
-0.000730381749
-0.000593622949
-0.000529480332
-0.000540745881
-0.000672859992
-0.000729403471
-0.000596956238
-0.000532875219
-0.000651651044
-0.00073031741
-0.000596564613
-0.000533528594
-0.000674532821
-0.000726626739
-0.000606065943
-0.000572131662
-0.000722895983
-0.000722978699
-0.000597153817
-0.000515474354
-0.000588353357
-0.0007370914
-0.000721144838
-0.000598350539
-0.000525731708
-0.000602730543
-0.000717864965
-0.000590085565
-0.000582934934
-0.000741784244
-0.000683576401
-0.000590981704
-0.000588320258
-0.000747416065
-0.000711028527
-0.000595447918
-0.000512270516
-0.000581009671
-0.000744768898
-0.000743377808
-0.000695593648
-0.000598530475
-0.000539355746
-0.000528528487
-0.000490335267
-0.000576930828
-0.000741812245
-0.000737877802
-0.00063460158
-0.000604303317
-0.000586844357
-0.000750598788
-0.000689084915
-0.000535821758
-0.000506007018
-0.000581871907
-0.000735275475
-0.000639278191
-0.000607942919
-0.000587702405
-0.000746316055
-0.000690165492
-0.000552266609
-0.000534492549
-0.000590169564
-0.000742584079
-0.000694278715
-0.000577757852
-0.000543986974
-0.000590868817
-0.000741563587
-0.000694907134
-0.000576862767
-0.000543851294
-0.000590781186
-0.000740100721
-0.000696835306
-0.000577814239
-0.0005429909
-0.000590568619
-0.000738841167
-0.000697632209
-0.000575150673
-0.000535608436
-0.000589163552
-0.000737041363
-0.000697231063
-0.000563124339
-0.000518660151
-0.000586476046
-0.00072986444
-0.000659199091
-0.000607035499
-0.000593931892
-0.000736728472
-0.000696957772
-0.000548962861
-0.000506098988
-0.000586064832
-0.000728276225
-0.000662397087
-0.000584929589
-0.000592898082
-0.000732330758
-0.000661637055
-0.000590248988
-0.000595997943
-0.000737955611
-0.000707613347
-0.000564524306
-0.000528417248
-0.000591030604
-0.000737792641
-0.00071848109
-0.000589041283
-0.00053926397
-0.000591683953
-0.000739661065
-0.000716758696
-0.000575110136
-0.000525719567
-0.000590126008
-0.00074008221
-0.000719536368
-0.000569193935
-0.000526599692
-0.000590377801
-0.000742698653
-0.000725291091
-0.000595230456
-0.000542134939
-0.000591761713
-0.000743585957
-0.000723895934
-0.00058037959
-0.000531357184
-0.00059095817
)
;

boundaryField
{
    closed
    {
        type            calculated;
        value           nonuniform List<scalar> 0();
    }
    open
    {
        type            calculated;
        value           nonuniform List<scalar> 0();
    }
    sides
    {
        type            empty;
    }
    procBoundary2to1
    {
        type            processor;
        value           uniform -0.000602306309;
    }
    procBoundary2to3
    {
        type            processor;
        value           uniform -0.00074308516;
    }
}


// ************************************************************************* //
