/*--------------------------------*- C++ -*----------------------------------*\
| =========                 |                                                 |
| \\      /  F ield         | OpenFOAM: The Open Source CFD Toolbox           |
|  \\    /   O peration     | Version:  2306                                  |
|   \\  /    A nd           | Website:  www.openfoam.com                      |
|    \\/     M anipulation  |                                                 |
\*---------------------------------------------------------------------------*/
FoamFile
{
    version     2.0;
    format      ascii;
    arch        "LSB;label=32;scalar=64";
    class       volScalarField;
    location    "0.0008";
    object      prefDh_H2O;
}
// * * * * * * * * * * * * * * * * * * * * * * * * * * * * * * * * * * * * * //

dimensions      [1 1 -3 0 0 0 0];

internalField   nonuniform List<scalar> 
530
(
87.8097473
87.9805024
92.5982031
92.3627368
90.9771184
87.986985
87.9366016
88.9867603
92.3020312
92.4435223
88.3875156
87.818722
88.3442557
92.3608337
92.499301
88.3329116
87.6930486
88.0737151
92.5423684
92.4257113
92.4359034
92.5421603
88.8184801
87.9523607
87.9677872
89.090555
92.3140232
92.4797752
88.195982
87.7432784
88.1507343
92.3851686
92.4215183
88.726908
87.9025309
87.9530013
90.4179247
92.3847835
93.0456601
87.8836241
87.8237024
91.1358154
92.4543544
92.3019074
92.5138866
88.658042
87.9257732
87.9144676
88.8318546
92.3199077
92.3265977
88.8543393
87.9815415
88.0722779
87.9763663
88.2497171
92.3525123
92.3306393
88.678557
88.0449127
89.7532691
92.3941086
92.596078
88.0360696
88.0285224
92.5510603
92.4171313
88.7578313
87.8461644
88.1474327
92.52469
92.4251205
88.1176782
87.9386671
92.7040822
92.4547779
88.1178724
87.9746622
92.7060147
92.4181203
88.5809529
87.8870438
88.5432198
92.5848664
92.4143512
88.1080555
87.8621375
92.9487055
92.4277776
89.1205535
87.8725523
88.0844464
92.698228
92.4654547
88.226448
88.0118476
92.9810133
92.5545217
88.1935087
88.0306367
93.0001336
92.3887792
88.9814817
87.8985338
88.1875062
92.7047602
92.4168589
88.6659838
87.8789515
89.2328326
92.6343282
92.7086705
88.020385
87.9174247
92.7921418
92.3961387
89.3325229
87.9339033
88.1998476
92.7687275
92.470508
88.5854071
87.8868476
89.4823167
92.6542417
92.6350129
88.0191027
87.860354
91.5756631
92.4905208
90.9995952
87.9687048
87.8923337
92.0625366
92.4538499
90.7546634
87.9435866
87.8742413
92.2075957
92.4336587
90.3406418
88.0395511
88.0562844
92.9024044
92.5130974
88.3843461
87.9328382
91.8088372
92.4829784
90.6376943
87.9755503
87.9099132
92.3828435
92.4333905
90.2842892
87.9908762
87.9505505
92.8144452
92.4099142
88.6236918
87.9757557
91.7592913
92.4937411
90.4588206
87.9404344
87.8948388
92.5410985
92.4388508
90.2470503
87.9802478
87.9350906
92.7365217
92.3948472
88.6699106
88.0249465
91.435919
92.5115619
90.6084174
87.9434374
87.8835104
92.2549116
92.4892035
90.2093205
87.8924155
87.8336284
92.5123988
92.4712822
88.4115486
87.9248365
92.1670837
92.5003211
88.3771334
87.9330751
92.1888804
92.4876532
88.4059744
87.9765675
92.3842234
92.4608729
88.7956717
87.9738171
89.0538635
92.7420784
92.8763792
87.975141
87.7578472
91.9571525
92.5093451
88.4655647
87.9719443
92.21437
92.4651537
88.9012122
87.9965883
88.6054139
92.8310613
92.4930094
88.2306745
87.7460289
91.702113
92.5611997
88.5286194
87.9996962
92.0818603
92.4818694
88.9897271
87.9874051
88.394829
92.8986327
92.4731145
88.4411363
87.8721741
91.7591363
92.5362566
88.5213717
87.9524044
91.9403456
92.5232353
89.6772612
87.9129234
87.89568
92.8758115
92.385911
88.6981342
88.0270396
92.2004719
92.441197
89.7709228
87.9459239
87.9639449
92.9303924
92.3626811
89.2112097
87.838867
87.8671305
92.9560298
92.2928579
88.8163844
88.1094806
92.6070864
92.3539059
89.4225648
87.9279907
87.996014
92.8715637
92.3014994
89.5143734
87.9201732
87.9946012
92.869376
92.3060637
89.5788472
87.9249095
87.9676988
92.8935765
92.3201384
89.6587119
87.9223493
87.9323896
92.9534332
92.352438
89.6349956
87.8840253
87.8431222
92.7363942
92.3318139
89.0999349
88.1456107
92.1100446
92.4052737
89.7748984
87.952619
87.9143945
92.593031
92.3806335
90.260836
87.9999223
87.938945
92.1892611
92.4046147
90.4663898
88.0204621
87.9400572
91.7637694
92.4369577
90.6832009
88.0422685
87.9422679
91.3215249
92.4649551
91.1510743
88.1088888
87.9721831
90.8572806
92.5115413
91.3514008
88.1241654
87.9656899
90.5119313
92.5526246
91.6997813
88.1529945
87.954629
90.1393294
92.5481952
92.4827326
88.651639
88.0408062
88.0046196
90.9112822
92.5109882
91.2121579
88.1361875
87.9865001
90.461287
92.5773366
91.283219
88.1257297
87.91917
89.978598
92.6301713
90.8423867
88.2036462
89.4574611
92.7233093
91.3353813
88.1675419
87.9848396
90.1870353
92.5567375
90.9865271
88.3278388
89.7344603
92.6118652
91.2365761
88.2631372
88.1621939
88.1056488
88.079403
90.4951449
92.5047096
90.769618
88.2329183
89.7360325
92.6061498
91.434229
88.160782
87.9594901
90.1584965
92.6007176
90.3439881
88.029981
89.5757081
92.6997897
90.0369214
87.9734283
89.6673891
92.6978966
89.8710821
87.9976151
89.942181
92.6701412
89.6423757
87.984677
90.2163797
92.6486958
89.4021769
87.9912981
90.6085505
92.6183759
89.2266628
88.0878274
91.2459552
92.5938641
89.659456
87.9732014
87.9815914
92.2313155
92.6288315
88.6641043
87.9382768
91.7397123
92.727411
88.35499
87.9397685
92.2421754
92.7297848
88.3467614
88.1244311
92.9935688
92.7031288
88.7831904
87.9140549
88.1678238
92.6870383
92.7452177
88.6103982
87.93568
90.3134518
93.0669535
88.2170745
88.1461606
92.7393699
92.4733238
88.2454508
88.6966386
92.5744399
92.9257422
88.2510611
87.8904518
88.6728557
92.437982
92.2979531
92.7573937
88.4976346
88.0237509
87.9202327
87.7756907
88.7222359
92.5773343
92.4205886
91.3201829
88.3076117
89.207618
92.5072309
92.5921629
87.9887759
87.8704259
89.181227
92.7100226
91.4433155
88.3167432
89.4072706
92.5417457
92.6062131
88.0673779
87.9901205
89.658373
92.5629439
92.6932167
88.1795976
88.0400558
89.6768399
92.5785134
92.7009219
88.1772722
88.0443413
89.6355595
92.5996662
92.735049
88.1844211
88.0457216
89.5633191
92.6149545
92.7463817
88.1739429
88.0174125
89.3967092
92.660722
92.7280762
88.1192646
87.9471945
89.0514111
92.7906668
91.9176081
88.3343509
88.9713045
92.7110078
92.7181822
88.0531382
87.891317
88.8947428
92.8375641
91.9822141
88.2391895
88.7221843
92.8110883
91.9694933
88.2555878
88.8052373
92.6926444
92.9276854
88.1246112
87.9917655
89.259322
92.5971163
92.9920794
88.2329504
88.0431148
89.3782457
92.5745991
93.0314379
88.1643401
87.9787745
89.2261965
92.5919061
93.0143558
88.1383226
87.9780321
89.2947575
92.5250717
92.8881191
88.2479801
88.0450583
89.4765366
92.5004618
92.9191861
88.1829806
87.9989809
89.3473655
)
;

boundaryField
{
    closed
    {
        type            calculated;
        value           nonuniform List<scalar> 0();
    }
    open
    {
        type            calculated;
        value           nonuniform List<scalar> 0();
    }
    sides
    {
        type            empty;
    }
    procBoundary2to1
    {
        type            processor;
        value           uniform 90.2194865;
    }
    procBoundary2to3
    {
        type            processor;
        value           uniform 92.5145062;
    }
}


// ************************************************************************* //
