/*--------------------------------*- C++ -*----------------------------------*\
| =========                 |                                                 |
| \\      /  F ield         | OpenFOAM: The Open Source CFD Toolbox           |
|  \\    /   O peration     | Version:  2306                                  |
|   \\  /    A nd           | Website:  www.openfoam.com                      |
|    \\/     M anipulation  |                                                 |
\*---------------------------------------------------------------------------*/
FoamFile
{
    version     2.0;
    format      ascii;
    arch        "LSB;label=32;scalar=64";
    class       volScalarField;
    location    "0.0008";
    object      prefDZ_T;
}
// * * * * * * * * * * * * * * * * * * * * * * * * * * * * * * * * * * * * * //

dimensions      [1 -1 -1 -1 0 0 0];

internalField   nonuniform List<scalar> 
530
(
-1.1873606e-09
-1.18849487e-09
-1.22973537e-09
-1.22731615e-09
-1.21459027e-09
-1.18856633e-09
-1.18827469e-09
-1.19683512e-09
-1.22673845e-09
-1.2281497e-09
-1.19177963e-09
-1.18726935e-09
-1.19138844e-09
-1.22735109e-09
-1.22869928e-09
-1.19138101e-09
-1.18633302e-09
-1.18921022e-09
-1.2291704e-09
-1.2279603e-09
-1.22806313e-09
-1.22913286e-09
-1.19546695e-09
-1.18837135e-09
-1.18841257e-09
-1.19778106e-09
-1.22687907e-09
-1.22850623e-09
-1.1902031e-09
-1.18669726e-09
-1.18977127e-09
-1.22759492e-09
-1.22792809e-09
-1.19468032e-09
-1.1879241e-09
-1.18830191e-09
-1.20947846e-09
-1.22755589e-09
-1.23415838e-09
-1.18775083e-09
-1.18749303e-09
-1.2160585e-09
-1.22824505e-09
-1.22673313e-09
-1.22884386e-09
-1.19404038e-09
-1.18813214e-09
-1.18795693e-09
-1.19555971e-09
-1.22693938e-09
-1.22696819e-09
-1.19568929e-09
-1.18858461e-09
-1.18921088e-09
-1.18861432e-09
-1.19062901e-09
-1.2272653e-09
-1.22703004e-09
-1.19422831e-09
-1.18910703e-09
-1.20349607e-09
-1.22762875e-09
-1.22971242e-09
-1.18913223e-09
-1.18906213e-09
-1.2292729e-09
-1.22785605e-09
-1.19493731e-09
-1.18761673e-09
-1.18989375e-09
-1.22896377e-09
-1.22800314e-09
-1.18986179e-09
-1.1882748e-09
-1.23078114e-09
-1.2282819e-09
-1.18990348e-09
-1.18859064e-09
-1.23081767e-09
-1.227889e-09
-1.19345883e-09
-1.18799592e-09
-1.19312532e-09
-1.22952832e-09
-1.22789703e-09
-1.18978331e-09
-1.18765907e-09
-1.23323029e-09
-1.22796135e-09
-1.19809791e-09
-1.18788556e-09
-1.18951544e-09
-1.23067305e-09
-1.22839853e-09
-1.19070668e-09
-1.18899532e-09
-1.23349556e-09
-1.22927475e-09
-1.1904742e-09
-1.18910237e-09
-1.23369654e-09
-1.22758253e-09
-1.19684724e-09
-1.18804335e-09
-1.19030024e-09
-1.23073828e-09
-1.22790269e-09
-1.19406012e-09
-1.18787699e-09
-1.19889303e-09
-1.23000577e-09
-1.23088322e-09
-1.18905442e-09
-1.18815466e-09
-1.23174285e-09
-1.22765967e-09
-1.19986467e-09
-1.18830384e-09
-1.19041201e-09
-1.23137255e-09
-1.22844373e-09
-1.19336449e-09
-1.18797787e-09
-1.20105693e-09
-1.23019286e-09
-1.23016034e-09
-1.18899662e-09
-1.18774175e-09
-1.22018546e-09
-1.22857985e-09
-1.21480328e-09
-1.1885953e-09
-1.1879247e-09
-1.22478768e-09
-1.22822016e-09
-1.21255918e-09
-1.18837082e-09
-1.18774066e-09
-1.22617373e-09
-1.22802809e-09
-1.20879757e-09
-1.18919695e-09
-1.18937581e-09
-1.23270169e-09
-1.22886813e-09
-1.19178333e-09
-1.18830838e-09
-1.22237993e-09
-1.22849684e-09
-1.21149333e-09
-1.18868703e-09
-1.18805676e-09
-1.22783088e-09
-1.2280229e-09
-1.20828969e-09
-1.18882258e-09
-1.18837437e-09
-1.23192112e-09
-1.22781974e-09
-1.1938639e-09
-1.18858163e-09
-1.22191981e-09
-1.22861436e-09
-1.20987134e-09
-1.18842731e-09
-1.18795978e-09
-1.22933442e-09
-1.22807272e-09
-1.20796008e-09
-1.18873888e-09
-1.18823464e-09
-1.23116953e-09
-1.22765735e-09
-1.19427274e-09
-1.18899819e-09
-1.2188683e-09
-1.22878095e-09
-1.2112286e-09
-1.18848533e-09
-1.18790157e-09
-1.22661683e-09
-1.22856656e-09
-1.2076367e-09
-1.18804374e-09
-1.18744079e-09
-1.2290301e-09
-1.22842685e-09
-1.19212682e-09
-1.18818411e-09
-1.22576031e-09
-1.22870673e-09
-1.19183825e-09
-1.18828048e-09
-1.22596384e-09
-1.22858007e-09
-1.19205613e-09
-1.18861349e-09
-1.2278264e-09
-1.22829772e-09
-1.19522459e-09
-1.1886944e-09
-1.19744431e-09
-1.23105259e-09
-1.23243656e-09
-1.18858316e-09
-1.18686635e-09
-1.22376823e-09
-1.22880574e-09
-1.19246721e-09
-1.18853859e-09
-1.22620455e-09
-1.22833808e-09
-1.19611814e-09
-1.18888435e-09
-1.19369417e-09
-1.23193258e-09
-1.22867383e-09
-1.19037167e-09
-1.1866963e-09
-1.22136716e-09
-1.22931585e-09
-1.1929541e-09
-1.18878232e-09
-1.22494523e-09
-1.22850562e-09
-1.19684931e-09
-1.18878484e-09
-1.19193992e-09
-1.23260948e-09
-1.22847862e-09
-1.19212527e-09
-1.18770177e-09
-1.22189957e-09
-1.22906846e-09
-1.1928475e-09
-1.18838124e-09
-1.22362304e-09
-1.22891596e-09
-1.20286245e-09
-1.18816466e-09
-1.18797326e-09
-1.23245562e-09
-1.22758554e-09
-1.1943694e-09
-1.18887198e-09
-1.22608887e-09
-1.22810915e-09
-1.20368592e-09
-1.18833581e-09
-1.18852245e-09
-1.23295644e-09
-1.22733706e-09
-1.19874498e-09
-1.18742977e-09
-1.18764971e-09
-1.23321789e-09
-1.22666495e-09
-1.19541321e-09
-1.18947675e-09
-1.2299568e-09
-1.22724242e-09
-1.20061625e-09
-1.18817006e-09
-1.18872059e-09
-1.23238523e-09
-1.22672706e-09
-1.20141083e-09
-1.18806287e-09
-1.18870569e-09
-1.23237236e-09
-1.22677088e-09
-1.20198008e-09
-1.18811761e-09
-1.18849779e-09
-1.2326169e-09
-1.22690916e-09
-1.20269244e-09
-1.18811927e-09
-1.18823695e-09
-1.23321416e-09
-1.22722659e-09
-1.20249013e-09
-1.18785668e-09
-1.18742954e-09
-1.23118199e-09
-1.22705151e-09
-1.19790073e-09
-1.18979446e-09
-1.22524724e-09
-1.22775398e-09
-1.20373814e-09
-1.18845969e-09
-1.18808353e-09
-1.22981504e-09
-1.22750256e-09
-1.20807852e-09
-1.18879481e-09
-1.1882522e-09
-1.22598055e-09
-1.22774162e-09
-1.20993328e-09
-1.18894432e-09
-1.18825187e-09
-1.22195335e-09
-1.22806362e-09
-1.21190394e-09
-1.18908838e-09
-1.18827224e-09
-1.21779415e-09
-1.22833893e-09
-1.21619954e-09
-1.18957205e-09
-1.18852968e-09
-1.21346926e-09
-1.2288016e-09
-1.21805533e-09
-1.18966214e-09
-1.18849721e-09
-1.21028479e-09
-1.22920765e-09
-1.22130486e-09
-1.18986191e-09
-1.18840569e-09
-1.2068906e-09
-1.22916596e-09
-1.22868523e-09
-1.19394194e-09
-1.18922367e-09
-1.188827e-09
-1.21397282e-09
-1.22879292e-09
-1.21676487e-09
-1.18978793e-09
-1.1887271e-09
-1.20982855e-09
-1.22945183e-09
-1.21742355e-09
-1.18970463e-09
-1.18817573e-09
-1.20544137e-09
-1.22999955e-09
-1.21334579e-09
-1.19038146e-09
-1.20078539e-09
-1.23091774e-09
-1.21791294e-09
-1.19012456e-09
-1.18870857e-09
-1.20734589e-09
-1.22926235e-09
-1.21467842e-09
-1.19138358e-09
-1.20326965e-09
-1.22981169e-09
-1.21699347e-09
-1.19086625e-09
-1.19009929e-09
-1.18968237e-09
-1.18948633e-09
-1.21015721e-09
-1.22874315e-09
-1.21268106e-09
-1.19062672e-09
-1.20327104e-09
-1.22975808e-09
-1.21883244e-09
-1.19006024e-09
-1.18853992e-09
-1.2070869e-09
-1.22970438e-09
-1.20878401e-09
-1.18904922e-09
-1.20181869e-09
-1.23071209e-09
-1.20597678e-09
-1.18864402e-09
-1.2026371e-09
-1.23067974e-09
-1.20449925e-09
-1.18886006e-09
-1.20511059e-09
-1.23039729e-09
-1.20246801e-09
-1.18872042e-09
-1.20758789e-09
-1.23018453e-09
-1.20034989e-09
-1.18872619e-09
-1.21117426e-09
-1.22987528e-09
-1.19884644e-09
-1.18951078e-09
-1.21708537e-09
-1.2296021e-09
-1.20268454e-09
-1.18869837e-09
-1.18854159e-09
-1.22634108e-09
-1.22995331e-09
-1.19416475e-09
-1.18815135e-09
-1.2217225e-09
-1.23096479e-09
-1.19150113e-09
-1.18815519e-09
-1.2264796e-09
-1.23096727e-09
-1.19159778e-09
-1.18968312e-09
-1.23363435e-09
-1.23067399e-09
-1.19519212e-09
-1.18823203e-09
-1.18981679e-09
-1.23059374e-09
-1.23109301e-09
-1.19372735e-09
-1.18828806e-09
-1.20850181e-09
-1.23435359e-09
-1.19048665e-09
-1.18967108e-09
-1.231156e-09
-1.22862118e-09
-1.1908684e-09
-1.19429493e-09
-1.22950956e-09
-1.23287819e-09
-1.1908186e-09
-1.18799441e-09
-1.19396421e-09
-1.22809941e-09
-1.22665861e-09
-1.23128209e-09
-1.19276136e-09
-1.1891424e-09
-1.18801534e-09
-1.18697682e-09
-1.19431952e-09
-1.22950365e-09
-1.22787769e-09
-1.21777336e-09
-1.19123046e-09
-1.19867139e-09
-1.22884423e-09
-1.22974688e-09
-1.1887589e-09
-1.18786769e-09
-1.1983608e-09
-1.23081713e-09
-1.2189243e-09
-1.19139727e-09
-1.20040895e-09
-1.22916892e-09
-1.22989124e-09
-1.18941983e-09
-1.18880785e-09
-1.20262009e-09
-1.22936162e-09
-1.23071686e-09
-1.19030546e-09
-1.1892518e-09
-1.20279107e-09
-1.22951412e-09
-1.2307968e-09
-1.19029727e-09
-1.1893123e-09
-1.20243238e-09
-1.22972087e-09
-1.23112863e-09
-1.19037165e-09
-1.18935071e-09
-1.20180413e-09
-1.22986908e-09
-1.23124283e-09
-1.19029695e-09
-1.18914356e-09
-1.20034171e-09
-1.23032499e-09
-1.23108131e-09
-1.18985498e-09
-1.18859365e-09
-1.19731834e-09
-1.23160717e-09
-1.22338966e-09
-1.19168082e-09
-1.1967551e-09
-1.23083598e-09
-1.2309926e-09
-1.18930819e-09
-1.1881332e-09
-1.19596157e-09
-1.23207592e-09
-1.22401198e-09
-1.19094666e-09
-1.19459382e-09
-1.23182987e-09
-1.22388474e-09
-1.19103284e-09
-1.19536175e-09
-1.23065618e-09
-1.2329969e-09
-1.18989252e-09
-1.18896514e-09
-1.19918719e-09
-1.22968054e-09
-1.23359468e-09
-1.1907454e-09
-1.1894007e-09
-1.20022387e-09
-1.22946229e-09
-1.23398603e-09
-1.19016361e-09
-1.18885383e-09
-1.19888644e-09
-1.22964156e-09
-1.23382732e-09
-1.18995976e-09
-1.18882524e-09
-1.19948193e-09
-1.22897572e-09
-1.23257389e-09
-1.19078041e-09
-1.18936159e-09
-1.20107364e-09
-1.22873005e-09
-1.23288246e-09
-1.19028028e-09
-1.1889955e-09
-1.19994541e-09
)
;

boundaryField
{
    closed
    {
        type            calculated;
        value           nonuniform List<scalar> 0();
    }
    open
    {
        type            calculated;
        value           nonuniform List<scalar> 0();
    }
    sides
    {
        type            empty;
    }
    procBoundary2to1
    {
        type            processor;
        value           uniform -1.20767572e-09;
    }
    procBoundary2to3
    {
        type            processor;
        value           uniform -1.22887029e-09;
    }
}


// ************************************************************************* //
