/*--------------------------------*- C++ -*----------------------------------*\
| =========                 |                                                 |
| \\      /  F ield         | OpenFOAM: The Open Source CFD Toolbox           |
|  \\    /   O peration     | Version:  2306                                  |
|   \\  /    A nd           | Website:  www.openfoam.com                      |
|    \\/     M anipulation  |                                                 |
\*---------------------------------------------------------------------------*/
FoamFile
{
    version     2.0;
    format      ascii;
    arch        "LSB;label=32;scalar=64";
    class       volVectorField;
    location    "0.0008";
    object      U;
}
// * * * * * * * * * * * * * * * * * * * * * * * * * * * * * * * * * * * * * //

dimensions      [0 1 -1 0 0 0 0];

internalField   nonuniform List<vector> 
530
(
(-0.143164489 0 0)
(-0.152629273 0 0)
(-0.146828098 0 0)
(-0.149036547 0 0)
(-0.162178624 0 0)
(-0.170318674 0 0)
(-0.174324554 0 0)
(-0.180497519 0 0)
(-0.190070185 0 0)
(-0.195220904 0 0)
(-0.195975196 0 0)
(-0.203477805 0 0)
(-0.213121591 0 0)
(-0.224006886 0 0)
(-0.22952212 0 0)
(-0.232305225 0 0)
(-0.243717473 0 0)
(-0.248068515 0 0)
(-0.249910951 0 0)
(-0.25902143 0 0)
(-0.264897665 0 0)
(-0.263911359 0 0)
(-0.265231536 0 0)
(-0.27244918 0 0)
(-0.275893182 0 0)
(-0.283726295 0 0)
(-0.295634429 0 0)
(-0.300857988 0 0)
(-0.311867807 0 0)
(-0.326974672 0 0)
(-0.328012477 0 0)
(-0.330584604 0 0)
(-0.334153367 0 0)
(-0.33520549 0 0)
(-0.341158579 0 0)
(-0.342955058 0 0)
(-0.353041791 0 0)
(-0.374542343 0 0)
(-0.344824862 0 0)
(-0.327879968 0 0)
(-0.362347269 0 0)
(-0.371209609 0 0)
(-0.372992391 0 0)
(-0.37844802 0 0)
(-0.37986192 0 0)
(-0.373340152 0 0)
(-0.372887502 0 0)
(-0.369229439 0 0)
(-0.373147587 0 0)
(-0.380302054 0 0)
(-0.374997411 0 0)
(-0.365162899 0 0)
(-0.360486029 0 0)
(-0.353277818 0 0)
(-0.344674966 0 0)
(-0.352855954 0 0)
(-0.358290983 0 0)
(-0.347272356 0 0)
(-0.332632143 0 0)
(-0.325517909 0 0)
(-0.323415998 0 0)
(-0.325257302 0 0)
(-0.300459995 0 0)
(-0.289664026 0 0)
(-0.309466055 0 0)
(-0.289894621 0 0)
(-0.265799689 0 0)
(-0.251924259 0 0)
(-0.234906527 0 0)
(-0.230716242 0 0)
(-0.21223552 0 0)
(-0.175648816 0 0)
(-0.167639809 0 0)
(-0.179426975 0 0)
(-0.148340611 0 0)
(-0.0978810348 0 0)
(-0.094496931 0 0)
(-0.10757454 0 0)
(-0.0632265673 0 0)
(-0.0203325295 0 0)
(-0.0028303314 0 0)
(0.0244177509 0 0)
(0.0370106198 0 0)
(0.0660132998 0 0)
(0.110552053 0 0)
(0.130369973 0 0)
(0.122717132 0 0)
(0.159776559 0 0)
(0.213411891 0 0)
(0.230713435 0 0)
(0.245651424 0 0)
(0.252365568 0 0)
(0.274806843 0 0)
(0.318940927 0 0)
(0.34150578 0 0)
(0.343244042 0 0)
(0.36869709 0 0)
(0.420117237 0 0)
(0.443673671 0 0)
(0.443694265 0 0)
(0.475383058 0 0)
(0.516182895 0 0)
(0.532182974 0 0)
(0.548793527 0 0)
(0.55194938 0 0)
(0.572631787 0 0)
(0.609008608 0 0)
(0.621927463 0 0)
(0.630408507 0 0)
(0.646675752 0 0)
(0.673501494 0 0)
(0.750453156 0 0)
(0.802660569 0 0)
(0.796129317 0 0)
(0.809241771 0 0)
(0.820975369 0 0)
(0.822485947 0 0)
(0.833454233 0 0)
(0.828867043 0 0)
(0.839459756 0 0)
(0.865096256 0 0)
(0.864266945 0 0)
(0.86353643 0 0)
(0.872417113 0 0)
(0.888012173 0 0)
(0.948599782 0 0)
(0.994072089 0 0)
(0.990640402 0 0)
(0.976049251 0 0)
(0.954125868 0 0)
(0.953856199 0 0)
(0.960587283 0 0)
(0.967612967 0 0)
(0.959053434 0 0)
(0.933916289 0 0)
(0.92429702 0 0)
(0.924118016 0 0)
(0.929429362 0 0)
(0.921925869 0 0)
(0.896005866 0 0)
(0.883704251 0 0)
(0.882676801 0 0)
(0.885554351 0 0)
(0.88729517 0 0)
(0.878923841 0 0)
(0.861056741 0 0)
(0.852910792 0 0)
(0.845413216 0 0)
(0.827416932 0 0)
(0.821896779 0 0)
(0.824151478 0 0)
(0.832906348 0 0)
(0.833232939 0 0)
(0.819779294 0 0)
(0.814445658 0 0)
(0.817562809 0 0)
(0.830866508 0 0)
(0.844586791 0 0)
(0.845886084 0 0)
(0.842127765 0 0)
(0.853136159 0 0)
(0.86341236 0 0)
(0.863798026 0 0)
(0.872015145 0 0)
(0.886808301 0 0)
(0.909740317 0 0)
(0.926650039 0 0)
(0.927735655 0 0)
(0.933756614 0 0)
(0.949613556 0 0)
(0.975824833 0 0)
(1.00023738 0 0)
(1.00706108 0 0)
(1.00861825 0 0)
(1.02693723 0 0)
(1.0472933 0 0)
(1.05696869 0 0)
(1.07680631 0 0)
(1.10674188 0 0)
(1.14025669 0 0)
(1.16509556 0 0)
(1.1682951 0 0)
(1.18254132 0 0)
(1.21537324 0 0)
(1.26404478 0 0)
(1.30354125 0 0)
(1.31406937 0 0)
(1.31549431 0 0)
(1.33638566 0 0)
(1.36508877 0 0)
(1.37469516 0 0)
(1.37476594 0 0)
(1.39945155 0 0)
(1.43773065 0 0)
(1.45718129 0 0)
(1.47099154 0 0)
(1.51488159 0 0)
(1.57614517 0 0)
(1.60714622 0 0)
(1.63045889 0 0)
(1.67964346 0 0)
(1.74727893 0 0)
(1.82705305 0 0)
(1.89313353 0 0)
(1.98160719 0 0)
(2.08034257 0 0)
(2.12956213 0 0)
(2.12860768 0 0)
(2.12571009 0 0)
(2.17532126 0 0)
(2.24231686 0 0)
(2.2510577 0 0)
(2.25594987 0 0)
(2.30434994 0 0)
(2.38688883 0 0)
(2.49877041 0 0)
(2.58116328 0 0)
(2.5942859 0 0)
(2.6686093 0 0)
(2.75936237 0 0)
(2.76090702 0 0)
(2.74835283 0 0)
(2.80822398 0 0)
(2.88729663 0 0)
(2.88490682 0 0)
(2.88229205 0 0)
(2.93818993 0 0)
(3.03284536 0 0)
(3.14718849 0 0)
(3.18233218 0 0)
(3.11781568 0 0)
(3.13543383 0 0)
(3.17812736 0 0)
(3.12234846 0 0)
(3.05017094 0 0)
(3.06599363 0 0)
(3.09799818 0 0)
(3.02834768 0 0)
(2.9839863 0 0)
(3.00177652 0 0)
(3.07954491 0 0)
(3.09068358 0 0)
(2.98669656 0 0)
(2.92902274 0 0)
(2.96077331 0 0)
(2.98987257 0 0)
(2.91145444 0 0)
(2.85830321 0 0)
(2.87167958 0 0)
(2.85665566 0 0)
(2.86591263 0 0)
(2.83601542 0 0)
(2.75982995 0 0)
(2.75683714 0 0)
(2.73795451 0 0)
(2.7554236 0 0)
(2.73189763 0 0)
(2.65269366 0 0)
(2.66599566 0 0)
(2.68728065 0 0)
(2.61479239 0 0)
(2.55589497 0 0)
(2.56849571 0 0)
(2.55610317 0 0)
(2.57022401 0 0)
(2.55051501 0 0)
(2.49213411 0 0)
(2.50049423 0 0)
(2.48444143 0 0)
(2.49815431 0 0)
(2.48589294 0 0)
(2.4374497 0 0)
(2.44786445 0 0)
(2.43452307 0 0)
(2.46112396 0 0)
(2.4668069 0 0)
(2.43377307 0 0)
(2.4476108 0 0)
(2.46285067 0 0)
(2.5149973 0 0)
(2.52379539 0 0)
(2.50946804 0 0)
(2.53668631 0 0)
(2.59388325 0 0)
(2.64197801 0 0)
(2.60742854 0 0)
(2.58101596 0 0)
(2.6171374 0 0)
(2.65406328 0 0)
(2.64664873 0 0)
(2.64342581 0 0)
(2.67336617 0 0)
(2.72439961 0 0)
(2.75044854 0 0)
(2.69776472 0 0)
(2.6819816 0 0)
(2.69990772 0 0)
(2.72994349 0 0)
(2.72685761 0 0)
(2.65904567 0 0)
(2.63144026 0 0)
(2.63468796 0 0)
(2.64504526 0 0)
(2.61555175 0 0)
(2.53313175 0 0)
(2.49109457 0 0)
(2.47505745 0 0)
(2.46117996 0 0)
(2.40717104 0 0)
(2.31614454 0 0)
(2.27259438 0 0)
(2.24784921 0 0)
(2.2117871 0 0)
(2.1434033 0 0)
(2.05192232 0 0)
(2.00574113 0 0)
(1.97298984 0 0)
(1.92389276 0 0)
(1.84935118 0 0)
(1.75653672 0 0)
(1.71402942 0 0)
(1.67969523 0 0)
(1.62124176 0 0)
(1.54470715 0 0)
(1.45534603 0 0)
(1.42462927 0 0)
(1.38821915 0 0)
(1.30038756 0 0)
(1.23791868 0 0)
(1.16413502 0 0)
(1.06153492 0 0)
(1.01167776 0 0)
(0.966669295 0 0)
(0.917299189 0 0)
(0.851911668 0 0)
(0.757999504 0 0)
(0.718543081 0 0)
(0.679739182 0 0)
(0.634150304 0 0)
(0.583542768 0 0)
(0.494006472 0 0)
(0.466537629 0 0)
(0.423497779 0 0)
(0.389206844 0 0)
(0.312554567 0 0)
(0.29657937 0 0)
(0.265744657 0 0)
(0.223488155 0 0)
(0.183555354 0 0)
(0.106257038 0 0)
(0.0905648678 0 0)
(0.0656481309 0 0)
(0.0525225265 0 0)
(-0.0201912699 0 0)
(-0.0251146006 0 0)
(-0.0589131352 0 0)
(-0.109103174 0 0)
(-0.150207609 0 0)
(-0.192063009 0 0)
(-0.220836218 0 0)
(-0.278523944 0 0)
(-0.294995367 0 0)
(-0.353891668 0 0)
(-0.389201047 0 0)
(-0.457205652 0 0)
(-0.472295654 0 0)
(-0.520152556 0 0)
(-0.577699188 0 0)
(-0.614658251 0 0)
(-0.688731329 0 0)
(-0.717611874 0 0)
(-0.772465602 0 0)
(-0.814673926 0 0)
(-0.899097022 0 0)
(-0.92852118 0 0)
(-0.984410619 0 0)
(-1.03573999 0 0)
(-1.13127588 0 0)
(-1.16767184 0 0)
(-1.22136726 0 0)
(-1.26950528 0 0)
(-1.36964915 0 0)
(-1.41081635 0 0)
(-1.45691003 0 0)
(-1.49720019 0 0)
(-1.59776196 0 0)
(-1.63508607 0 0)
(-1.67151743 0 0)
(-1.70317919 0 0)
(-1.79791118 0 0)
(-1.83372353 0 0)
(-1.86905406 0 0)
(-1.89409124 0 0)
(-1.97225155 0 0)
(-2.02571002 0 0)
(-2.07845952 0 0)
(-2.10731914 0 0)
(-2.12164603 0 0)
(-2.17121895 0 0)
(-2.18558271 0 0)
(-2.17344039 0 0)
(-2.17806469 0 0)
(-2.2290871 0 0)
(-2.22849404 0 0)
(-2.20439256 0 0)
(-2.1932761 0 0)
(-2.20674125 0 0)
(-2.18767677 0 0)
(-2.16282635 0 0)
(-2.15631823 0 0)
(-2.15716938 0 0)
(-2.14190489 0 0)
(-2.12265101 0 0)
(-2.07663055 0 0)
(-2.07976431 0 0)
(-2.12451355 0 0)
(-2.11254128 0 0)
(-2.08990234 0 0)
(-2.09746148 0 0)
(-2.19801533 0 0)
(-2.24663361 0 0)
(-2.1996964 0 0)
(-2.21679108 0 0)
(-2.3076228 0 0)
(-2.3431797 0 0)
(-2.34090192 0 0)
(-2.41292102 0 0)
(-2.45971937 0 0)
(-2.49633314 0 0)
(-2.5175742 0 0)
(-2.4963389 0 0)
(-2.54774057 0 0)
(-2.55743087 0 0)
(-2.52033119 0 0)
(-2.44610893 0 0)
(-2.38885348 0 0)
(-2.35764472 0 0)
(-2.29995056 0 0)
(-2.23762982 0 0)
(-2.23496781 0 0)
(-2.2048183 0 0)
(-2.18351396 0 0)
(-2.12874637 0 0)
(-2.04922727 0 0)
(-2.01526702 0 0)
(-1.97921502 0 0)
(-1.94196118 0 0)
(-1.89127799 0 0)
(-1.82137576 0 0)
(-1.77380118 0 0)
(-1.76734667 0 0)
(-1.71531745 0 0)
(-1.66377353 0 0)
(-1.62568483 0 0)
(-1.59734619 0 0)
(-1.58287207 0 0)
(-1.564049 0 0)
(-1.52941833 0 0)
(-1.50175652 0 0)
(-1.47685057 0 0)
(-1.4687005 0 0)
(-1.47259162 0 0)
(-1.45612438 0 0)
(-1.43883782 0 0)
(-1.42398772 0 0)
(-1.43008892 0 0)
(-1.44918629 0 0)
(-1.44811259 0 0)
(-1.4373781 0 0)
(-1.42173112 0 0)
(-1.42805094 0 0)
(-1.44768149 0 0)
(-1.44423911 0 0)
(-1.42224126 0 0)
(-1.38672282 0 0)
(-1.37142679 0 0)
(-1.37051667 0 0)
(-1.34619426 0 0)
(-1.29580221 0 0)
(-1.23101867 0 0)
(-1.19279568 0 0)
(-1.17696617 0 0)
(-1.14285919 0 0)
(-1.07533263 0 0)
(-1.0260188 0 0)
(-0.997585657 0 0)
(-0.982303922 0 0)
(-0.920883144 0 0)
(-0.853850144 0 0)
(-0.829607697 0 0)
(-0.830069338 0 0)
(-0.818877396 0 0)
(-0.77243947 0 0)
(-0.742986701 0 0)
(-0.744868536 0 0)
(-0.753496342 0 0)
(-0.709817789 0 0)
(-0.682471869 0 0)
(-0.686622076 0 0)
(-0.697491721 0 0)
(-0.659927291 0 0)
(-0.603359525 0 0)
(-0.584186938 0 0)
(-0.594221853 0 0)
(-0.594230658 0 0)
(-0.565949889 0 0)
(-0.519886754 0 0)
(-0.502707995 0 0)
(-0.516694496 0 0)
(-0.523636459 0 0)
(-0.503860879 0 0)
(-0.466985674 0 0)
(-0.457270919 0 0)
(-0.481450377 0 0)
(-0.495545412 0 0)
(-0.484489528 0 0)
(-0.454959644 0 0)
(-0.452709982 0 0)
(-0.482854818 0 0)
(-0.505180162 0 0)
(-0.5052822 0 0)
(-0.488184783 0 0)
(-0.49517075 0 0)
(-0.526257579 0 0)
(-0.548349673 0 0)
(-0.547195029 0 0)
(-0.523170058 0 0)
(-0.517227672 0 0)
(-0.535041653 0 0)
(-0.540250409 0 0)
)
;

boundaryField
{
    closed
    {
        type            noSlip;
    }
    open
    {
        type            inletOutlet;
        inletValue      nonuniform List<vector> 0();
        value           nonuniform List<vector> 0();
    }
    sides
    {
        type            empty;
    }
    procBoundary2to1
    {
        type            processor;
        value           uniform (-0.127520726 0 0);
    }
    procBoundary2to3
    {
        type            processor;
        value           uniform (-0.524031285 0 0);
    }
}


// ************************************************************************* //
