/*--------------------------------*- C++ -*----------------------------------*\
| =========                 |                                                 |
| \\      /  F ield         | OpenFOAM: The Open Source CFD Toolbox           |
|  \\    /   O peration     | Version:  2306                                  |
|   \\  /    A nd           | Website:  www.openfoam.com                      |
|    \\/     M anipulation  |                                                 |
\*---------------------------------------------------------------------------*/
FoamFile
{
    version     2.0;
    format      ascii;
    arch        "LSB;label=32;scalar=64";
    class       volScalarField;
    location    "0.00112";
    object      alpha;
}
// * * * * * * * * * * * * * * * * * * * * * * * * * * * * * * * * * * * * * //

dimensions      [1 -1 -1 0 0 0 0];

internalField   nonuniform List<scalar> 
530
(
7.6513014e-05
7.65996707e-05
7.65811645e-05
7.65735845e-05
7.66591514e-05
7.66923699e-05
7.66966308e-05
7.66920934e-05
7.6785374e-05
7.67864731e-05
7.68140313e-05
7.68104273e-05
7.69009234e-05
7.68806106e-05
7.6927142e-05
7.69228772e-05
7.70142548e-05
7.69762377e-05
7.70449522e-05
7.70328827e-05
7.7120979e-05
7.70811394e-05
7.71581114e-05
7.71453464e-05
7.72243044e-05
7.71868801e-05
7.72686687e-05
7.7255614e-05
7.73256221e-05
7.72909444e-05
7.73765104e-05
7.73646693e-05
7.74263564e-05
7.73937508e-05
7.74808493e-05
7.74699634e-05
7.75253166e-05
7.74957286e-05
7.75759331e-05
7.75739519e-05
7.76215604e-05
7.7596071e-05
7.7661655e-05
7.76646991e-05
7.7702975e-05
7.768974e-05
7.77430665e-05
7.77478266e-05
7.77847605e-05
7.77729622e-05
7.78212387e-05
7.78274311e-05
7.78667266e-05
7.78561206e-05
7.79000176e-05
7.79052381e-05
7.79485385e-05
7.79393379e-05
7.79808262e-05
7.79855166e-05
7.80303687e-05
7.80225647e-05
7.80618108e-05
7.80664843e-05
7.81121621e-05
7.81059228e-05
7.81464872e-05
7.81488007e-05
7.81943128e-05
7.81896193e-05
7.82353837e-05
7.82361189e-05
7.82834441e-05
7.82779605e-05
7.83278651e-05
7.83259903e-05
7.83726442e-05
7.83692584e-05
7.84179011e-05
7.84181864e-05
7.84629848e-05
7.84601272e-05
7.85056929e-05
7.85109446e-05
7.85539367e-05
7.85524756e-05
7.85971692e-05
7.86035227e-05
7.86463262e-05
7.86455125e-05
7.8690151e-05
7.86963459e-05
7.87405947e-05
7.87397617e-05
7.87856992e-05
7.87906796e-05
7.88363579e-05
7.88362774e-05
7.8886367e-05
7.88884778e-05
7.89353269e-05
7.89348469e-05
7.89856941e-05
7.89893729e-05
7.90358903e-05
7.90350104e-05
7.90835708e-05
7.90919652e-05
7.91375517e-05
7.91372718e-05
7.91859713e-05
7.91946726e-05
7.92417563e-05
7.92411182e-05
7.92888934e-05
7.9298851e-05
7.93461455e-05
7.93465495e-05
7.93935213e-05
7.94054631e-05
7.9452369e-05
7.94534541e-05
7.95014713e-05
7.95141486e-05
7.95605875e-05
7.95617126e-05
7.96123176e-05
7.96251259e-05
7.96708832e-05
7.96721478e-05
7.97247922e-05
7.97374816e-05
7.97822282e-05
7.97839263e-05
7.98376685e-05
7.98507687e-05
7.98946602e-05
7.98969003e-05
7.9951576e-05
7.99652292e-05
8.00079052e-05
8.00105932e-05
8.006623e-05
8.00800985e-05
8.01213036e-05
8.0125099e-05
8.01811736e-05
8.01955932e-05
8.02348499e-05
8.02394037e-05
8.02901907e-05
8.03060452e-05
8.03406987e-05
8.03488671e-05
8.03948056e-05
8.04117458e-05
8.04450394e-05
8.04554331e-05
8.04962732e-05
8.05159307e-05
8.05486239e-05
8.05614248e-05
8.05956252e-05
8.06202102e-05
8.06507526e-05
8.06668673e-05
8.06960086e-05
8.07228217e-05
8.07513697e-05
8.07711522e-05
8.07916274e-05
8.08224198e-05
8.08501454e-05
8.08741858e-05
8.08860459e-05
8.09208963e-05
8.09469645e-05
8.09764976e-05
8.09849516e-05
8.10179091e-05
8.10431441e-05
8.10763105e-05
8.10901889e-05
8.11168078e-05
8.11430668e-05
8.11756672e-05
8.12001916e-05
8.12112323e-05
8.12406309e-05
8.12743377e-05
8.13063541e-05
8.130666e-05
8.13351059e-05
8.13714638e-05
8.14047044e-05
8.14024173e-05
8.1427865e-05
8.14668202e-05
8.15013047e-05
8.14964196e-05
8.15194509e-05
8.15595492e-05
8.15959216e-05
8.158789e-05
8.16091607e-05
8.16496545e-05
8.16894693e-05
8.1675404e-05
8.16975418e-05
8.17365275e-05
8.17808817e-05
8.17607757e-05
8.1783621e-05
8.18208472e-05
8.18698625e-05
8.18433122e-05
8.18671366e-05
8.19024435e-05
8.19558651e-05
8.19230559e-05
8.19481121e-05
8.1980769e-05
8.2036708e-05
8.20007654e-05
8.2027593e-05
8.20566835e-05
8.21126903e-05
8.20767598e-05
8.21044131e-05
8.21301186e-05
8.21855342e-05
8.21514338e-05
8.21784538e-05
8.2200969e-05
8.22558205e-05
8.22241545e-05
8.22497927e-05
8.22691758e-05
8.23237952e-05
8.22949818e-05
8.23185122e-05
8.23347322e-05
8.23894705e-05
8.23638366e-05
8.23846013e-05
8.23976938e-05
8.24528612e-05
8.24302545e-05
8.24481302e-05
8.24595835e-05
8.25114766e-05
8.2492451e-05
8.25092158e-05
8.25196534e-05
8.25679581e-05
8.25520684e-05
8.2567645e-05
8.25771451e-05
8.26220265e-05
8.26093723e-05
8.26234514e-05
8.26320813e-05
8.26737276e-05
8.26644712e-05
8.26766606e-05
8.26845482e-05
8.27230514e-05
8.27173948e-05
8.27273521e-05
8.27345792e-05
8.27700068e-05
8.27683617e-05
8.27754748e-05
8.2782355e-05
8.28147259e-05
8.28133473e-05
8.28210522e-05
8.2827932e-05
8.28571208e-05
8.28563531e-05
8.28642008e-05
8.28711577e-05
8.28973419e-05
8.28971262e-05
8.29049927e-05
8.29119926e-05
8.29354305e-05
8.29357134e-05
8.2943481e-05
8.29504377e-05
8.29714477e-05
8.29721549e-05
8.29797234e-05
8.29865545e-05
8.30055521e-05
8.30064234e-05
8.30137754e-05
8.30203399e-05
8.3037703e-05
8.30385884e-05
8.30456724e-05
8.30519146e-05
8.30678701e-05
8.30686861e-05
8.30755026e-05
8.30813776e-05
8.30960991e-05
8.30967882e-05
8.31033521e-05
8.3108823e-05
8.31224415e-05
8.31229696e-05
8.31293031e-05
8.31343488e-05
8.31469556e-05
8.31472964e-05
8.31534381e-05
8.31580502e-05
8.31697564e-05
8.31698799e-05
8.31758291e-05
8.31800291e-05
8.31909274e-05
8.31908e-05
8.31965808e-05
8.32003538e-05
8.32105013e-05
8.32101825e-05
8.32157672e-05
8.32191244e-05
8.32285867e-05
8.32280844e-05
8.32334671e-05
8.32364325e-05
8.32452595e-05
8.32445917e-05
8.32497622e-05
8.32523649e-05
8.32605996e-05
8.32597846e-05
8.3264737e-05
8.32670024e-05
8.32746873e-05
8.32737394e-05
8.32784738e-05
8.3280423e-05
8.32876003e-05
8.32865303e-05
8.3291051e-05
8.32927029e-05
8.32994125e-05
8.32982307e-05
8.33025433e-05
8.3303917e-05
8.33101948e-05
8.33089127e-05
8.33130225e-05
8.33141384e-05
8.33200158e-05
8.33186461e-05
8.3322558e-05
8.33234372e-05
8.33289421e-05
8.33274978e-05
8.33312171e-05
8.33318801e-05
8.33370379e-05
8.33355317e-05
8.33390641e-05
8.33395308e-05
8.33443651e-05
8.33428088e-05
8.33461613e-05
8.33464494e-05
8.33509834e-05
8.33493859e-05
8.33525661e-05
8.33526938e-05
8.33569449e-05
8.33553218e-05
8.33583367e-05
8.33583163e-05
8.33623039e-05
8.3360667e-05
8.33635163e-05
8.33633759e-05
8.33671112e-05
8.33654697e-05
8.33681598e-05
8.33679155e-05
8.3371413e-05
8.33697769e-05
8.33723133e-05
8.33719803e-05
8.33752536e-05
8.33736314e-05
8.33760201e-05
8.33756123e-05
8.33786742e-05
8.33770735e-05
8.33793204e-05
8.33788507e-05
8.33817131e-05
8.33801408e-05
8.33822517e-05
8.33817319e-05
8.33844062e-05
8.33828683e-05
8.33848489e-05
8.338429e-05
8.33867865e-05
8.33852885e-05
8.33871444e-05
8.33865564e-05
8.33888848e-05
8.33874318e-05
8.33891678e-05
8.33885605e-05
8.33907292e-05
8.33893262e-05
8.33909467e-05
8.33903294e-05
8.33923458e-05
8.3390998e-05
8.33925065e-05
8.33918887e-05
8.33937585e-05
8.33924716e-05
8.33938703e-05
8.33932617e-05
8.33949889e-05
8.33937696e-05
8.33950592e-05
8.33944702e-05
8.33960568e-05
8.33949125e-05
8.33960924e-05
8.33955335e-05
8.33969811e-05
8.33959204e-05
8.33969879e-05
8.33964699e-05
8.33977868e-05
8.33968173e-05
8.33977616e-05
8.33972968e-05
8.33985562e-05
8.33977125e-05
8.33985216e-05
8.33981135e-05
8.33997326e-05
8.33989849e-05
8.33992479e-05
8.33989626e-05
8.34004897e-05
8.34006092e-05
8.34003654e-05
8.34002858e-05
8.34006594e-05
8.34006893e-05
8.34008668e-05
8.34009054e-05
8.34010757e-05
8.34011438e-05
8.34012718e-05
8.34013595e-05
8.34014523e-05
8.34015473e-05
8.3401613e-05
8.3401701e-05
8.34017494e-05
8.34018167e-05
8.34018567e-05
8.3401894e-05
8.34019306e-05
8.34019365e-05
8.34019695e-05
8.3401951e-05
8.34019768e-05
8.3401946e-05
8.34019615e-05
8.34019302e-05
8.34019362e-05
8.34019127e-05
8.34019143e-05
8.34019043e-05
8.34018661e-05
8.34017873e-05
8.34017312e-05
8.34016905e-05
8.34016632e-05
8.34016458e-05
8.34016353e-05
8.34016294e-05
8.34016263e-05
8.34016248e-05
8.34016241e-05
8.34016238e-05
8.34016237e-05
8.34016236e-05
8.34016236e-05
8.34016236e-05
8.34016236e-05
8.34016236e-05
8.34016236e-05
8.34016236e-05
8.34016236e-05
8.34016236e-05
8.34016236e-05
8.34016236e-05
8.34016236e-05
8.34016236e-05
8.34016236e-05
8.34016236e-05
8.34016236e-05
8.34016236e-05
8.34016236e-05
8.34016236e-05
8.34016236e-05
8.34016236e-05
8.34016236e-05
8.34016236e-05
8.34016236e-05
8.34016236e-05
8.34016236e-05
8.34016236e-05
8.34016236e-05
8.34016236e-05
8.34016236e-05
8.34016236e-05
)
;

boundaryField
{
    closed
    {
        type            calculated;
        value           nonuniform List<scalar> 0();
    }
    open
    {
        type            calculated;
        value           uniform 8.34016236e-05;
    }
    sides
    {
        type            empty;
    }
    procBoundary5to4
    {
        type            processor;
        value           uniform 7.64314675e-05;
    }
}


// ************************************************************************* //
