/*--------------------------------*- C++ -*----------------------------------*\
| =========                 |                                                 |
| \\      /  F ield         | OpenFOAM: The Open Source CFD Toolbox           |
|  \\    /   O peration     | Version:  2306                                  |
|   \\  /    A nd           | Website:  www.openfoam.com                      |
|    \\/     M anipulation  |                                                 |
\*---------------------------------------------------------------------------*/
FoamFile
{
    version     2.0;
    format      ascii;
    arch        "LSB;label=32;scalar=64";
    class       volScalarField;
    location    "0.00112";
    object      prefDZ_H;
}
// * * * * * * * * * * * * * * * * * * * * * * * * * * * * * * * * * * * * * //

dimensions      [1 -1 -1 0 0 0 0];

internalField   nonuniform List<scalar> 
530
(
0.000343145398
0.000343316899
0.000345234204
0.000345209535
0.000343737029
0.000343991616
0.000345735554
0.000345722735
0.000344262482
0.000344595272
0.000346246243
0.000346235775
0.000344804956
0.000345090848
0.000346738607
0.000346723753
0.000345400225
0.000345566353
0.000347249516
0.00034720159
0.000345941054
0.000346090846
0.00034774151
0.000347690561
0.000346456814
0.000346609787
0.000348223367
0.000348171073
0.000346958004
0.000347106931
0.000348694638
0.000348647197
0.000347454513
0.000347589151
0.000349148916
0.000349108099
0.000347946993
0.000348059577
0.000349568263
0.000349561806
0.000348429627
0.000348516192
0.00034994648
0.000349960429
0.00034882238
0.000348944994
0.000350306984
0.000350327763
0.000349205944
0.000349312696
0.000350654091
0.0003506806
0.000349587007
0.000349680139
0.000351003681
0.00035102607
0.000349963179
0.000350051586
0.000351361612
0.000351381815
0.000350340869
0.000350427122
0.000351718601
0.000351738737
0.000350717883
0.000350806274
0.00035209037
0.000352100705
0.000351090242
0.000351187109
0.000352479548
0.000352483383
0.00035150246
0.000351604399
0.000352883336
0.000352876621
0.000351899661
0.000352033458
0.000353276986
0.000353279299
0.000352303174
0.000352446289
0.000353661378
0.000353684187
0.000352711459
0.000352868851
0.000354060023
0.000354087324
0.000353131423
0.00035328726
0.000354463353
0.000354489997
0.000353563033
0.000353708805
0.000354877129
0.000354898765
0.000353997069
0.000354148707
0.000355311767
0.000355321703
0.000354442549
0.000354590618
0.000355740824
0.000355757231
0.000354891088
0.000355032991
0.000356163776
0.00035619961
0.000355341226
0.0003554835
0.000356605001
0.000356641826
0.000355811643
0.000355937021
0.00035704619
0.000357088162
0.00035627298
0.000356407304
0.000357494033
0.000357544144
0.000356738253
0.000356883967
0.000357955379
0.000358008417
0.000357211938
0.00035736178
0.000358428367
0.000358481902
0.000357697842
0.000357847409
0.000358907775
0.000358960787
0.000358187098
0.000358337617
0.000359388436
0.000359443105
0.000358681528
0.000358831789
0.000359871037
0.000359927903
0.000359182254
0.000359327405
0.000360356182
0.000360414044
0.000359683641
0.000359825568
0.000360842037
0.000360902318
0.000360193914
0.000360320903
0.000361302822
0.00036136913
0.000360657638
0.000360790668
0.000361744959
0.000361815864
0.000361106941
0.000361241829
0.000362173656
0.000362255845
0.000361550545
0.000361692495
0.000362592488
0.000362694766
0.000361979057
0.000362144769
0.000363014055
0.000363125637
0.000362404941
0.000362586613
0.000363415561
0.000363543692
0.000362820834
0.000363024311
0.00036381157
0.000363956656
0.000363228361
0.000363469989
0.000364225418
0.00036436322
0.000363632167
0.000363880776
0.000364664898
0.000364776963
0.000364100001
0.000364274877
0.000365123418
0.00036517197
0.000364558694
0.000364681776
0.000365565572
0.000365570705
0.000364993573
0.000365092194
0.000365973949
0.000365969034
0.000365413143
0.00036550015
0.000366374687
0.000366359458
0.000365826231
0.00036589373
0.000366766987
0.000366739038
0.000366229563
0.00036627481
0.000367154566
0.000367101935
0.000366623138
0.000366644513
0.000367533023
0.000367455669
0.000367005042
0.000367004758
0.000367901149
0.000367797392
0.00036737493
0.000367354575
0.000368256166
0.0003681273
0.000367732314
0.000367688696
0.000368588072
0.000368447746
0.000368076494
0.000368014773
0.000368899927
0.00036875938
0.000368405972
0.000368332552
0.000369198455
0.000369065247
0.000368722324
0.00036864103
0.000369485546
0.000369361818
0.000369026786
0.000368939742
0.000369762937
0.000369650332
0.000369320455
0.000369228889
0.000370030694
0.000369930524
0.000369603499
0.000369508965
0.000370288908
0.000370200576
0.000369877059
0.000369784853
0.000370527503
0.000370453305
0.000370140938
0.000370051322
0.000370757212
0.000370695372
0.000370392934
0.000370307234
0.000370976893
0.00037092783
0.00037063392
0.000370552695
0.000371186751
0.000371151121
0.000370864181
0.000370788182
0.000371386761
0.000371365388
0.000371084026
0.000371013719
0.000371576972
0.000371571576
0.000371293456
0.000371231484
0.000371757923
0.000371753378
0.000371492756
0.000371440985
0.000371929279
0.000371927055
0.000371682188
0.000371639179
0.000372091672
0.000372091549
0.00037186175
0.000371826235
0.000372245287
0.000372247059
0.000372031479
0.00037200204
0.000372390384
0.000372393757
0.000372191685
0.000372166935
0.000372527617
0.000372531554
0.000372342305
0.000372320836
0.000372656841
0.00037266074
0.000372483389
0.000372464464
0.000372777945
0.000372781479
0.000372615419
0.000372598327
0.000372891128
0.000372894075
0.000372738764
0.00037272293
0.000372996561
0.000372998783
0.000372853792
0.00037283878
0.000373094332
0.000373095747
0.000372960861
0.000372946358
0.000373185149
0.000373185646
0.000373060315
0.000373046113
0.000373269359
0.000373268812
0.000373152534
0.000373138442
0.000373347109
0.000373345755
0.00037323785
0.000373223806
0.000373418841
0.000373416717
0.000373316618
0.000373302623
0.000373484869
0.000373482053
0.000373389208
0.000373375291
0.000373545523
0.000373542092
0.000373455998
0.000373442173
0.000373601132
0.00037359715
0.000373517357
0.000373503621
0.000373652017
0.00037364753
0.000373573631
0.000373559976
0.00037369848
0.000373693533
0.000373625147
0.000373611572
0.000373740813
0.000373735456
0.000373672219
0.000373658735
0.000373779295
0.000373773583
0.000373715153
0.000373701775
0.000373814201
0.000373808187
0.00037375424
0.000373740988
0.000373845791
0.000373839529
0.000373789762
0.000373776654
0.000373874317
0.000373867857
0.000373821993
0.000373809035
0.000373900023
0.000373893402
0.000373851172
0.000373838397
0.000373923121
0.000373916401
0.000373877561
0.00037386496
0.00037394383
0.000373937062
0.000373901334
0.000373888995
0.000373962355
0.000373955578
0.000373922739
0.000373910682
0.000373978884
0.000373972138
0.000373941974
0.000373930221
0.000373993596
0.000373986916
0.000373959227
0.000373947797
0.000374006656
0.000374000073
0.000373974672
0.000373963582
0.000374018219
0.000374011761
0.000373988471
0.000373977737
0.000374028429
0.000374022119
0.000374000777
0.000373990414
0.000374037417
0.000374031278
0.000374011729
0.000374001753
0.000374045306
0.000374039359
0.000374021459
0.000374011887
0.00037405221
0.000374046473
0.000374030086
0.000374020942
0.000374058231
0.000374052726
0.000374037722
0.000374029035
0.000374063465
0.000374058214
0.000374044471
0.00037403628
0.000374067997
0.000374063025
0.000374050426
0.000374042778
0.000374071906
0.000374067243
0.000374055672
0.000374048624
0.000374075265
0.000374070944
0.000374060294
0.00037405391
0.000374078173
0.000374074224
0.000374064372
0.000374058738
0.000374080958
0.000374077517
0.000374068897
0.000374064043
0.000374085407
0.000374082335
0.000374073736
0.000374070313
0.000374084587
0.000374085179
0.000374082251
0.000374080938
0.000374083913
0.00037408368
0.000374084751
0.000374084639
0.000374085662
0.000374085859
0.00037408654
0.000374086949
0.000374087394
0.000374087902
0.000374088219
0.000374088698
0.000374088997
0.000374089338
0.000374089699
0.000374089837
0.000374090288
0.000374090229
0.000374090732
0.000374090553
0.000374091031
0.000374090835
0.00037409122
0.000374091091
0.000374091355
0.000374091328
0.000374091493
0.000374091556
0.000374091466
0.000374091134
0.0003740909
0.00037409073
0.000374090617
0.000374090545
0.000374090502
0.000374090478
0.000374090466
0.00037409046
0.000374090457
0.000374090456
0.000374090455
0.000374090455
0.000374090455
0.000374090455
0.000374090455
0.000374090455
0.000374090455
0.000374090455
0.000374090455
0.000374090455
0.000374090455
0.000374090455
0.000374090455
0.000374090455
0.000374090455
0.000374090455
0.000374090455
0.000374090455
0.000374090455
0.000374090455
0.000374090455
0.000374090455
0.000374090455
0.000374090455
0.000374090455
0.000374090455
0.000374090455
0.000374090455
0.000374090455
0.000374090455
0.000374090455
0.000374090455
)
;

boundaryField
{
    closed
    {
        type            calculated;
        value           nonuniform List<scalar> 0();
    }
    open
    {
        type            calculated;
        value           uniform 0.000374090455;
    }
    sides
    {
        type            empty;
    }
    procBoundary5to4
    {
        type            processor;
        value           uniform 0.000344598182;
    }
}


// ************************************************************************* //
