/*--------------------------------*- C++ -*----------------------------------*\
| =========                 |                                                 |
| \\      /  F ield         | OpenFOAM: The Open Source CFD Toolbox           |
|  \\    /   O peration     | Version:  2306                                  |
|   \\  /    A nd           | Website:  www.openfoam.com                      |
|    \\/     M anipulation  |                                                 |
\*---------------------------------------------------------------------------*/
FoamFile
{
    version     2.0;
    format      ascii;
    arch        "LSB;label=32;scalar=64";
    class       volScalarField;
    location    "0.00112";
    object      PV;
}
// * * * * * * * * * * * * * * * * * * * * * * * * * * * * * * * * * * * * * //

dimensions      [0 0 0 0 0 0 0];

internalField   nonuniform List<scalar> 
530
(
0.00688203311
0.00687834107
0.00696681236
0.00697285579
0.00688181796
0.00688800196
0.00696787325
0.0069718359
0.00688128876
0.00689405723
0.00696641394
0.00696923523
0.00688163286
0.00689537254
0.00696451801
0.00696593585
0.00688291912
0.0068953194
0.00696096979
0.00696252765
0.00688238294
0.00689450564
0.00695681707
0.00695834319
0.00688104382
0.00689293754
0.00695223171
0.00695381701
0.00687913083
0.00689055091
0.006947657
0.00694902883
0.00687693246
0.0068876415
0.00694307364
0.00694440248
0.0068749788
0.00688435223
0.00693963725
0.00693961734
0.0068735311
0.00688083728
0.00693692106
0.00693616943
0.00687246399
0.00687813157
0.00693449361
0.00693350577
0.0068709707
0.00687572571
0.00693234306
0.00693125159
0.0068693554
0.00687335505
0.00693022328
0.00692924692
0.00686755312
0.00687117057
0.00692796165
0.00692708971
0.00686588492
0.00686920804
0.00692578649
0.00692498949
0.00686430012
0.00686747255
0.00692338857
0.00692293087
0.00686254937
0.00686583105
0.00692077301
0.006920467
0.0068608608
0.00686476122
0.00691802384
0.0069180766
0.00685881446
0.00686371243
0.00691574263
0.00691572872
0.00685714187
0.0068623375
0.0069141308
0.00691370224
0.00685585166
0.00686142475
0.00691248676
0.00691204114
0.00685510461
0.00686056605
0.00691115107
0.00691073732
0.00685489243
0.00685998065
0.00691005635
0.00690980343
0.00685484069
0.00686008638
0.00690889607
0.0069090456
0.00685499052
0.00686019435
0.00690840885
0.00690853043
0.00685539705
0.00686038439
0.00690862271
0.00690844329
0.00685607004
0.00686097053
0.00690892049
0.00690872606
0.00685758634
0.00686184812
0.00690973129
0.00690950619
0.00685906334
0.00686350875
0.00691088487
0.00691054902
0.00686082821
0.00686558682
0.00691225933
0.00691197356
0.0068629169
0.00686787601
0.00691395601
0.00691369657
0.00686550622
0.00687051814
0.00691599416
0.0069157968
0.00686844395
0.00687350923
0.00691834551
0.00691826913
0.00687177842
0.00687689876
0.00692098448
0.00692103811
0.0068755668
0.00688058781
0.00692402168
0.00692422288
0.00687963871
0.00688459087
0.00692740094
0.00692768041
0.00688444723
0.00688884009
0.00693188269
0.00693202747
0.00688990673
0.00689384914
0.00693700275
0.0069372434
0.00689546028
0.00689917836
0.00694255157
0.00694284287
0.00690116626
0.00690482976
0.00694837746
0.00694857502
0.00690669819
0.00691081476
0.00695406371
0.00695454268
0.0069125729
0.00691689305
0.00696021473
0.00696083045
0.00691848857
0.00692320701
0.0069664307
0.00696723296
0.00692447566
0.00693010591
0.00697207882
0.00697376876
0.00693019666
0.00693603369
0.00697721486
0.00697969796
0.00693753121
0.00694127906
0.00698205894
0.00698609914
0.00694500627
0.00694722743
0.00698696717
0.0069923347
0.00695218905
0.00695359189
0.00699210366
0.00699854584
0.00695918138
0.00696021759
0.00699743798
0.00700470831
0.00696620077
0.00696681535
0.00700283395
0.0070109215
0.00697323212
0.00697340168
0.0070083318
0.00701708976
0.00698024068
0.0069799865
0.00701393584
0.00702315107
0.00698720025
0.00698658941
0.00701955982
0.00702920065
0.00699409877
0.00699326349
0.00702522307
0.00703523446
0.00700098878
0.00699992865
0.0070310755
0.00704120275
0.00700789387
0.00700657999
0.00703707863
0.00704703434
0.00701463659
0.0070131808
0.00704304291
0.00705266184
0.00702121927
0.00701969017
0.0070489045
0.00705813464
0.00702766128
0.00702608855
0.00705463867
0.00706344116
0.00703398058
0.00703237532
0.00706022886
0.00706856538
0.00704017912
0.00703857482
0.0070656428
0.00707351189
0.00704629688
0.00704478047
0.00707096609
0.00707843072
0.0070523128
0.00705085721
0.00707612664
0.00708317784
0.00705815383
0.00705678382
0.00708113445
0.00708775848
0.00706383042
0.00706254546
0.00708597233
0.00709216952
0.00706934391
0.00706814465
0.00709063829
0.00709640887
0.00707469574
0.00707358124
0.00709511987
0.007100434
0.00707986966
0.00707893995
0.00709941622
0.00710432952
0.00708487215
0.00708419673
0.00710352439
0.00710804403
0.00708970019
0.00708924656
0.0071074491
0.00711162624
0.0070943479
0.00709408116
0.00711119912
0.00711507078
0.00709881048
0.00709869307
0.00711477835
0.00711837444
0.00710308912
0.00710308775
0.00711818287
0.00712153252
0.00710717626
0.00710725992
0.00712140929
0.00712455489
0.00711107444
0.00711121753
0.00712447881
0.00712743769
0.00711478487
0.00711496859
0.0071273965
0.00713018203
0.00711831238
0.00711852064
0.00713016624
0.0071327884
0.00712166064
0.00712188119
0.00713279098
0.00713525831
0.00712483291
0.00712505758
0.00713527361
0.00713759524
0.00712783159
0.00712805747
0.00713762081
0.00713979989
0.00713066607
0.00713088226
0.0071398323
0.00714187971
0.0071333384
0.0071335414
0.00714191472
0.00714383611
0.00713585332
0.00713604182
0.007143872
0.00714567328
0.0071382165
0.00713838997
0.00714570843
0.00714739537
0.00714043409
0.00714059184
0.00714742856
0.00714900654
0.00714251217
0.00714265343
0.00714903694
0.00715051116
0.00714445666
0.00714458075
0.00715053821
0.00715191365
0.00714627338
0.0071463799
0.00715193699
0.00715321859
0.00714796809
0.00714805695
0.00715323797
0.00715443059
0.00714954653
0.00714961791
0.00715444581
0.00715555425
0.00715101442
0.00715106871
0.00715556516
0.00715659414
0.00715237744
0.00715241512
0.00715660049
0.00715755493
0.00715364144
0.00715366258
0.00715755664
0.00715844078
0.00715481154
0.0071548169
0.00715843635
0.00715925772
0.00715589361
0.00715588302
0.00715924742
0.0071600068
0.00715689085
0.00715686791
0.00715999278
0.00716069347
0.00715780963
0.0071577754
0.00716067619
0.00716132204
0.00715865476
0.00715861041
0.00716130165
0.00716189637
0.00715943095
0.00715937761
0.00716187303
0.00716242016
0.00716014272
0.0071600815
0.00716239407
0.00716289693
0.00716079438
0.00716072641
0.00716286834
0.00716333006
0.00716139011
0.00716131648
0.00716329923
0.00716372273
0.00716193388
0.0071618557
0.00716368999
0.00716407794
0.0071624295
0.00716234793
0.00716404368
0.00716439853
0.00716288057
0.00716279688
0.00716436317
0.00716468712
0.00716329054
0.00716320614
0.00716465119
0.00716494617
0.00716366267
0.00716357918
0.00716491031
0.00716517794
0.00716400003
0.00716391924
0.00716514294
0.00716538461
0.00716430541
0.00716422931
0.00716535131
0.00716556811
0.00716458141
0.00716451199
0.00716553695
0.00716573021
0.00716482896
0.00716476826
0.00716569353
0.00716586112
0.00716506824
0.0071650128
0.00716576229
0.00716591854
0.00716526909
0.00716522623
0.00716559852
0.00716563678
0.00716560964
0.0071656077
0.00716572762
0.00716575583
0.00716583014
0.00716586386
0.00716593852
0.00716598284
0.0071660493
0.00716610144
0.00716616156
0.00716621789
0.00716627352
0.00716632975
0.00716638273
0.00716643467
0.0071664861
0.00716653054
0.00716658009
0.00716661573
0.00716666148
0.00716668901
0.00716672821
0.00716674948
0.00716677991
0.00716679682
0.00716681784
0.0071668319
0.00716684458
0.00716685514
0.00716686667
0.00716687927
0.00716688786
0.00716689396
0.00716689783
0.00716690019
0.00716690151
0.00716690219
0.00716690251
0.00716690264
0.00716690269
0.00716690271
0.00716690271
0.00716690271
0.00716690271
0.00716690271
0.00716690271
0.00716690271
0.00716690271
0.00716690271
0.00716690271
0.00716690271
0.00716690271
0.00716690271
0.00716690271
0.00716690271
0.00716690271
0.00716690271
0.00716690271
0.00716690271
0.00716690271
0.00716690271
0.00716690271
0.00716690271
0.00716690271
0.00716690271
0.00716690271
0.00716690271
0.00716690271
0.00716690271
0.00716690271
0.00716690271
0.00716690271
0.00716690271
)
;

boundaryField
{
    closed
    {
        type            zeroGradient;
    }
    open
    {
        type            zeroGradient;
    }
    sides
    {
        type            empty;
    }
    procBoundary5to4
    {
        type            processor;
        value           uniform 0.00697478527;
    }
}


// ************************************************************************* //
