/*--------------------------------*- C++ -*----------------------------------*\
| =========                 |                                                 |
| \\      /  F ield         | OpenFOAM: The Open Source CFD Toolbox           |
|  \\    /   O peration     | Version:  2306                                  |
|   \\  /    A nd           | Website:  www.openfoam.com                      |
|    \\/     M anipulation  |                                                 |
\*---------------------------------------------------------------------------*/
FoamFile
{
    version     2.0;
    format      ascii;
    arch        "LSB;label=32;scalar=64";
    class       volScalarField;
    location    "0.00192";
    object      H2O;
}
// * * * * * * * * * * * * * * * * * * * * * * * * * * * * * * * * * * * * * //

dimensions      [0 0 0 0 0 0 0];

internalField   nonuniform List<scalar> 
531
(
0.00736648963
0.0073644767
0.00081914399
0.00103387832
0.00431845728
0.00737344999
0.00737080146
0.000816435999
0.00102770638
0.00470239324
0.00744227704
0.00744022731
0.000822534022
0.00101955663
0.00477946032
0.0075619921
0.00755271616
0.000797041607
0.00102319517
0.00646629225
0.00697237361
0.000780660101
0.00105388042
0.00641349721
0.00687059235
0.000795208439
0.00104579056
0.00471164653
0.00755343747
0.00755065732
0.000745772071
0.00102824183
0.00100976513
0.00196894745
0.00674786042
0.00728903545
0.00729445239
0.00803262246
0.0080198847
0.00140849002
0.000968721266
0.000912358046
0.000980408948
0.00103990612
0.00101908575
0.00572766109
0.00709223676
0.000745961263
0.000992926232
0.00556431751
0.00810946817
0.00810166958
0.000714154219
0.00105543072
0.00100844175
0.00622406293
0.00706967748
0.000716313139
0.00104221232
0.00647336255
0.00688763816
0.000819743829
0.00110065345
0.00107919604
0.00434908305
0.00684963202
0.00696814437
0.00719478232
0.00719834814
0.00756736658
0.00729128547
0.000822057803
0.00112094393
0.00110665143
0.00559796965
0.00664994785
0.00141371953
0.00107303676
0.000979337625
0.006894368
0.0074851053
0.0012859911
0.00101464869
0.00463081967
0.00743400111
0.00743033827
0.00122913612
0.00100374201
0.00457828117
0.00769772211
0.0076894675
0.00118256896
0.00107029957
0.00104575719
0.00553369116
0.00679661144
0.000717497122
0.00109264798
0.00455816419
0.00653127794
0.00740039679
0.00739007724
0.00118697232
0.00103151078
0.00626229702
0.00704518918
0.000811728733
0.00104178914
0.00465795267
0.00741201692
0.00740461992
0.00117720304
0.00101800488
0.00465710816
0.00752813073
0.00751505193
0.00111248001
0.00103223069
0.00509433508
0.0069352387
0.00738299972
0.00737820283
0.000790927543
0.00104670209
0.00102020871
0.00104020563
0.00615363195
0.00733242692
0.00066580446
0.00102829677
0.00653647104
0.00712163323
0.000724521177
0.0010448721
0.00470221073
0.00745656123
0.00744829207
0.000720816618
0.00102847677
0.00463142811
0.00752444116
0.00751656109
0.000719713365
0.0010165046
0.00462853084
0.00769139495
0.00767961614
0.0011921771
0.00104532294
0.00102242732
0.00322220594
0.00746626095
0.00745559614
0.000886191263
0.00104086865
0.00631474962
0.00694329835
0.000757717459
0.0010631331
0.00421718463
0.0073451163
0.00734280934
0.000722154285
0.0010444995
0.00377437422
0.00737546797
0.00736722564
0.000724253824
0.00105752816
0.00620560656
0.00675578025
0.000782152213
0.00110830671
0.00469698078
0.00647424934
0.00741026844
0.00740257378
0.0007337508
0.00100523857
0.00518119609
0.00801620547
0.0080055681
0.000659850946
0.00105177771
0.00102152916
0.00647041943
0.00679299691
0.0006871043
0.00479128135
0.0080208588
0.00413146972
0.000948873531
0.00105542942
0.00105620727
0.00598851382
0.00663483911
0.0007756985
0.00539139205
0.00750227162
0.00143498332
0.00107963874
0.0010209481
0.00489668995
0.00771120181
0.00769875631
0.00118384524
0.000983225013
0.00526726621
0.00807003153
0.00802394594
0.000709965943
0.00105984975
0.00103260483
0.00639656498
0.00669188558
0.000777211647
0.00538972013
0.00749776349
0.0017717356
0.00108544618
0.00103540165
0.00484952825
0.00762805094
0.00761747273
0.00125880136
0.000997834032
0.00528233635
0.00783816115
0.00781972829
0.00135636078
0.000995702242
0.00560805792
0.00733949136
0.00777250011
0.00754233037
0.000817371131
0.00105318994
0.000969899216
0.00106433747
0.00105512161
0.00109692636
0.00307233107
0.00661811454
0.00759226398
0.00758392382
0.0025477356
0.000997249745
0.00645143859
0.0073764332
0.00319366472
0.00100397125
0.00100438793
0.00165108626
0.00769007906
0.00768920469
0.00101882555
0.00584756399
0.00783221458
0.00147286178
0.00101164125
0.00657991269
0.00719163356
0.00210720491
0.00106955066
0.00102968835
0.00341352421
0.00760224234
0.00759261711
0.00157047737
0.00106499503
0.00104587581
0.00395569929
0.00688357844
0.00706983699
0.00716733035
0.0077035731
0.00709850017
0.000879825181
0.00108516878
0.00104344576
0.00109518113
0.00527338429
0.00672027081
0.000868366938
0.00110485901
0.00515977902
0.00666253578
0.00755854535
0.00751917009
0.0007476871
0.00103170967
0.0066150296
0.00718849311
0.000821682298
0.00103555744
0.00523315055
0.0076985777
0.0076137354
0.000746607669
0.00102732989
0.00648697787
0.00719468203
0.00082504799
0.00103066644
0.00520013157
0.00776995131
0.00770368678
0.00100723978
0.00102083949
0.00672622629
0.00718879001
0.000962740373
0.001088754
0.00102114837
0.00644710351
0.00703254314
0.000705090812
0.00109992769
0.00100078401
0.0044110145
0.00771975302
0.00767988746
0.000968827196
0.00102142729
0.00655782066
0.0071663922
0.000781367562
0.00105843145
0.00647740936
0.00697584905
0.000818717022
0.00108588304
0.00547626934
0.00673612828
0.00757366333
0.00756071103
0.0014478061
0.00101668677
0.00664625871
0.00731726941
0.00103548133
0.00103472066
0.00669685831
0.00727994212
0.0022559746
0.00103970622
0.000985413759
0.00108448497
0.00310904287
0.00645618941
0.00754846855
0.0075346641
0.000804700822
0.00100641197
0.00550265375
0.00798991912
0.0079539919
0.00073396792
0.00100377481
0.00678674643
0.00739595938
0.000714325356
0.00103879545
0.00698238399
0.00722060091
0.000689873355
0.00109037237
0.00103193265
0.00644774223
0.00722799816
0.000791839395
0.00104665688
0.00646408122
0.00719210651
0.00080923997
0.00103635817
0.00513538006
0.00769022359
0.00767328075
0.000793156508
0.00102599489
0.00645084527
0.00721693313
0.000816372072
0.00103917989
0.00509834223
0.00762998768
0.00761714756
0.000801803463
0.00103011396
0.00643019847
0.00721020844
0.000822519244
0.00103824267
0.00509614513
0.00767335616
0.00765537879
0.000795844371
0.0010313312
0.0065586261
0.0071584987
0.000801537348
0.00106123984
0.0065450817
0.00707205277
0.000812767479
0.0010627477
0.00644801839
0.00712095865
0.000831205581
0.00104021918
0.00510454772
0.00767340039
0.00765656144
0.000791367586
0.00103116562
0.00663146082
0.00717605958
0.000785631368
0.00106604328
0.00676527479
0.00700461401
0.000765504421
0.00110833954
0.00108738271
0.00629875664
0.00705627805
0.000843517855
0.00105661607
0.00456573101
0.00743024266
0.0074208656
0.000825911775
0.00106413768
0.00636086265
0.00680501414
0.000865386472
0.00112638845
0.00446931995
0.00639611265
0.00715729339
0.00715387653
0.000865438812
0.00109119931
0.00527214901
0.00666498553
0.00736682384
0.00736675465
0.000862416768
0.00570118209
0.00773924178
0.000830783806
0.00101859176
0.00663129937
0.00739130634
0.000854086012
0.00102850361
0.00576627342
0.00741672023
0.00753037573
0.00564021411
0.0009612295
0.00108744458
0.00105420645
0.00106438003
0.00304805477
0.00735722264
0.00740909487
0.000865335405
0.00102742044
0.00520181824
0.00774176456
0.00740700051
0.000863800181
0.00621115854
0.00788698901
0.000846593696
0.0010093238
0.00686948434
0.00754697973
0.00277087297
0.00101327553
0.00104668043
0.00104879789
0.00602111048
0.00710927804
0.000949189588
0.00104508298
0.00548922558
0.00782147947
0.00747993959
0.000879122435
0.00110336592
0.00103940135
0.005843364
0.00709576763
0.00782629437
0.00765031616
0.000795677432
0.00108955992
0.000951095937
0.00621834166
0.00718441301
0.000970237269
0.00107728849
0.00660732395
0.00673614817
0.000995649633
0.00112093636
0.0051760483
0.00659454523
0.00718886561
0.0071400624
0.000996079546
0.00105290877
0.00556527152
0.00750208574
0.00726146134
0.00101917999
0.00104277133
0.00551745898
0.00754464489
0.00727455669
0.00101949465
0.0010379076
0.00560422847
0.00780938431
0.00726669416
0.000877511453
0.00110432452
0.000988286361
)
;

boundaryField
{
    closed
    {
        type            calculated;
        value           nonuniform List<scalar> 0();
    }
    open
    {
        type            calculated;
        value           nonuniform List<scalar> 0();
    }
    sides
    {
        type            empty;
    }
    procBoundary3to2
    {
        type            processor;
        value           uniform 0.00422343759;
    }
    procBoundary3to4
    {
        type            processor;
        value           uniform 0.00459057114;
    }
}


// ************************************************************************* //
