/*--------------------------------*- C++ -*----------------------------------*\
| =========                 |                                                 |
| \\      /  F ield         | OpenFOAM: The Open Source CFD Toolbox           |
|  \\    /   O peration     | Version:  2306                                  |
|   \\  /    A nd           | Website:  www.openfoam.com                      |
|    \\/     M anipulation  |                                                 |
\*---------------------------------------------------------------------------*/
FoamFile
{
    version     2.0;
    format      ascii;
    arch        "LSB;label=32;scalar=64";
    class       volScalarField;
    location    "0.00192";
    object      prefDh_T;
}
// * * * * * * * * * * * * * * * * * * * * * * * * * * * * * * * * * * * * * //

dimensions      [1 1 -3 -1 0 0 0];

internalField   nonuniform List<scalar> 
531
(
-0.000498253956
-0.00049847792
-0.000725751577
-0.000738819881
-0.000601024207
-0.000497412816
-0.000497708337
-0.000725359521
-0.0007396695
-0.000597833924
-0.00048909015
-0.000489357432
-0.000727649198
-0.000738635838
-0.000595830115
-0.000474460103
-0.000475852756
-0.000722476504
-0.000745203165
-0.000605373757
-0.000545031328
-0.000724960101
-0.000744366733
-0.000611741348
-0.00055733746
-0.000726121017
-0.000738313466
-0.000599340454
-0.000475467576
-0.000475938208
-0.0007215257
-0.000731611497
-0.000731828882
-0.000661363696
-0.000571491941
-0.000507659228
-0.000506899812
-0.000416047202
-0.000418669049
-0.000687752227
-0.000737590499
-0.000731302246
-0.000740207246
-0.00073776938
-0.000742645916
-0.000597805847
-0.000530894728
-0.000728254026
-0.000741673108
-0.000595306974
-0.000407032073
-0.000408600112
-0.000728808679
-0.000739644808
-0.000739517671
-0.000606880164
-0.000533700757
-0.000718530506
-0.0007439121
-0.000605056704
-0.000555053786
-0.000714624851
-0.000742180302
-0.000736232954
-0.000598433774
-0.000559693292
-0.000545125142
-0.000518781914
-0.000518067206
-0.000473933275
-0.000507269219
-0.000729016317
-0.000740523421
-0.000740555431
-0.000600876852
-0.000582946009
-0.000686870817
-0.000738641904
-0.000738987862
-0.000554299806
-0.000483743306
-0.000693081707
-0.000731923309
-0.000600546271
-0.000489960615
-0.000490544511
-0.000694725614
-0.000736472051
-0.000600089764
-0.000457810691
-0.000459204288
-0.000698154286
-0.000739656627
-0.000739022451
-0.000599892975
-0.000565764102
-0.000719216548
-0.000742409923
-0.000601967732
-0.000596533935
-0.000494101896
-0.000495376454
-0.000696960584
-0.000741666861
-0.000612485956
-0.000536631483
-0.000714411289
-0.000737347174
-0.000600438831
-0.00049269871
-0.000493647724
-0.000697124256
-0.000736337064
-0.000598888604
-0.000478516553
-0.000480380329
-0.000700167834
-0.00074411013
-0.000598796594
-0.000549288866
-0.00049624777
-0.000496826593
-0.000724940926
-0.000741815565
-0.000733023037
-0.000745610468
-0.000605915505
-0.000502181109
-0.000726006009
-0.000744019148
-0.000597823973
-0.000527569595
-0.000725225103
-0.00073525054
-0.000601287759
-0.000487152664
-0.000488355809
-0.000721281345
-0.00073449998
-0.000601891712
-0.000478856111
-0.000480061879
-0.000724443038
-0.000733891425
-0.000600832195
-0.000458290273
-0.000460322667
-0.000696795059
-0.000735957596
-0.000725061509
-0.000621481718
-0.000485875171
-0.000487510041
-0.000710724555
-0.000741140755
-0.000620367208
-0.000548847252
-0.000724315178
-0.000735693102
-0.000605251531
-0.000500833169
-0.00050112163
-0.000723517216
-0.000732816588
-0.000610528837
-0.000497109414
-0.000498144761
-0.0007202688
-0.000742386312
-0.000616992966
-0.000570600859
-0.000725808722
-0.000742171998
-0.000602823345
-0.000603660799
-0.000492833259
-0.000493893406
-0.000725849354
-0.000734697275
-0.00060024969
-0.000417935196
-0.000420018749
-0.000727807742
-0.000735714497
-0.000736326728
-0.000605394519
-0.000566233215
-0.000723178217
-0.000590055648
-0.000417238113
-0.000593511633
-0.000733416051
-0.000750901071
-0.000743283212
-0.000601510277
-0.000584754882
-0.000733466597
-0.000593619454
-0.000481727878
-0.000686897957
-0.000736460874
-0.000732179332
-0.000597788828
-0.000455900444
-0.000457975471
-0.000696921604
-0.000734324812
-0.000600342377
-0.000411081891
-0.000417767012
-0.000720563764
-0.00073435489
-0.000734247431
-0.000614214127
-0.000578687548
-0.000731907529
-0.000595261365
-0.00048215633
-0.000671467568
-0.000733649857
-0.000732405837
-0.00059939948
-0.000466122177
-0.000467812337
-0.000693104272
-0.0007340922
-0.000598582517
-0.000440209548
-0.000443472598
-0.000688912173
-0.000743479107
-0.000600628497
-0.000501421346
-0.000448742757
-0.000477036306
-0.000733704479
-0.000741456807
-0.000729759779
-0.000744038384
-0.000731078675
-0.000744126924
-0.000625734792
-0.000586057859
-0.000470845296
-0.00047209553
-0.000640710128
-0.000740297149
-0.000598346024
-0.000497049671
-0.000619147888
-0.000726212486
-0.000737191167
-0.000673356781
-0.000458678343
-0.000458787823
-0.000704609477
-0.000600416474
-0.000440868027
-0.000684273475
-0.000734922538
-0.000591639948
-0.000519359166
-0.000657404274
-0.000734002551
-0.000732659035
-0.000617394164
-0.000469492076
-0.000470876167
-0.00067977359
-0.000737127578
-0.000735023235
-0.000606222309
-0.000555354293
-0.00053381849
-0.000521658721
-0.000457219074
-0.000529829201
-0.000737673963
-0.00074840513
-0.000734586756
-0.00074964168
-0.000599599937
-0.000573688414
-0.000744910856
-0.00074655008
-0.000600144291
-0.000581359654
-0.000474645934
-0.000479855447
-0.000729902389
-0.000740281611
-0.000588976043
-0.000519668344
-0.000741542462
-0.000734846236
-0.000599195823
-0.000457230468
-0.00046836437
-0.000723564774
-0.000738959338
-0.000604313461
-0.000518956082
-0.000740768588
-0.000734830814
-0.000599069895
-0.000448560248
-0.000457489236
-0.000704851801
-0.00074069579
-0.000575349758
-0.000519483774
-0.000708696947
-0.000739423086
-0.000736533055
-0.00060788253
-0.000538089111
-0.000730162894
-0.000741200791
-0.000723887012
-0.00059869869
-0.000454621414
-0.00046053974
-0.000706319433
-0.000743775896
-0.000595864231
-0.000521995035
-0.00073164985
-0.000744281675
-0.000605499764
-0.000544617655
-0.000733870026
-0.000742485584
-0.000604498757
-0.00057302495
-0.000472868683
-0.000474853657
-0.000684881992
-0.000740915492
-0.000584880325
-0.000504123706
-0.000703681769
-0.000740597258
-0.000578409841
-0.000508614439
-0.000651610138
-0.000738931594
-0.000733433011
-0.000739945588
-0.00062541829
-0.000605685621
-0.000475732423
-0.000477871416
-0.000735265857
-0.000733738775
-0.000599876752
-0.00042080312
-0.000426924516
-0.00072274675
-0.00074099697
-0.000568612912
-0.000494673513
-0.000724173152
-0.000741946631
-0.000544918492
-0.000515620097
-0.000731729881
-0.00074035712
-0.000734553015
-0.000607401902
-0.000514894084
-0.000733877244
-0.000739369508
-0.000606116487
-0.0005192441
-0.000734105417
-0.000734900703
-0.00059777918
-0.000458430294
-0.000461182852
-0.000730824978
-0.000740046722
-0.000608024279
-0.000516248634
-0.00073182637
-0.000735224566
-0.000598532728
-0.000465910247
-0.000467964826
-0.00073078816
-0.000739340857
-0.000610211223
-0.00051708194
-0.000732082481
-0.000734530302
-0.000597075191
-0.000460497761
-0.000463444846
-0.000727433295
-0.000742838825
-0.000595383767
-0.000522977518
-0.000728167379
-0.000743023499
-0.000596624766
-0.000533255572
-0.000730231942
-0.000741714477
-0.000607535158
-0.000527643037
-0.000731865109
-0.000737336941
-0.000595577889
-0.000460718242
-0.000463382225
-0.000725693956
-0.000744349187
-0.0005862675
-0.00052077861
-0.00072756722
-0.000744613384
-0.000570174889
-0.000540987546
-0.000730297077
-0.000744105837
-0.000741187254
-0.00060238117
-0.000535343861
-0.000731635529
-0.000737544149
-0.000596700092
-0.000490533025
-0.000491643117
-0.000724437212
-0.00074473825
-0.000608964907
-0.000564555058
-0.000728053529
-0.000742616594
-0.000599930474
-0.000603891801
-0.000523425533
-0.000523509916
-0.000725729749
-0.000741040345
-0.000597006484
-0.000581440133
-0.000498200737
-0.000498196957
-0.000730822813
-0.000594888233
-0.000453003152
-0.000728111773
-0.000738707725
-0.000584348845
-0.00049524887
-0.000729163181
-0.000742927107
-0.000594302088
-0.000492115069
-0.000478543406
-0.000587569476
-0.000734289034
-0.000747738504
-0.000736706235
-0.000742698665
-0.000626260105
-0.000499315258
-0.00049310583
-0.000723620113
-0.000736410541
-0.000595199465
-0.000452587294
-0.000493346286
-0.000732257617
-0.000596119502
-0.000434876668
-0.000729062268
-0.00073904501
-0.000556372183
-0.00047646523
-0.000632715614
-0.000737183022
-0.000743996216
-0.000741048559
-0.000593289706
-0.000529038562
-0.000735438303
-0.00073880238
-0.000590080387
-0.000442893645
-0.000484595185
-0.000735405029
-0.000742746783
-0.000743466121
-0.000598083487
-0.000530841121
-0.000442452348
-0.000463793299
-0.000739113974
-0.000739734139
-0.000740406694
-0.000598849586
-0.000520126916
-0.000736560485
-0.000741480749
-0.000586737626
-0.000573004213
-0.000738482521
-0.000740568374
-0.000593178044
-0.000589885648
-0.000519292338
-0.000525385376
-0.000738573728
-0.000739637345
-0.000593897186
-0.000481904046
-0.000510815197
-0.000742406648
-0.000739836813
-0.000594371939
-0.000476775547
-0.000509285994
-0.000744365024
-0.000736117555
-0.000592132223
-0.000443874088
-0.000510026481
-0.000735977319
-0.000742456497
-0.000737085313
)
;

boundaryField
{
    closed
    {
        type            calculated;
        value           nonuniform List<scalar> 0();
    }
    open
    {
        type            calculated;
        value           nonuniform List<scalar> 0();
    }
    sides
    {
        type            empty;
    }
    procBoundary3to2
    {
        type            processor;
        value           uniform -0.000602363561;
    }
    procBoundary3to4
    {
        type            processor;
        value           uniform -0.000596600987;
    }
}


// ************************************************************************* //
