/*--------------------------------*- C++ -*----------------------------------*\
| =========                 |                                                 |
| \\      /  F ield         | OpenFOAM: The Open Source CFD Toolbox           |
|  \\    /   O peration     | Version:  2306                                  |
|   \\  /    A nd           | Website:  www.openfoam.com                      |
|    \\/     M anipulation  |                                                 |
\*---------------------------------------------------------------------------*/
FoamFile
{
    version     2.0;
    format      ascii;
    arch        "LSB;label=32;scalar=64";
    class       volScalarField;
    location    "0.00192";
    object      prefDPV_H2;
}
// * * * * * * * * * * * * * * * * * * * * * * * * * * * * * * * * * * * * * //

dimensions      [1 -1 -1 0 0 0 0];

internalField   nonuniform List<scalar> 
531
(
-3.0510559e-05
-3.0512649e-05
-3.14435226e-05
-3.15102399e-05
-3.0954294e-05
-3.05072492e-05
-3.05100204e-05
-3.14417351e-05
-3.15134119e-05
-3.09369577e-05
-3.04752087e-05
-3.04772578e-05
-3.14516266e-05
-3.15086396e-05
-3.09290297e-05
-3.04173759e-05
-3.04262723e-05
-3.14286174e-05
-3.1536136e-05
-3.09276961e-05
-3.069525e-05
-3.14380667e-05
-3.1534456e-05
-3.09520229e-05
-3.07418912e-05
-3.1443722e-05
-3.15088305e-05
-3.09417193e-05
-3.04209438e-05
-3.04240865e-05
-3.14217922e-05
-3.1479913e-05
-3.14797425e-05
-3.11956464e-05
-3.07982993e-05
-3.05447175e-05
-3.05451779e-05
-3.01903092e-05
-3.02029011e-05
-3.12936465e-05
-3.15013467e-05
-3.14719381e-05
-3.15129014e-05
-3.15062237e-05
-3.15252777e-05
-3.09189221e-05
-3.06398742e-05
-3.14498726e-05
-3.15197173e-05
-3.09135363e-05
-3.01566618e-05
-3.01639982e-05
-3.14504242e-05
-3.15149303e-05
-3.15116594e-05
-3.09402612e-05
-3.06499805e-05
-3.14075923e-05
-3.15318854e-05
-3.09248682e-05
-3.0734196e-05
-3.13929534e-05
-3.15281293e-05
-3.15021386e-05
-3.0945297e-05
-3.07515969e-05
-3.0697532e-05
-3.05920126e-05
-3.05916665e-05
-3.04165964e-05
-3.05468038e-05
-3.14572988e-05
-3.15224481e-05
-3.15217333e-05
-3.0931261e-05
-3.08430583e-05
-3.12905168e-05
-3.1511795e-05
-3.15077704e-05
-3.07310826e-05
-3.04521938e-05
-3.13134187e-05
-3.14804198e-05
-3.09471016e-05
-3.04758133e-05
-3.04813816e-05
-3.13197186e-05
-3.14987207e-05
-3.09465492e-05
-3.03526962e-05
-3.03603682e-05
-3.13320928e-05
-3.15158525e-05
-3.15117764e-05
-3.09291388e-05
-3.07759673e-05
-3.14105839e-05
-3.152861e-05
-3.09530436e-05
-3.08969143e-05
-3.0492488e-05
-3.05016401e-05
-3.1327912e-05
-3.15219345e-05
-3.09580773e-05
-3.06612703e-05
-3.1392317e-05
-3.15045779e-05
-3.09462667e-05
-3.0487355e-05
-3.04938039e-05
-3.13285851e-05
-3.14989883e-05
-3.09412142e-05
-3.04323359e-05
-3.04438921e-05
-3.13398187e-05
-3.15321247e-05
-3.09331863e-05
-3.07124257e-05
-3.05017616e-05
-3.05062509e-05
-3.14385601e-05
-3.152344e-05
-3.14853232e-05
-3.1538819e-05
-3.0938289e-05
-3.05296096e-05
-3.14360804e-05
-3.15315175e-05
-3.08959502e-05
-3.06257087e-05
-3.14360544e-05
-3.14960355e-05
-3.09482558e-05
-3.04644202e-05
-3.04721712e-05
-3.14193906e-05
-3.14919538e-05
-3.09514885e-05
-3.04326711e-05
-3.04398224e-05
-3.1432526e-05
-3.1488723e-05
-3.0948077e-05
-3.03531269e-05
-3.0364158e-05
-3.13272827e-05
-3.1499004e-05
-3.14522683e-05
-3.10414165e-05
-3.04586549e-05
-3.04704514e-05
-3.13787752e-05
-3.1520295e-05
-3.09831574e-05
-3.0708215e-05
-3.14340984e-05
-3.14989476e-05
-3.09699042e-05
-3.05183713e-05
-3.05211151e-05
-3.14287977e-05
-3.14858817e-05
-3.09952673e-05
-3.05033076e-05
-3.05114598e-05
-3.14153523e-05
-3.15264453e-05
-3.09738947e-05
-3.07946803e-05
-3.144169e-05
-3.15285479e-05
-3.09533713e-05
-3.09233307e-05
-3.04864474e-05
-3.04939092e-05
-3.14391689e-05
-3.14914224e-05
-3.09364345e-05
-3.01972482e-05
-3.02070523e-05
-3.1443267e-05
-3.14983705e-05
-3.14991505e-05
-3.0926214e-05
-3.07776247e-05
-3.14254516e-05
-3.09099322e-05
-3.01943139e-05
-3.09333661e-05
-3.14828327e-05
-3.15616547e-05
-3.15300931e-05
-3.0926616e-05
-3.08499819e-05
-3.14732423e-05
-3.09110032e-05
-3.04453323e-05
-3.12904152e-05
-3.15031129e-05
-3.14818529e-05
-3.09333604e-05
-3.03441348e-05
-3.03549598e-05
-3.13278114e-05
-3.14885963e-05
-3.0935239e-05
-3.01705709e-05
-3.01984062e-05
-3.14146318e-05
-3.14931857e-05
-3.14911435e-05
-3.09602374e-05
-3.08241094e-05
-3.14668343e-05
-3.09164238e-05
-3.04456743e-05
-3.12332211e-05
-3.1491757e-05
-3.14836393e-05
-3.09394679e-05
-3.03834939e-05
-3.0392618e-05
-3.13137823e-05
-3.14884741e-05
-3.09291994e-05
-3.02835525e-05
-3.02999811e-05
-3.12982023e-05
-3.15273803e-05
-3.09302702e-05
-3.05253911e-05
-3.03181273e-05
-3.04295491e-05
-3.14765645e-05
-3.15223294e-05
-3.14688136e-05
-3.1533706e-05
-3.14792657e-05
-3.15359932e-05
-3.10580874e-05
-3.08571292e-05
-3.04040536e-05
-3.04116436e-05
-3.11175421e-05
-3.15142499e-05
-3.0908251e-05
-3.05052719e-05
-3.10347187e-05
-3.14559963e-05
-3.15017496e-05
-3.12409307e-05
-3.03556939e-05
-3.03561275e-05
-3.1356196e-05
-3.09254411e-05
-3.02858477e-05
-3.12808755e-05
-3.1492732e-05
-3.08753783e-05
-3.05920809e-05
-3.11806126e-05
-3.1492289e-05
-3.14843602e-05
-3.10244219e-05
-3.03977669e-05
-3.04048498e-05
-3.1264204e-05
-3.15050247e-05
-3.14951483e-05
-3.09779004e-05
-3.0736131e-05
-3.06495151e-05
-3.06061798e-05
-3.03510637e-05
-3.06377044e-05
-3.14966082e-05
-3.15530527e-05
-3.14931895e-05
-3.15587711e-05
-3.09326953e-05
-3.08103981e-05
-3.15260326e-05
-3.15465199e-05
-3.09364625e-05
-3.08372461e-05
-3.04162528e-05
-3.04409454e-05
-3.14568383e-05
-3.15161897e-05
-3.08597234e-05
-3.05940907e-05
-3.15094076e-05
-3.14938083e-05
-3.093207e-05
-3.03483039e-05
-3.03956127e-05
-3.14303501e-05
-3.15104376e-05
-3.09191131e-05
-3.05909674e-05
-3.15063807e-05
-3.14934585e-05
-3.09322328e-05
-3.03154728e-05
-3.03538035e-05
-3.13571643e-05
-3.15172773e-05
-3.08081982e-05
-3.05948672e-05
-3.13709139e-05
-3.15159688e-05
-3.14999867e-05
-3.09367083e-05
-3.06672174e-05
-3.14555676e-05
-3.1524017e-05
-3.14461087e-05
-3.09450292e-05
-3.03382899e-05
-3.03669324e-05
-3.13626625e-05
-3.15301071e-05
-3.08862768e-05
-3.06059088e-05
-3.1465993e-05
-3.15343696e-05
-3.09235664e-05
-3.06936538e-05
-3.14773293e-05
-3.15285251e-05
-3.09452688e-05
-3.0803707e-05
-3.04099385e-05
-3.04216935e-05
-3.12832416e-05
-3.15179486e-05
-3.08452471e-05
-3.05351154e-05
-3.13528094e-05
-3.15176773e-05
-3.08218541e-05
-3.05522694e-05
-3.11588063e-05
-3.15110448e-05
-3.14850103e-05
-3.15178888e-05
-3.10562583e-05
-3.09314686e-05
-3.0419435e-05
-3.04314555e-05
-3.1482353e-05
-3.14875007e-05
-3.09296229e-05
-3.02074094e-05
-3.0235306e-05
-3.14262355e-05
-3.15175369e-05
-3.07795938e-05
-3.04988213e-05
-3.14311025e-05
-3.15235222e-05
-3.06881892e-05
-3.05804996e-05
-3.14612574e-05
-3.15199466e-05
-3.14923762e-05
-3.09360487e-05
-3.05759532e-05
-3.14758532e-05
-3.15132719e-05
-3.09291073e-05
-3.05923364e-05
-3.14777773e-05
-3.14940817e-05
-3.09291306e-05
-3.03536473e-05
-3.03681352e-05
-3.14632154e-05
-3.15148801e-05
-3.09354546e-05
-3.05808787e-05
-3.14686876e-05
-3.14955945e-05
-3.09322508e-05
-3.03828208e-05
-3.03942e-05
-3.1463546e-05
-3.15121861e-05
-3.09447552e-05
-3.05837906e-05
-3.14700996e-05
-3.14926502e-05
-3.09275098e-05
-3.03615671e-05
-3.03776968e-05
-3.144923e-05
-3.15267926e-05
-3.08857989e-05
-3.06093936e-05
-3.14526091e-05
-3.15293096e-05
-3.08918909e-05
-3.06492757e-05
-3.14618431e-05
-3.15239605e-05
-3.0936076e-05
-3.0626049e-05
-3.14696828e-05
-3.15044435e-05
-3.09224527e-05
-3.03635353e-05
-3.03782628e-05
-3.1441726e-05
-3.15330552e-05
-3.08520303e-05
-3.06016921e-05
-3.14492175e-05
-3.15361935e-05
-3.07903009e-05
-3.06806891e-05
-3.14594732e-05
-3.15365808e-05
-3.15232198e-05
-3.09241616e-05
-3.0656059e-05
-3.14694203e-05
-3.15062655e-05
-3.09357051e-05
-3.04802938e-05
-3.0488715e-05
-3.14384195e-05
-3.15366e-05
-3.09447922e-05
-3.07721089e-05
-3.14557293e-05
-3.15314677e-05
-3.09479891e-05
-3.09274723e-05
-3.06085376e-05
-3.06115895e-05
-3.14460417e-05
-3.15228346e-05
-3.09242039e-05
-3.08363157e-05
-3.05113428e-05
-3.05118283e-05
-3.14671024e-05
-3.09097864e-05
-3.03355094e-05
-3.1454019e-05
-3.15088823e-05
-3.08509986e-05
-3.05001988e-05
-3.14597156e-05
-3.15269943e-05
-3.09067319e-05
-3.04910655e-05
-3.04368842e-05
-3.08867895e-05
-3.14871779e-05
-3.15504218e-05
-3.15026389e-05
-3.15281448e-05
-3.10602842e-05
-3.05168843e-05
-3.04909139e-05
-3.14372335e-05
-3.14998426e-05
-3.09195045e-05
-3.03333567e-05
-3.04938036e-05
-3.14731572e-05
-3.09050405e-05
-3.02652034e-05
-3.1458872e-05
-3.15097456e-05
-3.07426293e-05
-3.04271938e-05
-3.10871725e-05
-3.15022322e-05
-3.1532496e-05
-3.15203758e-05
-3.08989975e-05
-3.06314605e-05
-3.14912684e-05
-3.1510822e-05
-3.0897673e-05
-3.02961522e-05
-3.04610091e-05
-3.14871287e-05
-3.15306428e-05
-3.15298691e-05
-3.09178378e-05
-3.0637003e-05
-3.02950514e-05
-3.03769267e-05
-3.14978551e-05
-3.15173094e-05
-3.1512041e-05
-3.09139079e-05
-3.05962012e-05
-3.14971496e-05
-3.15238443e-05
-3.08615077e-05
-3.0803694e-05
-3.15066133e-05
-3.15226344e-05
-3.09133262e-05
-3.08686571e-05
-3.05956609e-05
-3.06170844e-05
-3.15070174e-05
-3.15147515e-05
-3.0908887e-05
-3.04485936e-05
-3.05609949e-05
-3.15242893e-05
-3.15149871e-05
-3.09112782e-05
-3.04288587e-05
-3.05544806e-05
-3.15324409e-05
-3.14992359e-05
-3.09024098e-05
-3.029805e-05
-3.05598002e-05
-3.14894187e-05
-3.15294938e-05
-3.15003759e-05
)
;

boundaryField
{
    closed
    {
        type            calculated;
        value           nonuniform List<scalar> 0();
    }
    open
    {
        type            calculated;
        value           nonuniform List<scalar> 0();
    }
    sides
    {
        type            empty;
    }
    procBoundary3to2
    {
        type            processor;
        value           uniform -3.09603944e-05;
    }
    procBoundary3to4
    {
        type            processor;
        value           uniform -3.09349336e-05;
    }
}


// ************************************************************************* //
