/*--------------------------------*- C++ -*----------------------------------*\
| =========                 |                                                 |
| \\      /  F ield         | OpenFOAM: The Open Source CFD Toolbox           |
|  \\    /   O peration     | Version:  2306                                  |
|   \\  /    A nd           | Website:  www.openfoam.com                      |
|    \\/     M anipulation  |                                                 |
\*---------------------------------------------------------------------------*/
FoamFile
{
    version     2.0;
    format      ascii;
    arch        "LSB;label=32;scalar=64";
    class       volScalarField;
    location    "0.00192";
    object      sourcePV;
}
// * * * * * * * * * * * * * * * * * * * * * * * * * * * * * * * * * * * * * //

dimensions      [1 -3 -1 0 0 0 0];

internalField   nonuniform List<scalar> 
531
(
0.164735099
0.164380083
0.00332706697
0.00547145819
0.0767531813
0.165016449
0.164545432
0.00329291905
0.00544860936
0.085481593
0.167639062
0.1673353
0.00341340082
0.00535048307
0.0873199469
0.172515132
0.171411673
0.00304614014
0.0055874877
0.129097226
0.148546511
0.00298930913
0.00580756139
0.127124876
0.144832739
0.00314371117
0.00555123962
0.0856273085
0.17225458
0.171871368
0.00259890612
0.00520025114
0.00505837716
0.0262739385
0.139618786
0.162249508
0.161680877
0.190703081
0.189827293
0.0168729959
0.0049079918
0.00425568307
0.00508468186
0.00548684202
0.0054733127
0.109715733
0.153383508
0.00280834876
0.00523188402
0.10577125
0.193437296
0.192946811
0.00256578722
0.00567060449
0.00528880962
0.121983747
0.152692271
0.00229203852
0.00569940468
0.129811387
0.145201513
0.00475608
0.00611330029
0.00575391731
0.0776151948
0.143863366
0.147889193
0.157611708
0.157163816
0.172459279
0.16151238
0.00345196013
0.00622325598
0.00610993244
0.106587571
0.135678711
0.0166252575
0.00578027216
0.00503760201
0.145514595
0.169789572
0.0142734578
0.00510062799
0.0837294726
0.167919014
0.167057152
0.0126725144
0.00515515978
0.0825623629
0.177780565
0.177010881
0.0123354204
0.00579029956
0.00557329899
0.105032368
0.141565651
0.00229703909
0.00605645718
0.0820088563
0.130690882
0.166486718
0.16514592
0.0119653067
0.00554227366
0.123049019
0.151752784
0.00437033057
0.00548869768
0.084352566
0.166869501
0.165969496
0.011640409
0.00526573202
0.0844051426
0.171366065
0.169929796
0.0103679764
0.0056254533
0.0945465827
0.146918966
0.165603456
0.164913584
0.0030723603
0.00566906672
0.00517969222
0.0057372159
0.120228491
0.162525572
0.00208325144
0.00559093224
0.132519266
0.154845548
0.00253944345
0.00544766003
0.0853292897
0.168896837
0.167914337
0.00238757361
0.00529237909
0.0836799428
0.171426682
0.170603508
0.00247599326
0.00517703406
0.0836637536
0.177812056
0.176739691
0.012103584
0.0054734521
0.00495025044
0.0526858752
0.169439948
0.167854109
0.00580991475
0.00560086306
0.124540936
0.147872554
0.00278233866
0.00560814843
0.0742137346
0.164394501
0.16394191
0.00246736442
0.00536851897
0.0644544134
0.165705839
0.164463787
0.0023845458
0.00577406803
0.12174253
0.139973283
0.00302770287
0.00617429957
0.0851456902
0.128782884
0.16711041
0.166079686
0.00263414023
0.00511156877
0.0965806272
0.190136121
0.189456168
0.00209031983
0.00551766824
0.00529376162
0.129686244
0.141466252
0.0021702825
0.0878290209
0.190348548
0.0736206845
0.00461690566
0.00602835624
0.00579187497
0.116102962
0.135109167
0.00321323751
0.101648671
0.170251956
0.0176042388
0.00576462125
0.00515929969
0.0899463453
0.178520911
0.177500191
0.0118197174
0.00492254307
0.0986312758
0.192198854
0.19014675
0.00278811249
0.005539871
0.00531766411
0.126839018
0.137976962
0.00317688948
0.101596205
0.170354991
0.0240197466
0.00572308245
0.00528258983
0.0888015868
0.175377008
0.174451634
0.013141069
0.0050329964
0.0990086038
0.183344841
0.181937858
0.0151974094
0.00531142259
0.106831194
0.163099593
0.180549509
0.17129147
0.00355995698
0.0057098293
0.00467266651
0.00588108594
0.00539961115
0.00614516327
0.0493271392
0.13388124
0.173542626
0.172640214
0.0397028504
0.00522325841
0.127402614
0.165259622
0.0532536177
0.0048372861
0.00518294605
0.0195632827
0.177557274
0.177521818
0.00852337124
0.112648361
0.183162503
0.0178393457
0.00517016855
0.133303178
0.158005447
0.030589157
0.00560667947
0.0052445651
0.0566501708
0.174141309
0.173415761
0.0196893828
0.00566812236
0.00544860013
0.0686354153
0.144842511
0.152925798
0.155802977
0.177877081
0.153140619
0.00419156456
0.00618715697
0.00541540825
0.00630690803
0.0987847953
0.137571993
0.00432721408
0.00628573299
0.0960731171
0.13608215
0.172759748
0.170290101
0.00287365588
0.00550011061
0.136100083
0.157690999
0.00384135766
0.00536014554
0.0978303499
0.178222312
0.174130001
0.0026685301
0.00542319868
0.131120641
0.158017958
0.00384428874
0.00532034452
0.0970468747
0.180812995
0.177544897
0.00816853515
0.00542575986
0.140099673
0.1573456
0.00799275699
0.00593087907
0.00529717499
0.128540453
0.151184476
0.00253380202
0.00607650186
0.0047398045
0.0789355563
0.179014782
0.176354594
0.00726699025
0.00552795873
0.133907606
0.156153222
0.003202718
0.0058414022
0.130786123
0.148680791
0.00357607965
0.0060046495
0.103643578
0.139300444
0.173225455
0.171875468
0.0170570638
0.00539928433
0.136950401
0.162407517
0.00879590443
0.00553428171
0.13848316
0.161011709
0.0336855843
0.00552181896
0.00491229685
0.00591315196
0.0498104125
0.127992936
0.172579381
0.171278316
0.00350574059
0.00509102397
0.104283788
0.189282974
0.18722194
0.00254011793
0.00529791206
0.143095326
0.165396616
0.00242362372
0.00560968194
0.150585756
0.158441426
0.00245815249
0.00597331697
0.00532182546
0.12823456
0.159142394
0.00335757048
0.0055914639
0.129412233
0.157857811
0.00350634885
0.00536828742
0.0955336064
0.177771342
0.176363821
0.00327303856
0.00544674321
0.129179679
0.158788198
0.00349318614
0.00540111151
0.0946460849
0.175422291
0.174233945
0.00334229005
0.0054576085
0.128146783
0.158601509
0.00355116687
0.00537183348
0.0946225162
0.177141856
0.175505602
0.00318953492
0.00557791945
0.133570664
0.155923538
0.00325865077
0.00582404378
0.132697617
0.152531765
0.00341419425
0.0057947045
0.128380122
0.154805666
0.00361500289
0.00547576093
0.0948497658
0.176928011
0.175382344
0.00309922163
0.00562447534
0.135999956
0.15640961
0.00311050968
0.00591302784
0.141062548
0.149526499
0.00303127924
0.00623586877
0.00597558887
0.123732864
0.152240671
0.00370788524
0.00561397042
0.0824668761
0.16728385
0.165992963
0.00334148915
0.00590170148
0.125410412
0.141677063
0.00377402268
0.00633300154
0.0801350567
0.12616486
0.156503625
0.155710466
0.00370247486
0.00600152467
0.0987832766
0.13651265
0.164524173
0.16440752
0.00383600036
0.10906294
0.179099872
0.00349481856
0.0053449834
0.134265034
0.16540907
0.00371675648
0.00555797788
0.110630553
0.165710764
0.170501901
0.107594276
0.00474398052
0.00618412353
0.005568294
0.0058389549
0.0488729787
0.16387061
0.166320103
0.00363649865
0.00534377651
0.0971433444
0.179302323
0.165797968
0.00389195264
0.121465663
0.184805983
0.00365278284
0.00528101529
0.143619432
0.171502387
0.0444778248
0.00525424023
0.00573797305
0.00566165309
0.116792728
0.154349181
0.00468275029
0.00556094995
0.103996162
0.182305695
0.168387316
0.00411465482
0.00615295718
0.00566267182
0.112524535
0.154174053
0.182377181
0.175744718
0.00355315997
0.00594714651
0.0048543999
0.121689427
0.157452683
0.00488786703
0.00590395622
0.132977077
0.139283339
0.00515317454
0.00622461541
0.0965715965
0.133855832
0.156976705
0.155603047
0.00515950943
0.0056501198
0.105795691
0.169689861
0.160245462
0.00546649641
0.00557498385
0.104650141
0.171312396
0.160893585
0.00553109834
0.0054188896
0.10673028
0.182189928
0.160007482
0.00411953343
0.00615143551
0.00504990002
)
;

boundaryField
{
    closed
    {
        type            calculated;
        value           nonuniform List<scalar> 0();
    }
    open
    {
        type            calculated;
        value           nonuniform List<scalar> 0();
    }
    sides
    {
        type            empty;
    }
    procBoundary3to2
    {
        type            processor;
        value           uniform 0;
    }
    procBoundary3to4
    {
        type            processor;
        value           uniform 0;
    }
}


// ************************************************************************* //
