/*--------------------------------*- C++ -*----------------------------------*\
| =========                 |                                                 |
| \\      /  F ield         | OpenFOAM: The Open Source CFD Toolbox           |
|  \\    /   O peration     | Version:  2306                                  |
|   \\  /    A nd           | Website:  www.openfoam.com                      |
|    \\/     M anipulation  |                                                 |
\*---------------------------------------------------------------------------*/
FoamFile
{
    version     2.0;
    format      ascii;
    arch        "LSB;label=32;scalar=64";
    class       volScalarField;
    location    "0.00116";
    object      p;
}
// * * * * * * * * * * * * * * * * * * * * * * * * * * * * * * * * * * * * * //

dimensions      [1 -1 -2 0 0 0 0];

internalField   nonuniform List<scalar> 
531
(
101884.889
101894.983
101903.864
101912.352
101920.193
101927.57
101934.218
101939.774
101945.003
101949.465
101953.246
101955.961
101957.706
101958.124
101957.479
101955.591
101952.625
101948.175
101942.993
101937.767
101932.937
101927.506
101923.089
101919.593
101916.272
101912.914
101909.845
101906.409
101902.443
101898.711
101894.83
101891.329
101888.861
101889.012
101884.292
101883.027
101881.921
101880.114
101877.133
101873.571
101870.096
101866.554
101862.34
101856.701
101849.828
101843.253
101837.203
101830.885
101822.85
101813.088
101802.049
101790.635
101779.053
101766.339
101753.074
101739.697
101726.598
101714.038
101700.156
101686.552
101673.21
101660.95
101649.479
101638.531
101628.134
101618.494
101608.485
101598.906
101589.946
101581.848
101574.479
101568.042
101562.313
101556.935
101552.01
101547.8
101544.393
101541.866
101539.577
101537.801
101536.672
101536.271
101536.642
101537.565
101538.971
101540.864
101543.348
101546.391
101550.376
101554.227
101558.215
101562.493
101567.121
101572.138
101576.892
101581.482
101586.139
101590.903
101595.833
101600.305
101604.421
101608.352
101612.03
101615.54
101618.381
101620.53
101622.124
101624.558
101628.695
101633.308
101637.246
101640.307
101642.765
101644.807
101646.585
101648.295
101649.956
101651.603
101653.111
101654.82
101656.48
101658.013
101659.419
101660.789
101661.931
101662.876
101663.614
101664.229
101664.717
101664.934
101665.111
101664.936
101664.458
101663.371
101661.834
101660.282
101659.338
101658.787
101658.3
101657.715
101656.738
101656.187
101656.393
101656.954
101657.345
101657.719
101658.174
101658.363
101658.244
101657.808
101657.203
101656.398
101655.419
101654.476
101653.521
101652.675
101651.741
101650.709
101649.717
101648.709
101647.739
101646.626
101645.422
101644.277
101643.185
101642.165
101641.002
101639.772
101638.295
101636.673
101634.921
101633.128
101631.263
101629.593
101628.028
101626.256
101624.465
101626.029
101623.746
101622.117
101621.005
101619.869
101618.784
101617.322
101615.858
101614.267
101612.423
101610.596
101608.259
101605.936
101603.518
101600.872
101597.592
101596.845
101594.965
101592.381
101589.942
101586.844
101584.069
101581.101
101577.694
101574.183
101569.788
101565.352
101560.841
101556.287
101551.908
101546.617
101541.245
101535.894
101530.841
101524.87
101518.964
101513.062
101507.409
101502.246
101496.323
101490.631
101485.685
101481.183
101476.757
101472.366
101468.387
101464.867
101461.865
101459.039
101456.422
101454.073
101452.19
101450.679
101449.786
101448.509
101447.806
101447.555
101447.658
101448.222
101449.208
101450.604
101452.287
101454.319
101456.649
101459.316
101462.251
101465.251
101468.539
101472.432
101476.513
101481.137
101485.755
101490.325
101495.341
101500.779
101506.505
101511.748
101517.296
101523.372
101529.536
101535.874
101542.489
101549.504
101556.241
101562.563
101568.773
101575.017
101581.022
101586.66
101591.583
101596.557
101601.481
101606.279
101610.756
101615.221
101619.4
101623.254
101626.609
101629.499
101632.005
101634.332
101636.005
101637.41
101638.457
101639.254
101639.925
101640.313
101640.649
101640.857
101641.08
101641.408
101641.693
101641.967
101642.109
101642.16
101642.085
101641.821
101641.272
101640.516
101639.608
101638.615
101637.449
101635.982
101634.323
101632.508
101630.649
101628.574
101625.894
101623.02
101620.119
101616.917
101613.257
101609.284
101605.058
101600.968
101596.636
101591.767
101586.577
101581.113
101575.898
101570.631
101564.137
101557.764
101551.08
101544.439
101537.045
101529.534
101521.068
101513.72
101506.768
101499.117
101491.178
101482.94
101475.187
101467.635
101459.871
101452.054
101443.957
101436.308
101428.929
101421.654
101414.655
101407.909
101401.394
101394.989
101388.657
101382.416
101376.395
101370.604
101365.07
101360.241
101355.781
101351.538
101347.639
101343.943
101340.886
101338.17
101335.921
101333.9
101332.366
101331.286
101330.734
101330.531
101330.772
101331.262
101332.147
101333.339
101334.765
101336.465
101338.24
101340.359
101342.847
101345.573
101348.206
101351.053
101354.014
101357.055
101360.083
101362.967
101366.057
101369.55
101373.302
101376.952
101380.923
101385.082
101389.371
101393.497
101397.342
101401.244
101405.403
101409.533
101413.247
101416.999
101420.673
101424.31
101427.726
101430.847
101434.016
101437.413
101440.808
101443.905
101447.162
101450.839
101454.7
101458.363
101462.209
101466.427
101470.646
101474.435
101478.202
101482.118
101485.975
101489.485
101492.582
101495.613
101498.65
101501.463
101503.873
101506.245
101508.58
101510.711
101512.54
101514.33
101515.946
101517.398
101518.602
101519.582
101520.516
101521.197
101521.627
101521.849
101521.943
101521.815
101521.435
101520.852
101520.077
101519.14
101517.957
101516.534
101514.896
101513.029
101511.146
101509.137
101506.947
101504.544
101502.151
101499.976
101496.817
101494.07
101491.215
101488.387
101485.348
101482.168
101479.164
101476.143
101472.944
101469.618
101466.551
101463.518
101460.332
101457.062
101453.786
101450.71
101447.785
101444.702
101441.584
101438.807
101436.179
101433.524
101431.126
101429.168
101427.475
101425.854
101424.436
101423.291
101422.342
101421.475
101420.77
101420.272
101419.964
101419.752
101419.737
101419.754
101419.794
101419.989
101420.238
101420.541
101420.879
101421.157
101421.551
101421.996
101422.511
101423.118
101423.635
101424.259
101424.875
101425.436
101425.92
101426.319
101426.645
101426.868
101426.965
101427.09
101427.176
101427.261
101427.379
101427.453
101427.618
101427.787
101427.976
101428.195
101428.35
101428.559
101428.744
101428.929
101429.123
101429.249
101429.403
101429.516
101429.62
101429.723
101429.778
101429.858
101429.909
101429.972
101430.061
101430.151
101430.286
101430.419
101430.528
101430.622
101430.771
101430.878
101431.069
)
;

boundaryField
{
    closed
    {
        type            zeroGradient;
    }
    open
    {
        type            waveTransmissive;
        gamma           1.25;
        fieldInf        101325;
        lInf            1;
        value           nonuniform List<scalar> 0();
    }
    sides
    {
        type            empty;
    }
    procBoundary3to2
    {
        type            processor;
        value           uniform 101874.106;
    }
    procBoundary3to4
    {
        type            processor;
        value           uniform 101431.315;
    }
}


// ************************************************************************* //
