/*--------------------------------*- C++ -*----------------------------------*\
| =========                 |                                                 |
| \\      /  F ield         | OpenFOAM: The Open Source CFD Toolbox           |
|  \\    /   O peration     | Version:  2306                                  |
|   \\  /    A nd           | Website:  www.openfoam.com                      |
|    \\/     M anipulation  |                                                 |
\*---------------------------------------------------------------------------*/
FoamFile
{
    version     2.0;
    format      ascii;
    arch        "LSB;label=32;scalar=64";
    class       volScalarField;
    location    "0.00116";
    object      prefDZ_H;
}
// * * * * * * * * * * * * * * * * * * * * * * * * * * * * * * * * * * * * * //

dimensions      [1 -1 -1 0 0 0 0];

internalField   nonuniform List<scalar> 
531
(
0.000107822734
0.000109930407
0.000110367955
0.00010768693
0.000106099505
0.000107805349
0.00010995012
0.000110396785
0.000107649966
0.000106046547
0.000107671795
0.000110034426
0.000108242436
0.000107410029
0.000108055101
0.000110251977
0.00010794098
0.000107252766
0.000107858472
0.000110236474
0.000109354875
0.000107271525
0.000106099144
0.000107767985
0.000110129797
0.000110274949
0.000107632069
0.000105662533
0.000107563287
0.00010986904
0.000110488959
0.000110222044
0.000110472758
0.000110388298
0.000107733215
0.000106747156
0.000106882419
0.000106734029
0.000106294523
0.000107776573
0.00011020532
0.000110433575
0.000107672009
0.0001060003
0.000107679669
0.000110014537
0.00011044027
0.000108647264
0.000106908843
0.000106372999
0.000108163308
0.000110277001
0.000107979951
0.000107169218
0.000107732603
0.000110300503
0.000110525281
0.000107652127
0.000106453616
0.000106293607
0.000107517502
0.000110110683
0.000110441175
0.000109979581
0.000110426969
0.000109457752
0.000107519106
0.000106066383
0.000106174573
0.000107864883
0.000110281112
0.0001102652
0.000106977505
0.000105863221
0.000107815814
0.000110180698
0.00011030435
0.000107015528
0.000105911081
0.000107867581
0.000110169538
0.00011022768
0.000106959022
0.000105924717
0.000107894074
0.000110167731
0.000110175475
0.000106948454
0.000105952331
0.000107884436
0.000110179119
0.000110232566
0.000107059697
0.000106006057
0.000107832924
0.000110205059
0.000110340503
0.000107352281
0.000106086722
0.000107759825
0.000110242013
0.00011040362
0.000107698648
0.000106134462
0.000107734952
0.000110290535
0.00011040681
0.000107779174
0.00010614897
0.000107739055
0.000110361265
0.000110358849
0.000107761972
0.000106050355
0.000107704196
0.00010994869
0.000110433202
0.000109871356
0.000107515039
0.000106408485
0.000106556326
0.000107846335
0.00011040257
0.000110343978
0.000107763437
0.000106103815
0.000107744916
0.000110353359
0.00011046578
0.000107761801
0.000107596555
0.000110388519
0.000110300596
0.000107778166
0.000106133191
0.000107747269
0.000110406281
0.000110396421
0.00010775062
0.000106182039
0.000107733949
0.000110392707
0.000110509344
0.000107824713
0.000107685823
0.000110455591
0.000110375709
0.000107756485
0.00010625738
0.000107721158
0.000110416959
0.000110459153
0.000107789168
0.000106323741
0.000107736138
0.000110420828
0.000110456497
0.000107782964
0.000106390125
0.000107736983
0.000110409308
0.000110435395
0.000107773444
0.000106390506
0.000107722643
0.000110343115
0.000110474987
0.000107564358
0.000106729189
0.000106738946
0.000107777085
0.000110398944
0.000110449353
0.000107756984
0.000107786887
0.000110428736
0.000110440536
0.000107558948
0.00010629875
0.000107730557
0.000110326526
0.000110410059
0.000107658249
0.000106279374
0.000107748871
0.000110320033
0.000110401542
0.000107570498
0.00010621793
0.000107751371
0.000110301545
0.000110413734
0.000107786145
0.000107844976
0.000110375442
0.000110398018
0.000107194208
0.000106105757
0.000107738353
0.000110254845
0.000110383662
0.000107102041
0.000106054712
0.00010776753
0.000110238948
0.000110396707
0.000106816461
0.000106038824
0.00010785697
0.000110200943
0.000109077448
0.00010736048
0.000107887574
0.00011022666
0.000110343288
0.000106019954
0.000105832348
0.000109278411
0.000110160091
0.000107983098
0.000106328653
0.000106515566
0.000108534251
0.000110257681
0.000108109836
0.000106891801
0.000107852743
0.00011030428
0.00011010069
0.000110276968
0.000109615258
0.000107105623
0.000106366118
0.00010691889
0.000106752009
0.000106806519
0.000106437855
0.00010788442
0.000110050799
0.000110347742
0.000110199335
0.000107221
0.000106138725
0.000108017962
0.000110158498
0.000109235001
0.000106798258
0.000106145064
0.000107837855
0.000110265802
0.000109882027
0.000107202087
0.000107888888
0.000110367802
0.000110275522
0.000107141382
0.000107899373
0.000110359572
0.000108813694
0.000107006256
0.00010778482
0.000110302353
0.000108169317
0.000106124544
0.000106188689
0.000108703627
0.000110315408
0.000107900185
0.0001071039
0.000110146047
0.000110214166
0.000107815773
0.000105795771
0.000106568137
0.000110279272
0.000110349884
0.000107738806
0.00010745618
0.000110429805
0.000110268906
0.000107778116
0.000105958557
0.000106898237
0.000110441347
0.000110227861
0.000107756789
0.000105959636
0.000106892343
0.000110380847
0.000110316029
0.000107673723
0.000107717623
0.000110471334
0.000110272003
0.000107778029
0.00010611052
0.000107097681
0.000110440522
0.000110224225
0.000107748278
0.000106039182
0.0001070421
0.00011039064
0.000110295488
0.000107704893
0.000107825345
0.000110480811
0.000110268843
0.000107776381
0.000106149702
0.000107174834
0.000110440188
0.000110232058
0.000107742501
0.000106095517
0.000107090792
0.000110406168
0.000110302933
0.000107766793
0.000107827535
0.000110506305
0.00011028961
0.000107756788
0.000106252906
0.000107248619
0.000110446599
0.000110279219
0.000107752054
0.000106265202
0.000107267143
0.000110453031
0.000110289126
0.000107726595
0.000106393376
0.000107237086
0.000110445066
0.000110402553
0.000107745542
0.000107753121
0.000110510104
0.000110397795
0.000107768786
0.000107317589
0.000107343579
0.000107203389
0.000106568893
0.000106985537
0.000110441925
0.000110296765
0.000107730061
0.000106390884
0.000106991228
0.000110366759
0.000110453976
0.000107785253
0.000107532111
0.000110396046
0.000110434915
0.000107542505
0.000107482227
0.000110392345
0.000110380559
0.0001077355
0.00010599494
0.000106528589
0.000110276967
0.00011039262
0.000107621267
0.00010737653
0.000110265604
0.0001103444
0.00010775445
0.000106008775
0.000106431682
0.000110213943
0.000110370659
0.000107720096
0.000107396542
0.000110190405
0.000110326538
0.000107769029
0.000105985061
0.000106372227
0.000110173467
0.000110357469
0.000107702137
0.000107337277
0.00011014841
0.000110306635
0.000107780554
0.000105854252
0.000106160807
0.000110124458
0.000110358207
0.000107599709
0.000107080911
0.000110064821
0.000110372423
0.000107430951
0.000107059792
0.000110101244
0.000110368616
0.000107459694
0.000107172177
0.000110152328
0.000110305507
0.000107770572
0.000105791619
0.00010614409
0.00011014925
0.000110378713
0.000107673598
0.000107214487
0.000110160445
0.000110392308
0.000107638462
0.000107376696
0.000110248021
0.00011032008
0.000107781205
0.000106152287
0.000106596573
0.000110247378
0.000110405052
0.000107835184
0.000107645891
0.000110338741
0.000110337942
0.000107777237
0.000106468006
0.000106978852
0.00011031635
0.000110337446
0.000107805756
0.000106789131
0.000106671364
0.000106670524
0.000110370351
0.00011026511
0.000107784206
0.000106021
0.000106593944
0.000110295938
0.000110419326
0.000107499584
0.00010710995
0.000110400846
0.000110414257
0.000107208051
0.000107061289
0.000110411882
0.000110380181
0.000107154442
0.000107086681
0.00011044445
0.000110269837
0.000107410435
0.000105616884
0.000106306278
0.000110341802
0.000110361364
0.000107145837
0.000106888035
0.000110388984
0.000110335563
0.00010707208
0.000106969627
0.000110389105
0.00011032563
0.000107169409
0.000107105362
0.000110403714
0.000110315095
0.000107345031
0.000107360478
0.000110428572
0.000110269964
0.00010777258
0.00010610584
0.000106881086
0.000110370804
0.000110273022
0.00010783058
0.000106132776
0.000106992733
0.000110385195
0.000110251527
0.000107808873
0.000105927696
0.000106976646
0.000110339266
0.000110334576
0.000110299707
0.000110320361
0.00010780301
0.000106692931
0.000106636306
0.000106824934
0.000110429376
0.00011025806
0.000107788198
0.00010630979
0.000107150079
0.000110377748
0.00011031088
0.000107802983
0.000106408318
0.000107233346
0.000110387878
0.000110313619
0.000107794419
0.00010644516
0.000107231761
0.000110386546
0.000110319615
0.000107795266
0.00010638814
0.000107136408
0.000110377539
0.000110322178
0.00010781025
0.000106230814
0.000106953645
0.000110375608
0.000110296442
0.000107814609
0.000105694522
0.000106759089
0.000110300464
0.000110311434
0.000110307238
)
;

boundaryField
{
    closed
    {
        type            calculated;
        value           nonuniform List<scalar> 0();
    }
    open
    {
        type            calculated;
        value           nonuniform List<scalar> 0();
    }
    sides
    {
        type            empty;
    }
    procBoundary3to2
    {
        type            processor;
        value           uniform 0.0001062094;
    }
    procBoundary3to4
    {
        type            processor;
        value           uniform 0.000110305441;
    }
}


// ************************************************************************* //
