/*--------------------------------*- C++ -*----------------------------------*\
| =========                 |                                                 |
| \\      /  F ield         | OpenFOAM: The Open Source CFD Toolbox           |
|  \\    /   O peration     | Version:  2306                                  |
|   \\  /    A nd           | Website:  www.openfoam.com                      |
|    \\/     M anipulation  |                                                 |
\*---------------------------------------------------------------------------*/
FoamFile
{
    version     2.0;
    format      ascii;
    arch        "LSB;label=32;scalar=64";
    class       volScalarField;
    location    "0.00116";
    object      prefDh_H;
}
// * * * * * * * * * * * * * * * * * * * * * * * * * * * * * * * * * * * * * //

dimensions      [1 1 -3 0 0 0 0];

internalField   nonuniform List<scalar> 
531
(
23390.0254
23865.463
23964.0199
23358.9389
23001.4103
23386.0804
23869.9076
23970.531
23350.6217
22989.4081
23355.3809
23888.8712
23483.9582
23296.9738
23441.5646
23937.8364
23415.9424
23261.4681
23397.2617
23934.3536
23735.5361
23265.5597
23001.2959
23377.3723
23910.3509
23943.1152
23346.7145
22902.9037
23331.4569
23851.6803
23991.1851
23931.1058
23987.5307
23968.485
23369.4148
23147.4341
23177.9297
23144.4479
23045.306
23379.4093
23927.3616
23978.7771
23355.8185
22978.9811
23357.1799
23884.3625
23980.1996
23575.4777
23183.7844
23063.0379
23466.0189
23943.454
23424.71
23242.6431
23369.2312
23948.7471
23999.4811
23351.553
23081.1531
23045.1434
23321.2148
23906.0715
23980.3996
23876.4889
23977.2004
23758.817
23321.5165
22993.9539
23018.2034
23398.9068
23944.3863
23940.9411
23199.3353
22948.1409
23387.8086
23921.7459
23949.7405
23207.9526
22958.9231
23399.4375
23919.2231
23932.4861
23195.2216
22962.0267
23405.3999
23918.8118
23920.7345
23192.8426
22968.2691
23403.2268
23921.377
23933.5833
23217.9354
22980.378
23391.6383
23927.2254
23957.8634
23283.9269
22998.5429
23375.2868
23935.564
23972.0365
23362.0509
23009.2559
23369.8118
23946.5104
23972.7334
23380.2082
23012.4807
23370.8454
23962.4593
23961.9106
23376.2547
22990.3488
23362.8418
23869.5534
23978.5692
23852.2257
23320.6
23071.2043
23104.3363
23395.3075
23971.777
23958.5621
23376.607
23002.2901
23372.3838
23960.6749
23986.0019
23376.4
23339.0036
23968.6351
23948.7719
23379.9485
23008.9089
23372.8786
23972.6081
23970.3708
23373.7491
23019.8998
23369.8712
23969.5322
23995.795
23390.5433
23359.1165
23983.7109
23965.6856
23375.0279
23036.8978
23366.879
23974.99
23984.4892
23382.4355
23051.8361
23370.2424
23975.8538
23983.8866
23381.0136
23066.8148
23370.408
23973.2542
23979.1362
23378.8422
23066.924
23367.1482
23958.3413
23988.0729
23331.7974
23143.2913
23145.5326
23379.6054
23970.9144
23982.2809
23375.0702
23381.8671
23977.6436
23980.3053
23330.4517
23046.2321
23368.9608
23954.6189
23973.4642
23352.9029
23041.8505
23373.1067
23953.1614
23971.5512
23333.0988
23027.9988
23373.7019
23948.9887
23974.3213
23381.7606
23395.1031
23965.6327
23970.7482
23248.1686
23002.7158
23370.5974
23938.475
23967.5496
23227.4441
22991.1972
23377.0862
23934.8906
23970.5154
23163.0198
22987.6276
23397.0724
23926.2961
23672.7505
23285.8608
23404.5489
23932.0947
23958.4956
22983.3972
22941.0733
23718.221
23917.1059
23425.4607
23053.0631
23095.1748
23549.8902
23939.0846
23454.0029
23180.1045
23396.7471
23949.6163
23903.7154
23943.4249
23794.458
23228.3389
23061.6906
23186.2084
23148.7116
23160.8105
23077.8242
23403.1952
23892.5137
23959.3227
23926.0528
23254.3274
23010.3221
23433.3187
23916.726
23708.4019
23158.9737
23011.6754
23392.9246
23940.9199
23854.716
23250.0486
23405.2881
23963.9167
23943.3114
23236.2928
23407.3507
23962.0726
23613.0806
23205.825
23380.8292
23949.188
23467.4111
23006.9296
23021.3243
23588.1915
23952.117
23407.4238
23227.9207
23914.1967
23929.2779
23388.0649
22932.8747
23106.9464
23944.1161
23959.8673
23371.3276
23307.4107
23977.9405
23941.6198
23379.657
22969.4851
23181.5021
23980.5407
23932.3866
23374.8148
22969.7879
23180.1064
23966.8998
23952.2558
23356.5161
23366.3932
23987.276
23942.3255
23379.7125
23003.7753
23226.4844
23980.3413
23931.5829
23372.919
22987.7264
23213.8752
23969.0918
23947.6561
23363.5171
23390.6829
23989.4132
23941.6255
23379.3833
23012.6167
23243.8691
23980.2626
23933.3551
23371.6165
23000.424
23224.8419
23972.5795
23949.3332
23377.4505
23391.1273
23995.147
23946.2982
23374.918
23035.8916
23260.4979
23981.6926
23943.9689
23373.71
23038.6729
23264.6897
23983.1365
23946.1881
23367.8763
23067.597
23257.8379
23981.3162
23971.7293
23372.3626
23374.0633
23995.946
23970.6147
23377.3706
23276.1277
23282.0199
23250.3933
23107.1808
23201.2463
23980.6075
23947.884
23368.6447
23067.0555
23202.3866
23963.6642
23983.3107
23381.579
23324.4589
23970.2857
23979.008
23326.7346
23313.2496
23969.4674
23966.7793
23370.1866
22977.6817
23098.023
23943.475
23969.5072
23344.5715
23289.4388
23940.9319
23958.6361
23374.4961
22980.831
23076.1805
23929.279
23964.5646
23366.8936
23293.9735
23924.0067
23954.614
23377.8051
22975.4982
23062.7849
23920.1684
23961.6002
23362.8594
23280.6157
23914.5632
23950.1353
23380.4649
22945.9973
23015.0797
23909.1299
23961.7858
23339.7981
23222.7319
23895.7473
23964.9721
23301.6979
23217.9696
23903.9546
23964.1086
23308.1566
23243.3582
23915.4596
23949.8896
23378.2552
22931.8591
23011.3082
23914.7155
23966.401
23356.4603
23252.8616
23917.2815
23969.4368
23348.4893
23289.4984
23936.9969
23953.1601
23380.5585
23013.2421
23113.3933
23936.8
23972.2948
23392.8541
23350.2207
23957.4069
23957.1576
23379.5671
23084.4742
23199.6853
23952.3191
23957.0477
23385.9758
23156.9415
23130.3037
23130.1814
23964.5108
23940.7678
23381.236
22983.6334
23112.7607
23947.7281
23975.5155
23317.2511
23229.2095
23971.3876
23974.3606
23251.4356
23218.2229
23973.8883
23966.6836
23239.3184
23224.0121
23981.2274
23941.847
23297.0425
22892.4098
23047.8503
23958.0779
23962.4817
23237.4528
23179.1318
23968.7367
23956.6575
23220.798
23197.5434
23968.7658
23954.4179
23242.756
23228.1754
23972.0574
23952.0349
23282.3703
23285.7804
23977.6557
23941.8653
23378.7831
23002.7489
23177.5975
23964.6111
23942.5651
23391.7619
23008.8165
23202.8117
23967.8598
23937.7153
23386.8152
22962.5698
23199.1582
23957.5454
23956.4073
23948.5489
23953.2247
23385.2755
23135.2098
23122.3935
23164.9965
23977.8142
23939.1757
23382.0839
23048.7876
23238.2996
23966.1743
23951.071
23385.3751
23071.0003
23257.106
23968.4581
23951.683
23383.4092
23079.3133
23256.7467
23968.159
23953.0359
23383.614
23066.4467
23235.2331
23966.133
23953.6215
23387.0712
23030.9426
23194.01
23965.7066
23947.8367
23388.1256
22909.9473
23150.098
23948.8405
23951.2164
23950.2726
)
;

boundaryField
{
    closed
    {
        type            calculated;
        value           nonuniform List<scalar> 0();
    }
    open
    {
        type            calculated;
        value           nonuniform List<scalar> 0();
    }
    sides
    {
        type            empty;
    }
    procBoundary3to2
    {
        type            processor;
        value           uniform 23026.2127;
    }
    procBoundary3to4
    {
        type            processor;
        value           uniform 23949.8972;
    }
}


// ************************************************************************* //
