/*--------------------------------*- C++ -*----------------------------------*\
| =========                 |                                                 |
| \\      /  F ield         | OpenFOAM: The Open Source CFD Toolbox           |
|  \\    /   O peration     | Version:  2306                                  |
|   \\  /    A nd           | Website:  www.openfoam.com                      |
|    \\/     M anipulation  |                                                 |
\*---------------------------------------------------------------------------*/
FoamFile
{
    version     2.0;
    format      ascii;
    arch        "LSB;label=32;scalar=64";
    class       volScalarField;
    location    "0.00116";
    object      sourcePV;
}
// * * * * * * * * * * * * * * * * * * * * * * * * * * * * * * * * * * * * * //

dimensions      [1 -3 -1 0 0 0 0];

internalField   nonuniform List<scalar> 
531
(
0.126047252
0.00391678783
0.0053878681
0.112170039
0.166742511
0.126266972
0.00394867805
0.00536616548
0.116692016
0.167681456
0.105810699
0.00441854959
0.0565323575
0.137913432
0.0652440651
0.00541590689
0.0764137485
0.141230551
0.0801557863
0.00529821137
0.0131276433
0.139760439
0.166650766
0.113163803
0.00475207989
0.00474195843
0.125809065
0.175753353
0.133731424
0.00341837824
0.00644896885
0.00523258686
0.00642933846
0.00628491769
0.109927621
0.15258816
0.149513573
0.152736456
0.162283089
0.118150033
0.00501087354
0.00578587034
0.127712098
0.168663404
0.10629787
0.00456200887
0.00640794404
0.0377266683
0.148258437
0.160723339
0.0597493516
0.00563644763
0.0727693227
0.143254525
0.107484121
0.00572137106
0.00577257451
0.132158527
0.158662626
0.162478209
0.135464846
0.00449900381
0.00643707133
0.00444719105
0.00638370219
0.00991807541
0.13495229
0.16747365
0.164677105
0.0877434301
0.00560571597
0.00454891546
0.147126256
0.171677419
0.0905268339
0.00542708214
0.00482411574
0.14653906
0.170673826
0.0841456626
0.00545278972
0.00444618649
0.147892221
0.170453591
0.0814715181
0.0054777071
0.00421203275
0.148156909
0.169919276
0.0822784419
0.00551441319
0.00448796077
0.145681457
0.168799025
0.0877654722
0.00556313362
0.00509925692
0.139065038
0.167054761
0.100592639
0.00558290769
0.00563314678
0.131126983
0.165887839
0.110047542
0.00562673766
0.00579848711
0.129217874
0.165418768
0.11578215
0.00574840455
0.00577219227
0.127885007
0.167833008
0.11106568
0.00418168656
0.0066475502
0.00324654985
0.135051879
0.160615031
0.15649173
0.121233722
0.00579251161
0.00571117977
0.129077662
0.166359554
0.128059122
0.00574637211
0.00610422281
0.13054538
0.133317162
0.00558019153
0.00569360221
0.128858066
0.165709968
0.125654566
0.00583944231
0.00592129917
0.12971816
0.164564672
0.126754568
0.00592201758
0.00639459934
0.128710845
0.131072185
0.00604113085
0.00598812145
0.129069835
0.162959446
0.121560344
0.00603971983
0.00622112399
0.12811718
0.161392491
0.119245547
0.00610760788
0.00624250425
0.127338997
0.159968059
0.117703407
0.00610190276
0.00614925653
0.126784268
0.16006744
0.117586576
0.00589432223
0.00615701017
0.134505738
0.152470966
0.15248912
0.122913098
0.00610259222
0.00619315919
0.124757759
0.125047809
0.00607452346
0.00608957316
0.133613018
0.162078161
0.118440664
0.00573830417
0.00581709178
0.131759218
0.162449866
0.117590845
0.00568069227
0.00574797765
0.13369144
0.163806488
0.119193545
0.00567547253
0.00562125579
0.128842885
0.127648637
0.00593649161
0.00580220202
0.141899272
0.166276202
0.110770508
0.00547962876
0.00550231542
0.144448111
0.16734437
0.103099609
0.00545049711
0.00535154846
0.15078512
0.167725884
0.0862203176
0.00556454721
0.0231073693
0.139495584
0.113616853
0.0056093103
0.0050736435
0.168202466
0.172098701
0.0167728947
0.00534628182
0.0738619172
0.161788281
0.157544978
0.0429764581
0.00569577635
0.0637701955
0.149655466
0.120263935
0.00560303493
0.0052241089
0.00578935398
0.00601216297
0.14494585
0.161648805
0.14902093
0.153431919
0.151202151
0.159980206
0.0811750494
0.00480252965
0.00633452656
0.00470578335
0.142120145
0.166117048
0.0710910379
0.00549055601
0.0178073802
0.151535323
0.165755399
0.0955569096
0.00567993058
0.0026193676
0.142455779
0.129456106
0.00587664742
0.00425167886
0.143385722
0.120980356
0.00578015282
0.0323181468
0.146510387
0.0936972952
0.0055564237
0.059970352
0.165791713
0.164118832
0.0362378192
0.00568297398
0.114206489
0.144791423
0.00343052727
0.00558404872
0.103907836
0.17295665
0.155947511
0.0045594699
0.00590863826
0.131979031
0.137072347
0.00568355221
0.00568554285
0.112185935
0.169309101
0.149190354
0.0057209368
0.00546049977
0.112379409
0.169456296
0.148910665
0.00560508659
0.00569241945
0.132413973
0.131210014
0.00596295852
0.00563789954
0.116531906
0.166123303
0.144707213
0.00581408011
0.00534083871
0.114532027
0.167774418
0.145469298
0.00573676593
0.0054302941
0.131462622
0.128670519
0.00597736365
0.00554423962
0.119195345
0.165298387
0.142846155
0.0058372388
0.00531122021
0.115101841
0.166553815
0.144252767
0.00586054073
0.0054545286
0.129801798
0.126751547
0.00612906005
0.00564966992
0.118347709
0.163068137
0.141072074
0.00595875153
0.00553556004
0.110748737
0.162834495
0.140750739
0.00601630598
0.00565698397
0.108045475
0.16012155
0.140903282
0.00617160838
0.00610162159
0.118300849
0.117077591
0.00653676925
0.00638311814
0.103035231
0.140039914
0.139669092
0.142778661
0.156266665
0.147576026
0.00616948489
0.00585754042
0.10701068
0.160266575
0.146525433
0.0059956763
0.00628968179
0.129072618
0.134727127
0.00592357459
0.00628842198
0.133924808
0.136202295
0.00580254179
0.00599603313
0.124531613
0.168506359
0.156807188
0.00543300797
0.00595924367
0.132698344
0.138828769
0.00527652569
0.00586232359
0.124837628
0.16830357
0.1590213
0.0052189167
0.00585490948
0.130673495
0.138528816
0.00492656674
0.0057907635
0.124687507
0.168852498
0.160391731
0.00503602222
0.00576250516
0.131227122
0.139935088
0.00467191624
0.0056920801
0.127254824
0.171604787
0.164901578
0.00486682372
0.00562925961
0.133913869
0.145283188
0.00430136804
0.00578983492
0.137475844
0.145762759
0.00439987264
0.00581825774
0.136634834
0.143510684
0.00458296389
0.00562957023
0.129306734
0.172883731
0.165259319
0.00494058439
0.00572669807
0.132194909
0.142289635
0.00465681849
0.00595948883
0.132626775
0.138985419
0.00503303293
0.00576401545
0.12395744
0.165394241
0.155495864
0.00540423854
0.00609203951
0.12609695
0.132907491
0.00552124008
0.0060072857
0.118569408
0.158703337
0.147392279
0.00575815574
0.00599206566
0.114460473
0.151884921
0.154065155
0.154440273
0.00574390111
0.00565026237
0.12370163
0.168181449
0.155339567
0.00563931986
0.00610205193
0.136468588
0.144141172
0.0057940812
0.00617593183
0.14261155
0.145168186
0.00572742837
0.00606930047
0.143642049
0.145012426
0.00581774178
0.00556500729
0.137732339
0.176432298
0.161561335
0.00566165668
0.00574804307
0.144333317
0.148988807
0.00560470193
0.00574737043
0.145851949
0.147205922
0.00559164526
0.00572872503
0.143718992
0.144250559
0.00563564185
0.00576381352
0.139800526
0.138912921
0.00572822705
0.00563858551
0.129898545
0.166323399
0.149350703
0.00575839196
0.00557032373
0.123245181
0.165722331
0.147054334
0.00575759279
0.00555458444
0.12226821
0.170087357
0.147253699
0.00537805609
0.00594074816
0.00585054655
0.00575620729
0.110059242
0.153815011
0.154822824
0.150980958
0.00589133124
0.00565559646
0.120162349
0.162109011
0.143502689
0.00578884438
0.00585129078
0.116166829
0.159945032
0.141799317
0.00580920985
0.00589514009
0.114976091
0.159162101
0.141822334
0.00579753815
0.00589875113
0.115698186
0.160369956
0.14392718
0.00574789735
0.00584911674
0.118842965
0.163676439
0.148018957
0.00568012323
0.00567651238
0.122724087
0.174873515
0.152168769
0.00499023986
0.00570813042
0.00568439682
)
;

boundaryField
{
    closed
    {
        type            calculated;
        value           nonuniform List<scalar> 0();
    }
    open
    {
        type            calculated;
        value           nonuniform List<scalar> 0();
    }
    sides
    {
        type            empty;
    }
    procBoundary3to2
    {
        type            processor;
        value           uniform 0;
    }
    procBoundary3to4
    {
        type            processor;
        value           uniform 0;
    }
}


// ************************************************************************* //
