/*--------------------------------*- C++ -*----------------------------------*\
| =========                 |                                                 |
| \\      /  F ield         | OpenFOAM: The Open Source CFD Toolbox           |
|  \\    /   O peration     | Version:  2306                                  |
|   \\  /    A nd           | Website:  www.openfoam.com                      |
|    \\/     M anipulation  |                                                 |
\*---------------------------------------------------------------------------*/
FoamFile
{
    version     2.0;
    format      ascii;
    arch        "LSB;label=32;scalar=64";
    class       volScalarField;
    location    "0.00116";
    object      Z;
}
// * * * * * * * * * * * * * * * * * * * * * * * * * * * * * * * * * * * * * //

dimensions      [0 0 0 0 0 0 0];

internalField   nonuniform List<scalar> 
531
(
0.014684167
0.0141219989
0.0140813053
0.0146080288
0.0148465911
0.0146842883
0.0141205816
0.0140804146
0.014628366
0.0148479319
0.0145753459
0.0141100049
0.014355843
0.0147320259
0.0143888093
0.0140858566
0.0144419887
0.0147436464
0.0144557369
0.0140882416
0.0141887453
0.0147333927
0.0148448186
0.0146176561
0.0141008448
0.0140944403
0.0146724539
0.0148861053
0.0147133055
0.0141317918
0.0140607403
0.0140898252
0.0140616673
0.0140672121
0.0145995731
0.0147880323
0.0147755283
0.0147876747
0.0148249154
0.0146427818
0.0140937448
0.0140728284
0.0146840406
0.0148520759
0.0145782651
0.0141089593
0.0140632658
0.0142809493
0.0147669276
0.0148199703
0.0143664745
0.0140815476
0.0144252772
0.0147521178
0.0145873593
0.0140792919
0.0140693751
0.0147091346
0.0148091468
0.014827467
0.0147226292
0.0141052733
0.0140627857
0.0141122639
0.0140641612
0.0141773219
0.0147187434
0.0148501817
0.0148324943
0.0144959261
0.0140818228
0.0140975455
0.0147647954
0.0148678514
0.0145069379
0.0140888401
0.0140920083
0.0147639618
0.0148631536
0.0144774849
0.014088963
0.0141006354
0.0147697148
0.0148635073
0.0144653715
0.0140886781
0.014106212
0.0147709114
0.0148619409
0.014468915
0.0140876289
0.0140998413
0.0147613473
0.0148569414
0.0144938743
0.01408576
0.0140865828
0.014735741
0.014848539
0.0145544675
0.0140838485
0.0140762786
0.0147053595
0.0148414851
0.0146002716
0.0140811104
0.0140737301
0.0146979263
0.0148376103
0.0146289563
0.0140763412
0.0140760913
0.014689841
0.0148520784
0.0146035393
0.0141174668
0.0140598603
0.0141339341
0.0147191474
0.0148261106
0.0148012534
0.0146618624
0.014073991
0.0140776093
0.0146957706
0.0148411366
0.0146897591
0.0140766999
0.0140668369
0.0147064092
0.014713086
0.0140776706
0.0140796977
0.0146954998
0.0148382432
0.0146780805
0.0140731489
0.0140723407
0.014699251
0.0148325611
0.0146827497
0.0140724816
0.014060779
0.0146979492
0.0147038588
0.0140681796
0.0140721935
0.0146953518
0.0148263728
0.0146564779
0.014069747
0.0140653488
0.0146924706
0.01481899
0.014645903
0.0140685768
0.014065132
0.0146883151
0.0148135952
0.0146383365
0.0140691259
0.0140673698
0.0146850708
0.0148148971
0.0146369449
0.0140749371
0.0140656863
0.0147194093
0.0147842488
0.0147858088
0.0146662596
0.0140695344
0.0140661563
0.014674211
0.0146772895
0.0140687542
0.0140680576
0.0147120237
0.0148230066
0.014641614
0.014077942
0.0140733241
0.0147066482
0.0148240248
0.0146384548
0.014079064
0.0140746868
0.0147136391
0.0148296967
0.0146465056
0.0140799244
0.0140760369
0.0146958618
0.0146932297
0.0140729736
0.0140740346
0.0147431461
0.0148402868
0.0146040657
0.0140848033
0.0140790002
0.014755118
0.0148443429
0.0145675271
0.0140859219
0.0140806271
0.0147792934
0.0148464646
0.0144875281
0.0140859211
0.0142249899
0.0147402196
0.0146267401
0.0140841298
0.0140868263
0.0148494845
0.0148648855
0.0142021198
0.0140909458
0.0144315388
0.0148253208
0.0148066316
0.0143002966
0.0140815041
0.0143858233
0.0147782078
0.0146574583
0.0140808718
0.0140954363
0.0140792879
0.014164022
0.0147600507
0.0148320502
0.0147755068
0.0147982573
0.0147821314
0.0148233611
0.0144631002
0.0141038294
0.0140681041
0.0140983168
0.0147478942
0.014846876
0.0144192415
0.0140889037
0.0142057605
0.0147843959
0.0148421402
0.0145339415
0.0140813882
0.0141414557
0.0147487471
0.0147092669
0.0140741767
0.0141011466
0.0147501772
0.0146635679
0.0140759439
0.0142591361
0.0147625807
0.0145211221
0.0140816358
0.0143688581
0.0148373708
0.0148277354
0.0142741815
0.014079226
0.0146303586
0.0147584269
0.0141179886
0.0140850505
0.0145744716
0.0148707106
0.0147970859
0.0140967775
0.0140744429
0.0147155522
0.0147296949
0.0140744757
0.0140811717
0.0146133974
0.0148512052
0.0147744404
0.0140734634
0.0140862619
0.0146131235
0.0148543643
0.0147709858
0.0140776262
0.0140790608
0.0147130154
0.0147076296
0.0140687127
0.0140817411
0.0146348814
0.014839061
0.0147569376
0.0140721346
0.0140881638
0.0146232976
0.0148474304
0.0147573668
0.0140752984
0.0140837654
0.0147084455
0.0146977027
0.0140681252
0.0140832523
0.0146479233
0.0148359211
0.0147491571
0.0140718081
0.0140882477
0.014625787
0.0148421421
0.0147521421
0.0140728423
0.0140830948
0.0147012205
0.0146878817
0.0140648786
0.0140808129
0.0146426389
0.014826924
0.0147418662
0.0140697596
0.014082932
0.0146047564
0.0148263107
0.0147410903
0.0140686501
0.0140807259
0.0145898047
0.0148161216
0.0147392705
0.0140666497
0.0140694029
0.0146417717
0.0146361611
0.0140585897
0.0140653335
0.0145672806
0.0147403486
0.0147399214
0.0147517413
0.0148007485
0.0147700558
0.0140668064
0.0140774307
0.0145848443
0.0148175066
0.0147609423
0.0140724482
0.01406452
0.0146973589
0.0147181779
0.0140723222
0.0140652928
0.0147129447
0.0147251731
0.014074262
0.0140718769
0.0146719083
0.0148475679
0.0148003242
0.0140845235
0.0140719322
0.0147105398
0.0147362406
0.0140872795
0.0140753591
0.0146744633
0.0148479862
0.0148095801
0.0140903814
0.0140743808
0.0147037862
0.0147357752
0.0140956124
0.0140771665
0.0146745328
0.0148508685
0.0148155395
0.0140948198
0.0140762914
0.0147064146
0.0147415309
0.0141011123
0.0140794636
0.01468777
0.0148621407
0.014832621
0.0140994693
0.0140782151
0.0147180128
0.014760212
0.0141101715
0.014075269
0.0147305099
0.0147621108
0.0141070891
0.014075007
0.0147264874
0.0147547492
0.0141021738
0.0140804305
0.0146978712
0.0148668429
0.0148340092
0.014097282
0.0140759375
0.0147113057
0.0147486592
0.0141007709
0.0140719413
0.014711508
0.0147375758
0.0140915324
0.0140778338
0.0146716206
0.0148380592
0.0147965669
0.0140862269
0.0140694455
0.0146850947
0.0147143454
0.0140806053
0.0140734652
0.0146448867
0.0148122402
0.0147674497
0.0140780776
0.0140737139
0.014626234
0.0147867459
0.0147925023
0.0147965048
0.0140760307
0.0140818558
0.0146705303
0.0148494139
0.0147944756
0.0140806949
0.0140687203
0.0147290234
0.0147532951
0.0140740384
0.014067815
0.0147507799
0.0147568808
0.014074565
0.0140707964
0.0147538949
0.0147584185
0.0140719228
0.0140829052
0.0147305839
0.014879601
0.0148178
0.0140784273
0.0140763424
0.0147591909
0.0147711836
0.0140772952
0.0140774288
0.0147644524
0.0147645789
0.01407748
0.014078121
0.0147563223
0.0147537438
0.0140762385
0.0140780469
0.0147411988
0.0147353086
0.0140738742
0.0140818187
0.0147024341
0.0148410772
0.0147737637
0.0140757989
0.01408269
0.0146708593
0.0148383344
0.0147659858
0.0140752167
0.0140838507
0.0146648583
0.0148563023
0.0147658749
0.0140826545
0.0140746008
0.0140774103
0.0140779373
0.0146043018
0.0147930787
0.0147953651
0.0147824469
0.0140714474
0.0140820814
0.0146533491
0.0148257582
0.014752164
0.0140750638
0.0140769273
0.0146344971
0.0148167296
0.0147464522
0.014074347
0.0140761588
0.014628133
0.0148137482
0.0147464796
0.0140745737
0.0140758531
0.0146317462
0.0148183175
0.0147543876
0.0140756748
0.0140764843
0.0146480929
0.0148307167
0.0147702468
0.0140767482
0.0140801262
0.014667416
0.0148744297
0.0147853705
0.0140898451
0.0140790237
0.0140795512
)
;

boundaryField
{
    closed
    {
        type            zeroGradient;
    }
    open
    {
        type            zeroGradient;
    }
    sides
    {
        type            empty;
    }
    procBoundary3to2
    {
        type            processor;
        value           uniform 0.0148381282;
    }
    procBoundary3to4
    {
        type            processor;
        value           uniform 0.0140827647;
    }
}


// ************************************************************************* //
