/*--------------------------------*- C++ -*----------------------------------*\
| =========                 |                                                 |
| \\      /  F ield         | OpenFOAM: The Open Source CFD Toolbox           |
|  \\    /   O peration     | Version:  2306                                  |
|   \\  /    A nd           | Website:  www.openfoam.com                      |
|    \\/     M anipulation  |                                                 |
\*---------------------------------------------------------------------------*/
FoamFile
{
    version     2.0;
    format      ascii;
    arch        "LSB;label=32;scalar=64";
    class       volScalarField;
    location    "0.0002";
    object      p;
}
// * * * * * * * * * * * * * * * * * * * * * * * * * * * * * * * * * * * * * //

dimensions      [1 -1 -2 0 0 0 0];

internalField   nonuniform List<scalar> 
3810
(
101967.75
101951.998
101937.868
101922.904
101907.734
101893.462
101881.276
101868.249
101856.142
101845.647
101835.948
101825.592
101814.922
101804.459
101793.478
101783.525
101774.723
101763.35
101752.307
101740.273
101732.158
101724.808
101717.369
101711.227
101706.363
101703.452
101702.432
101702.439
101703.268
101704.489
101706.797
101709.668
101713.581
101716.128
101718.505
101720.766
101722.518
101723.896
101725.861
101727.585
101728.941
101729.82
101729.592
101729.538
101729.856
101730.588
101731.24
101733.438
101736.489
101741.133
101741.763
101743.883
101747.712
101750.83
101754.447
101757.115
101758.765
101755.448
101751.246
101745.904
101737.432
101726.977
101712.961
101695.226
101674.95
101652.828
101626.988
101596.399
101561.082
101519.334
101493.39
101458.718
101417.85
101372.996
101322.467
101269.744
101215.131
101161.557
101104.803
101042.634
100980.745
100919.289
100858.848
100797.806
100735.081
100691.812
100638.749
100584.971
100531.578
100480.889
100429.247
100384.963
100346.068
100309.811
100274.392
100245.582
100218.958
100198.67
100180.643
100170.713
100169.324
100174.716
100183.149
100197.3
100214.5
100241.128
100270.843
100304.511
100341.904
100387.07
100432.223
100479.238
100526.202
100578.201
100623.821
100664.588
100710.289
100755.895
100805.692
100860.215
100936.445
100993.915
101044.7
101091.559
101136.623
101179.924
101218.806
101254.051
101283.651
101313.634
101336.534
101357.385
101376.226
101388.969
101400.204
101409.229
101417.016
101424.115
101428.574
101430.965
101432.442
101433.998
101435.895
101435.431
101434.956
101435.791
101435.612
101436.244
101437.869
101440.188
101443.057
101447.37
101453.072
101458.511
101466.094
101474.422
101483.236
101493.31
101504.42
101515.094
101526.75
101537.994
101549.329
101560.497
101570.482
101580.61
101589.613
101598.311
101606.361
101613.826
101620.157
101626.531
101631.713
101637.035
101641.085
101644.672
101647.468
101650.124
101652.431
101654.225
101654.98
101655.636
101655.964
101656.467
101655.937
101655.086
101654.307
101653.544
101652.804
101652.139
101651.231
101650.949
101650.609
101650.368
101650.468
101650.738
101650.646
101650.757
101650.055
101650.038
101650.127
101649.907
101650.253
101650.67
101651.808
101652.831
101654.419
101656.198
101658.51
101661.382
101664.483
101668.275
101672.344
101676.698
101682.018
101687.372
101692.781
101698.812
101704.483
101712.239
101719.062
101725.497
101731.342
101736.416
101742.765
101748.681
101754.249
101759.595
101765.753
101770.563
101775.091
101778.923
101782.214
101785.141
101786.91
101787.819
101787.734
101786.924
101785.86
101783.779
101781.935
101779.787
101777.985
101776.829
101775.166
101772.919
101770.947
101768.954
101766.626
101760.495
101754.839
101749.907
101745.032
101740.462
101735.148
101729.632
101724.225
101718.663
101711.764
101702.78
101692.654
101681.105
101667.993
101653.282
101637.108
101617.773
101596.142
101572.636
101547.326
101521.712
101492.832
101462.967
101430.804
101394.89
101356.621
101318.54
101283.314
101243.667
101204.199
101156.962
101110.886
101065.387
101019.146
100971.322
100920.803
100868.101
100812.46
100756.249
100700.653
100644.22
100586.384
100524.708
100460.655
100396.91
100333.845
100270.767
100204.873
100138.439
100073.887
100012.042
99952.3905
99892.5227
99833.0646
99775.7158
99719.935
99669.249
99633.3896
99586.8023
99543.3586
99508.7993
99480.6618
99457.3899
99441.2726
99430.8196
99426.3853
99431.8776
99441.9066
99460.156
99485.416
99511.8482
99538.474
99565.0886
99607.754
99648.8708
99688.5481
99728.668
99767.3996
99809.5236
99856.8273
99896.399
99936.5214
99977.6247
100018.232
100058.126
100097.185
100136.535
100175.81
100212.804
100256.899
100299.26
100349.8
100388.037
100421.955
100456.827
100491.57
100526.034
100559.726
100595.377
100631.003
100662.823
100695.456
100728.433
100760.906
100790.723
100821.272
100852.14
100882.577
100910.046
100938.353
100966.779
100995.388
101024.402
101053.403
101083.154
101113.761
101145.209
101177.37
101206.676
101237.904
101270.107
101301.938
101333.953
101367.565
101401.165
101434.564
101467.435
101500.207
101533.387
101567.255
101598.466
101634.004
101670.256
101710.058
101751.064
101788.54
101828.961
101870.101
101909.994
101945.984
101983.724
102019.784
102057.656
102096.03
102134.065
102167.347
102203.185
102238.378
102272.304
102303.212
102336.289
102367.046
102399.683
102430.198
102449.464
102496.529
102512.933
102532.877
102553.222
102571.375
102584.706
102598.348
102610.913
102621.269
102633.417
102628.721
102634.871
102633.789
102629.423
102624.235
102620.991
102614.32
102605.296
102596.074
102587.637
102580.484
102569.989
102559.273
102547.296
102532.511
102516.725
102500.325
102483.277
102467.205
102450.45
102435.12
102421.958
102409.545
102393.747
102378.083
102363.489
102349.366
102336.202
102325.707
102317.335
102307.617
102298.614
102289.88
102281.742
102274.05
102266.707
102258.35
102250.157
102244.302
102240.253
102235.502
102231.211
102227.051
102223.792
102222.597
102220.013
102216.326
102211.801
102207.541
102204.7
102202.775
102199.406
102195.924
102193.141
102190.632
102187.953
102184.182
102180.506
102176.095
102170.573
102165.082
102159.145
102151.23
102142.504
102134.672
102126.763
102117.352
102107.705
102099.45
102091.386
102082.246
102073.124
102065.493
102057.869
102049.652
102041.698
102033.679
102025.465
102019.232
102013.541
102007.917
102000.652
101998.784
101995.07
101992.084
101989.935
101988.228
101986.984
101987.447
101988.18
101989.455
101990.977
101994.184
101997.52
102001.552
102006.374
102010.948
102016.009
102021.735
102027.706
102033.915
102040.115
102046.448
102052.725
102060.216
102067.612
102074.694
102081.554
102087.68
102093.663
102100.114
102106.096
102111.802
102117.787
102123.152
102128.426
102133.257
102137.86
102143.143
102147.931
102152.526
102156.678
102160.406
102164.028
102167.219
102170.254
102173.631
102176.298
102178.71
102181.366
102184.033
102186.175
102188.21
102189.975
102191.477
102192.576
102193.335
102193.927
102193.996
102193.591
102192.982
102191.939
102190.798
102189.643
102188.43
102187.519
102184.793
102184.839
102184.135
102183.987
102183.943
102184.41
102185.973
102187.626
102188.997
102191.342
102194.027
102197.553
102202.105
102207.063
102212.215
102218.284
102225.344
102232.809
102240.211
102248.404
102257.577
102267.19
102277.133
102287.451
102297.111
102308.963
102318.091
102328.217
102338.867
102349.388
102359.409
102369.224
102378.664
102387.526
102395.383
102402.971
102410.533
102417.5
102423.369
102428.791
102433.362
102437.098
102440.132
102442.749
102444.577
102445.452
102445.941
102446.063
102445.218
102444.289
102443.839
102443.018
102441.241
102439.796
102438.776
102437.436
102435.246
102433.872
102433.188
102431.886
102430.237
102429.505
102429.038
102428.049
102427.779
102428.426
102429.706
102429.811
102431.246
102432.929
102434.723
102436.508
102438.857
102441.647
102443.077
102444.822
102446.755
102448.801
102450.768
102453.774
102456.018
102458.229
102460.876
102462.699
102465.327
102467.875
102470.624
102473.428
102476.908
102481.288
102486.758
102491.608
102498.456
102506.968
102515.989
102524.333
102533.218
102542.226
102551.933
102561.931
102571.525
102581.028
102589.376
102597.719
102607.412
102617.62
102627.762
102637.861
102647.655
102655.611
102663.924
102671.822
102678.857
102685.177
102690.662
102695.367
102698.737
102700.501
102700.785
102699.541
102696.509
102691.701
102685.913
102677.343
102666.952
102655.588
102642.695
102628.608
102613.802
102596.025
102576.822
102557.788
102538.088
102516.691
102494.064
102474.403
102454.889
102432.952
102409.73
102390.986
102372.467
102353.583
102333.572
102313.929
102295.458
102277.559
102260.735
102244.964
102230.115
102215.939
102202.451
102189.531
102177.244
102165.285
102153.8
102141.862
102129.182
102116.052
102102.817
102090.819
102079.48
102067.46
102055.318
102043.956
102034.574
102026.044
102015.913
102005.425
101996.546
101988.7
101981.157
101972.923
101963.663
101954.878
101948.127
101943.544
101938.749
101934.715
101931.419
101929.179
101928.103
101926.773
101926.401
101926.172
101926.309
101926.759
101924.688
101926.739
101926.676
101925.5
101923.744
101921.072
101917.769
101912.55
101906.561
101899.895
101892.761
101885.002
101876.608
101867.968
101859.26
101849.499
101839.142
101826.494
101812.937
101798.029
101782.122
101766.416
101751.997
101737.877
101722.431
101707.1
101692.899
101679.59
101666.77
101653.48
101639.499
101625.637
101612.87
101599.357
101582.789
101562.709
101543.45
101510.465
101466.088
101442.205
101406.751
101365.861
101321.302
101273.064
101221.176
101172.275
101114.872
101057.846
100996.9
100930.839
100863.083
100793.324
100724.008
100651.921
100575.207
100499.178
100423.411
100348.528
100273.415
100202.451
100137.816
100066.924
100000.338
99939.3768
99881.2368
99826.5349
99778.4918
99734.2487
99699.1725
99669.7422
99643.486
99618.3646
99599.3887
99585.4592
99579.9898
99580.3605
99582.1264
99590.8919
99604.6781
99622.1914
99651.0213
99683.7866
99712.6422
99746.4597
99806.7265
99852.6025
99898.9872
99949.9898
100003.344
100054.621
100100.103
100152.864
100202.027
100249.18
100295.587
100338.518
100383.385
100426.154
100467.396
100507.06
100544.448
100580.226
100612.101
100642.994
100671.935
100700.26
100726.371
100749.964
100772.614
100793.188
100813.173
100831.782
100851.268
100869.432
100886.041
100900.838
100914.444
100926.927
100940.06
100952.334
100964.297
100974.996
100985.175
100994.806
101003.973
101013.236
101021.265
101028.768
101034.554
101039.811
101044.676
101048.762
101050.62
101051.922
101053.402
101055.347
101057.075
101058.437
101059.584
101060.902
101061.62
101062.169
101061.698
101060.282
101058.495
101056.642
101054.207
101051.622
101049.278
101047.272
101043.743
101039.924
101036.619
101034.237
101030.522
101026.948
101023.78
101021.884
101021.24
101021.961
101021.87
101018.054
101016.361
101018.383
101025.168
101035.48
101048.078
101062.241
101069.521
101073.366
101071.918
101066.644
101052.192
101031.676
101007.966
100982.456
100952.53
100916.555
100878.515
100841.435
100798.51
100753.36
100707.046
100660.287
100611.604
100562.961
100515.013
100468.972
100430.086
100394.967
100361.26
100332.015
100305.993
100285.93
100269.594
100257.786
100253.095
100255.11
100259.881
100267.635
100279.962
100296.969
100309.164
100306.9
100418.97
100441.299
100480.589
100546.406
100584.867
100634.182
100685.364
100734.427
100791.94
100847.226
100899.865
100951.871
101001.878
101050.117
101097.039
101142.945
101184.396
101220.753
101257.024
101291.042
101322.634
101353.546
101389.111
101421.901
101454.368
101486.842
101523.351
101559.343
101598.67
101625.152
101651.411
101679.296
101703.925
101727.308
101746.839
101764.764
101780.063
101792.944
101803.033
101826.252
101828.751
101837.183
101846.923
101857.772
101864.568
101866.907
101866.866
101866.528
101866.191
101864.409
101859.179
101852.87
101849.902
101853.068
101831.276
101833.519
101829.306
101824.8
101822.269
101823.279
101817.202
101811.67
101807.021
101803.597
101801.246
101797.219
101793.32
101790.831
101790.648
101777.869
101778.234
101777.812
101776.587
101775.39
101776.528
101773.805
101772.314
101771.626
101770.934
101770.19
101769.392
101768.594
101767.983
101766.025
101763.891
101761.957
101760.874
101760.306
101759.004
101758.169
101757.834
101757.789
101758.504
101759.765
101760.454
101760.985
101761.771
101762.656
101762.638
101762.483
101762.416
101762.21
101761.934
101761.256
101760.714
101760.505
101760.733
101760.599
101760.522
101760.497
101761.22
101762.134
101763.247
101764.316
101765.797
101767.271
101769.393
101770.463
101772.722
101774.697
101776.933
101779.428
101781.863
101784.698
101787.637
101790.708
101793.879
101797.037
101800.247
101803.705
101807.286
101811.011
101814.676
101818.664
101822.807
101826.991
101831.049
101835.378
101839.777
101844.168
101848.656
101853.07
101856.966
101861.116
101865.217
101869.347
101873.47
101877.257
101881.178
101885.457
101889.338
101893.564
101898.004
101902.595
101907.137
101912.165
101917.523
101923.133
101929.298
101935.6
101941.236
101947.576
101954.036
101960.78
101967.741
101974.049
101980.812
101987.561
101994.179
102000.908
102007.492
102014.199
102021.146
102027.9
102034.517
102041.443
102048.278
102055.102
102061.897
102068.26
102075.167
102082.094
102088.573
102093.903
102099.531
102104.849
102109.747
102113.846
102118.66
102122.729
102126.445
102130.057
102133.598
102136.297
102140.023
102143.48
102145.824
102148.836
102151.236
102153.581
102155.683
102157.802
102160.12
102162.687
102165.103
102168.129
102171.325
102174.112
102177.897
102181.619
102185.329
102189.263
102193.422
102197.435
102201.153
102205.926
102210.057
102214.056
102216.868
102221.789
102225.869
102229.972
102234.455
102238.809
102243.253
102247.329
102251.275
102254.504
102257.584
102260.927
102264.248
102267.773
102270.99
102274.626
102278.962
102283.403
102287.292
102291.814
102297.643
102303.742
102309.814
102315.019
102320.644
102326.739
102332.498
102337.786
102343.697
102351.411
102361.422
102371.892
102383.107
102396.58
102411.244
102425.907
102439.867
102452.743
102465.791
102478.929
102492.768
102508.687
102524.876
102539.148
102553.96
102569.992
102586.707
102603.313
102619.555
102635.384
102651.111
102666.221
102679.761
102692.673
102705.486
102719.649
102735.208
102752.292
102768.619
102783.564
102795.133
102807.985
102824.905
102842.677
102854.459
102868.284
102884.541
102898.805
102907.391
102914.531
102919.955
102921.94
102920.467
102919.269
102914.989
102908.473
102902.202
102891.864
102880.435
102868.253
102854.268
102838.197
102820.618
102801.241
102781.907
102757.362
102731.178
102705.672
102675.537
102645.184
102614.956
102585.324
102554.991
102521.942
102488.781
102456.477
102424.26
102397.589
102362.366
102329.741
102298.66
102269.375
102238.596
102207.755
102176.4
102150.398
102123.378
102096.465
102070.853
102044.424
102017.245
101992.068
101969.04
101948.735
101917.284
101896.73
101875.686
101854.689
101833.531
101812.53
101792.816
101774.863
101757.502
101740.533
101723.98
101706.465
101690.474
101677.409
101661.983
101646.859
101628.916
101615.089
101603.869
101593.157
101583.496
101575.104
101567.261
101559.508
101551.233
101544.023
101539.156
101535.157
101530.132
101530.578
101524.837
101522.797
101522.043
101521.191
101523.644
101528.957
101525.2
101523.882
101524.588
101524.92
101525.93
101527.724
101528.273
101529.218
101530.382
101531.759
101532.767
101533.617
101534.974
101536.806
101537.473
101538.287
101539.341
101540.008
101540.778
101541.657
101542.551
101543.132
101543.68
101544.099
101544.367
101544.689
101545.079
101545.271
101545.316
101545.333
101545.37
101545.152
101544.758
101544.252
101543.773
101542.839
101541.779
101540.697
101539.507
101537.867
101536.294
101534.315
101531.738
101529.699
101527.71
101525.378
101523.027
101520.789
101519.065
101516.857
101514.244
101512.513
101510.942
101509.079
101508.063
101506.677
101505.607
101504.768
101504.127
101503.918
101503.207
101502.753
101502.505
101503.181
101503.531
101504.039
101504.93
101506.303
101508.228
101510.725
101514.208
101517.974
101521.754
101527.062
101533.927
101541.075
101547.897
101555.697
101564.299
101573.831
101581.146
101593.707
101605.382
101616.953
101629.082
101640.45
101652.941
101666.848
101680.852
101694.852
101708.932
101723.376
101738.113
101753.987
101771
101787.817
101804.304
101820.206
101836.922
101855.878
101874.537
101893.601
101912.944
101932.354
101952.137
101972.28
101995.547
102016.053
102037.692
102060.267
102083.911
102102.953
102125.149
102151.668
102174.945
102195.988
102218.602
102241.831
102266.6
102291.379
102316.714
102341.544
102365.953
102391.186
102416.859
102441.344
102462.173
102479.728
102500.87
102514.7
102532.305
102547.262
102558.344
102567.783
102575.711
102581.896
102588.47
102597.815
102585.318
102592.815
102594.317
102593.976
102593.022
102591.174
102585.098
102584.482
102581.6
102577.847
102574.614
102569.01
102562.843
102558.018
102556.631
102560.439
102531.133
102535.659
102530.748
102523.213
102513.848
102504.796
102495.612
102484.776
102473.567
102461.413
102447.27
102427.34
102416.067
102392.329
102371.114
102348.714
102325.103
102301.59
102278.371
102251.772
102224.537
102199.127
102175.167
102148.759
102122.909
102099.065
102076.161
102052.766
102028.996
102005.557
101984.027
101965.236
101937.255
101909.843
101887.671
101866.785
101843.897
101820.627
101798.533
101776.125
101753.434
101729.937
101707.28
101685.573
101662.948
101640.128
101616.651
101591.5
101562.548
101533.974
101513.365
101497.132
101485.381
101476.588
101467.241
101456.241
101445.051
101433.331
101422.551
101413.705
101397.79
101382.563
101368.943
101355.758
101340.145
101327.777
101313.282
101297.541
101280.727
101263.602
101246.141
101229.245
101213.752
101199.885
101188.239
101178.944
101170.215
101161.755
101153.933
101149.708
101147.204
101145.733
101145.822
101147.441
101143.818
101145.572
101145.831
101145.547
101143.817
101144.97
101139.737
101134.705
101128.764
101121.831
101114.518
101107.231
101098.696
101089.298
101081.057
101073.457
101064.68
101055.114
101046.866
101041.475
101032.141
101024.974
101015.57
101005.331
100998.469
100990.047
100980.767
100972.282
100966.726
100948.141
100942.832
100934.329
100925.679
100917.952
100911.811
100904.96
100898.462
100893.047
100887.978
100889.677
100882.401
100879.074
100877.166
100875.192
100874.053
100873.844
100873.955
100874.488
100875.641
100875.904
100876.877
100878.241
100879.688
100880.815
100882.35
100884.631
100886.342
100887.659
100890.699
100894.45
100895.334
100896.854
100899.746
100902.69
100906.58
100911.421
100914.173
100917.66
100922.256
100927.643
100931.877
100936.582
100942.277
100948.726
100953.545
100958.741
100964.273
100969.721
100974.667
100978.725
100981.479
100983.225
100983.852
100983.644
100982.449
100980.996
100980.246
100979.319
100979.403
100979.368
100972.444
100966.203
100957.906
100948.651
100937.784
100920.16
100901.218
100880.803
100858.802
100834.177
100807.465
100779.512
100750.62
100720.968
100691.634
100663.061
100632.093
100600.276
100569.43
100540.533
100503.491
100466.361
100429.634
100393.562
100352.968
100310.793
100269.858
100229.372
100188.877
100145.454
100098.927
100074.215
100026.099
99981.0448
99942.1041
99904.1598
99867.3561
99833.7793
99804.4603
99774.0372
99745.7991
99723.1894
99706.2588
99690.7469
99678.5947
99672.3709
99671.3224
99670.4853
99672.1631
99678.3175
99689.3247
99700.7049
99714.8251
99730.4368
99749.696
99770.8683
99794.4133
99819.9063
99844.8156
99873.4802
99903.8296
99935.417
99967.649
100001.009
100035.495
100065.687
100097.272
100129.202
100160.875
100192.314
100223.476
100251.813
100280.798
100309.316
100337.025
100363.276
100391.229
100419.258
100446.555
100470.184
100494.251
100516.846
100541.338
100564.716
100583.401
100600.629
100612.637
100640.002
100662.555
100682.75
100701.734
100717.308
100732.97
100748.271
100763.341
100778.509
100793.481
100808.538
100823.499
100838.398
100853.729
100870.723
100884.316
100898.312
100911.55
100927.972
100943.588
100957.57
100971.361
100987.593
101003.633
101018.074
101031.999
101046.43
101060.624
101073.971
101089.383
101110.138
101130.758
101150.333
101169.445
101186.654
101204.486
101223.882
101242.228
101258.962
101274.049
101289.019
101304.474
101320.723
101335.338
101348.654
101361.902
101374.565
101386.416
101397.246
101406.856
101415.615
101423.618
101429.58
101439.419
101443.302
101447.603
101451.917
101455.324
101457.72
101460.463
101466.565
101461.695
101464.625
101466.022
101467.508
101468.745
101469.524
101470.858
101472.498
101474.816
101477.964
101481.585
101485.711
101491.097
101500.415
101499.194
101506.486
101512.896
101519.411
101526.769
101536.044
101545.31
101554.7
101564.757
101571.904
101584.815
101597.378
101608.823
101621.169
101634.591
101648.606
101662.622
101677.138
101692.441
101708.933
101727.32
101746.268
101765.048
101785.287
101807.433
101830.439
101851.949
101873.572
101896.196
101920.509
101947.212
101970.36
101994.846
102020.556
102047.325
102075.322
102106.622
102138.136
102169.362
102201.409
102233.286
102264.999
102295.549
102325.193
102358.954
102397.552
102442.388
102486.924
102528.602
102569.661
102611.604
102653.565
102695.838
102742.662
102788.757
102827.939
102868.853
102908.482
102948.549
102987.312
103019.046
103051.473
103080.754
103109.994
103136.846
103161.333
103182.995
103199.472
103212.013
103222.857
103231.207
103237.799
103242.533
103243.079
103240.582
103237.037
103233.108
103224.212
103212.372
103199.588
103185.785
103168.854
103149.789
103129.549
103108.184
103085.805
103062.802
103039.836
103017.007
102993.158
102967.686
102940.139
102909.298
102869.993
102851.977
102828.135
102800.771
102772.423
102743.546
102715.289
102688.755
102664.176
102640.598
102617.935
102596.806
102574.497
102552.947
102532.554
102513.909
102495.966
102477.3
102458.545
102441.328
102425.91
102411.458
102396.062
102382.279
102369.343
102356.831
102344.978
102334.546
102325.283
102316.226
102307.908
102301.851
102296.659
102291.794
102287.558
102285.005
102282.847
102281.435
102279.807
102278.583
102277.995
102277.32
102277.341
102277.349
102277.845
102278.456
102279.618
102281.298
102282.736
102284.763
102287.083
102289.564
102291.752
102294.357
102297.315
102299.356
102301.802
102304.162
102306.153
102308.034
102309.745
102311.76
102314.1
102316.369
102318.966
102322.235
102326.094
102330.596
102336.184
102342.901
102350.286
102358.211
102367.917
102371.782
102384.727
102396.057
102407.611
102419.043
102428.389
102438.134
102448.654
102459.036
102468.56
102476.037
102483.14
102489.807
102495.938
102502.65
102508.847
102513.961
102518.8
102521.421
102524.274
102526.066
102526.584
102526.803
102526.092
102524.07
102520.548
102515.693
102510.121
102501.229
102492.043
102485.762
102482.168
102479.789
102478.773
102474.91
102469.186
102462.538
102455.225
102446.42
102436.377
102427.068
102415.116
102403.004
102389.529
102375.115
102360.405
102344.989
102327.769
102310.065
102292.247
102274.228
102256.531
102240.099
102221.45
102204.263
102187.913
102172.367
102159.104
102142.057
102127.677
102114.764
102102.771
102090.842
102078.9
102068.421
102058.987
102049.201
102038.915
102029.93
102022.048
102013.283
102003.583
101994.878
101987.063
101977.852
101967.669
101958.795
101951.164
101942.308
101932.847
101924.792
101918.052
101909.757
101900.818
101892.504
101884.086
101874.377
101864.731
101856.225
101844.995
101832.506
101820.163
101806.9
101792.334
101778.457
101766.431
101752.42
101738.093
101726.241
101715.577
101707.577
101701.723
101697.9
101695.315
101693.481
101692.918
101693.658
101696.11
101698.693
101698.646
101702.131
101709.984
101721.17
101729.602
101737.142
101742.34
101745.134
101747.199
101748.584
101749.297
101749.647
101748.989
101747.311
101743.197
101738.175
101731.763
101724.07
101715.784
101708.015
101701.704
101695.094
101688.562
101682.84
101674.297
101665.051
101659.036
101642.16
101624.183
101609.394
101594.021
101575.139
101555.074
101534.021
101508.63
101483.457
101460.257
101429.942
101400
101367.845
101334.565
101297.341
101271.747
101241.16
101207.629
101173.183
101136.941
101097.51
101062.159
101031.477
100989.109
100946.736
100901.372
100854.639
100805.935
100755.823
100703.965
100650.558
100595.148
100539.382
100483.241
100421.889
100359.168
100293.402
100227.869
100163.493
100097.925
100031.855
99964.9741
99895.4537
99829.8655
99769.6911
99707.0634
99648.8656
99594.8457
99543.0319
99494.0432
99449.5407
99409.8862
99382.2363
99365.2897
99345.6129
99333.7952
99331.2943
99335.1421
99342.2616
99350.6362
99395.0315
99422.0599
99458.7012
99499.3521
99539.6189
99579.7968
99618.1877
99674.6792
99709.8694
99750.6204
99792.4573
99833.807
99874.5119
99914.9225
99952.164
99988.7377
100024.256
100061.674
100097.919
100131.759
100164.016
100195.809
100231.564
100266.887
100302.561
100337.452
100370.638
100403.933
100436.884
100469.489
100501.741
100532.675
100560.353
100594.249
100625.749
100656.25
100685.004
100710.94
100736.866
100763.188
100789.615
100814.482
100837.243
100861.173
100888.307
100915.257
100939.447
100964.179
100989.253
101014.442
101042.819
101061.282
101085.459
101108.542
101131.632
101153.465
101182.311
101202.28
101224.348
101247.159
101270.547
101296.354
101317.016
101338.133
101360.081
101381.643
101403.267
101428.834
101442.025
101463.764
101483.28
101502.942
101522.755
101540.831
101557.692
101574.444
101590.748
101607.092
101622.321
101635.239
101646.734
101656.571
101664.344
101669.533
101671.653
101670.674
101665.843
101663.82
101655.161
101646.624
101638.08
101629.639
101627.835
101623.052
101621.083
101621.507
101621.702
101625.738
101626.744
101630.459
101634.84
101639.783
101645.657
101652.7
101662.374
101674.044
101686.531
101698.412
101711.435
101726.35
101741.977
101756.887
101773.235
101790.365
101812.722
101828.778
101849.412
101872.883
101897.944
101925.402
101956.175
101988.605
102022.669
102058.849
102098.826
102138.221
102177.559
102215.175
102251.694
102288.709
102320.734
102352.893
102384.281
102413.943
102438.621
102463.559
102487.672
102512.7
102537.832
102562.095
102585.204
102611.958
102641.008
102663.555
102683.329
102701.991
102718.315
102732.657
102747.081
102758.549
102766.729
102774.316
102785.886
102794.909
102800.619
102804.417
102806.912
102809.787
102810.57
102814.136
102820.612
102820.809
102820.881
102814.152
102807.492
102802.362
102796.712
102783.298
102768.487
102752.164
102733.6
102711.276
102683.751
102652.799
102616.368
102577.648
102539.755
102497.265
102452.46
102408.587
102376.212
102358.419
102340.518
102320.451
102299.716
102277.938
102254.061
102232.543
102212.95
102193.645
102175.364
102160.12
102147.245
102133.007
102119.698
102107.256
102094.605
102080.936
102055.163
102028.151
102005.656
101982.487
101957.259
101930.836
101903.654
101876.808
101850.817
101824.984
101800.008
101772.408
101743.895
101720.387
101697.577
101673.195
101649.437
101629.179
101609.456
101587.976
101565.307
101541.764
101519.083
101498.098
101476.585
101454.01
101429.903
101404.064
101377.039
101349.214
101319.188
101285.304
101247.524
101206.089
101163.044
101124.139
101089.263
101055.572
101020.371
100981.833
100939.957
100895.094
100840.434
100781.411
100717.244
100650.094
100577.884
100504.288
100424.602
100344.255
100264.9
100188.424
100116.397
100048.788
99985.4441
99930.8193
99885.7122
99850.0199
99821.9519
99795.9382
99781.498
99777.3795
99787.0341
99804.551
99818.2313
99845.9643
99883.2455
99923.8227
99964.9428
100008.74
100051.859
100098.671
100158.635
100216.424
100272.691
100326.525
100403.665
100462.149
100517.428
100572.515
100624.219
100671.901
100718.323
100761.35
100801.494
100840.002
100874.616
100907.871
100937.975
100965.195
100991.31
101016.989
101039.678
101059.713
101078.556
101098.56
101117.563
101134.519
101151.485
101169.311
101189.55
101190.87
101211.927
101229.111
101243.76
101256.032
101267.885
101278.115
101287.925
101297.387
101304.91
101312.036
101317.741
101322.325
101325.053
101327.414
101328.691
101329.375
101329.132
101328.056
101326.645
101324.836
101322.596
101320.318
101318.631
101316
101313.366
101310.746
101308.022
101305.151
101300.874
101299.701
101294.675
101291.246
101287.232
101278.88
101271.755
101265.845
101259.363
101253.624
101252.351
101245.743
101244.234
101241.989
101240.015
101242.565
101238.862
101239.59
101239.471
101244.467
101255.136
101246.092
101251.031
101256.918
101262.962
101268.129
101271.372
101276.444
101283.131
101290.62
101298.495
101304.86
101311.916
101319.467
101327.231
101335.313
101344.788
101355.02
101365.363
101375.994
101386.812
101398.711
101415.598
101419.642
101432.857
101444.394
101455.619
101471.341
101481.498
101494.779
101506.597
101519.843
101532.648
101543.741
101554.997
101565.661
101576.339
101587.961
101604.364
101607.201
101618.882
101628.716
101639.421
101648.827
101655.706
101663.369
101672.292
101679.921
101685.071
101690.678
101696.971
101706.254
101701.339
101704.571
101706.265
101708.675
101710.317
101711.04
101711.559
101712.07
101713.021
101712.574
101712.818
101713.996
101715.722
101715.435
101718.09
101719.347
101720.622
101721.891
101723.466
101725.566
101727.325
101727.821
101728.819
101730.849
101732.294
101732.736
101733.766
101734.934
101735.564
101743.117
101741.134
101741.475
101743.623
101745.789
101747.566
101750.325
101753.548
101756.307
101759.193
101764.094
101770.259
101776.731
101781.658
101788.262
101795.559
101804.496
101814.041
101825.101
101837.472
101851.078
101864.941
101882.99
101897.47
101915.248
101935.268
101956.051
101975.918
101997.284
102022.021
102046.655
102069.542
102092.34
102121.261
102149.027
102174.921
102199.887
102225.749
102252.742
102280.29
102305.826
102330.543
102355.382
102380.051
102405.212
102431.066
102457.138
102482.755
102510.841
102539.231
102568.215
102597.46
102624.698
102654.605
102685.35
102714.058
102743.785
102774.35
102805.924
102840.39
102876.42
102913.036
102945.962
102981.188
103016.773
103051.513
103085.499
103115.413
103145.334
103173.969
103203.621
103232.277
103258.62