/*--------------------------------*- C++ -*----------------------------------*\
| =========                 |                                                 |
| \\      /  F ield         | OpenFOAM: The Open Source CFD Toolbox           |
|  \\    /   O peration     | Version:  2306                                  |
|   \\  /    A nd           | Website:  www.openfoam.com                      |
|    \\/     M anipulation  |                                                 |
\*---------------------------------------------------------------------------*/
FoamFile
{
    version     2.0;
    format      ascii;
    arch        "LSB;label=32;scalar=64";
    class       volScalarField;
    location    "0.00052";
    object      p;
}
// * * * * * * * * * * * * * * * * * * * * * * * * * * * * * * * * * * * * * //

dimensions      [1 -1 -2 0 0 0 0];

internalField   nonuniform List<scalar> 
531
(
101913.5
101916.665
101920.078
101923.525
101926.829
101930.215
101933.693
101937.252
101940.771
101944.26
101947.717
101951.36
101954.947
101958.353
101961.802
101965.315
101968.862
101972.34
101975.634
101978.94
101982.225
101985.423
101988.393
101991.199
101993.872
101996.516
102000.645
102004.434
102008.151
102011.817
102015.403
102018.796
102021.917
102024.996
102028.002
102030.878
102033.482
102035.872
102037.925
102039.958
102042.903
102045.483
102047.963
102050.299
102052.451
102054.312
102055.862
102057.333
102058.638
102059.703
102060.419
102060.887
102061.807
102062.736
102063.473
102064.101
102064.592
102064.906
102065.025
102066.866
102068.359
102069.832
102071.214
102072.476
102073.528
102074.394
102075.318
102076.182
102076.926
102077.583
102078.233
102078.77
102079.473
102080.392
102081.195
102082.159
102083.16
102084.133
102084.945
102085.712
102086.156
102086.705
102087.097
102087.453
102087.575
102087.792
102087.893
102087.916
102088.122
102088.352
102088.527
102088.506
102088.444
102087.527
102086.873
102086.268
102085.31
102084.329
102083.134
102081.696
102079.941
102078.012
102075.369
102072.551
102069.357
102065.999
102062.041
102057.766
102053.094
102048.078
102042.86
102040.997
102038.66
102035.9
102032.903
102029.242
102025.365
102021.209
102016.919
102012.614
102007.971
102003.042
101998.046
101992.971
101987.779
101982.637
101977.15
101971.536
101965.912
101960.246
101954.733
101948.605
101942.469
101936.605
101930.828
101924.885
101918.813
101912.824
101906.82
101901.038
101894.533
101887.96
101881.699
101875.513
101869.226
101862.815
101856.581
101850.353
101844.344
101837.63
101830.906
101824.544
101818.252
101811.414
101804.369
101797.449
101791.065
101784.846
101778.773
101772.636
101766.761
101761.091
101755.05
101749.023
101743.279
101737.65
101731.915
101726.05
101720.539
101715.119
101709.876
101704.223
101698.555
101693.094
101687.72
101682.255
101676.667
101671.406
101666.243
101661.242
101655.833
101650.41
101645.21
101640.079
101634.869
101629.558
101624.578
101619.695
101614.952
101609.833
101604.731
101599.862
101595.068
101590.214
101585.281
101580.674
101576.179
101571.816
101567.129
101562.472
101558.056
101553.714
101549.304
101544.815
101540.631
101536.549
101532.549
101528.547
101524.501
101520.478
101516.712
101513.033
101509.458
101505.602
101501.766
101498.119
101494.524
101490.871
101487.145
101483.66
101480.258
101476.905
101473.512
101470.057
101466.822
101463.651
101460.556
101457.208
101453.865
101450.674
101447.522
101444.33
101441.071
101438.01
101435.001
101432.023
101429.009
101425.927
101423.026
101420.16
101417.353
101414.303
101411.233
101408.275
101405.369
101402.222
101399.044
101395.979
101392.96
101389.682
101386.368
101383.165
101379.974
101376.727
101373.386
101370.212
101367.036
101363.903
101360.476
101356.996
101353.609
101350.254
101346.601
101342.882
101339.261
101335.638
101331.924
101328.087
101324.418
101320.719
101317.055
101313.036
101308.934
101304.932
101300.962
101296.628
101292.213
101287.93
101283.66
101279.269
101274.746
101270.505
101266.404
101262.319
101257.195
101252.045
101246.812
101241.518
101236
101231.51
101226.913
101220.865
101216.341
101211.744
101207.851
101203.879
101199.523
101194.919
101190.258
101186.694
101183.147
101179.43
101175.593
101171.756
101168.568
101165.522
101162.193
101158.931
101156.36
101153.915
101151.42
101148.902
101146.43
101144.467
101142.637
101140.601
101138.652
101137.287
101135.984
101134.436
101132.944
101131.628
101130.826
101130.142
101129.475
101128.854
101128.379
101128.41
101128.547
101128.598
101128.787
101129.22
101130.046
101130.957
101131.569
101132.44
101133.643
101135.143
101136.719
101138.003
101139.576
101141.461
101143.525
101145.659
101147.713
101150.028
101152.484
101154.979
101157.466
101160.01
101162.596
101165.17
101167.595
101169.854
101172.116
101177.846
101183.489
101188.786
101193.949
101198.998
101204.226
101209.539
101214.58
101219.607
101224.684
101229.777
101234.669
101239.553
101244.532
101249.623
101254.717
101259.574
101264.435
101269.368
101274.322
101279.067
101283.802
101288.639
101293.582
101298.506
101303.182
101307.847
101312.574
101317.308
101321.808
101326.285
101330.856
101335.517
101340.136
101344.5
101348.841
101353.232
101357.619
101361.751
101365.853
101370.05
101374.325
101378.546
101382.519
101386.459
101390.437
101394.407
101398.111
101401.8
101405.523
101409.233
101412.671
101416.088
101419.556
101423.028
101426.294
101429.526
101432.804
101436.095
101439.185
101442.246
101445.358
101448.486
101451.42
101454.335
101457.306
101460.3
101463.084
101465.867
101468.727
101471.652
101474.546
101477.359
101480.238
101483.16
101486.056
101488.795
101491.485
101494.157
101496.891
101499.098
101502.047
101505.336
101508.581
101511.531
101514.484
101517.475
101520.453
101523.264
101526.014
101528.789
101531.603
101534.299
101536.855
101539.434
101542.037
101544.619
101547.075
101549.468
101551.878
101554.302
101556.68
101559.052
101561.093
101563.22
101565.477
101567.578
101569.607
101571.68
101573.814
101575.783
101577.711
101579.656
101581.601
101583.535
101585.483
101587.028
101588.726
101590.549
101592.258
101593.915
101595.593
101597.292
101598.826
101600.323
101601.844
101603.374
101604.693
101605.987
101607.293
101608.583
101609.724
101610.833
101611.935
101613.023
101614.077
101615.061
101616.022
101616.972
101617.585
101618.254
101618.971
101619.588
101620.141
101620.653
101621.112
101621.527
101621.891
101622.079
101622.234
101622.369
101622.415
101622.392
101622.319
101622.197
101621.889
101621.537
101621.137
101620.677
101620.031
101619.346
101618.604
101617.773
101616.843
101615.849
101614.761
101613.536
101612.206
101610.842
101609.405
101607.885
101606.252
101604.559
101602.81
101600.993
101599.056
)
;

boundaryField
{
    closed
    {
        type            zeroGradient;
    }
    open
    {
        type            waveTransmissive;
        gamma           1.25;
        fieldInf        101325;
        lInf            1;
        value           nonuniform List<scalar> 0();
    }
    sides
    {
        type            empty;
    }
    procBoundary1to0
    {
        type            processor;
        value           uniform 101910.137;
    }
    procBoundary1to2
    {
        type            processor;
        value           uniform 101597.097;
    }
}


// ************************************************************************* //
