/*--------------------------------*- C++ -*----------------------------------*\
| =========                 |                                                 |
| \\      /  F ield         | OpenFOAM: The Open Source CFD Toolbox           |
|  \\    /   O peration     | Version:  2306                                  |
|   \\  /    A nd           | Website:  www.openfoam.com                      |
|    \\/     M anipulation  |                                                 |
\*---------------------------------------------------------------------------*/
FoamFile
{
    version     2.0;
    format      ascii;
    arch        "LSB;label=32;scalar=64";
    class       volScalarField;
    location    "0.00052";
    object      prefDZ_T;
}
// * * * * * * * * * * * * * * * * * * * * * * * * * * * * * * * * * * * * * //

dimensions      [1 -1 -1 -1 0 0 0];

internalField   nonuniform List<scalar> 
531
(
-1.22815712e-09
-1.18919581e-09
-1.19073988e-09
-1.22926176e-09
-1.2279087e-09
-1.19239415e-09
-1.18671145e-09
-1.19742868e-09
-1.22962467e-09
-1.22020835e-09
-1.18917986e-09
-1.19062131e-09
-1.2295122e-09
-1.22744492e-09
-1.19550651e-09
-1.18717338e-09
-1.1908397e-09
-1.2303441e-09
-1.22820842e-09
-1.19126988e-09
-1.18665439e-09
-1.20457671e-09
-1.22927035e-09
-1.21181734e-09
-1.18909281e-09
-1.19070773e-09
-1.22983483e-09
-1.22721101e-09
-1.19597078e-09
-1.18725646e-09
-1.19127825e-09
-1.23024216e-09
-1.22784908e-09
-1.19389716e-09
-1.18682669e-09
-1.19669832e-09
-1.23007284e-09
-1.22014202e-09
-1.18942082e-09
-1.19084158e-09
-1.22996769e-09
-1.22717321e-09
-1.19543318e-09
-1.18706312e-09
-1.19107988e-09
-1.23065079e-09
-1.22819397e-09
-1.19276832e-09
-1.18691715e-09
-1.19655685e-09
-1.23035151e-09
-1.23353975e-09
-1.18908971e-09
-1.18823372e-09
-1.23257002e-09
-1.22755154e-09
-1.20088899e-09
-1.18834719e-09
-1.19055461e-09
-1.23055066e-09
-1.22726569e-09
-1.19392235e-09
-1.18708443e-09
-1.19206633e-09
-1.23078109e-09
-1.22758863e-09
-1.19213471e-09
-1.18706493e-09
-1.20597216e-09
-1.22960322e-09
-1.21306049e-09
-1.18868767e-09
-1.19027518e-09
-1.23051506e-09
-1.22705645e-09
-1.19300918e-09
-1.18682186e-09
-1.19478982e-09
-1.23053533e-09
-1.21964369e-09
-1.18881736e-09
-1.19629595e-09
-1.22989322e-09
-1.21554254e-09
-1.18907784e-09
-1.19257045e-09
-1.22991771e-09
-1.22742222e-09
-1.19165225e-09
-1.18675244e-09
-1.1957457e-09
-1.23060119e-09
-1.2342307e-09
-1.18840353e-09
-1.18818369e-09
-1.23352953e-09
-1.22752454e-09
-1.19449936e-09
-1.18760253e-09
-1.19735962e-09
-1.23006668e-09
-1.22138706e-09
-1.18815551e-09
-1.19441508e-09
-1.22997448e-09
-1.21256569e-09
-1.18915043e-09
-1.19591025e-09
-1.22905069e-09
-1.22735184e-09
-1.19044631e-09
-1.18666896e-09
-1.19939378e-09
-1.22964168e-09
-1.21601388e-09
-1.18933129e-09
-1.19458976e-09
-1.22870717e-09
-1.22616325e-09
-1.20492055e-09
-1.188743e-09
-1.18824468e-09
-1.18744466e-09
-1.19878489e-09
-1.22934208e-09
-1.20750319e-09
-1.189405e-09
-1.20015239e-09
-1.22847025e-09
-1.22758718e-09
-1.18940432e-09
-1.18685737e-09
-1.20979954e-09
-1.22882851e-09
-1.2003744e-09
-1.18933266e-09
-1.20432485e-09
-1.22833452e-09
-1.23081156e-09
-1.18791091e-09
-1.18639486e-09
-1.21109995e-09
-1.22884304e-09
-1.19774022e-09
-1.18927022e-09
-1.20707728e-09
-1.22805538e-09
-1.23085433e-09
-1.18812424e-09
-1.1869414e-09
-1.2093694e-09
-1.22879452e-09
-1.22049743e-09
-1.18745874e-09
-1.18680517e-09
-1.21603186e-09
-1.22835642e-09
-1.19222101e-09
-1.18836046e-09
-1.23260458e-09
-1.22732891e-09
-1.19047267e-09
-1.1890333e-09
-1.2317967e-09
-1.22752193e-09
-1.20502226e-09
-1.1872074e-09
-1.18723991e-09
-1.23275274e-09
-1.22736065e-09
-1.19007856e-09
-1.18925284e-09
-1.22929971e-09
-1.2275524e-09
-1.19836256e-09
-1.1868215e-09
-1.18730104e-09
-1.23297412e-09
-1.22717017e-09
-1.18968318e-09
-1.18913761e-09
-1.22826807e-09
-1.22751469e-09
-1.19828355e-09
-1.18650374e-09
-1.1875452e-09
-1.22975056e-09
-1.22713664e-09
-1.18914215e-09
-1.18914897e-09
-1.22758617e-09
-1.22738392e-09
-1.19885876e-09
-1.1863601e-09
-1.18776449e-09
-1.22867205e-09
-1.22704793e-09
-1.18895786e-09
-1.1892866e-09
-1.22744525e-09
-1.22714889e-09
-1.20299656e-09
-1.18686437e-09
-1.18842762e-09
-1.22733528e-09
-1.2263904e-09
-1.19813739e-09
-1.18928484e-09
-1.1870661e-09
-1.18762082e-09
-1.22849766e-09
-1.22694598e-09
-1.18904347e-09
-1.18912316e-09
-1.22736231e-09
-1.22701378e-09
-1.20392307e-09
-1.18675651e-09
-1.1880245e-09
-1.22708143e-09
-1.22754191e-09
-1.20085911e-09
-1.18633088e-09
-1.18748694e-09
-1.22794335e-09
-1.2267895e-09
-1.18892221e-09
-1.18881295e-09
-1.22730179e-09
-1.22706885e-09
-1.2005033e-09
-1.18638029e-09
-1.18753926e-09
-1.22719683e-09
-1.22767677e-09
-1.19931872e-09
-1.18593152e-09
-1.18689768e-09
-1.22861303e-09
-1.22683417e-09
-1.18884514e-09
-1.18787189e-09
-1.22888875e-09
-1.2266865e-09
-1.18901157e-09
-1.18807287e-09
-1.22886199e-09
-1.22682371e-09
-1.18899507e-09
-1.18835141e-09
-1.22829346e-09
-1.22763191e-09
-1.19790764e-09
-1.18579763e-09
-1.18634341e-09
-1.2292025e-09
-1.22703908e-09
-1.18894422e-09
-1.18779585e-09
-1.23000266e-09
-1.22693855e-09
-1.18939442e-09
-1.18835544e-09
-1.22940459e-09
-1.2275566e-09
-1.19946034e-09
-1.18620524e-09
-1.18607835e-09
-1.22954293e-09
-1.22716417e-09
-1.18941152e-09
-1.18762167e-09
-1.23115244e-09
-1.22702512e-09
-1.18962962e-09
-1.18824981e-09
-1.23087731e-09
-1.22753727e-09
-1.20345624e-09
-1.1871407e-09
-1.18804694e-09
-1.23068141e-09
-1.22623699e-09
-1.22710107e-09
-1.19253011e-09
-1.18781656e-09
-1.18667917e-09
-1.18688112e-09
-1.23353824e-09
-1.22832218e-09
-1.23042994e-09
-1.18820282e-09
-1.18657186e-09
-1.23264833e-09
-1.2285569e-09
-1.2196383e-09
-1.18735469e-09
-1.18680734e-09
-1.23322972e-09
-1.22818763e-09
-1.21192173e-09
-1.18786678e-09
-1.1872298e-09
-1.23231482e-09
-1.22759411e-09
-1.19092659e-09
-1.18801531e-09
-1.23278612e-09
-1.22771882e-09
-1.21177496e-09
-1.18821314e-09
-1.18741273e-09
-1.22945138e-09
-1.22775824e-09
-1.19114004e-09
-1.18763345e-09
-1.22708406e-09
-1.2280012e-09
-1.22197483e-09
-1.18821349e-09
-1.18730776e-09
-1.22646524e-09
-1.22854987e-09
-1.21140181e-09
-1.18708201e-09
-1.1863042e-09
-1.22442724e-09
-1.22850825e-09
-1.21864667e-09
-1.18803713e-09
-1.18716826e-09
-1.21985955e-09
-1.22851513e-09
-1.22727501e-09
-1.18869573e-09
-1.18746356e-09
-1.21835472e-09
-1.22856521e-09
-1.22673825e-09
-1.18923663e-09
-1.18770849e-09
-1.21894933e-09
-1.22773714e-09
-1.21864068e-09
-1.19161324e-09
-1.18757466e-09
-1.18690662e-09
-1.21916613e-09
-1.2285111e-09
-1.19541942e-09
-1.18813855e-09
-1.21100494e-09
-1.22878756e-09
-1.22866096e-09
-1.19069452e-09
-1.18718292e-09
-1.21316302e-09
-1.22926461e-09
-1.21821086e-09
-1.18926057e-09
-1.18775459e-09
-1.21668609e-09
-1.22827796e-09
-1.19754072e-09
-1.18913412e-09
-1.22020078e-09
-1.22828505e-09
-1.2064299e-09
-1.1882526e-09
-1.18725437e-09
-1.21998345e-09
-1.22797505e-09
-1.19770651e-09
-1.18924325e-09
-1.22059954e-09
-1.22817606e-09
-1.20639878e-09
-1.18826508e-09
-1.1873344e-09
-1.21979832e-09
-1.22801342e-09
-1.19751759e-09
-1.1892434e-09
-1.22078543e-09
-1.22817285e-09
-1.20640262e-09
-1.18823742e-09
-1.18735033e-09
-1.21962509e-09
-1.22813615e-09
-1.19704975e-09
-1.18925334e-09
-1.22149017e-09
-1.22818813e-09
-1.20603435e-09
-1.1879914e-09
-1.18701167e-09
-1.21888345e-09
-1.22853744e-09
-1.19581525e-09
-1.18872032e-09
-1.22035573e-09
-1.22912358e-09
-1.19389855e-09
-1.18888095e-09
-1.22113229e-09
-1.22825015e-09
-1.19685092e-09
-1.1876241e-09
-1.21424391e-09
-1.22878554e-09
-1.19709611e-09
-1.18775958e-09
-1.21452253e-09
-1.22868408e-09
-1.19696834e-09
-1.18788964e-09
-1.2152934e-09
-1.22849059e-09
-1.19651473e-09
-1.18829601e-09
-1.21834359e-09
-1.22846887e-09
-1.2014891e-09
-1.1881752e-09
-1.19360058e-09
-1.23003941e-09
-1.22850114e-09
-1.19078528e-09
-1.18587936e-09
-1.20784923e-09
-1.22956036e-09
-1.193099e-09
-1.1897093e-09
-1.2332246e-09
-1.23360043e-09
-1.18987638e-09
-1.18933998e-09
-1.2321494e-09
-1.22739477e-09
-1.19722147e-09
-1.18711225e-09
-1.20926942e-09
-1.22904873e-09
-1.20918789e-09
-1.18867215e-09
-1.19053571e-09
-1.23029899e-09
-1.22803264e-09
-1.19200559e-09
-1.18665871e-09
-1.20430834e-09
-1.22921309e-09
-1.20297949e-09
-1.18840936e-09
-1.20713883e-09
-1.22746741e-09
-1.23140492e-09
-1.19178367e-09
-1.18763123e-09
-1.18919462e-09
-1.23116267e-09
-1.2109082e-09
-1.18871036e-09
-1.2141331e-09
-1.22805731e-09
-1.2011661e-09
-1.18892919e-09
-1.20866812e-09
-1.22786996e-09
-1.23317656e-09
-1.18848033e-09
-1.18624977e-09
-1.20201974e-09
-1.2290853e-09
-1.20157616e-09
-1.18811443e-09
-1.21312548e-09
-1.22776609e-09
-1.19912092e-09
-1.18863781e-09
-1.21722218e-09
-1.22721121e-09
-1.19871271e-09
-1.18960158e-09
-1.21860962e-09
-1.22649033e-09
-1.21677639e-09
-1.19382e-09
-1.18815137e-09
-1.18750188e-09
-1.20368737e-09
-1.22816556e-09
-1.22900701e-09
-1.18829627e-09
-1.18674945e-09
-1.20616736e-09
-1.22854455e-09
-1.20068085e-09
-1.18894275e-09
-1.21509303e-09
-1.22757062e-09
-1.22392394e-09
-1.1884665e-09
-1.18679633e-09
-1.20642437e-09
-1.22836882e-09
-1.19862901e-09
-1.18815058e-09
-1.22011593e-09
-1.22754117e-09
-1.19565373e-09
-1.188168e-09
-1.22224453e-09
-1.22752989e-09
-1.19526648e-09
-1.18836799e-09
-1.22217442e-09
-1.22756629e-09
-1.21288029e-09
-1.18795566e-09
-1.18683224e-09
-1.20914831e-09
-1.22820103e-09
-1.19702436e-09
-1.18736866e-09
-1.21961191e-09
-1.22773984e-09
-1.19418529e-09
-1.18722802e-09
-1.21948071e-09
)
;

boundaryField
{
    closed
    {
        type            calculated;
        value           nonuniform List<scalar> 0();
    }
    open
    {
        type            calculated;
        value           nonuniform List<scalar> 0();
    }
    sides
    {
        type            empty;
    }
    procBoundary1to0
    {
        type            processor;
        value           uniform -1.229864e-09;
    }
    procBoundary1to2
    {
        type            processor;
        value           uniform -1.22755754e-09;
    }
}


// ************************************************************************* //
