/*--------------------------------*- C++ -*----------------------------------*\
| =========                 |                                                 |
| \\      /  F ield         | OpenFOAM: The Open Source CFD Toolbox           |
|  \\    /   O peration     | Version:  2306                                  |
|   \\  /    A nd           | Website:  www.openfoam.com                      |
|    \\/     M anipulation  |                                                 |
\*---------------------------------------------------------------------------*/
FoamFile
{
    version     2.0;
    format      ascii;
    arch        "LSB;label=32;scalar=64";
    class       volScalarField;
    location    "0.00124";
    object      alpha;
}
// * * * * * * * * * * * * * * * * * * * * * * * * * * * * * * * * * * * * * //

dimensions      [1 -1 -1 0 0 0 0];

internalField   nonuniform List<scalar> 
531
(
3.67761016e-05
3.68408221e-05
3.60433993e-05
3.55597521e-05
3.5596511e-05
3.5858228e-05
3.57374884e-05
3.56547052e-05
3.68002939e-05
3.68865577e-05
3.57400252e-05
3.5556234e-05
3.67919054e-05
3.68671477e-05
3.60828987e-05
3.56723308e-05
3.54537539e-05
3.56460281e-05
3.59821619e-05
3.57314915e-05
3.57069375e-05
3.68094586e-05
3.6827364e-05
3.60389001e-05
3.51993388e-05
3.51834397e-05
3.67836185e-05
3.6843624e-05
3.55602832e-05
3.53675566e-05
3.68053487e-05
3.6813141e-05
3.61279711e-05
3.52893356e-05
3.52824218e-05
3.68127854e-05
3.680507e-05
3.58976525e-05
3.54961266e-05
3.54652288e-05
3.50668129e-05
3.510196e-05
3.66670332e-05
3.68118534e-05
3.67633826e-05
3.68175617e-05
3.67776831e-05
3.59219851e-05
3.54641298e-05
3.5430595e-05
3.50995023e-05
3.51118909e-05
3.68205427e-05
3.68346674e-05
3.56527055e-05
3.55020884e-05
3.68666627e-05
3.68129239e-05
3.59126557e-05
3.51798465e-05
3.52462076e-05
3.68743159e-05
3.68240894e-05
3.58372933e-05
3.54354945e-05
3.5436838e-05
3.5300177e-05
3.52557915e-05
3.59224295e-05
3.6831668e-05
3.68378338e-05
3.68344307e-05
3.68192035e-05
3.57921975e-05
3.5162676e-05
3.52903612e-05
3.66830403e-05
3.68147474e-05
3.58020981e-05
3.514991e-05
3.52942632e-05
3.64615865e-05
3.6835343e-05
3.58833068e-05
3.53757701e-05
3.53271908e-05
3.57601192e-05
3.68520347e-05
3.68593043e-05
3.56943109e-05
3.531013e-05
3.60099401e-05
3.68245243e-05
3.58126112e-05
3.52936127e-05
3.52482477e-05
3.5232583e-05
3.6501346e-05
3.68180466e-05
3.57734182e-05
3.53546309e-05
3.65993654e-05
3.68226774e-05
3.57608673e-05
3.55077461e-05
3.59299111e-05
3.68224124e-05
3.67569223e-05
3.54608742e-05
3.51947652e-05
3.58305266e-05
3.68319111e-05
3.68439514e-05
3.57061095e-05
3.51185729e-05
3.55193163e-05
3.68699268e-05
3.68624283e-05
3.57083118e-05
3.54897201e-05
3.62099486e-05
3.68379456e-05
3.59550823e-05
3.54931241e-05
3.55300686e-05
3.54899688e-05
3.57170773e-05
3.60169988e-05
3.57387804e-05
3.56825839e-05
3.68787462e-05
3.68695927e-05
3.56788266e-05
3.54089459e-05
3.6781862e-05
3.68632029e-05
3.57208674e-05
3.54144252e-05
3.68131462e-05
3.68625396e-05
3.57545989e-05
3.55697794e-05
3.59457581e-05
3.6851158e-05
3.68592637e-05
3.55984594e-05
3.51996564e-05
3.57052816e-05
3.60204399e-05
3.57771455e-05
3.57134191e-05
3.67992862e-05
3.684644e-05
3.59170176e-05
3.5445182e-05
3.52502178e-05
3.53941415e-05
3.62034352e-05
3.68170782e-05
3.68385536e-05
3.52746492e-05
3.51972495e-05
3.68568314e-05
3.68345166e-05
3.573021e-05
3.54670945e-05
3.60172973e-05
3.68580639e-05
3.68404856e-05
3.57342817e-05
3.54054102e-05
3.56891283e-05
3.59251599e-05
3.57465346e-05
3.57095139e-05
3.68950752e-05
3.68488627e-05
3.57477819e-05
3.53457976e-05
3.5335334e-05
3.54165675e-05
3.6259114e-05
3.68330116e-05
3.68257761e-05
3.57536609e-05
3.56754828e-05
3.68082756e-05
3.68255277e-05
3.58663403e-05
3.5529695e-05
3.55340699e-05
3.53551783e-05
3.57066354e-05
3.68317362e-05
3.68515961e-05
3.68147928e-05
3.5713395e-05
3.53648939e-05
3.54489961e-05
3.51579536e-05
3.54663075e-05
3.68578576e-05
3.68458874e-05
3.55073703e-05
3.52577527e-05
3.65025304e-05
3.68337949e-05
3.56398792e-05
3.53443802e-05
3.68065189e-05
3.68252124e-05
3.56167153e-05
3.54608317e-05
3.68396706e-05
3.68266992e-05
3.56347586e-05
3.5559583e-05
3.68565667e-05
3.67997326e-05
3.57642838e-05
3.51469236e-05
3.54202342e-05
3.684845e-05
3.68159664e-05
3.5756605e-05
3.50278057e-05
3.52827966e-05
3.6823029e-05
3.68511427e-05
3.55493435e-05
3.54294656e-05
3.68568709e-05
3.68092067e-05
3.57487541e-05
3.50290325e-05
3.52359741e-05
3.67982476e-05
3.68504198e-05
3.55320913e-05
3.5320851e-05
3.68277913e-05
3.68321973e-05
3.55407598e-05
3.54153911e-05
3.6846646e-05
3.68060403e-05
3.55929359e-05
3.55751607e-05
3.68622317e-05
3.67785394e-05
3.57549913e-05
3.5116982e-05
3.54299705e-05
3.68360992e-05
3.67343315e-05
3.56106724e-05
3.56716326e-05
3.68297717e-05
3.67551242e-05
3.57646864e-05
3.530854e-05
3.55437484e-05
3.65390312e-05
3.67993305e-05
3.60011979e-05
3.53942249e-05
3.54886349e-05
3.61723818e-05
3.68386376e-05
3.67051757e-05
3.5441109e-05
3.52509566e-05
3.53435074e-05
3.51686411e-05
3.56717268e-05
3.6821373e-05
3.68066549e-05
3.67738061e-05
3.67844132e-05
3.67869155e-05
3.66750243e-05
3.57305046e-05
3.5288438e-05
3.52563179e-05
3.50668963e-05
3.56375709e-05
3.67941206e-05
3.66149016e-05
3.53654022e-05
3.50220997e-05
3.56682324e-05
3.67947718e-05
3.64996544e-05
3.57518032e-05
3.57534248e-05
3.58222942e-05
3.57528059e-05
3.57241635e-05
3.6614353e-05
3.68374491e-05
3.68185471e-05
3.63875694e-05
3.56392293e-05
3.56908021e-05
3.56958805e-05
3.57133404e-05
3.56660978e-05
3.64789874e-05
3.68654317e-05
3.63309755e-05
3.55843143e-05
3.56959229e-05
3.67489087e-05
3.68339731e-05
3.66096559e-05
3.54901078e-05
3.51575362e-05
3.57002217e-05
3.67853942e-05
3.67905095e-05
3.56935362e-05
3.51833098e-05
3.57115995e-05
3.67821873e-05
3.68019638e-05
3.57457845e-05
3.53526421e-05
3.5712919e-05
3.67883562e-05
3.68121336e-05
3.57380383e-05
3.53199473e-05
3.57151847e-05
3.67844273e-05
3.68235049e-05
3.57362694e-05
3.52934339e-05
3.56508277e-05
3.67891563e-05
3.68300825e-05
3.57394796e-05
3.52397871e-05
3.55392258e-05
3.67033714e-05
3.67404355e-05
3.56467472e-05
3.55780438e-05
3.6551632e-05
3.66741459e-05
3.5653504e-05
3.549608e-05
3.62322931e-05
3.68759018e-05
3.68851314e-05
3.6169005e-05
3.52105626e-05
3.51476539e-05
3.62356298e-05
3.65174741e-05
3.54436864e-05
3.52104604e-05
3.63686125e-05
3.70327625e-05
3.70545172e-05
3.52466795e-05
3.50033025e-05
3.66492488e-05
3.70536561e-05
3.70539551e-05
3.69683047e-05
3.52534587e-05
3.49800889e-05
3.65842559e-05
3.69208627e-05
3.68378406e-05
3.50163126e-05
3.47069876e-05
3.64353086e-05
3.67085629e-05
3.66608314e-05
3.66710735e-05
3.66554598e-05
3.66512341e-05
3.66362624e-05
3.66320907e-05
3.66192519e-05
3.66251926e-05
3.66356904e-05
3.66697219e-05
3.67260392e-05
3.68403185e-05
3.71456396e-05
3.71955096e-05
3.69215898e-05
3.67466312e-05
3.65127518e-05
3.63349468e-05
3.61553809e-05
3.60124461e-05
3.58768093e-05
3.57261627e-05
3.55422962e-05
3.55251848e-05
3.54424407e-05
3.52930315e-05
3.5157179e-05
3.50249092e-05
3.49309894e-05
3.48222972e-05
3.46146563e-05
3.42424076e-05
3.39771401e-05
3.36200548e-05
3.41068111e-05
3.60543525e-05
3.55800721e-05
3.509647e-05
3.45615005e-05
3.40351294e-05
3.34440814e-05
3.29298554e-05
3.22808544e-05
3.17587773e-05
3.13356152e-05
3.21446139e-05
3.1938588e-05
3.10262202e-05
3.37622799e-05
3.48089494e-05
3.60117633e-05
3.84176871e-05
3.89984502e-05
4.00298411e-05
4.20228304e-05
4.32135231e-05
4.4831879e-05
4.67303168e-05
4.93510804e-05
5.19628697e-05
5.42670951e-05
5.65514916e-05
5.84918737e-05
6.06650338e-05
6.20306218e-05
6.36345747e-05
6.4915474e-05
6.62755313e-05
6.74233802e-05
6.87349513e-05
6.96401653e-05
7.06023086e-05
7.12905561e-05
7.20575131e-05
7.26555071e-05
7.33265908e-05
7.38549616e-05
7.44315098e-05
7.49108824e-05
7.54226619e-05
7.58741852e-05
7.63141602e-05
7.67387711e-05
7.71078977e-05
7.75261217e-05
7.78377018e-05
7.8237e-05
7.8524775e-05
7.88797548e-05
7.91554252e-05
7.94675237e-05
7.97115212e-05
7.99331193e-05
8.01257476e-05
8.03371636e-05
8.05382333e-05
8.07360989e-05
8.09377931e-05
8.11317629e-05
8.13695593e-05
8.15993189e-05
8.17583797e-05
8.1897017e-05
8.20388133e-05
8.21659676e-05
8.2291284e-05
8.2402543e-05
8.2525928e-05
8.26403035e-05
8.27603532e-05
8.28707305e-05
8.29762303e-05
8.30701352e-05
8.31708064e-05
8.32628372e-05
8.33903657e-05
8.34970573e-05
8.36131948e-05
8.37110237e-05
8.38177876e-05
8.39027408e-05
8.39938385e-05
8.40715533e-05
8.41579736e-05
8.42326909e-05
8.43134474e-05
8.43830195e-05
8.44601048e-05
8.45285049e-05
8.46036306e-05
8.46711866e-05
8.47427441e-05
8.48026712e-05
8.48718896e-05
8.49365209e-05
8.50068603e-05
8.50688195e-05
8.5135501e-05
8.51950161e-05
8.52583563e-05
8.53148075e-05
8.53740656e-05
8.54275433e-05
8.54834619e-05
8.55342851e-05
8.55872506e-05
8.56357019e-05
8.56860656e-05
8.57323751e-05
8.5780461e-05
8.58223984e-05
8.5865228e-05
)
;

boundaryField
{
    closed
    {
        type            calculated;
        value           nonuniform List<scalar> 0();
    }
    open
    {
        type            calculated;
        value           nonuniform List<scalar> 0();
    }
    sides
    {
        type            empty;
    }
    procBoundary4to3
    {
        type            processor;
        value           uniform 3.68269081e-05;
    }
    procBoundary4to5
    {
        type            processor;
        value           uniform 8.59047297e-05;
    }
}


// ************************************************************************* //
