/*--------------------------------*- C++ -*----------------------------------*\
| =========                 |                                                 |
| \\      /  F ield         | OpenFOAM: The Open Source CFD Toolbox           |
|  \\    /   O peration     | Version:  2306                                  |
|   \\  /    A nd           | Website:  www.openfoam.com                      |
|    \\/     M anipulation  |                                                 |
\*---------------------------------------------------------------------------*/
FoamFile
{
    version     2.0;
    format      ascii;
    arch        "LSB;label=32;scalar=64";
    class       volScalarField;
    location    "0.0002";
    object      alpha;
}
// * * * * * * * * * * * * * * * * * * * * * * * * * * * * * * * * * * * * * //

dimensions      [1 -1 -1 0 0 0 0];

internalField   nonuniform List<scalar> 
531
(
3.57411624e-05
3.57336429e-05
3.58947512e-05
3.59529551e-05
3.58197016e-05
3.57826359e-05
3.58324634e-05
3.58668401e-05
3.58394728e-05
3.58193115e-05
3.5829267e-05
3.58407258e-05
3.58368232e-05
3.58311338e-05
3.58323796e-05
3.58349503e-05
3.58345855e-05
3.58335153e-05
3.58336084e-05
3.58340048e-05
3.58339823e-05
3.5833856e-05
3.58338618e-05
3.5833895e-05
3.58338912e-05
3.58338812e-05
3.58338885e-05
3.58338933e-05
3.58338846e-05
3.58338812e-05
3.58338889e-05
3.58338916e-05
3.58338856e-05
3.58338834e-05
3.58338882e-05
3.58338898e-05
3.58338859e-05
3.58338847e-05
3.58338881e-05
3.58338887e-05
3.58338858e-05
3.58338859e-05
3.58338888e-05
3.58338881e-05
3.58338839e-05
3.58338851e-05
3.58338914e-05
3.58338908e-05
3.58338816e-05
3.58338816e-05
3.58338915e-05
3.58338935e-05
3.58338847e-05
3.583388e-05
3.58338862e-05
3.58338937e-05
3.58338907e-05
3.58338812e-05
3.58338817e-05
3.5833891e-05
3.58338928e-05
3.58338853e-05
3.58338809e-05
3.58338864e-05
3.5833893e-05
3.58338896e-05
3.58338819e-05
3.58338834e-05
3.58338901e-05
3.58338898e-05
3.58338863e-05
3.58338864e-05
3.58338867e-05
3.58338848e-05
3.58338862e-05
3.58338922e-05
3.58338909e-05
3.58338798e-05
3.58338801e-05
3.58338942e-05
3.58338958e-05
3.58338817e-05
3.58338778e-05
3.58338899e-05
3.58338955e-05
3.5833886e-05
3.58338799e-05
3.58338868e-05
3.58338925e-05
3.58338877e-05
3.58338831e-05
3.58338863e-05
3.58338896e-05
3.58338873e-05
3.58338852e-05
3.58338873e-05
3.58338888e-05
3.5833886e-05
3.58338845e-05
3.58338882e-05
3.58338903e-05
3.58338865e-05
3.58338831e-05
3.58338859e-05
3.58338907e-05
3.58338899e-05
3.58338846e-05
3.58338839e-05
3.58338859e-05
3.58338891e-05
3.58338904e-05
3.5833889e-05
3.5833882e-05
3.58338807e-05
3.58338907e-05
3.58338976e-05
3.58338877e-05
3.58338728e-05
3.5833879e-05
3.58339033e-05
3.58339017e-05
3.58338727e-05
3.58338688e-05
3.58338949e-05
3.58339064e-05
3.58338868e-05
3.58338687e-05
3.583388e-05
3.58339026e-05
3.58338996e-05
3.58338755e-05
3.58338737e-05
3.58338907e-05
3.58338996e-05
3.58338921e-05
3.58338761e-05
3.58338766e-05
3.5833892e-05
3.58338995e-05
3.58338913e-05
3.58338741e-05
3.58338753e-05
3.58338962e-05
3.58339023e-05
3.58338861e-05
3.58338704e-05
3.58338782e-05
3.58339029e-05
3.5833902e-05
3.58338765e-05
3.58338696e-05
3.58338886e-05
3.5833905e-05
3.58338955e-05
3.58338701e-05
3.58338715e-05
3.58338979e-05
3.58339051e-05
3.58338866e-05
3.5833869e-05
3.58338753e-05
3.58339027e-05
3.58339036e-05
3.58338818e-05
3.58338695e-05
3.58338794e-05
3.58339028e-05
3.5833902e-05
3.58338792e-05
3.58338699e-05
3.58338837e-05
3.58339035e-05
3.58338999e-05
3.58338735e-05
3.58338706e-05
3.58338928e-05
3.58339047e-05
3.58338895e-05
3.58338692e-05
3.58338759e-05
3.58339044e-05
3.58339034e-05
3.58338739e-05
3.58338674e-05
3.58338926e-05
3.58339087e-05
3.58338911e-05
3.58338654e-05
3.58338716e-05
3.58339064e-05
3.58339064e-05
3.58338781e-05
3.58338674e-05
3.58338837e-05
3.58339036e-05
3.58338997e-05
3.58338763e-05
3.58338729e-05
3.58338876e-05
3.58338994e-05
3.58338949e-05
3.58338778e-05
3.58338771e-05
3.58338889e-05
3.5833896e-05
3.58338925e-05
3.58338805e-05
3.58338789e-05
3.5833887e-05
3.58338953e-05
3.58338934e-05
3.58338804e-05
3.58338781e-05
3.58338887e-05
3.58338964e-05
3.58338902e-05
3.58338787e-05
3.58338806e-05
3.58338931e-05
3.58338931e-05
3.58338843e-05
3.58338825e-05
3.58338875e-05
3.58338896e-05
3.58338873e-05
3.58338859e-05
3.58338867e-05
3.58338872e-05
3.58338871e-05
3.58338874e-05
3.58338874e-05
3.58338859e-05
3.58338858e-05
3.58338887e-05
3.58338896e-05
3.58338855e-05
3.58338826e-05
3.58338866e-05
3.58338932e-05
3.58338913e-05
3.58338798e-05
3.58338796e-05
3.58338918e-05
3.58338966e-05
3.58338866e-05
3.58338765e-05
3.58338821e-05
3.5833897e-05
3.58338957e-05
3.58338794e-05
3.5833877e-05
3.583389e-05
3.58338973e-05
3.58338891e-05
3.58338773e-05
3.58338801e-05
3.58338952e-05
3.58338957e-05
3.58338833e-05
3.5833878e-05
3.58338858e-05
3.5833895e-05
3.58338923e-05
3.58338809e-05
3.5833881e-05
3.58338898e-05
3.58338919e-05
3.58338864e-05
3.58338837e-05
3.58338871e-05
3.58338893e-05
3.58338861e-05
3.58338841e-05
3.58338889e-05
3.58338916e-05
3.58338853e-05
3.58338804e-05
3.58338872e-05
3.58338948e-05
3.58338888e-05
3.58338788e-05
3.58338835e-05
3.58338954e-05
3.58338921e-05
3.58338777e-05
3.58338789e-05
3.58338977e-05
3.58338984e-05
3.58338774e-05
3.58338716e-05
3.58338923e-05
3.58339054e-05
3.58338889e-05
3.5833868e-05
3.58338771e-05
3.58339036e-05
3.58339015e-05
3.5833876e-05
3.58338734e-05
3.58338907e-05
3.58338972e-05
3.58338877e-05
3.58338809e-05
3.58338853e-05
3.58338901e-05
3.58338876e-05
3.58338844e-05
3.58338872e-05
3.58338912e-05
3.58338878e-05
3.58338806e-05
3.58338831e-05
3.58338948e-05
3.58338944e-05
3.58338802e-05
3.58338774e-05
3.58338901e-05
3.58338973e-05
3.58338887e-05
3.58338775e-05
3.58338805e-05
3.58338944e-05
3.58338946e-05
3.58338848e-05
3.58338801e-05
3.58338837e-05
3.58338923e-05
3.58338923e-05
3.58338859e-05
3.58338816e-05
3.5833884e-05
3.58338916e-05
3.58338915e-05
3.58338847e-05
3.58338825e-05
3.58338871e-05
3.58338908e-05
3.58338882e-05
3.58338839e-05
3.58338852e-05
3.58338894e-05
3.5833889e-05
3.58338852e-05
3.58338852e-05
3.58338882e-05
3.58338884e-05
3.58338862e-05
3.58338859e-05
3.58338877e-05
3.58338879e-05
3.58338863e-05
3.58338861e-05
3.58338876e-05
3.58338878e-05
3.58338865e-05
3.58338863e-05
3.58338871e-05
3.58338873e-05
3.58338868e-05
3.58338867e-05
3.58338869e-05
3.58338867e-05
3.58338863e-05
3.58338862e-05
3.58338863e-05
3.58338858e-05
3.58338846e-05
3.58338842e-05
3.58338844e-05
3.5833883e-05
3.58338785e-05
3.58338765e-05
3.58338775e-05
3.58338765e-05
3.58338645e-05
3.58338543e-05
3.58338495e-05
3.58338513e-05
3.58338368e-05
3.58338092e-05
3.58337887e-05
3.58337897e-05
3.5833742e-05
3.58336865e-05
3.58338682e-05
3.58340384e-05
3.58330272e-05
3.58319799e-05
3.58356599e-05
3.58410594e-05
3.58310834e-05
3.58097361e-05
3.58326031e-05
3.59101588e-05
3.58567469e-05
3.57258628e-05
3.57264638e-05
3.64311855e-05
3.6309172e-05
3.56009247e-05
3.54344459e-05
3.5875934e-05
3.69028328e-05
3.68473452e-05
3.48444608e-05
3.46658895e-05
3.55262797e-05
3.70485433e-05
3.71158302e-05
3.69452474e-05
3.46830224e-05
3.51130516e-05
3.69842516e-05
3.69542985e-05
3.68352634e-05
3.68152095e-05
3.6728687e-05
3.68241259e-05
3.6796768e-05
3.686385e-05
3.68631823e-05
3.692231e-05
3.69728441e-05
3.70866686e-05
3.73527908e-05
3.71371615e-05
3.66777088e-05
3.65119614e-05
3.60295135e-05
3.61925791e-05
3.48724215e-05
3.52558208e-05
3.63370546e-05
3.74539234e-05
3.77179286e-05
3.74262707e-05
3.94271508e-05
3.7339336e-05
3.92628462e-05
3.91025361e-05
3.93667219e-05
4.07768762e-05
4.11423398e-05
4.07021542e-05
4.25927307e-05
4.6916143e-05
4.73324817e-05
4.85395958e-05
4.91029412e-05
4.97715921e-05
5.1511129e-05
5.27959979e-05
5.44085532e-05
5.52515888e-05
5.68557374e-05
5.76256604e-05
5.92205177e-05
5.97173598e-05
6.14634951e-05
6.18738519e-05
6.34636552e-05
6.37350653e-05
6.56519308e-05
6.52636201e-05
6.67974189e-05
6.47756058e-05
6.88240306e-05
6.74917522e-05
6.66535507e-05
6.55767546e-05
7.09123879e-05
6.92537466e-05
6.72544975e-05
6.6308198e-05
7.19395693e-05
6.92190835e-05
6.87403694e-05
6.77724354e-05
7.26404776e-05
6.85263214e-05
6.99963225e-05
6.88739119e-05
7.24192925e-05
6.87747869e-05
7.09841113e-05
6.97654018e-05
7.2639549e-05
7.02086969e-05
7.16865095e-05
7.03987967e-05
7.26619214e-05
7.06783759e-05
7.24472789e-05
7.06253642e-05
7.28946059e-05
7.11475462e-05
7.29221656e-05
7.13146603e-05
7.33480685e-05
7.20051777e-05
7.33005916e-05
7.2239281e-05
7.37077501e-05
7.27984723e-05
7.37313801e-05
7.29913405e-05
7.40448322e-05
7.34516163e-05
7.4124895e-05
7.35726299e-05
7.43880857e-05
7.40202949e-05
7.44882679e-05
7.41602625e-05
7.47232989e-05
7.45067606e-05
7.48356401e-05
7.46857115e-05
7.50555184e-05
7.48801019e-05
7.51886404e-05
7.51359571e-05
7.54013296e-05
7.52738257e-05
7.55590155e-05
7.55425548e-05
7.57690496e-05
7.56822148e-05
7.59458486e-05
7.59618356e-05
7.61602151e-05
)
;

boundaryField
{
    closed
    {
        type            calculated;
        value           nonuniform List<scalar> 0();
    }
    open
    {
        type            calculated;
        value           nonuniform List<scalar> 0();
    }
    sides
    {
        type            empty;
    }
    procBoundary4to3
    {
        type            processor;
        value           uniform 3.61593093e-05;
    }
    procBoundary4to5
    {
        type            processor;
        value           uniform 7.6108116e-05;
    }
}


// ************************************************************************* //
