/*--------------------------------*- C++ -*----------------------------------*\
| =========                 |                                                 |
| \\      /  F ield         | OpenFOAM: The Open Source CFD Toolbox           |
|  \\    /   O peration     | Version:  2306                                  |
|   \\  /    A nd           | Website:  www.openfoam.com                      |
|    \\/     M anipulation  |                                                 |
\*---------------------------------------------------------------------------*/
FoamFile
{
    version     2.0;
    format      ascii;
    arch        "LSB;label=32;scalar=64";
    class       volScalarField;
    location    "0.0002";
    object      p;
}
// * * * * * * * * * * * * * * * * * * * * * * * * * * * * * * * * * * * * * //

dimensions      [1 -1 -2 0 0 0 0];

internalField   nonuniform List<scalar> 
531
(
101536.365
101536.963
101537.621
101538.289
101538.97
101539.69
101540.442
101541.21
101541.989
101542.783
101543.589
101544.401
101545.215
101546.029
101546.841
101547.649
101548.45
101549.242
101550.025
101550.796
101551.555
101552.3
101553.032
101553.749
101554.451
101555.139
101555.811
101556.468
101557.109
101557.736
101558.347
101558.944
101559.527
101560.095
101560.65
101561.191
101561.719
101562.234
101562.738
101563.229
101563.708
101564.176
101564.634
101565.081
101565.517
101565.944
101566.361
101566.769
101567.168
101567.559
101567.941
101568.314
101568.68
101569.039
101569.389
101569.733
101570.07
101570.399
101570.722
101571.039
101571.349
101571.654
101571.952
101572.244
101572.531
101572.812
101573.088
101573.358
101573.623
101573.883
101574.138
101574.388
101574.633
101574.873
101575.109
101575.339
101575.566
101575.787
101576.004
101576.216
101576.423
101576.625
101576.823
101577.016
101577.204
101577.387
101577.565
101577.737
101577.905
101578.066
101578.221
101578.371
101578.514
101578.65
101578.78
101578.902
101579.017
101579.123
101579.222
101579.311
101579.391
101579.461
101579.522
101579.571
101579.609
101579.635
101579.648
101579.648
101579.635
101579.606
101579.563
101579.504
101579.428
101579.335
101579.223
101579.093
101578.942
101578.771
101578.579
101578.365
101578.127
101577.866
101577.579
101577.267
101576.928
101576.562
101576.168
101575.744
101575.291
101574.806
101574.29
101573.741
101573.159
101572.542
101571.891
101571.204
101570.48
101569.719
101568.92
101568.082
101567.206
101566.289
101565.333
101564.335
101563.296
101562.216
101561.093
101559.928
101558.721
101557.471
101556.177
101554.841
101553.462
101552.041
101550.576
101549.07
101547.521
101545.93
101544.299
101542.626
101540.914
101539.163
101537.374
101535.547
101533.684
101531.786
101529.854
101527.89
101525.895
101523.87
101521.818
101519.74
101517.638
101515.513
101513.369
101511.207
101509.029
101506.838
101504.636
101502.426
101500.21
101497.992
101495.773
101493.557
101491.346
101489.144
101486.954
101484.778
101482.62
101480.483
101478.37
101476.283
101474.228
101472.205
101470.22
101468.274
101466.371
101464.514
101462.707
101460.951
101459.25
101457.607
101456.024
101454.505
101453.051
101451.665
101450.349
101449.106
101447.938
101446.845
101445.831
101444.896
101444.042
101443.27
101442.581
101441.975
101441.453
101441.016
101440.664
101440.395
101440.211
101440.11
101440.091
101440.154
101440.297
101440.519
101440.817
101441.191
101441.637
101442.153
101442.736
101443.385
101444.094
101444.862
101445.685
101446.559
101447.48
101448.445
101449.448
101450.487
101451.555
101452.65
101453.766
101454.899
101456.043
101457.194
101458.347
101459.498
101460.64
101461.77
101462.881
101463.971
101465.032
101466.062
101467.054
101468.005
101468.91
101469.764
101470.563
101471.304
101471.981
101472.592
101473.132
101473.598
101473.988
101474.297
101474.523
101474.664
101474.718
101474.681
101474.552
101474.33
101474.014
101473.601
101473.092
101472.486
101471.782
101470.98
101470.082
101469.086
101467.995
101466.809
101465.53
101464.159
101462.697
101461.148
101459.514
101457.797
101456.001
101454.127
101452.181
101450.166
101448.085
101445.942
101443.743
101441.491
101439.192
101436.851
101434.472
101432.061
101429.624
101427.166
101424.694
101422.213
101419.729
101417.249
101414.779
101412.326
101409.895
101407.494
101405.129
101402.807
101400.533
101398.315
101396.159
101394.072
101392.058
101390.126
101388.28
101386.525
101384.869
101383.315
101381.869
101380.536
101379.319
101378.223
101377.251
101376.407
101375.693
101375.112
101374.666
101374.356
101374.183
101374.148
101374.251
101374.492
101374.87
101375.384
101376.032
101376.812
101377.723
101378.761
101379.924
101381.21
101382.614
101384.134
101385.766
101387.508
101389.356
101391.308
101393.362
101395.514
101397.764
101400.111
101402.555
101405.095
101407.733
101410.471
101413.313
101416.262
101419.323
101422.503
101425.81
101429.252
101432.839
101436.582
101440.494
101444.589
101448.88
101453.384
101458.117
101463.097
101468.342
101473.871
101479.703
101485.857
101492.354
101499.212
101506.45
101514.088
101522.142
101530.629
101539.564
101548.96
101558.829
101569.179
101580.017
101591.347
101603.168
101615.472
101628.254
101641.52
101655.233
101669.326
101683.818
101698.829
101714.141
101729.69
101745.288
101763.379
101780.565
101797.316
101813.433
101829.464
101842.932
101859.688
101875.505
101890.228
101904.179
101917.093
101928.738
101938.436
101946.111
101952.101
101955.869
101957.255
101956.09
101952.302
101945.782
101936.583
101924.789
101910.681
101894.774
101877.831
101860.988
101845.594
101831.826
101822.519
101822.442
101842.706
101878.983
101790.076
101716.78
101715.859
101764.933
101769.859
101698.67
101319.785
101188.634
101133.922
101163.347
101278.306
101200.096
101188.189
101311.25
101415.563
101495.18
101565.548
101625.643
101677.75
101723.324
101761.371
101793.575
101821.282
101844.898
101864.222
101879.986
101893.254
101905.222
101922.348
101931.348
101918.883
101899.531
101910.682
101938.766
101911.2
101940.779
101967.992
101915.318
101867.031
101893.578
101926.66
101896.907
101863.15
101867.984
101918.789
101988.927
102016.94
102007.044
102027.495
102103.659
102142.165
102123.523
102138.713
102183.274
102173.076
102147.884
102165.884
102188.533
102163.372
102146.821
102180.554
102203.241
102169.853
102142.927
102159.42
102165.654
102130.277
102100.824
102098.948
102089.759
102056.215
102027.133
102016.462
102000.727
101968.599
101941.119
101928.774
101912.869
101884.768
101862.203
101851.902
101837.946
101814.235
101795.541
101786.479
101775.758
101756.885
101737.98
101726.943
101719.258
101705.047
101688.656
101679.271
101673.96
101662.878
101648.832
101641.036
101637.64
101629
101617
)
;

boundaryField
{
    closed
    {
        type            zeroGradient;
    }
    open
    {
        type            waveTransmissive;
        gamma           1.25;
        fieldInf        101325;
        lInf            1;
        value           nonuniform List<scalar> 0();
    }
    sides
    {
        type            empty;
    }
    procBoundary4to3
    {
        type            processor;
        value           uniform 101535.813;
    }
    procBoundary4to5
    {
        type            processor;
        value           uniform 101610.708;
    }
}


// ************************************************************************* //
