/*--------------------------------*- C++ -*----------------------------------*\
| =========                 |                                                 |
| \\      /  F ield         | OpenFOAM: The Open Source CFD Toolbox           |
|  \\    /   O peration     | Version:  2306                                  |
|   \\  /    A nd           | Website:  www.openfoam.com                      |
|    \\/     M anipulation  |                                                 |
\*---------------------------------------------------------------------------*/
FoamFile
{
    version     2.0;
    format      ascii;
    arch        "LSB;label=32;scalar=64";
    class       volScalarField;
    location    "0.00066";
    object      PV;
}
// * * * * * * * * * * * * * * * * * * * * * * * * * * * * * * * * * * * * * //

dimensions      [0 0 0 0 0 0 0];

internalField   nonuniform List<scalar> 
530
(
0.00678731756
0.00670511927
0.00667451469
0.00676688014
0.00678383481
0.00670514819
0.00667265891
0.00676185939
0.00677718854
0.00670816622
0.00667171421
0.00673943777
0.00676675292
0.0067329699
0.00667237015
0.00671029421
0.0067593844
0.00675597707
0.00667205208
0.0067032738
0.00675200845
0.00676434581
0.0066759285
0.00670717609
0.00674881363
0.00676209919
0.0066795045
0.00670566639
0.0067484757
0.00676002084
0.00667912683
0.00670205223
0.00675169816
0.00675835585
0.00667570292
0.00670101579
0.00675087464
0.00675682423
0.00667615623
0.00670143203
0.0067499124
0.00675499866
0.00668019838
0.0067034675
0.00674514508
0.00675423156
0.00668696168
0.00670520205
0.00674443696
0.00675373233
0.00669178955
0.00670889492
0.00674180568
0.00675258176
0.0067009795
0.00671521073
0.00672561871
0.00673663683
0.00672571875
0.00673228296
0.00670089046
0.00671488131
0.00674621637
0.00675611291
0.00669377778
0.00671357548
0.00676123834
0.00676867835
0.00669774734
0.0067206969
0.00676653946
0.00677298991
0.00670648212
0.00672787429
0.00676934147
0.00677772078
0.00671451263
0.00673502202
0.00677611621
0.00678332646
0.00672368907
0.0067430542
0.00678297885
0.0067904546
0.00673381515
0.00675170825
0.00679238265
0.00679866207
0.00674465969
0.00676181753
0.00680221955
0.00680855503
0.00675592594
0.00677234016
0.0068128305
0.00681914607
0.00676785107
0.00678378243
0.00682359288
0.00683006721
0.00678028028
0.00679618912
0.00683393862
0.00684082727
0.00679612383
0.00680952651
0.0068446679
0.00685138176
0.00681109021
0.00682534165
0.00684880776
0.00685748606
0.00683068708
0.00684342786
0.0068422119
0.00685006851
0.00686089976
0.00687053248
0.00684634925
0.00684709892
0.00688232694
0.00689522393
0.00686459812
0.00685805824
0.0068907396
0.00691083684
0.00688702712
0.00687028145
0.0068914139
0.00692404391
0.00691264128
0.00688428733
0.00689132696
0.00693435203
0.00693504614
0.00689946299
0.00689979225
0.00694449294
0.00694893184
0.0069150866
0.00691243059
0.00695319913
0.0069619483
0.00692930821
0.00692583708
0.00696386348
0.00697382151
0.00694191195
0.00693798211
0.00697510783
0.00698481224
0.00695436031
0.00695132376
0.00698683851
0.00699520184
0.00696534254
0.0069644109
0.00699948462
0.00700429185
0.0069756087
0.00697660064
0.0070133677
0.00701342557
0.00698372223
0.00699185829
0.00702625924
0.00701566554
0.0069932334
0.00701439859
0.00703621289
0.007016158
0.00700450654
0.00703206042
0.00704394118
0.00702317846
0.00701690626
0.00704417947
0.00705031524
0.00703155464
0.00703008391
0.00705591406
0.00705349246
0.00703853178
0.00704841364
0.00706651682
0.0070527295
0.0070465812
0.00706598724
0.0070744157
0.00705796156
0.00705639531
0.0070752119
0.00708068554
0.00706633612
0.00706705016
0.00708103813
0.00708345579
0.00707580245
0.00708074543
0.00708131025
0.00708490164
0.00709051485
0.00709535948
0.00708376667
0.00708974424
0.00710207339
0.00710315268
0.00708683853
0.00709471056
0.00710945107
0.00710968599
0.00709174392
0.00709966889
0.00711611154
0.00711541033
0.00709710676
0.00710463125
0.00712138604
0.0071206164
0.00710257556
0.00710964859
0.00712611303
0.00712530707
0.00710754857
0.00711451275
0.00713048162
0.0071296045
0.00711211322
0.00711904598
0.00713445931
0.00713353916
0.0071165629
0.00712317742
0.00713799635
0.007137152
0.00712086342
0.00712696574
0.00714116935
0.00714038116
0.00712489607
0.00713107039
0.00714379578
0.00714334358
0.00712824149
0.00713457508
0.00714650063
0.00714601499
0.00713156712
0.00713765722
0.00714895958
0.00714846738
0.00713463992
0.00714053023
0.00715122197
0.00715067208
0.00713738457
0.00714325727
0.00715323335
0.00715264524
0.0071399208
0.00714568432
0.00715506928
0.00715440098
0.00714234891
0.00714795754
0.00715669291
0.00715598394
0.00714452857
0.00714979384
0.007158348
0.00715740645
0.00714662296
0.00715162785
0.00715959043
0.00715867611
0.00714859597
0.00715327334
0.00716067984
0.00715982852
0.00715035515
0.00715470944
0.00716167577
0.00716092811
0.0071517998
0.00715603366
0.00716237944
0.00716200939
0.00715295007
0.00715673895
0.00716307034
0.00716300542
0.00715401148
0.00715721961
0.00716345663
0.00716385634
0.00715548845
0.00715776717
0.00716361013
0.00716425296
0.00715783187
0.00715843027
0.00716371133
0.0071646153
0.00715982215
0.00715957705
0.00716369913
0.0071648218
0.00716111263
0.0071604419
0.00716415076
0.00716485655
0.00716205056
0.00716136224
0.00716474425
0.00716503671
0.00716256559
0.00716216522
0.00716517768
0.00716523252
0.00716325809
0.00716271616
0.00716516406
0.00716558295
0.00716430263
0.00716308757
0.00716441574
0.00716593208
0.00716534159
0.0071636273
0.00716450505
0.00716619237
0.00716599816
0.00716414396
0.00716485408
0.00716633875
0.00716621775
0.00716442233
0.00716510461
0.00716649484
0.00716638066
0.00716462827
0.00716529571
0.00716662752
0.00716651818
0.00716482719
0.00716546323
0.0071667317
0.00716662929
0.00716503273
0.00716562428
0.00716680734
0.0071667129
0.00716523194
0.00716580675
0.00716683415
0.00716677362
0.00716541352
0.00716591632
0.0071669088
0.00716682325
0.00716557118
0.00716604391
0.00716694492
0.00716686119
0.00716570928
0.00716615234
0.00716697167
0.00716689103
0.00716583697
0.00716624457
0.00716698966
0.007166914
0.00716594915
0.00716632459
0.00716700259
0.00716693006
0.00716604714
0.00716639776
0.00716701125
0.00716694288
0.00716613196
0.0071664562
0.00716701396
0.00716695163
0.00716621646
0.00716650438
0.00716701205
0.0071669572
0.00716629083
0.00716654947
0.00716700829
0.00716695931
0.00716635464
0.00716658931
0.00716700385
0.00716695909
0.00716641093
0.00716662442
0.00716699799
0.00716695688
0.00716646153
0.00716665528
0.00716699099
0.00716695317
0.0071665068
0.00716668325
0.00716698276
0.00716694831
0.00716654696
0.0071667081
0.00716697403
0.00716694124
0.0071665835
0.00716673471
0.00716696497
0.00716693431
0.00716661237
0.00716675591
0.00716695542
0.00716692704
0.00716664676
0.0071667767
0.00716694014
0.00716692085
0.007166677
0.00716678977
0.0071669306
0.0071669155
0.00716670373
0.00716679918
0.00716691922
0.00716690986
0.00716673343
0.00716680549
0.00716690499
0.00716690233
0.00716676567
0.00716681314
0.00716688368
0.00716689026
0.00716680405
0.00716682574
0.00716685402
0.00716686872
0.00716685891
0.00716685026
0.00716684438
0.00716685811
0.00716687544
0.00716687251
0.00716684287
0.00716685521
0.00716686421
0.00716686843
0.00716684935
0.00716685741
0.00716685833
0.00716686243
0.00716686038
0.00716686385
0.00716686428
0.0071668687
0.00716687088
0.00716687607
0.00716687883
0.00716688303
0.00716688584
0.00716688906
0.00716689151
0.00716689387
0.00716689577
0.00716689739
0.00716689872
0.00716689976
0.00716690059
0.00716690119
0.00716690165
0.00716690197
0.00716690218
0.00716690232
0.0071669024
0.00716690244
0.00716690247
0.00716690248
0.00716690248
0.00716690248
0.00716690248
0.00716690248
0.00716690248
0.00716690247
0.00716690247
0.00716690247
0.00716690247
0.00716690247
0.00716690247
0.00716690247
0.00716690247
0.00716690247
0.00716690247
0.00716690247
0.00716690247
0.00716690247
0.00716690247
0.00716690247
0.00716690247
0.00716690247
0.00716690247
0.00716690247
0.00716690247
0.00716690247
0.00716690247
0.00716690247
0.00716690247
0.00716690247
0.00716690247
0.00716690247
0.00716690247
0.00716690247
0.00716690247
0.00716690247
0.00716690247
0.00716690247
0.00716690247
0.00716690247
0.00716690247
0.00716690247
0.00716690247
0.00716690247
0.00716690247
0.00716690247
)
;

boundaryField
{
    closed
    {
        type            zeroGradient;
    }
    open
    {
        type            zeroGradient;
    }
    sides
    {
        type            empty;
    }
    procBoundary5to4
    {
        type            processor;
        value           uniform 0.00675965799;
    }
}


// ************************************************************************* //
