/*--------------------------------*- C++ -*----------------------------------*\
| =========                 |                                                 |
| \\      /  F ield         | OpenFOAM: The Open Source CFD Toolbox           |
|  \\    /   O peration     | Version:  2306                                  |
|   \\  /    A nd           | Website:  www.openfoam.com                      |
|    \\/     M anipulation  |                                                 |
\*---------------------------------------------------------------------------*/
FoamFile
{
    version     2.0;
    format      ascii;
    arch        "LSB;label=32;scalar=64";
    class       volScalarField;
    location    "0.0011";
    object      PV;
}
// * * * * * * * * * * * * * * * * * * * * * * * * * * * * * * * * * * * * * //

dimensions      [0 0 0 0 0 0 0];

internalField   nonuniform List<scalar> 
531
(
-0.00719914825
-0.0071398817
-0.00696123603
-0.00696297021
-0.00715610019
-0.00719690155
-0.0071089987
-0.00696127886
-0.00703832154
-0.00716532535
-0.00707331812
-0.00695725493
-0.00700532459
-0.00716008185
-0.00718503133
-0.00709204955
-0.00695899543
-0.00701197173
-0.00715347901
-0.00717376994
-0.00717966216
-0.00711375071
-0.00695821249
-0.0070051604
-0.00716211156
-0.0071961201
-0.00711649865
-0.00696128113
-0.00703033088
-0.00718668028
-0.00713103329
-0.00695821518
-0.00694876233
-0.00694976938
-0.00705196565
-0.00716891776
-0.00720281341
-0.00713822423
-0.00695995018
-0.00703439803
-0.00718505732
-0.00711630664
-0.00696404682
-0.00694767407
-0.00701495213
-0.00715588516
-0.00717931551
-0.00718369177
-0.00710954836
-0.00695821973
-0.00705869386
-0.00717444039
-0.00704761037
-0.00695654072
-0.00707076461
-0.00718538858
-0.00709074198
-0.00695792137
-0.00705639712
-0.00719359415
-0.00713281738
-0.0069611833
-0.00694671046
-0.00703292413
-0.00715519349
-0.00717661897
-0.00718152922
-0.00709666096
-0.00695550896
-0.00702870494
-0.0071697934
-0.00719212355
-0.0071062867
-0.00695675412
-0.00705767253
-0.00717827117
-0.00709726676
-0.00695647303
-0.00694840298
-0.00708436363
-0.00717533269
-0.0070268518
-0.00695261554
-0.00706961737
-0.00717689477
-0.00718780447
-0.00710457633
-0.00695779145
-0.00694804871
-0.00704730306
-0.00716167486
-0.00718346844
-0.00718340478
-0.00706475985
-0.00695395288
-0.00706411794
-0.00716333197
-0.00719993812
-0.00719323736
-0.00696388197
-0.00695240739
-0.00715032639
-0.00716787458
-0.00696146161
-0.00695120802
-0.00715149346
-0.00716829234
-0.00695707568
-0.00695171188
-0.00710815216
-0.00717250182
-0.00717063556
-0.00719290693
-0.00712615422
-0.00695377599
-0.00695004426
-0.00694991068
-0.00713397152
-0.00716670348
-0.00696195287
-0.00695397568
-0.00696107245
-0.00704795
-0.0071795473
-0.00718223754
-0.00718889381
-0.00720050525
-0.00708067448
-0.00696102985
-0.00705103177
-0.00721766474
-0.00721312083
-0.00696374786
-0.00696073721
-0.0069642364
-0.00701002133
-0.00719387055
-0.00719142511
-0.00696155939
-0.00695490454
-0.00708717661
-0.00716457193
-0.00717428804
-0.00718527564
-0.00709924352
-0.00695487688
-0.00694745736
-0.00706336543
-0.007173345
-0.00719541717
-0.00711107895
-0.0069545987
-0.00694983632
-0.00695337174
-0.00704268101
-0.0071718497
-0.00717714218
-0.00719610751
-0.00712790063
-0.00695590699
-0.00695366274
-0.00695468585
-0.00701400729
-0.00716847566
-0.00718793885
-0.00718053841
-0.00719940532
-0.00712021041
-0.0069570277
-0.00695616445
-0.00695552651
-0.00699597757
-0.00716746037
-0.00719127266
-0.0071806673
-0.00720034207
-0.00711534723
-0.00695744667
-0.00695262743
-0.00695638789
-0.00702398627
-0.00718161849
-0.00719145406
-0.00722585907
-0.00722570604
-0.0069574204
-0.00695773151
-0.006957679
-0.00716156235
-0.00718289904
-0.0069828918
-0.0069575865
-0.00695767771
-0.00714457208
-0.00718980569
-0.0069549555
-0.00695287261
-0.00716917459
-0.00718087204
-0.00695461
-0.00695285499
-0.00712554461
-0.00717024477
-0.00720098769
-0.0071976858
-0.00695867839
-0.00695621351
-0.00716504967
-0.00718325096
-0.00695985269
-0.0069566327
-0.00719962495
-0.00721564616
-0.00695595869
-0.00695980895
-0.00711547607
-0.00721531415
-0.00720740274
-0.0069558331
-0.00695656136
-0.00695666266
-0.00709180433
-0.00717375782
-0.00719301828
-0.00719522797
-0.00704353157
-0.00695511398
-0.00695555776
-0.00707876661
-0.00721243891
-0.00720881662
-0.006954264
-0.00695427246
-0.00716869533
-0.00718595968
-0.00695215462
-0.00695221561
-0.00711596261
-0.00717735468
-0.00719241504
-0.00713061274
-0.00695413863
-0.00695128804
-0.00695489178
-0.00703349381
-0.0071732012
-0.00717742124
-0.00720173875
-0.0071460316
-0.00695708822
-0.00695175313
-0.00695918056
-0.00704357101
-0.00721374337
-0.00721328458
-0.00695267268
-0.00695836752
-0.00712331944
-0.00722238049
-0.0072135992
-0.00695763656
-0.00695440964
-0.00717044481
-0.007184299
-0.00695748989
-0.0069537152
-0.0071716839
-0.00718092618
-0.00695614396
-0.00695459678
-0.00716810792
-0.00718402692
-0.00695396178
-0.00695772464
-0.00711143821
-0.00720913416
-0.00720822598
-0.00695357817
-0.00695973335
-0.00709965494
-0.00720990145
-0.00720437251
-0.00695590653
-0.00695684646
-0.00716058379
-0.00718335645
-0.00695388915
-0.00695858618
-0.00710617355
-0.00720832627
-0.00720734641
-0.00695431932
-0.00696062789
-0.00710363472
-0.00722332915
-0.00721577009
-0.00695821021
-0.00695757679
-0.00695864228
-0.00695601457
-0.00706382944
-0.00717818743
-0.00717654347
-0.0071980344
-0.00712343695
-0.00695474494
-0.00709943645
-0.00718183799
-0.00703181845
-0.00695480161
-0.00695427021
-0.00713679933
-0.00719262696
-0.0069507886
-0.00695701648
-0.00711667871
-0.00721919686
-0.00721423362
-0.00695511041
-0.00695574848
-0.0071651178
-0.00718991926
-0.00695323802
-0.00695807956
-0.00710948833
-0.00721226369
-0.00720828631
-0.00695496045
-0.00695605477
-0.00716272639
-0.00718669571
-0.00695336453
-0.00695805665
-0.00710411999
-0.00720907837
-0.00720548571
-0.0069549565
-0.0069561802
-0.00716126768
-0.00718467955
-0.00695350451
-0.006958173
-0.00710058058
-0.00720692234
-0.00720317078
-0.00695510636
-0.00695595665
-0.00716022654
-0.00718264813
-0.00695362274
-0.00695767455
-0.00710079732
-0.00720479501
-0.00720357855
-0.00695400624
-0.00695773744
-0.00709963224
-0.00720666484
-0.00720592926
-0.00695350903
-0.00695877381
-0.00709731278
-0.00721228658
-0.00720574263
-0.00695672012
-0.00695359083
-0.00716917165
-0.00717916802
-0.00695652976
-0.00695296544
-0.00717536486
-0.00717196323
-0.00695666991
-0.00703827073
-0.00720673276
-0.00709416154
-0.00695691823
-0.00694867511
-0.007129721
-0.00718584516
-0.00695159893
-0.00695473547
-0.00711041555
-0.00720952773
-0.00720644376
-0.00695465555
-0.00695597892
-0.00704627574
-0.00716584055
-0.00716896254
-0.00719096562
-0.00718971369
-0.00695426351
-0.00695528041
-0.00715309028
-0.0071808395
-0.00695256663
-0.0069565279
-0.00710847363
-0.00721924898
-0.00721423572
-0.00695581835
-0.00695673565
-0.00695640305
-0.00715894964
-0.00718526395
-0.00695599531
-0.00695680649
-0.00695824496
-0.0070791889
-0.00721717424
-0.00721554377
-0.00695436161
-0.00695721314
-0.00711272073
-0.00720889431
-0.00720724377
-0.00695381128
-0.00695720173
-0.00709817705
-0.00720419603
-0.00720280076
-0.00695369401
-0.00695693638
-0.00709338753
-0.00720172886
-0.00720024781
-0.00695387914
-0.00695664767
-0.00709313601
-0.0072011328
-0.0072003439
-0.0069530479
-0.00695685484
-0.00709208031
-0.00720226225
-0.00719928918
-0.00695359955
-0.00695474166
-0.0071565854
-0.00718042046
-0.00695166522
-0.00695618016
-0.00710424006
-0.007202939
-0.00720002516
-0.00695323537
-0.00695436084
-0.00715866032
-0.007181888
-0.00695162201
-0.00695627526
-0.00710583098
-0.00720300819
-0.00719967771
-0.00695365906
-0.00695421622
-0.00715841295
-0.00718110799
-0.00695241782
-0.00695577146
-0.00710777735
-0.00720138795
-0.00720055548
-0.00695247194
-0.00695644605
-0.00709887263
-0.00720393199
-0.00719979738
-0.00695397528
-0.00695305334
-0.00715876257
-0.00717581887
-0.00695205196
-0.00695381649
-0.00712910431
-0.00717336911
-0.00720145077
-0.00720128058
-0.00695442593
-0.00695456709
-0.0069545925
-0.00714847137
-0.00718526266
-0.00695156544
-0.00695627007
-0.00711485297
-0.00720942336
-0.00720549347
-0.0069538731
-0.00695401195
-0.00716280759
-0.00718831517
-0.0069513375
-0.00695634649
-0.00711780301
-0.0072085184
-0.00720326558
-0.00695501678
-0.0069527764
-0.00716440672
-0.00718011897
-0.00695358226
-0.00695388964
-0.00716255785
-0.00718065869
-0.00695248347
-0.00695523953
-0.00711659972
-0.00720186152
-0.00720029248
-0.00695411706
-0.0069555448
-0.00710862142
-0.00720155672
-0.00720066402
-0.00695373899
-0.00695666751
-0.00710116537
-0.00720133571
-0.00719827286
-0.00695452813
-0.00695461937
-0.00715740007
-0.00718224201
-0.00695282906
-0.00695586298
-0.0071173005
-0.00720284576
-0.00720183612
-0.00695391123
)
;

boundaryField
{
    closed
    {
        type            zeroGradient;
    }
    open
    {
        type            zeroGradient;
    }
    sides
    {
        type            empty;
    }
    procBoundary3to2
    {
        type            processor;
        value           uniform -0.00716013008;
    }
    procBoundary3to4
    {
        type            processor;
        value           uniform -0.00695701068;
    }
}


// ************************************************************************* //
