/*--------------------------------*- C++ -*----------------------------------*\
| =========                 |                                                 |
| \\      /  F ield         | OpenFOAM: The Open Source CFD Toolbox           |
|  \\    /   O peration     | Version:  2306                                  |
|   \\  /    A nd           | Website:  www.openfoam.com                      |
|    \\/     M anipulation  |                                                 |
\*---------------------------------------------------------------------------*/
FoamFile
{
    version     2.0;
    format      ascii;
    arch        "LSB;label=32;scalar=64";
    class       volScalarField;
    location    "0.00128";
    object      prefDZ_H;
}
// * * * * * * * * * * * * * * * * * * * * * * * * * * * * * * * * * * * * * //

dimensions      [1 -1 -1 0 0 0 0];

internalField   nonuniform List<scalar> 
531
(
0.000110304775
0.000107616192
0.000106949315
0.000110243591
0.000110221163
0.000107893816
0.000106016177
0.00010602776
0.000110275514
0.00011016932
0.000107857686
0.000105740029
0.000105784942
0.000110239034
0.000110306933
0.000107757115
0.000107191847
0.000110272264
0.000110323896
0.000107925067
0.000107811187
0.000107227281
0.000107047551
0.000105309224
0.000105358638
0.000110182756
0.000110268971
0.00011019759
0.000110332799
0.00010786306
0.000107161642
0.00011034276
0.000110377572
0.000107822144
0.000107595328
0.000106360359
0.000106386867
0.000110283146
0.000107794183
0.000106168282
0.000110417035
0.000110254166
0.00010787582
0.000106558179
0.000106578489
0.000110321572
0.000110410758
0.000107827931
0.000107770581
0.000110319903
0.000110457797
0.000108102162
0.000107735182
0.000105779799
0.00010583114
0.000110290691
0.000110385029
0.000107448169
0.00010743476
0.000110251147
0.000107891297
0.000106462898
0.000110132443
0.000110222256
0.000109304776
0.000107883392
0.00010683608
0.000106029571
0.000106101574
0.000110220714
0.000110133401
0.000107870541
0.000105800334
0.000106081648
0.000110173952
0.000107847938
0.000105837406
0.000107985048
0.000110188065
0.00011039245
0.000107312978
0.000106055766
0.000109308412
0.000110226828
0.000110196253
0.000107921569
0.000106816682
0.000110217104
0.000110232069
0.000110149128
0.000108008134
0.000106577583
0.000106601538
0.000104963874
0.000105038567
0.000110112542
0.000110264239
0.000106551997
0.000106574125
0.000110131949
0.000110257143
0.000110089841
0.000108063286
0.000105736282
0.00010616936
0.000110193063
0.000107797827
0.000106475509
0.000110343546
0.000110263007
0.000108002357
0.000107911362
0.000106266748
0.000106429088
0.000110212662
0.000107848912
0.00010599115
0.000110118369
0.000110155144
0.000109049417
0.000105715487
0.000105747996
0.000110147662
0.000110190485
0.000110171014
0.000107930555
0.000106704555
0.000110242355
0.000110193725
0.000108139103
0.000105801378
0.000105800038
0.000110272493
0.000110204915
0.000107801122
0.00010492424
0.0001049839
0.000110181166
0.000110278098
0.000106900595
0.000106157951
0.000110154344
0.000110275662
0.000106925719
0.000106547187
0.000110137682
0.000110261799
0.000106644696
0.00010665278
0.000110197402
0.000110249531
0.000110211555
0.000107294543
0.000106293962
0.000110304146
0.000110210392
0.000107777989
0.000106940898
0.000106884501
0.00010606705
0.000107831933
0.00011024878
0.000107749053
0.000106302818
0.000110374293
0.000110319065
0.000107786334
0.000107895294
0.00011023453
0.000107845632
0.000106563471
0.000110163241
0.000110209754
0.000108705469
0.000105976296
0.000105843512
0.000110220569
0.000110184625
0.00010785688
0.000105645099
0.000105650336
0.00011030848
0.000110279581
0.000107766145
0.000106583651
0.000107793059
0.000110330292
0.000110395255
0.000107741692
0.00010587278
0.000107759467
0.00011018851
0.000107831062
0.000106355788
0.000110041584
0.000110126427
0.000109497961
0.000105755904
0.000105429141
0.000110101607
0.00011009491
0.000108367463
0.000105716698
0.000105723355
0.00011017099
0.000110249764
0.000107308795
0.000106998211
0.00011022942
0.000110259945
0.000107858683
0.000107613811
0.000106183886
0.000106197793
0.000110080695
0.000110225413
0.000106735454
0.000106580025
0.000110043171
0.000110164177
0.000110132012
0.000106234139
0.000105360017
0.000110197283
0.000110091808
0.000107858785
0.000105796243
0.000105821099
0.000110192194
0.000110153342
0.000107953717
0.000105781678
0.000105945084
0.000109578967
0.000110239331
0.000107464787
0.000106536761
0.000110195466
0.000110232271
0.000107965613
0.000105991456
0.000105994375
0.000110273785
0.000110343264
0.000107821531
0.000107009435
0.000106513733
0.000107746745
0.000110324345
0.000107749722
0.000106464993
0.000110307086
0.000110361619
0.000107229949
0.000106695701
0.000110215862
0.00011036111
0.00010725247
0.000106916911
0.000110140753
0.000110270655
0.00010719389
0.000106576447
0.000110024475
0.000110302239
0.000105552791
0.000107772288
0.000110094632
0.000110510853
0.000110173744
0.000107667514
0.000105449396
0.000107526683
0.000110021721
0.000110470106
0.00010613837
0.000106029533
0.000110043547
0.000107779669
0.000105406635
0.000110218388
0.000110233893
0.000107497445
0.000106927365
0.000110266787
0.000110290051
0.000107841284
0.000107656077
0.000107319738
0.000106692644
0.000107709747
0.00011022055
0.000110444732
0.000108306462
0.000106645806
0.0001072688
0.000110326046
0.000110201613
0.000110316577
0.000108758318
0.000107347103
0.00010561565
0.000106527296
0.000110071446
0.000110289116
0.000105581569
0.000104851118
0.00011001381
0.000110164731
0.000107231475
0.000106330007
0.00011007648
0.000110147452
0.000107976936
0.00010589368
0.000105894004
0.000110114582
0.000110157085
0.000108044323
0.00010575601
0.000105792121
0.000110089165
0.000110277332
0.000107476919
0.000106985614
0.000110162885
0.000110283995
0.000107972722
0.000107878043
0.000106313658
0.000106327265
0.000110229041
0.000110316906
0.000107774856
0.000106747314
0.00010777999
0.000110329701
0.00011038525
0.000107796114
0.000106269701
0.000106930711
0.000110216768
0.000110304285
0.000108173976
0.000105866202
0.000105894494
0.000110164461
0.000110182183
0.000107908589
0.000105897008
0.000105923103
0.000110006343
0.00011012958
0.000108644807
0.000106018614
0.000105942825
0.000110082267
0.00011013168
0.000107923552
0.000105853482
0.00010586515
0.000110116441
0.000110163436
0.000107971829
0.000105870592
0.000105884302
0.000110115656
0.000110155075
0.000107937172
0.00010554324
0.000105580884
0.000110133562
0.000110241092
0.000107285494
0.000106229919
0.000110240193
0.00011023924
0.000107782869
0.000106118964
0.000106969099
0.000110244553
0.000110333241
0.000110319068
0.000110341028
0.000107860784
0.00010671338
0.000106740998
0.000105771438
0.000106513921
0.000110260118
0.000110418737
0.000107858761
0.000106790191
0.000110254273
0.000110345637
0.000107585192
0.000106581615
0.00011022542
0.000110216633
0.000107914101
0.000105740811
0.000105763666
0.000110166776
0.000110223302
0.000107476027
0.000106387325
0.000110207895
0.000110172251
0.000107893192
0.000105629192
0.000105673925
0.000110149816
0.000110269708
0.000107299696
0.000106515242
0.000110175849
0.000110245321
0.000107443137
0.000106664532
0.000110187565
0.000110185806
0.00010801453
0.000105897595
0.000105901732
0.000110173352
0.000110185437
0.000107874028
0.000104624342
0.000104777665
0.00011011795
0.000110176607
0.000110157241
0.000107475362
0.000106380862
0.000110136594
0.000110203001
0.000110108939
0.000107884716
0.000104641735
0.000105112288
0.000109976568
0.000110091897
0.000110000947
0.000108448353
0.000105670415
0.000105679241
0.000110101418
0.000110126793
0.000107901707
0.000105292619
0.000105335983
0.000110110367
0.000110157514
0.000108373534
0.000105567929
0.000105580046
0.000110246791
0.000110175269
0.000107782474
0.000106291416
0.000107604953
0.000110148106
0.00011037522
0.000107527242
0.000106142757
0.000110173365
0.000110275781
0.000105974648
0.000105975279
0.00011013893
0.000110188789
0.000110136546
0.00010708615
0.00010564116
0.000110136142
0.000110151712
0.000106635545
0.000106088986
0.000110137111
0.000110163377
0.000106959409
0.00010607616
0.000108743376
0.000110141335
0.000110191793
0.000110175525
0.000107904418
0.000106316947
0.000104991096
0.00010499499
0.000110132884
0.00011019295
0.000106684447
0.000106577252
0.000110224971
0.000110211674
0.000107900735
0.000107904861
0.000106004378
0.000106009418
0.00011021395
0.000110208475
0.000110199929
0.000107691237
0.000106629045
0.000110217747
0.000110152796
0.000108175707
0.00010556315
0.000105592782
0.000110201713
0.000110280582
0.000106594776
0.000106599217
0.000110273227
0.000110302805
0.000110217633
0.000107820756
0.00010683073
0.00010564609
0.000105642952
0.00011024695
0.000110194917
0.000107864061
0.000105034519
0.000105295602
0.000110175542
0.000110196064
0.000110189466
0.000107716508
0.00010705326
)
;

boundaryField
{
    closed
    {
        type            calculated;
        value           nonuniform List<scalar> 0();
    }
    open
    {
        type            calculated;
        value           nonuniform List<scalar> 0();
    }
    sides
    {
        type            empty;
    }
    procBoundary1to0
    {
        type            processor;
        value           uniform 0.0001101836;
    }
    procBoundary1to2
    {
        type            processor;
        value           uniform 0.000110210004;
    }
}


// ************************************************************************* //
