/*--------------------------------*- C++ -*----------------------------------*\
| =========                 |                                                 |
| \\      /  F ield         | OpenFOAM: The Open Source CFD Toolbox           |
|  \\    /   O peration     | Version:  2306                                  |
|   \\  /    A nd           | Website:  www.openfoam.com                      |
|    \\/     M anipulation  |                                                 |
\*---------------------------------------------------------------------------*/
FoamFile
{
    version     2.0;
    format      ascii;
    arch        "LSB;label=32;scalar=64";
    class       volScalarField;
    location    "0.00178";
    object      Z;
}
// * * * * * * * * * * * * * * * * * * * * * * * * * * * * * * * * * * * * * //

dimensions      [0 0 0 0 0 0 0];

internalField   nonuniform List<scalar> 
531
(
0.0147857846
0.0147579094
0.0140763539
0.0140682224
0.0146511801
0.0147898015
0.0147615711
0.0140752483
0.0140696826
0.0146738577
0.0148011362
0.0147676203
0.0140754301
0.014074046
0.0147007589
0.0148191196
0.0147803415
0.0140762316
0.0140713261
0.0147322653
0.0147444575
0.0140797237
0.0140767491
0.0147319673
0.0147292177
0.0140797674
0.0140858027
0.0147134516
0.0148325666
0.0147534338
0.0140747524
0.0140684854
0.0140926337
0.014764588
0.0148555883
0.0148044696
0.014877599
0.0147928364
0.0140836239
0.0140768786
0.0140801549
0.0140772981
0.0140703294
0.0140965221
0.014718283
0.0148377033
0.0147410592
0.0140772058
0.014099257
0.0147837844
0.0148900661
0.0147452901
0.0140795148
0.0140675373
0.0141126095
0.0147475354
0.0147361974
0.0140711976
0.0141107617
0.0147302682
0.0146886077
0.014067946
0.0140886666
0.014698434
0.0147559877
0.0147315857
0.0147705239
0.0147532612
0.014794307
0.0147089937
0.0140681078
0.014069827
0.0140667461
0.0140947266
0.0146922455
0.0146708676
0.0140643255
0.0140833014
0.0147252062
0.0147806498
0.0146977106
0.0140701978
0.0140822705
0.0147505726
0.0148100329
0.0147222298
0.0140731108
0.0140850287
0.0147610132
0.0148511923
0.0147075741
0.0140826386
0.0140640466
0.0140927908
0.0147225684
0.0147229564
0.0140735623
0.0140782714
0.0147579233
0.0147821357
0.0147788687
0.0147425205
0.0140755667
0.0140848243
0.0147497392
0.0147373246
0.0140757894
0.0140766787
0.0147584064
0.0148074305
0.0147264915
0.0140830683
0.0140794835
0.0147447303
0.0148234457
0.0147400063
0.0140862639
0.014080702
0.0147753366
0.0148655868
0.014748878
0.0140887257
0.0140766423
0.0140751034
0.0140797617
0.0147375849
0.0148294939
0.0147432303
0.0140868532
0.0140788683
0.0147329048
0.0147426431
0.0140888984
0.014075064
0.0147476557
0.0148118895
0.0147395692
0.0140873541
0.0140753035
0.014726667
0.0148123196
0.0147363793
0.0140863567
0.0140755599
0.0147281104
0.0148289091
0.0147280366
0.0140936477
0.0140637491
0.0140690144
0.0147292093
0.0148147088
0.0147405582
0.0140882101
0.0140741697
0.0147077687
0.0147252966
0.0140920028
0.0140730037
0.0147138844
0.0147923108
0.0147189201
0.0140847231
0.014072046
0.0146883558
0.0147982611
0.01472961
0.0140865095
0.0140715031
0.0146911839
0.014708167
0.0140916701
0.0140718748
0.0147014485
0.0147640558
0.0147731269
0.0147450369
0.0140892569
0.0140795736
0.0147641877
0.0148810437
0.0147812049
0.0141092763
0.0140746378
0.0140855203
0.0147752039
0.0147723956
0.0141007423
0.0147616395
0.0148251925
0.0141130919
0.0140908567
0.0140891717
0.0140866964
0.0147922634
0.0147870126
0.0140952138
0.0147558336
0.0147895684
0.0141120409
0.0140762454
0.0140867227
0.0147441446
0.0148724643
0.0147928613
0.0140972286
0.0140834672
0.0147597807
0.0148915472
0.0147911579
0.0141042539
0.0140763735
0.0140854096
0.014766366
0.01477194
0.0140939641
0.0147495144
0.0147833857
0.0141040034
0.0140755888
0.0140835629
0.0147380693
0.0148513667
0.0147864242
0.0140941584
0.0140818516
0.0147629656
0.01486536
0.0148198867
0.0140960851
0.0140884148
0.0148149168
0.0149637661
0.0148641096
0.0141074145
0.0140840607
0.0140993875
0.0140843984
0.0140963878
0.0140839238
0.01409277
0.0148035524
0.0148903553
0.0148862586
0.0148732833
0.0140947041
0.0140824076
0.0148373507
0.0148096411
0.0140931284
0.0140723545
0.0140887174
0.0146606548
0.0149209954
0.014723284
0.0140945232
0.0147427587
0.0148379271
0.0140876556
0.0140796633
0.014790782
0.0147794115
0.0140857332
0.014071092
0.0140839077
0.014667781
0.0148567637
0.014749198
0.0140906897
0.0140689732
0.0140834624
0.0147212099
0.0148467657
0.014801365
0.0149039543
0.0148360316
0.0141020718
0.0140765804
0.0140957725
0.014074191
0.0140822569
0.0147521064
0.0147845083
0.0140852391
0.01407841
0.0147466805
0.0148041512
0.0148077977
0.0148063696
0.0140821333
0.0140756435
0.0147462903
0.0147684927
0.0140848259
0.0140791528
0.0147321282
0.0148328917
0.0147960267
0.0140876342
0.0140726917
0.0147398984
0.0147730012
0.0140886636
0.0140795338
0.0147401493
0.014863403
0.0148268708
0.014092425
0.0140732533
0.014785623
0.0147874951
0.0141001703
0.0140727215
0.014086147
0.0147473052
0.0147862618
0.0140977547
0.0140714648
0.0140869516
0.0147312791
0.0148906285
0.0148414968
0.0140944596
0.0140751989
0.0147557478
0.0147949969
0.0140989313
0.0140736055
0.0147447895
0.0147673858
0.0140965232
0.0140766017
0.0147245533
0.0147971697
0.0148221932
0.0148182708
0.0140995603
0.0140781192
0.0147732928
0.0148070255
0.0141028575
0.0140766209
0.0147780132
0.0147915368
0.0141045163
0.0140779733
0.014085046
0.0140764575
0.0146552152
0.014781366
0.0147951624
0.0147937367
0.0140991223
0.0140835432
0.0147522699
0.0148941347
0.0148717416
0.0141009874
0.0140794123
0.0147862006
0.014829175
0.0141107184
0.0140777453
0.014805651
0.0148110685
0.0141129285
0.0140752019
0.0140876753
0.0147272032
0.0148110603
0.0141030382
0.0140768418
0.0147546063
0.0147875644
0.0141016765
0.0140805795
0.014724698
0.0148460249
0.0148263879
0.0140957271
0.0140736582
0.0147302297
0.0147755205
0.0141013963
0.0140776859
0.0147097598
0.0148318416
0.0148130005
0.0140941296
0.0140730406
0.0147301161
0.0147751193
0.0141014278
0.0140780485
0.0147182436
0.0148415767
0.0148255695
0.0140959912
0.0140721394
0.0147419311
0.0147845825
0.0141056899
0.0140709313
0.0147457102
0.0147738399
0.0141031975
0.0140715501
0.0147415598
0.0147735314
0.0140991124
0.0140771981
0.0147207162
0.014839853
0.0148233439
0.0140940572
0.0140706659
0.0147543215
0.0147906063
0.0141029835
0.0140699586
0.0147672115
0.014779445
0.0140989335
0.0140681952
0.0140765859
0.0147037868
0.014782942
0.0140901575
0.0140746278
0.0147059346
0.0148113075
0.0147917876
0.0140843661
0.014065829
0.0147011524
0.0147353163
0.014085954
0.0140664861
0.0146169249
0.0147345172
0.0147425586
0.0147429126
0.0140868839
0.0140690135
0.0146883562
0.0147530471
0.014782315
0.0147663491
0.0140812799
0.0147029295
0.0148075631
0.0140917088
0.0140757887
0.0147559519
0.0148073568
0.0140922622
0.0140827191
0.0147470327
0.0148993236
0.0148425811
0.0140993734
0.0140755885
0.0140858822
0.014072589
0.0140734029
0.0147319202
0.0148230137
0.0148196844
0.0140839628
0.0140820968
0.0146844006
0.0148792619
0.0147661646
0.0140915346
0.014735381
0.0148600317
0.0140896863
0.0140831007
0.0148206532
0.0148295655
0.0140925884
0.0140804234
0.0140831355
0.0140812912
0.0147591897
0.0147938693
0.014083905
0.0140862289
0.0147442137
0.014871765
0.0148116145
0.0140835071
0.0140742242
0.0140880971
0.0147519541
0.0148309546
0.0148560909
0.0148230846
0.0140879847
0.014075135
0.0140891306
0.0147267261
0.014777465
0.0140769274
0.0140860789
0.0147286575
0.0147194564
0.0140733194
0.0140774356
0.0146073604
0.0147440674
0.0147572041
0.014739332
0.014074004
0.0140806397
0.0147063125
0.0147986318
0.0147653102
0.0140728318
0.014079266
0.0146834985
0.0148044819
0.0147709683
0.014070795
0.0140817553
0.0146983769
0.0148395325
0.0147660478
0.0140782782
0.0140666566
0.014087576
)
;

boundaryField
{
    closed
    {
        type            zeroGradient;
    }
    open
    {
        type            zeroGradient;
    }
    sides
    {
        type            empty;
    }
    procBoundary3to2
    {
        type            processor;
        value           uniform 0.014640837;
    }
    procBoundary3to4
    {
        type            processor;
        value           uniform 0.0146945238;
    }
}


// ************************************************************************* //
