/*--------------------------------*- C++ -*----------------------------------*\
| =========                 |                                                 |
| \\      /  F ield         | OpenFOAM: The Open Source CFD Toolbox           |
|  \\    /   O peration     | Version:  2306                                  |
|   \\  /    A nd           | Website:  www.openfoam.com                      |
|    \\/     M anipulation  |                                                 |
\*---------------------------------------------------------------------------*/
FoamFile
{
    version     2.0;
    format      ascii;
    arch        "LSB;label=32;scalar=64";
    class       surfaceScalarField;
    location    "0.00158";
    object      phi;
}
// * * * * * * * * * * * * * * * * * * * * * * * * * * * * * * * * * * * * * //

dimensions      [1 0 -1 0 0 0 0];

oriented        oriented;

internalField   nonuniform List<scalar> 
529
(
1.97679211e-06
1.97799065e-06
1.9791638e-06
1.98031315e-06
1.98143822e-06
1.98253933e-06
1.98361319e-06
1.98466321e-06
1.9856897e-06
1.98669311e-06
1.98767329e-06
1.98863086e-06
1.98956554e-06
1.99047799e-06
1.99136787e-06
1.99223585e-06
1.99308164e-06
1.99390581e-06
1.99470826e-06
1.99548939e-06
1.99624933e-06
1.9969884e-06
1.99770684e-06
1.99840362e-06
1.99908006e-06
1.99973685e-06
2.00037443e-06
2.00099326e-06
2.00159406e-06
2.00217734e-06
2.00274399e-06
2.00329459e-06
2.00383024e-06
2.00435156e-06
2.00485991e-06
2.0053559e-06
2.00584119e-06
2.00631632e-06
2.00678319e-06
2.00724234e-06
2.0076958e-06
2.00814411e-06
2.00857632e-06
2.00900627e-06
2.00943571e-06
2.0098655e-06
2.01029724e-06
2.01073164e-06
2.01116789e-06
2.01160876e-06
2.01205586e-06
2.01250939e-06
2.0129708e-06
2.01343994e-06
2.01391826e-06
2.01440521e-06
2.01490216e-06
2.01540826e-06
2.01592472e-06
2.01645049e-06
2.01698657e-06
2.0175318e-06
2.01808697e-06
2.01865084e-06
2.019224e-06
2.01980523e-06
2.02039495e-06
2.02099195e-06
2.02159655e-06
2.02220761e-06
2.02282535e-06
2.02344873e-06
2.02407795e-06
2.02471205e-06
2.02535122e-06
2.02599464e-06
2.0266425e-06
2.02729408e-06
2.02794961e-06
2.02860847e-06
2.02927091e-06
2.02993641e-06
2.03060523e-06
2.03127691e-06
2.03195176e-06
2.03262928e-06
2.03330989e-06
2.03399296e-06
2.03467906e-06
2.03536732e-06
2.0360585e-06
2.03675147e-06
2.03744702e-06
2.03814217e-06
2.0388393e-06
2.03953728e-06
2.04023651e-06
2.0409359e-06
2.04163561e-06
2.04233456e-06
2.04303274e-06
2.04372896e-06
2.04442314e-06
2.04511393e-06
2.04580121e-06
2.04648345e-06
2.04716049e-06
2.04783071e-06
2.04849379e-06
2.04914821e-06
2.04979328e-06
2.05042784e-06
2.05105057e-06
2.05166107e-06
2.05225693e-06
2.05283901e-06
2.05340334e-06
2.0539526e-06
2.05448066e-06
2.0549927e-06
2.05547977e-06
2.05595028e-06
2.05639162e-06
2.05681626e-06
2.05720733e-06
2.05758108e-06
2.05791819e-06
2.05823555e-06
2.05851546e-06
2.05877189e-06
2.05899095e-06
2.05918274e-06
2.05933687e-06
2.05946046e-06
2.0595457e-06
2.0595976e-06
2.0596103e-06
2.05958708e-06
2.05952379e-06
2.05942215e-06
2.05927952e-06
2.05909623e-06
2.05887072e-06
2.05860233e-06
2.05828913e-06
2.05793127e-06
2.05752761e-06
2.05707773e-06
2.05657998e-06
2.05603419e-06
2.05543813e-06
2.05479197e-06
2.05409296e-06
2.0533415e-06
2.0525344e-06
2.05167216e-06
2.05075126e-06
2.04977219e-06
2.04873115e-06
2.04762852e-06
2.04646031e-06
2.04522675e-06
2.04392369e-06
2.04255118e-06
2.04110495e-06
2.03958487e-06
2.03798662e-06
2.03630989e-06
2.03455036e-06
2.0327076e-06
2.03077733e-06
2.02875905e-06
2.02664862e-06
2.02444554e-06
2.02214588e-06
2.01974923e-06
2.01725195e-06
2.01465386e-06
2.01195167e-06
2.00914552e-06
2.00623264e-06
2.00321357e-06
2.00008612e-06
1.99685138e-06
1.99350784e-06
1.9900572e-06
1.98649875e-06
1.98283486e-06
1.97906569e-06
1.97519432e-06
1.9712219e-06
1.96715218e-06
1.96298743e-06
1.95873203e-06
1.95438944e-06
1.94996465e-06
1.94546237e-06
1.94088705e-06
1.93624535e-06
1.93154366e-06
1.92678833e-06
1.92198652e-06
1.91714526e-06
1.91227228e-06
1.90737527e-06
1.90246235e-06
1.8975412e-06
1.89262053e-06
1.88770431e-06
1.88280346e-06
1.87790929e-06
1.87308616e-06
1.86834723e-06
1.86349408e-06
1.85888957e-06
1.85429562e-06
1.84977475e-06
1.84533314e-06
1.84099248e-06
1.83675036e-06
1.83262301e-06
1.82861154e-06
1.82472641e-06
1.8209726e-06
1.817357e-06
1.8138856e-06
1.81056363e-06
1.80739628e-06
1.80438804e-06
1.80154273e-06
1.79886427e-06
1.79635511e-06
1.79401854e-06
1.79185575e-06
1.78986922e-06
1.78805904e-06
1.78642669e-06
1.78497125e-06
1.78369315e-06
1.7825905e-06
1.78166264e-06
1.78090676e-06
1.78032114e-06
1.77990211e-06
1.77964693e-06
1.77955112e-06
1.77961099e-06
1.77982131e-06
1.78017755e-06
1.78067376e-06
1.78130466e-06
1.78206371e-06
1.78294496e-06
1.78394139e-06
1.78504649e-06
1.78625285e-06
1.78755356e-06
1.78894094e-06
1.7904078e-06
1.79194632e-06
1.79354919e-06
1.79520857e-06
1.79693004e-06
1.79869313e-06
1.80049072e-06
1.80231537e-06
1.80416024e-06
1.8060183e-06
1.80788314e-06
1.80974825e-06
1.81160775e-06
1.81345578e-06
1.81528713e-06
1.81709664e-06
1.81887984e-06
1.82063238e-06
1.82235061e-06
1.82403105e-06
1.82567092e-06
1.82726762e-06
1.82881929e-06
1.83032427e-06
1.83178161e-06
1.8331906e-06
1.8345512e-06
1.83586364e-06
1.8371288e-06
1.83834782e-06
1.83952246e-06
1.84065474e-06
1.8417473e-06
1.84280298e-06
1.84382523e-06
1.8448177e-06
1.8457846e-06
1.84673032e-06
1.84765978e-06
1.84857806e-06
1.84949074e-06
1.85040352e-06
1.85132258e-06
1.85225418e-06
1.85320503e-06
1.85418432e-06
1.85519695e-06
1.85625011e-06
1.85735135e-06
1.85850822e-06
1.85972856e-06
1.86102018e-06
1.86239112e-06
1.86384936e-06
1.86540303e-06
1.86706014e-06
1.86882879e-06
1.8707169e-06
1.87273238e-06
1.8748829e-06
1.87717602e-06
1.87961899e-06
1.8822188e-06
1.88498208e-06
1.88791508e-06
1.89102355e-06
1.89431278e-06
1.89778741e-06
1.90145149e-06
1.90530832e-06
1.90936045e-06
1.91360958e-06
1.9180565e-06
1.92270102e-06
1.92754193e-06
1.93257692e-06
1.93780253e-06
1.94321407e-06
1.94880562e-06
1.95456994e-06
1.96049846e-06
1.96658123e-06
1.97280691e-06
1.97916271e-06
1.98563449e-06
1.99220659e-06
1.99886205e-06
2.00558241e-06
2.01234798e-06
2.01913759e-06
2.02592902e-06
2.03269865e-06
2.03942194e-06
2.0460942e-06
2.0526679e-06
2.05911554e-06
2.06540912e-06
2.07151993e-06
2.07741896e-06
2.08307682e-06
2.08846413e-06
2.09355145e-06
2.09830964e-06
2.1027099e-06
2.10672403e-06
2.11032456e-06
2.11348495e-06
2.11617975e-06
2.11838479e-06
2.12007734e-06
2.12123627e-06
2.1218422e-06
2.12187768e-06
2.1213273e-06
2.12017779e-06
2.11841822e-06
2.11604e-06
2.11303703e-06
2.10940577e-06
2.10514524e-06
2.10025713e-06
2.09474576e-06
2.08861812e-06
2.08188384e-06
2.07455516e-06
2.06664687e-06
2.05817626e-06
2.04916303e-06
2.03962917e-06
2.02959887e-06
2.01909837e-06
2.00815584e-06
1.99680118e-06
1.98506592e-06
1.97298296e-06
1.96058646e-06
1.9479116e-06
1.9349944e-06
1.92187154e-06
1.90858009e-06
1.89515739e-06
1.8816408e-06
1.86806752e-06
1.85447433e-06
1.84089755e-06
1.82737264e-06
1.81393427e-06
1.80061591e-06
1.78744988e-06
1.77446704e-06
1.76169682e-06
1.74916688e-06
1.73690329e-06
1.72493239e-06
1.7132742e-06
1.70194887e-06
1.69097463e-06
1.68036751e-06
1.67014153e-06
1.66030849e-06
1.65087817e-06
1.64185814e-06
1.63325396e-06
1.62506912e-06
1.61730512e-06
1.60996152e-06
1.60303602e-06
1.59652453e-06
1.59042126e-06
1.58471882e-06
1.57940829e-06
1.57447938e-06
1.56992047e-06
1.56571879e-06
1.56186051e-06
1.55833083e-06
1.55511416e-06
1.55219419e-06
1.54955402e-06
1.54717633e-06
1.54504342e-06
1.54313739e-06
1.54144021e-06
1.53993387e-06
1.53860046e-06
1.5374223e-06
1.53638198e-06
1.53546252e-06
1.53464744e-06
1.53392082e-06
1.53326737e-06
1.53267256e-06
1.5321226e-06
1.53160457e-06
1.53110538e-06
1.53058033e-06
1.53001515e-06
1.5293914e-06
1.52868613e-06
1.52787167e-06
1.5269159e-06
1.5257832e-06
1.52443614e-06
1.52283873e-06
1.52096119e-06
1.51881271e-06
1.51637539e-06
1.5136916e-06
1.51085516e-06
1.50802992e-06
1.50546931e-06
1.50353506e-06
1.5027107e-06
1.50360479e-06
1.506937e-06
1.51350072e-06
1.5240974e-06
1.5394431e-06
1.56005598e-06
1.58614315e-06
1.61751381e-06
1.65354603e-06
1.69322268e-06
1.73522595e-06
1.77805363e-06
1.82010791e-06
1.85972794e-06
1.89521098e-06
1.92493363e-06
1.94767878e-06
1.96312233e-06
1.97219213e-06
1.9769582e-06
1.9800399e-06
1.98375678e-06
1.98918654e-06
1.99573721e-06
2.0010267e-06
2.00255208e-06
2.00087129e-06
1.99538988e-06
1.98144633e-06
1.93465152e-06
1.82497497e-06
1.76191881e-06
1.84196616e-06
1.97017167e-06
1.96994337e-06
1.85649123e-06
1.8493028e-06
1.99974489e-06
2.06645112e-06
2.0510368e-06
2.16066016e-06
2.43525971e-06
2.72595795e-06
2.70175048e-06
2.39660701e-06
2.0964378e-06
1.97963646e-06
1.98603827e-06
1.99555229e-06
2.06808087e-06
2.20188339e-06
2.26550829e-06
2.21713985e-06
2.11504403e-06
2.05604404e-06
1.90641983e-06
1.67955253e-06
1.63880507e-06
)
;

boundaryField
{
    closed
    {
        type            calculated;
        value           nonuniform List<scalar> 0();
    }
    open
    {
        type            calculated;
        value           uniform 1.82554357e-06;
    }
    sides
    {
        type            empty;
        value           nonuniform List<scalar> 0();
    }
    procBoundary5to4
    {
        type            processor;
        value           uniform -1.97557184e-06;
    }
}


// ************************************************************************* //
