/*--------------------------------*- C++ -*----------------------------------*\
| =========                 |                                                 |
| \\      /  F ield         | OpenFOAM: The Open Source CFD Toolbox           |
|  \\    /   O peration     | Version:  2306                                  |
|   \\  /    A nd           | Website:  www.openfoam.com                      |
|    \\/     M anipulation  |                                                 |
\*---------------------------------------------------------------------------*/
FoamFile
{
    version     2.0;
    format      ascii;
    arch        "LSB;label=32;scalar=64";
    class       volVectorField;
    location    "0.00158";
    object      U;
}
// * * * * * * * * * * * * * * * * * * * * * * * * * * * * * * * * * * * * * //

dimensions      [0 1 -1 0 0 0 0];

internalField   nonuniform List<vector> 
530
(
(1.6682309 0 0)
(1.67071147 0 0)
(1.67315005 0 0)
(1.67554478 0 0)
(1.67789967 0 0)
(1.68021129 0 0)
(1.68245796 0 0)
(1.68462369 0 0)
(1.6867289 0 0)
(1.68879573 0 0)
(1.69082795 0 0)
(1.69282433 0 0)
(1.69478505 0 0)
(1.69671034 0 0)
(1.69860117 0 0)
(1.70045779 0 0)
(1.70228111 0 0)
(1.70407132 0 0)
(1.70582929 0 0)
(1.70755538 0 0)
(1.70925103 0 0)
(1.71091691 0 0)
(1.71254964 0 0)
(1.71413632 0 0)
(1.71567102 0 0)
(1.71716561 0 0)
(1.71863229 0 0)
(1.72007271 0 0)
(1.72148696 0 0)
(1.72287515 0 0)
(1.72423828 0 0)
(1.72557696 0 0)
(1.72689236 0 0)
(1.72818516 0 0)
(1.72945663 0 0)
(1.73070756 0 0)
(1.73193935 0 0)
(1.7331529 0 0)
(1.73434967 0 0)
(1.73553059 0 0)
(1.73669711 0 0)
(1.73785066 0 0)
(1.73899457 0 0)
(1.74013383 0 0)
(1.7412689 0 0)
(1.7423964 0 0)
(1.74351679 0 0)
(1.74462564 0 0)
(1.74571424 0 0)
(1.74678289 0 0)
(1.7478428 0 0)
(1.74890029 0 0)
(1.74995671 0 0)
(1.75101194 0 0)
(1.7520667 0 0)
(1.75312122 0 0)
(1.75417624 0 0)
(1.75523179 0 0)
(1.75628842 0 0)
(1.75734596 0 0)
(1.75840481 0 0)
(1.75946465 0 0)
(1.76052572 0 0)
(1.76158757 0 0)
(1.76265036 0 0)
(1.76371351 0 0)
(1.76477712 0 0)
(1.76584056 0 0)
(1.76690387 0 0)
(1.76796641 0 0)
(1.7690282 0 0)
(1.77008861 0 0)
(1.77114768 0 0)
(1.7722048 0 0)
(1.77326007 0 0)
(1.7743129 0 0)
(1.77536345 0 0)
(1.7764112 0 0)
(1.77745637 0 0)
(1.77849847 0 0)
(1.7795378 0 0)
(1.78057391 0 0)
(1.78160714 0 0)
(1.7826371 0 0)
(1.78366415 0 0)
(1.78468792 0 0)
(1.7857088 0 0)
(1.78672638 0 0)
(1.78774109 0 0)
(1.78875264 0 0)
(1.78976178 0 0)
(1.79076752 0 0)
(1.79176523 0 0)
(1.79274936 0 0)
(1.79372303 0 0)
(1.79469107 0 0)
(1.79565507 0 0)
(1.79661411 0 0)
(1.79756796 0 0)
(1.79851579 0 0)
(1.79945751 0 0)
(1.80039225 0 0)
(1.80131979 0 0)
(1.80223916 0 0)
(1.80315005 0 0)
(1.8040514 0 0)
(1.80494279 0 0)
(1.80582311 0 0)
(1.80669183 0 0)
(1.80754779 0 0)
(1.80839038 0 0)
(1.8092184 0 0)
(1.81003115 0 0)
(1.81082744 0 0)
(1.81160648 0 0)
(1.81236711 0 0)
(1.81310844 0 0)
(1.81382939 0 0)
(1.81452897 0 0)
(1.81520619 0 0)
(1.81585998 0 0)
(1.81648945 0 0)
(1.81709347 0 0)
(1.81767128 0 0)
(1.81822167 0 0)
(1.81874323 0 0)
(1.81923397 0 0)
(1.8196955 0 0)
(1.8201265 0 0)
(1.820525 0 0)
(1.82089082 0 0)
(1.82122252 0 0)
(1.82151981 0 0)
(1.82178139 0 0)
(1.82200684 0 0)
(1.82219501 0 0)
(1.82234545 0 0)
(1.8224571 0 0)
(1.82252949 0 0)
(1.82256164 0 0)
(1.82255311 0 0)
(1.82250299 0 0)
(1.82241056 0 0)
(1.82227392 0 0)
(1.8220924 0 0)
(1.82186634 0 0)
(1.82159546 0 0)
(1.82127829 0 0)
(1.82091406 0 0)
(1.82050167 0 0)
(1.82004045 0 0)
(1.8195291 0 0)
(1.81896694 0 0)
(1.81835244 0 0)
(1.81768494 0 0)
(1.81696268 0 0)
(1.81618496 0 0)
(1.81534979 0 0)
(1.81445644 0 0)
(1.81350267 0 0)
(1.81248771 0 0)
(1.81140905 0 0)
(1.81026591 0 0)
(1.80905551 0 0)
(1.80777707 0 0)
(1.80642756 0 0)
(1.80500622 0 0)
(1.80350979 0 0)
(1.80193756 0 0)
(1.80028611 0 0)
(1.79855482 0 0)
(1.79674012 0 0)
(1.79484157 0 0)
(1.79285552 0 0)
(1.79078177 0 0)
(1.78861668 0 0)
(1.78636035 0 0)
(1.78400923 0 0)
(1.78156383 0 0)
(1.77902076 0 0)
(1.77638105 0 0)
(1.77364156 0 0)
(1.77080393 0 0)
(1.76786538 0 0)
(1.76482821 0 0)
(1.7616901 0 0)
(1.7584541 0 0)
(1.75511844 0 0)
(1.75168693 0 0)
(1.74815843 0 0)
(1.7445376 0 0)
(1.74082393 0 0)
(1.73702295 0 0)
(1.73313489 0 0)
(1.72916623 0 0)
(1.72511786 0 0)
(1.7209961 0 0)
(1.71680115 0 0)
(1.71254128 0 0)
(1.70822028 0 0)
(1.70384738 0 0)
(1.69942557 0 0)
(1.69496413 0 0)
(1.6904666 0 0)
(1.68594281 0 0)
(1.68139682 0 0)
(1.67683863 0 0)
(1.67227246 0 0)
(1.6677072 0 0)
(1.66314541 0 0)
(1.65859271 0 0)
(1.65407274 0 0)
(1.64961443 0 0)
(1.64514763 0 0)
(1.64073538 0 0)
(1.63642689 0 0)
(1.63216039 0 0)
(1.62795371 0 0)
(1.62382503 0 0)
(1.61978107 0 0)
(1.61582951 0 0)
(1.61197588 0 0)
(1.60822717 0 0)
(1.60458854 0 0)
(1.60106657 0 0)
(1.59766574 0 0)
(1.59439194 0 0)
(1.59124889 0 0)
(1.58824152 0 0)
(1.58537281 0 0)
(1.58264669 0 0)
(1.58006541 0 0)
(1.57763189 0 0)
(1.57534765 0 0)
(1.5732146 0 0)
(1.57123351 0 0)
(1.56940527 0 0)
(1.56772986 0 0)
(1.56620717 0 0)
(1.56483636 0 0)
(1.56361637 0 0)
(1.56254552 0 0)
(1.56162183 0 0)
(1.56084283 0 0)
(1.56020567 0 0)
(1.55970712 0 0)
(1.55934354 0 0)
(1.55911099 0 0)
(1.55900508 0 0)
(1.55902124 0 0)
(1.55915444 0 0)
(1.55939953 0 0)
(1.55975092 0 0)
(1.56020297 0 0)
(1.56074965 0 0)
(1.56138492 0 0)
(1.56210242 0 0)
(1.56289581 0 0)
(1.56375854 0 0)
(1.56468407 0 0)
(1.56566553 0 0)
(1.56669612 0 0)
(1.5677708 0 0)
(1.56888178 0 0)
(1.57002066 0 0)
(1.5711828 0 0)
(1.57236243 0 0)
(1.57355357 0 0)
(1.57475027 0 0)
(1.57594697 0 0)
(1.57713829 0 0)
(1.57831919 0 0)
(1.57948487 0 0)
(1.5806309 0 0)
(1.58175313 0 0)
(1.5828478 0 0)
(1.58391147 0 0)
(1.58494115 0 0)
(1.58593414 0 0)
(1.58688821 0 0)
(1.58780148 0 0)
(1.58867251 0 0)
(1.58950022 0 0)
(1.590284 0 0)
(1.59102358 0 0)
(1.59171912 0 0)
(1.59237119 0 0)
(1.59298073 0 0)
(1.59354908 0 0)
(1.59407796 0 0)
(1.59456943 0 0)
(1.59502596 0 0)
(1.59545033 0 0)
(1.59584568 0 0)
(1.59621546 0 0)
(1.59656346 0 0)
(1.59689376 0 0)
(1.59721072 0 0)
(1.597519 0 0)
(1.59782351 0 0)
(1.59812942 0 0)
(1.59844208 0 0)
(1.59876704 0 0)
(1.5991105 0 0)
(1.59947835 0 0)
(1.5998764 0 0)
(1.60031121 0 0)
(1.60078937 0 0)
(1.60131749 0 0)
(1.60190231 0 0)
(1.60255061 0 0)
(1.60326928 0 0)
(1.60406519 0 0)
(1.60494526 0 0)
(1.60591637 0 0)
(1.60698535 0 0)
(1.60815894 0 0)
(1.60944377 0 0)
(1.6108463 0 0)
(1.61237281 0 0)
(1.61402933 0 0)
(1.61582162 0 0)
(1.6177551 0 0)
(1.61983482 0 0)
(1.62206539 0 0)
(1.62445098 0 0)
(1.62699517 0 0)
(1.62970102 0 0)
(1.63257089 0 0)
(1.63560649 0 0)
(1.63880876 0 0)
(1.64217785 0 0)
(1.64571302 0 0)
(1.64941265 0 0)
(1.65327415 0 0)
(1.65729395 0 0)
(1.66146739 0 0)
(1.66578876 0 0)
(1.67025121 0 0)
(1.67484676 0 0)
(1.67956625 0 0)
(1.68439932 0 0)
(1.68933445 0 0)
(1.69435889 0 0)
(1.69945873 0 0)
(1.70461887 0 0)
(1.70982309 0 0)
(1.71505411 0 0)
(1.72029347 0 0)
(1.7255211 0 0)
(1.73071517 0 0)
(1.73585854 0 0)
(1.74093011 0 0)
(1.74590333 0 0)
(1.75075515 0 0)
(1.75546206 0 0)
(1.75999988 0 0)
(1.7643441 0 0)
(1.76847004 0 0)
(1.77235307 0 0)
(1.7759687 0 0)
(1.77929273 0 0)
(1.78230138 0 0)
(1.78497148 0 0)
(1.78728057 0 0)
(1.78920709 0 0)
(1.79073049 0 0)
(1.7918314 0 0)
(1.79249173 0 0)
(1.79269487 0 0)
(1.79242575 0 0)
(1.79167096 0 0)
(1.79041892 0 0)
(1.78865992 0 0)
(1.78638621 0 0)
(1.78359211 0 0)
(1.78027404 0 0)
(1.7764306 0 0)
(1.77206256 0 0)
(1.76717292 0 0)
(1.76176692 0 0)
(1.75585199 0 0)
(1.74943776 0 0)
(1.74253602 0 0)
(1.73516066 0 0)
(1.7273276 0 0)
(1.71905471 0 0)
(1.71036174 0 0)
(1.70127017 0 0)
(1.69180314 0 0)
(1.68198528 0 0)
(1.6718426 0 0)
(1.66140235 0 0)
(1.65069284 0 0)
(1.63974329 0 0)
(1.62858369 0 0)
(1.61724461 0 0)
(1.60575701 0 0)
(1.59415214 0 0)
(1.58246127 0 0)
(1.57071565 0 0)
(1.5589462 0 0)
(1.54718346 0 0)
(1.53545741 0 0)
(1.52379727 0 0)
(1.51223142 0 0)
(1.50078725 0 0)
(1.48949101 0 0)
(1.4783677 0 0)
(1.46744096 0 0)
(1.45673294 0 0)
(1.44626475 0 0)
(1.43605555 0 0)
(1.4261224 0 0)
(1.41648114 0 0)
(1.40714585 0 0)
(1.39812883 0 0)
(1.38944057 0 0)
(1.38108979 0 0)
(1.37308346 0 0)
(1.36542678 0 0)
(1.35812323 0 0)
(1.35117463 0 0)
(1.34458115 0 0)
(1.33834137 0 0)
(1.33245239 0 0)
(1.32690982 0 0)
(1.32170793 0 0)
(1.3168397 0 0)
(1.3122969 0 0)
(1.30807019 0 0)
(1.30414923 0 0)
(1.30052273 0 0)
(1.2971786 0 0)
(1.29410405 0 0)
(1.29128563 0 0)
(1.2887094 0 0)
(1.28636099 0 0)
(1.28422573 0 0)
(1.2822887 0 0)
(1.28053489 0 0)
(1.27894924 0 0)
(1.27751674 0 0)
(1.27622256 0 0)
(1.27505208 0 0)
(1.27399097 0 0)
(1.27302531 0 0)
(1.27214162 0 0)
(1.27132695 0 0)
(1.27056895 0 0)
(1.2698559 0 0)
(1.26917663 0 0)
(1.26851978 0 0)
(1.26785295 0 0)
(1.26714258 0 0)
(1.26637488 0 0)
(1.2655322 0 0)
(1.26459302 0 0)
(1.26353237 0 0)
(1.26232214 0 0)
(1.26093212 0 0)
(1.2593319 0 0)
(1.25749508 0 0)
(1.25540839 0 0)
(1.25306747 0 0)
(1.25048645 0 0)
(1.24772329 0 0)
(1.24488577 0 0)
(1.24214646 0 0)
(1.23975894 0 0)
(1.23807114 0 0)
(1.23753198 0 0)
(1.23868667 0 0)
(1.2421552 0 0)
(1.2485897 0 0)
(1.25860898 0 0)
(1.27271401 0 0)
(1.29119594 0 0)
(1.31405516 0 0)
(1.34095353 0 0)
(1.37121719 0 0)
(1.40389133 0 0)
(1.43782681 0 0)
(1.47176363 0 0)
(1.50438036 0 0)
(1.53431545 0 0)
(1.560224 0 0)
(1.58096014 0 0)
(1.59590946 0 0)
(1.6053321 0 0)
(1.61045772 0 0)
(1.61319493 0 0)
(1.61554222 0 0)
(1.618898 0 0)
(1.62342362 0 0)
(1.62793331 0 0)
(1.63035148 0 0)
(1.63008775 0 0)
(1.6268759 0 0)
(1.618812 0 0)
(1.59189658 0 0)
(1.5256526 0 0)
(1.45663635 0 0)
(1.47301493 0 0)
(1.56198885 0 0)
(1.60533681 0 0)
(1.54671365 0 0)
(1.50694239 0 0)
(1.57432635 0 0)
(1.65762635 0 0)
(1.6620833 0 0)
(1.71006007 0 0)
(1.89252045 0 0)
(2.15200232 0 0)
(2.23349167 0 0)
(2.07147217 0 0)
(1.80137066 0 0)
(1.65301418 0 0)
(1.60438571 0 0)
(1.62254967 0 0)
(1.64855902 0 0)
(1.75728398 0 0)
(1.82035383 0 0)
(1.83318324 0 0)
(1.75694597 0 0)
(1.71660553 0 0)
(1.62703997 0 0)
(1.43293486 0 0)
(1.27048937 0 0)
(1.48726975 0 0)
)
;

boundaryField
{
    closed
    {
        type            noSlip;
    }
    open
    {
        type            inletOutlet;
        inletValue      uniform (0 0 0);
        value           uniform (1.48726975 0 0);
    }
    sides
    {
        type            empty;
    }
    procBoundary5to4
    {
        type            processor;
        value           uniform (1.66570323 0 0);
    }
}


// ************************************************************************* //
