/*--------------------------------*- C++ -*----------------------------------*\
| =========                 |                                                 |
| \\      /  F ield         | OpenFOAM: The Open Source CFD Toolbox           |
|  \\    /   O peration     | Version:  2306                                  |
|   \\  /    A nd           | Website:  www.openfoam.com                      |
|    \\/     M anipulation  |                                                 |
\*---------------------------------------------------------------------------*/
FoamFile
{
    version     2.0;
    format      ascii;
    arch        "LSB;label=32;scalar=64";
    class       volScalarField;
    location    "0.00158";
    object      Z;
}
// * * * * * * * * * * * * * * * * * * * * * * * * * * * * * * * * * * * * * //

dimensions      [0 0 0 0 0 0 0];

internalField   nonuniform List<scalar> 
530
(
0.015861114
0.015867168
0.0158727608
0.0158786674
0.015884148
0.015889918
0.0158952783
0.0159006423
0.0159056458
0.0159109027
0.0159158247
0.0159209789
0.0159258214
0.0159308768
0.0159356416
0.0159406023
0.0159452909
0.0159501607
0.0159547749
0.0159595572
0.0159640986
0.0159687971
0.0159732674
0.0159778448
0.0159820681
0.0159864207
0.0159905731
0.0159948473
0.0159989289
0.016003126
0.0160071369
0.016011258
0.0160151985
0.0160192446
0.0160231148
0.0160270869
0.016030887
0.016034786
0.0160385163
0.016042343
0.0160460039
0.0160497591
0.0160533589
0.0160571527
0.0160607656
0.0160644851
0.0160680245
0.0160716709
0.0160750618
0.0160784738
0.0160817141
0.0160850514
0.0160882155
0.0160914778
0.0160945655
0.0160977524
0.0161007633
0.0161038743
0.0161068082
0.0161098429
0.0161126995
0.0161156573
0.0161184364
0.0161213169
0.0161240182
0.0161268209
0.0161294441
0.0161321685
0.0161347132
0.016137359
0.0161398249
0.0161423916
0.0161447785
0.0161472657
0.0161495731
0.0161519805
0.0161542081
0.0161565354
0.0161586829
0.0161609297
0.0161629968
0.0161651629
0.0161671494
0.0161692345
0.0161711401
0.016173144
0.0161749684
0.016176891
0.0161786342
0.0161804752
0.016182137
0.0161838963
0.0161854769
0.0161870406
0.0161884244
0.0161898831
0.016191182
0.0161925541
0.0161937675
0.0161950522
0.0161961794
0.016197376
0.0161984164
0.0161995242
0.016200477
0.0162014952
0.0162023599
0.0162032879
0.0162040638
0.0162049008
0.0162055874
0.0162063329
0.0162069296
0.0162075829
0.016208089
0.0162086497
0.0162090646
0.0162095323
0.0162098551
0.0162102298
0.0162104594
0.0162107412
0.0162108765
0.016211066
0.0162111051
0.0162112035
0.0162111444
0.0162111432
0.0162110022
0.0162108949
0.0162106683
0.0162104574
0.0162101424
0.0162098298
0.0162094241
0.0162090114
0.0162085129
0.0162080015
0.0162074084
0.0162067996
0.0162061098
0.0162054053
0.0162046164
0.0162038183
0.0162029637
0.0162020416
0.0162011224
0.0162000306
0.0161990841
0.0161978288
0.016196849
0.0161954355
0.0161944174
0.0161928503
0.0161917894
0.0161900733
0.0161889654
0.0161871045
0.0161859456
0.016183944
0.0161827304
0.0161805921
0.0161793203
0.0161770492
0.0161757158
0.0161733155
0.0161719175
0.0161693917
0.0161679262
0.0161652783
0.0161637428
0.016160976
0.0161593681
0.0161564855
0.0161548032
0.0161518078
0.0161500491
0.0161469438
0.016145107
0.0161418946
0.0161399782
0.0161366612
0.0161346641
0.0161312451
0.0161291661
0.0161256475
0.0161234858
0.0161198699
0.016117625
0.0161139139
0.0161115854
0.0161077811
0.0161053689
0.0161014735
0.0160989776
0.0160949927
0.0160924137
0.0160882779
0.0160855357
0.0160812816
0.016078455
0.0160741114
0.0160712007
0.0160667688
0.0160637741
0.0160592547
0.0160561766
0.0160515707
0.0160484096
0.01604372
0.0160404739
0.0160357085
0.0160323674
0.0160276129
0.0160241915
0.0160193072
0.0160157413
0.0160108406
0.0160071361
0.016002212
0.0159983813
0.0159934257
0.0159894788
0.0159844862
0.0159804289
0.0159753967
0.0159712325
0.0159661597
0.0159618913
0.0159567777
0.0159524077
0.0159472531
0.0159427843
0.0159375882
0.0159330238
0.0159277858
0.0159231289
0.0159178487
0.0159131026
0.0159077797
0.0159029474
0.0158975816
0.0158926664
0.0158872576
0.0158822624
0.0158768105
0.0158717384
0.0158662436
0.0158610973
0.0158555598
0.0158503421
0.0158447624
0.0158394759
0.0158338545
0.0158285019
0.0158228394
0.0158174233
0.0158117204
0.0158062432
0.0158005007
0.0157949649
0.0157891836
0.0157835922
0.0157777754
0.0157721318
0.0157662784
0.0157605834
0.0157546946
0.0157489505
0.0157430272
0.0157372364
0.01573128
0.0157254446
0.0157194563
0.0157135786
0.0157075598
0.0157016419
0.0156955938
0.015689638
0.0156835621
0.0156775706
0.0156714683
0.0156654431
0.0156593158
0.0156532591
0.0156471084
0.0156410222
0.0156348495
0.0156287361
0.015622543
0.0156164043
0.0156101924
0.0156040304
0.0155978013
0.0155916181
0.0155853733
0.0155791709
0.0155729122
0.0155666925
0.0155604215
0.0155541865
0.0155479048
0.0155416565
0.0155353681
0.0155291146
0.0155228222
0.0155165586
0.0155102598
0.015503988
0.0154976843
0.0154914063
0.0154850995
0.015478817
0.0154725088
0.0154662237
0.0154599157
0.01545363
0.0154473239
0.0154410393
0.0154347369
0.0154284551
0.0154221579
0.0154158809
0.0154095907
0.01540332
0.0153970384
0.015390776
0.0153845046
0.0153782521
0.0153719925
0.0153657517
0.0153595055
0.015353278
0.0153470469
0.0153408344
0.0153346199
0.0153284241
0.0153222277
0.0153160501
0.0153098735
0.0153037157
0.0152975603
0.0152914239
0.0152852913
0.0152791779
0.0152730695
0.0152669805
0.0152608978
0.0152548347
0.0152487792
0.0152427435
0.0152367195
0.0152307175
0.0152247254
0.0152187539
0.0152127934
0.0152068539
0.0152009262
0.01519502
0.0151891266
0.015183255
0.015177397
0.0151715612
0.01516574
0.0151599413
0.015154158
0.0151483976
0.0151426535
0.0151369325
0.0151312286
0.0151255483
0.0151198858
0.0151142472
0.0151086272
0.0151030314
0.015097455
0.0150919031
0.0150863712
0.0150808642
0.0150753778
0.0150699167
0.0150644768
0.0150590626
0.0150536701
0.0150483036
0.0150429594
0.0150376415
0.0150323466
0.0150270781
0.0150218331
0.0150166149
0.0150114207
0.0150062535
0.0150011108
0.0149959954
0.0149909048
0.0149858419
0.0149808042
0.0149757945
0.0149708102
0.0149658542
0.0149609241
0.0149560224
0.0149511469
0.0149463001
0.0149414798
0.0149366883
0.0149319238
0.0149271881
0.0149224797
0.0149178003
0.014913151
0.0149085331
0.0149039429
0.0148993818
0.0148948486
0.0148903447
0.0148858687
0.0148814222
0.0148770038
0.0148726151
0.0148682546
0.0148639238
0.0148596214
0.0148553488
0.0148511047
0.0148468904
0.0148427048
0.014838549
0.014834422
0.0148303249
0.0148262566
0.0148222182
0.0148182087
0.0148142291
0.0148102785
0.0148063577
0.014802466
0.014798604
0.0147947711
0.014790968
0.0147871939
0.0147834495
0.0147797342
0.0147760486
0.0147723919
0.0147687648
0.0147651667
0.0147615981
0.0147580584
0.0147545481
0.0147510666
0.0147476108
0.0147440581
0.0147402871
0.0147362868
0.014732047
0.0147275568
0.0147228063
0.0147177849
0.0147124835
0.0147068926
0.0147010048
0.0146948122
0.0146883096
0.0146814929
0.014674361
0.0146669139
0.0146591557
0.0146510927
0.0146427361
0.0146341005
0.0146252062
0.0146160783
0.0146067481
0.014597253
0.0145876371
0.0145779512
0.014568253
0.0145586067
0.0145490821
0.0145397545
0.0145307021
0.0145220052
0.0145137432
0.0145059915
0.0144988195
0.0144922852
0.0144864341
0.0144812935
0.0144768727
0.0144731591
0.0144701203
0.0144677045
0.0144658437
0.0144644606
0.0144634694
0.0144627906
0.0144623428
0.0144620662
0.0144618987
0.0144618038
0.0144617516
0.0144617265
0.0144617147
0.0144617096
0.0144617081
0.0144617072
0.014461707
0.0144617069
0.0144617069
0.0144617069
0.0144617069
0.0144617069
0.0144617069
0.0144617069
0.0144617069
0.0144617069
0.0144617069
0.0144617069
0.0144617069
0.0144617069
0.0144617069
0.0144617069
0.0144617069
0.0144617069
0.0144617069
0.0144617069
0.0144617069
0.0144617069
)
;

boundaryField
{
    closed
    {
        type            zeroGradient;
    }
    open
    {
        type            zeroGradient;
    }
    sides
    {
        type            empty;
    }
    procBoundary5to4
    {
        type            processor;
        value           uniform 0.0158554019;
    }
}


// ************************************************************************* //
