/*--------------------------------*- C++ -*----------------------------------*\
| =========                 |                                                 |
| \\      /  F ield         | OpenFOAM: The Open Source CFD Toolbox           |
|  \\    /   O peration     | Version:  2306                                  |
|   \\  /    A nd           | Website:  www.openfoam.com                      |
|    \\/     M anipulation  |                                                 |
\*---------------------------------------------------------------------------*/
FoamFile
{
    version     2.0;
    format      ascii;
    arch        "LSB;label=32;scalar=64";
    class       volScalarField;
    location    "0.00046";
    object      prefDh_H2;
}
// * * * * * * * * * * * * * * * * * * * * * * * * * * * * * * * * * * * * * //

dimensions      [1 1 -3 0 0 0 0];

internalField   nonuniform List<scalar> 
531
(
28.7025419
25.9874306
30.2712635
37.8653114
31.252827
23.3486908
23.2085982
36.3718693
38.3758547
37.8862291
30.0998894
29.5925762
25.2927412
22.7605167
28.3127597
37.8191256
29.0117277
27.3780153
31.5108311
38.375966
29.4001547
26.9453143
28.3283273
37.5797215
38.9978881
29.7573732
27.8720868
22.6500907
22.6785005
34.8747727
38.055262
32.1247676
26.1333952
25.0963664
35.61261
38.4280474
29.5822551
25.0748788
27.0017845
36.9106877
39.1101091
33.1467489
28.5002321
29.0962108
28.9137605
28.884389
29.7579554
28.8169167
34.9799426
39.0515113
30.1423366
28.6857257
29.0005293
29.3465144
29.9800062
28.9794643
28.7220274
28.8871624
29.1389883
29.0464283
28.8964441
28.8981588
28.9456596
28.9461914
28.9276879
28.9201394
28.9211743
28.9215709
28.9203796
28.918982
28.9184501
28.9178937
28.9175647
28.9173259
28.9171219
28.9169491
28.9168429
28.9167748
28.9167194
28.9166768
28.9166488
28.9166301
28.9166165
28.9166068
28.9166002
28.9165958
28.9165928
28.9165907
28.9165893
28.9165884
28.9165878
28.9165874
28.9165871
28.9165869
28.9165868
28.9165868
28.9165867
28.9165867
28.9165867
28.9165866
28.9165866
28.9165866
28.9165866
28.9165866
28.9165866
28.9165866
28.9165866
28.9165866
28.9165866
28.9165866
28.9165866
28.9165866
28.9165866
28.9165866
28.9165866
28.9165866
28.9165866
28.9165867
28.9165866
28.9165866
28.9165866
28.9165867
28.9165867
28.9165866
28.9165865
28.9165866
28.9165867
28.9165867
28.9165865
28.9165865
28.9165867
28.9165867
28.9165866
28.9165866
28.9165866
28.9165866
28.9165866
28.9165866
28.9165866
28.9165866
28.9165866
28.9165866
28.9165866
28.9165866
28.9165866
28.9165866
28.9165866
28.9165866
28.9165866
28.9165866
28.9165866
28.9165866
28.9165866
28.9165866
28.9165866
28.9165866
28.9165866
28.9165866
28.9165866
28.9165866
28.9165866
28.9165866
28.9165866
28.9165866
28.9165866
28.9165866
28.9165866
28.9165866
28.9165866
28.9165866
28.9165866
28.9165866
28.9165866
28.9165866
28.9165866
28.9165866
28.9165866
28.9165866
28.9165866
28.9165866
28.9165866
28.9165866
28.9165866
28.9165866
28.9165866
28.9165866
28.9165866
28.9165866
28.9165866
28.9165866
28.9165866
28.9165866
28.9165866
28.9165866
28.9165866
28.9165866
28.9165866
28.9165866
28.9165866
28.9165866
28.9165866
28.9165866
28.9165866
28.9165866
28.9165866
28.9165866
28.9165866
28.9165866
28.9165866
28.9165866
28.9165866
28.9165866
28.9165866
28.9165866
28.9165866
28.9165866
28.9165866
28.9165866
28.9165866
28.9165866
28.9165866
28.9165866
28.9165866
28.9165866
28.9165866
28.9165866
28.9165866
28.9165866
28.9165866
28.9165866
28.9165866
28.9165866
28.9165866
28.9165866
28.9165866
28.9165866
28.9165866
28.9165866
28.9165866
28.9165866
28.9165866
28.9165866
28.9165866
28.9165866
28.9165866
28.9165866
28.9165866
28.9165866
28.9165866
28.9165866
28.9165866
28.9165866
28.9165866
28.9165866
28.9165866
28.9165866
28.9165866
28.9165866
28.9165866
28.9165866
28.9165866
28.9165866
28.9165866
28.9165866
28.9165866
28.9165866
28.9165866
28.9165866
28.9165866
28.9165866
28.9165866
28.9165866
28.9165866
28.9165866
28.9165866
28.9165866
28.9165866
28.9165866
28.9165866
28.9165866
28.9165866
28.9165866
28.9165866
28.9165866
28.9165866
28.9165866
28.9165866
28.9165866
28.9165866
28.9165866
28.9165866
28.9165866
28.9165866
28.9165866
28.9165866
28.9165866
28.9165866
28.9165866
28.9165866
28.9165866
28.9165866
28.9165866
28.9165866
28.9165866
28.9165866
28.9165866
28.9165866
28.9165866
28.9165866
28.9165866
28.9165866
28.9165866
28.9165866
28.9165866
28.9165866
28.9165866
28.9165866
28.9165866
28.9165866
28.9165866
28.9165866
28.9165866
28.9165866
28.9165866
28.9165866
28.9165866
28.9165866
28.9165866
28.9165866
28.9165866
28.9165866
28.9165866
28.9165866
28.9165866
28.9165866
28.9165866
28.9165866
28.9165866
28.9165866
28.9165866
28.9165866
28.9165866
28.9165866
28.9165866
28.9165866
28.9165866
28.9165866
28.9165866
28.9165866
28.9165866
28.9165866
28.9165866
28.9165866
28.9165866
28.9165866
28.9165866
28.9165866
28.9165866
28.9165866
28.9165866
28.9165866
28.9165866
28.9165866
28.9165866
28.9165866
28.9165866
28.9165866
28.9165866
28.9165866
28.9165866
28.9165866
28.9165866
28.9165866
28.9165866
28.9165866
28.9165866
28.9165866
28.9165866
28.9165866
28.9165866
28.9165866
28.9165866
28.9165866
28.9165866
28.9165866
28.9165866
28.9165866
28.9165866
28.9165866
28.9165867
28.9165868
28.9165865
28.9165863
28.9165867
28.9165872
28.9165869
28.9165855
28.9165858
28.9165882
28.9165884
28.9165849
28.916584
28.9165876
28.91659
28.9165872
28.9165825
28.916584
28.9165907
28.9165909
28.9165841
28.9165824
28.9165867
28.91659
28.9165881
28.9165844
28.9165847
28.9165878
28.9165881
28.9165866
28.9165857
28.9165862
28.9165871
28.9165871
28.9165867
28.9165863
28.9165863
28.9165873
28.9165882
28.916587
28.9165836
28.9165844
28.916601
28.9166034
28.9165605
28.9165423
28.9166509
28.9167665
28.9165665
28.9161558
28.9163864
28.9179223
28.9180482
28.9142017
28.912902
28.9199924
28.9286701
28.9198716
28.8917812
28.8921183
28.9790639
29.004704
28.8611404
28.7703809
28.9372401
29.4240189
29.2003089
28.6579365
28.6705412
30.5593891
31.0522899
28.7117821
28.0896682
29.8214449
38.194723
28.8588397
24.8587189
28.4804017
37.968186
38.9720154
28.7431332
29.1892846
28.8735078
28.8098963
27.5896122
28.5698963
38.0827802
38.9834639
28.636387
26.3439425
28.5297952
37.9556813
38.3307463
28.6837241
23.9480561
28.5599155
37.8276464
38.1028732
28.7668155
21.7206111
21.8778226
34.7888064
38.1525943
29.329393
24.9859233
28.3468294
37.2549622
38.734809
28.850907
27.1808475
29.0735813
38.1340465
37.3932666
28.4597314
21.8823915
24.6342227
33.6853296
38.6505531
37.4511892
28.7156508
25.5722294
23.3871263
27.4589206
37.2105287
38.3514431
29.3991086
28.1961335
34.8815834
38.5093031
28.8877064
26.4440545
28.6394963
37.7664263
35.1546511
26.3552809
23.508646
31.5110263
38.1752527
28.6078688
24.9305915
28.5441937
37.6137373
)
;

boundaryField
{
    closed
    {
        type            calculated;
        value           nonuniform List<scalar> 0();
    }
    open
    {
        type            calculated;
        value           nonuniform List<scalar> 0();
    }
    sides
    {
        type            empty;
    }
    procBoundary3to2
    {
        type            processor;
        value           uniform 38.3878591;
    }
    procBoundary3to4
    {
        type            processor;
        value           uniform 34.5476537;
    }
}


// ************************************************************************* //
