/*--------------------------------*- C++ -*----------------------------------*\
| =========                 |                                                 |
| \\      /  F ield         | OpenFOAM: The Open Source CFD Toolbox           |
|  \\    /   O peration     | Version:  2306                                  |
|   \\  /    A nd           | Website:  www.openfoam.com                      |
|    \\/     M anipulation  |                                                 |
\*---------------------------------------------------------------------------*/
FoamFile
{
    version     2.0;
    format      ascii;
    arch        "LSB;label=32;scalar=64";
    class       volScalarField;
    location    "0.00046";
    object      PV;
}
// * * * * * * * * * * * * * * * * * * * * * * * * * * * * * * * * * * * * * //

dimensions      [0 0 0 0 0 0 0];

internalField   nonuniform List<scalar> 
531
(
-0.00716438073
-0.00723525935
-0.00709649443
-0.00701562076
-0.00708704284
-0.00725567259
-0.00725390427
-0.00702948713
-0.0070108511
-0.00701515169
-0.00710879193
-0.00721341099
-0.00723571488
-0.00725600276
-0.00716407875
-0.00701574071
-0.00713668231
-0.00722466242
-0.0070787294
-0.00701071576
-0.00712594416
-0.00722806607
-0.00717359561
-0.00701829879
-0.00700476117
-0.00712194723
-0.00722032947
-0.00725963501
-0.00725681949
-0.0070418793
-0.00701329369
-0.00707575448
-0.00723578555
-0.00724108611
-0.00703564172
-0.00700992067
-0.00712156046
-0.00724213058
-0.00722466436
-0.00702464523
-0.00700340292
-0.0070619851
-0.00718963286
-0.00721505079
-0.00717761899
-0.00715528952
-0.00721275524
-0.00721218496
-0.00704067567
-0.00700380002
-0.00710891777
-0.00719851368
-0.00719752579
-0.00712306087
-0.00710779812
-0.00713644951
-0.0071517448
-0.0071390588
-0.00712817708
-0.00713091728
-0.00713628035
-0.00713586152
-0.00713346561
-0.00713325206
-0.0071337846
-0.00713394294
-0.00713380368
-0.00713369474
-0.00713369187
-0.00713369378
-0.00713368634
-0.0071336776
-0.00713367164
-0.0071336654
-0.00713366242
-0.007133661
-0.00713365925
-0.00713365764
-0.00713365675
-0.00713365623
-0.00713365579
-0.00713365543
-0.00713365521
-0.00713365506
-0.00713365495
-0.00713365487
-0.00713365482
-0.00713365478
-0.00713365475
-0.00713365473
-0.00713365471
-0.0071336547
-0.00713365469
-0.00713365468
-0.00713365467
-0.00713365466
-0.00713365466
-0.00713365465
-0.00713365465
-0.00713365464
-0.00713365463
-0.00713365463
-0.00713365462
-0.00713365461
-0.00713365461
-0.0071336546
-0.0071336546
-0.00713365459
-0.00713365459
-0.00713365458
-0.00713365457
-0.00713365457
-0.00713365456
-0.00713365456
-0.00713365455
-0.00713365455
-0.00713365454
-0.00713365453
-0.00713365453
-0.00713365452
-0.00713365452
-0.0071336545
-0.0071336545
-0.00713365449
-0.00713365449
-0.00713365448
-0.00713365447
-0.00713365446
-0.00713365446
-0.00713365446
-0.00713365444
-0.00713365443
-0.00713365443
-0.00713365442
-0.00713365441
-0.0071336544
-0.0071336544
-0.00713365439
-0.00713365438
-0.00713365437
-0.00713365436
-0.00713365436
-0.00713365435
-0.00713365434
-0.00713365433
-0.00713365432
-0.00713365432
-0.00713365431
-0.0071336543
-0.00713365429
-0.00713365429
-0.00713365428
-0.00713365427
-0.00713365426
-0.00713365425
-0.00713365425
-0.00713365424
-0.00713365424
-0.00713365422
-0.00713365422
-0.00713365421
-0.00713365421
-0.0071336542
-0.00713365419
-0.00713365419
-0.00713365418
-0.00713365418
-0.00713365416
-0.00713365416
-0.00713365415
-0.00713365415
-0.00713365414
-0.00713365413
-0.00713365413
-0.00713365412
-0.00713365411
-0.00713365411
-0.0071336541
-0.0071336541
-0.00713365409
-0.00713365408
-0.00713365407
-0.00713365407
-0.00713365406
-0.00713365405
-0.00713365405
-0.00713365404
-0.00713365403
-0.00713365403
-0.00713365402
-0.00713365401
-0.007133654
-0.007133654
-0.00713365399
-0.00713365398
-0.00713365397
-0.00713365397
-0.00713365396
-0.00713365395
-0.00713365394
-0.00713365393
-0.00713365393
-0.00713365392
-0.00713365391
-0.0071336539
-0.0071336539
-0.00713365388
-0.00713365388
-0.00713365387
-0.00713365386
-0.00713365385
-0.00713365385
-0.00713365384
-0.00713365383
-0.00713365382
-0.00713365382
-0.00713365381
-0.0071336538
-0.0071336538
-0.00713365379
-0.00713365378
-0.00713365378
-0.00713365377
-0.00713365376
-0.00713365376
-0.00713365375
-0.00713365375
-0.00713365374
-0.00713365373
-0.00713365373
-0.00713365372
-0.00713365372
-0.00713365371
-0.0071336537
-0.0071336537
-0.00713365369
-0.00713365369
-0.00713365368
-0.00713365368
-0.00713365367
-0.00713365367
-0.00713365366
-0.00713365366
-0.00713365365
-0.00713365364
-0.00713365364
-0.00713365363
-0.00713365363
-0.00713365362
-0.00713365361
-0.00713365361
-0.0071336536
-0.00713365359
-0.00713365359
-0.00713365358
-0.00713365357
-0.00713365356
-0.00713365355
-0.00713365355
-0.00713365354
-0.00713365353
-0.00713365352
-0.00713365351
-0.0071336535
-0.00713365349
-0.00713365348
-0.00713365347
-0.00713365346
-0.00713365345
-0.00713365344
-0.00713365342
-0.00713365341
-0.0071336534
-0.00713365338
-0.00713365337
-0.00713365336
-0.00713365335
-0.00713365333
-0.00713365332
-0.00713365331
-0.00713365329
-0.00713365328
-0.00713365326
-0.00713365325
-0.00713365324
-0.00713365322
-0.00713365321
-0.00713365319
-0.00713365318
-0.00713365316
-0.00713365315
-0.00713365313
-0.00713365312
-0.00713365311
-0.00713365309
-0.00713365308
-0.00713365306
-0.00713365306
-0.00713365304
-0.00713365303
-0.00713365301
-0.007133653
-0.00713365299
-0.00713365297
-0.00713365296
-0.00713365295
-0.00713365293
-0.00713365292
-0.00713365291
-0.0071336529
-0.00713365289
-0.00713365288
-0.00713365287
-0.00713365285
-0.00713365284
-0.00713365283
-0.00713365282
-0.00713365281
-0.0071336528
-0.00713365279
-0.00713365278
-0.00713365277
-0.00713365276
-0.00713365275
-0.00713365274
-0.00713365273
-0.00713365271
-0.0071336527
-0.0071336527
-0.00713365268
-0.00713365267
-0.00713365266
-0.00713365265
-0.00713365264
-0.00713365264
-0.00713365262
-0.00713365261
-0.0071336526
-0.00713365259
-0.00713365258
-0.00713365257
-0.00713365256
-0.00713365255
-0.00713365254
-0.00713365253
-0.00713365252
-0.00713365252
-0.0071336525
-0.0071336525
-0.00713365248
-0.00713365248
-0.00713365247
-0.00713365246
-0.00713365245
-0.00713365244
-0.00713365244
-0.00713365242
-0.00713365242
-0.00713365241
-0.0071336524
-0.00713365239
-0.00713365238
-0.00713365238
-0.00713365236
-0.00713365236
-0.00713365235
-0.00713365233
-0.00713365233
-0.00713365232
-0.00713365231
-0.0071336523
-0.00713365228
-0.00713365228
-0.00713365226
-0.00713365226
-0.00713365224
-0.00713365224
-0.00713365222
-0.00713365221
-0.0071336522
-0.00713365219
-0.00713365217
-0.00713365216
-0.00713365215
-0.00713365214
-0.00713365212
-0.00713365211
-0.0071336521
-0.00713365209
-0.00713365207
-0.00713365205
-0.00713365205
-0.00713365204
-0.00713365202
-0.00713365198
-0.00713365199
-0.00713365203
-0.00713365201
-0.0071336519
-0.00713365189
-0.00713365201
-0.00713365204
-0.00713365189
-0.00713365178
-0.00713365189
-0.00713365207
-0.00713365201
-0.00713365173
-0.00713365172
-0.00713365198
-0.00713365204
-0.00713365187
-0.00713365174
-0.00713365181
-0.00713365195
-0.00713365194
-0.00713365181
-0.00713365181
-0.00713365186
-0.0071336519
-0.00713365188
-0.00713365184
-0.00713365185
-0.00713365187
-0.00713365188
-0.00713365189
-0.00713365185
-0.00713365182
-0.00713365187
-0.00713365203
-0.00713365201
-0.00713365141
-0.00713365134
-0.00713365314
-0.00713365399
-0.00713364982
-0.0071336457
-0.00713365374
-0.00713367123
-0.00713366241
-0.00713360413
-0.00713360122
-0.00713375662
-0.00713381825
-0.00713353755
-0.00713322807
-0.00713356984
-0.00713477734
-0.0071347839
-0.0071314952
-0.0071307287
-0.00713640763
-0.00714169101
-0.00713371663
-0.00711932766
-0.00712562523
-0.00716453367
-0.00716521577
-0.00709636405
-0.00708908958
-0.00717753883
-0.00722455039
-0.0071085239
-0.00701203416
-0.00713528642
-0.00724553014
-0.00718546062
-0.00701418132
-0.00700479669
-0.00715967397
-0.00720088079
-0.00717962166
-0.00718656141
-0.00722473796
-0.00719219952
-0.00701331461
-0.00700465654
-0.00715920897
-0.00723344388
-0.00715933912
-0.00701444697
-0.00701092082
-0.00719999153
-0.00725222192
-0.00716453417
-0.00701546214
-0.00701279495
-0.00718816202
-0.00726973324
-0.00726231895
-0.00704298474
-0.00701226261
-0.00713060173
-0.00724503611
-0.00721654631
-0.00702138368
-0.00700723519
-0.00716981199
-0.00722903803
-0.00713415473
-0.00701284269
-0.00701980998
-0.00719329672
-0.00726914689
-0.0072411576
-0.00705501063
-0.0070076904
-0.00701922896
-0.00717223096
-0.00724033595
-0.00725370696
-0.00722584221
-0.00702180717
-0.0070110798
-0.00719984776
-0.0072235781
-0.00704343654
-0.00700969483
-0.00715118341
-0.0072340515
-0.00714282136
-0.00701673751
-0.00704115193
-0.00723328851
-0.00725515188
-0.00707907206
-0.00701273738
-0.00715500331
-0.00724519448
-0.00714609515
-0.00701799559
)
;

boundaryField
{
    closed
    {
        type            zeroGradient;
    }
    open
    {
        type            zeroGradient;
    }
    sides
    {
        type            empty;
    }
    procBoundary3to2
    {
        type            processor;
        value           uniform -0.00701071618;
    }
    procBoundary3to4
    {
        type            processor;
        value           uniform -0.00704688244;
    }
}


// ************************************************************************* //
