/*--------------------------------*- C++ -*----------------------------------*\
| =========                 |                                                 |
| \\      /  F ield         | OpenFOAM: The Open Source CFD Toolbox           |
|  \\    /   O peration     | Version:  2306                                  |
|   \\  /    A nd           | Website:  www.openfoam.com                      |
|    \\/     M anipulation  |                                                 |
\*---------------------------------------------------------------------------*/
FoamFile
{
    version     2.0;
    format      ascii;
    arch        "LSB;label=32;scalar=64";
    class       volScalarField;
    location    "0.0016";
    object      alpha;
}
// * * * * * * * * * * * * * * * * * * * * * * * * * * * * * * * * * * * * * //

dimensions      [1 -1 -1 0 0 0 0];

internalField   nonuniform List<scalar> 
531
(
3.57397234e-05
3.52924596e-05
3.5341576e-05
3.48166776e-05
3.48312e-05
3.67639428e-05
3.67981657e-05
3.6719996e-05
3.67910994e-05
3.66906765e-05
3.51479158e-05
3.49562596e-05
3.67957197e-05
3.67835397e-05
3.57334826e-05
3.47945665e-05
3.48453982e-05
3.67904195e-05
3.68129789e-05
3.68004343e-05
3.68152726e-05
3.68121545e-05
3.57372517e-05
3.53266282e-05
3.50005876e-05
3.50035802e-05
3.679167e-05
3.68223275e-05
3.53654874e-05
3.51663673e-05
3.67868641e-05
3.68227751e-05
3.53471842e-05
3.52965518e-05
3.68008272e-05
3.6811971e-05
3.68150263e-05
3.57199462e-05
3.53902727e-05
3.6800524e-05
3.68045819e-05
3.68024615e-05
3.58958243e-05
3.54664531e-05
3.54737424e-05
3.5263903e-05
3.52208787e-05
3.48053638e-05
3.48189988e-05
3.67719044e-05
3.68231624e-05
3.67866441e-05
3.68292788e-05
3.67968051e-05
3.57610074e-05
3.51884285e-05
3.51926658e-05
3.67849138e-05
3.6844941e-05
3.56915613e-05
3.54375922e-05
3.67989993e-05
3.68347068e-05
3.5893768e-05
3.56301122e-05
3.53044633e-05
3.53042817e-05
3.67970902e-05
3.68348156e-05
3.59115194e-05
3.56037663e-05
3.54633351e-05
3.54123319e-05
3.50784133e-05
3.50843282e-05
3.67846118e-05
3.68336058e-05
3.67959878e-05
3.68377445e-05
3.57666646e-05
3.5610845e-05
3.6803071e-05
3.68332286e-05
3.5882344e-05
3.56471186e-05
3.52849166e-05
3.5284737e-05
3.68105767e-05
3.68219274e-05
3.5731288e-05
3.51316561e-05
3.51364513e-05
3.67871402e-05
3.68407253e-05
3.56200794e-05
3.54681035e-05
3.68099355e-05
3.68276727e-05
3.68205286e-05
3.57361316e-05
3.53242447e-05
3.51556033e-05
3.5156635e-05
3.68039147e-05
3.57537145e-05
3.51291823e-05
3.68047687e-05
3.68047289e-05
3.57957299e-05
3.51930446e-05
3.51960309e-05
3.67936022e-05
3.68193364e-05
3.67987271e-05
3.58160989e-05
3.52860032e-05
3.52863243e-05
3.68002272e-05
3.6815077e-05
3.57455126e-05
3.50776983e-05
3.50844281e-05
3.67841017e-05
3.68282035e-05
3.55332414e-05
3.52496448e-05
3.67885075e-05
3.68165956e-05
3.67883744e-05
3.68150228e-05
3.58258761e-05
3.53442598e-05
3.54023587e-05
3.50425318e-05
3.50468231e-05
3.67927481e-05
3.6803567e-05
3.57626461e-05
3.50744847e-05
3.52096673e-05
3.67887048e-05
3.58696315e-05
3.51945703e-05
3.68030733e-05
3.67992149e-05
3.57669493e-05
3.50032695e-05
3.50130901e-05
3.67905966e-05
3.68287932e-05
3.68024217e-05
3.68342174e-05
3.6817408e-05
3.57171966e-05
3.51793624e-05
3.51819946e-05
3.68082169e-05
3.68255602e-05
3.58229711e-05
3.54060492e-05
3.54519308e-05
3.51332096e-05
3.51364577e-05
3.68006064e-05
3.68245246e-05
3.5709194e-05
3.53531997e-05
3.68082514e-05
3.68062716e-05
3.57701018e-05
3.50706241e-05
3.50762761e-05
3.67993421e-05
3.68214614e-05
3.68020769e-05
3.68228158e-05
3.68110581e-05
3.57379962e-05
3.54616288e-05
3.512834e-05
3.51287147e-05
3.68101289e-05
3.68090298e-05
3.56574269e-05
3.46570195e-05
3.46747027e-05
3.67841994e-05
3.68161031e-05
3.67885608e-05
3.68190108e-05
3.57458533e-05
3.52812356e-05
3.68024831e-05
3.68062295e-05
3.57599962e-05
3.53966891e-05
3.50540151e-05
3.50567594e-05
3.68007839e-05
3.68120026e-05
3.67945768e-05
3.68162799e-05
3.57761695e-05
3.53781847e-05
3.52495481e-05
3.52504447e-05
3.68013733e-05
3.68143269e-05
3.57606758e-05
3.54321281e-05
3.51707906e-05
3.51737325e-05
3.67942302e-05
3.6819876e-05
3.54242381e-05
3.52430339e-05
3.67993381e-05
3.68232752e-05
3.53587596e-05
3.53196517e-05
3.68188047e-05
3.68166056e-05
3.68158774e-05
3.56098987e-05
3.51941626e-05
3.68332497e-05
3.68130095e-05
3.57092301e-05
3.50202789e-05
3.50279647e-05
3.68109993e-05
3.6836529e-05
3.56560284e-05
3.54113497e-05
3.68275992e-05
3.68181652e-05
3.57795872e-05
3.55829105e-05
3.53168112e-05
3.53284317e-05
3.68306147e-05
3.57488791e-05
3.51545881e-05
3.68156746e-05
3.68198005e-05
3.54839218e-05
3.52778796e-05
3.68111215e-05
3.68185553e-05
3.52739867e-05
3.52469183e-05
3.6819644e-05
3.68057556e-05
3.68102438e-05
3.54992125e-05
3.50305901e-05
3.68130216e-05
3.68090611e-05
3.52435846e-05
3.52279477e-05
3.68102422e-05
3.67956081e-05
3.67966537e-05
3.57496991e-05
3.51544723e-05
3.48712477e-05
3.48807249e-05
3.67960269e-05
3.67784537e-05
3.67888976e-05
3.55166505e-05
3.5013245e-05
3.67967933e-05
3.67795e-05
3.67884943e-05
3.67813124e-05
3.57915925e-05
3.5316461e-05
3.52893289e-05
3.51249147e-05
3.44691862e-05
3.44702171e-05
3.67799184e-05
3.67869933e-05
3.67897178e-05
3.67983302e-05
3.67938475e-05
3.68034203e-05
3.57046309e-05
3.50644114e-05
3.68155907e-05
3.67978303e-05
3.57209028e-05
3.48567865e-05
3.49883483e-05
3.68014525e-05
3.68037132e-05
3.67996255e-05
3.57686386e-05
3.54108267e-05
3.53676583e-05
3.52350345e-05
3.4691771e-05
3.46968947e-05
3.67957353e-05
3.68086667e-05
3.6796302e-05
3.68158951e-05
3.67955891e-05
3.57161074e-05
3.4939121e-05
3.49567677e-05
3.67941795e-05
3.68252975e-05
3.53903253e-05
3.53170399e-05
3.68157676e-05
3.68129765e-05
3.68151147e-05
3.56445513e-05
3.5259428e-05
3.68254487e-05
3.68046213e-05
3.57349138e-05
3.49666132e-05
3.50736587e-05
3.68247985e-05
3.68306922e-05
3.68309463e-05
3.57025852e-05
3.5036209e-05
3.50400375e-05
3.68285232e-05
3.68414286e-05
3.57220206e-05
3.50689055e-05
3.50710831e-05
3.68505909e-05
3.68632981e-05
3.55966222e-05
3.51761865e-05
3.68834681e-05
3.68826842e-05
3.56503067e-05
3.49053841e-05
3.49091908e-05
3.69187541e-05
3.69380809e-05
3.53879136e-05
3.48903993e-05
3.69760221e-05
3.69897829e-05
3.54437623e-05
3.44148493e-05
3.4514509e-05
3.70721169e-05
3.71213149e-05
3.71167764e-05
3.71182348e-05
3.71217666e-05
3.70925135e-05
3.50130251e-05
3.46745359e-05
3.69196582e-05
3.69875389e-05
3.69175874e-05
3.46535978e-05
3.43356616e-05
3.67030594e-05
3.6775171e-05
3.66971075e-05
3.67261942e-05
3.66791379e-05
3.66874784e-05
3.66553439e-05
3.66553515e-05
3.66305945e-05
3.6631736e-05
3.66114956e-05
3.66221768e-05
3.66178984e-05
3.66465757e-05
3.66867306e-05
3.6758294e-05
3.6933445e-05
3.72155089e-05
3.70931016e-05
3.69137803e-05
3.66910764e-05
3.65195685e-05
3.63348003e-05
3.61852901e-05
3.603989e-05
3.59245487e-05
3.57789415e-05
3.56212527e-05
3.55234488e-05
3.55551399e-05
3.53749425e-05
3.52557674e-05
3.51002941e-05
3.5010478e-05
3.48830219e-05
3.48283133e-05
3.45387508e-05
3.43411402e-05
3.39509954e-05
3.37896897e-05
3.35310537e-05
3.43430759e-05
3.57045322e-05
3.54206346e-05
3.47839349e-05
3.44170709e-05
3.38355182e-05
3.34015537e-05
3.28476744e-05
3.23575026e-05
3.18021541e-05
3.13593046e-05
3.12707521e-05
3.2061745e-05
3.15399272e-05
3.10445973e-05
3.16399788e-05
3.43973716e-05
3.45347157e-05
3.57435063e-05
3.48703401e-05
4.06816843e-05
4.13566054e-05
4.24560784e-05
4.31982271e-05
4.47319432e-05
4.65028572e-05
4.86797885e-05
5.11032848e-05
5.45925271e-05
5.63434161e-05
5.805577e-05
6.01397684e-05
6.17854397e-05
6.31539642e-05
6.44472983e-05
6.54750821e-05
6.66788096e-05
6.76155105e-05
6.88895406e-05
6.97490088e-05
7.07724698e-05
7.13548437e-05
7.21122337e-05
7.25829876e-05
7.32693522e-05
7.36840861e-05
7.43153391e-05
7.46858531e-05
7.52592673e-05
7.55869576e-05
7.61262596e-05
7.64124106e-05
7.68978388e-05
7.71414747e-05
7.75906611e-05
7.78015343e-05
7.82334088e-05
7.84325036e-05
7.88586736e-05
7.90573599e-05
7.95312311e-05
7.96978728e-05
7.99340565e-05
8.0046892e-05
8.02658344e-05
8.03758433e-05
8.05830833e-05
8.06935343e-05
8.08974855e-05
8.100078e-05
8.1186079e-05
8.13011637e-05
8.1524551e-05
8.16546761e-05
8.18448823e-05
8.19453726e-05
8.20992353e-05
8.21965181e-05
8.23325969e-05
8.24207179e-05
8.25427556e-05
8.26277395e-05
8.27418359e-05
8.28260538e-05
8.29337205e-05
8.30168554e-05
8.31185715e-05
8.32047365e-05
8.33044952e-05
8.33893879e-05
8.34823824e-05
8.35639626e-05
8.36514508e-05
8.37290627e-05
8.38090431e-05
8.38816937e-05
8.39554316e-05
8.40239823e-05
8.40893389e-05
8.41503766e-05
8.42109186e-05
8.4269885e-05
8.4327709e-05
8.43847522e-05
8.44401864e-05
8.4497535e-05
8.45536706e-05
8.4610314e-05
8.46651623e-05
8.47208366e-05
8.47757719e-05
8.48357814e-05
8.48920503e-05
8.4950199e-05
8.50043636e-05
8.50565403e-05
8.51022891e-05
8.5149653e-05
8.51935463e-05
8.52389634e-05
8.52811547e-05
8.53247921e-05
)
;

boundaryField
{
    closed
    {
        type            calculated;
        value           nonuniform List<scalar> 0();
    }
    open
    {
        type            calculated;
        value           nonuniform List<scalar> 0();
    }
    sides
    {
        type            empty;
    }
    procBoundary4to3
    {
        type            processor;
        value           uniform 3.68010902e-05;
    }
    procBoundary4to5
    {
        type            processor;
        value           uniform 8.5365423e-05;
    }
}


// ************************************************************************* //
