/*--------------------------------*- C++ -*----------------------------------*\
| =========                 |                                                 |
| \\      /  F ield         | OpenFOAM: The Open Source CFD Toolbox           |
|  \\    /   O peration     | Version:  2306                                  |
|   \\  /    A nd           | Website:  www.openfoam.com                      |
|    \\/     M anipulation  |                                                 |
\*---------------------------------------------------------------------------*/
FoamFile
{
    version     2.0;
    format      ascii;
    arch        "LSB;label=32;scalar=64";
    class       volScalarField;
    location    "0.0016";
    object      H;
}
// * * * * * * * * * * * * * * * * * * * * * * * * * * * * * * * * * * * * * //

dimensions      [0 0 0 0 0 0 0];

internalField   nonuniform List<scalar> 
531
(
3.03125492e-08
4.42211408e-08
4.28792164e-08
5.3145076e-08
5.27436626e-08
6.67698353e-10
1.11491355e-09
7.20737689e-10
1.13073938e-09
5.21248586e-10
4.67678894e-08
5.06748711e-08
8.1760424e-10
1.05538143e-09
3.44792828e-08
5.35277369e-08
5.24633913e-08
8.09290736e-10
1.19868713e-09
1.06044172e-09
1.29793766e-09
1.27366026e-09
3.20818091e-08
4.3275019e-08
4.95978979e-08
4.9443427e-08
7.49027011e-10
1.18451022e-09
4.26583366e-08
4.6285601e-08
7.38177191e-10
1.22820532e-09
4.3022434e-08
4.37424876e-08
7.07150842e-10
1.30169928e-09
1.17356718e-09
3.53217415e-08
4.20361506e-08
8.22914369e-10
1.30579895e-09
1.22813661e-09
2.06430501e-08
4.05490573e-08
4.02850912e-08
4.46084935e-08
4.52557154e-08
5.32980991e-08
5.29145837e-08
6.08294559e-10
1.20375223e-09
1.00009628e-09
1.31407021e-09
1.2562276e-09
2.72491742e-08
4.61160348e-08
4.55696126e-08
8.36626864e-10
1.28889018e-09
3.60325359e-08
4.07356374e-08
8.5906966e-10
1.35595655e-09
2.07653016e-08
3.67229045e-08
4.37854059e-08
4.34100882e-08
8.77937949e-10
1.33406815e-09
1.99973834e-08
3.72605462e-08
4.05695619e-08
4.12638508e-08
4.81628493e-08
4.77704509e-08
7.06143815e-10
1.25442434e-09
1.13622113e-09
1.31978615e-09
2.90673754e-08
3.71870409e-08
9.18673746e-10
1.3858707e-09
2.11660292e-08
3.64308476e-08
4.40960286e-08
4.38812884e-08
8.82189476e-10
1.21931638e-09
3.03610894e-08
4.71606735e-08
4.67162039e-08
8.41256318e-10
1.28110763e-09
3.75210758e-08
4.01584235e-08
7.7823549e-10
1.37153628e-09
1.26662956e-09
3.03267865e-08
4.32121209e-08
4.65666561e-08
4.65003945e-08
8.35214333e-10
2.91704919e-08
4.71680096e-08
8.72222037e-10
1.18288417e-09
2.57663727e-08
4.60077458e-08
4.56740253e-08
8.71337354e-10
1.31962167e-09
1.25953591e-09
2.43189738e-08
4.41693858e-08
4.39134655e-08
8.78031584e-10
1.20143692e-09
3.02566787e-08
4.82367156e-08
4.78197402e-08
8.2097942e-10
1.21967911e-09
3.94404873e-08
4.46628259e-08
6.84204269e-10
1.2193125e-09
1.09551952e-09
1.2313879e-09
2.42289529e-08
4.2945403e-08
4.1711039e-08
4.88770001e-08
4.8659355e-08
8.08584757e-10
1.14320003e-09
2.96263127e-08
4.83371714e-08
4.55390977e-08
9.13327407e-10
2.18784528e-08
4.59581229e-08
8.88016e-10
1.15219713e-09
2.81053453e-08
4.96433704e-08
4.92001465e-08
7.91579056e-10
1.25389248e-09
1.09769169e-09
1.34331658e-09
1.31234596e-09
3.13439785e-08
4.61812304e-08
4.58550327e-08
9.24446054e-10
1.26017483e-09
2.40886985e-08
4.16235689e-08
4.05887051e-08
4.71054687e-08
4.68194653e-08
8.78610056e-10
1.23435467e-09
3.57283785e-08
4.27338539e-08
9.51973779e-10
1.20283388e-09
2.79296189e-08
4.83354563e-08
4.80143894e-08
8.58992495e-10
1.25965354e-09
1.1199955e-09
1.33869584e-09
1.3178343e-09
3.09200737e-08
4.06129459e-08
4.71520544e-08
4.70959926e-08
8.38919685e-10
1.10257683e-09
3.65315464e-08
5.59852527e-08
5.56035846e-08
7.50507525e-10
1.11036304e-09
1.0888986e-09
1.1695731e-09
3.43658138e-08
4.4182215e-08
9.73974591e-10
1.23595936e-09
3.06880188e-08
4.19779161e-08
4.86388724e-08
4.84860826e-08
7.71515656e-10
1.18378308e-09
1.11548777e-09
1.22410101e-09
2.84405812e-08
4.2224135e-08
4.48924089e-08
4.46929731e-08
9.40664563e-10
1.25222097e-09
3.16296967e-08
4.12009992e-08
4.64738507e-08
4.6185385e-08
8.65732336e-10
1.2249558e-09
4.15769236e-08
4.47896772e-08
8.61361949e-10
1.25196282e-09
4.27764787e-08
4.32657742e-08
8.52958869e-10
1.30445833e-09
1.19666966e-09
3.7429325e-08
4.5853594e-08
1.04506914e-09
1.16851459e-09
3.33348044e-08
4.92626209e-08
4.88423272e-08
1.02886281e-09
1.25171537e-09
3.66582483e-08
4.14244358e-08
1.07741058e-09
1.31948262e-09
2.69398806e-08
3.81097706e-08
4.33967819e-08
4.32171872e-08
1.06227666e-09
3.10941567e-08
4.65553216e-08
1.01953581e-09
1.22741069e-09
4.02440881e-08
4.41429603e-08
9.33429394e-10
1.24147277e-09
4.4402732e-08
4.47602524e-08
8.29063033e-10
1.25559455e-09
1.07221089e-09
3.98346856e-08
4.9019599e-08
9.16228987e-10
1.18157641e-09
4.49971163e-08
4.5211645e-08
8.38434445e-10
1.28425508e-09
1.11923208e-09
3.4080974e-08
4.68821361e-08
5.20611849e-08
5.19275567e-08
7.70581236e-10
1.16026048e-09
9.84697917e-10
3.97013861e-08
4.95046403e-08
8.58942554e-10
1.11761872e-09
1.12979004e-09
1.15197057e-09
2.84976083e-08
4.38298121e-08
4.42399154e-08
4.74474212e-08
5.93149585e-08
5.92987303e-08
6.55938507e-10
9.91650625e-10
9.16152592e-10
1.03331571e-09
1.13705368e-09
1.09017644e-09
3.5653329e-08
4.84709779e-08
1.0533151e-09
1.1024797e-09
3.45987403e-08
5.23623328e-08
4.97423184e-08
9.79720255e-10
1.27891987e-09
1.22877202e-09
2.94203141e-08
4.18100614e-08
4.25829716e-08
4.5191732e-08
5.53413024e-08
5.52269524e-08
7.9329161e-10
1.1592381e-09
9.9275464e-10
1.27752054e-09
1.16830144e-09
3.45472523e-08
5.08609106e-08
5.02821274e-08
1.00153618e-09
1.21831691e-09
4.21053022e-08
4.33383724e-08
9.15917452e-10
1.30895028e-09
1.21594279e-09
3.67261819e-08
4.46685371e-08
1.10540324e-09
1.16825488e-09
2.99651741e-08
5.02391789e-08
4.79743379e-08
1.00802376e-09
1.31728543e-09
1.22863335e-09
3.42270685e-08
4.88233884e-08
4.85914662e-08
1.08819831e-09
1.21025386e-09
3.01607499e-08
4.80596148e-08
4.78798147e-08
1.12817386e-09
1.26770696e-09
3.70044429e-08
4.57271265e-08
1.18161565e-09
1.27192723e-09
3.20881815e-08
5.08938192e-08
5.06426317e-08
1.17038241e-09
1.32533988e-09
4.02667423e-08
5.07872076e-08
1.26684408e-09
1.32347416e-09
3.80046458e-08
6.02277086e-08
5.79889736e-08
1.20667327e-09
1.55087603e-09
1.59002676e-09
2.03135578e-09
2.18191029e-09
2.67609712e-09
4.35701144e-08
5.12591263e-08
4.02661968e-09
4.48173971e-09
4.90606784e-09
4.76193705e-08
5.62448722e-08
7.14342246e-09
7.54113139e-09
8.18830314e-09
8.76251746e-09
9.31180958e-09
9.96725164e-09
1.05064518e-08
1.1170677e-08
1.17295627e-08
1.23387616e-08
1.29319336e-08
1.33905058e-08
1.38925977e-08
1.41034004e-08
1.41986675e-08
1.38736137e-08
1.25087334e-08
9.74118876e-09
8.98949691e-09
9.29248266e-09
9.74063527e-09
1.0183051e-08
1.07586998e-08
1.13608643e-08
1.20809967e-08
1.28689587e-08
1.40172855e-08
1.51334468e-08
1.50445127e-08
1.17877627e-08
1.09436008e-08
1.07067929e-08
1.10808695e-08
1.1758833e-08
1.32006963e-08
1.45237769e-08
1.54189574e-08
1.53758387e-08
1.54760724e-08
1.51595799e-08
1.36900114e-08
9.1216832e-09
1.55708704e-09
1.57485135e-09
1.63456545e-09
1.64452604e-09
1.64800218e-09
1.6320286e-09
1.59446644e-09
1.55420815e-09
1.49687181e-09
1.37297683e-09
8.78569966e-10
3.15446799e-10
2.38250642e-10
1.16768311e-10
1.06609336e-10
2.66794675e-10
3.8019976e-11
8.2346619e-10
4.82180712e-10
2.80139797e-08
4.30152721e-08
4.13710628e-08
6.16242695e-08
9.80249341e-08
3.58295073e-07
8.77930404e-07
2.11954062e-06
6.50203652e-06
1.05761439e-05
1.49808219e-05
2.48082899e-05
3.35594949e-05
4.33347327e-05
5.28034156e-05
6.23801945e-05
7.3187573e-05
8.36538353e-05
9.79004359e-05
0.000109026269
0.000121080856
0.000128861612
0.000137513412
0.000143463141
0.00015058731
0.000155202088
0.000160872254
0.000164322811
0.000168817616
0.000171379899
0.000174943386
0.000176286966
0.000177788653
0.000177647528
0.000177270763
0.000176045868
0.000174137896
0.00017210417
0.00016873559
0.000166076586
0.000160924546
0.00015806844
0.000154069193
0.000151501268
0.000147485753
0.000144859751
0.000140790625
0.000138065392
0.000133803535
0.000131147376
0.000127009108
0.000124113898
0.000119160177
0.000116121596
0.000111830056
0.000109356424
0.000105620404
0.00010320692
9.97858589e-05
9.75975794e-05
9.44347404e-05
9.23217442e-05
8.935605e-05
8.73205693e-05
8.44881776e-05
8.2491999e-05
7.9791313e-05
7.78460787e-05
7.5314968e-05
7.34330591e-05
7.10683936e-05
6.92740676e-05
6.71218678e-05
6.54955558e-05
6.35211144e-05
6.19867571e-05
6.01449633e-05
5.86867108e-05
5.7066723e-05
5.5808916e-05
5.43156282e-05
5.3093931e-05
5.16668704e-05
5.04792328e-05
4.91129858e-05
4.80008268e-05
4.67423673e-05
4.56618313e-05
4.44473456e-05
4.33900228e-05
4.21987244e-05
4.10882618e-05
3.99100762e-05
3.88483122e-05
3.77357173e-05
3.6816771e-05
3.59228315e-05
3.51134801e-05
3.42674436e-05
3.34954206e-05
3.26935036e-05
3.19562097e-05
)
;

boundaryField
{
    closed
    {
        type            calculated;
        value           nonuniform List<scalar> 0();
    }
    open
    {
        type            calculated;
        value           nonuniform List<scalar> 0();
    }
    sides
    {
        type            empty;
    }
    procBoundary4to3
    {
        type            processor;
        value           uniform 1.23065062e-09;
    }
    procBoundary4to5
    {
        type            processor;
        value           uniform 3.11950116e-05;
    }
}


// ************************************************************************* //
