/*--------------------------------*- C++ -*----------------------------------*\
| =========                 |                                                 |
| \\      /  F ield         | OpenFOAM: The Open Source CFD Toolbox           |
|  \\    /   O peration     | Version:  2306                                  |
|   \\  /    A nd           | Website:  www.openfoam.com                      |
|    \\/     M anipulation  |                                                 |
\*---------------------------------------------------------------------------*/
FoamFile
{
    version     2.0;
    format      ascii;
    arch        "LSB;label=32;scalar=64";
    class       surfaceScalarField;
    location    "0.0016";
    object      phi;
}
// * * * * * * * * * * * * * * * * * * * * * * * * * * * * * * * * * * * * * //

dimensions      [1 0 -1 0 0 0 0];

oriented        oriented;

internalField   nonuniform List<scalar> 
530
(
2.04879348e-06
2.06449685e-06
2.07174695e-06
2.07288535e-06
2.00119205e-06
1.98344451e-06
1.98534985e-06
1.97002464e-06
1.9842497e-06
2.25011523e-06
2.29673539e-06
2.20977529e-06
2.18595266e-06
2.18153856e-06
2.1909534e-06
2.18688372e-06
2.1375131e-06
2.12679601e-06
2.12692127e-06
2.1279362e-06
2.12941536e-06
2.1315245e-06
2.1383562e-06
2.16800277e-06
2.16769108e-06
2.14080374e-06
2.14620318e-06
2.14492072e-06
2.17847363e-06
2.17882094e-06
2.16977988e-06
2.17142587e-06
2.20204451e-06
2.20520422e-06
2.19923592e-06
2.19780622e-06
2.21664575e-06
2.20881172e-06
2.22017804e-06
2.21837771e-06
2.21893439e-06
2.21247873e-06
2.24644717e-06
2.27176658e-06
2.2687948e-06
2.27483085e-06
2.27363246e-06
2.25164022e-06
2.24611927e-06
2.23400067e-06
2.23206086e-06
2.21960172e-06
2.21875203e-06
2.21844418e-06
2.23124388e-06
2.21986704e-06
2.24454393e-06
2.22539689e-06
2.2333916e-06
2.25822128e-06
2.26292266e-06
2.26301396e-06
2.26354146e-06
2.28041641e-06
2.30621827e-06
2.29167753e-06
2.25390145e-06
2.27498796e-06
2.27064019e-06
2.29360384e-06
2.31820548e-06
2.31597755e-06
2.31716372e-06
2.2883516e-06
2.26595316e-06
2.26950818e-06
2.27227463e-06
2.25712041e-06
2.25627019e-06
2.26974812e-06
2.27398545e-06
2.27648774e-06
2.27862623e-06
2.30030592e-06
2.32583478e-06
2.30794472e-06
2.27068416e-06
2.28787295e-06
2.27617944e-06
2.28465539e-06
2.26949252e-06
2.24267178e-06
2.248135e-06
2.23659078e-06
2.24359629e-06
2.23580229e-06
2.23348212e-06
2.22515537e-06
2.20539651e-06
2.20307365e-06
2.21820172e-06
2.18361387e-06
2.16986315e-06
2.14707874e-06
2.1433235e-06
2.10663556e-06
2.10387119e-06
2.0821076e-06
2.07438988e-06
2.04197069e-06
2.01705154e-06
2.00534469e-06
1.98506429e-06
1.95096409e-06
1.94906467e-06
1.92187022e-06
1.88016514e-06
1.89834268e-06
1.8742944e-06
1.86394904e-06
1.83180558e-06
1.78361216e-06
1.8056024e-06
1.7867567e-06
1.74972618e-06
1.72993332e-06
1.7371485e-06
1.7239097e-06
1.70359527e-06
1.68894405e-06
1.69016409e-06
1.68649957e-06
1.67633187e-06
1.6407163e-06
1.60983106e-06
1.64068141e-06
1.63117455e-06
1.62383845e-06
1.60115847e-06
1.57941193e-06
1.58716826e-06
1.57730106e-06
1.55173494e-06
1.58415741e-06
1.57478502e-06
1.56924885e-06
1.53811224e-06
1.51664165e-06
1.54642729e-06
1.54331179e-06
1.53176302e-06
1.52778457e-06
1.51832811e-06
1.51820407e-06
1.5060536e-06
1.50176109e-06
1.5382213e-06
1.53862264e-06
1.54358829e-06
1.54988464e-06
1.55181563e-06
1.53726269e-06
1.51570196e-06
1.5537603e-06
1.5569254e-06
1.53685386e-06
1.53489939e-06
1.56109546e-06
1.56285978e-06
1.56780584e-06
1.55646009e-06
1.57506947e-06
1.57559415e-06
1.57987099e-06
1.58210469e-06
1.58557875e-06
1.59500341e-06
1.60369792e-06
1.62377492e-06
1.62370721e-06
1.59546052e-06
1.63548723e-06
1.6370794e-06
1.6504245e-06
1.63538365e-06
1.64877081e-06
1.64212582e-06
1.64960199e-06
1.64796763e-06
1.6501262e-06
1.65764237e-06
1.66311848e-06
1.66906072e-06
1.67024635e-06
1.67303371e-06
1.68005157e-06
1.66826294e-06
1.65445513e-06
1.6540969e-06
1.65105892e-06
1.6455943e-06
1.64102546e-06
1.64371915e-06
1.64891736e-06
1.62998635e-06
1.63087743e-06
1.6111351e-06
1.60807976e-06
1.60284422e-06
1.59955845e-06
1.58718598e-06
1.5636421e-06
1.56256014e-06
1.55512126e-06
1.55423717e-06
1.5488335e-06
1.54104414e-06
1.53693863e-06
1.53805546e-06
1.53692888e-06
1.53041696e-06
1.52875864e-06
1.53230306e-06
1.5333961e-06
1.53455018e-06
1.52467161e-06
1.52393302e-06
1.52433848e-06
1.53103848e-06
1.51483031e-06
1.51375087e-06
1.50844814e-06
1.51975516e-06
1.51723054e-06
1.50217855e-06
1.49831609e-06
1.49706669e-06
1.49972207e-06
1.50199984e-06
1.47717526e-06
1.47699509e-06
1.47170741e-06
1.46509065e-06
1.4495031e-06
1.44943076e-06
1.46627765e-06
1.46644988e-06
1.45476896e-06
1.45883187e-06
1.48104579e-06
1.49171605e-06
1.4817763e-06
1.49450642e-06
1.50863023e-06
1.55290666e-06
1.56872458e-06
1.56037218e-06
1.57566408e-06
1.62379028e-06
1.64663133e-06
1.63783e-06
1.65433044e-06
1.6843628e-06
1.6983509e-06
1.72189615e-06
1.72888364e-06
1.75566701e-06
1.7132857e-06
1.72779673e-06
1.73213028e-06
1.78117023e-06
1.77007043e-06
1.73319607e-06
1.72555405e-06
1.71376548e-06
1.69912387e-06
1.68408035e-06
1.67255565e-06
1.64972946e-06
1.62510763e-06
1.58722239e-06
1.55012293e-06
1.49483098e-06
1.45897868e-06
1.41484233e-06
1.37603043e-06
1.34005188e-06
1.30247492e-06
1.27825411e-06
1.241838e-06
1.21658963e-06
1.19254727e-06
1.17585706e-06
1.16341074e-06
1.16013088e-06
1.16320179e-06
1.16753289e-06
1.17444867e-06
1.18862427e-06
1.20958933e-06
1.23166775e-06
1.25576303e-06
1.2772929e-06
1.312352e-06
1.32384287e-06
1.34989553e-06
1.36878568e-06
1.38563756e-06
1.40763037e-06
1.41932724e-06
1.43937485e-06
1.42045497e-06
1.41327489e-06
1.40721046e-06
1.42300331e-06
1.41184993e-06
1.394866e-06
1.38350354e-06
1.37178635e-06
1.3622472e-06
1.34864494e-06
1.33247355e-06
1.32429181e-06
1.3183591e-06
1.31517182e-06
1.3010028e-06
1.29655287e-06
1.29179784e-06
1.28848295e-06
1.28615781e-06
1.2890253e-06
1.30528673e-06
1.30023875e-06
1.30765478e-06
1.31602212e-06
1.32465196e-06
1.33850176e-06
1.34637098e-06
1.36430956e-06
1.40155631e-06
1.42564455e-06
1.44064416e-06
1.47127665e-06
1.50835484e-06
1.55260053e-06
1.58146921e-06
1.59369683e-06
1.61602852e-06
1.67215761e-06
1.68100536e-06
1.65061229e-06
1.6460642e-06
1.66950978e-06
1.65995294e-06
1.61801973e-06
1.5942585e-06
1.59111347e-06
1.59179758e-06
1.59737377e-06
1.60757159e-06
1.61982792e-06
1.66353829e-06
1.6733616e-06
1.64539494e-06
1.62342479e-06
1.58771688e-06
1.56075777e-06
1.50282025e-06
1.43562179e-06
1.38722093e-06
1.35583408e-06
1.3453686e-06
1.36018889e-06
1.39776229e-06
1.45330881e-06
1.5165873e-06
1.57566067e-06
1.61620434e-06
1.62595694e-06
1.59516979e-06
1.52085198e-06
1.40440724e-06
1.25820651e-06
1.09499234e-06
9.44719942e-07
8.23112257e-07
6.92867372e-07
6.10523077e-07
5.80946681e-07
6.06783784e-07
6.75002037e-07
7.72959919e-07
8.80088117e-07
9.77355081e-07
1.04287803e-06
1.07517139e-06
1.08107419e-06
1.05319234e-06
1.02584629e-06
1.02431738e-06
1.0725268e-06
1.19845649e-06
1.4064959e-06
1.70319341e-06
2.05289446e-06
2.44546547e-06
2.78069805e-06
3.00842183e-06
3.01251232e-06
2.73235046e-06
2.27607062e-06
1.50121139e-06
5.21968235e-07
-4.45926519e-07
-1.23372946e-06
-1.62742816e-06
-1.58881791e-06
-1.16499774e-06
-5.80568519e-07
1.75934068e-09
4.23437389e-07
6.09118705e-07
6.22946434e-07
5.88148556e-07
5.92473115e-07
5.96984858e-07
6.74814315e-07
6.88461223e-07
7.5508201e-07
5.30647814e-07
1.10538935e-06
1.15192318e-06
1.13982984e-06
1.11603588e-06
1.08127909e-06
1.09881702e-06
1.26535241e-06
1.37949659e-06
1.51365571e-06
1.71784501e-06
1.95389071e-06
2.1850563e-06
2.41858965e-06
2.62027897e-06
2.77836326e-06
2.8752351e-06
2.89967972e-06
2.85467134e-06
2.75239648e-06
2.59478184e-06
2.40101521e-06
2.1768534e-06
1.94057622e-06
1.70270286e-06
1.47830827e-06
1.27437836e-06
1.10058273e-06
9.58657215e-07
8.5289978e-07
7.81475772e-07
7.44085555e-07
7.36390309e-07
7.58491378e-07
7.94137846e-07
8.56598672e-07
9.28085801e-07
1.00883363e-06
1.0938526e-06
1.18069571e-06
1.26573277e-06
1.34416037e-06
1.41715586e-06
1.48308491e-06
1.54101732e-06
1.59040862e-06
1.63111149e-06
1.66329244e-06
1.68736893e-06
1.70408298e-06
1.71434411e-06
1.71949016e-06
1.7204883e-06
1.71851262e-06
1.71468536e-06
1.71028979e-06
1.7064479e-06
1.70404602e-06
1.70389839e-06
1.70659701e-06
1.71265589e-06
1.72220836e-06
1.73537987e-06
1.75189247e-06
1.7714867e-06
1.79353796e-06
1.81742504e-06
1.84234789e-06
1.86753698e-06
1.89204681e-06
1.91506826e-06
1.93570149e-06
1.95323275e-06
1.96694044e-06
1.97633074e-06
1.9809511e-06
1.98060675e-06
1.97517954e-06
1.96478549e-06
1.94965207e-06
1.93021731e-06
1.90698937e-06
1.88065161e-06
1.8519187e-06
1.82162136e-06
1.79057002e-06
1.75961998e-06
1.72955902e-06
1.70116132e-06
1.67508687e-06
1.651938e-06
1.63216522e-06
1.61611775e-06
1.6040067e-06
1.59592321e-06
1.59175949e-06
1.59142136e-06
1.59464453e-06
1.60106787e-06
1.61025336e-06
1.62170252e-06
)
;

boundaryField
{
    closed
    {
        type            calculated;
        value           nonuniform List<scalar> 0();
    }
    open
    {
        type            calculated;
        value           nonuniform List<scalar> 0();
    }
    sides
    {
        type            empty;
        value           nonuniform List<scalar> 0();
    }
    procBoundary4to3
    {
        type            processor;
        value           uniform -2.033135e-06;
    }
    procBoundary4to5
    {
        type            processor;
        value           uniform 1.63487926e-06;
    }
}


// ************************************************************************* //
