/*--------------------------------*- C++ -*----------------------------------*\
| =========                 |                                                 |
| \\      /  F ield         | OpenFOAM: The Open Source CFD Toolbox           |
|  \\    /   O peration     | Version:  2306                                  |
|   \\  /    A nd           | Website:  www.openfoam.com                      |
|    \\/     M anipulation  |                                                 |
\*---------------------------------------------------------------------------*/
FoamFile
{
    version     2.0;
    format      ascii;
    arch        "LSB;label=32;scalar=64";
    class       volScalarField;
    location    "0.0016";
    object      prefDPV_H2;
}
// * * * * * * * * * * * * * * * * * * * * * * * * * * * * * * * * * * * * * //

dimensions      [1 -1 -1 0 0 0 0];

internalField   nonuniform List<scalar> 
531
(
-3.09069834e-05
-3.06112998e-05
-3.06501775e-05
-3.0265124e-05
-3.02792236e-05
-3.14462811e-05
-3.1504442e-05
-3.14151685e-05
-3.15000276e-05
-3.13780062e-05
-3.05087186e-05
-3.03650049e-05
-3.14817197e-05
-3.14887713e-05
-3.0930048e-05
-3.02496232e-05
-3.02898651e-05
-3.14769699e-05
-3.15219583e-05
-3.1502378e-05
-3.15308088e-05
-3.15266452e-05
-3.09169984e-05
-3.06385358e-05
-3.04015733e-05
-3.04051235e-05
-3.14737865e-05
-3.15282566e-05
-3.06655669e-05
-3.05233962e-05
-3.1469248e-05
-3.15316992e-05
-3.06522307e-05
-3.0617733e-05
-3.14781206e-05
-3.15285035e-05
-3.15217792e-05
-3.09242168e-05
-3.06845915e-05
-3.1485869e-05
-3.15230348e-05
-3.15158343e-05
-3.09529263e-05
-3.0739695e-05
-3.07457762e-05
-3.05920809e-05
-3.05626123e-05
-3.02584849e-05
-3.02716484e-05
-3.14484888e-05
-3.15302694e-05
-3.14873152e-05
-3.15428716e-05
-3.15134192e-05
-3.09015121e-05
-3.05367755e-05
-3.05443379e-05
-3.1474531e-05
-3.15532748e-05
-3.09029441e-05
-3.07213737e-05
-3.14871765e-05
-3.15500831e-05
-3.09523411e-05
-3.08613747e-05
-3.06218186e-05
-3.06247566e-05
-3.14869862e-05
-3.15486064e-05
-3.0959666e-05
-3.08423109e-05
-3.07377153e-05
-3.070294e-05
-3.0457515e-05
-3.04650831e-05
-3.14652611e-05
-3.15420037e-05
-3.15042441e-05
-3.15498683e-05
-3.09180836e-05
-3.08470559e-05
-3.14945222e-05
-3.15510724e-05
-3.09468566e-05
-3.08733957e-05
-3.06082461e-05
-3.06099358e-05
-3.14978825e-05
-3.15304076e-05
-3.09012135e-05
-3.04960171e-05
-3.05032331e-05
-3.14766061e-05
-3.15494413e-05
-3.08508537e-05
-3.07432367e-05
-3.14901885e-05
-3.15457262e-05
-3.15326756e-05
-3.09044834e-05
-3.06376848e-05
-3.05148556e-05
-3.05160805e-05
-3.14893886e-05
-3.09093995e-05
-3.04946781e-05
-3.14926263e-05
-3.15143903e-05
-3.09165024e-05
-3.05403339e-05
-3.05452203e-05
-3.14837835e-05
-3.15355242e-05
-3.15151567e-05
-3.09211326e-05
-3.06082102e-05
-3.06105688e-05
-3.14894594e-05
-3.15237921e-05
-3.09107917e-05
-3.0456218e-05
-3.0464588e-05
-3.14728042e-05
-3.15353305e-05
-3.07867069e-05
-3.05837392e-05
-3.14668248e-05
-3.15262454e-05
-3.14953991e-05
-3.15258749e-05
-3.09276986e-05
-3.06511918e-05
-3.06939858e-05
-3.04310035e-05
-3.04359339e-05
-3.1478755e-05
-3.15106703e-05
-3.09189435e-05
-3.04533532e-05
-3.05538699e-05
-3.14828576e-05
-3.09428104e-05
-3.05416516e-05
-3.14923908e-05
-3.15079018e-05
-3.09117468e-05
-3.04020722e-05
-3.04128292e-05
-3.14758824e-05
-3.15382147e-05
-3.15065593e-05
-3.15488004e-05
-3.1533502e-05
-3.08976356e-05
-3.05313326e-05
-3.05359235e-05
-3.14989659e-05
-3.15361401e-05
-3.09245365e-05
-3.06967635e-05
-3.07308399e-05
-3.04974358e-05
-3.05021979e-05
-3.14897977e-05
-3.15335001e-05
-3.09154496e-05
-3.06579562e-05
-3.15009109e-05
-3.1517012e-05
-3.09128341e-05
-3.04515412e-05
-3.04582566e-05
-3.14874408e-05
-3.1532907e-05
-3.15078637e-05
-3.15395971e-05
-3.15289457e-05
-3.09098077e-05
-3.07364137e-05
-3.04944287e-05
-3.04952416e-05
-3.14945322e-05
-3.15120777e-05
-3.08792315e-05
-3.01507173e-05
-3.0166835e-05
-3.14679982e-05
-3.15181613e-05
-3.14950772e-05
-3.15246103e-05
-3.09381794e-05
-3.06054523e-05
-3.14979199e-05
-3.15193345e-05
-3.09241347e-05
-3.06887351e-05
-3.04396301e-05
-3.04429314e-05
-3.14825201e-05
-3.15201394e-05
-3.15016717e-05
-3.15263388e-05
-3.09207273e-05
-3.06762037e-05
-3.05816077e-05
-3.05839166e-05
-3.14947218e-05
-3.15268129e-05
-3.09308733e-05
-3.07150015e-05
-3.05237488e-05
-3.05283097e-05
-3.14838878e-05
-3.15292064e-05
-3.07076737e-05
-3.05789704e-05
-3.14876022e-05
-3.15337751e-05
-3.06607919e-05
-3.06346468e-05
-3.1502322e-05
-3.15323134e-05
-3.15240794e-05
-3.08451552e-05
-3.0542489e-05
-3.15269979e-05
-3.15198456e-05
-3.0905125e-05
-3.04153334e-05
-3.04244924e-05
-3.1508441e-05
-3.15440899e-05
-3.08776881e-05
-3.0701265e-05
-3.15248399e-05
-3.15346019e-05
-3.09129138e-05
-3.08248279e-05
-3.0631991e-05
-3.06400246e-05
-3.15261392e-05
-3.09188197e-05
-3.05144399e-05
-3.15114518e-05
-3.15293216e-05
-3.07520821e-05
-3.0603918e-05
-3.15018717e-05
-3.15293481e-05
-3.05994909e-05
-3.05813744e-05
-3.15013304e-05
-3.15203634e-05
-3.15108912e-05
-3.07638634e-05
-3.04234846e-05
-3.15021668e-05
-3.15176842e-05
-3.05773802e-05
-3.0566869e-05
-3.14945876e-05
-3.15144894e-05
-3.15035633e-05
-3.09390796e-05
-3.05107762e-05
-3.03069354e-05
-3.0312909e-05
-3.14787085e-05
-3.14922181e-05
-3.14880041e-05
-3.07751148e-05
-3.04085716e-05
-3.14854324e-05
-3.14900071e-05
-3.14979196e-05
-3.14938679e-05
-3.09322989e-05
-3.06280872e-05
-3.06094093e-05
-3.048921e-05
-3.00144843e-05
-3.00153855e-05
-3.14580982e-05
-3.14869963e-05
-3.14838515e-05
-3.14988209e-05
-3.15026272e-05
-3.15068116e-05
-3.09130154e-05
-3.04467931e-05
-3.1513752e-05
-3.15033009e-05
-3.09218066e-05
-3.02956519e-05
-3.03939597e-05
-3.14975128e-05
-3.15204343e-05
-3.15136637e-05
-3.09218934e-05
-3.06981643e-05
-3.06674029e-05
-3.05708933e-05
-3.01769564e-05
-3.0181627e-05
-3.14800487e-05
-3.15157941e-05
-3.14943829e-05
-3.15298378e-05
-3.15062066e-05
-3.09180303e-05
-3.03550854e-05
-3.03719621e-05
-3.14933327e-05
-3.15329667e-05
-3.06841018e-05
-3.06325875e-05
-3.15043009e-05
-3.15298057e-05
-3.15248502e-05
-3.08702603e-05
-3.05890784e-05
-3.15251219e-05
-3.1513269e-05
-3.09011655e-05
-3.03769134e-05
-3.04573899e-05
-3.15177956e-05
-3.15442011e-05
-3.15381036e-05
-3.0906228e-05
-3.04287339e-05
-3.04334383e-05
-3.15263188e-05
-3.15449789e-05
-3.08931606e-05
-3.04540247e-05
-3.04570931e-05
-3.1546359e-05
-3.15660605e-05
-3.08392336e-05
-3.05338906e-05
-3.15757152e-05
-3.15814275e-05
-3.08543821e-05
-3.03400451e-05
-3.03449404e-05
-3.16023702e-05
-3.16281165e-05
-3.06941919e-05
-3.03340054e-05
-3.16534171e-05
-3.16679501e-05
-3.07394571e-05
-2.99952363e-05
-3.0071165e-05
-3.17235127e-05
-3.17845734e-05
-3.17786565e-05
-3.1794937e-05
-3.18036759e-05
-3.17897316e-05
-3.0448261e-05
-3.02099226e-05
-3.16538516e-05
-3.17409352e-05
-3.16816772e-05
-3.02103013e-05
-2.99874701e-05
-3.15311047e-05
-3.16220084e-05
-3.15613075e-05
-3.1612952e-05
-3.15820354e-05
-3.16148602e-05
-3.15998379e-05
-3.16246531e-05
-3.16187336e-05
-3.1643626e-05
-3.16446594e-05
-3.16755255e-05
-3.16921079e-05
-3.17351668e-05
-3.1788443e-05
-3.18618056e-05
-3.20171962e-05
-3.2244486e-05
-3.21714577e-05
-3.20533605e-05
-3.19106526e-05
-3.18050403e-05
-3.16961887e-05
-3.16141729e-05
-3.15408675e-05
-3.14922245e-05
-3.14220656e-05
-3.13397283e-05
-3.12956895e-05
-3.13293544e-05
-3.12283759e-05
-3.11742527e-05
-3.11132187e-05
-3.10941996e-05
-3.10729264e-05
-3.10875015e-05
-3.09650957e-05
-3.08722192e-05
-3.06871957e-05
-3.06145891e-05
-3.05324049e-05
-3.11398552e-05
-3.2232222e-05
-3.20780261e-05
-3.17315831e-05
-3.15342505e-05
-3.12229895e-05
-3.09927853e-05
-3.07009379e-05
-3.04443604e-05
-3.01553917e-05
-2.99447277e-05
-2.99901277e-05
-3.06815799e-05
-3.04071182e-05
-3.0128403e-05
-3.08326457e-05
-3.34320912e-05
-3.34998396e-05
-3.5155494e-05
-3.41945345e-05
-4.04508784e-05
-4.10406762e-05
-4.25266016e-05
-4.32127235e-05
-4.5107587e-05
-4.68736109e-05
-4.94173724e-05
-5.19896571e-05
-5.61218344e-05
-5.81362691e-05
-6.04148307e-05
-6.29261336e-05
-6.51075899e-05
-6.67353022e-05
-6.83808057e-05
-6.95400612e-05
-7.10274874e-05
-7.20848454e-05
-7.36146517e-05
-7.45774829e-05
-7.58081749e-05
-7.64652439e-05
-7.7380572e-05
-7.79153417e-05
-7.87384182e-05
-7.92132951e-05
-7.99620498e-05
-8.03864893e-05
-8.10510091e-05
-8.14217049e-05
-8.20303103e-05
-8.23601567e-05
-8.29211961e-05
-8.32176911e-05
-8.37484217e-05
-8.40160781e-05
-8.45364023e-05
-8.47963753e-05
-8.53177186e-05
-8.55810873e-05
-8.61672975e-05
-8.63884364e-05
-8.66980237e-05
-8.6859307e-05
-8.71485539e-05
-8.73041011e-05
-8.75769389e-05
-8.77339154e-05
-8.80057698e-05
-8.81541877e-05
-8.8405388e-05
-8.85692946e-05
-8.88719955e-05
-8.9052917e-05
-8.9311253e-05
-8.9451995e-05
-8.96639352e-05
-8.97999533e-05
-8.99905985e-05
-9.01149919e-05
-9.02875605e-05
-9.04068301e-05
-9.05699387e-05
-9.06885323e-05
-9.08431349e-05
-9.09596472e-05
-9.11061594e-05
-9.12268927e-05
-9.13710772e-05
-9.14890242e-05
-9.1623262e-05
-9.17359348e-05
-9.1861603e-05
-9.19681347e-05
-9.20833699e-05
-9.21831262e-05
-9.22896549e-05
-9.23837637e-05
-9.24792333e-05
-9.25638727e-05
-9.26526058e-05
-9.27341772e-05
-9.28186894e-05
-9.28974172e-05
-9.29781616e-05
-9.30575646e-05
-9.31393666e-05
-9.32177336e-05
-9.32973044e-05
-9.33741748e-05
-9.34532609e-05
-9.35352469e-05
-9.36151498e-05
-9.36938347e-05
-9.37699036e-05
-9.38400741e-05
-9.39040368e-05
-9.39675532e-05
-9.40287078e-05
-9.40895628e-05
-9.41481267e-05
-9.42065271e-05
)
;

boundaryField
{
    closed
    {
        type            calculated;
        value           nonuniform List<scalar> 0();
    }
    open
    {
        type            calculated;
        value           nonuniform List<scalar> 0();
    }
    sides
    {
        type            empty;
    }
    procBoundary4to3
    {
        type            processor;
        value           uniform -3.1514942e-05;
    }
    procBoundary4to5
    {
        type            processor;
        value           uniform -9.42627006e-05;
    }
}


// ************************************************************************* //
