/*--------------------------------*- C++ -*----------------------------------*\
| =========                 |                                                 |
| \\      /  F ield         | OpenFOAM: The Open Source CFD Toolbox           |
|  \\    /   O peration     | Version:  2306                                  |
|   \\  /    A nd           | Website:  www.openfoam.com                      |
|    \\/     M anipulation  |                                                 |
\*---------------------------------------------------------------------------*/
FoamFile
{
    version     2.0;
    format      ascii;
    arch        "LSB;label=32;scalar=64";
    class       volScalarField;
    location    "0.00144";
    object      prefDPV_T;
}
// * * * * * * * * * * * * * * * * * * * * * * * * * * * * * * * * * * * * * //

dimensions      [1 -1 -1 -1 0 0 0];

internalField   nonuniform List<scalar> 
531
(
5.90597318e-10
5.90121712e-10
5.90416989e-10
6.0685046e-10
6.09654028e-10
6.01787384e-10
5.90785275e-10
5.90613017e-10
6.03141441e-10
6.10038016e-10
6.03878296e-10
5.90839161e-10
5.90477328e-10
6.00421967e-10
6.10526736e-10
6.05465687e-10
5.90926173e-10
5.90391778e-10
5.98239817e-10
6.11011169e-10
6.07079585e-10
5.91405169e-10
5.90429615e-10
5.96899556e-10
6.11219099e-10
6.10200109e-10
5.92643572e-10
5.90779337e-10
5.96310655e-10
6.11421416e-10
6.10255171e-10
5.92252875e-10
5.90342119e-10
5.94572229e-10
6.11373652e-10
6.08767019e-10
6.11904409e-10
5.93625955e-10
5.9086621e-10
5.90296509e-10
5.9029561e-10
5.93928774e-10
6.11911095e-10
6.11902471e-10
5.92854404e-10
5.9047592e-10
5.93473265e-10
6.12045328e-10
6.12097143e-10
5.92297012e-10
5.90151498e-10
5.92691971e-10
6.12307763e-10
6.09591241e-10
5.92701529e-10
5.93968317e-10
6.1191913e-10
6.08902224e-10
5.9267972e-10
5.94174081e-10
6.11477858e-10
6.11848332e-10
5.91999283e-10
5.90196673e-10
5.93073765e-10
6.1144333e-10
6.12154716e-10
5.92088344e-10
5.89905192e-10
5.89596181e-10
5.91771758e-10
6.10913893e-10
6.08515757e-10
6.10545846e-10
5.91598879e-10
5.90001113e-10
5.93257905e-10
6.10824343e-10
6.11092515e-10
5.92483811e-10
5.90754515e-10
5.95720086e-10
6.10134288e-10
6.10681047e-10
5.93008595e-10
5.90367011e-10
5.9019443e-10
5.93862787e-10
6.10457936e-10
6.11176799e-10
5.91973015e-10
5.90536497e-10
5.94831826e-10
6.10229874e-10
6.1116309e-10
5.9145754e-10
5.90354282e-10
5.9426821e-10
6.10677358e-10
6.08376503e-10
6.10961238e-10
5.91785397e-10
5.90053843e-10
5.89949068e-10
5.93650482e-10
6.10208608e-10
6.11184746e-10
5.91727387e-10
5.90521357e-10
5.95175338e-10
6.09955866e-10
6.11135301e-10
5.91311711e-10
5.90261293e-10
5.94355707e-10
6.10301661e-10
6.10124135e-10
5.92016404e-10
5.94348605e-10
6.09702229e-10
6.11580991e-10
5.9076173e-10
5.8996875e-10
5.94112275e-10
6.10042134e-10
6.1119469e-10
5.90923468e-10
5.90033703e-10
5.94214864e-10
6.0990945e-10
6.11045275e-10
5.90948087e-10
5.90025407e-10
5.9422203e-10
6.09818343e-10
6.10914641e-10
5.90952982e-10
5.90025125e-10
5.94160961e-10
6.09728192e-10
6.10765031e-10
5.910012e-10
5.900479e-10
5.94209458e-10
6.0960677e-10
6.10566997e-10
5.91111876e-10
5.90115141e-10
5.94329739e-10
6.09524565e-10
6.10461081e-10
5.91069558e-10
5.89950197e-10
5.93765016e-10
6.09761234e-10
6.12069976e-10
5.91103463e-10
5.93002208e-10
6.0937983e-10
6.09961799e-10
5.90881078e-10
5.92871923e-10
6.09132009e-10
6.10435868e-10
5.90714133e-10
5.89849386e-10
5.94056913e-10
6.09327442e-10
6.09974248e-10
5.91058414e-10
5.90469128e-10
5.90426191e-10
5.90104091e-10
5.93546331e-10
6.09213688e-10
6.11514373e-10
5.91217179e-10
5.931236e-10
6.08786304e-10
6.10491014e-10
5.90587676e-10
5.89652407e-10
5.93737679e-10
6.09334725e-10
6.11839085e-10
5.91046732e-10
5.9294589e-10
6.08798678e-10
6.10621869e-10
5.90417825e-10
5.89617464e-10
5.94268732e-10
6.09365214e-10
6.12084629e-10
5.90862611e-10
5.92951152e-10
6.08890271e-10
6.10810415e-10
5.90136246e-10
5.8956023e-10
5.95340678e-10
6.0953634e-10
6.08237513e-10
5.90620824e-10
5.93199966e-10
6.08995244e-10
6.11040994e-10
5.89964637e-10
5.89559704e-10
5.95568175e-10
6.09262728e-10
6.10787649e-10
5.90178193e-10
5.89952648e-10
5.97679122e-10
6.09067056e-10
6.11066516e-10
5.90266873e-10
5.89757859e-10
5.90331149e-10
5.99936135e-10
6.09113987e-10
6.10150544e-10
5.9006841e-10
5.90376593e-10
6.06088311e-10
6.09913901e-10
5.98992848e-10
5.89993382e-10
5.92726501e-10
6.08909039e-10
6.10527204e-10
5.91758107e-10
5.89859954e-10
5.94194972e-10
6.08911062e-10
6.10740583e-10
5.91067175e-10
5.89752445e-10
5.94128545e-10
6.09560548e-10
6.09833109e-10
5.90762819e-10
5.94429683e-10
6.08616199e-10
6.11335673e-10
5.90353616e-10
5.89639639e-10
5.94997285e-10
6.08976628e-10
6.11096016e-10
5.90727011e-10
5.89816425e-10
5.95468217e-10
6.08866037e-10
6.11025178e-10
5.908961e-10
5.90015414e-10
5.959812e-10
6.08739364e-10
6.10627177e-10
5.92006466e-10
5.90385228e-10
5.90041498e-10
5.89737872e-10
5.94610135e-10
6.09511907e-10
6.07614435e-10
5.9088883e-10
5.95044547e-10
6.08940217e-10
6.07012554e-10
5.9093127e-10
5.95696648e-10
6.08578885e-10
6.11927598e-10
5.90068137e-10
5.89836545e-10
5.96523781e-10
6.09172835e-10
6.12045979e-10
5.89909437e-10
5.89554421e-10
5.96165236e-10
6.09775182e-10
6.04941956e-10
5.90528883e-10
5.95273351e-10
6.09270428e-10
6.04531124e-10
5.90679941e-10
5.95842683e-10
6.08816239e-10
6.12000053e-10
5.89751365e-10
5.89844555e-10
5.97358111e-10
6.09161843e-10
6.11944304e-10
5.90170071e-10
5.89965539e-10
5.97287444e-10
6.0913287e-10
6.11958476e-10
5.89971201e-10
5.89816141e-10
5.96839996e-10
6.09248606e-10
6.11989064e-10
5.89630343e-10
5.8951719e-10
5.96188665e-10
6.09552156e-10
6.05610578e-10
5.90570616e-10
5.94819629e-10
6.08900289e-10
6.1177778e-10
5.8940324e-10
5.89411718e-10
5.9565566e-10
6.09489757e-10
6.06934156e-10
5.90612891e-10
5.94157507e-10
6.09071514e-10
6.10985175e-10
5.89421142e-10
5.89255117e-10
5.94549419e-10
6.09906372e-10
6.07960135e-10
5.9046353e-10
5.93108786e-10
6.0969675e-10
6.08603173e-10
5.90629693e-10
5.92932105e-10
6.09895666e-10
6.09945835e-10
5.90199711e-10
5.89588792e-10
5.93316281e-10
6.10666288e-10
6.10049417e-10
5.90653207e-10
5.89507653e-10
5.9203536e-10
6.11547108e-10
6.12022397e-10
5.91120459e-10
5.9139753e-10
6.10919442e-10
6.11939331e-10
5.91711011e-10
5.91358676e-10
6.07304982e-10
6.10476027e-10
5.93612766e-10
5.89260847e-10
5.90173291e-10
6.07976176e-10
6.11863483e-10
5.94489759e-10
5.91350512e-10
6.03602013e-10
6.11808852e-10
5.95896972e-10
5.91769429e-10
6.02235455e-10
6.11073361e-10
5.98250039e-10
5.89944309e-10
5.90100892e-10
6.04266835e-10
6.11545705e-10
5.97688789e-10
5.92175231e-10
6.01313381e-10
6.11000064e-10
6.00098745e-10
5.90422685e-10
5.9044908e-10
6.03310048e-10
6.10663334e-10
6.01009061e-10
5.90528117e-10
5.90531749e-10
6.03057093e-10
6.1049041e-10
6.01461266e-10
5.90604109e-10
5.90566016e-10
6.02990818e-10
6.1025769e-10
6.0210291e-10
5.9070559e-10
5.90584188e-10
6.02876379e-10
6.10209382e-10
6.01251765e-10
5.90458184e-10
5.89772472e-10
5.90022686e-10
6.03069725e-10
6.09613923e-10
6.09209583e-10
5.99536886e-10
5.90279347e-10
5.90257415e-10
6.0324401e-10
6.10376583e-10
5.99738688e-10
5.90139825e-10
5.90115984e-10
6.04049824e-10
6.10588232e-10
5.97095325e-10
5.9157181e-10
6.01906353e-10
6.1039398e-10
5.98081746e-10
5.89901343e-10
5.89893285e-10
6.05016695e-10
6.10686152e-10
5.95788005e-10
5.91252129e-10
6.03149278e-10
6.10581969e-10
5.95755824e-10
5.91305325e-10
6.0359627e-10
6.10470962e-10
5.95925245e-10
5.91441242e-10
6.03340068e-10
6.10300179e-10
5.96885235e-10
5.898732e-10
5.89909693e-10
6.07763704e-10
6.10299931e-10
5.95789506e-10
5.91500499e-10
6.03828946e-10
6.10189414e-10
5.97611916e-10
5.90219233e-10
5.90472619e-10
6.09747801e-10
6.09963962e-10
5.96650633e-10
5.90172877e-10
5.90513544e-10
6.1036451e-10
6.10026113e-10
5.96092186e-10
5.90032276e-10
5.9043862e-10
6.10648151e-10
6.10118474e-10
5.95485667e-10
5.89903093e-10
5.90389912e-10
6.12002774e-10
6.10098701e-10
5.93671479e-10
5.91282152e-10
6.06158643e-10
6.10145597e-10
5.96338785e-10
5.90077682e-10
5.90539822e-10
6.07469225e-10
6.08559273e-10
6.08608717e-10
5.94752953e-10
5.90566364e-10
5.89964027e-10
5.9054652e-10
6.11841243e-10
6.10162307e-10
5.94435296e-10
5.89708771e-10
5.90488088e-10
6.11568654e-10
6.09879278e-10
5.92499542e-10
5.91275679e-10
6.11759025e-10
6.1008059e-10
5.94527549e-10
5.89897213e-10
5.90942144e-10
6.11195481e-10
6.10188158e-10
5.92012658e-10
5.91424799e-10
6.11796982e-10
6.1027101e-10
5.91744119e-10
5.91234039e-10
6.12296819e-10
6.09624392e-10
5.95382147e-10
5.90031557e-10
5.90801679e-10
6.1131565e-10
6.09479254e-10
5.95203099e-10
5.89899818e-10
5.9065474e-10
6.11413955e-10
6.09449556e-10
5.9541721e-10
5.89934037e-10
5.90645511e-10
6.11503116e-10
6.0937614e-10
5.95843188e-10
5.90005048e-10
5.90645784e-10
6.11627743e-10
6.09310947e-10
5.9624719e-10
5.9006919e-10
5.9061155e-10
6.11807624e-10
6.09285645e-10
5.96618113e-10
)
;

boundaryField
{
    closed
    {
        type            calculated;
        value           nonuniform List<scalar> 0();
    }
    open
    {
        type            calculated;
        value           nonuniform List<scalar> 0();
    }
    sides
    {
        type            empty;
    }
    procBoundary1to0
    {
        type            processor;
        value           uniform 5.99330178e-10;
    }
    procBoundary1to2
    {
        type            processor;
        value           uniform 5.90095538e-10;
    }
}


// ************************************************************************* //
