/*--------------------------------*- C++ -*----------------------------------*\
| =========                 |                                                 |
| \\      /  F ield         | OpenFOAM: The Open Source CFD Toolbox           |
|  \\    /   O peration     | Version:  2306                                  |
|   \\  /    A nd           | Website:  www.openfoam.com                      |
|    \\/     M anipulation  |                                                 |
\*---------------------------------------------------------------------------*/
FoamFile
{
    version     2.0;
    format      ascii;
    arch        "LSB;label=32;scalar=64";
    class       volScalarField;
    location    "0.00182";
    object      sourcePV;
}
// * * * * * * * * * * * * * * * * * * * * * * * * * * * * * * * * * * * * * //

dimensions      [1 -3 -1 0 0 0 0];

internalField   nonuniform List<scalar> 
530
(
0.181666951
0.149727562
0.00477211686
0.00620864914
0.00569529052
0.140427779
0.176706325
0.154025976
0.00491750802
0.0060394325
0.155034422
0.158257728
0.00461657073
0.00598235625
0.155431729
0.15369066
0.00499560169
0.00599256762
0.00543472518
0.148356135
0.17036862
0.166335533
0.165671224
0.00509514905
0.00565252557
0.00584333954
0.00578220873
0.142068788
0.177639482
0.151843302
0.00488519785
0.00614756441
0.156506867
0.151336155
0.00499535138
0.00597100931
0.00540960869
0.15050742
0.168784846
0.17278519
0.162529142
0.00487760576
0.00589984414
0.00544317928
0.150637146
0.163870439
0.00492142786
0.00575656155
0.00606803992
0.00587226165
0.121928163
0.153531218
0.145595102
0.148604605
0.00506775117
0.00584940159
0.147358792
0.166559023
0.158134216
0.00527783464
0.0056656048
0.146495647
0.176789578
0.150401024
0.00494749036
0.00611067085
0.00575768874
0.14192402
0.173364275
0.149660409
0.00507658262
0.00608956012
0.152267433
0.151967444
0.00534510313
0.00611952754
0.00589627813
0.0677346683
0.159926988
0.16125395
0.161469093
0.00521523847
0.00553010956
0.157404393
0.183270573
0.165225514
0.00492657038
0.00570129567
0.1668021
0.16917962
0.00489031906
0.00553502721
0.00553171208
0.00555454826
0.15848914
0.169681681
0.173524548
0.160246828
0.00508517399
0.00578596483
0.00553583775
0.159111644
0.161643972
0.00512371394
0.00586423517
0.00580078572
0.150205555
0.147839735
0.00570441022
0.142406999
0.146765153
0.00533278535
0.00607619552
0.00579063788
0.146290119
0.159098436
0.160517169
0.149498523
0.0054310732
0.00610333422
0.00570680821
0.145965575
0.161821498
0.00558695192
0.00558040895
0.136519716
0.176224952
0.138426922
0.00533671049
0.148524359
0.155083455
0.00521699073
0.00597124236
0.00549259634
0.145155468
0.174671907
0.148154757
0.0053326036
0.00618360142
0.162282069
0.142650286
0.00552072043
0.143642594
0.162588527
0.00544450877
0.00573167638
0.157816053
0.163349974
0.00525755865
0.00563483396
0.162849807
0.164809832
0.00510655805
0.00561946838
0.173347073
0.165324301
0.00501554761
0.00567244343
0.00502460087
0.00572745927
0.00502957993
0.157853173
0.186017262
0.148372626
0.169695462
0.135969426
0.00551972965
0.00627772939
0.00603985699
0.148860702
0.140620587
0.00586040306
0.14600112
0.162449136
0.00558350808
0.00569813191
0.165296086
0.169135379
0.00518796735
0.00548930833
0.18319351
0.174523223
0.00538199164
0.00538821532
0.00596687905
0.00544428052
0.102090196
0.175280908
0.159973819
0.176742052
0.165159405
0.00555598037
0.00565904463
0.00579392525
0.00566478265
0.152318694
0.161925173
0.00590613216
0.00561526724
0.149348553
0.172630226
0.150219796
0.00548638602
0.00606349793
0.167128271
0.151783534
0.00566765057
0.15905819
0.157677833
0.00560068428
0.00584437501
0.00545507178
0.158307712
0.182654081
0.154704962
0.00568206127
0.00594090895
0.00594990098
0.00598976509
0.145294589
0.146865792
0.00627555804
0.00598245894
0.137439828
0.152921974
0.133496119
0.153859109
0.104600539
0.00599044471
0.00642613915
0.00610432177
0.153674386
0.137773669
0.00576807537
0.142107858
0.175236831
0.00601616485
0.00532919579
0.158252309
0.187982344
0.162401303
0.00576926132
0.00547510426
0.00626955921
0.00529080418
0.11884445
0.17978801
0.128071565
0.00524913926
0.136961396
0.17101719
0.00653356369
0.00530461061
0.139587353
0.172172162
0.139638128
0.173154214
0.135105008
0.00542883194
0.00672835443
0.0054330647
0.00679228351
0.00544023364
0.12449004
0.169451426
0.144843657
0.00582466731
0.00619249759
0.15558766
0.157405554
0.00621357137
0.0058328438
0.14462208
0.163337116
0.138221639
0.162971751
0.128611614
0.00588342197
0.00656586988
0.00596736912
0.146566291
0.146850227
0.00626714855
0.152200411
0.154883559
0.00601008513
0.00617302165
0.00589843778
0.148118773
0.161651542
0.00629447183
0.00575333036
0.145943974
0.158853884
0.00634434706
0.00559226867
0.142572081
0.166102122
0.145426628
0.170256579
0.151655638
0.00560543916
0.00572362895
0.00559631881
0.00544349567
0.00559472482
0.00523237302
0.166345447
0.187466457
0.167248853
0.00540707332
0.00544726918
0.166581141
0.1772309
0.166337016
0.00559636177
0.00563591268
0.159500577
0.166132363
0.00589765848
0.00578131696
0.152567385
0.153648964
0.157734774
0.140093379
0.00581559248
0.00645891939
0.00576332627
0.00661226751
0.00569715292
0.121861437
0.161615139
0.153966538
0.164882396
0.00597006044
0.005550542
0.170506304
0.171991015
0.00606111498
0.00553050757
0.00621007116
0.00558869576
0.140496085
0.160676702
0.147083422
0.164290394
0.00607994033
0.00546227258
0.155434461
0.180088235
0.15989691
0.00567835501
0.00574896089
0.00591986712
0.159760545
0.141812444
0.00549547753
0.124239669
0.180902824
0.00647789247
0.00505280469
0.149762646
0.196408995
0.162275935
0.00521041117
0.00597274345
0.00536169503
0.00608789594
0.00552833325
0.145272839
0.158973385
0.157535864
0.154625042
0.00582429594
0.00604647782
0.00567281026
0.138343455
0.168759482
0.00642716226
0.00541558711
0.134743374
0.172890245
0.140519395
0.00539782962
0.0064896549
0.0053480576
0.124171895
0.174587117
0.151099661
0.183024262
0.171935846
0.00541164336
0.0055566784
0.00546654665
0.172173428
0.172362039
0.00572810635
0.00560284739
0.00577465461
0.161037329
0.159626775
0.00571496955
0.00602870114
0.00560886799
0.141439883
0.170176566
0.158153976
0.0057670019
0.00570489364
0.154665172
0.170933482
0.166409408
0.00579835467
0.00556985183
0.153441591
0.173799807
0.00606184394
0.00532039859
0.151656673
0.185284669
0.159162264
0.00537512326
0.00599014563
0.00549426038
0.147234154
0.166679685
0.00618296527
0.00572065186
0.149097872
0.156944762
0.00623177523
0.00584195025
0.144240578
0.154586077
0.00634036394
0.00583941529
0.141243906
0.154907893
0.153375078
0.00602742968
0.00586076211
0.144828366
0.163649382
0.157161332
0.0058758543
0.00581772681
0.151453045
0.161628103
0.0060408832
0.00565494373
0.151589006
0.16721277
0.0060003159
0.00533629863
0.156654279
0.187482011
0.170059466
0.00527884651
0.0056077821
0.0053416916
0.00565240396
0.00541680726
0.164483073
0.172744757
0.181466031
0.178117697
0.00543902
0.00555510105
0.00544133337
0.00581751152
0.00551044571
0.14563392
0.166855551
0.161349417
0.166748524
0.00570642989
0.00558055578
0.170315583
0.169703641
0.00568728086
0.00558266026
0.168578117
0.167379268
0.00591763186
0.00568720603
0.00607180456
0.00578767155
0.14040619
0.153830282
0.154739585
0.158890407
0.0058011086
0.00566249394
0.168034567
0.168774538
0.00572259406
0.00548892302
0.00572993744
0.00547042838
0.160664419
0.175557775
0.168025075
0.00569649556
0.00581363721
0.154069832
0.150079554
0.00599437875
0.141658972
0.151559579
0.00616361578
0.149909404
0.153024495
0.00592623287
0.00636239178
0.00579922168
0.118599722
0.163900264
0.156399651
0.166509888
0.00581186207
0.00564924823
0.171267069
0.167767978
0.00571450437
0.00570111855
0.00577221018
0.156055857
0.158179646
0.00564368875
0.00600490567
)
;

boundaryField
{
    closed
    {
        type            calculated;
        value           nonuniform List<scalar> 0();
    }
    open
    {
        type            calculated;
        value           nonuniform List<scalar> 0();
    }
    sides
    {
        type            empty;
    }
    procBoundary2to1
    {
        type            processor;
        value           uniform 0;
    }
    procBoundary2to3
    {
        type            processor;
        value           uniform 0;
    }
}


// ************************************************************************* //
