/*--------------------------------*- C++ -*----------------------------------*\
| =========                 |                                                 |
| \\      /  F ield         | OpenFOAM: The Open Source CFD Toolbox           |
|  \\    /   O peration     | Version:  2306                                  |
|   \\  /    A nd           | Website:  www.openfoam.com                      |
|    \\/     M anipulation  |                                                 |
\*---------------------------------------------------------------------------*/
FoamFile
{
    version     2.0;
    format      ascii;
    arch        "LSB;label=32;scalar=64";
    class       volScalarField;
    location    "0.00022";
    object      prefDZ_H2;
}
// * * * * * * * * * * * * * * * * * * * * * * * * * * * * * * * * * * * * * //

dimensions      [1 -1 -1 0 0 0 0];

internalField   nonuniform List<scalar> 
530
(
0.000188007377
0.000188069816
0.000188123499
0.000188182146
0.000188232017
0.000188284726
0.000188326746
0.00018837351
0.000188411817
0.000188454883
0.000188489843
0.00018852966
0.000188561643
0.000188598636
0.000188628008
0.000188662592
0.000188689712
0.000188719232
0.000188738098
0.000188761609
0.000188778741
0.000188800472
0.000188816069
0.00018883625
0.000188850532
0.000188869373
0.000188882571
0.000188900266
0.000188912626
0.00018892936
0.000188941132
0.000188957097
0.000188964779
0.000188974918
0.000188981379
0.000188991018
0.000188997078
0.000189006187
0.000189011957
0.000189020587
0.000189026164
0.000189034372
0.000189039839
0.000189047688
0.000189053124
0.000189060681
0.000189066157
0.000189073495
0.000189079086
0.000189086279
0.000189090283
0.00018909265
0.000189094493
0.000189096659
0.000189098407
0.000189100345
0.000189102023
0.000189103707
0.000189105333
0.000189106757
0.00018910834
0.000189109546
0.000189111083
0.000189112813
0.000189113916
0.000189115672
0.0001891167
0.000189118159
0.000189118941
0.000189120365
0.000189120709
0.000189122435
0.00018912246
0.000189121916
0.00018911863
0.000189117084
0.000189113388
0.000189111835
0.000189107771
0.000189106168
0.000189101777
0.000189100097
0.000189095417
0.000189093646
0.000189088711
0.000189086847
0.000189081694
0.000189079741
0.000189074408
0.000189072377
0.000189066906
0.000189064812
0.000189059249
0.000189056724
0.000189049367
0.000189045491
0.000189038193
0.000189034334
0.000189027163
0.000189023338
0.000189016357
0.000189011652
0.00018900277
0.000188997253
0.00018898846
0.000188983056
0.000188975161
0.000188970458
0.000188962778
0.000188958164
0.000188950698
0.000188946193
0.000188938974
0.000188934603
0.000188927659
0.000188923448
0.000188916805
0.000188912782
0.000188906463
0.000188902655
0.00018889668
0.000188893113
0.000188887501
0.000188884202
0.000188878966
0.000188875959
0.000188871113
0.000188868419
0.000188863978
0.000188861611
0.000188857594
0.000188855559
0.000188851988
0.000188850282
0.000188847186
0.000188845791
0.000188843204
0.0001888421
0.000188840049
0.000188839261
0.000188839202
0.000188839798
0.000188840595
0.000188841498
0.000188842644
0.000188843976
0.000188845675
0.000188846792
0.000188849117
0.000188850293
0.000188853009
0.000188854379
0.00018885736
0.000188858963
0.000188862134
0.000188863972
0.00018886728
0.000188869341
0.000188872742
0.00018887501
0.000188878471
0.000188880921
0.000188884414
0.000188887021
0.000188890524
0.000188893259
0.000188896754
0.00018889959
0.00018890306
0.000188905969
0.000188909401
0.000188912357
0.000188915738
0.000188918716
0.000188922036
0.000188925015
0.000188928264
0.000188931223
0.000188934392
0.000188937314
0.000188940396
0.000188943266
0.000188946254
0.000188949058
0.000188951946
0.000188954674
0.000188957457
0.000188960099
0.000188962773
0.000188965323
0.000188967885
0.000188970336
0.000188972785
0.000188975133
0.000188977467
0.000188979708
0.000188981927
0.000188984061
0.000188986165
0.00018898819
0.00018899018
0.000188992096
0.000188993974
0.000188995783
0.000188997551
0.000188999254
0.000189000914
0.000189002514
0.00018900407
0.000189005568
0.000189007023
0.000189008424
0.000189009782
0.000189011089
0.000189012353
0.000189013569
0.000189014745
0.000189015874
0.000189016964
0.000189018011
0.000189019021
0.000189019989
0.000189020922
0.000189021816
0.000189022677
0.000189023501
0.000189024293
0.000189025052
0.00018902578
0.000189026477
0.000189027145
0.000189027784
0.000189028396
0.000189028981
0.000189029541
0.000189030075
0.000189030587
0.000189031075
0.000189031541
0.000189031985
0.00018903241
0.000189032814
0.0001890332
0.000189033567
0.000189033917
0.000189034251
0.000189034568
0.00018903487
0.000189035157
0.000189035431
0.00018903569
0.000189035937
0.000189036172
0.000189036394
0.000189036606
0.000189036806
0.000189036997
0.000189037178
0.000189037349
0.000189037511
0.000189037665
0.000189037811
0.000189037949
0.00018903808
0.000189038204
0.000189038321
0.000189038432
0.000189038537
0.000189038637
0.000189038731
0.000189038819
0.000189038903
0.000189038983
0.000189039058
0.000189039129
0.000189039195
0.000189039259
0.000189039318
0.000189039375
0.000189039428
0.000189039478
0.000189039527
0.00018903957
0.000189039597
0.000189039549
0.000189039503
0.000189039463
0.000189039428
0.000189039396
0.000189039368
0.000189039343
0.000189039321
0.000189039302
0.000189039285
0.00018903927
0.000189039256
0.000189039245
0.000189039234
0.000189039225
0.000189039217
0.00018903921
0.000189039204
0.000189039198
0.000189039193
0.000189039189
0.000189039185
0.000189039182
0.000189039179
0.000189039177
0.000189039174
0.000189039172
0.000189039171
0.000189039169
0.000189039168
0.000189039167
0.000189039166
0.000189039165
0.000189039164
0.000189039164
0.000189039163
0.000189039163
0.000189039162
0.000189039162
0.000189039162
0.000189039161
0.000189039161
0.000189039161
0.000189039161
0.000189039161
0.00018903916
0.00018903916
0.00018903916
0.00018903916
0.00018903916
0.00018903916
0.00018903916
0.00018903916
0.00018903916
0.00018903916
0.00018903916
0.00018903916
0.00018903916
0.00018903916
0.00018903916
0.00018903916
0.00018903916
0.00018903916
0.00018903916
0.00018903916
0.00018903916
0.00018903916
0.00018903916
0.00018903916
0.00018903916
0.00018903916
0.00018903916
0.00018903916
0.00018903916
0.00018903916
0.00018903916
0.00018903916
0.00018903916
0.00018903916
0.00018903916
0.00018903916
0.00018903916
0.00018903916
0.00018903916
0.00018903916
0.00018903916
0.00018903916
0.00018903916
0.00018903916
0.00018903916
0.00018903916
0.00018903916
0.00018903916
0.00018903916
0.00018903916
0.00018903916
0.00018903916
0.00018903916
0.00018903916
0.00018903916
0.00018903916
0.00018903916
0.00018903916
0.00018903916
0.00018903916
0.00018903916
0.00018903916
0.00018903916
0.00018903916
0.00018903916
0.00018903916
0.00018903916
0.00018903916
0.00018903916
0.00018903916
0.00018903916
0.00018903916
0.00018903916
0.00018903916
0.00018903916
0.00018903916
0.00018903916
0.00018903916
0.00018903916
0.00018903916
0.00018903916
0.00018903916
0.00018903916
0.00018903916
0.00018903916
0.00018903916
0.00018903916
0.00018903916
0.00018903916
0.00018903916
0.00018903916
0.00018903916
0.00018903916
0.00018903916
0.00018903916
0.00018903916
0.00018903916
0.00018903916
0.00018903916
0.00018903916
0.00018903916
0.00018903916
0.00018903916
0.00018903916
0.00018903916
0.00018903916
0.00018903916
0.00018903916
0.00018903916
0.00018903916
0.00018903916
0.00018903916
0.00018903916
0.00018903916
0.00018903916
0.00018903916
0.00018903916
0.00018903916
0.00018903916
0.00018903916
0.00018903916
0.00018903916
0.00018903916
0.00018903916
0.00018903916
0.00018903916
0.00018903916
0.00018903916
0.00018903916
0.00018903916
0.00018903916
0.00018903916
0.00018903916
0.00018903916
0.00018903916
0.00018903916
0.00018903916
0.00018903916
0.00018903916
0.00018903916
0.00018903916
0.00018903916
0.00018903916
0.00018903916
0.00018903916
0.00018903916
0.00018903916
0.00018903916
0.00018903916
0.00018903916
0.00018903916
0.00018903916
0.00018903916
0.00018903916
0.00018903916
0.00018903916
0.00018903916
0.00018903916
0.00018903916
0.00018903916
0.00018903916
0.00018903916
0.00018903916
0.00018903916
0.00018903916
0.00018903916
0.00018903916
0.00018903916
0.00018903916
0.00018903916
0.00018903916
0.00018903916
0.00018903916
0.00018903916
0.00018903916
0.00018903916
0.00018903916
0.00018903916
0.00018903916
0.00018903916
0.00018903916
0.00018903916
0.00018903916
0.00018903916
0.00018903916
0.00018903916
0.00018903916
0.00018903916
0.00018903916
0.00018903916
0.00018903916
0.00018903916
0.00018903916
0.00018903916
0.00018903916
0.00018903916
0.00018903916
0.00018903916
0.00018903916
0.00018903916
0.00018903916
)
;

boundaryField
{
    closed
    {
        type            calculated;
        value           nonuniform List<scalar> 0();
    }
    open
    {
        type            calculated;
        value           uniform 0.00018903916;
    }
    sides
    {
        type            empty;
    }
    procBoundary5to4
    {
        type            processor;
        value           uniform 0.000187949439;
    }
}


// ************************************************************************* //
