/*--------------------------------*- C++ -*----------------------------------*\
| =========                 |                                                 |
| \\      /  F ield         | OpenFOAM: The Open Source CFD Toolbox           |
|  \\    /   O peration     | Version:  2306                                  |
|   \\  /    A nd           | Website:  www.openfoam.com                      |
|    \\/     M anipulation  |                                                 |
\*---------------------------------------------------------------------------*/
FoamFile
{
    version     2.0;
    format      ascii;
    arch        "LSB;label=32;scalar=64";
    class       volScalarField;
    location    "0.00022";
    object      prefDh_H;
}
// * * * * * * * * * * * * * * * * * * * * * * * * * * * * * * * * * * * * * //

dimensions      [1 1 -3 0 0 0 0];

internalField   nonuniform List<scalar> 
530
(
91176.7807
91206.1778
91231.1671
91258.465
91281.316
91305.3785
91323.9054
91344.6601
91361.1031
91379.7892
91394.3682
91411.2503
91424.1865
91439.5153
91451.0279
91465.0489
91475.3535
91486.5938
91492.3337
91500.2297
91505.0506
91511.9804
91516.0023
91522.104
91525.4588
91530.8576
91533.6855
91538.4976
91540.9449
91545.2818
91547.498
91551.4746
91551.5147
91552.4446
91552.045
91552.8107
91552.2768
91552.8131
91552.211
91552.5483
91551.9359
91552.1081
91551.5361
91551.5807
91551.0946
91551.0521
91550.6952
91550.6076
91550.4245
91550.3352
91549.3875
91546.7038
91544.6453
91541.9122
91539.8881
91537.0878
91535.1131
91532.228
91530.3145
91527.3408
91525.4938
91522.4562
91520.6722
91518.1386
91516.1053
91513.6931
91511.7002
91509.14
91507.0421
91504.5568
91502.2179
91500.0359
91497.5282
91494.2252
91489.893
91486.146
91481.5923
91477.9437
91473.1972
91469.617
91464.704
91461.1719
91456.1163
91452.6204
91447.4448
91443.9803
91438.7074
91435.2738
91429.9274
91426.5283
91421.1343
91417.7759
91412.363
91408.8433
91402.4925
91398.312
91392.0325
91387.9313
91381.7643
91377.7505
91371.7343
91367.2877
91360.2309
91355.3882
91348.4187
91343.7036
91337.3156
91333.0855
91326.8633
91322.743
91316.6863
91312.6864
91306.8145
91302.9481
91297.2781
91293.5596
91288.1066
91284.5512
91279.3286
91275.9514
91270.9708
91267.7868
91263.0583
91260.0817
91255.6141
91252.8577
91248.6592
91246.1337
91242.213
91239.9255
91236.2934
91234.2458
91230.9161
91229.1037
91226.0937
91224.5047
91221.8341
91220.4575
91218.139
91216.9925
91215.6671
91215.2172
91214.3925
91214.1798
91213.59
91213.6964
91213.5017
91213.4562
91213.7326
91213.7125
91214.3052
91214.4051
91215.2266
91215.4785
91216.4765
91216.8867
91218.0235
91218.5883
91219.834
91220.5452
91221.8757
91222.7211
91224.1168
91225.0819
91226.5264
91227.5952
91229.0749
91230.2308
91231.7338
91232.9603
91234.4763
91235.7575
91237.2772
91238.5983
91240.1134
91241.4606
91242.9635
91244.3243
91245.8081
91247.1713
91248.6299
91249.9855
91251.4134
91252.7527
91254.1451
91255.4605
91256.8132
91258.0983
91259.4076
91260.6572
91261.9202
91263.1296
91264.3439
91265.5096
91266.6735
91267.7928
91268.9048
91269.9757
91271.0351
91272.0561
91273.0625
91274.033
91274.9863
91275.9059
91276.8067
91277.6755
91278.5244
91279.3431
91280.1411
91280.9105
91281.6589
91282.3802
91283.0804
91283.7549
91284.4086
91285.0379
91285.6469
91286.2327
91286.7987
91287.3429
91287.868
91288.3724
91288.8586
91289.3252
91289.7744
91290.2053
91290.6195
91291.0166
91291.398
91291.7632
91292.1137
91292.4491
91292.7705
91293.078
91293.3724
91293.6537
91293.9228
91294.1799
91294.4255
91294.66
91294.8839
91295.0974
91295.3011
91295.4953
91295.6804
91295.8567
91296.0247
91296.1845
91296.3367
91296.4814
91296.6191
91296.7499
91296.8743
91296.9925
91297.1047
91297.2113
91297.3125
91297.4085
91297.4996
91297.5859
91297.6678
91297.7454
91297.819
91297.8887
91297.9547
91298.0172
91298.0763
91298.1323
91298.1853
91298.2354
91298.2828
91298.3276
91298.3701
91298.4101
91298.4481
91298.4837
91298.5177
91298.5495
91298.5798
91298.6083
91298.635
91298.6611
91298.6841
91298.6982
91298.6685
91298.6402
91298.6157
91298.5938
91298.5743
91298.5571
91298.5418
91298.5283
91298.5164
91298.5058
91298.4964
91298.4881
91298.4808
91298.4744
91298.4687
91298.4637
91298.4593
91298.4554
91298.4519
91298.4489
91298.4463
91298.444
91298.4419
91298.4401
91298.4386
91298.4372
91298.436
91298.4349
91298.434
91298.4332
91298.4325
91298.4319
91298.4314
91298.4309
91298.4305
91298.4301
91298.4298
91298.4296
91298.4293
91298.4291
91298.4289
91298.4288
91298.4286
91298.4285
91298.4284
91298.4284
91298.4283
91298.4282
91298.4282
91298.4281
91298.4281
91298.428
91298.428
91298.428
91298.4279
91298.4279
91298.4279
91298.4279
91298.4279
91298.4279
91298.4279
91298.4279
91298.4278
91298.4278
91298.4278
91298.4278
91298.4278
91298.4278
91298.4278
91298.4278
91298.4278
91298.4278
91298.4278
91298.4278
91298.4278
91298.4278
91298.4278
91298.4278
91298.4278
91298.4278
91298.4278
91298.4278
91298.4278
91298.4278
91298.4278
91298.4278
91298.4278
91298.4278
91298.4278
91298.4278
91298.4278
91298.4278
91298.4278
91298.4278
91298.4278
91298.4278
91298.4278
91298.4278
91298.4278
91298.4278
91298.4278
91298.4278
91298.4278
91298.4278
91298.4278
91298.4278
91298.4278
91298.4278
91298.4278
91298.4278
91298.4278
91298.4278
91298.4278
91298.4278
91298.4278
91298.4278
91298.4278
91298.4278
91298.4278
91298.4278
91298.4278
91298.4278
91298.4278
91298.4278
91298.4278
91298.4278
91298.4278
91298.4278
91298.4278
91298.4278
91298.4278
91298.4278
91298.4278
91298.4278
91298.4278
91298.4278
91298.4278
91298.4278
91298.4278
91298.4278
91298.4278
91298.4278
91298.4278
91298.4278
91298.4278
91298.4278
91298.4278
91298.4278
91298.4278
91298.4278
91298.4278
91298.4278
91298.4278
91298.4278
91298.4278
91298.4278
91298.4278
91298.4278
91298.4278
91298.4278
91298.4278
91298.4278
91298.4278
91298.4278
91298.4278
91298.4278
91298.4278
91298.4278
91298.4278
91298.4278
91298.4278
91298.4278
91298.4278
91298.4278
91298.4278
91298.4278
91298.4278
91298.4278
91298.4278
91298.4278
91298.4278
91298.4278
91298.4278
91298.4278
91298.4278
91298.4278
91298.4278
91298.4278
91298.4278
91298.4278
91298.4278
91298.4278
91298.4278
91298.4278
91298.4278
91298.4278
91298.4278
91298.4278
91298.4278
91298.4278
91298.4278
91298.4278
91298.4278
91298.4278
91298.4278
91298.4278
91298.4278
91298.4278
91298.4278
91298.4278
91298.4278
91298.4278
91298.4278
91298.4278
91298.4278
91298.4278
91298.4278
91298.4278
91298.4278
91298.4278
91298.4278
91298.4278
91298.4278
91298.4278
91298.4278
91298.4278
91298.4278
91298.4278
91298.4278
91298.4278
91298.4278
91298.4278
91298.4278
91298.4278
91298.4278
91298.4278
91298.4278
91298.4278
91298.4278
91298.4278
91298.4278
91298.4278
91298.4278
91298.4278
91298.4278
91298.4278
)
;

boundaryField
{
    closed
    {
        type            calculated;
        value           nonuniform List<scalar> 0();
    }
    open
    {
        type            calculated;
        value           uniform 91298.4278;
    }
    sides
    {
        type            empty;
    }
    procBoundary5to4
    {
        type            processor;
        value           uniform 91149.3869;
    }
}


// ************************************************************************* //
