/*--------------------------------*- C++ -*----------------------------------*\
| =========                 |                                                 |
| \\      /  F ield         | OpenFOAM: The Open Source CFD Toolbox           |
|  \\    /   O peration     | Version:  2306                                  |
|   \\  /    A nd           | Website:  www.openfoam.com                      |
|    \\/     M anipulation  |                                                 |
\*---------------------------------------------------------------------------*/
FoamFile
{
    version     2.0;
    format      ascii;
    arch        "LSB;label=32;scalar=64";
    class       volScalarField;
    location    "0.00022";
    object      prefDZ_H2O;
}
// * * * * * * * * * * * * * * * * * * * * * * * * * * * * * * * * * * * * * //

dimensions      [1 -1 -1 0 0 0 0];

internalField   nonuniform List<scalar> 
530
(
2.14252616e-06
2.14526805e-06
2.14769458e-06
2.15031155e-06
2.15262652e-06
2.15509232e-06
2.15723996e-06
2.1595561e-06
2.16159501e-06
2.16379644e-06
2.16573371e-06
2.16783021e-06
2.16967281e-06
2.17167348e-06
2.17342823e-06
2.17534174e-06
2.17701536e-06
2.17879457e-06
2.18028062e-06
2.18191816e-06
2.18333782e-06
2.18491087e-06
2.18626816e-06
2.18778158e-06
2.18908074e-06
2.19053907e-06
2.19178457e-06
2.19319206e-06
2.19438853e-06
2.19574922e-06
2.19690145e-06
2.19821932e-06
2.19926763e-06
2.20045488e-06
2.20144989e-06
2.20260324e-06
2.20356334e-06
2.20468411e-06
2.20561184e-06
2.20670165e-06
2.20759924e-06
2.2086599e-06
2.20952935e-06
2.21056274e-06
2.21140588e-06
2.21241402e-06
2.21323259e-06
2.21421754e-06
2.21501324e-06
2.21597712e-06
2.21672051e-06
2.21758324e-06
2.21826872e-06
2.21911349e-06
2.21977753e-06
2.22060479e-06
2.22124811e-06
2.22205818e-06
2.22268149e-06
2.22347482e-06
2.22407882e-06
2.22485668e-06
2.22544181e-06
2.22619693e-06
2.2267712e-06
2.22750779e-06
2.22806615e-06
2.22879048e-06
2.2293386e-06
2.23004365e-06
2.23058167e-06
2.23126956e-06
2.23179975e-06
2.23242898e-06
2.23290369e-06
2.23349752e-06
2.23396369e-06
2.23453907e-06
2.23499695e-06
2.23555399e-06
2.23600381e-06
2.2365428e-06
2.23698481e-06
2.23750617e-06
2.23794062e-06
2.23844487e-06
2.23887202e-06
2.23935977e-06
2.23977993e-06
2.24025184e-06
2.24066534e-06
2.24112214e-06
2.24152939e-06
2.24196343e-06
2.24232691e-06
2.24271776e-06
2.24307721e-06
2.24345493e-06
2.24381105e-06
2.24417633e-06
2.24452983e-06
2.24486908e-06
2.24518868e-06
2.24550326e-06
2.24581942e-06
2.24612376e-06
2.24645277e-06
2.24675959e-06
2.24708622e-06
2.24738261e-06
2.24770613e-06
2.24799254e-06
2.24831315e-06
2.24859e-06
2.24890793e-06
2.24917567e-06
2.24949114e-06
2.24975023e-06
2.25006344e-06
2.25031438e-06
2.25062546e-06
2.25086876e-06
2.25117783e-06
2.25141403e-06
2.25172114e-06
2.2519508e-06
2.252256e-06
2.25247966e-06
2.25278297e-06
2.25300116e-06
2.25330264e-06
2.25351581e-06
2.25381559e-06
2.25402401e-06
2.25432239e-06
2.25452596e-06
2.2548236e-06
2.25502175e-06
2.25531975e-06
2.25551176e-06
2.2558495e-06
2.25606437e-06
2.25640937e-06
2.25661604e-06
2.25696016e-06
2.25715799e-06
2.25749465e-06
2.25769556e-06
2.25801765e-06
2.25822203e-06
2.25852955e-06
2.25873619e-06
2.25903002e-06
2.25923727e-06
2.25951824e-06
2.25972471e-06
2.25999339e-06
2.26019803e-06
2.26045486e-06
2.26065679e-06
2.26090213e-06
2.2611006e-06
2.26133482e-06
2.26152915e-06
2.2617526e-06
2.26194218e-06
2.26215521e-06
2.26233951e-06
2.26254245e-06
2.26272104e-06
2.26291421e-06
2.2630867e-06
2.26327041e-06
2.26343653e-06
2.26361107e-06
2.26377059e-06
2.26393625e-06
2.26408903e-06
2.26424608e-06
2.26439202e-06
2.26454073e-06
2.26467981e-06
2.26482044e-06
2.26495267e-06
2.26508548e-06
2.26521091e-06
2.26533618e-06
2.26545491e-06
2.26557288e-06
2.26568503e-06
2.26579598e-06
2.2659017e-06
2.26600589e-06
2.26610536e-06
2.26620306e-06
2.26629646e-06
2.26638793e-06
2.26647548e-06
2.266561e-06
2.26664291e-06
2.26672273e-06
2.26679924e-06
2.26687363e-06
2.26694496e-06
2.2670142e-06
2.26708059e-06
2.26714492e-06
2.26720662e-06
2.2672663e-06
2.26732354e-06
2.26737883e-06
2.26743185e-06
2.267483e-06
2.26753202e-06
2.26757927e-06
2.26762454e-06
2.26766811e-06
2.26770985e-06
2.26774998e-06
2.2677884e-06
2.2678253e-06
2.26786062e-06
2.26789451e-06
2.26792693e-06
2.26795801e-06
2.26798772e-06
2.26801618e-06
2.26804337e-06
2.2680694e-06
2.26809426e-06
2.26811803e-06
2.26814071e-06
2.26816239e-06
2.26818306e-06
2.26820281e-06
2.26822163e-06
2.26823959e-06
2.26825669e-06
2.26827301e-06
2.26828854e-06
2.26830334e-06
2.26831742e-06
2.26833083e-06
2.26834358e-06
2.26835571e-06
2.26836725e-06
2.26837821e-06
2.26838863e-06
2.26839853e-06
2.26840793e-06
2.26841685e-06
2.26842532e-06
2.26843335e-06
2.26844098e-06
2.2684482e-06
2.26845505e-06
2.26846155e-06
2.2684677e-06
2.26847353e-06
2.26847905e-06
2.26848427e-06
2.26848922e-06
2.26849389e-06
2.26849832e-06
2.26850251e-06
2.26850646e-06
2.2685102e-06
2.26851374e-06
2.26851708e-06
2.26852023e-06
2.26852321e-06
2.26852602e-06
2.26852868e-06
2.26853119e-06
2.26853356e-06
2.26853578e-06
2.2685379e-06
2.26853987e-06
2.26854175e-06
2.26854352e-06
2.26854516e-06
2.26854677e-06
2.26854819e-06
2.26854931e-06
2.2685487e-06
2.26854812e-06
2.26854762e-06
2.26854717e-06
2.26854678e-06
2.26854642e-06
2.26854611e-06
2.26854583e-06
2.26854559e-06
2.26854537e-06
2.26854518e-06
2.26854501e-06
2.26854486e-06
2.26854473e-06
2.26854461e-06
2.26854451e-06
2.26854442e-06
2.26854434e-06
2.26854427e-06
2.26854421e-06
2.26854415e-06
2.26854411e-06
2.26854407e-06
2.26854403e-06
2.268544e-06
2.26854397e-06
2.26854394e-06
2.26854392e-06
2.2685439e-06
2.26854389e-06
2.26854387e-06
2.26854386e-06
2.26854385e-06
2.26854384e-06
2.26854383e-06
2.26854382e-06
2.26854382e-06
2.26854381e-06
2.26854381e-06
2.2685438e-06
2.2685438e-06
2.2685438e-06
2.26854379e-06
2.26854379e-06
2.26854379e-06
2.26854379e-06
2.26854379e-06
2.26854378e-06
2.26854378e-06
2.26854378e-06
2.26854378e-06
2.26854378e-06
2.26854378e-06
2.26854378e-06
2.26854378e-06
2.26854378e-06
2.26854378e-06
2.26854378e-06
2.26854378e-06
2.26854378e-06
2.26854378e-06
2.26854378e-06
2.26854378e-06
2.26854378e-06
2.26854378e-06
2.26854378e-06
2.26854378e-06
2.26854378e-06
2.26854378e-06
2.26854378e-06
2.26854378e-06
2.26854378e-06
2.26854378e-06
2.26854378e-06
2.26854378e-06
2.26854378e-06
2.26854378e-06
2.26854378e-06
2.26854378e-06
2.26854378e-06
2.26854378e-06
2.26854378e-06
2.26854378e-06
2.26854378e-06
2.26854378e-06
2.26854378e-06
2.26854378e-06
2.26854378e-06
2.26854378e-06
2.26854378e-06
2.26854378e-06
2.26854378e-06
2.26854378e-06
2.26854378e-06
2.26854378e-06
2.26854378e-06
2.26854378e-06
2.26854378e-06
2.26854378e-06
2.26854378e-06
2.26854378e-06
2.26854378e-06
2.26854378e-06
2.26854378e-06
2.26854378e-06
2.26854378e-06
2.26854378e-06
2.26854378e-06
2.26854378e-06
2.26854378e-06
2.26854378e-06
2.26854378e-06
2.26854378e-06
2.26854378e-06
2.26854378e-06
2.26854378e-06
2.26854378e-06
2.26854378e-06
2.26854378e-06
2.26854378e-06
2.26854378e-06
2.26854378e-06
2.26854378e-06
2.26854378e-06
2.26854378e-06
2.26854378e-06
2.26854378e-06
2.26854378e-06
2.26854378e-06
2.26854378e-06
2.26854378e-06
2.26854378e-06
2.26854378e-06
2.26854378e-06
2.26854378e-06
2.26854378e-06
2.26854378e-06
2.26854378e-06
2.26854378e-06
2.26854378e-06
2.26854378e-06
2.26854378e-06
2.26854378e-06
2.26854378e-06
2.26854378e-06
2.26854378e-06
2.26854378e-06
2.26854378e-06
2.26854378e-06
2.26854378e-06
2.26854378e-06
2.26854378e-06
2.26854378e-06
2.26854378e-06
2.26854378e-06
2.26854378e-06
2.26854378e-06
2.26854378e-06
2.26854378e-06
2.26854378e-06
2.26854378e-06
2.26854378e-06
2.26854378e-06
2.26854378e-06
2.26854378e-06
2.26854378e-06
2.26854378e-06
2.26854378e-06
2.26854378e-06
2.26854378e-06
2.26854378e-06
2.26854378e-06
2.26854378e-06
2.26854378e-06
2.26854378e-06
2.26854378e-06
2.26854378e-06
2.26854378e-06
2.26854378e-06
2.26854378e-06
2.26854378e-06
2.26854378e-06
2.26854378e-06
2.26854378e-06
2.26854378e-06
2.26854378e-06
2.26854378e-06
2.26854378e-06
2.26854378e-06
2.26854378e-06
2.26854378e-06
2.26854378e-06
2.26854378e-06
2.26854378e-06
2.26854378e-06
2.26854378e-06
2.26854378e-06
2.26854378e-06
2.26854378e-06
2.26854378e-06
2.26854378e-06
2.26854378e-06
2.26854378e-06
2.26854378e-06
2.26854378e-06
2.26854378e-06
2.26854378e-06
2.26854378e-06
2.26854378e-06
2.26854378e-06
2.26854378e-06
2.26854378e-06
2.26854378e-06
2.26854378e-06
2.26854378e-06
2.26854378e-06
2.26854378e-06
2.26854378e-06
2.26854378e-06
2.26854378e-06
2.26854378e-06
2.26854378e-06
2.26854378e-06
2.26854378e-06
2.26854378e-06
2.26854378e-06
2.26854378e-06
2.26854378e-06
2.26854378e-06
2.26854378e-06
2.26854378e-06
2.26854378e-06
2.26854378e-06
2.26854378e-06
2.26854378e-06
2.26854378e-06
2.26854378e-06
2.26854378e-06
2.26854378e-06
2.26854378e-06
2.26854378e-06
2.26854378e-06
2.26854378e-06
2.26854378e-06
2.26854378e-06
2.26854378e-06
)
;

boundaryField
{
    closed
    {
        type            calculated;
        value           nonuniform List<scalar> 0();
    }
    open
    {
        type            calculated;
        value           uniform 2.26854378e-06;
    }
    sides
    {
        type            empty;
    }
    procBoundary5to4
    {
        type            processor;
        value           uniform 2.13998014e-06;
    }
}


// ************************************************************************* //
