/*--------------------------------*- C++ -*----------------------------------*\
| =========                 |                                                 |
| \\      /  F ield         | OpenFOAM: The Open Source CFD Toolbox           |
|  \\    /   O peration     | Version:  2306                                  |
|   \\  /    A nd           | Website:  www.openfoam.com                      |
|    \\/     M anipulation  |                                                 |
\*---------------------------------------------------------------------------*/
FoamFile
{
    version     2.0;
    format      ascii;
    arch        "LSB;label=32;scalar=64";
    class       volScalarField;
    location    "0.00022";
    object      PV;
}
// * * * * * * * * * * * * * * * * * * * * * * * * * * * * * * * * * * * * * //

dimensions      [0 0 0 0 0 0 0];

internalField   nonuniform List<scalar> 
530
(
0.00744885692
0.0074455682
0.00744268962
0.00743924624
0.00743626491
0.00743262688
0.00742946945
0.00742567762
0.0074224554
0.00741856773
0.00741529412
0.00741132679
0.00740801518
0.00740398396
0.00740064759
0.00739656788
0.00739321974
0.00738909633
0.0073857262
0.00738156218
0.00737819785
0.00737401769
0.00737066824
0.00736648325
0.00736315738
0.00735897845
0.00735568449
0.00735152202
0.00734826799
0.00734413188
0.00734092556
0.00733682522
0.00733365426
0.00732954308
0.00732639147
0.00732231712
0.00731922055
0.00731519898
0.00731216355
0.00730820176
0.00730523293
0.00730133771
0.00729844044
0.00729461832
0.0072917971
0.00728805432
0.00728531329
0.00728165564
0.00727899876
0.00727543139
0.00727285123
0.00726934694
0.00726684046
0.00726342817
0.00726101146
0.0072576902
0.00725536687
0.00725213539
0.00724990875
0.00724676838
0.00724464026
0.00724159512
0.00723956639
0.0072367837
0.00723475758
0.0072321108
0.00723019366
0.00722757825
0.00722572805
0.00722321784
0.0072214036
0.00721904688
0.00721727489
0.00721504663
0.00721329871
0.00721119913
0.00720950343
0.00720753252
0.00720589234
0.00720404275
0.00720246034
0.00720072576
0.00719920269
0.00719757755
0.00719611498
0.00719459417
0.00719319292
0.0071917717
0.00719043233
0.00718910624
0.00718782905
0.00718659394
0.00718537909
0.00718423737
0.00718311397
0.00718207329
0.00718101213
0.00718004649
0.00717904715
0.0071781531
0.00717721507
0.00717637906
0.00717547787
0.00717469695
0.00717385207
0.00717313264
0.00717232155
0.00717164297
0.00717088475
0.00717026104
0.00716955501
0.00716898318
0.00716832775
0.007167805
0.00716719852
0.00716672228
0.00716616304
0.00716573095
0.00716521721
0.00716482708
0.00716435706
0.00716400687
0.00716357879
0.00716326666
0.0071628788
0.00716260293
0.00716225363
0.00716201227
0.00716170005
0.00716149143
0.00716121497
0.00716103725
0.0071607955
0.00716064664
0.00716043884
0.00716031656
0.00716014226
0.00716004433
0.0071599031
0.00715982848
0.00715974509
0.00715971203
0.00715966354
0.00715965276
0.00715962605
0.00715964013
0.00715964272
0.00715965561
0.00715969071
0.00715971012
0.00715976844
0.00715979858
0.00715987429
0.00715991622
0.00716000558
0.00716005897
0.00716015911
0.00716022322
0.00716033176
0.00716040567
0.00716052062
0.00716060327
0.00716072297
0.00716081322
0.00716093627
0.00716103296
0.00716115818
0.00716126012
0.00716138652
0.00716149256
0.00716161927
0.00716172832
0.00716185461
0.00716196566
0.00716209088
0.00716220298
0.00716232658
0.00716243889
0.00716256038
0.00716267213
0.00716279108
0.00716290162
0.00716301767
0.00716312641
0.00716323923
0.00716334568
0.00716345501
0.00716355873
0.00716366436
0.00716376501
0.00716386675
0.00716396403
0.00716406175
0.00716415544
0.00716424904
0.00716433897
0.00716442838
0.00716451442
0.00716459961
0.00716468168
0.00716476265
0.00716484071
0.00716491747
0.00716499151
0.00716506412
0.00716513417
0.00716520269
0.00716526879
0.0071653333
0.00716539552
0.00716545613
0.00716551458
0.0071655714
0.00716562616
0.00716567932
0.00716573053
0.00716578015
0.00716582794
0.00716587417
0.00716591867
0.00716596167
0.00716600302
0.00716604292
0.00716608128
0.00716611825
0.00716615375
0.00716618794
0.00716622075
0.00716625231
0.00716628257
0.00716631165
0.00716633951
0.00716636626
0.00716639187
0.00716641643
0.00716643993
0.00716646245
0.00716648398
0.00716650459
0.00716652428
0.00716654311
0.00716656109
0.00716657827
0.00716659467
0.00716661032
0.00716662524
0.00716663948
0.00716665305
0.00716666598
0.00716667829
0.00716669002
0.00716670119
0.00716671181
0.00716672191
0.00716673152
0.00716674065
0.00716674933
0.00716675758
0.00716676541
0.00716677284
0.00716677989
0.00716678659
0.00716679294
0.00716679896
0.00716680467
0.00716681008
0.0071668152
0.00716682006
0.00716682466
0.00716682901
0.00716683313
0.00716683703
0.00716684073
0.00716684421
0.00716684753
0.00716685063
0.00716685361
0.00716685638
0.00716685903
0.00716686152
0.00716686385
0.00716686615
0.00716686813
0.00716687082
0.00716687464
0.00716687829
0.00716688139
0.00716688414
0.00716688656
0.00716688866
0.0071668905
0.00716689211
0.00716689351
0.00716689474
0.0071668958
0.00716689672
0.00716689752
0.00716689822
0.00716689882
0.00716689934
0.00716689978
0.00716690017
0.0071669005
0.00716690078
0.00716690102
0.00716690123
0.0071669014
0.00716690155
0.00716690168
0.00716690179
0.00716690188
0.00716690195
0.00716690202
0.00716690207
0.00716690211
0.00716690215
0.00716690218
0.0071669022
0.00716690222
0.00716690224
0.00716690225
0.00716690226
0.00716690226
0.00716690227
0.00716690227
0.00716690228
0.00716690228
0.00716690228
0.00716690228
0.00716690228
0.00716690228
0.00716690228
0.00716690228
0.00716690228
0.00716690227
0.00716690227
0.00716690227
0.00716690227
0.00716690227
0.00716690227
0.00716690227
0.00716690226
0.00716690226
0.00716690226
0.00716690226
0.00716690226
0.00716690226
0.00716690226
0.00716690226
0.00716690226
0.00716690226
0.00716690226
0.00716690226
0.00716690226
0.00716690225
0.00716690225
0.00716690225
0.00716690225
0.00716690225
0.00716690225
0.00716690225
0.00716690225
0.00716690225
0.00716690225
0.00716690225
0.00716690225
0.00716690225
0.00716690225
0.00716690225
0.00716690225
0.00716690225
0.00716690225
0.00716690225
0.00716690225
0.00716690225
0.00716690225
0.00716690225
0.00716690225
0.00716690225
0.00716690225
0.00716690225
0.00716690225
0.00716690225
0.00716690225
0.00716690225
0.00716690225
0.00716690225
0.00716690225
0.00716690225
0.00716690225
0.00716690225
0.00716690225
0.00716690225
0.00716690225
0.00716690225
0.00716690225
0.00716690225
0.00716690225
0.00716690225
0.00716690225
0.00716690225
0.00716690225
0.00716690225
0.00716690225
0.00716690225
0.00716690225
0.00716690225
0.00716690225
0.00716690225
0.00716690225
0.00716690225
0.00716690225
0.00716690225
0.00716690225
0.00716690225
0.00716690225
0.00716690225
0.00716690225
0.00716690225
0.00716690225
0.00716690225
0.00716690225
0.00716690225
0.00716690225
0.00716690225
0.00716690225
0.00716690225
0.00716690225
0.00716690225
0.00716690225
0.00716690225
0.00716690225
0.00716690225
0.00716690225
0.00716690225
0.00716690225
0.00716690225
0.00716690225
0.00716690225
0.00716690225
0.00716690225
0.00716690225
0.00716690225
0.00716690225
0.00716690225
0.00716690225
0.00716690225
0.00716690225
0.00716690225
0.00716690225
0.00716690225
0.00716690225
0.00716690225
0.00716690225
0.00716690225
0.00716690225
0.00716690225
0.00716690225
0.00716690225
0.00716690225
0.00716690225
0.00716690225
0.00716690225
0.00716690225
0.00716690225
0.00716690225
0.00716690225
0.00716690225
0.00716690225
0.00716690225
0.00716690225
0.00716690225
0.00716690225
0.00716690225
0.00716690225
0.00716690225
0.00716690225
0.00716690225
0.00716690225
0.00716690225
0.00716690225
0.00716690225
0.00716690225
0.00716690225
0.00716690225
0.00716690225
0.00716690225
0.00716690225
0.00716690225
0.00716690225
0.00716690225
0.00716690225
0.00716690225
0.00716690225
0.00716690225
0.00716690225
0.00716690225
0.00716690225
0.00716690225
0.00716690225
0.00716690225
0.00716690225
0.00716690225
0.00716690225
0.00716690225
0.00716690225
0.00716690225
0.00716690225
0.00716690225
0.00716690225
0.00716690225
0.00716690225
0.00716690225
0.00716690225
0.00716690225
0.00716690225
0.00716690225
0.00716690225
0.00716690225
0.00716690225
0.00716690225
0.00716690225
0.00716690225
0.00716690225
0.00716690225
0.00716690225
0.00716690225
0.00716690225
0.00716690225
0.00716690225
)
;

boundaryField
{
    closed
    {
        type            zeroGradient;
    }
    open
    {
        type            zeroGradient;
    }
    sides
    {
        type            empty;
    }
    procBoundary5to4
    {
        type            processor;
        value           uniform 0.00745161435;
    }
}


// ************************************************************************* //
