/*--------------------------------*- C++ -*----------------------------------*\
| =========                 |                                                 |
| \\      /  F ield         | OpenFOAM: The Open Source CFD Toolbox           |
|  \\    /   O peration     | Version:  2306                                  |
|   \\  /    A nd           | Website:  www.openfoam.com                      |
|    \\/     M anipulation  |                                                 |
\*---------------------------------------------------------------------------*/
FoamFile
{
    version     2.0;
    format      ascii;
    arch        "LSB;label=32;scalar=64";
    class       volScalarField;
    location    "0.00022";
    object      T;
}
// * * * * * * * * * * * * * * * * * * * * * * * * * * * * * * * * * * * * * //

dimensions      [0 0 0 1 0 0 0];

internalField   nonuniform List<scalar> 
530
(
1661.20514
1661.61766
1661.95713
1662.32698
1662.62222
1662.92025
1663.11685
1663.34253
1663.49655
1663.68011
1663.79658
1663.94395
1664.02796
1664.14476
1664.20132
1664.29309
1664.32713
1664.35894
1664.29113
1664.24911
1664.16505
1664.10505
1664.00747
1663.93262
1663.82454
1663.73768
1663.62227
1663.52605
1663.40666
1663.30361
1663.18363
1663.07639
1662.91009
1662.73887
1662.57054
1662.40064
1662.23365
1662.06233
1661.89815
1661.72608
1661.56601
1661.39396
1661.2391
1661.0679
1660.91926
1660.7498
1660.60835
1660.44154
1660.30826
1660.14504
1659.99999
1659.78491
1659.61989
1659.4067
1659.2461
1659.0343
1658.87849
1658.66757
1658.51681
1658.30667
1658.16104
1657.95221
1657.8116
1657.62171
1657.47591
1657.29298
1657.15145
1656.96641
1656.82423
1656.64459
1656.49785
1656.32986
1656.18022
1655.99475
1655.80841
1655.61846
1655.42819
1655.24453
1655.05106
1654.87282
1654.67682
1654.50335
1654.3054
1654.13628
1653.93693
1653.7719
1653.5717
1653.41061
1653.21013
1653.05294
1652.85279
1652.6995
1652.50035
1652.34695
1652.13114
1651.968
1651.75535
1651.59676
1651.38823
1651.23425
1651.03071
1650.86927
1650.64325
1650.47523
1650.2528
1650.09019
1649.88178
1649.73193
1649.52886
1649.38383
1649.18615
1649.0461
1648.85424
1648.7194
1648.53374
1648.40439
1648.22526
1648.10168
1647.92935
1647.81183
1647.64655
1647.53537
1647.37735
1647.27278
1647.1222
1647.02445
1646.88149
1646.79075
1646.65559
1646.57195
1646.44482
1646.36824
1646.24946
1646.17975
1646.0697
1646.00654
1645.90564
1645.84878
1645.7572
1645.70713
1645.62505
1645.5817
1645.50956
1645.47386
1645.40824
1645.38244
1645.32853
1645.29837
1645.25922
1645.22931
1645.20077
1645.1738
1645.15342
1645.13046
1645.11671
1645.09811
1645.08989
1645.07571
1645.07214
1645.06227
1645.06266
1645.05688
1645.06064
1645.05866
1645.06529
1645.06677
1645.07586
1645.08043
1645.0916
1645.09888
1645.1118
1645.12142
1645.13581
1645.14741
1645.163
1645.17625
1645.19278
1645.20736
1645.22462
1645.24025
1645.25803
1645.27444
1645.29256
1645.30951
1645.32781
1645.34509
1645.36341
1645.38085
1645.39905
1645.41647
1645.43444
1645.45172
1645.46935
1645.48636
1645.50357
1645.5202
1645.53692
1645.5531
1645.56926
1645.58491
1645.60047
1645.61554
1645.63046
1645.64491
1645.65916
1645.67296
1645.68653
1645.69966
1645.71252
1645.72497
1645.73714
1645.7489
1645.76037
1645.77146
1645.78224
1645.79265
1645.80276
1645.81252
1645.82197
1645.83108
1645.8399
1645.84839
1645.8566
1645.86449
1645.87211
1645.87943
1645.88648
1645.89326
1645.89978
1645.90604
1645.91205
1645.91782
1645.92336
1645.92866
1645.93375
1645.93862
1645.94329
1645.94775
1645.95202
1645.9561
1645.96
1645.96373
1645.96729
1645.97069
1645.97393
1645.97703
1645.97998
1645.98278
1645.98546
1645.98801
1645.99044
1645.99275
1645.99495
1645.99704
1645.99903
1646.00091
1646.00271
1646.00441
1646.00603
1646.00757
1646.00903
1646.01041
1646.01172
1646.01296
1646.01414
1646.01526
1646.01632
1646.01732
1646.01827
1646.01917
1646.02002
1646.02082
1646.02159
1646.02231
1646.02299
1646.02363
1646.02425
1646.02482
1646.02537
1646.02588
1646.02637
1646.02684
1646.02726
1646.02748
1646.02677
1646.0261
1646.02552
1646.025
1646.02453
1646.02412
1646.02376
1646.02344
1646.02315
1646.0229
1646.02267
1646.02247
1646.0223
1646.02214
1646.022
1646.02188
1646.02178
1646.02168
1646.0216
1646.02153
1646.02146
1646.02141
1646.02136
1646.02131
1646.02127
1646.02124
1646.02121
1646.02118
1646.02116
1646.02114
1646.02112
1646.02111
1646.02109
1646.02108
1646.02107
1646.02106
1646.02106
1646.02105
1646.02104
1646.02104
1646.02103
1646.02103
1646.02103
1646.02102
1646.02102
1646.02102
1646.02102
1646.02102
1646.02101
1646.02101
1646.02101
1646.02101
1646.02101
1646.02101
1646.02101
1646.02101
1646.02101
1646.02101
1646.02101
1646.02101
1646.02101
1646.02101
1646.02101
1646.02101
1646.02101
1646.02101
1646.02101
1646.02101
1646.02101
1646.02101
1646.021
1646.021
1646.021
1646.021
1646.021
1646.021
1646.021
1646.021
1646.021
1646.021
1646.021
1646.021
1646.021
1646.021
1646.021
1646.021
1646.021
1646.021
1646.021
1646.021
1646.021
1646.021
1646.021
1646.021
1646.021
1646.021
1646.021
1646.021
1646.021
1646.021
1646.021
1646.021
1646.021
1646.021
1646.021
1646.021
1646.021
1646.021
1646.021
1646.021
1646.021
1646.021
1646.021
1646.021
1646.021
1646.021
1646.021
1646.021
1646.021
1646.021
1646.021
1646.021
1646.021
1646.021
1646.021
1646.021
1646.021
1646.021
1646.021
1646.021
1646.021
1646.021
1646.021
1646.021
1646.021
1646.021
1646.021
1646.021
1646.021
1646.021
1646.021
1646.021
1646.021
1646.021
1646.021
1646.021
1646.021
1646.021
1646.021
1646.021
1646.021
1646.021
1646.021
1646.021
1646.021
1646.021
1646.021
1646.021
1646.021
1646.021
1646.021
1646.021
1646.021
1646.021
1646.021
1646.021
1646.021
1646.021
1646.021
1646.021
1646.021
1646.021
1646.021
1646.021
1646.021
1646.021
1646.021
1646.021
1646.021
1646.021
1646.021
1646.021
1646.021
1646.021
1646.021
1646.021
1646.021
1646.021
1646.021
1646.021
1646.021
1646.021
1646.021
1646.021
1646.021
1646.021
1646.021
1646.021
1646.021
1646.021
1646.021
1646.021
1646.021
1646.021
1646.021
1646.021
1646.021
1646.021
1646.021
1646.021
1646.021
1646.021
1646.021
1646.021
1646.021
1646.021
1646.021
1646.021
1646.021
1646.021
1646.021
1646.021
1646.021
1646.021
1646.021
1646.021
1646.021
1646.021
1646.021
1646.021
1646.021
1646.021
1646.021
1646.021
1646.021
1646.021
1646.021
1646.021
1646.021
1646.021
1646.021
1646.021
1646.021
1646.021
1646.021
1646.021
)
;

boundaryField
{
    closed
    {
        type            fixedValue;
        value           nonuniform List<scalar> 0();
    }
    open
    {
        type            zeroGradient;
    }
    sides
    {
        type            empty;
    }
    procBoundary5to4
    {
        type            processor;
        value           uniform 1660.81526;
    }
}


// ************************************************************************* //
