/*--------------------------------*- C++ -*----------------------------------*\
| =========                 |                                                 |
| \\      /  F ield         | OpenFOAM: The Open Source CFD Toolbox           |
|  \\    /   O peration     | Version:  2306                                  |
|   \\  /    A nd           | Website:  www.openfoam.com                      |
|    \\/     M anipulation  |                                                 |
\*---------------------------------------------------------------------------*/
FoamFile
{
    version     2.0;
    format      ascii;
    arch        "LSB;label=32;scalar=64";
    class       volScalarField;
    location    "0.00096";
    object      PV;
}
// * * * * * * * * * * * * * * * * * * * * * * * * * * * * * * * * * * * * * //

dimensions      [0 0 0 0 0 0 0];

internalField   nonuniform List<scalar> 
530
(
-0.00715354494
-0.00710581424
-0.00709048723
-0.00709011702
-0.00709007934
-0.00709007837
-0.00709007826
-0.00709007796
-0.00709007766
-0.00709007736
-0.00709007692
-0.00709007642
-0.00709007588
-0.0070900753
-0.00709007489
-0.00709007429
-0.00709007379
-0.00709007356
-0.00709007305
-0.00709007288
-0.00709007242
-0.00709007223
-0.00709007203
-0.00709007189
-0.00709007185
-0.00709007197
-0.00709007222
-0.00709007261
-0.00709007294
-0.00709007336
-0.0070900735
-0.00709007373
-0.00709007389
-0.00709007398
-0.00709007409
-0.00709007409
-0.00709007417
-0.00709007417
-0.00709007422
-0.00709007421
-0.00709007431
-0.00709007423
-0.00709007437
-0.00709007429
-0.00709007439
-0.00709007438
-0.00709007444
-0.00709007452
-0.00709007451
-0.00709007457
-0.00709007461
-0.00709007465
-0.0070900747
-0.00709007473
-0.00709007476
-0.00709007481
-0.00709007485
-0.00709007491
-0.00709007494
-0.00709007499
-0.00709007503
-0.00709007504
-0.00709007508
-0.00709007512
-0.00709007514
-0.00709007517
-0.00709007521
-0.00709007525
-0.00709007532
-0.00709007547
-0.00709007575
-0.00709007656
-0.00709007787
-0.00709008179
-0.00709008773
-0.00709010153
-0.00709012799
-0.00709017337
-0.00709017048
-0.00709023798
-0.00709093903
-0.00709184888
-0.00708827441
-0.00708533746
-0.00710033673
-0.0071238424
-0.00708117143
-0.00704192291
-0.0071105687
-0.00718288406
-0.00711518661
-0.00696292709
-0.00697564214
-0.00720642513
-0.00721088363
-0.00712165725
-0.00696873937
-0.00696487217
-0.00697830102
-0.00720849571
-0.00721295075
-0.00718796389
-0.00710380799
-0.00696525133
-0.00697380521
-0.00696637939
-0.00697603039
-0.00720655107
-0.00721342751
-0.00717967053
-0.00712020456
-0.00696503386
-0.00697198224
-0.0072062181
-0.0072113614
-0.00718612041
-0.00718375178
-0.00706418786
-0.00696747458
-0.00697529524
-0.00696845223
-0.006976723
-0.00721342319
-0.00721878208
-0.00711434206
-0.00696952099
-0.00697129404
-0.00721750998
-0.00722209061
-0.00713909128
-0.00696837613
-0.0069713915
-0.00719667613
-0.0071772536
-0.0069647193
-0.00697436888
-0.0071924223
-0.00717948081
-0.00696421415
-0.00697539152
-0.00719300354
-0.00717611311
-0.0069647079
-0.00697508193
-0.00721561622
-0.00722498358
-0.00713854985
-0.00696988308
-0.00697039527
-0.00719566892
-0.00717375052
-0.00696584852
-0.00697377902
-0.00719057388
-0.00717227177
-0.00696533792
-0.00697384672
-0.00721116619
-0.00721922883
-0.00713482169
-0.00696961692
-0.00696997156
-0.00719154955
-0.00717042646
-0.00696551638
-0.00697291229
-0.00718642785
-0.00716773386
-0.00696510819
-0.00697309438
-0.00720689722
-0.00721508422
-0.00712674165
-0.00696990786
-0.00696831393
-0.00720744122
-0.00720913059
-0.00718942801
-0.00714156758
-0.00696513968
-0.00696964632
-0.00718874513
-0.00717247357
-0.00696441969
-0.0069722021
-0.00718807346
-0.00717082467
-0.00696477051
-0.00697268885
-0.0072080298
-0.00721641201
-0.00713552102
-0.00697010111
-0.00696876252
-0.00719350835
-0.00716591082
-0.006967298
-0.00697130533
-0.00721063521
-0.00721629185
-0.00713396155
-0.00696996369
-0.00696894108
-0.00721613747
-0.0072200681
-0.00714908352
-0.00696967499
-0.00696975134
-0.00720017256
-0.00718184536
-0.00696678538
-0.00697310413
-0.00719809939
-0.00718781141
-0.00696612375
-0.0069741849
-0.00719936118
-0.00719046833
-0.00696585427
-0.00697457711
-0.00720066231
-0.00719176403
-0.00696564458
-0.00697460834
-0.00720096837
-0.00719199036
-0.00696545457
-0.00697442566
-0.00720009104
-0.00719086444
-0.0069652881
-0.00697415608
-0.00719842413
-0.00718808821
-0.0069651922
-0.00697383775
-0.00719818372
-0.00718203869
-0.00696509412
-0.00697342065
-0.00721660814
-0.00722549662
-0.00715364935
-0.00696971516
-0.00696777783
-0.0072003202
-0.00717676916
-0.00696633715
-0.00697051527
-0.00719364276
-0.00717450643
-0.00696508187
-0.00697155377
-0.00720816449
-0.00721528695
-0.00714574973
-0.00696850635
-0.00696727612
-0.00719425787
-0.0071680242
-0.0069652122
-0.0069699246
-0.0072040929
-0.00721020972
-0.00714120596
-0.00696792541
-0.00696666435
-0.00719038911
-0.00716862871
-0.00696494222
-0.00696827647
-0.0071978947
-0.00720101496
-0.00718635889
-0.00714306676
-0.00696356269
-0.00696724084
-0.00718478829
-0.00716408107
-0.00696324866
-0.00696909259
-0.00719751615
-0.007203831
-0.00711679061
-0.00696851864
-0.00696440626
-0.00696883251
-0.00719673444
-0.00719981105
-0.00718394999
-0.00713539487
-0.00696387366
-0.006967405
-0.00719851793
-0.00720292745
-0.00712521873
-0.0069666015
-0.00696624357
-0.00719918004
-0.00720105565
-0.00712398069
-0.00696666211
-0.00696719703
-0.00720053536
-0.00720297751
-0.00712998126
-0.00696699058
-0.0069679616
-0.00720347359
-0.00720660875
-0.00714778109
-0.00696694927
-0.00696709073
-0.00719257711
-0.00717127276
-0.0069650182
-0.00697008299
-0.00721098025
-0.00721739781
-0.00715639179
-0.00696819714
-0.00696618721
-0.00719993948
-0.00716635488
-0.00696718325
-0.0069690624
-0.00696809678
-0.00697138052
-0.00721519338
-0.00721692574
-0.00720080583
-0.00716909974
-0.00696516679
-0.00696776488
-0.00719668516
-0.00718363373
-0.0069642243
-0.00696919692
-0.00719415484
-0.00717969528
-0.00696376813
-0.0069705986
-0.00720900303
-0.00721606363
-0.00715800711
-0.00696759983
-0.00696572797
-0.00719209089
-0.00717446002
-0.00696540557
-0.00696782363
-0.00718416354
-0.00716927376
-0.0069645398
-0.00697000236
-0.00719698165
-0.00720252521
-0.00713098834
-0.00696779791
-0.00696759551
-0.00720342773
-0.00720443101
-0.00718492782
-0.00719405251
-0.0071134321
-0.00696655222
-0.00696648355
-0.00696718482
-0.00696819513
-0.0072019945
-0.00721136444
-0.0071357664
-0.00696760518
-0.00696811741
-0.00721182204
-0.0072132505
-0.00719078339
-0.00720345331
-0.00713862139
-0.00696637703
-0.00696623783
-0.00696707151
-0.00696878941
-0.00719475546
-0.00718294912
-0.00696574517
-0.00697132827
-0.00720916538
-0.00721535292
-0.00716079327
-0.00696839943
-0.00696699232
-0.0071970945
-0.00717455452
-0.00696603244
-0.00696965234
-0.00721188648
-0.00721991461
-0.00716171541
-0.00696945401
-0.00696577157
-0.00722024694
-0.00715298871
-0.00696841101
-0.00718862406
-0.00717307967
-0.00696590277
-0.00696812856
-0.00696807089
-0.00719685662
-0.00718031213
-0.0069679759
-0.00696830674
-0.00696993228
-0.00721701803
-0.00722289204
-0.00719265492
-0.0072096893
-0.0071589084
-0.00696856196
-0.00696663717
-0.00720293707
-0.00717034752
-0.00696735253
-0.00696706081
-0.00696963911
-0.00719125923
-0.00718810254
-0.00696557678
-0.00697102725
-0.00721208498
-0.00722050731
-0.00716656033
-0.00696915559
-0.00696602354
-0.00720130511
-0.0071747822
-0.00696664406
-0.00696654443
-0.00696835079
-0.00720293531
-0.0072195847
-0.0071497974
-0.00696717607
-0.0069675446
-0.00720535141
-0.00720740653
-0.00715195492
-0.0069663603
-0.00696828802
-0.00720142789
-0.00720482493
-0.00714724455
-0.00696687565
-0.00696774239
-0.00720369794
-0.00720622466
-0.00715296563
-0.00696661463
-0.00696811806
-0.00720821945
-0.00721052382
-0.0071478366
-0.00696653444
-0.00696667203
-0.00696726864
-0.00696860283
-0.00720758692
-0.00722006379
-0.00715630943
-0.00696756191
-0.00696882419
-0.00721275271
-0.00721578918
-0.00717172367
-0.00696673974
-0.00696697447
-0.00719912702
-0.00718537746
-0.00696542786
-0.00696844205
-0.00719437824
-0.0071864794
-0.0069647662
-0.00696952611
-0.00719435353
-0.00718181202
-0.00696423033
-0.00697123174
-0.00720820457
-0.00721577526
-0.00716872314
-0.00696801124
-0.00696561565
-0.00719631775
-0.00718093208
-0.00696589117
-0.00696754663
-0.00719220178
-0.00717902028
-0.00696416853
-0.00696955972
-0.00720573041
-0.00721249987
-0.0071672579
-0.00696708095
-0.00696450341
-0.00719401872
-0.00717881922
-0.00696497606
-0.00696613595
-0.00718803691
-0.00717499543
-0.00696349457
-0.00696789007
-0.00719898455
-0.00720520776
-0.00715151978
-0.00696761447
-0.00696447963
-0.00721052982
-0.00721088904
-0.0070657236
-0.00696766356
-0.00718131119
-0.00718131514
-0.00696421565
-0.00696731802
-0.00718158936
-0.00717301725
)
;

boundaryField
{
    closed
    {
        type            zeroGradient;
    }
    open
    {
        type            zeroGradient;
    }
    sides
    {
        type            empty;
    }
    procBoundary0to1
    {
        type            processor;
        value           uniform -0.00696284578;
    }
}


// ************************************************************************* //
