/*--------------------------------*- C++ -*----------------------------------*\
| =========                 |                                                 |
| \\      /  F ield         | OpenFOAM: The Open Source CFD Toolbox           |
|  \\    /   O peration     | Version:  2306                                  |
|   \\  /    A nd           | Website:  www.openfoam.com                      |
|    \\/     M anipulation  |                                                 |
\*---------------------------------------------------------------------------*/
FoamFile
{
    version     2.0;
    format      ascii;
    arch        "LSB;label=32;scalar=64";
    class       volVectorField;
    location    "0.00096";
    object      U;
}
// * * * * * * * * * * * * * * * * * * * * * * * * * * * * * * * * * * * * * //

dimensions      [0 1 -1 0 0 0 0];

internalField   nonuniform List<vector> 
530
(
(0.174323298 0 0)
(0.303941 0 0)
(0.294890964 0 0)
(0.191009734 0 0)
(0.0509882072 0 0)
(0.0533693101 0 0)
(0.16648551 0 0)
(0.253881602 0 0)
(0.28817279 0 0)
(0.371493289 0 0)
(0.489629562 0 0)
(0.590392682 0 0)
(0.631248559 0 0)
(0.662943108 0 0)
(0.657921177 0 0)
(0.6223772 0 0)
(0.589434243 0 0)
(0.561095777 0 0)
(0.537768161 0 0)
(0.5180277 0 0)
(0.486884529 0 0)
(0.430296227 0 0)
(0.322838441 0 0)
(0.14198777 0 0)
(-0.124559071 0 0)
(-0.451985866 0 0)
(-0.759697909 0 0)
(-0.930073343 0 0)
(-0.916356558 0 0)
(-0.778671414 0 0)
(-0.622496686 0 0)
(-0.492577982 0 0)
(-0.38254878 0 0)
(-0.287326102 0 0)
(-0.211158718 0 0)
(-0.160664512 0 0)
(-0.132643874 0 0)
(-0.124182614 0 0)
(-0.129233833 0 0)
(-0.139463865 0 0)
(-0.153323753 0 0)
(-0.16881838 0 0)
(-0.184266552 0 0)
(-0.201266564 0 0)
(-0.217538225 0 0)
(-0.236666519 0 0)
(-0.256747865 0 0)
(-0.277721774 0 0)
(-0.301172667 0 0)
(-0.323694198 0 0)
(-0.346198831 0 0)
(-0.368638381 0 0)
(-0.390520681 0 0)
(-0.411492617 0 0)
(-0.429628239 0 0)
(-0.446931964 0 0)
(-0.46362756 0 0)
(-0.477010833 0 0)
(-0.487912581 0 0)
(-0.497316732 0 0)
(-0.505563559 0 0)
(-0.510790776 0 0)
(-0.514137279 0 0)
(-0.516700691 0 0)
(-0.518117679 0 0)
(-0.517884654 0 0)
(-0.516628188 0 0)
(-0.514313925 0 0)
(-0.511110376 0 0)
(-0.507609638 0 0)
(-0.503687269 0 0)
(-0.499006246 0 0)
(-0.493564382 0 0)
(-0.488319601 0 0)
(-0.483152335 0 0)
(-0.477474402 0 0)
(-0.47172109 0 0)
(-0.465901433 0 0)
(-0.460124352 0 0)
(-0.454411611 0 0)
(-0.448770953 0 0)
(-0.443220692 0 0)
(-0.437582882 0 0)
(-0.432063308 0 0)
(-0.42728387 0 0)
(-0.422997088 0 0)
(-0.4175632 0 0)
(-0.411006749 0 0)
(-0.404471423 0 0)
(-0.397957763 0 0)
(-0.395622095 0 0)
(-0.39897099 0 0)
(-0.391939023 0 0)
(-0.383699427 0 0)
(-0.381814498 0 0)
(-0.384793874 0 0)
(-0.393031925 0 0)
(-0.397269243 0 0)
(-0.378615367 0 0)
(-0.367808309 0 0)
(-0.370191641 0 0)
(-0.371344945 0 0)
(-0.372844157 0 0)
(-0.375767881 0 0)
(-0.378507801 0 0)
(-0.375433337 0 0)
(-0.359860283 0 0)
(-0.350937744 0 0)
(-0.35394641 0 0)
(-0.358363981 0 0)
(-0.3643834 0 0)
(-0.367518035 0 0)
(-0.363154027 0 0)
(-0.352226225 0 0)
(-0.346756899 0 0)
(-0.350450025 0 0)
(-0.351432321 0 0)
(-0.349576408 0 0)
(-0.349511324 0 0)
(-0.352069898 0 0)
(-0.349643709 0 0)
(-0.336066648 0 0)
(-0.326608671 0 0)
(-0.329409143 0 0)
(-0.339824763 0 0)
(-0.346154529 0 0)
(-0.334887976 0 0)
(-0.324039855 0 0)
(-0.325607154 0 0)
(-0.334273908 0 0)
(-0.340204905 0 0)
(-0.332678501 0 0)
(-0.323313931 0 0)
(-0.327243932 0 0)
(-0.335481708 0 0)
(-0.329451573 0 0)
(-0.320479137 0 0)
(-0.324335365 0 0)
(-0.332270389 0 0)
(-0.326390722 0 0)
(-0.318111915 0 0)
(-0.32283216 0 0)
(-0.331155876 0 0)
(-0.322240451 0 0)
(-0.311223444 0 0)
(-0.310937219 0 0)
(-0.318843855 0 0)
(-0.324474654 0 0)
(-0.317694399 0 0)
(-0.308978954 0 0)
(-0.312427246 0 0)
(-0.320089136 0 0)
(-0.314759772 0 0)
(-0.306970784 0 0)
(-0.311315529 0 0)
(-0.318963404 0 0)
(-0.310790699 0 0)
(-0.301085143 0 0)
(-0.301236278 0 0)
(-0.308699995 0 0)
(-0.314055034 0 0)
(-0.308094604 0 0)
(-0.299629218 0 0)
(-0.302466781 0 0)
(-0.309305945 0 0)
(-0.304186619 0 0)
(-0.296531407 0 0)
(-0.297137516 0 0)
(-0.300834205 0 0)
(-0.293308589 0 0)
(-0.284051283 0 0)
(-0.283872454 0 0)
(-0.290899888 0 0)
(-0.295686906 0 0)
(-0.291794088 0 0)
(-0.282791897 0 0)
(-0.277074372 0 0)
(-0.278907694 0 0)
(-0.283834015 0 0)
(-0.287090441 0 0)
(-0.281725448 0 0)
(-0.27434496 0 0)
(-0.277300198 0 0)
(-0.284105815 0 0)
(-0.279906261 0 0)
(-0.273069917 0 0)
(-0.276773181 0 0)
(-0.283817915 0 0)
(-0.282618753 0 0)
(-0.27239474 0 0)
(-0.265899559 0 0)
(-0.27249405 0 0)
(-0.277799032 0 0)
(-0.273671051 0 0)
(-0.267483849 0 0)
(-0.26926223 0 0)
(-0.274358902 0 0)
(-0.274033324 0 0)
(-0.264378205 0 0)
(-0.25829182 0 0)
(-0.265455305 0 0)
(-0.271061289 0 0)
(-0.26477516 0 0)
(-0.257265378 0 0)
(-0.258007827 0 0)
(-0.26486582 0 0)
(-0.270361501 0 0)
(-0.265997445 0 0)
(-0.259197456 0 0)
(-0.262446717 0 0)
(-0.269776213 0 0)
(-0.266645733 0 0)
(-0.25960616 0 0)
(-0.262573513 0 0)
(-0.269838966 0 0)
(-0.266878513 0 0)
(-0.259730959 0 0)
(-0.26251171 0 0)
(-0.269840358 0 0)
(-0.267039015 0 0)
(-0.259769918 0 0)
(-0.262350415 0 0)
(-0.269703049 0 0)
(-0.267103131 0 0)
(-0.259812196 0 0)
(-0.262163185 0 0)
(-0.269436816 0 0)
(-0.26706813 0 0)
(-0.259862733 0 0)
(-0.261993855 0 0)
(-0.269112881 0 0)
(-0.266962687 0 0)
(-0.259946916 0 0)
(-0.261930091 0 0)
(-0.268822681 0 0)
(-0.266762291 0 0)
(-0.260276498 0 0)
(-0.262788385 0 0)
(-0.269642953 0 0)
(-0.265430985 0 0)
(-0.256830265 0 0)
(-0.256139103 0 0)
(-0.262493757 0 0)
(-0.268630561 0 0)
(-0.265775292 0 0)
(-0.259025244 0 0)
(-0.260491107 0 0)
(-0.266705195 0 0)
(-0.265003024 0 0)
(-0.258957039 0 0)
(-0.261048137 0 0)
(-0.267526659 0 0)
(-0.268777147 0 0)
(-0.259524628 0 0)
(-0.253603665 0 0)
(-0.259773322 0 0)
(-0.266168233 0 0)
(-0.264503867 0 0)
(-0.258850738 0 0)
(-0.260726272 0 0)
(-0.266873109 0 0)
(-0.268136981 0 0)
(-0.259358462 0 0)
(-0.253780331 0 0)
(-0.259475798 0 0)
(-0.265643284 0 0)
(-0.264294912 0 0)
(-0.258850385 0 0)
(-0.260760239 0 0)
(-0.267022534 0 0)
(-0.266993807 0 0)
(-0.259830215 0 0)
(-0.256045077 0 0)
(-0.257423322 0 0)
(-0.261436517 0 0)
(-0.266712716 0 0)
(-0.265414363 0 0)
(-0.259477932 0 0)
(-0.260528728 0 0)
(-0.266344871 0 0)
(-0.267989033 0 0)
(-0.259934567 0 0)
(-0.254665866 0 0)
(-0.259252189 0 0)
(-0.26567428 0 0)
(-0.268151379 0 0)
(-0.261743278 0 0)
(-0.2557326 0 0)
(-0.256937447 0 0)
(-0.258730183 0 0)
(-0.262721264 0 0)
(-0.268099305 0 0)
(-0.269725246 0 0)
(-0.26128049 0 0)
(-0.255624845 0 0)
(-0.260414729 0 0)
(-0.266566118 0 0)
(-0.263146825 0 0)
(-0.256833615 0 0)
(-0.258049907 0 0)
(-0.262631161 0 0)
(-0.268402353 0 0)
(-0.264727223 0 0)
(-0.257883007 0 0)
(-0.258698477 0 0)
(-0.263405922 0 0)
(-0.269421739 0 0)
(-0.270634949 0 0)
(-0.261668164 0 0)
(-0.256199769 0 0)
(-0.26119592 0 0)
(-0.267864805 0 0)
(-0.267758911 0 0)
(-0.262294473 0 0)
(-0.262740273 0 0)
(-0.267902504 0 0)
(-0.264325308 0 0)
(-0.256062002 0 0)
(-0.255913839 0 0)
(-0.260982119 0 0)
(-0.267843125 0 0)
(-0.267484078 0 0)
(-0.261069212 0 0)
(-0.262188265 0 0)
(-0.268821716 0 0)
(-0.271801918 0 0)
(-0.271377007 0 0)
(-0.268872968 0 0)
(-0.26012252 0 0)
(-0.256168007 0 0)
(-0.258075256 0 0)
(-0.260495201 0 0)
(-0.264691734 0 0)
(-0.264066964 0 0)
(-0.256994878 0 0)
(-0.255112595 0 0)
(-0.259699135 0 0)
(-0.25979486 0 0)
(-0.253446874 0 0)
(-0.2528027 0 0)
(-0.257785169 0 0)
(-0.254771923 0 0)
(-0.247169048 0 0)
(-0.247400197 0 0)
(-0.252379585 0 0)
(-0.259253844 0 0)
(-0.25925955 0 0)
(-0.252886876 0 0)
(-0.251152746 0 0)
(-0.255132017 0 0)
(-0.255433998 0 0)
(-0.249973059 0 0)
(-0.249172564 0 0)
(-0.253303227 0 0)
(-0.255462361 0 0)
(-0.24749802 0 0)
(-0.242332398 0 0)
(-0.246622206 0 0)
(-0.252734922 0 0)
(-0.253771934 0 0)
(-0.246181421 0 0)
(-0.242074809 0 0)
(-0.243024735 0 0)
(-0.242552002 0 0)
(-0.243819962 0 0)
(-0.248415809 0 0)
(-0.250845927 0 0)
(-0.250662737 0 0)
(-0.247386714 0 0)
(-0.242223943 0 0)
(-0.24260314 0 0)
(-0.247168609 0 0)
(-0.253100075 0 0)
(-0.248681921 0 0)
(-0.242217479 0 0)
(-0.24401822 0 0)
(-0.244313402 0 0)
(-0.243129825 0 0)
(-0.245280411 0 0)
(-0.250979843 0 0)
(-0.253541635 0 0)
(-0.253401548 0 0)
(-0.25076404 0 0)
(-0.244826867 0 0)
(-0.24412781 0 0)
(-0.249017584 0 0)
(-0.251546169 0 0)
(-0.24224773 0 0)
(-0.23595075 0 0)
(-0.240385554 0 0)
(-0.247064145 0 0)
(-0.247622272 0 0)
(-0.242160003 0 0)
(-0.240937543 0 0)
(-0.244405716 0 0)
(-0.243179149 0 0)
(-0.236567923 0 0)
(-0.235728062 0 0)
(-0.239996883 0 0)
(-0.246169247 0 0)
(-0.24577105 0 0)
(-0.239392753 0 0)
(-0.241550416 0 0)
(-0.246266712 0 0)
(-0.242511553 0 0)
(-0.23951788 0 0)
(-0.242705337 0 0)
(-0.244764754 0 0)
(-0.242322991 0 0)
(-0.236356527 0 0)
(-0.238739697 0 0)
(-0.243892597 0 0)
(-0.242582559 0 0)
(-0.23911606 0 0)
(-0.233624231 0 0)
(-0.23367735 0 0)
(-0.235005341 0 0)
(-0.235113007 0 0)
(-0.238232351 0 0)
(-0.24408781 0 0)
(-0.244270151 0 0)
(-0.238047415 0 0)
(-0.234070999 0 0)
(-0.237748834 0 0)
(-0.24231044 0 0)
(-0.239711052 0 0)
(-0.233366552 0 0)
(-0.231581111 0 0)
(-0.235723125 0 0)
(-0.234842603 0 0)
(-0.228184599 0 0)
(-0.22674841 0 0)
(-0.228417001 0 0)
(-0.232049062 0 0)
(-0.231664727 0 0)
(-0.225585035 0 0)
(-0.225596509 0 0)
(-0.229949789 0 0)
(-0.23065407 0 0)
(-0.227236818 0 0)
(-0.221201381 0 0)
(-0.219866597 0 0)
(-0.223555849 0 0)
(-0.229287383 0 0)
(-0.226322076 0 0)
(-0.220128806 0 0)
(-0.220704844 0 0)
(-0.224134862 0 0)
(-0.229579575 0 0)
(-0.22623127 0 0)
(-0.219533222 0 0)
(-0.219744507 0 0)
(-0.222804418 0 0)
(-0.227780874 0 0)
(-0.224511299 0 0)
(-0.217540725 0 0)
(-0.217245877 0 0)
(-0.220462567 0 0)
(-0.225730277 0 0)
(-0.22678007 0 0)
(-0.21729146 0 0)
(-0.209802573 0 0)
(-0.212147346 0 0)
(-0.218270042 0 0)
(-0.221149865 0 0)
(-0.220584219 0 0)
(-0.216973302 0 0)
(-0.211518648 0 0)
(-0.210869857 0 0)
(-0.214576542 0 0)
(-0.219699901 0 0)
(-0.215598232 0 0)
(-0.208319033 0 0)
(-0.20804901 0 0)
(-0.209272036 0 0)
(-0.21255712 0 0)
(-0.211627982 0 0)
(-0.205456947 0 0)
(-0.203483777 0 0)
(-0.206647828 0 0)
(-0.206075806 0 0)
(-0.200095698 0 0)
(-0.198265405 0 0)
(-0.201671242 0 0)
(-0.201297546 0 0)
(-0.195999342 0 0)
(-0.195128712 0 0)
(-0.198669969 0 0)
(-0.199815829 0 0)
(-0.191733631 0 0)
(-0.18577138 0 0)
(-0.187629163 0 0)
(-0.191138091 0 0)
(-0.190493326 0 0)
(-0.185515687 0 0)
(-0.184219741 0 0)
(-0.187023904 0 0)
(-0.186404941 0 0)
(-0.181638368 0 0)
(-0.181041291 0 0)
(-0.184183683 0 0)
(-0.181336197 0 0)
(-0.175041811 0 0)
(-0.17366146 0 0)
(-0.175418542 0 0)
(-0.178515371 0 0)
(-0.177249838 0 0)
(-0.172185197 0 0)
(-0.170930455 0 0)
(-0.17341807 0 0)
(-0.172451453 0 0)
(-0.167914227 0 0)
(-0.167254292 0 0)
(-0.169864527 0 0)
(-0.168102279 0 0)
(-0.162862623 0 0)
(-0.161258296 0 0)
(-0.163670233 0 0)
(-0.166959661 0 0)
(-0.165594786 0 0)
(-0.162627699 0 0)
(-0.163205639 0 0)
(-0.163295024 0 0)
(-0.161150836 0 0)
(-0.158590121 0 0)
(-0.159070906 0 0)
(-0.162200747 0 0)
(-0.161478329 0 0)
(-0.157522501 0 0)
(-0.157378681 0 0)
)
;

boundaryField
{
    closed
    {
        type            noSlip;
    }
    open
    {
        type            inletOutlet;
        inletValue      nonuniform List<vector> 0();
        value           nonuniform List<vector> 0();
    }
    sides
    {
        type            empty;
    }
    procBoundary0to1
    {
        type            processor;
        value           uniform (-0.160127867 0 0);
    }
}


// ************************************************************************* //
