/*--------------------------------*- C++ -*----------------------------------*\
| =========                 |                                                 |
| \\      /  F ield         | OpenFOAM: The Open Source CFD Toolbox           |
|  \\    /   O peration     | Version:  2306                                  |
|   \\  /    A nd           | Website:  www.openfoam.com                      |
|    \\/     M anipulation  |                                                 |
\*---------------------------------------------------------------------------*/
FoamFile
{
    version     2.0;
    format      ascii;
    arch        "LSB;label=32;scalar=64";
    class       volScalarField;
    location    "0.00118";
    object      prefDZ_H2;
}
// * * * * * * * * * * * * * * * * * * * * * * * * * * * * * * * * * * * * * //

dimensions      [1 -1 -1 0 0 0 0];

internalField   nonuniform List<scalar> 
531
(
6.35253427e-05
6.23482718e-05
6.13950038e-05
6.14383933e-05
6.30505788e-05
6.35968893e-05
6.24045085e-05
6.18663701e-05
6.33424752e-05
6.36003429e-05
6.24260043e-05
6.19090106e-05
6.33966638e-05
6.35583051e-05
6.23249978e-05
6.14780327e-05
6.15155127e-05
6.30829017e-05
6.35873894e-05
6.23943991e-05
6.1978827e-05
6.33884022e-05
6.35579162e-05
6.23327514e-05
6.16022273e-05
6.16270319e-05
6.3139781e-05
6.35892181e-05
6.2397658e-05
6.20743129e-05
6.33973058e-05
6.35581404e-05
6.23435115e-05
6.17034436e-05
6.17138836e-05
6.31451478e-05
6.35870886e-05
6.23540011e-05
6.20148121e-05
6.16062689e-05
6.16151366e-05
6.28459493e-05
6.35565278e-05
6.34908668e-05
6.35789482e-05
6.35297945e-05
6.23340009e-05
6.19057602e-05
6.18793616e-05
6.13940065e-05
6.14077372e-05
6.28777185e-05
6.35551157e-05
6.35447579e-05
6.235062e-05
6.1669158e-05
6.32370468e-05
6.35182238e-05
6.23304085e-05
6.15648028e-05
6.15850099e-05
6.32310052e-05
6.35703994e-05
6.23607047e-05
6.19103943e-05
6.14461192e-05
6.14591084e-05
6.2874649e-05
6.3551969e-05
6.34912975e-05
6.35606674e-05
6.35431748e-05
6.24520691e-05
6.21466015e-05
6.16184973e-05
6.16308335e-05
6.339462e-05
6.35379134e-05
6.23386806e-05
6.16127252e-05
6.16266694e-05
6.33428431e-05
6.35408875e-05
6.23713267e-05
6.17112807e-05
6.17201988e-05
6.3344551e-05
6.35348195e-05
6.23811735e-05
6.17595879e-05
6.17695846e-05
6.33229402e-05
6.35937497e-05
6.23665693e-05
6.20409815e-05
6.16282513e-05
6.1645321e-05
6.33121733e-05
6.36016964e-05
6.24216877e-05
6.196493e-05
6.33061078e-05
6.36070395e-05
6.24072395e-05
6.20732515e-05
6.33345646e-05
6.3559185e-05
6.23458471e-05
6.17880012e-05
6.17949301e-05
6.32861472e-05
6.3545876e-05
6.23993688e-05
6.18446065e-05
6.18472987e-05
6.32693306e-05
6.35371606e-05
6.24176212e-05
6.18578166e-05
6.18625421e-05
6.32323919e-05
6.35912777e-05
6.2362076e-05
6.19927641e-05
6.15547018e-05
6.15723536e-05
6.32169835e-05
6.35941895e-05
6.24102929e-05
6.18016771e-05
6.32163175e-05
6.36024918e-05
6.24101745e-05
6.18409715e-05
6.32255178e-05
6.36028769e-05
6.24083516e-05
6.18978582e-05
6.32488302e-05
6.35946807e-05
6.24016614e-05
6.19536162e-05
6.33058998e-05
6.35432266e-05
6.23253249e-05
6.15171897e-05
6.15347703e-05
6.31944041e-05
6.35589216e-05
6.2414414e-05
6.19476928e-05
6.32963061e-05
6.35180594e-05
6.23490537e-05
6.11744523e-05
6.11920656e-05
6.31802536e-05
6.35170525e-05
6.35088519e-05
6.2275297e-05
6.13659499e-05
6.3155906e-05
6.35434776e-05
6.21429786e-05
6.16818479e-05
6.31632696e-05
6.35551212e-05
6.35008679e-05
6.23086065e-05
6.12678992e-05
6.13033922e-05
6.32380691e-05
6.35566779e-05
6.24274689e-05
6.19805524e-05
6.33436763e-05
6.35740911e-05
6.2354782e-05
6.19758016e-05
6.1482038e-05
6.14953084e-05
6.33691474e-05
6.35533337e-05
6.35456275e-05
6.23488901e-05
6.20163521e-05
6.33937026e-05
6.35752288e-05
6.23612297e-05
6.21158894e-05
6.16339714e-05
6.16429387e-05
6.33948084e-05
6.3558815e-05
6.35154756e-05
6.23806555e-05
6.19437471e-05
6.19164932e-05
6.14661898e-05
6.14766521e-05
6.33989134e-05
6.35257663e-05
6.23730585e-05
6.17210003e-05
6.17330955e-05
6.3371108e-05
6.35966983e-05
6.24282662e-05
6.19917655e-05
6.33864261e-05
6.36075852e-05
6.24030297e-05
6.19125827e-05
6.33954691e-05
6.36022933e-05
6.23761199e-05
6.18651731e-05
6.341462e-05
6.35587777e-05
6.23264141e-05
6.1568649e-05
6.15794642e-05
6.34017968e-05
6.35406249e-05
6.23303671e-05
6.14810394e-05
6.14974e-05
6.33815165e-05
6.35796462e-05
6.23999414e-05
6.18612435e-05
6.34206212e-05
6.35451305e-05
6.23130704e-05
6.14089333e-05
6.14340711e-05
6.33581364e-05
6.35944577e-05
6.23769222e-05
6.1784143e-05
6.33742197e-05
6.36052561e-05
6.23144908e-05
6.18295172e-05
6.33831697e-05
6.35988805e-05
6.23959468e-05
6.18923267e-05
6.34103639e-05
6.35564664e-05
6.23106343e-05
6.15556235e-05
6.15715889e-05
6.33687389e-05
6.35951562e-05
6.23867174e-05
6.19961078e-05
6.34089372e-05
6.35682334e-05
6.2323189e-05
6.17404626e-05
6.17462444e-05
6.33934891e-05
6.35617257e-05
6.23458894e-05
6.17656289e-05
6.17704117e-05
6.34069761e-05
6.35790776e-05
6.23269802e-05
6.19474158e-05
6.20962511e-05
6.16678149e-05
6.17572501e-05
6.34666943e-05
6.35929111e-05
6.35354415e-05
6.3609461e-05
6.35881724e-05
6.36075289e-05
6.23154421e-05
6.18025785e-05
6.18222222e-05
6.16876516e-05
6.13340822e-05
6.13374881e-05
6.34216598e-05
6.35210935e-05
6.23173587e-05
6.15522233e-05
6.15681407e-05
6.33994196e-05
6.35823101e-05
6.23921396e-05
6.22426632e-05
6.3444346e-05
6.23320066e-05
6.18685273e-05
6.3456923e-05
6.35744826e-05
6.35402562e-05
6.23099466e-05
6.13627936e-05
6.1689824e-05
6.34768781e-05
6.23325631e-05
6.15709363e-05
6.34342212e-05
6.35137253e-05
6.3504148e-05
6.20322763e-05
6.13063331e-05
6.34434678e-05
6.35787062e-05
6.35310313e-05
6.23069685e-05
6.11433412e-05
6.13945223e-05
6.3481867e-05
6.35556553e-05
6.23289599e-05
6.17426631e-05
6.17437094e-05
6.35074226e-05
6.3564929e-05
6.2304797e-05
6.17674676e-05
6.17680194e-05
6.35175745e-05
6.35830525e-05
6.23003261e-05
6.17601797e-05
6.17619492e-05
6.35228626e-05
6.35926561e-05
6.23016886e-05
6.17317931e-05
6.1736217e-05
6.3551444e-05
6.35703771e-05
6.22764126e-05
6.15722346e-05
6.16259042e-05
6.35419055e-05
6.36329742e-05
6.20406141e-05
6.1581261e-05
6.3518291e-05
6.36567221e-05
6.17112656e-05
6.16599549e-05
6.35173349e-05
6.36650851e-05
6.35767538e-05
6.22279372e-05
6.10472424e-05
6.11868739e-05
6.35870809e-05
6.3713241e-05
6.15097305e-05
6.11465095e-05
6.36702985e-05
6.38153503e-05
6.37824983e-05
6.10485673e-05
6.05012514e-05
6.3862957e-05
6.40233859e-05
6.4021811e-05
6.40970375e-05
6.12375753e-05
6.08516172e-05
6.37883439e-05
6.40093429e-05
6.38799807e-05
6.08598381e-05
6.03795434e-05
6.34923059e-05
6.37347501e-05
6.35789652e-05
6.37052195e-05
6.36313139e-05
6.37083259e-05
6.36752662e-05
6.37346559e-05
6.37262365e-05
6.37883319e-05
6.38002058e-05
6.38845897e-05
6.39372429e-05
6.40816056e-05
6.42233786e-05
6.46109666e-05
6.51515295e-05
6.47442876e-05
6.45069112e-05
6.41746055e-05
6.39741584e-05
6.37343115e-05
6.35990018e-05
6.34597868e-05
6.33323823e-05
6.31237456e-05
6.30994153e-05
6.30278892e-05
6.28848237e-05
6.27364924e-05
6.26834205e-05
6.26275887e-05
6.26659026e-05
6.24051631e-05
6.21348151e-05
6.18020966e-05
6.15282856e-05
6.18516153e-05
6.51326062e-05
6.46481274e-05
6.41254628e-05
6.35191363e-05
6.29923874e-05
6.23794289e-05
6.18246927e-05
6.1221747e-05
6.06001037e-05
6.04012878e-05
6.22663895e-05
6.16787516e-05
6.07377207e-05
6.72489309e-05
6.96777033e-05
6.85944961e-05
7.9467131e-05
7.82885798e-05
8.36104078e-05
8.60336216e-05
8.91597149e-05
9.27102172e-05
9.8064115e-05
0.000103839657
0.000109843222
0.000115647035
0.000121152049
0.000126149833
0.000130263127
0.0001343357
0.00013778792
0.0001406903
0.000143747671
0.000146461518
0.000148994451
0.000151054832
0.000152962854
0.000154628197
0.000156269387
0.000157734747
0.000159147762
0.000160435419
0.000161661773
0.000162832472
0.000163898893
0.000164952532
0.000165861352
0.000166856943
0.000167688288
0.000168675087
0.00016938653
0.000170328166
0.000171024666
0.000171890743
0.000172546296
0.000173309298
0.000173829464
0.000174435261
0.000174939748
0.000175562652
0.000176082061
0.000176683148
0.000177202256
0.000177904039
0.000178484832
0.000178947615
0.000179322608
0.000179717452
0.000180062836
0.000180418702
0.000180725829
0.000181074518
0.000181402621
0.00018174762
0.000182066033
0.000182387634
0.000182669202
0.000182958671
0.000183268225
0.000183603534
0.000183922019
0.000184235258
0.00018452825
0.000184818
0.000185088529
0.000185338271
0.000185575306
0.000185813221
0.000186039352
0.000186266826
0.00018647955
0.000186695409
0.000186902714
0.000187113673
0.000187316397
0.000187523305
0.000187729372
0.000187931129
0.000188120913
0.000188312543
0.000188492681
0.000188675036
0.000188846417
0.000189020294
0.000189183158
0.000189346053
0.000189497988
0.000189652076
0.000189795828
0.00018994203
0.000190078459
0.000190217594
0.00019034745
0.000190480248
0.000190604191
0.000190723733
)
;

boundaryField
{
    closed
    {
        type            calculated;
        value           nonuniform List<scalar> 0();
    }
    open
    {
        type            calculated;
        value           nonuniform List<scalar> 0();
    }
    sides
    {
        type            empty;
    }
    procBoundary4to3
    {
        type            processor;
        value           uniform 6.3506509e-05;
    }
    procBoundary4to5
    {
        type            processor;
        value           uniform 0.000190834805;
    }
}


// ************************************************************************* //
