/*--------------------------------*- C++ -*----------------------------------*\
| =========                 |                                                 |
| \\      /  F ield         | OpenFOAM: The Open Source CFD Toolbox           |
|  \\    /   O peration     | Version:  2306                                  |
|   \\  /    A nd           | Website:  www.openfoam.com                      |
|    \\/     M anipulation  |                                                 |
\*---------------------------------------------------------------------------*/
FoamFile
{
    version     2.0;
    format      ascii;
    arch        "LSB;label=32;scalar=64";
    class       volVectorField;
    location    "0.00118";
    object      U;
}
// * * * * * * * * * * * * * * * * * * * * * * * * * * * * * * * * * * * * * //

dimensions      [0 1 -1 0 0 0 0];

internalField   nonuniform List<vector> 
531
(
(0.16461075 0 0)
(0.150309858 0 0)
(0.134671801 0 0)
(0.119468638 0 0)
(0.133791127 0 0)
(0.148093585 0 0)
(0.142626882 0 0)
(0.128881711 0 0)
(0.153391079 0 0)
(0.183303659 0 0)
(0.173649634 0 0)
(0.166800494 0 0)
(0.191677392 0 0)
(0.217988463 0 0)
(0.20292483 0 0)
(0.195401953 0 0)
(0.188302463 0 0)
(0.211660485 0 0)
(0.235521159 0 0)
(0.232718697 0 0)
(0.226214773 0 0)
(0.254320307 0 0)
(0.283293762 0 0)
(0.273610108 0 0)
(0.268747843 0 0)
(0.26350226 0 0)
(0.292483098 0 0)
(0.322502639 0 0)
(0.320512197 0 0)
(0.319239503 0 0)
(0.347688089 0 0)
(0.374319812 0 0)
(0.368927485 0 0)
(0.366000106 0 0)
(0.361828781 0 0)
(0.392151812 0 0)
(0.424573053 0 0)
(0.424129874 0 0)
(0.427653899 0 0)
(0.434290071 0 0)
(0.445394605 0 0)
(0.452960885 0 0)
(0.46334576 0 0)
(0.479142433 0 0)
(0.491264553 0 0)
(0.491887459 0 0)
(0.495709955 0 0)
(0.508003923 0 0)
(0.517447005 0 0)
(0.524932206 0 0)
(0.540792627 0 0)
(0.553069666 0 0)
(0.562540145 0 0)
(0.566239863 0 0)
(0.562578049 0 0)
(0.565129437 0 0)
(0.597457557 0 0)
(0.621335527 0 0)
(0.611372808 0 0)
(0.604600282 0 0)
(0.601995993 0 0)
(0.62981329 0 0)
(0.65044226 0 0)
(0.642225375 0 0)
(0.643270675 0 0)
(0.648117007 0 0)
(0.660497299 0 0)
(0.662709745 0 0)
(0.658458476 0 0)
(0.66683822 0 0)
(0.671584752 0 0)
(0.666193082 0 0)
(0.665434345 0 0)
(0.673863984 0 0)
(0.670101948 0 0)
(0.659939249 0 0)
(0.682382426 0 0)
(0.694745129 0 0)
(0.6768652 0 0)
(0.667492573 0 0)
(0.66032158 0 0)
(0.685378404 0 0)
(0.701660342 0 0)
(0.684646632 0 0)
(0.674061304 0 0)
(0.670004632 0 0)
(0.694069607 0 0)
(0.706777238 0 0)
(0.693158884 0 0)
(0.6856286 0 0)
(0.679720747 0 0)
(0.7043731 0 0)
(0.722370838 0 0)
(0.711406937 0 0)
(0.712976114 0 0)
(0.711607347 0 0)
(0.705029272 0 0)
(0.72838378 0 0)
(0.744351024 0 0)
(0.731691413 0 0)
(0.731333292 0 0)
(0.754661423 0 0)
(0.766389994 0 0)
(0.755163433 0 0)
(0.756448652 0 0)
(0.782827067 0 0)
(0.795952072 0 0)
(0.784122033 0 0)
(0.781125807 0 0)
(0.780600422 0 0)
(0.806519668 0 0)
(0.822823081 0 0)
(0.814508091 0 0)
(0.817377234 0 0)
(0.818616761 0 0)
(0.842825859 0 0)
(0.85709329 0 0)
(0.845507694 0 0)
(0.844794788 0 0)
(0.851604918 0 0)
(0.871006243 0 0)
(0.871817924 0 0)
(0.860637001 0 0)
(0.865644358 0 0)
(0.866865911 0 0)
(0.866771549 0 0)
(0.882888586 0 0)
(0.883780048 0 0)
(0.867451129 0 0)
(0.866581051 0 0)
(0.882758471 0 0)
(0.882216639 0 0)
(0.866166138 0 0)
(0.866977882 0 0)
(0.883582634 0 0)
(0.881399211 0 0)
(0.863843334 0 0)
(0.863762548 0 0)
(0.880571146 0 0)
(0.878017312 0 0)
(0.860236795 0 0)
(0.860480604 0 0)
(0.883091841 0 0)
(0.885462286 0 0)
(0.865794562 0 0)
(0.858796475 0 0)
(0.863434845 0 0)
(0.880172386 0 0)
(0.874028867 0 0)
(0.85462888 0 0)
(0.852579139 0 0)
(0.872315944 0 0)
(0.871795685 0 0)
(0.848496639 0 0)
(0.840870894 0 0)
(0.84807724 0 0)
(0.86032483 0 0)
(0.862347227 0 0)
(0.848827512 0 0)
(0.840087389 0 0)
(0.85520534 0 0)
(0.869083443 0 0)
(0.854331699 0 0)
(0.84522235 0 0)
(0.862489445 0 0)
(0.869981826 0 0)
(0.865003039 0 0)
(0.851720129 0 0)
(0.82563602 0 0)
(0.81383186 0 0)
(0.82337684 0 0)
(0.840693289 0 0)
(0.824108571 0 0)
(0.798118105 0 0)
(0.793721603 0 0)
(0.811439876 0 0)
(0.805681436 0 0)
(0.781187385 0 0)
(0.774946564 0 0)
(0.764274936 0 0)
(0.752601628 0 0)
(0.768337798 0 0)
(0.777313128 0 0)
(0.756745673 0 0)
(0.729104746 0 0)
(0.723870784 0 0)
(0.738800586 0 0)
(0.732292568 0 0)
(0.709352085 0 0)
(0.702386015 0 0)
(0.691037028 0 0)
(0.677621293 0 0)
(0.687450709 0 0)
(0.693101299 0 0)
(0.674170009 0 0)
(0.654488168 0 0)
(0.651539667 0 0)
(0.6462405 0 0)
(0.632566056 0 0)
(0.618269976 0 0)
(0.632678204 0 0)
(0.634220058 0 0)
(0.610004459 0 0)
(0.595399094 0 0)
(0.589835431 0 0)
(0.604100834 0 0)
(0.600482723 0 0)
(0.579509209 0 0)
(0.572529525 0 0)
(0.584898899 0 0)
(0.584412031 0 0)
(0.567540438 0 0)
(0.562789656 0 0)
(0.577023879 0 0)
(0.578927892 0 0)
(0.562224565 0 0)
(0.557144371 0 0)
(0.57340125 0 0)
(0.57672604 0 0)
(0.557462006 0 0)
(0.546725543 0 0)
(0.538822068 0 0)
(0.557346715 0 0)
(0.56493036 0 0)
(0.54583636 0 0)
(0.536705968 0 0)
(0.528943466 0 0)
(0.548090183 0 0)
(0.559589166 0 0)
(0.543401524 0 0)
(0.539346011 0 0)
(0.557096727 0 0)
(0.563172444 0 0)
(0.546474584 0 0)
(0.536755875 0 0)
(0.531510079 0 0)
(0.553107421 0 0)
(0.565344643 0 0)
(0.552438402 0 0)
(0.550799655 0 0)
(0.570430964 0 0)
(0.579267462 0 0)
(0.568004723 0 0)
(0.568912298 0 0)
(0.589750378 0 0)
(0.599845185 0 0)
(0.590067702 0 0)
(0.591639261 0 0)
(0.613388936 0 0)
(0.621735539 0 0)
(0.607936504 0 0)
(0.602093391 0 0)
(0.599479115 0 0)
(0.623127482 0 0)
(0.634894504 0 0)
(0.621396987 0 0)
(0.621606036 0 0)
(0.640601618 0 0)
(0.64412792 0 0)
(0.628243155 0 0)
(0.621119046 0 0)
(0.615680403 0 0)
(0.632237187 0 0)
(0.635487598 0 0)
(0.615545187 0 0)
(0.603254745 0 0)
(0.595971912 0 0)
(0.607937167 0 0)
(0.605179032 0 0)
(0.58505216 0 0)
(0.578186106 0 0)
(0.570709033 0 0)
(0.557536181 0 0)
(0.541799747 0 0)
(0.535201228 0 0)
(0.533985578 0 0)
(0.523511236 0 0)
(0.513306454 0 0)
(0.504124275 0 0)
(0.485300546 0 0)
(0.470729791 0 0)
(0.46889163 0 0)
(0.467044031 0 0)
(0.46200377 0 0)
(0.452765614 0 0)
(0.442238892 0 0)
(0.455187589 0 0)
(0.462020504 0 0)
(0.446039536 0 0)
(0.439322902 0 0)
(0.436712736 0 0)
(0.452487496 0 0)
(0.458691301 0 0)
(0.450644238 0 0)
(0.459304853 0 0)
(0.46402051 0 0)
(0.459788868 0 0)
(0.45991939 0 0)
(0.473572423 0 0)
(0.485260279 0 0)
(0.477403334 0 0)
(0.465545075 0 0)
(0.466916931 0 0)
(0.474489021 0 0)
(0.47894178 0 0)
(0.471149295 0 0)
(0.468719197 0 0)
(0.485008981 0 0)
(0.496524565 0 0)
(0.489536832 0 0)
(0.482215337 0 0)
(0.488742679 0 0)
(0.508321738 0 0)
(0.520066356 0 0)
(0.51369111 0 0)
(0.497943349 0 0)
(0.492641766 0 0)
(0.490618989 0 0)
(0.500621302 0 0)
(0.500157297 0 0)
(0.485716486 0 0)
(0.480634847 0 0)
(0.484817801 0 0)
(0.497463505 0 0)
(0.489445202 0 0)
(0.47607565 0 0)
(0.474084895 0 0)
(0.474023242 0 0)
(0.48549168 0 0)
(0.480940842 0 0)
(0.464512513 0 0)
(0.459778803 0 0)
(0.463417183 0 0)
(0.475052398 0 0)
(0.465936845 0 0)
(0.451053912 0 0)
(0.44841603 0 0)
(0.448608561 0 0)
(0.45794096 0 0)
(0.45130181 0 0)
(0.43565255 0 0)
(0.431558147 0 0)
(0.425937331 0 0)
(0.431243347 0 0)
(0.426045073 0 0)
(0.415537442 0 0)
(0.41920107 0 0)
(0.431725149 0 0)
(0.423723535 0 0)
(0.40891519 0 0)
(0.414739606 0 0)
(0.425482602 0 0)
(0.426201307 0 0)
(0.417526423 0 0)
(0.399983423 0 0)
(0.389752919 0 0)
(0.381529912 0 0)
(0.389636074 0 0)
(0.383893151 0 0)
(0.36739885 0 0)
(0.369260061 0 0)
(0.379948808 0 0)
(0.381968453 0 0)
(0.367576016 0 0)
(0.35025967 0 0)
(0.348414309 0 0)
(0.365247443 0 0)
(0.374732424 0 0)
(0.370830486 0 0)
(0.352735014 0 0)
(0.332708994 0 0)
(0.331510768 0 0)
(0.344798524 0 0)
(0.35221321 0 0)
(0.333678811 0 0)
(0.314211262 0 0)
(0.313533203 0 0)
(0.326754349 0 0)
(0.334691404 0 0)
(0.329982311 0 0)
(0.32589532 0 0)
(0.322516075 0 0)
(0.319595992 0 0)
(0.316647387 0 0)
(0.313898164 0 0)
(0.311222213 0 0)
(0.308781357 0 0)
(0.306475589 0 0)
(0.30449124 0 0)
(0.30279479 0 0)
(0.301553566 0 0)
(0.300948683 0 0)
(0.302974114 0 0)
(0.307854133 0 0)
(0.30621089 0 0)
(0.298695134 0 0)
(0.292258598 0 0)
(0.287075428 0 0)
(0.282462786 0 0)
(0.278401279 0 0)
(0.274598713 0 0)
(0.270324281 0 0)
(0.266102938 0 0)
(0.262962913 0 0)
(0.258767982 0 0)
(0.252744786 0 0)
(0.246359741 0 0)
(0.238978482 0 0)
(0.229193539 0 0)
(0.214048236 0 0)
(0.189146703 0 0)
(0.150934965 0 0)
(0.0985939452 0 0)
(0.0312578501 0 0)
(-0.0362178754 0 0)
(-0.131682466 0 0)
(-0.228280873 0 0)
(-0.313115921 0 0)
(-0.351248268 0 0)
(-0.334301315 0 0)
(-0.250238565 0 0)
(-0.116523651 0 0)
(0.0348717323 0 0)
(0.163599788 0 0)
(0.230796372 0 0)
(0.273252523 0 0)
(0.218492051 0 0)
(0.294997237 0 0)
(0.220553443 0 0)
(0.217671156 0 0)
(0.0513051099 0 0)
(0.176756265 0 0)
(0.313135437 0 0)
(0.086849629 0 0)
(0.204622831 0 0)
(0.143152439 0 0)
(0.242918353 0 0)
(0.422005035 0 0)
(0.680285859 0 0)
(0.966816432 0 0)
(1.23810541 0 0)
(1.45691078 0 0)
(1.62185051 0 0)
(1.74628135 0 0)
(1.82467318 0 0)
(1.85670376 0 0)
(1.85448821 0 0)
(1.82928307 0 0)
(1.78514492 0 0)
(1.73077896 0 0)
(1.66923159 0 0)
(1.60689803 0 0)
(1.54716387 0 0)
(1.49376768 0 0)
(1.44738769 0 0)
(1.40864146 0 0)
(1.37723362 0 0)
(1.35286824 0 0)
(1.3348808 0 0)
(1.32227705 0 0)
(1.31420853 0 0)
(1.30989452 0 0)
(1.30892953 0 0)
(1.31066266 0 0)
(1.31447639 0 0)
(1.31957898 0 0)
(1.32592899 0 0)
(1.33318694 0 0)
(1.3410175 0 0)
(1.34901197 0 0)
(1.35657235 0 0)
(1.36341755 0 0)
(1.36994901 0 0)
(1.37672052 0 0)
(1.38380768 0 0)
(1.39096315 0 0)
(1.3981505 0 0)
(1.40576998 0 0)
(1.41395248 0 0)
(1.42157923 0 0)
(1.42768836 0 0)
(1.43282218 0 0)
(1.43765478 0 0)
(1.44234675 0 0)
(1.44685293 0 0)
(1.45125519 0 0)
(1.45572877 0 0)
(1.46032411 0 0)
(1.46494581 0 0)
(1.46950604 0 0)
(1.47385767 0 0)
(1.47798314 0 0)
(1.48213369 0 0)
(1.48658114 0 0)
(1.49126623 0 0)
(1.49594545 0 0)
(1.50049694 0 0)
(1.5049353 0 0)
(1.50926604 0 0)
(1.51340787 0 0)
(1.51732219 0 0)
(1.52111783 0 0)
(1.52488518 0 0)
(1.52863208 0 0)
(1.53232633 0 0)
(1.53595411 0 0)
(1.53954848 0 0)
(1.54314191 0 0)
(1.54673903 0 0)
(1.55034659 0 0)
(1.55397414 0 0)
(1.55758099 0 0)
(1.56111317 0 0)
(1.56458581 0 0)
(1.56802506 0 0)
(1.57143758 0 0)
(1.57482407 0 0)
(1.57818687 0 0)
(1.5815218 0 0)
(1.58481197 0 0)
(1.58804625 0 0)
(1.59123873 0 0)
(1.59440258 0 0)
(1.5975419 0 0)
(1.60065708 0 0)
(1.60375038 0 0)
(1.60682369 0 0)
(1.60988168 0 0)
(1.61292188 0 0)
(1.61591571 0 0)
(1.61883482 0 0)
)
;

boundaryField
{
    closed
    {
        type            noSlip;
    }
    open
    {
        type            inletOutlet;
        inletValue      nonuniform List<vector> 0();
        value           nonuniform List<vector> 0();
    }
    sides
    {
        type            empty;
    }
    procBoundary4to3
    {
        type            processor;
        value           uniform (0.182972829 0 0);
    }
    procBoundary4to5
    {
        type            processor;
        value           uniform (1.62170116 0 0);
    }
}


// ************************************************************************* //
