/*--------------------------------*- C++ -*----------------------------------*\
| =========                 |                                                 |
| \\      /  F ield         | OpenFOAM: The Open Source CFD Toolbox           |
|  \\    /   O peration     | Version:  2306                                  |
|   \\  /    A nd           | Website:  www.openfoam.com                      |
|    \\/     M anipulation  |                                                 |
\*---------------------------------------------------------------------------*/
FoamFile
{
    version     2.0;
    format      ascii;
    arch        "LSB;label=32;scalar=64";
    class       volScalarField;
    location    "0.00156";
    object      prefDPV_T;
}
// * * * * * * * * * * * * * * * * * * * * * * * * * * * * * * * * * * * * * //

dimensions      [1 -1 -1 -1 0 0 0];

internalField   nonuniform List<scalar> 
531
(
6.08517154e-10
6.08471283e-10
5.89892453e-10
5.90120983e-10
6.09826213e-10
6.0831062e-10
6.10079231e-10
5.90695843e-10
5.88831316e-10
5.8958414e-10
6.08645687e-10
6.08841677e-10
5.92791151e-10
5.89239994e-10
5.90582315e-10
6.09050187e-10
5.91969276e-10
5.8911403e-10
6.08022654e-10
6.08802273e-10
6.07983488e-10
6.08659278e-10
5.91789048e-10
5.89906428e-10
5.90250249e-10
5.8983106e-10
5.89630298e-10
5.89612332e-10
6.08536158e-10
6.0850047e-10
5.90893578e-10
5.91006151e-10
6.08850516e-10
6.08106761e-10
6.09149531e-10
5.91133675e-10
5.89343581e-10
5.89836122e-10
5.8981305e-10
6.08654903e-10
6.08883151e-10
5.8965183e-10
5.89747367e-10
6.08685409e-10
6.08936264e-10
5.89373708e-10
5.8952132e-10
6.08770444e-10
6.09167034e-10
5.8904231e-10
5.8936664e-10
6.08869667e-10
6.10228716e-10
6.08880876e-10
6.10925244e-10
5.89437877e-10
5.89744156e-10
6.08742637e-10
6.09067896e-10
5.89270767e-10
5.90627509e-10
6.08892451e-10
5.90266427e-10
5.89653876e-10
6.08639793e-10
6.08327777e-10
6.09043513e-10
5.91159908e-10
5.89426648e-10
5.89794987e-10
5.89598594e-10
6.08473786e-10
6.09461467e-10
5.89833142e-10
5.8861247e-10
5.8907923e-10
6.0915735e-10
6.09484937e-10
5.89406995e-10
5.89377889e-10
6.08979916e-10
6.09607143e-10
5.88957163e-10
5.8959526e-10
6.09170517e-10
6.08831127e-10
6.09453361e-10
5.89329379e-10
5.89260566e-10
6.08464919e-10
6.09073668e-10
6.08195566e-10
6.09289581e-10
5.90883803e-10
5.89752653e-10
5.89795082e-10
5.89898686e-10
6.08205811e-10
6.09338951e-10
5.90252523e-10
5.89019989e-10
5.90663171e-10
6.09204859e-10
5.93100741e-10
5.89912601e-10
6.07880463e-10
6.09381185e-10
5.90183242e-10
5.90791042e-10
6.08192218e-10
6.08628746e-10
5.98610507e-10
5.90290475e-10
5.89999774e-10
5.89474048e-10
5.89902644e-10
6.08708113e-10
6.09191934e-10
5.8948113e-10
5.91213594e-10
6.0899807e-10
5.9045365e-10
5.90360257e-10
6.08505195e-10
6.08447648e-10
6.09214005e-10
5.90233394e-10
5.89927857e-10
6.08882867e-10
6.08868481e-10
6.0291643e-10
5.88957673e-10
5.89553812e-10
6.08214068e-10
6.09068345e-10
5.91754571e-10
5.90108435e-10
5.89849438e-10
5.90669251e-10
6.08918347e-10
5.92428308e-10
5.89719077e-10
6.07526076e-10
6.09196281e-10
5.92172665e-10
5.89354931e-10
5.93748189e-10
6.09190821e-10
5.90297232e-10
5.90195399e-10
6.08464602e-10
6.08524535e-10
6.09481998e-10
5.89758693e-10
5.89771488e-10
6.0833026e-10
6.08841278e-10
6.081605e-10
6.09362455e-10
5.91043666e-10
5.90099479e-10
5.90138895e-10
5.89853819e-10
5.88916399e-10
5.90414927e-10
6.09602182e-10
5.90618821e-10
5.8965339e-10
6.08098649e-10
6.09955771e-10
5.89944959e-10
5.90487144e-10
6.07859885e-10
6.09282867e-10
5.91861251e-10
5.89900194e-10
5.93182623e-10
6.08364962e-10
6.07750753e-10
6.0930862e-10
5.90632575e-10
5.8948136e-10
5.90556081e-10
6.08517631e-10
6.09244976e-10
5.89894856e-10
5.88948051e-10
5.90475848e-10
6.08344572e-10
6.07873315e-10
6.09272138e-10
5.91261118e-10
5.89868545e-10
5.90178309e-10
5.89827328e-10
5.90370018e-10
6.08367237e-10
6.09025821e-10
5.90827159e-10
5.90735168e-10
6.08187279e-10
6.09630028e-10
5.90003967e-10
5.90557607e-10
6.08431542e-10
6.09830044e-10
5.89417271e-10
5.90440514e-10
6.08638017e-10
6.08371818e-10
6.08875946e-10
5.98692751e-10
5.89783202e-10
5.90283061e-10
5.90075801e-10
5.92304249e-10
5.96902823e-10
5.90216563e-10
5.90794704e-10
6.07892643e-10
6.0888013e-10
5.94856592e-10
5.89913108e-10
5.92811213e-10
6.08600904e-10
6.0824729e-10
6.10078612e-10
5.88831924e-10
5.89182494e-10
6.08514221e-10
6.09981833e-10
5.89920311e-10
5.88468767e-10
5.89990081e-10
6.09020455e-10
6.09871457e-10
5.89849622e-10
5.90249506e-10
6.08206334e-10
6.09345431e-10
5.91863396e-10
5.89399254e-10
5.90400879e-10
6.08377831e-10
6.09364864e-10
5.90999607e-10
5.88824137e-10
5.90161569e-10
6.09000444e-10
6.09412949e-10
5.89493783e-10
5.90805512e-10
6.09276622e-10
5.91467364e-10
5.89400314e-10
6.08106758e-10
6.09813003e-10
5.8955855e-10
5.90030672e-10
6.08328345e-10
6.09526025e-10
5.89917857e-10
5.90717217e-10
6.07956134e-10
6.08820179e-10
5.91819817e-10
5.90459892e-10
5.89849905e-10
5.90802987e-10
6.08708347e-10
6.08299219e-10
6.09046194e-10
5.90551678e-10
5.90168815e-10
6.08566783e-10
6.09678806e-10
5.89209011e-10
5.89593192e-10
6.08886023e-10
6.09883773e-10
5.88929029e-10
5.89442418e-10
6.08998543e-10
6.09786079e-10
5.88865892e-10
5.9004218e-10
6.09290483e-10
6.08667414e-10
6.09631523e-10
5.90112905e-10
5.88935926e-10
5.88947649e-10
5.90013568e-10
6.09414722e-10
6.08549264e-10
6.09835866e-10
5.90300735e-10
5.88288103e-10
5.90409743e-10
6.08860245e-10
6.08285986e-10
6.09221547e-10
5.90526332e-10
5.91117078e-10
6.08701063e-10
5.93450125e-10
5.89561162e-10
6.07915292e-10
6.09387947e-10
5.89721147e-10
5.90369752e-10
6.07883397e-10
6.08871832e-10
5.91708831e-10
5.90416947e-10
5.89574209e-10
5.90399708e-10
6.0834228e-10
6.09168844e-10
5.9852368e-10
5.88763434e-10
5.9032445e-10
6.09645975e-10
5.8989683e-10
5.8902595e-10
6.08535051e-10
6.09582332e-10
6.08656233e-10
6.09916497e-10
5.89586641e-10
5.88544139e-10
5.89670605e-10
6.08794079e-10
6.09280584e-10
5.91067194e-10
5.89172465e-10
5.90319844e-10
6.08477767e-10
6.09293566e-10
5.91082641e-10
5.88473678e-10
5.90199681e-10
6.09001014e-10
6.08412425e-10
6.09338981e-10
5.90111439e-10
5.89728325e-10
6.08099795e-10
6.09593505e-10
5.91024816e-10
5.88415742e-10
5.89892722e-10
6.09190956e-10
6.08683939e-10
6.09537156e-10
5.89005825e-10
5.89079788e-10
6.08343798e-10
6.09446693e-10
5.90860622e-10
5.89333652e-10
5.90180006e-10
6.08499421e-10
6.08874357e-10
5.91143009e-10
5.89167728e-10
5.90067029e-10
6.08356562e-10
6.090785e-10
5.9066385e-10
5.88707814e-10
5.89796441e-10
6.0879122e-10
6.08968715e-10
5.89777723e-10
5.89759298e-10
6.08296804e-10
6.08805368e-10
5.90728506e-10
5.89858022e-10
5.89634763e-10
5.90123495e-10
6.08943239e-10
6.08463157e-10
6.09345069e-10
6.08478149e-10
6.09789052e-10
5.89900702e-10
5.88065251e-10
5.89461014e-10
6.09146579e-10
6.09321106e-10
5.8952717e-10
5.89717504e-10
6.08584783e-10
6.09168653e-10
5.8979276e-10
5.9000577e-10
6.08078135e-10
6.09180516e-10
5.9090327e-10
5.89123911e-10
5.90196798e-10
6.0871999e-10
6.09001162e-10
5.89968597e-10
5.90180348e-10
6.08050954e-10
6.09157702e-10
5.92529726e-10
5.89160159e-10
5.90155835e-10
6.09027501e-10
6.05732493e-10
5.89443441e-10
6.0884949e-10
6.09142084e-10
5.90967795e-10
5.8938941e-10
5.90369369e-10
6.08346544e-10
6.08875927e-10
5.91686814e-10
5.89276253e-10
5.90024498e-10
6.08601461e-10
6.09281154e-10
5.90217501e-10
5.8781301e-10
5.89766722e-10
6.09424814e-10
6.0874403e-10
6.09681338e-10
5.89268888e-10
5.89838942e-10
6.09137895e-10
6.08225593e-10
6.09646922e-10
5.91487677e-10
5.87629585e-10
5.89946231e-10
6.09075709e-10
6.08291211e-10
6.09145756e-10
5.90434703e-10
5.9025086e-10
6.0792569e-10
6.08844057e-10
5.91305971e-10
5.90260405e-10
5.89837475e-10
5.90249725e-10
6.0834534e-10
6.09169435e-10
5.90054449e-10
5.90480065e-10
6.08237034e-10
6.0890267e-10
5.90449815e-10
5.90070408e-10
5.89491757e-10
5.89980846e-10
6.08768436e-10
6.09626051e-10
5.89087338e-10
5.89649098e-10
6.0890388e-10
6.09640099e-10
5.88674203e-10
5.90080299e-10
6.09139123e-10
6.08692367e-10
6.09684799e-10
5.89439295e-10
5.89474023e-10
6.08591975e-10
6.09772108e-10
5.89517874e-10
5.89902363e-10
6.08271254e-10
6.09428646e-10
5.90435968e-10
5.89437133e-10
5.90982753e-10
6.08863608e-10
6.08780464e-10
6.08727928e-10
6.0971148e-10
5.89997579e-10
5.88157881e-10
5.908228e-10
6.10154406e-10
5.89866143e-10
5.90108607e-10
6.08929761e-10
6.08376765e-10
6.09508308e-10
5.90800475e-10
5.89359274e-10
5.90170266e-10
5.89258507e-10
5.90268093e-10
6.08855126e-10
6.09604596e-10
5.89732827e-10
5.90797744e-10
6.09102749e-10
6.08463815e-10
6.10114987e-10
5.89899867e-10
5.90063885e-10
6.0870535e-10
6.09861516e-10
5.89438274e-10
5.90953459e-10
6.09058915e-10
6.08056063e-10
6.09601009e-10
5.92084285e-10
5.89440138e-10
5.89710356e-10
5.90130752e-10
6.08865461e-10
6.1006231e-10
5.89026353e-10
5.87623906e-10
5.89663614e-10
6.09461779e-10
6.09030267e-10
6.10983479e-10
5.89169256e-10
)
;

boundaryField
{
    closed
    {
        type            calculated;
        value           nonuniform List<scalar> 0();
    }
    open
    {
        type            calculated;
        value           nonuniform List<scalar> 0();
    }
    sides
    {
        type            empty;
    }
    procBoundary1to0
    {
        type            processor;
        value           uniform 5.89766555e-10;
    }
    procBoundary1to2
    {
        type            processor;
        value           uniform 5.89938028e-10;
    }
}


// ************************************************************************* //
