/*--------------------------------*- C++ -*----------------------------------*\
| =========                 |                                                 |
| \\      /  F ield         | OpenFOAM: The Open Source CFD Toolbox           |
|  \\    /   O peration     | Version:  2306                                  |
|   \\  /    A nd           | Website:  www.openfoam.com                      |
|    \\/     M anipulation  |                                                 |
\*---------------------------------------------------------------------------*/
FoamFile
{
    version     2.0;
    format      ascii;
    arch        "LSB;label=32;scalar=64";
    class       volScalarField;
    location    "0.00166";
    object      prefDZ_H2;
}
// * * * * * * * * * * * * * * * * * * * * * * * * * * * * * * * * * * * * * //

dimensions      [1 -1 -1 0 0 0 0];

internalField   nonuniform List<scalar> 
531
(
6.16376112e-05
6.17840269e-05
6.35798567e-05
6.35858326e-05
6.22922939e-05
6.16241461e-05
6.17608614e-05
6.35817379e-05
6.35932685e-05
6.22906723e-05
6.15665283e-05
6.17124947e-05
6.35908447e-05
6.35830733e-05
6.22799009e-05
6.14521396e-05
6.15886578e-05
6.35524193e-05
6.36323067e-05
6.22266614e-05
6.19570682e-05
6.35505206e-05
6.36194266e-05
6.22437054e-05
6.21045581e-05
6.35622361e-05
6.35774268e-05
6.23016344e-05
6.16852914e-05
6.1850309e-05
6.35715518e-05
6.35527312e-05
6.23233202e-05
6.17437396e-05
6.17619082e-05
6.10510874e-05
6.11670055e-05
6.34494013e-05
6.35464825e-05
6.3467879e-05
6.35581778e-05
6.34891268e-05
6.35627687e-05
6.35385167e-05
6.20072213e-05
6.1000915e-05
6.11505821e-05
6.35036672e-05
6.35428464e-05
6.2293606e-05
6.08736931e-05
6.13881355e-05
6.3508415e-05
6.35639128e-05
6.35568647e-05
6.2201569e-05
6.17996411e-05
6.35193774e-05
6.35903718e-05
6.21735218e-05
6.20452057e-05
6.35204475e-05
6.35718994e-05
6.23090814e-05
6.19521069e-05
6.18547539e-05
6.17072092e-05
6.10193952e-05
6.11599654e-05
6.35000268e-05
6.35634136e-05
6.35483122e-05
6.35752868e-05
6.35709067e-05
6.23192495e-05
6.20282774e-05
6.3529291e-05
6.35544019e-05
6.22946703e-05
6.16132011e-05
6.16305261e-05
6.35439101e-05
6.35750667e-05
6.23044087e-05
6.15339676e-05
6.15486706e-05
6.35606639e-05
6.35698604e-05
6.22957572e-05
6.12384957e-05
6.15646932e-05
6.35433167e-05
6.3579842e-05
6.3572845e-05
6.23167545e-05
6.19019146e-05
6.35835006e-05
6.35733013e-05
6.23108747e-05
6.18566448e-05
6.16203288e-05
6.1623662e-05
6.35627401e-05
6.35696283e-05
6.20737745e-05
6.1894527e-05
6.36066076e-05
6.35463572e-05
6.23102462e-05
6.16765285e-05
6.17322633e-05
6.35829265e-05
6.3536912e-05
6.23105052e-05
6.1586561e-05
6.16820575e-05
6.35890467e-05
6.35240502e-05
6.23281869e-05
6.11826541e-05
6.14464481e-05
6.3572654e-05
6.35577323e-05
6.35739596e-05
6.35228421e-05
6.23123397e-05
6.13605815e-05
6.15448722e-05
6.35827737e-05
6.35460415e-05
6.20287023e-05
6.19099686e-05
6.36190009e-05
6.35212731e-05
6.23253356e-05
6.15371255e-05
6.1746562e-05
6.35810916e-05
6.352213e-05
6.23176715e-05
6.15699536e-05
6.17856255e-05
6.35925243e-05
6.35200725e-05
6.22997193e-05
6.14391909e-05
6.1675697e-05
6.36034288e-05
6.35956973e-05
6.35115818e-05
6.22936875e-05
6.15555799e-05
6.17126045e-05
6.3592937e-05
6.35839484e-05
6.21657649e-05
6.20216865e-05
6.36294898e-05
6.35587429e-05
6.23033059e-05
6.16426074e-05
6.17956395e-05
6.36094862e-05
6.35490944e-05
6.22908924e-05
6.16092265e-05
6.17283353e-05
6.35915073e-05
6.35939098e-05
6.23073445e-05
6.21382944e-05
6.36104909e-05
6.35749707e-05
6.23121824e-05
6.20794321e-05
6.17574605e-05
6.1781038e-05
6.35964772e-05
6.35468144e-05
6.23296349e-05
6.12161473e-05
6.14025109e-05
6.35487186e-05
6.35537723e-05
6.35556609e-05
6.20191814e-05
6.19879361e-05
6.35614559e-05
6.22181222e-05
6.14448186e-05
6.35355185e-05
6.35328252e-05
6.35352871e-05
6.24604088e-05
6.13120234e-05
6.15777695e-05
6.35528824e-05
6.22265401e-05
6.17113628e-05
6.35388766e-05
6.35666708e-05
6.35706308e-05
6.23111379e-05
6.14864439e-05
6.15055641e-05
6.35524122e-05
6.35516886e-05
6.23089722e-05
6.15102232e-05
6.15256715e-05
6.35305472e-05
6.35502629e-05
6.24419931e-05
6.16171928e-05
6.16955228e-05
6.35615727e-05
6.23415698e-05
6.18384733e-05
6.35186889e-05
6.35709018e-05
6.35663298e-05
6.23125178e-05
6.15295263e-05
6.1532803e-05
6.35229993e-05
6.35437631e-05
6.23205558e-05
6.13955389e-05
6.1400038e-05
6.35056483e-05
6.35293168e-05
6.23372902e-05
6.08386168e-05
6.09727519e-05
6.34691709e-05
6.3532226e-05
6.35148289e-05
6.3538997e-05
6.35429098e-05
6.35420395e-05
6.2325509e-05
6.16601811e-05
6.17463041e-05
6.10760807e-05
6.10992303e-05
6.34351788e-05
6.35673381e-05
6.17713175e-05
6.16782708e-05
6.34422371e-05
6.35642969e-05
6.35028247e-05
6.23193489e-05
6.1160328e-05
6.16716256e-05
6.34929816e-05
6.23358644e-05
6.14210271e-05
6.34926499e-05
6.35417531e-05
6.19624465e-05
6.1887185e-05
6.34845984e-05
6.35605603e-05
6.35288208e-05
6.23167474e-05
6.14186826e-05
6.15141999e-05
6.35077405e-05
6.3568921e-05
6.35455304e-05
6.23094114e-05
6.17608823e-05
6.18379176e-05
6.11829834e-05
6.1196589e-05
6.34854336e-05
6.35397363e-05
6.35284429e-05
6.35403766e-05
6.2368078e-05
6.16794126e-05
6.16816239e-05
6.35428071e-05
6.35743393e-05
6.23245396e-05
6.20109222e-05
6.16734694e-05
6.16777093e-05
6.35333492e-05
6.3584029e-05
6.2164475e-05
6.1840345e-05
6.35635302e-05
6.35563064e-05
6.23014396e-05
6.156065e-05
6.15689397e-05
6.35329534e-05
6.35732402e-05
6.23005354e-05
6.1846255e-05
6.35597918e-05
6.35390786e-05
6.2311682e-05
6.13302297e-05
6.13531326e-05
6.35144324e-05
6.3573203e-05
6.18030388e-05
6.16556504e-05
6.35316705e-05
6.35605832e-05
6.35447083e-05
6.19804913e-05
6.15921011e-05
6.35399017e-05
6.35741968e-05
6.352047e-05
6.22563266e-05
6.0982331e-05
6.10520441e-05
6.34923382e-05
6.35747307e-05
6.20504272e-05
6.16825176e-05
6.35017005e-05
6.35682106e-05
6.21837476e-05
6.19296923e-05
6.35204175e-05
6.3557343e-05
6.23749826e-05
6.19547207e-05
6.15496202e-05
6.15603022e-05
6.34955927e-05
6.35573579e-05
6.19520915e-05
6.16838144e-05
6.34952347e-05
6.3561651e-05
6.18295928e-05
6.16756387e-05
6.34945377e-05
6.35502782e-05
6.34937955e-05
6.35520363e-05
6.23486046e-05
6.18847108e-05
6.15455623e-05
6.15487887e-05
6.35397708e-05
6.35081939e-05
6.23120352e-05
6.10218481e-05
6.10830445e-05
6.34747196e-05
6.35514506e-05
6.18896851e-05
6.1500769e-05
6.34797171e-05
6.35542404e-05
6.16862604e-05
6.16214861e-05
6.35078617e-05
6.35425272e-05
6.35114151e-05
6.21455439e-05
6.15492339e-05
6.35348004e-05
6.35394725e-05
6.20627024e-05
6.16684834e-05
6.35519259e-05
6.35176708e-05
6.23331929e-05
6.13858844e-05
6.14212168e-05
6.35069476e-05
6.35598759e-05
6.23015263e-05
6.18014417e-05
6.35429774e-05
6.35298852e-05
6.23260988e-05
6.14588099e-05
6.14839685e-05
6.35175356e-05
6.35648955e-05
6.22936762e-05
6.17615986e-05
6.35480297e-05
6.35294616e-05
6.23156854e-05
6.13535693e-05
6.13853331e-05
6.34941998e-05
6.35877667e-05
6.21788367e-05
6.17451304e-05
6.34919788e-05
6.35883118e-05
6.21350704e-05
6.18182777e-05
6.35023927e-05
6.35753253e-05
6.22251815e-05
6.18082173e-05
6.35324917e-05
6.35292761e-05
6.23155286e-05
6.138965e-05
6.14162821e-05
6.34806536e-05
6.3586244e-05
6.21397561e-05
6.16937664e-05
6.34780696e-05
6.35930946e-05
6.19350702e-05
6.17582941e-05
6.35056574e-05
6.3583296e-05
6.35405536e-05
6.22501754e-05
6.16875306e-05
6.35499488e-05
6.35363997e-05
6.23022569e-05
6.14684612e-05
6.14908027e-05
6.34887453e-05
6.35931045e-05
6.23961268e-05
6.20368214e-05
6.35020365e-05
6.358818e-05
6.23482986e-05
6.2212177e-05
6.18220177e-05
6.18260407e-05
6.35202939e-05
6.35776495e-05
6.23255959e-05
6.20764199e-05
6.16930773e-05
6.16951959e-05
6.35178548e-05
6.23199071e-05
6.15082512e-05
6.350162e-05
6.35610839e-05
6.23279776e-05
6.17685512e-05
6.35102965e-05
6.3536307e-05
6.23133826e-05
6.13384481e-05
6.13588082e-05
6.34345582e-05
6.356486e-05
6.34682313e-05
6.35744994e-05
6.25005897e-05
6.21119656e-05
6.16232806e-05
6.16314855e-05
6.34831057e-05
6.35444512e-05
6.23295443e-05
6.14482005e-05
6.164551e-05
6.34859274e-05
6.23442472e-05
6.14661548e-05
6.34313995e-05
6.3519407e-05
6.19374313e-05
6.15567399e-05
6.33897677e-05
6.35223247e-05
6.34630003e-05
6.35332581e-05
6.21661151e-05
6.13377809e-05
6.34470444e-05
6.35091578e-05
6.23457184e-05
6.11650315e-05
6.11970984e-05
6.34656106e-05
6.35457055e-05
6.35436396e-05
6.23432178e-05
6.1579517e-05
6.11128705e-05
6.11154936e-05
6.3438568e-05
6.35420714e-05
6.35331752e-05
6.23374214e-05
6.1757883e-05
6.34629078e-05
6.35719557e-05
6.23711811e-05
6.20928519e-05
6.34756118e-05
6.35803091e-05
6.23587604e-05
6.22327579e-05
6.17768652e-05
6.17795259e-05
6.34802638e-05
6.35626618e-05
6.23083774e-05
6.16399048e-05
6.16468773e-05
6.34592733e-05
6.35618979e-05
6.23211871e-05
6.16236029e-05
6.16294657e-05
6.34547786e-05
6.35492982e-05
6.23193794e-05
6.1508539e-05
6.15175305e-05
6.34394213e-05
6.35661701e-05
6.35380255e-05
)
;

boundaryField
{
    closed
    {
        type            calculated;
        value           nonuniform List<scalar> 0();
    }
    open
    {
        type            calculated;
        value           nonuniform List<scalar> 0();
    }
    sides
    {
        type            empty;
    }
    procBoundary3to2
    {
        type            processor;
        value           uniform 6.22975963e-05;
    }
    procBoundary3to4
    {
        type            processor;
        value           uniform 6.23120266e-05;
    }
}


// ************************************************************************* //
