/*--------------------------------*- C++ -*----------------------------------*\
| =========                 |                                                 |
| \\      /  F ield         | OpenFOAM: The Open Source CFD Toolbox           |
|  \\    /   O peration     | Version:  2306                                  |
|   \\  /    A nd           | Website:  www.openfoam.com                      |
|    \\/     M anipulation  |                                                 |
\*---------------------------------------------------------------------------*/
FoamFile
{
    version     2.0;
    format      ascii;
    arch        "LSB;label=32;scalar=64";
    class       volScalarField;
    location    "0.00166";
    object      Z;
}
// * * * * * * * * * * * * * * * * * * * * * * * * * * * * * * * * * * * * * //

dimensions      [0 0 0 0 0 0 0];

internalField   nonuniform List<scalar> 
531
(
0.0148105109
0.0147859213
0.0140810606
0.0140738061
0.0145766972
0.0148124458
0.0147887625
0.0140804994
0.0140735407
0.0146016357
0.01482075
0.0147969527
0.0140794766
0.0140763092
0.0146291054
0.0148412373
0.0148131058
0.0140867964
0.0140681501
0.01471462
0.0147543336
0.0140902208
0.0140664186
0.0147112691
0.0147342829
0.0140858597
0.0140730936
0.0146035292
0.0148044208
0.014777605
0.0140806952
0.0140769114
0.0145098964
0.0147993728
0.0147902444
0.0149085492
0.0148852366
0.0141153775
0.0140848751
0.0141075386
0.0140824462
0.0140997631
0.0140782195
0.0140844151
0.0147503508
0.014915048
0.0148883069
0.014095538
0.0140884479
0.0147033032
0.0149331269
0.0148504127
0.0141040502
0.0140752888
0.0140855545
0.0147160762
0.0147853436
0.0140967523
0.014072029
0.014720845
0.0147452823
0.0140930419
0.0140724834
0.0145977617
0.0147624306
0.0147781908
0.0148009903
0.01490906
0.014886319
0.0141066609
0.0140791033
0.0140893578
0.0140726753
0.0140757207
0.0146932149
0.0147517982
0.0140912182
0.014077497
0.0146309806
0.0148168575
0.0148113755
0.0140847794
0.0140767499
0.0146299066
0.0148274025
0.0148248837
0.014082575
0.0140789622
0.0146416402
0.0148751745
0.0148202661
0.0140937302
0.014070568
0.0140793993
0.0146861198
0.0147695617
0.0140795354
0.0140734506
0.0146568675
0.0147772805
0.0148138131
0.0148125166
0.0140867054
0.0140760153
0.0147400321
0.0147712833
0.0140746367
0.014078919
0.0146329523
0.0148074204
0.0147953092
0.0140752913
0.0140824628
0.0146082685
0.0148212539
0.014802505
0.0140763994
0.0140887448
0.0146814764
0.0148850362
0.0148377348
0.01408674
0.0140818669
0.0140771984
0.0140887571
0.0146562952
0.0148566589
0.0148200918
0.0140795691
0.0140851438
0.014749585
0.0147645252
0.0140744609
0.014087752
0.0146839614
0.0148301978
0.0147896942
0.0140786359
0.0140876827
0.0146294088
0.0148243151
0.0147845227
0.0140775395
0.014088196
0.0146236338
0.0148450568
0.0147994975
0.0140758347
0.0140675143
0.0140880667
0.0146462764
0.0148278102
0.0147922318
0.0140768364
0.0140759504
0.0147273471
0.0147468286
0.0140710262
0.0140781375
0.0146315691
0.01481155
0.0147832985
0.0140748302
0.0140806235
0.0145878415
0.0148179698
0.014791491
0.0140762431
0.0140717802
0.0147028365
0.0147288036
0.0140729017
0.0140704968
0.0145976796
0.0147410292
0.0147931212
0.014788743
0.0140793424
0.0140832054
0.0146804937
0.0148802786
0.0148473774
0.014091517
0.0140777497
0.0140816569
0.0147501011
0.0147570045
0.014093504
0.014717531
0.0148436647
0.0140989077
0.014080215
0.0140890062
0.0143989497
0.0148640039
0.0148226204
0.0140908935
0.0147155856
0.0148002699
0.0140971109
0.0140705166
0.0140794922
0.0145941365
0.0148371455
0.0148320571
0.014084852
0.0140813418
0.0146087154
0.0148343421
0.0148293207
0.0140902775
0.0140796981
0.0144087673
0.0148139204
0.0148040716
0.0140882213
0.0146895147
0.0147789966
0.0141008063
0.0140690052
0.0140781373
0.0145882326
0.0148314246
0.0148285691
0.0140915326
0.0140832756
0.0146313675
0.0148532837
0.014850209
0.0140971135
0.0140897974
0.0146830175
0.0149397811
0.0149155838
0.0141120944
0.0140878748
0.0140935827
0.014084631
0.0140788408
0.0140797154
0.0145399679
0.0148132432
0.0147935009
0.0149042629
0.0148943238
0.0141174209
0.0140819781
0.0147961911
0.0148042939
0.0141202499
0.0140710897
0.0140922004
0.0145576301
0.0148925579
0.0148069532
0.0141046999
0.0146717223
0.0148500235
0.014104667
0.0140814942
0.0147624305
0.0147735466
0.0141094322
0.0140700603
0.0140851672
0.0145572537
0.014850857
0.0148303875
0.0140971598
0.01407122
0.0140765042
0.0146038348
0.0147972118
0.0147787921
0.0148870677
0.0148806334
0.0141096266
0.0140842906
0.0140871499
0.0140819188
0.0144698345
0.0148069976
0.0148039633
0.014088076
0.0140729487
0.0145465778
0.0147496973
0.0148077132
0.0148021958
0.0140959271
0.0140735124
0.0147259491
0.0147788063
0.0140880315
0.0140782738
0.0146317922
0.0148271218
0.0148198326
0.0140906801
0.0140755556
0.0147051536
0.0147798723
0.0140871969
0.014081966
0.0146489286
0.0148648822
0.0148541102
0.0140973097
0.01407789
0.0147888592
0.0148073251
0.0141049779
0.0140754922
0.0140877357
0.0147561396
0.0148186841
0.014102326
0.0140720875
0.0140901968
0.0147071554
0.0149193934
0.0148997278
0.0141020988
0.0140799144
0.0147540859
0.0148035243
0.0141002373
0.0140750297
0.0147322394
0.0147658113
0.0140937044
0.0140746702
0.0146530292
0.0147637441
0.0148332906
0.0148246623
0.0141029013
0.0140787345
0.0147706578
0.0148042288
0.0141045299
0.0140773838
0.0147902421
0.0148057508
0.0141092238
0.0140790077
0.0140922241
0.014077916
0.0145711597
0.0147752693
0.0148313544
0.0148286062
0.0140978314
0.014090285
0.0147036904
0.0149156583
0.014897743
0.0141068811
0.0140838228
0.0147830836
0.0148335394
0.0141105211
0.0140800473
0.0148136567
0.014814571
0.0141111512
0.0140771164
0.0140903667
0.0147343149
0.0148289495
0.0140994918
0.0140819139
0.0147490062
0.0148103033
0.0140949277
0.0140859355
0.0146560857
0.0148593013
0.0148451477
0.0140992924
0.0140789685
0.0147125601
0.0147878613
0.0140947399
0.0140826196
0.0146285875
0.0148467198
0.014835103
0.0140985855
0.0140782044
0.0147119006
0.0147937129
0.0140954762
0.0140837783
0.0146411403
0.0148636443
0.0148484371
0.0141042329
0.0140757824
0.0147342017
0.0147914487
0.0141077497
0.0140730207
0.0147403272
0.0147806496
0.0141060053
0.0140744962
0.0147233859
0.0147857311
0.0140997112
0.014083291
0.0146263448
0.0148585877
0.0148439949
0.0141077698
0.0140761278
0.0147409928
0.0147993012
0.0141132017
0.0140731835
0.0147717136
0.0147886111
0.0141131161
0.0140704614
0.014081594
0.0147121776
0.0148051242
0.0140992005
0.0140829936
0.0146254542
0.0148455831
0.0148312796
0.0141044909
0.0140724648
0.0146809947
0.0147448691
0.0141026771
0.0140678386
0.0145311609
0.0147164722
0.014787865
0.0147798224
0.0141002272
0.0140718332
0.0145858404
0.0147413214
0.0148058658
0.0148034296
0.0141029065
0.0146018888
0.0148338525
0.0141067591
0.0140788368
0.014703676
0.0147921354
0.0141044128
0.0140829236
0.0146162988
0.014865616
0.0148540918
0.014119982
0.0140782599
0.0140968585
0.0140733156
0.014380132
0.0147316112
0.014820497
0.014811992
0.0141080051
0.0140817356
0.0145767011
0.0148462949
0.0148135141
0.014106025
0.0146285431
0.0148438478
0.0141198512
0.0140855453
0.0147736625
0.0148280376
0.0141357313
0.0140869446
0.0141023521
0.0140865865
0.0147306587
0.0148621584
0.0141190122
0.0140911416
0.0146538673
0.0148925587
0.0148828131
0.0141107951
0.0140776501
0.014078099
0.0146843393
0.0148245028
0.0148961757
0.0148949543
0.0141279838
0.0140784957
0.0140886104
0.0146362053
0.0147932559
0.014111952
0.0140735026
0.0146883141
0.0147377531
0.0141085876
0.0140682909
0.0144862753
0.014712506
0.0147928097
0.0147870825
0.0141093461
0.0140770452
0.0145801297
0.0148152249
0.0148077904
0.0141115696
0.01407806
0.0145595915
0.0148175945
0.0148119771
0.0141126288
0.0140808105
0.0145716828
0.0148366526
0.0148296219
0.0141154299
0.0140720847
0.014076072
)
;

boundaryField
{
    closed
    {
        type            zeroGradient;
    }
    open
    {
        type            zeroGradient;
    }
    sides
    {
        type            empty;
    }
    procBoundary3to2
    {
        type            processor;
        value           uniform 0.0145710345;
    }
    procBoundary3to4
    {
        type            processor;
        value           uniform 0.0146037299;
    }
}


// ************************************************************************* //
