/*--------------------------------*- C++ -*----------------------------------*\
| =========                 |                                                 |
| \\      /  F ield         | OpenFOAM: The Open Source CFD Toolbox           |
|  \\    /   O peration     | Version:  2306                                  |
|   \\  /    A nd           | Website:  www.openfoam.com                      |
|    \\/     M anipulation  |                                                 |
\*---------------------------------------------------------------------------*/
FoamFile
{
    version     2.0;
    format      ascii;
    arch        "LSB;label=32;scalar=64";
    class       volScalarField;
    location    "0.00018";
    object      prefDPV_H2;
}
// * * * * * * * * * * * * * * * * * * * * * * * * * * * * * * * * * * * * * //

dimensions      [1 -1 -1 0 0 0 0];

internalField   nonuniform List<scalar> 
530
(
-3.10096336e-05
-3.09355118e-05
-3.09188458e-05
-3.09188124e-05
-3.0918807e-05
-3.0918807e-05
-3.0918807e-05
-3.0918807e-05
-3.0918807e-05
-3.0918807e-05
-3.0918807e-05
-3.0918807e-05
-3.0918807e-05
-3.0918807e-05
-3.0918807e-05
-3.0918807e-05
-3.0918807e-05
-3.0918807e-05
-3.0918807e-05
-3.0918807e-05
-3.0918807e-05
-3.0918807e-05
-3.0918807e-05
-3.0918807e-05
-3.0918807e-05
-3.0918807e-05
-3.0918807e-05
-3.0918807e-05
-3.0918807e-05
-3.0918807e-05
-3.0918807e-05
-3.0918807e-05
-3.0918807e-05
-3.0918807e-05
-3.0918807e-05
-3.0918807e-05
-3.0918807e-05
-3.0918807e-05
-3.0918807e-05
-3.0918807e-05
-3.0918807e-05
-3.0918807e-05
-3.0918807e-05
-3.0918807e-05
-3.0918807e-05
-3.0918807e-05
-3.0918807e-05
-3.0918807e-05
-3.0918807e-05
-3.0918807e-05
-3.0918807e-05
-3.0918807e-05
-3.0918807e-05
-3.0918807e-05
-3.0918807e-05
-3.0918807e-05
-3.0918807e-05
-3.0918807e-05
-3.0918807e-05
-3.0918807e-05
-3.0918807e-05
-3.0918807e-05
-3.0918807e-05
-3.0918807e-05
-3.0918807e-05
-3.0918807e-05
-3.0918807e-05
-3.0918807e-05
-3.0918807e-05
-3.0918807e-05
-3.0918807e-05
-3.0918807e-05
-3.0918807e-05
-3.0918807e-05
-3.0918807e-05
-3.0918807e-05
-3.0918807e-05
-3.0918807e-05
-3.0918807e-05
-3.0918807e-05
-3.0918807e-05
-3.0918807e-05
-3.0918807e-05
-3.0918807e-05
-3.0918807e-05
-3.0918807e-05
-3.0918807e-05
-3.0918807e-05
-3.0918807e-05
-3.0918807e-05
-3.0918807e-05
-3.0918807e-05
-3.0918807e-05
-3.0918807e-05
-3.0918807e-05
-3.0918807e-05
-3.0918807e-05
-3.0918807e-05
-3.09188069e-05
-3.09188068e-05
-3.09188073e-05
-3.09188074e-05
-3.09188063e-05
-3.0918806e-05
-3.09188078e-05
-3.09188083e-05
-3.09188065e-05
-3.09188058e-05
-3.09188071e-05
-3.09188078e-05
-3.0918807e-05
-3.09188066e-05
-3.09188069e-05
-3.09188072e-05
-3.09188071e-05
-3.09188068e-05
-3.09188068e-05
-3.09188072e-05
-3.09188075e-05
-3.09188069e-05
-3.0918806e-05
-3.09188067e-05
-3.09188085e-05
-3.09188078e-05
-3.0918805e-05
-3.09188053e-05
-3.09188093e-05
-3.09188093e-05
-3.0918805e-05
-3.09188041e-05
-3.09188079e-05
-3.09188102e-05
-3.09188076e-05
-3.09188039e-05
-3.09188047e-05
-3.09188097e-05
-3.091881e-05
-3.09188055e-05
-3.09188036e-05
-3.09188071e-05
-3.09188106e-05
-3.09188083e-05
-3.09188031e-05
-3.09188041e-05
-3.09188108e-05
-3.09188107e-05
-3.0918804e-05
-3.09188028e-05
-3.09188086e-05
-3.09188113e-05
-3.09188068e-05
-3.0918803e-05
-3.09188059e-05
-3.09188104e-05
-3.09188089e-05
-3.09188044e-05
-3.09188049e-05
-3.09188087e-05
-3.09188086e-05
-3.09188063e-05
-3.09188061e-05
-3.09188071e-05
-3.09188072e-05
-3.09188068e-05
-3.09188073e-05
-3.09188077e-05
-3.09188064e-05
-3.09188057e-05
-3.09188074e-05
-3.09188086e-05
-3.09188069e-05
-3.09188053e-05
-3.09188069e-05
-3.09188084e-05
-3.09188069e-05
-3.09188056e-05
-3.09188073e-05
-3.09188086e-05
-3.09188065e-05
-3.09188049e-05
-3.09188072e-05
-3.09188093e-05
-3.09188075e-05
-3.09188048e-05
-3.09188057e-05
-3.09188087e-05
-3.09188086e-05
-3.09188064e-05
-3.09188057e-05
-3.09188064e-05
-3.09188078e-05
-3.0918808e-05
-3.09188067e-05
-3.09188059e-05
-3.09188069e-05
-3.0918808e-05
-3.09188072e-05
-3.0918806e-05
-3.09188068e-05
-3.09188081e-05
-3.0918807e-05
-3.09188058e-05
-3.0918807e-05
-3.09188082e-05
-3.09188068e-05
-3.09188056e-05
-3.09188074e-05
-3.09188086e-05
-3.09188064e-05
-3.0918805e-05
-3.09188076e-05
-3.09188094e-05
-3.09188067e-05
-3.09188042e-05
-3.09188067e-05
-3.09188101e-05
-3.09188082e-05
-3.09188036e-05
-3.09188045e-05
-3.09188103e-05
-3.09188102e-05
-3.09188043e-05
-3.09188033e-05
-3.09188086e-05
-3.09188109e-05
-3.09188066e-05
-3.0918803e-05
-3.09188062e-05
-3.09188108e-05
-3.09188087e-05
-3.09188035e-05
-3.09188045e-05
-3.091881e-05
-3.09188098e-05
-3.09188046e-05
-3.09188043e-05
-3.09188086e-05
-3.09188093e-05
-3.09188061e-05
-3.09188051e-05
-3.09188072e-05
-3.09188084e-05
-3.09188073e-05
-3.09188059e-05
-3.09188063e-05
-3.09188077e-05
-3.09188078e-05
-3.09188068e-05
-3.09188061e-05
-3.09188067e-05
-3.0918808e-05
-3.09188078e-05
-3.09188059e-05
-3.09188059e-05
-3.09188079e-05
-3.0918808e-05
-3.09188065e-05
-3.09188062e-05
-3.09188071e-05
-3.09188072e-05
-3.0918807e-05
-3.09188073e-05
-3.09188075e-05
-3.09188062e-05
-3.09188059e-05
-3.09188078e-05
-3.09188085e-05
-3.09188065e-05
-3.09188054e-05
-3.0918807e-05
-3.09188082e-05
-3.09188072e-05
-3.09188063e-05
-3.09188069e-05
-3.09188073e-05
-3.09188066e-05
-3.09188066e-05
-3.09188078e-05
-3.09188077e-05
-3.09188058e-05
-3.09188058e-05
-3.09188081e-05
-3.09188085e-05
-3.09188063e-05
-3.09188054e-05
-3.09188073e-05
-3.09188085e-05
-3.09188071e-05
-3.09188056e-05
-3.09188064e-05
-3.0918808e-05
-3.09188078e-05
-3.09188065e-05
-3.09188064e-05
-3.09188067e-05
-3.09188071e-05
-3.09188078e-05
-3.09188077e-05
-3.09188058e-05
-3.09188056e-05
-3.0918808e-05
-3.09188088e-05
-3.09188065e-05
-3.09188051e-05
-3.09188069e-05
-3.09188087e-05
-3.09188076e-05
-3.09188056e-05
-3.09188061e-05
-3.09188078e-05
-3.09188077e-05
-3.09188066e-05
-3.09188065e-05
-3.09188072e-05
-3.09188072e-05
-3.09188067e-05
-3.09188068e-05
-3.09188075e-05
-3.09188075e-05
-3.09188062e-05
-3.09188062e-05
-3.09188078e-05
-3.0918808e-05
-3.09188062e-05
-3.09188058e-05
-3.09188077e-05
-3.09188084e-05
-3.09188064e-05
-3.09188054e-05
-3.09188075e-05
-3.09188089e-05
-3.09188068e-05
-3.09188049e-05
-3.09188067e-05
-3.09188092e-05
-3.09188077e-05
-3.09188049e-05
-3.09188057e-05
-3.0918809e-05
-3.09188088e-05
-3.09188052e-05
-3.09188049e-05
-3.09188081e-05
-3.09188094e-05
-3.09188068e-05
-3.09188043e-05
-3.09188057e-05
-3.09188097e-05
-3.09188095e-05
-3.0918805e-05
-3.09188038e-05
-3.09188071e-05
-3.09188103e-05
-3.09188093e-05
-3.09188043e-05
-3.09188035e-05
-3.09188073e-05
-3.09188107e-05
-3.09188095e-05
-3.09188035e-05
-3.09188032e-05
-3.09188089e-05
-3.09188114e-05
-3.09188069e-05
-3.09188024e-05
-3.09188053e-05
-3.09188114e-05
-3.09188103e-05
-3.0918803e-05
-3.09188031e-05
-3.09188098e-05
-3.0918811e-05
-3.09188055e-05
-3.09188031e-05
-3.09188072e-05
-3.09188104e-05
-3.09188077e-05
-3.09188042e-05
-3.09188057e-05
-3.09188091e-05
-3.09188084e-05
-3.09188055e-05
-3.09188057e-05
-3.09188081e-05
-3.0918808e-05
-3.09188061e-05
-3.0918806e-05
-3.09188076e-05
-3.09188081e-05
-3.09188068e-05
-3.09188058e-05
-3.09188064e-05
-3.09188081e-05
-3.09188081e-05
-3.09188064e-05
-3.09188057e-05
-3.0918807e-05
-3.09188084e-05
-3.09188075e-05
-3.09188054e-05
-3.09188061e-05
-3.09188086e-05
-3.09188082e-05
-3.09188052e-05
-3.09188054e-05
-3.09188088e-05
-3.09188088e-05
-3.09188053e-05
-3.09188051e-05
-3.09188082e-05
-3.09188089e-05
-3.09188062e-05
-3.09188053e-05
-3.09188073e-05
-3.09188084e-05
-3.0918807e-05
-3.09188058e-05
-3.09188068e-05
-3.09188079e-05
-3.09188074e-05
-3.09188062e-05
-3.09188064e-05
-3.09188077e-05
-3.09188077e-05
-3.09188066e-05
-3.09188063e-05
-3.0918807e-05
-3.09188074e-05
-3.09188074e-05
-3.09188069e-05
-3.09188065e-05
-3.09188065e-05
-3.09188073e-05
-3.09188078e-05
-3.09188074e-05
-3.09188061e-05
-3.09188061e-05
-3.09188072e-05
-3.0918808e-05
-3.09188078e-05
-3.09188062e-05
-3.09188054e-05
-3.09188066e-05
-3.09188089e-05
-3.09188086e-05
-3.09188053e-05
-3.09188047e-05
-3.09188076e-05
-3.09188094e-05
-3.09188075e-05
-3.09188047e-05
-3.09188057e-05
-3.09188087e-05
-3.09188085e-05
-3.09188058e-05
-3.09188059e-05
-3.09188077e-05
-3.09188076e-05
-3.09188062e-05
-3.09188066e-05
-3.09188084e-05
-3.09188076e-05
-3.09188047e-05
-3.09188055e-05
-3.09188101e-05
-3.09188098e-05
-3.09188034e-05
-3.09188029e-05
-3.09188097e-05
-3.0918812e-05
-3.0918806e-05
-3.09188014e-05
-3.09188055e-05
-3.09188123e-05
-3.09188109e-05
-3.09188025e-05
-3.09188024e-05
-3.09188092e-05
-3.09188113e-05
-3.09188068e-05
-3.09188033e-05
-3.09188059e-05
-3.09188099e-05
-3.09188086e-05
-3.09188046e-05
-3.09188052e-05
-3.0918809e-05
-3.09188088e-05
-3.0918805e-05
-3.0918805e-05
-3.09188088e-05
-3.09188094e-05
-3.09188058e-05
-3.09188042e-05
-3.0918807e-05
-3.09188098e-05
-3.09188086e-05
-3.09188046e-05
-3.09188046e-05
-3.09188083e-05
-3.09188094e-05
-3.09188067e-05
-3.09188048e-05
-3.09188068e-05
-3.09188092e-05
-3.09188072e-05
-3.09188043e-05
-3.09188065e-05
-3.09188105e-05
-3.09188082e-05
-3.09188025e-05
-3.09188045e-05
-3.0918812e-05
-3.09188109e-05
-3.0918802e-05
-3.09188023e-05
-3.09188115e-05
-3.09188118e-05
-3.09188026e-05
-3.09188017e-05
-3.09188116e-05
-3.09188139e-05
-3.09188029e-05
-3.09187978e-05
-3.09188083e-05
-3.09188179e-05
-3.09188103e-05
-3.09187962e-05
-3.09187987e-05
-3.09188158e-05
)
;

boundaryField
{
    closed
    {
        type            calculated;
        value           uniform -4.02736287e-05;
    }
    open
    {
        type            calculated;
        value           nonuniform List<scalar> 0();
    }
    sides
    {
        type            empty;
    }
    procBoundary0to1
    {
        type            processor;
        value           uniform -3.09188162e-05;
    }
}


// ************************************************************************* //
