/*--------------------------------*- C++ -*----------------------------------*\
| =========                 |                                                 |
| \\      /  F ield         | OpenFOAM: The Open Source CFD Toolbox           |
|  \\    /   O peration     | Version:  2306                                  |
|   \\  /    A nd           | Website:  www.openfoam.com                      |
|    \\/     M anipulation  |                                                 |
\*---------------------------------------------------------------------------*/
FoamFile
{
    version     2.0;
    format      ascii;
    arch        "LSB;label=32;scalar=64";
    class       volScalarField;
    location    "0.0004";
    object      H;
}
// * * * * * * * * * * * * * * * * * * * * * * * * * * * * * * * * * * * * * //

dimensions      [0 0 0 0 0 0 0];

internalField   nonuniform List<scalar> 
531
(
6.79067767e-10
5.47162632e-09
4.10155243e-08
3.49365981e-08
6.42285198e-10
6.21984203e-09
4.08745612e-08
3.44787001e-08
6.20148664e-10
7.23641274e-09
4.06235588e-08
3.36331379e-08
6.21470435e-10
8.58856997e-09
3.98725906e-08
3.20357832e-08
6.64020842e-10
1.00754787e-08
3.74897942e-08
3.10995826e-08
6.95889608e-10
1.09767182e-09
2.11479703e-08
3.36461384e-08
3.983998e-08
4.54165159e-08
3.45321554e-08
1.29428159e-09
1.16211587e-09
1.56021525e-08
4.12240701e-08
3.81412324e-08
5.49897522e-09
1.20578153e-09
6.36013902e-09
3.16397358e-08
4.24042016e-08
4.59839714e-08
3.0964925e-08
5.65963304e-10
1.28477473e-08
3.78531984e-08
2.65706896e-08
7.01074552e-10
1.4753891e-08
3.9626389e-08
2.67992849e-08
6.85632995e-10
1.5440713e-08
3.95938744e-08
2.61372125e-08
7.12171186e-10
2.34514535e-09
3.5479663e-08
4.64102883e-08
2.82481847e-08
6.21008671e-10
1.59263383e-08
3.89095965e-08
2.42357519e-08
7.62094778e-10
2.01844856e-09
3.52228399e-08
4.55396954e-08
2.63914804e-08
7.023577e-10
1.79328329e-08
3.72966934e-08
2.4210341e-08
8.22816806e-10
1.10254636e-09
2.19354922e-08
3.65695335e-08
4.34289585e-08
4.56932433e-08
2.31969402e-08
7.94151823e-10
1.82555854e-08
3.75816482e-08
1.95656264e-08
8.88798424e-10
4.34110935e-09
3.6697415e-08
4.55214768e-08
2.29766311e-08
7.96818363e-10
2.11839487e-08
4.13583807e-08
2.02066585e-08
8.76500741e-10
2.27937947e-08
4.19353934e-08
1.96839772e-08
8.91731025e-10
2.39011702e-08
4.2716016e-08
1.92046889e-08
9.09374755e-10
2.48393201e-08
4.28100026e-08
1.81218422e-08
9.56999617e-10
2.49493603e-08
4.03323909e-08
1.59532219e-08
1.07011631e-09
1.14297856e-08
3.17331442e-08
4.3234564e-08
4.45222946e-08
1.75864684e-08
9.62482422e-10
7.058227e-09
3.99481023e-08
4.61969983e-08
1.74198124e-08
9.86833907e-10
2.55191592e-08
4.12686497e-08
1.35249728e-08
1.07435614e-09
2.62180876e-08
4.11660406e-08
1.2561483e-08
1.07010729e-09
1.46396562e-08
4.18597226e-08
4.55018416e-08
1.55157259e-08
1.03146383e-09
9.52773641e-09
4.06877127e-08
4.53866404e-08
1.44261091e-08
1.03673658e-09
1.30477059e-08
4.16623715e-08
4.49785884e-08
1.34032623e-08
1.07897926e-09
2.67475846e-08
4.18164313e-08
1.03463661e-08
1.10864047e-09
1.48153788e-08
4.25309087e-08
4.55023926e-08
1.32573508e-08
1.06914917e-09
1.06981802e-08
4.26302193e-08
4.6253708e-08
1.21420598e-08
1.09798809e-09
2.85695904e-08
4.20128534e-08
8.0881675e-09
1.1373953e-09
1.60494977e-08
4.29808972e-08
4.50399003e-08
1.11841811e-08
1.1096603e-09
1.23369316e-08
4.26498751e-08
4.53493477e-08
1.07810024e-08
1.11422997e-09
1.22795807e-08
4.27730571e-08
4.52780879e-08
9.78052246e-09
1.1170993e-09
1.3358101e-08
4.38615764e-08
4.58623787e-08
8.17255007e-09
1.15854897e-09
3.13263968e-08
4.21603399e-08
3.43726825e-09
1.16824602e-09
2.06806406e-08
4.55105771e-08
4.54644499e-08
6.79159571e-09
1.19036002e-09
3.2141296e-08
4.17430212e-08
1.91429257e-09
1.19399825e-09
2.11217534e-08
4.47804451e-08
4.46436022e-08
5.40667547e-09
1.1698783e-09
1.61065358e-08
4.4340203e-08
4.47449569e-08
4.78880232e-09
1.17125803e-09
1.62121046e-08
4.43935518e-08
4.45796034e-08
3.23554692e-09
1.1755427e-09
1.81331623e-08
4.51478299e-08
4.4967086e-08
2.37708379e-09
1.18898563e-09
1.63328923e-08
4.48575798e-08
4.47166992e-08
4.81523417e-10
1.17634166e-09
2.33842646e-08
4.58189776e-08
4.52061062e-08
4.91426312e-10
1.24840621e-09
3.60542425e-08
4.12304217e-08
1.94217085e-09
1.31474732e-09
1.11293792e-09
2.78637054e-08
5.1076166e-08
5.06285744e-08
5.31664399e-10
1.07696236e-09
2.95669141e-08
5.03548966e-08
5.03088826e-08
5.59924954e-10
1.14011981e-09
3.59783258e-09
4.34720682e-08
4.63053411e-08
4.60240941e-10
1.20771377e-09
3.59859696e-08
4.21658142e-08
6.21636058e-10
1.21280852e-09
2.7066555e-08
4.57925338e-08
4.55404644e-08
6.9054592e-10
1.26069837e-09
3.43276981e-08
4.17472429e-08
6.42430735e-10
1.23769812e-09
2.53942913e-08
4.52211081e-08
4.52247706e-08
7.05988734e-10
1.20503723e-09
2.42082718e-08
4.5200244e-08
4.48320072e-08
6.33692577e-10
1.24741431e-09
3.41311622e-08
4.15752028e-08
6.34467205e-10
1.19598102e-09
2.74905931e-08
4.68235404e-08
4.65033134e-08
5.7227124e-10
1.21587163e-09
3.5673773e-08
4.36671129e-08
4.59123455e-10
1.22125792e-09
3.78158178e-08
4.44177824e-08
4.13567912e-10
1.21521248e-09
3.6729099e-08
4.31370448e-08
4.79946588e-10
1.17019455e-09
2.828671e-08
4.6634975e-08
4.62877907e-08
6.1233315e-10
1.2061879e-09
3.46739024e-08
4.36202264e-08
9.17891457e-10
1.222369e-09
3.55127172e-08
4.26150236e-08
7.5575021e-10
1.17264172e-09
2.68269731e-08
4.61043805e-08
4.58594474e-08
1.97890936e-09
1.20151703e-09
3.40739427e-08
4.37451556e-08
2.1079949e-09
1.21666102e-09
3.45573828e-08
4.25746847e-08
1.90630844e-09
1.17402649e-09
2.64570158e-08
4.57940244e-08
4.57190796e-08
3.04236979e-09
1.20070687e-09
3.26298041e-08
4.21865999e-08
2.17766635e-09
1.18501812e-09
2.49195927e-08
4.48751362e-08
4.50975236e-08
2.52468186e-09
1.22499978e-09
3.21414718e-08
4.20587463e-08
2.76978655e-09
1.20108804e-09
2.39488525e-08
4.42325375e-08
4.4456563e-08
4.1674254e-09
1.16796533e-09
1.99088998e-08
4.40647877e-08
4.45467312e-08
5.10706575e-09
1.20180908e-09
3.17547501e-08
4.15814431e-08
3.28765056e-09
1.18367749e-09
2.28181294e-08
4.44273089e-08
4.45804928e-08
5.96794476e-09
1.19585103e-09
3.20586064e-08
4.26019772e-08
4.57019154e-09
1.20985932e-09
3.31131311e-08
4.18455786e-08
4.22075878e-09
1.15689543e-09
1.91718673e-08
4.42117918e-08
4.46776557e-08
6.44429899e-09
1.22749647e-09
2.30475064e-08
3.49735442e-08
4.17160688e-08
4.11394872e-08
3.02227159e-09
1.28442799e-09
3.15302557e-08
3.83971281e-08
2.86019674e-09
1.35890454e-09
1.42438851e-08
3.13724787e-08
3.46293275e-08
3.32846492e-08
3.97601053e-08
3.88233607e-08
1.25411569e-09
1.3379986e-09
3.25705663e-08
4.03326149e-08
4.05597094e-10
1.31849636e-09
3.43188662e-08
4.21563938e-08
4.20778439e-10
1.2441396e-09
2.02438312e-08
5.15281744e-08
5.08846636e-08
2.55227247e-09
1.47187467e-09
1.11068018e-09
3.79852819e-08
4.77982127e-08
1.84463583e-09
3.28546666e-08
5.53273838e-08
2.76107098e-09
3.51640725e-09
2.91280763e-09
4.96097189e-09
1.93757369e-08
3.15835021e-08
7.72677582e-09
8.68253727e-09
9.11150972e-09
1.03605546e-08
1.09891362e-08
1.18510061e-08
1.24102791e-08
1.27059849e-08
1.2693874e-08
1.13409748e-08
8.56492845e-09
8.97056092e-09
9.41459644e-09
1.00353444e-08
1.07998743e-08
1.15946916e-08
1.28016461e-08
1.37990444e-08
1.50354317e-08
1.32599063e-08
1.10070104e-08
1.07641965e-08
1.16615403e-08
1.34230056e-08
6.04977293e-08
8.46350221e-08
9.31169363e-08
2.93893284e-07
2.30887274e-07
4.09452437e-07
3.54313696e-07
1.31205712e-07
1.32557218e-07
8.80885777e-08
5.33343055e-08
1.06247152e-07
1.89566468e-07
1.90445427e-07
2.73276377e-07
1.05156061e-06
1.43734158e-06
1.84280046e-06
2.62409468e-06
3.84436558e-06
5.50077895e-06
7.7960046e-06
1.13077328e-05
1.63308851e-05
2.14695554e-05
2.79328771e-05
3.0329373e-05
3.64726548e-05
3.7352521e-05
4.28695098e-05
4.3889456e-05
4.97771213e-05
5.26533217e-05
6.19150463e-05
6.18277654e-05
6.91395183e-05
6.72916119e-05
8.81357057e-05
7.68969994e-05
7.11171327e-05
6.85594146e-05
0.000119997313
9.66604252e-05
5.42530101e-05
5.20600809e-05
0.000149718595
0.000110968705
3.69967777e-05
3.61810409e-05
0.000171134898
0.000108743426
8.86719663e-06
1.77742965e-05
0.000146165794
9.38760323e-05
2.49950707e-07
1.91013023e-06
0.000114399821
8.37138425e-05
3.84284618e-11
3.13641448e-11
8.74894109e-05
6.5107474e-05
5.98378876e-11
4.57018488e-11
6.33391407e-05
5.02833279e-05
9.39372005e-11
6.80581488e-11
4.86043511e-05
3.69677325e-05
1.12712032e-10
8.94463408e-11
3.99375355e-05
2.80689248e-05
1.32919315e-10
1.1040362e-10
3.3919468e-05
2.18983999e-05
1.47200967e-10
1.2891922e-10
2.90409711e-05
1.8353314e-05
4.45187162e-08
1.43229562e-10
2.46003279e-05
1.64998869e-05
2.33775425e-07
1.56656174e-10
1.94994359e-05
1.56992521e-05
2.281224e-06
1.75625656e-10
1.07909263e-05
1.55898634e-05
1.03796939e-05
4.28044362e-08
1.36422211e-06
1.47436426e-05
1.43859593e-05
8.54274064e-08
2.01226825e-10
1.34372107e-05
)
;

boundaryField
{
    closed
    {
        type            calculated;
        value           nonuniform List<scalar> 0();
    }
    open
    {
        type            calculated;
        value           nonuniform List<scalar> 0();
    }
    sides
    {
        type            empty;
    }
    procBoundary4to3
    {
        type            processor;
        value           uniform 3.51767833e-08;
    }
    procBoundary4to5
    {
        type            processor;
        value           uniform 1.16461844e-05;
    }
}


// ************************************************************************* //
