/*--------------------------------*- C++ -*----------------------------------*\
| =========                 |                                                 |
| \\      /  F ield         | OpenFOAM: The Open Source CFD Toolbox           |
|  \\    /   O peration     | Version:  2306                                  |
|   \\  /    A nd           | Website:  www.openfoam.com                      |
|    \\/     M anipulation  |                                                 |
\*---------------------------------------------------------------------------*/
FoamFile
{
    version     2.0;
    format      ascii;
    arch        "LSB;label=32;scalar=64";
    class       volScalarField;
    location    "0.0004";
    object      prefDPV_H2O;
}
// * * * * * * * * * * * * * * * * * * * * * * * * * * * * * * * * * * * * * //

dimensions      [1 -1 -1 0 0 0 0];

internalField   nonuniform List<scalar> 
531
(
-3.8615835e-07
-3.8352609e-07
-3.65754061e-07
-3.66727167e-07
-3.86293994e-07
-3.8302023e-07
-3.65748863e-07
-3.66893267e-07
-3.86376203e-07
-3.82343897e-07
-3.65751329e-07
-3.67227492e-07
-3.86371368e-07
-3.81451374e-07
-3.65852169e-07
-3.6793037e-07
-3.86208757e-07
-3.80460548e-07
-3.66358109e-07
-3.68409955e-07
-3.86073668e-07
-3.84600323e-07
-3.73690972e-07
-3.67583695e-07
-3.65688723e-07
-3.64908295e-07
-3.66806856e-07
-3.86294379e-07
-3.84359065e-07
-3.76926815e-07
-3.65625162e-07
-3.65898872e-07
-3.83378907e-07
-3.84189987e-07
-3.82632496e-07
-3.68301455e-07
-3.65300022e-07
-3.64649397e-07
-3.68441537e-07
-3.86554155e-07
-3.78609409e-07
-3.66308059e-07
-3.70684061e-07
-3.8605535e-07
-3.7745027e-07
-3.65841873e-07
-3.70527999e-07
-3.86116686e-07
-3.77040466e-07
-3.65883284e-07
-3.70898734e-07
-3.86009273e-07
-3.8540172e-07
-3.66426067e-07
-3.64573267e-07
-3.69756804e-07
-3.86350118e-07
-3.76732093e-07
-3.66037986e-07
-3.71938334e-07
-3.85818328e-07
-3.85618205e-07
-3.66547286e-07
-3.64708445e-07
-3.70742863e-07
-3.86046411e-07
-3.75535534e-07
-3.66305818e-07
-3.71952313e-07
-3.85581985e-07
-3.84578209e-07
-3.73251096e-07
-3.66635772e-07
-3.65037285e-07
-3.64676739e-07
-3.72516601e-07
-3.8569298e-07
-3.75331791e-07
-3.66323197e-07
-3.74619056e-07
-3.85334926e-07
-3.83996568e-07
-3.66287983e-07
-3.64668378e-07
-3.72642086e-07
-3.85697856e-07
-3.73670361e-07
-3.6541608e-07
-3.74251271e-07
-3.85404597e-07
-3.7277905e-07
-3.65292766e-07
-3.74562716e-07
-3.85348426e-07
-3.72175518e-07
-3.65130024e-07
-3.74852614e-07
-3.85284312e-07
-3.71669802e-07
-3.65108663e-07
-3.75509912e-07
-3.85102727e-07
-3.71621663e-07
-3.65663897e-07
-3.76820815e-07
-3.84657402e-07
-3.79396735e-07
-3.68296733e-07
-3.65221287e-07
-3.64853404e-07
-3.75804665e-07
-3.85061878e-07
-3.82217474e-07
-3.65709812e-07
-3.64481117e-07
-3.75922239e-07
-3.84991432e-07
-3.71332163e-07
-3.65427036e-07
-3.7836392e-07
-3.84665249e-07
-3.70978123e-07
-3.654729e-07
-3.78962791e-07
-3.84670616e-07
-3.77451689e-07
-3.65356351e-07
-3.64587024e-07
-3.77077256e-07
-3.8481352e-07
-3.80629119e-07
-3.65565834e-07
-3.64664987e-07
-3.77769094e-07
-3.84790767e-07
-3.78430474e-07
-3.65432618e-07
-3.64678112e-07
-3.7841106e-07
-3.84647273e-07
-3.70727541e-07
-3.65350196e-07
-3.80382363e-07
-3.84524721e-07
-3.7734237e-07
-3.65239221e-07
-3.64585979e-07
-3.78496997e-07
-3.84674066e-07
-3.79900621e-07
-3.65191052e-07
-3.64414688e-07
-3.79232557e-07
-3.84578043e-07
-3.69826105e-07
-3.65324046e-07
-3.8187582e-07
-3.84412732e-07
-3.76604841e-07
-3.65194332e-07
-3.64678855e-07
-3.79815726e-07
-3.84519363e-07
-3.7886274e-07
-3.65242334e-07
-3.64643732e-07
-3.80078215e-07
-3.84500543e-07
-3.78896353e-07
-3.65227571e-07
-3.64669263e-07
-3.80742984e-07
-3.84489655e-07
-3.78240295e-07
-3.6501357e-07
-3.64477342e-07
-3.81824782e-07
-3.84352601e-07
-3.68559818e-07
-3.65278301e-07
-3.85080868e-07
-3.84299633e-07
-3.73952338e-07
-3.64706912e-07
-3.64490332e-07
-3.82743623e-07
-3.8424061e-07
-3.68216204e-07
-3.65330851e-07
-3.8614136e-07
-3.84202668e-07
-3.737097e-07
-3.64891483e-07
-3.6473477e-07
-3.83667314e-07
-3.84292596e-07
-3.76573887e-07
-3.64965836e-07
-3.64736398e-07
-3.84105197e-07
-3.84284065e-07
-3.76511739e-07
-3.64984651e-07
-3.64769862e-07
-3.85190517e-07
-3.84268889e-07
-3.75390493e-07
-3.64836123e-07
-3.64666772e-07
-3.85791477e-07
-3.84221231e-07
-3.7643931e-07
-3.64880547e-07
-3.64766295e-07
-3.86916892e-07
-3.84261076e-07
-3.72482456e-07
-3.64788435e-07
-3.64560659e-07
-3.86862804e-07
-3.84025634e-07
-3.66923093e-07
-3.65386616e-07
-3.86172612e-07
-3.83742951e-07
-3.84472074e-07
-3.7015716e-07
-3.63661307e-07
-3.63503687e-07
-3.86714302e-07
-3.84640498e-07
-3.69440434e-07
-3.63850891e-07
-3.63759532e-07
-3.86589685e-07
-3.84366052e-07
-3.84574259e-07
-3.6524513e-07
-3.64563851e-07
-3.86986175e-07
-3.84161478e-07
-3.66866854e-07
-3.65257089e-07
-3.86398092e-07
-3.84134545e-07
-3.70566548e-07
-3.64679811e-07
-3.64480992e-07
-3.86124532e-07
-3.83982687e-07
-3.67212677e-07
-3.65255427e-07
-3.86322354e-07
-3.84049816e-07
-3.71424151e-07
-3.64747956e-07
-3.64617489e-07
-3.86071761e-07
-3.84158796e-07
-3.72043204e-07
-3.64806731e-07
-3.64653078e-07
-3.86329085e-07
-3.84020563e-07
-3.67311578e-07
-3.65388115e-07
-3.86342453e-07
-3.8418892e-07
-3.70362275e-07
-3.64547734e-07
-3.64316785e-07
-3.86547509e-07
-3.84143901e-07
-3.66971632e-07
-3.64888088e-07
-3.86982182e-07
-3.8412837e-07
-3.66497869e-07
-3.64728604e-07
-3.87154029e-07
-3.84144134e-07
-3.66668262e-07
-3.65085538e-07
-3.86907149e-07
-3.842873e-07
-3.69985557e-07
-3.64593043e-07
-3.64398191e-07
-3.86787661e-07
-3.84174685e-07
-3.67095178e-07
-3.6489961e-07
-3.86808705e-07
-3.84119257e-07
-3.66863106e-07
-3.65185639e-07
-3.86886054e-07
-3.84277801e-07
-3.70708802e-07
-3.64695082e-07
-3.64472488e-07
-3.85871927e-07
-3.84195869e-07
-3.67329443e-07
-3.64850313e-07
-3.85999295e-07
-3.84146482e-07
-3.67074517e-07
-3.65162033e-07
-3.86103668e-07
-3.84279523e-07
-3.70888965e-07
-3.64710524e-07
-3.64493386e-07
-3.85178738e-07
-3.84193693e-07
-3.67941914e-07
-3.65238766e-07
-3.85928183e-07
-3.84241573e-07
-3.71671198e-07
-3.64867515e-07
-3.64617289e-07
-3.85518937e-07
-3.84106141e-07
-3.68153484e-07
-3.65201357e-07
-3.85520544e-07
-3.84189801e-07
-3.72181952e-07
-3.64961873e-07
-3.6476799e-07
-3.84444159e-07
-3.84297334e-07
-3.74383186e-07
-3.65009052e-07
-3.64684785e-07
-3.8384618e-07
-3.84196138e-07
-3.6832198e-07
-3.65341356e-07
-3.85166152e-07
-3.84247109e-07
-3.7277888e-07
-3.6494881e-07
-3.64647971e-07
-3.83239856e-07
-3.84225914e-07
-3.68185446e-07
-3.65059376e-07
-3.84308579e-07
-3.84171588e-07
-3.67669723e-07
-3.65324257e-07
-3.84524969e-07
-3.84331118e-07
-3.74798717e-07
-3.65065375e-07
-3.64751759e-07
-3.83056023e-07
-3.84085927e-07
-3.72676976e-07
-3.66748868e-07
-3.65666516e-07
-3.65403519e-07
-3.85241418e-07
-3.83888845e-07
-3.68477529e-07
-3.65871801e-07
-3.85444827e-07
-3.83602091e-07
-3.77706131e-07
-3.68322288e-07
-3.66972676e-07
-3.67430908e-07
-3.65941123e-07
-3.65689717e-07
-3.86552299e-07
-3.8371733e-07
-3.67974634e-07
-3.65319375e-07
-3.87200861e-07
-3.83810753e-07
-3.67101341e-07
-3.64935856e-07
-3.8716566e-07
-3.84096418e-07
-3.74211104e-07
-3.62971192e-07
-3.62726132e-07
-3.86323712e-07
-3.83425588e-07
-3.84756824e-07
-3.64588973e-07
-3.62622417e-07
-3.85008627e-07
-3.66830162e-07
-3.60525501e-07
-3.84922739e-07
-3.81512384e-07
-3.838233e-07
-3.80108141e-07
-3.75403803e-07
-3.67064324e-07
-3.79351602e-07
-3.75189658e-07
-3.75187619e-07
-3.71980387e-07
-3.71046608e-07
-3.68782785e-07
-3.67470291e-07
-3.65692031e-07
-3.643837e-07
-3.63169572e-07
-3.62765236e-07
-3.6064252e-07
-3.58691356e-07
-3.5623399e-07
-3.5349535e-07
-3.50948617e-07
-3.47226769e-07
-3.44704203e-07
-3.41030084e-07
-3.40938616e-07
-3.37903082e-07
-3.36127839e-07
-3.31261433e-07
-3.26514502e-07
-2.8170122e-07
-2.84539447e-07
-2.66268107e-07
-2.30524866e-07
-2.63489699e-07
-2.20967313e-07
-2.42636541e-07
-2.81780862e-07
-2.35330579e-07
-2.73275623e-07
-2.80725588e-07
-2.56632262e-07
-2.10837402e-07
-2.10445748e-07
-1.99897511e-07
-1.17250207e-07
-9.88530581e-08
-6.67722807e-08
-4.48624235e-08
-8.59568028e-09
2.37280246e-08
6.23970796e-08
1.0528464e-07
1.5166586e-07
1.96242095e-07
2.40757639e-07
2.6951365e-07
3.07644298e-07
3.30071755e-07
3.62248632e-07
3.86862897e-07
4.17661287e-07
4.4760919e-07
4.72755196e-07
5.03786966e-07
5.36299943e-07
5.54587081e-07
5.70525433e-07
6.00377356e-07
6.4021028e-07
6.48235647e-07
6.09609198e-07
6.60909176e-07
7.53551765e-07
7.49436453e-07
6.42306145e-07
7.05337746e-07
8.5268071e-07
8.43256307e-07
6.80284791e-07
7.45047945e-07
9.45466471e-07
9.21458493e-07
7.51792196e-07
8.01590116e-07
9.79654883e-07
9.69221817e-07
8.31734926e-07
8.58881198e-07
9.88730744e-07
9.83372218e-07
8.85951793e-07
9.02677149e-07
9.97917389e-07
9.92491572e-07
9.28438374e-07
9.34501608e-07
1.00834823e-06
1.00147717e-06
9.49855497e-07
9.58214428e-07
1.01314856e-06
1.00764145e-06
9.63358668e-07
9.73623462e-07
1.0168507e-06
1.01275681e-06
9.72729945e-07
9.84157779e-07
1.01949681e-06
1.01637545e-06
9.79964615e-07
9.90784665e-07
1.02119309e-06
1.01916909e-06
9.86278215e-07
9.94954366e-07
1.02154491e-06
1.02145793e-06
9.93110436e-07
9.97652828e-07
1.01645705e-06
1.02408609e-06
1.00494574e-06
9.99500236e-07
1.00646921e-06
1.02641695e-06
1.02119976e-06
1.00220958e-06
1.00223463e-06
1.02792468e-06
1.02771373e-06
1.00566598e-06
)
;

boundaryField
{
    closed
    {
        type            calculated;
        value           nonuniform List<scalar> 0();
    }
    open
    {
        type            calculated;
        value           nonuniform List<scalar> 0();
    }
    sides
    {
        type            empty;
    }
    procBoundary4to3
    {
        type            processor;
        value           uniform -3.66646326e-07;
    }
    procBoundary4to5
    {
        type            processor;
        value           uniform 1.00745574e-06;
    }
}


// ************************************************************************* //
