/*--------------------------------*- C++ -*----------------------------------*\
| =========                 |                                                 |
| \\      /  F ield         | OpenFOAM: The Open Source CFD Toolbox           |
|  \\    /   O peration     | Version:  2306                                  |
|   \\  /    A nd           | Website:  www.openfoam.com                      |
|    \\/     M anipulation  |                                                 |
\*---------------------------------------------------------------------------*/
FoamFile
{
    version     2.0;
    format      ascii;
    arch        "LSB;label=32;scalar=64";
    class       volScalarField;
    location    "0.0004";
    object      prefDZ_H2;
}
// * * * * * * * * * * * * * * * * * * * * * * * * * * * * * * * * * * * * * //

dimensions      [1 -1 -1 0 0 0 0];

internalField   nonuniform List<scalar> 
531
(
6.33965463e-05
6.29932119e-05
6.19557961e-05
6.23142174e-05
6.3380473e-05
6.2951781e-05
6.19625217e-05
6.22915159e-05
6.33719379e-05
6.28977825e-05
6.19755865e-05
6.22598398e-05
6.33726114e-05
6.28284086e-05
6.20244046e-05
6.22268842e-05
6.33793014e-05
6.27539816e-05
6.21990754e-05
6.22377257e-05
6.33562186e-05
6.35490376e-05
6.2384069e-05
6.24197938e-05
6.20066116e-05
6.1629512e-05
6.2264789e-05
6.32232975e-05
6.35708368e-05
6.25277481e-05
6.19311113e-05
6.21102304e-05
6.29740234e-05
6.35790946e-05
6.29062895e-05
6.23124029e-05
6.18354725e-05
6.15753598e-05
6.22203541e-05
6.32890612e-05
6.26289691e-05
6.21759857e-05
6.22422092e-05
6.33606227e-05
6.25567163e-05
6.20350973e-05
6.22149645e-05
6.33626392e-05
6.25315789e-05
6.204159e-05
6.22347819e-05
6.33548604e-05
6.313319e-05
6.22945706e-05
6.15437271e-05
6.21970207e-05
6.33174588e-05
6.25167698e-05
6.20929084e-05
6.22642707e-05
6.33659966e-05
6.3150996e-05
6.22954587e-05
6.16065142e-05
6.2216884e-05
6.33518923e-05
6.24559121e-05
6.22009485e-05
6.226457e-05
6.33725239e-05
6.35457023e-05
6.23619949e-05
6.22770813e-05
6.17547215e-05
6.15948982e-05
6.22778307e-05
6.33679907e-05
6.24547938e-05
6.2190384e-05
6.23833548e-05
6.34001574e-05
6.30137075e-05
6.2224673e-05
6.16043563e-05
6.22833397e-05
6.33986329e-05
6.23794362e-05
6.19014264e-05
6.23543016e-05
6.34371356e-05
6.2347878e-05
6.1858933e-05
6.23695526e-05
6.34440898e-05
6.23280619e-05
6.18017123e-05
6.23830744e-05
6.3453646e-05
6.23125684e-05
6.17946273e-05
6.24190428e-05
6.34656425e-05
6.23196175e-05
6.19800757e-05
6.25030248e-05
6.34759251e-05
6.26817898e-05
6.23313131e-05
6.17829938e-05
6.16774383e-05
6.24461249e-05
6.34351673e-05
6.28773134e-05
6.20039922e-05
6.15497112e-05
6.24480248e-05
6.34771388e-05
6.23211407e-05
6.19071105e-05
6.26027222e-05
6.35111303e-05
6.2320903e-05
6.19173262e-05
6.26453588e-05
6.34948536e-05
6.25652967e-05
6.18696062e-05
6.15987872e-05
6.25212956e-05
6.3477615e-05
6.27634257e-05
6.19514362e-05
6.16119212e-05
6.25644138e-05
6.34751763e-05
6.26209162e-05
6.1887875e-05
6.16363021e-05
6.26077514e-05
6.35118943e-05
6.23302728e-05
6.1871154e-05
6.27489196e-05
6.35071878e-05
6.25598014e-05
6.18225867e-05
6.15986682e-05
6.26139889e-05
6.3494297e-05
6.27141326e-05
6.18124501e-05
6.15411793e-05
6.26645297e-05
6.35214213e-05
6.23293445e-05
6.18583187e-05
6.2864357e-05
6.35123289e-05
6.25216338e-05
6.17941844e-05
6.1632914e-05
6.27071495e-05
6.35054725e-05
6.26476217e-05
6.18166344e-05
6.16122942e-05
6.27263081e-05
6.35048836e-05
6.26497745e-05
6.18086071e-05
6.16185337e-05
6.27760189e-05
6.35057874e-05
6.26095162e-05
6.17288611e-05
6.1568968e-05
6.28604686e-05
6.35449901e-05
6.23631057e-05
6.18458986e-05
6.31357363e-05
6.35273012e-05
6.24080053e-05
6.160811e-05
6.15926796e-05
6.29343338e-05
6.35651595e-05
6.23840692e-05
6.18727817e-05
6.32304473e-05
6.3536414e-05
6.24046615e-05
6.16660062e-05
6.16600354e-05
6.30102885e-05
6.35267286e-05
6.25194252e-05
6.16976962e-05
6.16545426e-05
6.30483004e-05
6.3522903e-05
6.25162568e-05
6.16963019e-05
6.16667534e-05
6.31434334e-05
6.35256751e-05
6.24647075e-05
6.16399462e-05
6.16359501e-05
6.31970902e-05
6.35342449e-05
6.25129614e-05
6.16606082e-05
6.16587816e-05
6.33827064e-05
6.35197397e-05
6.23653195e-05
6.15958317e-05
6.16132546e-05
6.33442163e-05
6.35884353e-05
6.23385244e-05
6.19044707e-05
6.32368919e-05
6.35736464e-05
6.34570662e-05
6.23204104e-05
6.11814791e-05
6.12078957e-05
6.33608801e-05
6.34911595e-05
6.23802559e-05
6.1240517e-05
6.12405531e-05
6.33227867e-05
6.34627726e-05
6.30658891e-05
6.17719886e-05
6.15494651e-05
6.33526472e-05
6.35541746e-05
6.23341422e-05
6.18433757e-05
6.3429023e-05
6.35464254e-05
6.23288967e-05
6.15892127e-05
6.15876066e-05
6.34181789e-05
6.35962695e-05
6.23986919e-05
6.18643198e-05
6.3438373e-05
6.35659592e-05
6.23417601e-05
6.16284054e-05
6.16171557e-05
6.34322632e-05
6.35374417e-05
6.23530622e-05
6.16344632e-05
6.16422432e-05
6.33840234e-05
6.35778979e-05
6.24012773e-05
6.18874796e-05
6.3417599e-05
6.35291675e-05
6.23323472e-05
6.15161521e-05
6.15188786e-05
6.33374846e-05
6.35727707e-05
6.23622735e-05
6.17274432e-05
6.33310663e-05
6.3580156e-05
6.22015894e-05
6.16718666e-05
6.33223124e-05
6.35698702e-05
6.22741174e-05
6.17750757e-05
6.33445115e-05
6.35215218e-05
6.2340683e-05
6.15311263e-05
6.15378835e-05
6.32686161e-05
6.35627353e-05
6.24181896e-05
6.17310615e-05
6.32888249e-05
6.35747039e-05
6.23546423e-05
6.18126892e-05
6.32931013e-05
6.35220318e-05
6.23429828e-05
6.15713982e-05
6.15687386e-05
6.31900818e-05
6.35655273e-05
6.2397332e-05
6.17196056e-05
6.32171548e-05
6.35796073e-05
6.23860441e-05
6.18123519e-05
6.32239409e-05
6.35314674e-05
6.23406185e-05
6.15914873e-05
6.15785232e-05
6.31326062e-05
6.35589145e-05
6.23652984e-05
6.18403701e-05
6.3209172e-05
6.35396761e-05
6.23463821e-05
6.16584921e-05
6.16242954e-05
6.31609819e-05
6.35717733e-05
6.23555536e-05
6.18428484e-05
6.31730959e-05
6.35560424e-05
6.23576058e-05
6.17034354e-05
6.16733842e-05
6.30720053e-05
6.35228552e-05
6.24223954e-05
6.17171193e-05
6.16607826e-05
6.30239486e-05
6.35672756e-05
6.23479073e-05
6.188204e-05
6.31420582e-05
6.35398256e-05
6.23649139e-05
6.16912396e-05
6.16555313e-05
6.29722438e-05
6.35741541e-05
6.23520414e-05
6.18002195e-05
6.30688859e-05
6.35768019e-05
6.23465824e-05
6.18668803e-05
6.30861957e-05
6.35084463e-05
6.24390569e-05
6.17137773e-05
6.16596701e-05
6.29636962e-05
6.35596927e-05
6.23855623e-05
6.23310977e-05
6.1909565e-05
6.19108405e-05
6.31414049e-05
6.3599002e-05
6.23702223e-05
6.20954423e-05
6.31654989e-05
6.3617131e-05
6.25778301e-05
6.22602388e-05
6.23570285e-05
6.22760421e-05
6.20402911e-05
6.20531172e-05
6.3263921e-05
6.36487133e-05
6.23673191e-05
6.19390594e-05
6.33654241e-05
6.36634876e-05
6.23489759e-05
6.18087903e-05
6.34179672e-05
6.36480258e-05
6.2376138e-05
6.11238674e-05
6.11494823e-05
6.32894101e-05
6.38769198e-05
6.37812401e-05
6.19319341e-05
6.12974694e-05
6.37709088e-05
6.1869141e-05
6.07621402e-05
6.35835565e-05
6.39419856e-05
6.37192554e-05
6.38377882e-05
6.22660108e-05
6.14220473e-05
6.33545161e-05
6.37597663e-05
6.36681749e-05
6.38587827e-05
6.385513e-05
6.39798512e-05
6.40336854e-05
6.41917349e-05
6.43409714e-05
6.47153574e-05
6.51582413e-05
6.46997617e-05
6.43559111e-05
6.4006901e-05
6.37100236e-05
6.35190712e-05
6.33264933e-05
6.32790185e-05
6.30259566e-05
6.31124069e-05
6.28284917e-05
6.27973602e-05
6.26822887e-05
6.27593887e-05
6.44324286e-05
6.67720544e-05
6.71836761e-05
7.32966278e-05
7.06789088e-05
7.54107882e-05
7.3027757e-05
6.81002792e-05
7.03383949e-05
6.76134875e-05
6.62005251e-05
6.87574223e-05
7.30596075e-05
7.26342705e-05
7.39944701e-05
8.56228961e-05
8.79520431e-05
9.11263627e-05
9.37130433e-05
9.74416823e-05
0.000100830467
0.000104610665
0.000108727672
0.000112996876
0.00011676584
0.000120546722
0.000122514902
0.000125558416
0.000126867753
0.000129354071
0.000130788123
0.000133169101
0.000135103612
0.000137445727
0.00013915058
0.000141646414
0.000142500583
0.00014507039
0.000145891908
0.000147756531
0.000147994499
0.000149325524
0.000150787233
0.000153315557
0.000152826571
0.000152800046
0.000154339997
0.000158756595
0.000157895099
0.000156069973
0.000156680191
0.000164419357
0.000162911623
0.000159236998
0.000159574235
0.000167302185
0.000166359937
0.000163172409
0.000163346985
0.000168420437
0.000167695814
0.000166040272
0.000165894552
0.000169721102
0.000168975533
0.000168456816
0.000167965277
0.000171228867
0.000170267609
0.00016961641
0.000169489694
0.000171940685
0.000171168136
0.000170464371
0.000170540627
0.000172497459
0.000171920654
0.000171075202
0.000171285329
0.000172899588
0.000172459975
0.000171533852
0.000171805071
0.00017318732
0.000172879623
0.000171921448
0.000172184522
0.000173360625
0.000173226077
0.000172300309
0.000172485892
0.000173256852
0.000173622018
0.000172913394
0.000172752771
0.00017308499
0.000173997789
0.000173751226
0.000173049698
0.000173008867
0.000174252565
0.000174175382
0.000173394785
)
;

boundaryField
{
    closed
    {
        type            calculated;
        value           nonuniform List<scalar> 0();
    }
    open
    {
        type            calculated;
        value           nonuniform List<scalar> 0();
    }
    sides
    {
        type            empty;
    }
    procBoundary4to3
    {
        type            processor;
        value           uniform 6.23285257e-05;
    }
    procBoundary4to5
    {
        type            processor;
        value           uniform 0.000173423185;
    }
}


// ************************************************************************* //
