/*--------------------------------*- C++ -*----------------------------------*\
| =========                 |                                                 |
| \\      /  F ield         | OpenFOAM: The Open Source CFD Toolbox           |
|  \\    /   O peration     | Version:  2306                                  |
|   \\  /    A nd           | Website:  www.openfoam.com                      |
|    \\/     M anipulation  |                                                 |
\*---------------------------------------------------------------------------*/
FoamFile
{
    version     2.0;
    format      ascii;
    arch        "LSB;label=32;scalar=64";
    class       volVectorField;
    location    "0.0004";
    object      U;
}
// * * * * * * * * * * * * * * * * * * * * * * * * * * * * * * * * * * * * * //

dimensions      [0 1 -1 0 0 0 0];

internalField   nonuniform List<vector> 
531
(
(0.476796861 0 0)
(0.545565138 0 0)
(0.596559041 0 0)
(0.62398091 0 0)
(0.654604845 0 0)
(0.724957852 0 0)
(0.777287411 0 0)
(0.809565804 0 0)
(0.843965662 0 0)
(0.91531634 0 0)
(0.96844797 0 0)
(1.00554115 0 0)
(1.0426868 0 0)
(1.11385978 0 0)
(1.16682766 0 0)
(1.20791147 0 0)
(1.24561573 0 0)
(1.31443052 0 0)
(1.36465004 0 0)
(1.40988138 0 0)
(1.45774463 0 0)
(1.4938711 0 0)
(1.53189516 0 0)
(1.55123778 0 0)
(1.576997 0 0)
(1.61319501 0 0)
(1.67389169 0 0)
(1.73122114 0 0)
(1.76392793 0 0)
(1.79519895 0 0)
(1.83540048 0 0)
(1.85791049 0 0)
(1.86264757 0 0)
(1.88632464 0 0)
(1.93564638 0 0)
(1.97526145 0 0)
(1.99913658 0 0)
(2.03668093 0 0)
(2.10401009 0 0)
(2.15910189 0 0)
(2.21467766 0 0)
(2.26702843 0 0)
(2.32370566 0 0)
(2.36301348 0 0)
(2.4058035 0 0)
(2.45522222 0 0)
(2.51633082 0 0)
(2.55723447 0 0)
(2.59228709 0 0)
(2.63856536 0 0)
(2.69660077 0 0)
(2.74771787 0 0)
(2.82733653 0 0)
(2.91568481 0 0)
(2.95543888 0 0)
(3.01032359 0 0)
(3.05172692 0 0)
(3.06548493 0 0)
(3.10326927 0 0)
(3.15146005 0 0)
(3.18742282 0 0)
(3.25676042 0 0)
(3.3272714 0 0)
(3.34636283 0 0)
(3.38734864 0 0)
(3.40848156 0 0)
(3.39068757 0 0)
(3.41229563 0 0)
(3.44423565 0 0)
(3.46710613 0 0)
(3.45496749 0 0)
(3.41707155 0 0)
(3.43075277 0 0)
(3.44004185 0 0)
(3.43961898 0 0)
(3.45940467 0 0)
(3.44261582 0 0)
(3.39795252 0 0)
(3.40172777 0 0)
(3.40664656 0 0)
(3.38214082 0 0)
(3.39911404 0 0)
(3.44357037 0 0)
(3.45058681 0 0)
(3.45445017 0 0)
(3.42397074 0 0)
(3.35119713 0 0)
(3.3289693 0 0)
(3.33582608 0 0)
(3.29342616 0 0)
(3.21123837 0 0)
(3.18045819 0 0)
(3.18082579 0 0)
(3.13282016 0 0)
(3.04544509 0 0)
(3.0086249 0 0)
(3.00375271 0 0)
(2.95114827 0 0)
(2.86143518 0 0)
(2.82153474 0 0)
(2.80963808 0 0)
(2.7511122 0 0)
(2.665142 0 0)
(2.62773127 0 0)
(2.60120525 0 0)
(2.5407432 0 0)
(2.49970446 0 0)
(2.4717744 0 0)
(2.42400498 0 0)
(2.39856828 0 0)
(2.36669432 0 0)
(2.31114172 0 0)
(2.29428275 0 0)
(2.30010328 0 0)
(2.28853268 0 0)
(2.26048661 0 0)
(2.19862271 0 0)
(2.12394722 0 0)
(2.08757781 0 0)
(2.06162069 0 0)
(1.99890679 0 0)
(1.92907293 0 0)
(1.89360611 0 0)
(1.86462055 0 0)
(1.80739431 0 0)
(1.76871321 0 0)
(1.75455142 0 0)
(1.74524081 0 0)
(1.71589201 0 0)
(1.66575205 0 0)
(1.64632294 0 0)
(1.64525393 0 0)
(1.63527503 0 0)
(1.60476535 0 0)
(1.55498271 0 0)
(1.52847137 0 0)
(1.52085525 0 0)
(1.51350941 0 0)
(1.48971848 0 0)
(1.44070547 0 0)
(1.39235768 0 0)
(1.36723185 0 0)
(1.3451353 0 0)
(1.30414406 0 0)
(1.27784411 0 0)
(1.26721673 0 0)
(1.26230002 0 0)
(1.23845221 0 0)
(1.19975957 0 0)
(1.18622566 0 0)
(1.18511346 0 0)
(1.18056567 0 0)
(1.16130886 0 0)
(1.12319462 0 0)
(1.08591921 0 0)
(1.06631925 0 0)
(1.05051747 0 0)
(1.02177201 0 0)
(1.00058995 0 0)
(0.99029829 0 0)
(0.988030466 0 0)
(0.970412865 0 0)
(0.941145812 0 0)
(0.929389673 0 0)
(0.926945013 0 0)
(0.924728604 0 0)
(0.907676614 0 0)
(0.881505819 0 0)
(0.87173267 0 0)
(0.869941014 0 0)
(0.868627796 0 0)
(0.854422266 0 0)
(0.831457173 0 0)
(0.821374865 0 0)
(0.81819856 0 0)
(0.819025583 0 0)
(0.812513143 0 0)
(0.793105709 0 0)
(0.771004805 0 0)
(0.762270671 0 0)
(0.766039401 0 0)
(0.760046011 0 0)
(0.743841737 0 0)
(0.732470495 0 0)
(0.736522765 0 0)
(0.737585219 0 0)
(0.72439005 0 0)
(0.706427566 0 0)
(0.700934376 0 0)
(0.71203164 0 0)
(0.71298543 0 0)
(0.698922201 0 0)
(0.68779065 0 0)
(0.692281001 0 0)
(0.696039791 0 0)
(0.687067895 0 0)
(0.677840494 0 0)
(0.671294089 0 0)
(0.674885422 0 0)
(0.679432892 0 0)
(0.672482205 0 0)
(0.663140912 0 0)
(0.655164293 0 0)
(0.658116381 0 0)
(0.667247483 0 0)
(0.663560276 0 0)
(0.65180252 0 0)
(0.640720501 0 0)
(0.643793744 0 0)
(0.655586921 0 0)
(0.653646599 0 0)
(0.643309269 0 0)
(0.632109733 0 0)
(0.634975753 0 0)
(0.653126889 0 0)
(0.654426764 0 0)
(0.63909878 0 0)
(0.623603395 0 0)
(0.62660686 0 0)
(0.644926706 0 0)
(0.644386153 0 0)
(0.631570156 0 0)
(0.630429795 0 0)
(0.641579417 0 0)
(0.645860205 0 0)
(0.640064531 0 0)
(0.62269128 0 0)
(0.608715398 0 0)
(0.617848357 0 0)
(0.64031747 0 0)
(0.640067918 0 0)
(0.623758895 0 0)
(0.606827222 0 0)
(0.599241992 0 0)
(0.60842296 0 0)
(0.616000329 0 0)
(0.628469306 0 0)
(0.634869519 0 0)
(0.634219509 0 0)
(0.6474424 0 0)
(0.649088654 0 0)
(0.639463354 0 0)
(0.642925675 0 0)
(0.660938889 0 0)
(0.664370304 0 0)
(0.65279055 0 0)
(0.644107052 0 0)
(0.640540354 0 0)
(0.658922813 0 0)
(0.671321594 0 0)
(0.660346188 0 0)
(0.66267018 0 0)
(0.684254513 0 0)
(0.69024634 0 0)
(0.681279694 0 0)
(0.675998383 0 0)
(0.674713597 0 0)
(0.696721091 0 0)
(0.7127362 0 0)
(0.705280978 0 0)
(0.70204843 0 0)
(0.717659115 0 0)
(0.746154609 0 0)
(0.750519457 0 0)
(0.741019759 0 0)
(0.746626303 0 0)
(0.773382226 0 0)
(0.780976432 0 0)
(0.771911047 0 0)
(0.76761378 0 0)
(0.785477107 0 0)
(0.818820781 0 0)
(0.825409334 0 0)
(0.82713959 0 0)
(0.846243099 0 0)
(0.880122544 0 0)
(0.890061541 0 0)
(0.891664698 0 0)
(0.914792662 0 0)
(0.952744223 0 0)
(0.963643894 0 0)
(0.966534996 0 0)
(0.991899754 0 0)
(1.03153142 0 0)
(1.04178372 0 0)
(1.03097768 0 0)
(1.02928066 0 0)
(1.0545912 0 0)
(1.09875176 0 0)
(1.10677744 0 0)
(1.11179189 0 0)
(1.14114222 0 0)
(1.17835326 0 0)
(1.18097873 0 0)
(1.18910106 0 0)
(1.22468792 0 0)
(1.26700189 0 0)
(1.27219741 0 0)
(1.26078313 0 0)
(1.26395416 0 0)
(1.29571034 0 0)
(1.33051758 0 0)
(1.32181651 0 0)
(1.30275819 0 0)
(1.31269644 0 0)
(1.34671009 0 0)
(1.34209387 0 0)
(1.33128922 0 0)
(1.35059927 0 0)
(1.38353845 0 0)
(1.37677555 0 0)
(1.36124919 0 0)
(1.36213067 0 0)
(1.39165714 0 0)
(1.4201608 0 0)
(1.40255654 0 0)
(1.37833995 0 0)
(1.38451644 0 0)
(1.41117223 0 0)
(1.39898002 0 0)
(1.37980656 0 0)
(1.37694731 0 0)
(1.40101729 0 0)
(1.42329738 0 0)
(1.39982001 0 0)
(1.36984899 0 0)
(1.37024334 0 0)
(1.38938911 0 0)
(1.37172642 0 0)
(1.34689219 0 0)
(1.33856301 0 0)
(1.35371703 0 0)
(1.363794 0 0)
(1.33632922 0 0)
(1.31323328 0 0)
(1.30613548 0 0)
(1.31680526 0 0)
(1.3195384 0 0)
(1.28622791 0 0)
(1.24640645 0 0)
(1.23166468 0 0)
(1.23180679 0 0)
(1.20363739 0 0)
(1.16878567 0 0)
(1.1463151 0 0)
(1.14274892 0 0)
(1.13207421 0 0)
(1.09238808 0 0)
(1.04656396 0 0)
(1.01988262 0 0)
(1.00517016 0 0)
(0.969918931 0 0)
(0.923283388 0 0)
(0.892491655 0 0)
(0.87125798 0 0)
(0.836885844 0 0)
(0.795663277 0 0)
(0.757545984 0 0)
(0.733442891 0 0)
(0.704036511 0 0)
(0.661772451 0 0)
(0.622405659 0 0)
(0.576526266 0 0)
(0.535234724 0 0)
(0.50131601 0 0)
(0.472898902 0 0)
(0.440768385 0 0)
(0.404882195 0 0)
(0.368240136 0 0)
(0.341769467 0 0)
(0.319734973 0 0)
(0.285445987 0 0)
(0.248077035 0 0)
(0.214351214 0 0)
(0.181673224 0 0)
(0.142233981 0 0)
(0.107093527 0 0)
(0.0979644297 0 0)
(0.0990641804 0 0)
(0.0855336363 0 0)
(0.064519119 0 0)
(0.0593879011 0 0)
(0.0697434179 0 0)
(0.0632592326 0 0)
(0.0493885559 0 0)
(0.0424713975 0 0)
(0.053254501 0 0)
(0.0343895464 0 0)
(0.00535870205 0 0)
(-0.0127884834 0 0)
(0.000389117438 0 0)
(0.0311296736 0 0)
(0.0119356416 0 0)
(-0.00506958509 0 0)
(-0.0221681498 0 0)
(-0.0403595342 0 0)
(-0.0296326679 0 0)
(-0.0547424252 0 0)
(-0.0797698174 0 0)
(-0.0687020028 0 0)
(-0.0830014031 0 0)
(-0.103463509 0 0)
(-0.109727281 0 0)
(-0.102699933 0 0)
(-0.111450119 0 0)
(-0.11498441 0 0)
(-0.128619283 0 0)
(-0.143187246 0 0)
(-0.153378593 0 0)
(-0.161091348 0 0)
(-0.16425706 0 0)
(-0.162521688 0 0)
(-0.151827751 0 0)
(-0.133164195 0 0)
(-0.117667904 0 0)
(-0.0926825302 0 0)
(-0.0581033656 0 0)
(-0.00984523702 0 0)
(0.0531773298 0 0)
(0.130432851 0 0)
(0.222204281 0 0)
(0.326749501 0 0)
(0.442408748 0 0)
(0.557461149 0 0)
(0.66137947 0 0)
(0.766996955 0 0)
(0.828792263 0 0)
(0.868764973 0 0)
(0.726411579 0 0)
(0.531423846 0 0)
(0.406964415 0 0)
(0.755043389 0 0)
(0.601075752 0 0)
(1.8531654 0 0)
(4.2134708 0 0)
(6.03191299 0 0)
(6.31842813 0 0)
(4.77041656 0 0)
(2.10229346 0 0)
(-0.161697275 0 0)
(-0.703398943 0 0)
(0.00829106627 0 0)
(-1.1424111 0 0)
(-4.30338117 0 0)
(-4.71189336 0 0)
(-4.19680408 0 0)
(-3.51641012 0 0)
(-2.93649866 0 0)
(-2.39685874 0 0)
(-1.92708699 0 0)
(-1.52330311 0 0)
(-1.17123355 0 0)
(-0.85831738 0 0)
(-0.59242069 0 0)
(-0.337530536 0 0)
(-0.139065651 0 0)
(0.0485040923 0 0)
(0.222383007 0 0)
(0.389686503 0 0)
(0.522929755 0 0)
(0.64593387 0 0)
(0.772670978 0 0)
(0.9285377 0 0)
(1.03484544 0 0)
(0.99972423 0 0)
(1.16794084 0 0)
(1.64904589 0 0)
(1.78382059 0 0)
(1.41004774 0 0)
(1.19454223 0 0)
(1.47386577 0 0)
(1.45053566 0 0)
(0.817908346 0 0)
(0.618457858 0 0)
(1.43385838 0 0)
(1.90743961 0 0)
(1.74182198 0 0)
(1.33014441 0 0)
(0.616192356 0 0)
(0.989417184 0 0)
(2.01029709 0 0)
(2.11258361 0 0)
(1.11562005 0 0)
(1.08877024 0 0)
(2.21269065 0 0)
(2.54486918 0 0)
(1.91648002 0 0)
(1.72655259 0 0)
(2.22671029 0 0)
(2.3525363 0 0)
(2.13394103 0 0)
(2.08327354 0 0)
(2.21390444 0 0)
(2.26626777 0 0)
(2.17497643 0 0)
(2.27679317 0 0)
(2.47355645 0 0)
(2.42281706 0 0)
(2.33671975 0 0)
(2.48499012 0 0)
(2.62723882 0 0)
(2.52554661 0 0)
(2.41655019 0 0)
(2.55935632 0 0)
(2.70243431 0 0)
(2.60240492 0 0)
(2.47488305 0 0)
(2.59899956 0 0)
(2.74301504 0 0)
(2.65124198 0 0)
(2.50958984 0 0)
(2.60636811 0 0)
(2.75453203 0 0)
(2.66930376 0 0)
(2.51106637 0 0)
(2.57209062 0 0)
(2.71484928 0 0)
(2.64605423 0 0)
(2.48913064 0 0)
(2.49328937 0 0)
(2.62422262 0 0)
(2.65783072 0 0)
(2.5333788 0 0)
(2.41988473 0 0)
(2.48580461 0 0)
(2.63423364 0 0)
(2.5709674 0 0)
(2.36107682 0 0)
(2.34304052 0 0)
(2.50745748 0 0)
(2.46990159 0 0)
)
;

boundaryField
{
    closed
    {
        type            noSlip;
    }
    open
    {
        type            inletOutlet;
        inletValue      nonuniform List<vector> 0();
        value           nonuniform List<vector> 0();
    }
    sides
    {
        type            empty;
    }
    procBoundary4to3
    {
        type            processor;
        value           uniform (0.450271299 0 0);
    }
    procBoundary4to5
    {
        type            processor;
        value           uniform (2.26088154 0 0);
    }
}


// ************************************************************************* //
