/*--------------------------------*- C++ -*----------------------------------*\
| =========                 |                                                 |
| \\      /  F ield         | OpenFOAM: The Open Source CFD Toolbox           |
|  \\    /   O peration     | Version:  2306                                  |
|   \\  /    A nd           | Website:  www.openfoam.com                      |
|    \\/     M anipulation  |                                                 |
\*---------------------------------------------------------------------------*/
FoamFile
{
    version     2.0;
    format      ascii;
    arch        "LSB;label=32;scalar=64";
    class       volVectorField;
    location    "2e-05";
    object      U;
}
// * * * * * * * * * * * * * * * * * * * * * * * * * * * * * * * * * * * * * //

dimensions      [0 1 -1 0 0 0 0];

internalField   nonuniform List<vector> 
530
(
(0.0311382462 0 0)
(0.0484760404 0 0)
(0.0283097306 0 0)
(0.0161040509 0 0)
(0.00697380017 0 0)
(0.00251455653 0 0)
(0.00085745037 0 0)
(0.000241833276 0 0)
(7.1075892e-05 0 0)
(1.72426248e-05 0 0)
(4.56334025e-06 0 0)
(1.0118776e-06 0 0)
(2.48294016e-07 0 0)
(5.23922385e-08 0 0)
(1.21823666e-08 0 0)
(2.51023805e-09 0 0)
(5.53831495e-10 0 0)
(1.07536313e-10 0 0)
(1.89242699e-11 0 0)
(2.67398749e-12 0 0)
(6.17241978e-13 0 0)
(-4.32735602e-13 0 0)
(-7.53189182e-13 0 0)
(-7.41389646e-14 0 0)
(4.51689254e-14 0 0)
(2.44822203e-13 0 0)
(2.72349405e-13 0 0)
(3.61916385e-13 0 0)
(5.87011421e-13 0 0)
(6.92831658e-13 0 0)
(7.28571652e-13 0 0)
(2.49964202e-13 0 0)
(1.7505768e-13 0 0)
(1.0234906e-13 0 0)
(2.10027614e-14 0 0)
(-5.70822449e-14 0 0)
(-9.4603026e-14 0 0)
(1.00466793e-13 0 0)
(4.22414445e-13 0 0)
(7.08616355e-13 0 0)
(9.20919074e-13 0 0)
(8.30655915e-13 0 0)
(7.92665095e-13 0 0)
(8.52461237e-13 0 0)
(8.58510322e-13 0 0)
(4.93225404e-13 0 0)
(6.322235e-13 0 0)
(5.86292899e-13 0 0)
(7.65711309e-13 0 0)
(4.44084037e-13 0 0)
(2.39991308e-13 0 0)
(2.89614919e-14 0 0)
(-1.66535624e-13 0 0)
(-3.68182204e-13 0 0)
(-6.1593273e-13 0 0)
(-3.5500305e-13 0 0)
(-6.23204694e-13 0 0)
(-3.87087757e-13 0 0)
(-6.15258097e-13 0 0)
(-1.726643e-13 0 0)
(-4.98505635e-13 0 0)
(-5.14657276e-14 0 0)
(-3.42781469e-13 0 0)
(-9.71416548e-13 0 0)
(-1.96286506e-14 0 0)
(-8.1036804e-13 0 0)
(-6.12827597e-13 0 0)
(-1.38107006e-12 0 0)
(-9.45035248e-13 0 0)
(-1.07865114e-12 0 0)
(-1.59522913e-12 0 0)
(-9.13495546e-13 0 0)
(-6.7751768e-13 0 0)
(-1.5354218e-12 0 0)
(-2.40773034e-12 0 0)
(-9.88113314e-13 0 0)
(-9.90818712e-13 0 0)
(-1.5109233e-12 0 0)
(-1.17470986e-12 0 0)
(-9.37383179e-13 0 0)
(-1.00362591e-12 0 0)
(-1.0356825e-12 0 0)
(-2.22523817e-12 0 0)
(-5.17898091e-13 0 0)
(-1.28392398e-12 0 0)
(-1.75506854e-12 0 0)
(-5.68692987e-13 0 0)
(-8.11278363e-13 0 0)
(-9.09144084e-13 0 0)
(-3.61979511e-13 0 0)
(-6.44058014e-13 0 0)
(-9.11000018e-13 0 0)
(1.36582778e-15 0 0)
(2.38389012e-13 0 0)
(-1.11446477e-12 0 0)
(-7.37551875e-13 0 0)
(1.01495145e-13 0 0)
(-5.56806488e-14 0 0)
(-6.69827242e-14 0 0)
(8.22809635e-14 0 0)
(8.63871814e-13 0 0)
(3.01967355e-13 0 0)
(-8.95709508e-15 0 0)
(1.94105339e-14 0 0)
(5.42068569e-13 0 0)
(3.04328189e-13 0 0)
(-2.08949221e-13 0 0)
(-2.7802233e-13 0 0)
(-7.14302725e-14 0 0)
(-8.12703809e-13 0 0)
(-8.33299009e-13 0 0)
(-8.08728609e-13 0 0)
(1.72457088e-13 0 0)
(-7.97497541e-13 0 0)
(5.65572237e-13 0 0)
(2.92671666e-13 0 0)
(-1.15593327e-12 0 0)
(-3.21854012e-13 0 0)
(8.02059132e-14 0 0)
(6.07855632e-14 0 0)
(1.67911498e-13 0 0)
(2.24274559e-13 0 0)
(1.40485537e-12 0 0)
(1.73626284e-12 0 0)
(8.50694055e-13 0 0)
(2.50180832e-13 0 0)
(1.23190087e-12 0 0)
(1.27368573e-12 0 0)
(2.19270618e-13 0 0)
(1.3826118e-12 0 0)
(7.23073827e-13 0 0)
(2.11968565e-13 0 0)
(1.04858272e-12 0 0)
(7.74679806e-13 0 0)
(7.06895397e-13 0 0)
(1.00736844e-12 0 0)
(5.46431893e-13 0 0)
(1.32811376e-12 0 0)
(1.42632751e-12 0 0)
(1.16572997e-12 0 0)
(1.51996169e-12 0 0)
(1.9933903e-12 0 0)
(7.07553304e-13 0 0)
(2.09780283e-12 0 0)
(1.40745645e-12 0 0)
(5.45018641e-13 0 0)
(9.76254188e-13 0 0)
(9.61372924e-13 0 0)
(8.14011374e-13 0 0)
(1.65424178e-12 0 0)
(1.15529429e-13 0 0)
(1.44202013e-12 0 0)
(-2.17154002e-13 0 0)
(1.67639426e-12 0 0)
(2.41902861e-13 0 0)
(4.02960101e-14 0 0)
(3.10607873e-13 0 0)
(3.02396166e-15 0 0)
(5.40389813e-15 0 0)
(2.08321865e-13 0 0)
(2.70139032e-13 0 0)
(-4.73335328e-13 0 0)
(6.07052888e-15 0 0)
(-7.90343383e-14 0 0)
(6.15637573e-13 0 0)
(4.36729236e-13 0 0)
(1.84524442e-12 0 0)
(1.04608643e-12 0 0)
(1.02247574e-12 0 0)
(7.26477699e-13 0 0)
(1.61082298e-12 0 0)
(8.91572935e-13 0 0)
(1.62784493e-12 0 0)
(1.98971881e-13 0 0)
(1.5294507e-12 0 0)
(4.47544239e-13 0 0)
(8.08136782e-13 0 0)
(2.81115839e-13 0 0)
(1.04034723e-12 0 0)
(-5.74386411e-13 0 0)
(2.95801744e-13 0 0)
(-1.03280118e-12 0 0)
(2.08662801e-13 0 0)
(-5.94390555e-13 0 0)
(-8.95309331e-13 0 0)
(-5.95726999e-13 0 0)
(5.47572513e-13 0 0)
(-4.40105873e-13 0 0)
(4.99918438e-13 0 0)
(-8.91433191e-13 0 0)
(8.65494117e-13 0 0)
(-5.8788697e-14 0 0)
(-6.26723049e-13 0 0)
(-5.70314987e-13 0 0)
(6.54976259e-13 0 0)
(1.54108138e-13 0 0)
(2.26550225e-13 0 0)
(-6.88596338e-13 0 0)
(-9.0797799e-13 0 0)
(-1.14398398e-12 0 0)
(-1.16912623e-12 0 0)
(-1.30685019e-12 0 0)
(-1.03388839e-12 0 0)
(-1.29769832e-12 0 0)
(-1.22239691e-12 0 0)
(-9.68240305e-13 0 0)
(-1.85790798e-12 0 0)
(-5.55444887e-13 0 0)
(-2.73427306e-12 0 0)
(-1.32091103e-12 0 0)
(-1.52598034e-12 0 0)
(-1.87640167e-12 0 0)
(4.41958319e-14 0 0)
(-1.05919049e-12 0 0)
(-6.7354477e-13 0 0)
(-2.84254925e-13 0 0)
(-6.88789204e-13 0 0)
(2.35790377e-13 0 0)
(-2.32899199e-13 0 0)
(-1.17798482e-12 0 0)
(-1.16630618e-12 0 0)
(-1.1573598e-12 0 0)
(-1.73387483e-12 0 0)
(-1.57554032e-12 0 0)
(-1.81308727e-12 0 0)
(-1.62114777e-12 0 0)
(-9.68014772e-13 0 0)
(-2.0651466e-12 0 0)
(-1.51406012e-12 0 0)
(-1.44987414e-12 0 0)
(-2.07638525e-12 0 0)
(-9.9905659e-13 0 0)
(-2.6250859e-12 0 0)
(-2.45526002e-12 0 0)
(-2.08081342e-12 0 0)
(-1.45442831e-12 0 0)
(-2.07326677e-12 0 0)
(-1.69300705e-12 0 0)
(-1.33594766e-12 0 0)
(-1.51496194e-12 0 0)
(-7.94365385e-13 0 0)
(-1.99557332e-12 0 0)
(-1.83381167e-12 0 0)
(-1.56784166e-12 0 0)
(-2.23073704e-12 0 0)
(-1.90318012e-12 0 0)
(-1.91082882e-12 0 0)
(-2.05844095e-12 0 0)
(-2.88055198e-12 0 0)
(-1.18708181e-12 0 0)
(-1.98731255e-12 0 0)
(-2.37797842e-12 0 0)
(-1.69852144e-12 0 0)
(-1.05377713e-12 0 0)
(-8.92189874e-13 0 0)
(9.51663644e-14 0 0)
(-3.42892038e-13 0 0)
(-5.97845666e-14 0 0)
(-1.31056619e-12 0 0)
(-1.17245423e-12 0 0)
(-1.34726188e-12 0 0)
(1.02257651e-13 0 0)
(-1.13294264e-12 0 0)
(-7.74738099e-13 0 0)
(-1.16451721e-12 0 0)
(-8.73469995e-13 0 0)
(-3.87405164e-13 0 0)
(-8.9823108e-13 0 0)
(-9.66863557e-13 0 0)
(-3.91466656e-13 0 0)
(-3.67420244e-13 0 0)
(-1.07506515e-12 0 0)
(-1.11184491e-12 0 0)
(-5.38186028e-13 0 0)
(-2.09549413e-12 0 0)
(-8.67310495e-13 0 0)
(-1.02692583e-12 0 0)
(-5.3947031e-13 0 0)
(-9.35725367e-13 0 0)
(-3.83446503e-13 0 0)
(-4.80552672e-13 0 0)
(-1.17815493e-12 0 0)
(-3.56949564e-13 0 0)
(-9.6001849e-13 0 0)
(-7.26182104e-13 0 0)
(-5.34584397e-13 0 0)
(4.72839056e-13 0 0)
(-3.86682293e-13 0 0)
(-9.54878405e-13 0 0)
(-2.22312352e-13 0 0)
(-3.46384307e-13 0 0)
(-7.2783537e-13 0 0)
(-1.48612709e-13 0 0)
(-1.66814947e-12 0 0)
(2.53228321e-13 0 0)
(-1.00084327e-12 0 0)
(-7.81766958e-13 0 0)
(-8.83155684e-13 0 0)
(-1.0363217e-12 0 0)
(-1.0865035e-12 0 0)
(-7.83147557e-13 0 0)
(-8.12419782e-13 0 0)
(-4.54921589e-13 0 0)
(-2.25138561e-13 0 0)
(1.6675044e-13 0 0)
(-2.80014782e-13 0 0)
(-6.48297882e-13 0 0)
(-9.69270068e-13 0 0)
(-7.40538939e-13 0 0)
(-8.72113993e-13 0 0)
(-4.11338457e-13 0 0)
(-1.19024444e-12 0 0)
(-1.00369697e-12 0 0)
(-8.02678977e-13 0 0)
(-9.87982299e-13 0 0)
(-9.09256236e-13 0 0)
(-3.70169906e-13 0 0)
(-1.18686874e-12 0 0)
(-6.55837352e-13 0 0)
(-1.1762263e-12 0 0)
(-1.17120512e-12 0 0)
(3.0505882e-13 0 0)
(3.19101248e-13 0 0)
(-1.32208413e-12 0 0)
(-8.78232202e-14 0 0)
(-4.12054648e-13 0 0)
(1.54774871e-13 0 0)
(7.37984157e-13 0 0)
(-1.17791908e-12 0 0)
(1.93698341e-13 0 0)
(-6.12953852e-13 0 0)
(-7.58738711e-13 0 0)
(-3.08330698e-13 0 0)
(-1.11917223e-12 0 0)
(-2.67991818e-13 0 0)
(-3.84569746e-13 0 0)
(-1.66137611e-13 0 0)
(-1.59971261e-13 0 0)
(-3.51090951e-13 0 0)
(3.66227093e-15 0 0)
(-1.95844799e-13 0 0)
(-2.30808585e-13 0 0)
(-5.39964219e-13 0 0)
(-7.91456274e-13 0 0)
(-1.01055106e-12 0 0)
(-6.52136206e-13 0 0)
(-1.24014721e-12 0 0)
(3.81728476e-14 0 0)
(-1.32145241e-12 0 0)
(6.71740444e-14 0 0)
(-2.18524885e-13 0 0)
(-1.66825727e-12 0 0)
(-2.63127173e-13 0 0)
(3.4283669e-13 0 0)
(-1.03598043e-12 0 0)
(2.05372515e-14 0 0)
(-5.38383009e-13 0 0)
(3.53712395e-13 0 0)
(1.14128646e-12 0 0)
(-1.10813343e-13 0 0)
(-2.69872555e-14 0 0)
(2.2166302e-16 0 0)
(-1.1457508e-13 0 0)
(-3.57170087e-14 0 0)
(-6.28059457e-13 0 0)
(-6.12409028e-13 0 0)
(-8.94073721e-13 0 0)
(2.76817713e-13 0 0)
(-6.36372419e-13 0 0)
(1.16450713e-13 0 0)
(-3.28576186e-13 0 0)
(2.84443812e-13 0 0)
(-8.7836261e-14 0 0)
(2.25031182e-14 0 0)
(-2.20394816e-13 0 0)
(1.97189998e-12 0 0)
(4.47437279e-13 0 0)
(8.85325526e-13 0 0)
(1.52847762e-12 0 0)
(1.34732574e-12 0 0)
(1.46809955e-12 0 0)
(8.10234755e-13 0 0)
(1.46677566e-14 0 0)
(5.02926007e-13 0 0)
(1.26121757e-12 0 0)
(1.36680767e-12 0 0)
(3.90943375e-13 0 0)
(1.95642296e-12 0 0)
(1.27251865e-12 0 0)
(9.91611693e-13 0 0)
(6.32326981e-13 0 0)
(6.76472082e-13 0 0)
(7.22137239e-13 0 0)
(9.75831493e-13 0 0)
(5.26192281e-13 0 0)
(3.77476033e-13 0 0)
(5.16743961e-14 0 0)
(4.60829839e-14 0 0)
(5.85572256e-13 0 0)
(-7.3997845e-13 0 0)
(-9.10423999e-13 0 0)
(-9.68267782e-13 0 0)
(-3.13539289e-14 0 0)
(-1.94335575e-13 0 0)
(-2.93663204e-13 0 0)
(1.74205611e-13 0 0)
(-2.83285257e-13 0 0)
(-7.45947791e-13 0 0)
(-8.25696275e-13 0 0)
(-1.12944778e-12 0 0)
(-3.11270721e-13 0 0)
(-4.19986338e-13 0 0)
(-1.25967299e-13 0 0)
(7.46867308e-13 0 0)
(4.07396084e-13 0 0)
(-6.19657648e-13 0 0)
(6.69027136e-13 0 0)
(-4.87253523e-13 0 0)
(6.14629684e-13 0 0)
(5.50948367e-13 0 0)
(-1.74989282e-13 0 0)
(-4.36696229e-13 0 0)
(-5.2091932e-13 0 0)
(5.77193479e-14 0 0)
(2.41763459e-13 0 0)
(2.44396604e-13 0 0)
(3.56958806e-13 0 0)
(9.72476648e-14 0 0)
(-6.65732736e-13 0 0)
(-4.92091547e-13 0 0)
(-5.43313917e-13 0 0)
(-5.73830362e-13 0 0)
(-7.92247328e-13 0 0)
(-1.84760581e-13 0 0)
(1.98700455e-14 0 0)
(-4.70239564e-13 0 0)
(-1.3152126e-13 0 0)
(1.86227358e-13 0 0)
(-1.58030316e-14 0 0)
(-1.4695657e-12 0 0)
(-5.351552e-13 0 0)
(-1.27089706e-12 0 0)
(-7.59757421e-13 0 0)
(-7.2047392e-13 0 0)
(-1.04811182e-12 0 0)
(-1.46926091e-12 0 0)
(-1.97193955e-12 0 0)
(-4.74411963e-13 0 0)
(-1.30705716e-12 0 0)
(-1.08617545e-12 0 0)
(-1.71784003e-12 0 0)
(-1.42777505e-12 0 0)
(2.80098051e-14 0 0)
(-6.45817027e-13 0 0)
(-6.83454698e-13 0 0)
(-6.10444788e-13 0 0)
(-1.40174351e-12 0 0)
(-1.56155133e-12 0 0)
(-1.44095101e-12 0 0)
(-1.23514474e-12 0 0)
(-9.19568269e-13 0 0)
(-1.79127334e-12 0 0)
(-1.07226802e-12 0 0)
(-8.98461284e-13 0 0)
(-2.68354947e-12 0 0)
(-2.5128198e-12 0 0)
(-1.74683698e-12 0 0)
(-9.68897881e-13 0 0)
(-1.71211285e-12 0 0)
(-6.57509404e-13 0 0)
(-1.06462515e-12 0 0)
(-1.90132878e-12 0 0)
(-1.23581643e-12 0 0)
(-1.05166762e-12 0 0)
(-1.46353894e-12 0 0)
(-1.72904425e-12 0 0)
(-4.94128618e-13 0 0)
(-1.80605489e-12 0 0)
(-8.93594449e-13 0 0)
(-4.98598637e-13 0 0)
(-9.25311695e-13 0 0)
(-8.59391564e-13 0 0)
(-5.68047632e-13 0 0)
(-9.77901046e-13 0 0)
(-9.21169722e-13 0 0)
(-2.08725407e-12 0 0)
(-2.26782366e-12 0 0)
(-2.72708131e-12 0 0)
(-1.7938982e-12 0 0)
(-2.56679236e-12 0 0)
(-2.36988261e-12 0 0)
(-2.33878449e-12 0 0)
(-2.63510628e-12 0 0)
(-2.94153283e-12 0 0)
(-2.11807747e-12 0 0)
(-2.69126513e-12 0 0)
(-2.06750251e-12 0 0)
(-1.86060539e-12 0 0)
(-1.3151299e-12 0 0)
(-1.47379583e-12 0 0)
(-2.69727445e-12 0 0)
(-1.40793481e-12 0 0)
(-2.08261552e-12 0 0)
(-8.24803171e-13 0 0)
(-1.30534075e-12 0 0)
(-1.01414069e-12 0 0)
(-1.91978981e-13 0 0)
(-1.63239415e-12 0 0)
(-1.37373445e-12 0 0)
(-1.5600321e-12 0 0)
(-2.25015595e-12 0 0)
(-2.18852424e-12 0 0)
(-1.26453289e-12 0 0)
(-1.08880736e-12 0 0)
(-6.01985529e-13 0 0)
(-1.57034347e-12 0 0)
(-1.30207713e-12 0 0)
(-1.20094866e-12 0 0)
(-8.71669627e-13 0 0)
(-1.01266691e-12 0 0)
(-6.17840232e-13 0 0)
(-1.27773174e-12 0 0)
(-1.49307417e-12 0 0)
(-4.06456552e-13 0 0)
(-3.01908609e-12 0 0)
(-2.28118529e-12 0 0)
(-1.39739634e-12 0 0)
(-2.04751511e-12 0 0)
(-1.84256207e-12 0 0)
(-1.06318233e-12 0 0)
)
;

boundaryField
{
    closed
    {
        type            noSlip;
    }
    open
    {
        type            inletOutlet;
        inletValue      nonuniform List<vector> 0();
        value           nonuniform List<vector> 0();
    }
    sides
    {
        type            empty;
    }
    procBoundary0to1
    {
        type            processor;
        value           uniform (-1.05121345e-12 0 0);
    }
}


// ************************************************************************* //
