/*--------------------------------*- C++ -*----------------------------------*\
| =========                 |                                                 |
| \\      /  F ield         | OpenFOAM: The Open Source CFD Toolbox           |
|  \\    /   O peration     | Version:  2306                                  |
|   \\  /    A nd           | Website:  www.openfoam.com                      |
|    \\/     M anipulation  |                                                 |
\*---------------------------------------------------------------------------*/
FoamFile
{
    version     2.0;
    format      ascii;
    arch        "LSB;label=32;scalar=64";
    class       volScalarField;
    location    "0.00076";
    object      p;
}
// * * * * * * * * * * * * * * * * * * * * * * * * * * * * * * * * * * * * * //

dimensions      [1 -1 -2 0 0 0 0];

internalField   nonuniform List<scalar> 
531
(
101600.912
101600.2
101599.394
101598.558
101597.743
101596.965
101596.237
101595.409
101594.55
101593.702
101592.902
101592.157
101591.317
101590.446
101589.59
101588.749
101586.945
101586.119
101585.361
101584.612
101583.844
101583.075
101582.553
101581.566
101580.616
101579.62
101578.594
101577.591
101576.634
101575.734
101574.713
101573.638
101572.594
101571.619
101570.709
101569.729
101568.734
101567.911
101567.152
101566.167
101565.155
101564.138
101563.044
101561.915
101560.697
101559.428
101558.186
101556.944
101555.713
101553.28
101552.141
101551.048
101549.974
101548.907
101547.656
101546.35
101545.198
101544.092
101542.848
101541.575
101540.31
101539.065
101536.769
101535.591
101534.484
101533.357
101532.257
101531.205
101530.018
101528.757
101527.531
101526.371
101525.277
101524.042
101522.8
101521.777
101520.865
101519.868
101518.864
101516.943
101516
101515.107
101514.05
101512.972
101511.952
101510.997
101510.114
101510.07
101508.752
101507.533
101506.375
101505.246
101504.188
101503.234
101502.337
101501.383
101500.447
101499.668
101498.996
101499.151
101498.124
101497.225
101496.465
101495.826
101495.146
101494.484
101493.932
101493.473
101492.946
101492.431
101491.955
101491.555
101491.235
101490.853
101490.461
101490.182
101489.987
101489.728
101489.468
101489.284
101489.095
101488.96
101488.773
101488.599
101488.45
101488.331
101488.267
101488.134
101488.013
101487.907
101487.835
101487.817
101487.713
101487.61
101487.515
101487.476
101487.488
101487.426
101487.332
101487.307
101487.348
101487.288
101487.189
101487.144
101487.16
101487.109
101487.018
101486.921
101486.84
101485.852
101485.913
101486.017
101486.119
101486.248
101486.324
101486.348
101486.367
101486.361
101486.38
101486.437
101486.415
101486.391
101486.41
101486.396
101486.325
101486.295
101486.323
101486.292
101486.23
101486.205
101486.221
101486.17
101486.131
101486.08
101486.041
101486.035
101485.962
101485.889
101485.808
101485.751
101485.732
101485.649
101485.538
101485.461
101485.419
101485.301
101485.169
101485.027
101484.909
101484.821
101484.661
101484.47
101484.314
101484.19
101483.993
101483.784
101483.569
101483.39
101483.259
101483.696
101483.328
101483.022
101482.794
101482.638
101482.464
101482.296
101482.179
101482.119
101482.019
101481.951
101481.881
101481.805
101481.768
101481.779
101481.759
101481.73
101481.732
101481.776
101481.779
101481.795
101481.804
101481.831
101481.882
101481.886
101481.897
101481.895
101481.909
101481.945
101481.929
101481.918
101481.896
101481.895
101481.922
101481.907
101481.871
101481.856
101481.872
101481.845
101481.831
101481.805
101481.792
101481.803
101481.77
101481.742
101481.71
101481.699
101481.716
101481.689
101481.643
101481.668
101481.738
101481.688
101481.644
101481.836
101482.059
101482.263
101482.458
101482.659
101482.891
101483.085
101483.35
101483.654
101483.844
101484.044
101484.277
101484.503
101484.761
101485.001
101485.27
101485.533
101485.808
101486.108
101486.391
101486.699
101487.006
101487.334
101487.688
101488.037
101488.377
101488.711
101489.081
101489.448
101489.806
101490.156
101490.535
101490.9
101491.296
101491.682
101492.085
101492.502
101492.925
101493.338
101493.782
101494.212
101494.661
101495.121
101495.584
101496.031
101496.515
101497.003
101497.486
101497.929
101498.395
101498.856
101499.295
101499.706
101500.136
101500.555
101500.959
101501.349
101501.737
101502.13
101502.5
101502.878
101503.232
101503.577
101504.086
101504.58
101505.049
101505.475
101505.907
101506.321
101506.752
101507.166
101507.582
101508.008
101508.427
101508.872
101509.301
101509.732
101510.174
101510.609
101511.069
101511.501
101511.906
101512.441
101512.963
101513.502
101514.013
101514.526
101515.034
101515.54
101516.068
101516.575
101517.088
101517.599
101518.115
101518.66
101519.185
101519.721
101520.254
101520.799
101521.38
101521.944
101522.52
101523.094
101523.686
101524.32
101524.939
101525.575
101526.204
101526.86
101527.562
101528.246
101528.949
101529.636
101530.363
101531.156
101531.926
101532.721
101533.397
101534.177
101535.104
101535.971
101536.704
101537.543
101538.458
101539.376
101540.302
101541.218
101542.145
101543.111
101544.128
101545.167
101546.182
101547.25
101548.325
101549.342
101550.398
101551.506
101552.673
101553.878
101554.973
101556.083
101557.307
101558.543
101559.69
101560.858
101562.136
101563.405
101564.624
101565.788
101566.959
101568.247
101569.537
101570.743
101571.972
101573.32
101574.669
101575.968
101577.212
101578.472
101579.868
101581.26
101582.562
101583.879
101585.326
101586.776
101588.124
101589.492
101590.974
101592.46
101593.921
101595.328
101596.75
101598.295
101599.811
101601.338
101602.84
101604.223
101605.611
101607.085
101608.613
101610.123
101611.476
101612.826
101614.264
101615.704
101617.106
101618.434
101619.753
101621.137
101622.553
101623.928
101625.278
101626.596
101627.835
101629.096
101630.421
101631.739
101633.011
101634.206
101635.424
101636.699
101637.967
101639.19
101640.324
101641.469
101642.685
101643.852
101644.868
101645.899
101646.971
101648.03
101649.031
101649.94
101650.864
101651.834
101652.746
101653.506
101654.282
101655.064
101655.828
101656.535
101657.185
101657.832
101658.493
101659.081
101659.527
101659.985
101660.465
101660.88
101661.166
101661.459
101661.713
101661.923
101662.111
101662.263
101662.378
101662.496
101662.611
101662.345
101662.131
101661.851
101661.537
101661.244
101660.895
101660.499
101660.134
101659.714
101659.297
101658.814
101658.273
101657.752
101657.194
101656.597
101656.066
101655.39
101654.705
101654.028
101653.377
101652.406
101651.472
101650.494
101649.516
101648.585
101647.524
101646.445
101645.379
101644.316
101643.228
101642.109
101641.057
101639.858
101638.642
101637.524
101636.374
101635.277
101634.004
101632.747
101631.512
)
;

boundaryField
{
    closed
    {
        type            zeroGradient;
    }
    open
    {
        type            waveTransmissive;
        gamma           1.25;
        fieldInf        101325;
        lInf            1;
        value           nonuniform List<scalar> 0();
    }
    sides
    {
        type            empty;
    }
    procBoundary1to0
    {
        type            processor;
        value           uniform 101601.682;
    }
    procBoundary1to2
    {
        type            processor;
        value           uniform 101630.259;
    }
}


// ************************************************************************* //
