/*--------------------------------*- C++ -*----------------------------------*\
| =========                 |                                                 |
| \\      /  F ield         | OpenFOAM: The Open Source CFD Toolbox           |
|  \\    /   O peration     | Version:  2306                                  |
|   \\  /    A nd           | Website:  www.openfoam.com                      |
|    \\/     M anipulation  |                                                 |
\*---------------------------------------------------------------------------*/
FoamFile
{
    version     2.0;
    format      ascii;
    arch        "LSB;label=32;scalar=64";
    class       volScalarField;
    location    "0.00042";
    object      prefDPV_T;
}
// * * * * * * * * * * * * * * * * * * * * * * * * * * * * * * * * * * * * * //

dimensions      [1 -1 -1 -1 0 0 0];

internalField   nonuniform List<scalar> 
530
(
5.99002892e-10
5.97636536e-10
5.97549431e-10
5.97549781e-10
5.97549775e-10
5.97549775e-10
5.97549775e-10
5.97549775e-10
5.97549775e-10
5.97549775e-10
5.97549775e-10
5.97549775e-10
5.97549775e-10
5.97549775e-10
5.97549775e-10
5.97549775e-10
5.97549775e-10
5.97549775e-10
5.97549775e-10
5.97549775e-10
5.97549775e-10
5.97549775e-10
5.97549775e-10
5.97549775e-10
5.97549775e-10
5.97549775e-10
5.97549775e-10
5.97549775e-10
5.97549775e-10
5.97549775e-10
5.97549775e-10
5.97549775e-10
5.97549775e-10
5.97549775e-10
5.97549775e-10
5.97549775e-10
5.97549775e-10
5.97549775e-10
5.97549775e-10
5.97549775e-10
5.97549775e-10
5.97549775e-10
5.97549775e-10
5.97549775e-10
5.97549775e-10
5.97549775e-10
5.97549775e-10
5.97549775e-10
5.97549775e-10
5.97549775e-10
5.97549775e-10
5.97549775e-10
5.97549775e-10
5.97549775e-10
5.97549775e-10
5.97549775e-10
5.97549775e-10
5.97549775e-10
5.97549775e-10
5.97549775e-10
5.97549775e-10
5.97549775e-10
5.97549775e-10
5.97549775e-10
5.97549775e-10
5.97549775e-10
5.97549775e-10
5.97549775e-10
5.97549775e-10
5.97549775e-10
5.97549775e-10
5.97549775e-10
5.97549775e-10
5.97549775e-10
5.97549775e-10
5.97549775e-10
5.97549775e-10
5.97549775e-10
5.97549775e-10
5.97549775e-10
5.97549777e-10
5.97549777e-10
5.97549763e-10
5.97549828e-10
5.97550014e-10
5.97549079e-10
5.97550125e-10
5.97554338e-10
5.97554206e-10
5.97524997e-10
5.9749095e-10
5.97621745e-10
5.97929859e-10
5.97603537e-10
5.96028847e-10
5.96581492e-10
6.004339e-10
6.00651751e-10
5.93201109e-10
5.90846631e-10
5.91589737e-10
6.101346e-10
6.08938069e-10
6.06886303e-10
5.90479474e-10
5.89946425e-10
5.96400753e-10
6.1028911e-10
6.08717188e-10
5.91120274e-10
5.89884672e-10
5.94731879e-10
6.10570654e-10
6.07363125e-10
5.91496594e-10
5.94014382e-10
6.10754533e-10
6.08427573e-10
5.90636968e-10
5.89448481e-10
5.93916163e-10
6.10636144e-10
6.07460298e-10
5.91415833e-10
5.93928905e-10
6.1055974e-10
6.0900586e-10
5.90730471e-10
5.89655999e-10
5.93767933e-10
6.10525711e-10
6.07740101e-10
5.91269048e-10
5.93690968e-10
6.10416074e-10
6.08746986e-10
5.9062279e-10
5.89476502e-10
5.93603486e-10
6.10492914e-10
6.08037427e-10
5.90843952e-10
5.92767715e-10
6.1039784e-10
6.07947537e-10
5.90943437e-10
5.93006888e-10
6.10263362e-10
6.08825735e-10
5.90605935e-10
5.8948983e-10
5.94413864e-10
6.09929982e-10
6.08425476e-10
5.91387137e-10
5.94110478e-10
6.0961201e-10
6.09043976e-10
5.91336346e-10
5.90256009e-10
5.90007365e-10
5.94917865e-10
6.09637075e-10
6.10141519e-10
5.90902545e-10
5.89842147e-10
5.94711617e-10
6.09679155e-10
6.08612752e-10
5.90890317e-10
5.93183533e-10
6.09534236e-10
6.08108848e-10
5.90786012e-10
5.93160731e-10
6.09487193e-10
6.08611653e-10
5.90375958e-10
5.89445371e-10
5.94196193e-10
6.0955052e-10
6.07818449e-10
5.90956691e-10
5.93807709e-10
6.09294506e-10
6.08426944e-10
5.90374952e-10
5.89332552e-10
5.94219165e-10
6.09742188e-10
6.06889811e-10
5.90562853e-10
5.93088347e-10
6.09661811e-10
6.06120712e-10
5.90220492e-10
5.92559076e-10
6.09833432e-10
6.05487322e-10
5.90097196e-10
5.92458808e-10
6.09828299e-10
6.05383046e-10
5.90147658e-10
5.92696031e-10
6.09666861e-10
6.05759616e-10
5.90455537e-10
5.93334186e-10
6.09386026e-10
6.07928279e-10
5.90132565e-10
5.89376375e-10
5.94620786e-10
6.0956073e-10
6.05993554e-10
5.9053044e-10
5.93853843e-10
6.09267404e-10
6.05668173e-10
5.90438781e-10
5.93712407e-10
6.09166835e-10
6.08406562e-10
5.90005673e-10
5.89191475e-10
5.95420214e-10
6.09486426e-10
6.05098022e-10
5.90403505e-10
5.94341205e-10
6.0916731e-10
6.04632772e-10
5.90331416e-10
5.93995683e-10
6.09046287e-10
6.08719367e-10
5.89861879e-10
5.89227584e-10
5.96202281e-10
6.09286555e-10
6.04158779e-10
5.90562808e-10
5.94650801e-10
6.08827983e-10
6.10229143e-10
5.89999756e-10
5.89406686e-10
5.9739808e-10
6.09129877e-10
6.0429628e-10
5.90696749e-10
5.95087154e-10
6.08640748e-10
6.11191972e-10
5.90420697e-10
5.89741327e-10
5.8959835e-10
5.93976331e-10
6.08470941e-10
6.08768952e-10
5.93400588e-10
5.90259486e-10
5.98335339e-10
6.08757524e-10
6.0352291e-10
5.90592709e-10
5.94843951e-10
6.0836665e-10
6.10293325e-10
5.90692326e-10
5.90329026e-10
5.90285393e-10
5.90039951e-10
5.953902e-10
6.08354375e-10
6.08617633e-10
5.94214221e-10
5.9054064e-10
5.96506848e-10
6.08507744e-10
6.10571527e-10
5.90004524e-10
5.89415984e-10
5.96075945e-10
6.08964718e-10
6.10608154e-10
5.90237764e-10
5.8970871e-10
5.97372501e-10
6.08875458e-10
6.10704923e-10
5.90082674e-10
5.89277033e-10
5.96087683e-10
6.09146184e-10
6.07706498e-10
5.90526816e-10
5.93375281e-10
6.08609866e-10
6.10539725e-10
5.89806501e-10
5.89125185e-10
5.94726021e-10
6.09116756e-10
6.1081894e-10
5.90425987e-10
5.92938534e-10
6.08234721e-10
6.0952694e-10
5.91745492e-10
5.91820587e-10
5.93568965e-10
5.91206524e-10
5.90465963e-10
5.96850436e-10
6.08546568e-10
6.11813832e-10
5.90406711e-10
5.94500661e-10
6.08875325e-10
6.01330366e-10
5.9001799e-10
5.93382156e-10
6.08686381e-10
6.09778839e-10
5.89723797e-10
5.89034091e-10
5.95475458e-10
6.09380444e-10
6.04246852e-10
5.90263664e-10
5.97168519e-10
6.0924506e-10
5.98234989e-10
5.90021387e-10
5.94190153e-10
6.08743572e-10
6.09664696e-10
5.89601367e-10
5.89127476e-10
5.98033091e-10
6.09481815e-10
5.9869956e-10
5.90111257e-10
5.9462862e-10
6.08611376e-10
6.09473885e-10
5.90196369e-10
5.89602024e-10
5.94765856e-10
6.08834026e-10
6.09613158e-10
5.90108222e-10
5.89354303e-10
5.93329484e-10
6.08928973e-10
6.10115171e-10
5.90456084e-10
5.91451591e-10
6.08645324e-10
6.09983129e-10
5.89833427e-10
5.89133884e-10
5.92873898e-10
6.09207061e-10
6.10297115e-10
5.90311465e-10
5.93207413e-10
6.09287235e-10
6.01041793e-10
5.90020836e-10
5.9344137e-10
6.08730478e-10
6.09788176e-10
5.89920109e-10
5.89084025e-10
5.92877607e-10
6.09257777e-10
6.10799279e-10
5.90148578e-10
5.93069953e-10
6.09255516e-10
6.01256688e-10
5.90061974e-10
5.93150547e-10
6.08677744e-10
6.09722449e-10
5.90053741e-10
5.8915146e-10
5.92541521e-10
6.09097552e-10
6.10418567e-10
5.90270135e-10
5.91416132e-10
6.08588688e-10
6.09890053e-10
5.9013725e-10
5.89285568e-10
5.92384199e-10
6.09232485e-10
6.10373688e-10
5.90033457e-10
5.91377343e-10
6.09118536e-10
6.09795546e-10
5.89838689e-10
5.91657799e-10
6.08966841e-10
6.11969332e-10
5.89817755e-10
5.91236303e-10
6.08517556e-10
6.09556249e-10
5.90314694e-10
5.89137201e-10
5.91909487e-10
6.089455e-10
6.09526793e-10
5.90416242e-10
5.91062502e-10
6.08326087e-10
6.09037935e-10
5.90824756e-10
5.89975837e-10
5.9002764e-10
5.95122332e-10
6.08223202e-10
6.08829346e-10
5.91145444e-10
5.89551071e-10
5.92190975e-10
6.08473895e-10
6.086507e-10
5.91548358e-10
5.8956324e-10
5.91989855e-10
6.08471152e-10
6.08513197e-10
5.91850954e-10
5.89559757e-10
5.91655013e-10
6.08545355e-10
6.08550015e-10
5.91575926e-10
5.89331093e-10
5.91778755e-10
6.08676362e-10
6.09911422e-10
5.92374514e-10
5.94272374e-10
5.98127875e-10
5.9128823e-10
5.91428345e-10
6.08462252e-10
6.08418017e-10
5.92194245e-10
5.89012651e-10
5.90000991e-10
6.09368065e-10
6.08390712e-10
5.91007318e-10
5.90447662e-10
6.09740542e-10
6.08893931e-10
5.9226674e-10
5.89162494e-10
5.8991768e-10
6.09950107e-10
6.08632044e-10
5.91021338e-10
5.8999856e-10
6.11013744e-10
6.08781477e-10
5.90993486e-10
5.90222536e-10
6.11199327e-10
6.09187014e-10
5.92838166e-10
5.89067117e-10
5.89470446e-10
6.10785912e-10
6.08838423e-10
5.9165789e-10
5.90123553e-10
6.12380301e-10
6.08933592e-10
5.91731602e-10
5.90311796e-10
6.11934301e-10
6.0934014e-10
5.94209005e-10
5.89212041e-10
5.8914783e-10
6.11822126e-10
6.09032403e-10
5.92642252e-10
5.90200088e-10
6.09741958e-10
6.09147013e-10
5.92800539e-10
5.90415553e-10
6.09252491e-10
6.09573206e-10
5.95643737e-10
5.89386319e-10
5.89107764e-10
6.09355941e-10
6.09335717e-10
5.93908959e-10
5.90252968e-10
6.05922999e-10
6.09553067e-10
5.94025167e-10
5.90179552e-10
6.03858285e-10
6.09799177e-10
5.94334906e-10
5.90326073e-10
6.0336435e-10
6.09901394e-10
5.99933691e-10
5.89900303e-10
5.89458742e-10
6.04647271e-10
6.09628323e-10
5.96402377e-10
5.90805273e-10
6.02771005e-10
6.09996904e-10
)
;

boundaryField
{
    closed
    {
        type            calculated;
        value           uniform 7.29123976e-10;
    }
    open
    {
        type            calculated;
        value           nonuniform List<scalar> 0();
    }
    sides
    {
        type            empty;
    }
    procBoundary0to1
    {
        type            processor;
        value           uniform 6.00082549e-10;
    }
}


// ************************************************************************* //
