/*--------------------------------*- C++ -*----------------------------------*\
| =========                 |                                                 |
| \\      /  F ield         | OpenFOAM: The Open Source CFD Toolbox           |
|  \\    /   O peration     | Version:  2306                                  |
|   \\  /    A nd           | Website:  www.openfoam.com                      |
|    \\/     M anipulation  |                                                 |
\*---------------------------------------------------------------------------*/
FoamFile
{
    version     2.0;
    format      ascii;
    arch        "LSB;label=32;scalar=64";
    class       volScalarField;
    location    "0.00146";
    object      h;
}
// * * * * * * * * * * * * * * * * * * * * * * * * * * * * * * * * * * * * * //

dimensions      [0 2 -2 0 0 0 0];

internalField   nonuniform List<scalar> 
531
(
-4550.92382
4750.66865
9899.23938
4790.82057
-3907.17008
-4632.1807
4569.46273
9867.43653
4707.67513
-4072.1501
-4868.44268
4278.78795
9786.20705
4357.95161
-4394.15174
-5306.51905
3489.73462
9779.40973
2557.60005
-3233.26662
4332.04452
10008.6927
2160.42018
-2918.37228
4760.24417
9968.08322
4166.45096
-4322.74582
-5057.85178
4003.29791
9890.60507
4019.84135
-3150.08919
-5067.62123
-5443.88131
3087.95308
9514.61328
9793.35677
9768.94379
9964.88018
10107.97
5765.27255
-3357.03939
-5622.50844
-5958.89008
2134.23549
9408.22358
4293.64028
-5379.99979
-6197.85414
2341.28812
9682.28923
10148.298
4900.12642
-3972.7567
-5214.39499
2599.35944
9803.87814
3595.14963
-2418.79015
4330.80544
10043.394
4774.49261
-3305.54618
-4072.97105
-5237.97286
-5950.78419
474.494492
9198.2199
10040.1687
9762.17083
10210.2569
7501.22644
-3097.3134
-4973.80756
3048.08181
9695.24567
5925.25806
-3734.88268
-5020.13955
2690.26193
9641.83789
6092.5064
-3649.90989
-4887.38492
2869.82365
9694.3806
6351.50127
-3427.40093
-4626.02086
3131.34702
9783.82224
6725.58666
-3053.43972
-4275.61887
3561.14301
9944.5783
6259.85136
-1784.54543
-4318.04414
-4567.46266
1992.25024
9681.93526
4177.65144
-2356.89046
3410.87082
9863.08214
5989.37841
-3555.71487
-4685.81681
3296.57148
9734.13537
6141.13856
-3666.53393
-4775.58321
3324.58094
9702.24137
6077.82658
-4162.25537
-4896.50855
3867.72521
9796.57754
10132.0832
6046.17498
-2253.42643
-4808.87524
-5131.68517
1838.3168
9612.26942
3641.01148
-3136.4589
2856.63355
9772.91987
5660.84357
-4122.91673
-5006.76005
3575.67777
9803.24675
5640.52588
-4006.10002
-4675.17869
4240.56876
9918.2275
5550.70789
-3982.17867
-4511.22457
4680.09095
10043.4732
5841.50203
-3629.88979
-3988.90164
5456.9139
10215.3634
6777.87016
-3245.52127
-4244.1952
5077.66937
10039.3611
4964.2245
-4288.55043
-4807.72315
4643.79991
9952.24865
4561.52871
-4366.81415
-4849.07356
4270.0942
10099.7129
2133.72512
-2661.26626
5752.93413
10376.5307
3811.86898
-2550.30902
-4720.85267
-4722.26736
5436.047
10058.3608
4336.85861
-4538.01758
-4539.81688
6079.44353
10116.1881
4042.90552
-4482.02286
-4592.35506
5583.78204
10187.1023
310.441139
-3131.33443
7825.44125
10221.0051
2259.12241
-4936.41489
-4936.36704
5684.62871
10147.6629
-97.9426129
-3151.48298
8300.92928
10286.9819
2370.08368
-4810.11206
-4622.55661
7071.6406
10117.8764
3150.36276
-4972.13968
-4810.09394
7180.69646
10077.381
2657.5534
-5125.02416
-5011.95757
7047.77169
10196.5875
-658.1928
-3162.70485
8528.09056
10311.3752
2322.86537
-4873.00974
-4728.72622
8056.91349
10126.0454
2515.05863
-5218.35965
-5139.11263
8146.54214
9982.23753
1701.17232
-5808.99098
-5810.83509
5142.55021
9951.30562
9721.65475
10305.4843
10307.4051
3166.21667
-3510.82861
-4602.06366
-4628.41908
-7526.03903
-7527.7424
6262.15458
10118.0464
9857.96877
-1235.55271
-4350.88658
8485.11879
9972.9575
750.900152
-6191.28225
-6190.09633
8447.22884
10064.9063
-1750.85059
-3731.41647
8504.90105
10367.1921
-1536.05906
-3022.28094
8595.93581
10433.919
3559.44746
-4044.10182
-4041.64982
8681.44087
10462.6746
4537.63118
-2818.03905
-3503.88296
-5587.84194
-5789.50197
3293.45161
9810.10572
9899.65105
10284.7721
10286.3689
2171.11115
-3828.74655
-6144.12066
-6142.02922
8401.55916
10007.801
2434.56557
-5130.98216
-5131.66954
8737.7552
10103.3685
2677.30696
-5376.23531
-5380.06389
8683.09432
10233.9633
-1200.90829
-3288.03384
8751.04589
10263.8885
2011.88375
-5336.2056
-5337.36213
8602.16515
10022.1166
2197.63488
-5675.72802
-5679.90222
8627.41424
10191.9467
-1230.6808
-3407.41651
8718.96595
10265.6131
2139.25583
-5221.9836
-5222.17765
8590.47818
10082.7967
2678.09866
-5273.12495
-5274.95026
8598.9926
10091.5883
2874.81939
-5156.83895
-5157.85652
8694.54436
10338.2859
-665.878053
-2698.45116
8898.01819
10590.0596
1972.22374
-2733.69714
-5395.19517
-5394.18337
8445.83507
10135.3968
-2178.5458
-3973.3455
8557.53733
10373.8866
-2473.09768
-3156.23746
8400.78463
10544.5369
10180.7123
3582.78229
-3580.41503
-3849.95151
-6011.51446
-6012.90219
8474.01621
9876.80559
887.349205
-6356.81619
-6360.43708
8663.0494
10067.7729
-1986.53328
-3926.54816
8782.9818
10348.3307
-1944.90925
-3592.25731
8947.60993
10212.584
1488.97223
-5589.64583
-5593.48692
8829.19682
10173.9426
-1695.81853
-3793.31177
9065.55441
10176.0723
1249.8153
-5797.60478
-5800.95002
8915.63226
10130.4768
-1983.21734
-4028.39189
9155.48879
10123.2044
861.321556
-6034.46453
-6034.08236
9023.9678
10085.2364
-2281.51495
-4264.69826
9242.90261
10061.4714
406.180781
-6402.23312
-6402.80648
9164.23982
10042.9006
-2847.60887
-4459.64408
9058.98726
10259.4781
-3028.16447
-4157.1641
9154.14918
10301.2119
-2852.4023
-4086.9553
9451.84027
10117.3783
565.049824
-6281.33904
-6094.26959
9453.05263
10118.5158
-2707.99442
-4061.94562
9459.71576
10303.8688
-3476.1736
-4227.73836
9532.65127
10194.3356
1983.01957
-5757.84852
-5404.7491
9524.31276
10240.7926
-2754.36565
-3458.87265
9589.80955
10365.8404
3082.7075
-4989.38557
-4769.4455
9714.03935
10404.1498
1396.44348
-3132.47736
-5609.34313
-5497.94035
9276.38021
10040.518
552.05022
-5478.90779
-5363.23772
4892.14248
9996.431
-1726.68078
-4662.74855
8557.52386
10184.1943
-2926.0947
-4274.85275
8983.89279
10304.7662
-3256.58148
-3867.763
8592.96115
9959.46483
9625.55755
7329.60718
-3528.52852
-4418.47889
-6309.64924
-6252.05497
9057.38191
10031.0766
3728.09688
-5310.18042
-5247.2035
9279.36998
10265.0228
-2203.39927
-3529.49276
9300.03257
10437.1324
-2205.16183
-3421.35883
9280.90563
10319.9091
3173.77065
-5323.43038
-5248.89202
9076.99122
10090.3553
3517.88265
-5511.59677
-5496.85283
9131.56131
10233.8792
1423.77797
-3580.20802
-4071.69916
-5481.71638
242.456305
9627.94496
9982.43603
10052.5674
7660.62406
-4994.16542
-5921.21853
5534.55068
9989.42354
-1628.49666
-4269.40643
9177.92362
10125.2701
1578.65021
-5967.97917
-5957.00425
9134.41496
9976.60982
2331.20645
-5761.68671
-5731.26701
9197.89545
10033.2058
2697.76688
-5544.64866
-5519.53252
9195.77348
10086.442
3022.96888
-5318.47106
-5316.56152
9194.00147
10331.9598
4418.37749
-3271.50524
)
;

boundaryField
{
    closed
    {
        type            lookUpEnthalpy;
        h0              nonuniform List<scalar> 0();
        value           nonuniform List<scalar> 0();
    }
    open
    {
        type            zeroGradient;
    }
    sides
    {
        type            empty;
    }
    procBoundary3to2
    {
        type            processor;
        value           uniform -3886.38176;
    }
    procBoundary3to4
    {
        type            processor;
        value           uniform -3725.91044;
    }
}


// ************************************************************************* //
