/*--------------------------------*- C++ -*----------------------------------*\
| =========                 |                                                 |
| \\      /  F ield         | OpenFOAM: The Open Source CFD Toolbox           |
|  \\    /   O peration     | Version:  2306                                  |
|   \\  /    A nd           | Website:  www.openfoam.com                      |
|    \\/     M anipulation  |                                                 |
\*---------------------------------------------------------------------------*/
FoamFile
{
    version     2.0;
    format      ascii;
    arch        "LSB;label=32;scalar=64";
    class       volScalarField;
    location    "0.00146";
    object      prefDh_H2O;
}
// * * * * * * * * * * * * * * * * * * * * * * * * * * * * * * * * * * * * * //

dimensions      [1 1 -3 0 0 0 0];

internalField   nonuniform List<scalar> 
531
(
87.9320612
91.1177193
92.4503778
90.8083169
88.0262619
87.9200653
91.0089222
92.4561108
90.7768956
87.9967951
87.8831207
90.858398
92.4744595
90.6398893
87.9409138
87.7993074
90.4399905
92.4374219
89.8613664
88.1060228
90.9080898
92.354713
89.6972381
88.1631959
91.1460771
92.3981682
90.5583821
87.953843
87.8412704
90.6805536
92.4173119
90.4738609
88.1339792
87.8376355
87.7912991
90.2491542
92.5599154
92.4295474
92.4650479
92.4369188
92.3584469
91.4100538
88.0933858
87.7398891
87.7067298
89.828791
92.582682
90.6787067
87.7841138
87.6655131
89.911762
92.5231974
92.340664
90.8769211
87.99923
87.8213528
89.9792968
92.4544053
90.2966755
88.2467227
90.8457082
92.3812367
90.8413926
88.1062597
88.0082659
87.7918388
87.7154058
89.1352842
92.6835776
92.3249896
92.5451553
92.3413811
92.3913373
88.1189673
87.8852914
90.2062243
92.5143767
91.4491646
88.03149
87.8668369
90.0491799
92.5329395
91.5680803
88.04823
87.8870937
90.1289783
92.5201888
91.703864
88.0838889
87.9317415
90.2516884
92.5020285
91.9309936
88.1483058
87.982037
90.4383997
92.4261023
91.6009246
88.3863601
87.9655413
87.9072971
89.7269681
92.4956518
90.5967347
88.2504907
90.3737127
92.44709
91.4947256
88.0613983
87.9179789
90.338664
92.5070586
91.5508503
88.0479791
87.9095227
90.3664918
92.5235892
91.5277281
87.9791135
87.8894107
90.7173109
92.51892
92.3644859
91.4808728
88.2612518
87.8780795
87.8245644
89.6835984
92.5119356
90.3884254
88.1413346
90.1123184
92.4710313
91.3592661
87.9789824
87.8637804
90.4791224
92.4807196
91.2982274
88.007804
87.9197204
90.8308033
92.448769
91.2418052
88.0160022
87.9449449
91.0671359
92.4180183
91.3914065
88.0827528
88.030854
91.4764637
92.3642218
91.9162369
88.1251798
88.001514
91.2952628
92.4083668
90.9272324
87.9605929
87.8921068
91.0743468
92.420713
90.7707044
87.9458089
87.867623
90.8216611
92.3411203
89.6624024
88.1890241
91.6716735
92.253094
90.3443652
88.2110273
87.9136231
87.892187
91.4841839
92.4020109
90.614409
87.9433526
87.9332223
91.918276
92.3852463
90.4769483
87.9434102
87.9088956
91.5571647
92.3228185
89.0020285
88.129046
93.043076
92.3246377
89.6970213
87.8657919
87.847957
91.6262915
92.3276629
88.8771595
88.1270988
92.8401741
92.31869
89.7251782
87.9058607
87.9194315
92.6337356
92.3914064
90.0440007
87.8856678
87.8912351
92.7543621
92.4020754
89.8576098
87.861336
87.8416964
92.5335231
92.3221985
88.7119725
88.1317114
92.7765803
92.3285101
89.7040572
87.9119505
87.9122248
92.9814995
92.4043646
89.7544931
87.8599037
87.851892
92.9321209
92.432184
89.4654428
87.739286
87.7259479
91.3587736
92.4248693
92.4808999
92.3225151
92.3409797
90.0787874
88.0879145
87.922745
87.9201509
87.4606251
87.4569451
92.2330827
92.4036649
92.4667758
88.5479715
87.9776056
92.7912354
92.4457184
89.1576645
87.7073448
87.6610347
92.8642298
92.3536575
88.4202223
88.0320909
92.8344921
92.2613957
88.4724031
88.1512738
92.7942973
92.298985
90.1926159
88.0311878
88.023006
92.775387
92.2974959
90.6590631
88.188947
88.1004576
87.7457871
87.7219463
90.3725507
92.44323
92.3700216
92.3067752
92.3130564
89.6812255
88.0362246
87.6827924
87.6812031
92.8323337
92.4357441
89.745925
87.8645303
87.8499912
92.7549604
92.4102843
89.8540646
87.8200141
87.7894406
92.7718387
92.3162814
88.5583934
88.1114166
92.7421734
92.3269466
89.5992329
87.8096212
87.8047578
92.7867499
92.4127352
89.6854912
87.7642536
87.7363309
92.7964307
92.3242718
88.5490844
88.0931719
92.7644391
92.3290871
89.6496648
87.8287145
87.8210863
92.8160464
92.3940042
89.8542819
87.8239803
87.8187366
92.8157942
92.4021797
89.9569172
87.8480955
87.8177031
92.8022164
92.2800231
88.7100559
88.1854093
92.7396712
92.204807
89.5619337
88.174696
87.8187491
87.765141
92.8862175
92.3134782
88.3156498
87.9835186
92.844547
92.250916
88.269399
88.1171818
92.8896589
92.2442169
92.3968056
90.2834099
88.0983495
88.0387974
87.7167505
87.699893
92.8741209
92.461061
89.202839
87.6619632
87.6286474
92.834039
92.3620904
88.3435329
88.0116826
92.7754976
92.293049
88.3508895
88.0757008
92.7158299
92.3602837
89.4153372
87.7750762
87.7545051
92.7700611
92.3526012
88.4177506
88.0510455
92.6748139
92.3716369
89.3349764
87.7391129
87.7192048
92.7327809
92.360427
88.3373603
88.0133242
92.6374446
92.381643
89.2024456
87.6991091
87.681429
92.6900852
92.3727215
88.2654616
87.978148
92.5957888
92.4023329
89.0535681
87.6449975
87.6171684
92.6426447
92.3594
88.2035042
87.9202037
92.6611629
92.2936108
88.1779223
87.9661828
92.61491
92.2965332
88.1895411
87.9971569
92.5023373
92.3821008
89.1051645
87.6587897
87.6695057
92.5178452
92.3488782
88.2216576
87.9903821
92.520473
92.3011144
88.0995877
87.9777744
92.4720734
92.3780187
89.6050784
87.7461597
87.783911
92.4758086
92.3285222
88.2097143
88.0990321
92.4480637
92.3238446
90.0530533
87.8570086
87.8911768
92.4122196
92.3013127
89.3750688
88.1478983
87.7690945
87.7746462
92.5010055
92.391745
89.0999782
87.7778535
87.7769209
91.0582403
92.3606797
88.4154009
87.8831332
92.7759326
92.3045286
88.234067
87.9432423
92.6496957
92.2890607
88.1849826
88.0347309
92.7835566
92.4804704
92.5951654
92.40809
88.125097
87.9953837
87.6688444
87.6832066
92.6162403
92.4458091
90.336578
87.8276005
87.8149028
92.5703447
92.3127101
88.3060935
88.0674084
92.5655414
92.256704
88.2972979
88.0949537
92.5691998
92.3279703
90.0670845
87.8094904
87.8297005
92.6207945
92.4146705
90.2323264
87.7857833
87.7832109
92.5787624
92.3448477
89.4117776
88.0787014
87.9636107
87.78135
89.020554
92.5210382
92.4219011
92.4183818
92.7638048
87.8521208
87.7260451
91.5491127
92.4174442
88.4352436
87.9782743
92.6164509
92.3853369
89.4480669
87.7083508
87.7112971
92.6174125
92.4317357
89.7210728
87.7435745
87.7527405
92.6175945
92.4220303
89.8688588
87.7772827
87.7848061
92.6255172
92.4072438
90.0142346
87.8116428
87.8093324
92.6324694
92.3227893
90.6818969
88.108183
)
;

boundaryField
{
    closed
    {
        type            calculated;
        value           nonuniform List<scalar> 0();
    }
    open
    {
        type            calculated;
        value           nonuniform List<scalar> 0();
    }
    sides
    {
        type            empty;
    }
    procBoundary3to2
    {
        type            processor;
        value           uniform 88.0323229;
    }
    procBoundary3to4
    {
        type            processor;
        value           uniform 88.0604939;
    }
}


// ************************************************************************* //
