/*--------------------------------*- C++ -*----------------------------------*\
| =========                 |                                                 |
| \\      /  F ield         | OpenFOAM: The Open Source CFD Toolbox           |
|  \\    /   O peration     | Version:  2306                                  |
|   \\  /    A nd           | Website:  www.openfoam.com                      |
|    \\/     M anipulation  |                                                 |
\*---------------------------------------------------------------------------*/
FoamFile
{
    version     2.0;
    format      ascii;
    arch        "LSB;label=32;scalar=64";
    class       volScalarField;
    location    "0.00146";
    object      prefDZ_T;
}
// * * * * * * * * * * * * * * * * * * * * * * * * * * * * * * * * * * * * * //

dimensions      [1 -1 -1 -1 0 0 0];

internalField   nonuniform List<scalar> 
531
(
-1.18822363e-09
-1.21588964e-09
-1.22818285e-09
-1.21304591e-09
-1.18896519e-09
-1.18812881e-09
-1.21487683e-09
-1.22824351e-09
-1.21275717e-09
-1.18870458e-09
-1.18782583e-09
-1.21347917e-09
-1.22843293e-09
-1.21149998e-09
-1.1882174e-09
-1.1870599e-09
-1.20962479e-09
-1.22808975e-09
-1.20446927e-09
-1.18949698e-09
-1.21393868e-09
-1.22726728e-09
-1.20301823e-09
-1.19000713e-09
-1.2161541e-09
-1.22768109e-09
-1.21075472e-09
-1.18833254e-09
-1.18741992e-09
-1.21183898e-09
-1.22787705e-09
-1.20998985e-09
-1.18980001e-09
-1.1873793e-09
-1.18706422e-09
-1.20787955e-09
-1.22929067e-09
-1.22801325e-09
-1.22834929e-09
-1.22804252e-09
-1.22727928e-09
-1.21860723e-09
-1.18942527e-09
-1.18652082e-09
-1.1863514e-09
-1.20406351e-09
-1.229527e-09
-1.21184347e-09
-1.18691617e-09
-1.18599417e-09
-1.20481687e-09
-1.22891042e-09
-1.2271045e-09
-1.21367359e-09
-1.18865963e-09
-1.18728007e-09
-1.20545445e-09
-1.22824222e-09
-1.20837958e-09
-1.19072256e-09
-1.21336479e-09
-1.22750622e-09
-1.21334506e-09
-1.18955488e-09
-1.18885677e-09
-1.1869053e-09
-1.18646173e-09
-1.19794681e-09
-1.23051429e-09
-1.22698337e-09
-1.22909643e-09
-1.22709697e-09
-1.22783208e-09
-1.18956378e-09
-1.18793983e-09
-1.20749765e-09
-1.22882535e-09
-1.21896851e-09
-1.18890117e-09
-1.18773072e-09
-1.20606957e-09
-1.22901038e-09
-1.2200805e-09
-1.18905607e-09
-1.18789401e-09
-1.2067938e-09
-1.22887964e-09
-1.22135019e-09
-1.18935428e-09
-1.18827918e-09
-1.20790901e-09
-1.22869008e-09
-1.22348455e-09
-1.18991435e-09
-1.18866881e-09
-1.20961922e-09
-1.2279465e-09
-1.22038162e-09
-1.19177256e-09
-1.18848369e-09
-1.18790825e-09
-1.20318275e-09
-1.22865412e-09
-1.2110978e-09
-1.19072552e-09
-1.20902568e-09
-1.22816054e-09
-1.21939411e-09
-1.189157e-09
-1.18814383e-09
-1.20869967e-09
-1.22874831e-09
-1.21991552e-09
-1.18906551e-09
-1.18810315e-09
-1.20894992e-09
-1.22890948e-09
-1.21970075e-09
-1.18854125e-09
-1.18793228e-09
-1.21216489e-09
-1.22884436e-09
-1.22732996e-09
-1.21926139e-09
-1.19078871e-09
-1.18771123e-09
-1.1872564e-09
-1.20277546e-09
-1.22882167e-09
-1.20918741e-09
-1.18988601e-09
-1.20664754e-09
-1.22840407e-09
-1.21813441e-09
-1.18850892e-09
-1.1876791e-09
-1.20998433e-09
-1.22848729e-09
-1.21756441e-09
-1.18879852e-09
-1.1881585e-09
-1.21322412e-09
-1.22816352e-09
-1.21704043e-09
-1.18888812e-09
-1.18836323e-09
-1.21541852e-09
-1.22784856e-09
-1.2184299e-09
-1.18949486e-09
-1.18908958e-09
-1.21924366e-09
-1.2273084e-09
-1.22333923e-09
-1.18975725e-09
-1.18890225e-09
-1.21754775e-09
-1.22775967e-09
-1.21413465e-09
-1.18839507e-09
-1.18789691e-09
-1.21548522e-09
-1.22789457e-09
-1.21269259e-09
-1.18826076e-09
-1.18760417e-09
-1.21314164e-09
-1.22711988e-09
-1.20274111e-09
-1.19015159e-09
-1.22108054e-09
-1.22623704e-09
-1.20882877e-09
-1.19035559e-09
-1.18811387e-09
-1.18782995e-09
-1.21931742e-09
-1.22769615e-09
-1.21127041e-09
-1.18836338e-09
-1.18823024e-09
-1.22341449e-09
-1.22752685e-09
-1.21001992e-09
-1.18831969e-09
-1.18794902e-09
-1.22000192e-09
-1.22692949e-09
-1.19713002e-09
-1.18972122e-09
-1.23417577e-09
-1.22693865e-09
-1.20306288e-09
-1.18764942e-09
-1.18741206e-09
-1.22065282e-09
-1.22698362e-09
-1.19607779e-09
-1.18971098e-09
-1.23217798e-09
-1.22686817e-09
-1.20332832e-09
-1.18808211e-09
-1.18811274e-09
-1.23023714e-09
-1.2275838e-09
-1.20614276e-09
-1.1879435e-09
-1.1878872e-09
-1.23140113e-09
-1.22769239e-09
-1.20447522e-09
-1.18774238e-09
-1.18738891e-09
-1.22926414e-09
-1.22692155e-09
-1.19475876e-09
-1.18977988e-09
-1.23153387e-09
-1.22695398e-09
-1.20314686e-09
-1.1882144e-09
-1.18810156e-09
-1.23354943e-09
-1.22770253e-09
-1.20361781e-09
-1.18779984e-09
-1.18762741e-09
-1.23306926e-09
-1.22799446e-09
-1.20108501e-09
-1.18666579e-09
-1.18648771e-09
-1.21814349e-09
-1.22793348e-09
-1.22850769e-09
-1.22689953e-09
-1.22707096e-09
-1.2064354e-09
-1.18947095e-09
-1.18814049e-09
-1.18812696e-09
-1.18434256e-09
-1.18429319e-09
-1.22643217e-09
-1.22769785e-09
-1.22834495e-09
-1.19330458e-09
-1.1886696e-09
-1.23168015e-09
-1.22812256e-09
-1.19837891e-09
-1.18655643e-09
-1.18592717e-09
-1.23236825e-09
-1.22724457e-09
-1.1924329e-09
-1.18890641e-09
-1.23207822e-09
-1.22631645e-09
-1.19280531e-09
-1.18992962e-09
-1.23168319e-09
-1.22665106e-09
-1.20748365e-09
-1.18913738e-09
-1.18902715e-09
-1.23148753e-09
-1.22663061e-09
-1.21168665e-09
-1.19026806e-09
-1.18963057e-09
-1.18657167e-09
-1.18641638e-09
-1.20899952e-09
-1.22813677e-09
-1.22743477e-09
-1.22675776e-09
-1.22681587e-09
-1.20290115e-09
-1.18903575e-09
-1.18618283e-09
-1.18615957e-09
-1.23208188e-09
-1.22802173e-09
-1.20351546e-09
-1.18779006e-09
-1.18759593e-09
-1.23128448e-09
-1.22776283e-09
-1.2044546e-09
-1.1873941e-09
-1.18698744e-09
-1.23145413e-09
-1.2268579e-09
-1.19341429e-09
-1.18960916e-09
-1.23116241e-09
-1.22695032e-09
-1.2022112e-09
-1.18722192e-09
-1.18715775e-09
-1.23161151e-09
-1.22780429e-09
-1.20294619e-09
-1.18689159e-09
-1.18651982e-09
-1.23169581e-09
-1.22694191e-09
-1.19330575e-09
-1.18946083e-09
-1.23137702e-09
-1.22696985e-09
-1.20264922e-09
-1.18738463e-09
-1.18728279e-09
-1.23188687e-09
-1.22761602e-09
-1.20445661e-09
-1.18736285e-09
-1.18729413e-09
-1.23188256e-09
-1.2276901e-09
-1.20534783e-09
-1.18759102e-09
-1.1871859e-09
-1.23173422e-09
-1.22649648e-09
-1.19467122e-09
-1.19013221e-09
-1.23110535e-09
-1.22573862e-09
-1.20192355e-09
-1.19001886e-09
-1.18739274e-09
-1.18667429e-09
-1.2325732e-09
-1.22685439e-09
-1.19144114e-09
-1.18845323e-09
-1.23215969e-09
-1.22621737e-09
-1.1910591e-09
-1.18958481e-09
-1.23261559e-09
-1.22611591e-09
-1.22761963e-09
-1.2082628e-09
-1.18966201e-09
-1.1890861e-09
-1.18653088e-09
-1.18630412e-09
-1.23245414e-09
-1.22828743e-09
-1.19876887e-09
-1.1860806e-09
-1.1856317e-09
-1.23203763e-09
-1.22732241e-09
-1.19162476e-09
-1.188788e-09
-1.23146522e-09
-1.22661543e-09
-1.19163466e-09
-1.18937296e-09
-1.23087206e-09
-1.22727239e-09
-1.20059496e-09
-1.18696605e-09
-1.18669303e-09
-1.231404e-09
-1.22720974e-09
-1.19216904e-09
-1.18920365e-09
-1.23046321e-09
-1.22738643e-09
-1.19988712e-09
-1.186654e-09
-1.18638894e-09
-1.23103717e-09
-1.22729255e-09
-1.1914784e-09
-1.18888877e-09
-1.23009474e-09
-1.2274917e-09
-1.19873591e-09
-1.18631154e-09
-1.18607273e-09
-1.2306149e-09
-1.22741736e-09
-1.19086432e-09
-1.18860869e-09
-1.22968695e-09
-1.22769844e-09
-1.19744114e-09
-1.18588864e-09
-1.1855119e-09
-1.23014113e-09
-1.22730307e-09
-1.19048082e-09
-1.18799463e-09
-1.23033766e-09
-1.22664102e-09
-1.19028308e-09
-1.18836661e-09
-1.2298853e-09
-1.22665866e-09
-1.19030176e-09
-1.18872089e-09
-1.22876913e-09
-1.22749729e-09
-1.19788896e-09
-1.18597333e-09
-1.18596187e-09
-1.22891321e-09
-1.22718779e-09
-1.19061257e-09
-1.18861201e-09
-1.22893614e-09
-1.22670069e-09
-1.18959778e-09
-1.18857472e-09
-1.22846888e-09
-1.22744165e-09
-1.20223741e-09
-1.18671597e-09
-1.18693347e-09
-1.22850557e-09
-1.22697028e-09
-1.19049146e-09
-1.18957718e-09
-1.22823228e-09
-1.22689807e-09
-1.20619928e-09
-1.18757482e-09
-1.18785399e-09
-1.22787013e-09
-1.22667955e-09
-1.20026304e-09
-1.18996899e-09
-1.18690186e-09
-1.18688512e-09
-1.22879696e-09
-1.22760469e-09
-1.19784811e-09
-1.18691259e-09
-1.18680663e-09
-1.21533825e-09
-1.22732563e-09
-1.1922476e-09
-1.18766296e-09
-1.23152108e-09
-1.2267599e-09
-1.19094183e-09
-1.18815516e-09
-1.23024817e-09
-1.22658829e-09
-1.19055213e-09
-1.1890463e-09
-1.2315839e-09
-1.22844911e-09
-1.22959325e-09
-1.22801415e-09
-1.18997438e-09
-1.18896015e-09
-1.18613387e-09
-1.18627997e-09
-1.22991989e-09
-1.22811007e-09
-1.20874758e-09
-1.18744166e-09
-1.18722038e-09
-1.22944174e-09
-1.22681754e-09
-1.1913352e-09
-1.18921588e-09
-1.22939229e-09
-1.22625676e-09
-1.19122192e-09
-1.18949486e-09
-1.22943073e-09
-1.226947e-09
-1.20634001e-09
-1.18720977e-09
-1.18741971e-09
-1.22995778e-09
-1.22780664e-09
-1.20781191e-09
-1.18704568e-09
-1.18699906e-09
-1.229554e-09
-1.22712382e-09
-1.20052194e-09
-1.18940315e-09
-1.18826679e-09
-1.18696174e-09
-1.19705841e-09
-1.2289028e-09
-1.22789871e-09
-1.22784986e-09
-1.23143124e-09
-1.18751351e-09
-1.18658071e-09
-1.21992785e-09
-1.22785562e-09
-1.19229134e-09
-1.18861407e-09
-1.22989418e-09
-1.22752561e-09
-1.20087847e-09
-1.18638084e-09
-1.18641146e-09
-1.22991312e-09
-1.22799158e-09
-1.20327893e-09
-1.18668433e-09
-1.18678257e-09
-1.22990024e-09
-1.22788826e-09
-1.20457933e-09
-1.18695867e-09
-1.18703908e-09
-1.22997447e-09
-1.22773842e-09
-1.20586157e-09
-1.18723456e-09
-1.18720208e-09
-1.23003959e-09
-1.22689601e-09
-1.21188165e-09
-1.18955423e-09
)
;

boundaryField
{
    closed
    {
        type            calculated;
        value           nonuniform List<scalar> 0();
    }
    open
    {
        type            calculated;
        value           nonuniform List<scalar> 0();
    }
    sides
    {
        type            empty;
    }
    procBoundary3to2
    {
        type            processor;
        value           uniform -1.18902899e-09;
    }
    procBoundary3to4
    {
        type            processor;
        value           uniform -1.18927594e-09;
    }
}


// ************************************************************************* //
