/*--------------------------------*- C++ -*----------------------------------*\
| =========                 |                                                 |
| \\      /  F ield         | OpenFOAM: The Open Source CFD Toolbox           |
|  \\    /   O peration     | Version:  2306                                  |
|   \\  /    A nd           | Website:  www.openfoam.com                      |
|    \\/     M anipulation  |                                                 |
\*---------------------------------------------------------------------------*/
FoamFile
{
    version     2.0;
    format      ascii;
    arch        "LSB;label=32;scalar=64";
    class       volScalarField;
    location    "0.00146";
    object      Z;
}
// * * * * * * * * * * * * * * * * * * * * * * * * * * * * * * * * * * * * * //

dimensions      [0 0 0 0 0 0 0];

internalField   nonuniform List<scalar> 
531
(
0.0147999874
0.0143207837
0.0140894541
0.0143527123
0.0147710021
0.0148036512
0.0143313271
0.0140896933
0.0143560271
0.0147769817
0.0148137592
0.0143461793
0.0140909261
0.0143705882
0.0147890685
0.0148280967
0.0143894481
0.014084591
0.0144605559
0.0147365335
0.0143411866
0.0140760199
0.0144815695
0.0147254493
0.0143180964
0.014082255
0.014379411
0.0147865329
0.0148183608
0.0143644013
0.0140837196
0.0143890371
0.0147367143
0.0148181737
0.0148380103
0.0144100474
0.0140990807
0.0140836024
0.0140889454
0.0140886808
0.0140787379
0.0142917918
0.0147432801
0.014838657
0.0148591561
0.0144573198
0.014100417
0.014365763
0.0148301543
0.0148683737
0.0144479845
0.0140967997
0.01407668
0.0143453533
0.0147694043
0.0148263837
0.0144419044
0.0140879553
0.0144088638
0.0147061375
0.014347596
0.0140811007
0.0143489925
0.0147423281
0.0147800853
0.014819934
0.0148611572
0.0145470418
0.014112743
0.0140719001
0.0141026103
0.0140781267
0.0142024818
0.0147289529
0.014823721
0.0144153397
0.0140955934
0.0142877439
0.0147582459
0.014822437
0.0144328422
0.0140975057
0.0142765693
0.0147555844
0.0148165641
0.0144238582
0.0140965715
0.0142637539
0.0147465652
0.0148063981
0.0144101534
0.0140955833
0.0142430489
0.0147325197
0.0147901603
0.0143901467
0.0140863893
0.0142729955
0.0146724162
0.0147892855
0.0147946075
0.0144715415
0.0140920962
0.0143748263
0.0147022425
0.0143970118
0.0140880707
0.0142834333
0.0147512848
0.014807718
0.0144004695
0.014095263
0.0142778795
0.0147568655
0.0148131688
0.0143972136
0.0140973474
0.014280171
0.0147798244
0.0148180405
0.0143599332
0.0140988332
0.0140802602
0.0142844678
0.014696778
0.0148071609
0.0148200287
0.014475577
0.0140932285
0.0143970394
0.0147374192
0.0144260369
0.0140900414
0.0142967267
0.0147765218
0.0148203601
0.0143853305
0.0140923861
0.0143024619
0.0147743822
0.0148072837
0.0143489672
0.0140896192
0.0143080089
0.0147745437
0.0148001464
0.0143256599
0.0140872734
0.0142932701
0.0147627245
0.0147790347
0.0142868731
0.0140820546
0.0142439007
0.0147421747
0.0147928079
0.0143039012
0.0140855451
0.0143400173
0.0147854672
0.0148110129
0.0143249709
0.0140856576
0.0143562813
0.0147880833
0.0148077003
0.0143499889
0.0140757267
0.0144879962
0.0147115306
0.0142692596
0.0140672108
0.014404476
0.0147080603
0.0148095403
0.0148036433
0.0142862746
0.0140849023
0.0143735379
0.0148020176
0.0147993547
0.0142479242
0.0140833786
0.0143888108
0.014797211
0.014797152
0.0142795151
0.0140745848
0.0145875346
0.0147340356
0.0141393898
0.0140755974
0.0144845548
0.0148147561
0.0148097136
0.0142733092
0.0140745463
0.0146069774
0.0147351585
0.0141168914
0.014076024
0.0144819927
0.0148151591
0.0148026439
0.014189332
0.0140844548
0.0144408905
0.0148236825
0.0148109722
0.0141803914
0.0140853428
0.0144635045
0.014830215
0.0148144822
0.0141963155
0.014074683
0.0146374699
0.0147371657
0.0141118388
0.0140781814
0.0144850374
0.0148225458
0.014809831
0.0141349273
0.0140868424
0.0144801579
0.0148383037
0.0148286681
0.0141286599
0.0140882754
0.0145187328
0.0148554791
0.0148514798
0.014298073
0.0140863341
0.0140905266
0.0140770552
0.0140801851
0.0144355187
0.0147542952
0.0148018006
0.0148033503
0.0149287001
0.0149274757
0.0142233649
0.0140865393
0.0140912865
0.0146583312
0.0147953886
0.014113241
0.0140903702
0.0145592737
0.014881673
0.0148662043
0.0141248333
0.0140770327
0.0146916534
0.0147581168
0.0141211511
0.0140683554
0.0146791059
0.0147307726
0.0141165485
0.0140759118
0.0144235843
0.0147837948
0.0147813845
0.0141154758
0.014076286
0.0143691469
0.0147236936
0.0147569051
0.0148373172
0.0148482964
0.0143962151
0.0140862318
0.0140762098
0.014074018
0.0140750825
0.0144851772
0.0147671111
0.0148688921
0.0148681776
0.0141181045
0.0140894739
0.014479568
0.0148317143
0.0148274366
0.0141133911
0.0140873318
0.0144646347
0.0148405781
0.0148317278
0.0141149066
0.0140745033
0.0146581354
0.0147421944
0.014111537
0.0140768935
0.0144979213
0.0148337962
0.0148324507
0.0141154111
0.014085892
0.0144850955
0.014850936
0.0148427413
0.0141177268
0.0140749236
0.0146576217
0.0147472573
0.0141145451
0.0140772851
0.0144909492
0.0148292261
0.0148269964
0.0141201797
0.0140841037
0.0144646128
0.0148324083
0.014831011
0.0141203595
0.0140856828
0.0144504588
0.014829133
0.0148203483
0.0141204994
0.0140707737
0.014633115
0.0147135602
0.0141148374
0.0140637318
0.0145054023
0.0147137994
0.0148419314
0.0148258869
0.0141287089
0.0140720026
0.0147034346
0.0147654324
0.0141243243
0.0140668091
0.0147156489
0.0147331468
0.0141280818
0.0140691972
0.0140868083
0.0144105797
0.0147626623
0.014769528
0.0148673411
0.014862029
0.0141273187
0.0140907511
0.0145528541
0.0148824703
0.0148717735
0.0141253224
0.0140784729
0.0146930264
0.0147688215
0.014118126
0.0140731062
0.0146884712
0.0147578352
0.0141119537
0.0140813303
0.0145221502
0.0148463516
0.0148404309
0.0141183851
0.0140791994
0.0146761436
0.0147680234
0.0141078317
0.0140824268
0.0145326451
0.0148543657
0.0148484988
0.0141140871
0.014079552
0.0146878183
0.0147776922
0.0141036472
0.0140829297
0.0145510022
0.0148638025
0.0148581616
0.0141094252
0.0140806037
0.0146998746
0.0147881766
0.0140986994
0.0140850267
0.0145715356
0.0148811611
0.0148720476
0.0141047474
0.0140775021
0.0147295168
0.0147890129
0.0141053353
0.0140713506
0.0147377101
0.0147760097
0.0140998137
0.0140726894
0.0147265394
0.0147783107
0.0140880126
0.0140828767
0.0145643591
0.014874107
0.0148599784
0.0140905788
0.0140773916
0.014722817
0.0147744553
0.014091162
0.0140734931
0.0147544219
0.0147849537
0.0140848644
0.0140839149
0.0144955463
0.0148528872
0.0148322933
0.0140852883
0.0140766582
0.014723626
0.0147528746
0.0140822205
0.0140785918
0.0144382691
0.014816878
0.014807426
0.0140790964
0.0140756576
0.0145288731
0.0147387044
0.0148463156
0.0148378792
0.0140840202
0.0140827833
0.0145653495
0.0148371282
0.01482658
0.0143265088
0.014076728
0.01468294
0.0147960995
0.014112455
0.0140715646
0.0147434007
0.0147797343
0.0141016075
0.0140715479
0.0147581956
0.0147699445
0.0141146324
0.0140960765
0.0141080616
0.0142027181
0.014765304
0.014806293
0.0148801923
0.0148794238
0.0140977823
0.014091754
0.014404719
0.0148368533
0.0148274056
0.0140953057
0.0140745737
0.0147031568
0.0147506717
0.014094984
0.014069022
0.0147012705
0.0147488205
0.0140951512
0.0140782774
0.0144375155
0.0148326093
0.0148319345
0.014098988
0.0140877815
0.0144171216
0.0148424899
0.0148403644
0.0140933363
0.0140792161
0.0145199417
0.0147576137
0.0147683508
0.0148384316
0.0145699045
0.0140951373
0.014086539
0.0140875441
0.0141753433
0.0148158981
0.0148617836
0.0142803815
0.0140859462
0.0146717747
0.01478861
0.0141006343
0.0140835972
0.0145175704
0.014860519
0.0148604298
0.0140997678
0.01408807
0.0144816871
0.014852434
0.0148524835
0.0141013027
0.0140877203
0.0144623574
0.0148429093
0.014842916
0.014102594
0.0140864251
0.0144435694
0.0148328052
0.0148319465
0.014103735
0.0140776746
0.0143659128
0.0147400871
)
;

boundaryField
{
    closed
    {
        type            zeroGradient;
    }
    open
    {
        type            zeroGradient;
    }
    sides
    {
        type            empty;
    }
    procBoundary3to2
    {
        type            processor;
        value           uniform 0.0147708594;
    }
    procBoundary3to4
    {
        type            processor;
        value           uniform 0.0147649026;
    }
}


// ************************************************************************* //
