/*--------------------------------*- C++ -*----------------------------------*\
| =========                 |                                                 |
| \\      /  F ield         | OpenFOAM: The Open Source CFD Toolbox           |
|  \\    /   O peration     | Version:  2306                                  |
|   \\  /    A nd           | Website:  www.openfoam.com                      |
|    \\/     M anipulation  |                                                 |
\*---------------------------------------------------------------------------*/
FoamFile
{
    version     2.0;
    format      ascii;
    arch        "LSB;label=32;scalar=64";
    class       volScalarField;
    location    "0.00108";
    object      h;
}
// * * * * * * * * * * * * * * * * * * * * * * * * * * * * * * * * * * * * * //

dimensions      [0 2 -2 0 0 0 0];

internalField   nonuniform List<scalar> 
530
(
10090.8908
-1031.95977
-4657.69866
-1908.06514
9841.81341
10109.3114
-1342.2795
-4791.70016
-1874.55932
9904.97493
10223.9826
-904.703306
-4446.94785
-1773.9211
9994.95176
10233.6192
-1855.6207
-4156.37405
-4260.77844
-1086.3445
9861.70936
10261.9809
10317.5088
10030.1706
-2301.55917
-5616.12255
-2717.41134
9913.29022
10243.8
-2461.79081
-4489.87712
-4492.77166
-2715.54304
10070.5811
10284.6154
-1921.05155
-4918.49591
-2185.43175
10064.8857
10225.093
-1945.64601
-5373.53321
-1879.50248
9744.49772
10218.9229
10178.3777
9806.91075
-2411.85937
-4985.78471
-4840.45838
-3175.05405
9976.02698
9948.5989
-2655.61963
-5226.13482
-5499.5305
-3398.83685
9567.41672
10307.9825
4845.73488
-3999.40914
-3167.84484
9903.36403
10053.8596
-921.460489
-4434.43792
-2406.30646
9819.65437
9485.61572
-4212.45434
-4025.4118
9329.61521
9999.00159
1580.5454
-4348.84361
291.318542
9493.67562
-529.348722
-2190.50175
9580.13303
9819.10332
-2808.72433
-5563.73735
-3338.75343
9865.38868
9563.37085
-2942.50555
-2952.7786
9464.0234
9730.35618
-2747.38019
-5601.26935
-2879.89748
9903.805
9610.4463
-3047.22908
-3293.48555
9501.41247
9430.91465
-3104.30212
-2735.93596
9591.13375
9782.73
-2544.97883
-5455.05261
-1911.75458
9899.13504
9814.1274
-2585.61917
-5438.574
-1671.72244
9910.57714
9870.7075
-2396.01501
-5221.44181
-1940.10211
9999.07639
9742.66577
-2869.37614
-2889.93816
9657.64925
9882.83815
-1764.35289
-5345.82199
-2208.60155
9973.64909
9958.6525
-1620.15273
-5346.00545
-2256.79008
9987.8935
10019.5619
-1413.00927
-5301.21498
-2336.60792
10006.0685
10071.6342
-1160.35847
-5294.05506
-2654.2333
9959.13108
9901.2716
-2750.76568
-2664.92539
9994.07169
10034.8451
-2171.0738
-5766.72298
-3258.50896
9835.44098
9907.53427
-3978.26297
-4207.94177
9591.28543
10088.9569
1062.50484
-4775.26054
-2673.49117
10050.9033
10135.1649
-1404.57983
-5419.18558
-2610.10448
9759.18462
9936.72268
-4229.29605
-4560.4254
9582.21695
10072.9103
655.700684
-5032.21536
-3312.57725
9981.77193
10236.5622
916.474364
-5038.68212
-3470.10357
9931.89117
10273.9013
976.372848
-4459.84748
-1854.31888
10056.7456
10352.3602
-595.059172
-4518.36335
-3556.03867
-4921.79011
-3535.49469
9740.28371
10101.1339
-2276.35318
-2730.75273
9530.73954
9836.86482
-2801.32086
-3321.02904
9299.80505
10145.1019
195.612023
-5528.15994
-3815.60691
9286.838
9690.82805
-3358.74161
-4236.26637
8701.02086
9512.15837
-3241.69427
-3719.6152
8682.61007
9774.69639
-3563.94045
-5808.43433
2494.76416
9464.07526
3613.46813
-4152.77995
802.508395
9439.82656
4714.44826
-3645.70662
767.54268
9310.61179
5574.9237
-5386.38746
-5686.88458
7684.78542
9780.34716
723.331392
-3937.79588
2809.53199
9567.91159
3530.47167
-3359.64537
2332.39308
9404.27356
4553.23077
-5217.4689
-5415.86615
7806.26543
9914.93063
2019.46173
-3501.60164
1349.78286
9346.57302
6280.18043
-4693.88964
-5182.79959
7362.75056
9800.83306
3009.56814
-5243.80624
-5398.69274
7573.14592
9996.4742
2960.52414
-3247.41351
-704.721624
9231.22217
9147.44547
-2018.28537
-5015.57208
2270.18287
9633.1089
9778.04717
-333.087159
-5693.87703
-5085.59721
6095.75247
9943.21516
6369.83377
-4268.03556
-5075.79989
5188.97806
9766.17134
5928.21941
-4859.21365
-5575.14473
5219.59355
9808.72621
4169.9542
-3464.85605
-1422.36086
9066.95501
9100.1259
-2769.94435
-5047.66589
5539.44188
9871.7405
6039.67651
-4370.41841
-5062.32959
5768.60934
9839.47872
5682.04767
-4547.40338
-5153.17305
5903.49696
9830.44393
5451.80476
-4593.54022
-5095.81652
6123.83718
9853.60096
5282.36392
-4570.76456
-4978.6487
6294.92712
9875.86068
5133.82249
-4554.20079
-4903.82436
6343.15927
9883.59613
4934.80611
-4376.34172
-4828.84048
5625.14232
9838.53392
4896.78777
-3771.08221
-4789.78402
1298.52007
9525.09414
10300.3599
5081.97831
-4364.33476
-5415.11096
3846.40405
9615.22064
5287.57946
-4327.25975
-5102.13215
3955.06901
9689.58399
5397.56991
-4075.26753
-4903.49447
3250.99466
9858.1426
6141.38959
-2485.27333
545.402691
9603.86047
6648.52876
-3915.37356
-4877.92759
3474.43265
9912.81159
6092.70237
-2286.56964
1018.23129
9682.24863
6029.30913
-3620.46385
-4295.71107
-4021.13266
-4291.92423
2797.12193
9869.16787
6303.04528
-2512.15682
679.000273
9576.03404
6123.63169
-4175.20392
-5354.05182
1680.76603
9549.91798
5856.58863
-3414.39357
-192.123566
9456.38228
5879.22313
-3701.79634
-339.687134
9379.48327
5682.96586
-3903.32814
-481.885896
9325.89696
5719.14523
-3919.12545
-599.765829
9305.51073
5887.51286
-3818.46799
-680.664919
9302.67941
6134.28427
-3704.4309
-639.36234
9181.81004
6164.62636
-4668.96427
-5898.81172
-222.379174
9250.10971
7088.94707
-3315.84201
-1321.42184
9258.51444
7056.1398
-3342.56289
-1396.20741
9199.41379
7191.28967
-3340.42753
-1185.01131
9019.9825
6651.72811
-4498.96354
-5803.65659
-679.552498
9091.93021
7962.8079
-2979.49903
-1951.31724
9039.05435
7896.17358
-2816.09715
-1807.60646
9030.09326
8027.42573
-2589.97615
-1155.12865
8960.4441
7416.61563
-3716.40172
-4825.94159
1689.8938
9622.62359
9944.535
1625.02346
-4046.95803
-3874.90204
-3934.43083
-3959.03293
3674.13533
9956.74451
10075.0683
1781.14945
-2560.74208
1834.48578
9569.35926
7034.7754
-3833.56737
-4657.82392
2550.17776
9538.77855
6049.04457
-2611.03384
678.012787
9487.40621
6450.97613
-3991.31757
-4335.46977
3966.30853
9663.80537
5384.36722
-4221.21871
-4264.083
5002.76677
9750.17354
4674.52987
-4420.62207
-3953.95256
5584.37604
9808.52689
4033.30863
-4754.79677
-3808.88885
5929.96601
9786.51085
3223.53294
-5178.04293
-3699.34912
6752.43595
9536.8516
1855.64454
-5526.2901
-2735.39311
9140.76223
8917.90678
-1986.36711
-3160.64003
6096.81025
9257.03646
763.431819
-5602.27335
-451.711222
8441.96639
4676.89564
-2582.87229
2716.2272
9119.78664
2533.99782
-2513.76482
4439.04678
9611.83049
4458.41116
-4969.41403
-4267.39888
4928.48569
9373.02357
4404.2003
-4673.59676
-3922.56096
5346.58298
9363.52756
4336.06819
-4424.77698
-3648.73927
5544.89959
9328.23924
4441.19785
-4250.15245
-3570.4943
4936.50773
9262.36513
5175.94716
-4002.46025
-3602.60453
4118.48304
9183.02581
5924.66995
-3962.72411
-3795.07373
3469.72643
)
;

boundaryField
{
    closed
    {
        type            lookUpEnthalpy;
        h0              nonuniform List<scalar> 0();
        value           nonuniform List<scalar> 0();
    }
    open
    {
        type            zeroGradient;
    }
    sides
    {
        type            empty;
    }
    procBoundary2to1
    {
        type            processor;
        value           uniform 9763.91541;
    }
    procBoundary2to3
    {
        type            processor;
        value           uniform 9079.75125;
    }
}


// ************************************************************************* //
