/*--------------------------------*- C++ -*----------------------------------*\
| =========                 |                                                 |
| \\      /  F ield         | OpenFOAM: The Open Source CFD Toolbox           |
|  \\    /   O peration     | Version:  2306                                  |
|   \\  /    A nd           | Website:  www.openfoam.com                      |
|    \\/     M anipulation  |                                                 |
\*---------------------------------------------------------------------------*/
FoamFile
{
    version     2.0;
    format      ascii;
    arch        "LSB;label=32;scalar=64";
    class       volScalarField;
    location    "0.00108";
    object      prefDZ_H2;
}
// * * * * * * * * * * * * * * * * * * * * * * * * * * * * * * * * * * * * * //

dimensions      [1 -1 -1 0 0 0 0];

internalField   nonuniform List<scalar> 
530
(
6.36354794e-05
6.22580669e-05
6.17081443e-05
6.22872017e-05
6.35241169e-05
6.36405675e-05
6.22566472e-05
6.16734578e-05
6.22827335e-05
6.35412337e-05
6.36422678e-05
6.22537607e-05
6.17635673e-05
6.22684467e-05
6.3532292e-05
6.36575422e-05
6.22845609e-05
6.18398864e-05
6.18127635e-05
6.22991138e-05
6.35707249e-05
6.36100823e-05
6.36318466e-05
6.36337555e-05
6.22641918e-05
6.14484343e-05
6.22054102e-05
6.35361742e-05
6.36577866e-05
6.22715265e-05
6.17531229e-05
6.17517555e-05
6.22098735e-05
6.36003076e-05
6.36220158e-05
6.22807642e-05
6.16378781e-05
6.22971712e-05
6.35957235e-05
6.36206363e-05
6.22896423e-05
6.15127385e-05
6.22949763e-05
6.35621694e-05
6.36122193e-05
6.35685534e-05
6.35931147e-05
6.22871361e-05
6.16181185e-05
6.16556904e-05
6.20935415e-05
6.35744904e-05
6.35566341e-05
6.22272033e-05
6.1555297e-05
6.14780293e-05
6.20353284e-05
6.35723151e-05
6.35682517e-05
6.25981963e-05
6.18800996e-05
6.20949764e-05
6.35902269e-05
6.35131271e-05
6.22981765e-05
6.1760949e-05
6.22826545e-05
6.35835533e-05
6.35481869e-05
6.18235453e-05
6.18739297e-05
6.35840075e-05
6.35214032e-05
6.23110419e-05
6.17863364e-05
6.22753114e-05
6.3527961e-05
6.2298771e-05
6.23177222e-05
6.36088895e-05
6.35235433e-05
6.21860241e-05
6.14590967e-05
6.20481899e-05
6.36013374e-05
6.35406767e-05
6.21541061e-05
6.21462384e-05
6.35975122e-05
6.35062979e-05
6.22028796e-05
6.14438618e-05
6.21647726e-05
6.35829833e-05
6.35394902e-05
6.21279099e-05
6.20607277e-05
6.35925877e-05
6.34912549e-05
6.21128647e-05
6.22035813e-05
6.36056116e-05
6.3505139e-05
6.2253046e-05
6.14854279e-05
6.22859869e-05
6.36052291e-05
6.35544775e-05
6.22421859e-05
6.14939817e-05
6.22908212e-05
6.36050055e-05
6.35499352e-05
6.22902954e-05
6.15507658e-05
6.22927188e-05
6.35969865e-05
6.35722388e-05
6.21730786e-05
6.21638165e-05
6.36374858e-05
6.35325323e-05
6.23149326e-05
6.15164403e-05
6.23002571e-05
6.36139217e-05
6.35786276e-05
6.23023047e-05
6.1520835e-05
6.23000279e-05
6.36228023e-05
6.35880433e-05
6.22968515e-05
6.15332927e-05
6.23024566e-05
6.36197647e-05
6.35841941e-05
6.22980785e-05
6.15334756e-05
6.222275e-05
6.36003828e-05
6.36348601e-05
6.22017184e-05
6.22234637e-05
6.36336782e-05
6.35544862e-05
6.23124299e-05
6.13988978e-05
6.20703579e-05
6.35641195e-05
6.36227039e-05
6.18847323e-05
6.18255154e-05
6.36137316e-05
6.35540488e-05
6.23018458e-05
6.16731131e-05
6.22200412e-05
6.35989235e-05
6.35838387e-05
6.22954637e-05
6.14964982e-05
6.22352321e-05
6.35389706e-05
6.36336763e-05
6.18193597e-05
6.17318849e-05
6.35673714e-05
6.35458188e-05
6.22949118e-05
6.16043982e-05
6.20573737e-05
6.35838236e-05
6.35883008e-05
6.22940487e-05
6.16068832e-05
6.20166332e-05
6.35937038e-05
6.36025555e-05
6.22881413e-05
6.17597831e-05
6.22966258e-05
6.35738193e-05
6.36084358e-05
6.22856189e-05
6.17412859e-05
6.19946302e-05
6.16314697e-05
6.20001669e-05
6.35188062e-05
6.36249644e-05
6.23189169e-05
6.22085899e-05
6.34701384e-05
6.36250223e-05
6.21834719e-05
6.20562196e-05
6.3470535e-05
6.35414811e-05
6.22783769e-05
6.14628385e-05
6.19273637e-05
6.34581756e-05
6.36166905e-05
6.20457917e-05
6.18135739e-05
6.33366793e-05
6.35826742e-05
6.20756296e-05
6.19504661e-05
6.33548132e-05
6.35658883e-05
6.19911996e-05
6.13870207e-05
6.23451874e-05
6.3465872e-05
6.24438881e-05
6.18369704e-05
6.2267007e-05
6.3462461e-05
6.25800933e-05
6.19711633e-05
6.22786517e-05
6.34275235e-05
6.26967431e-05
6.1501745e-05
6.14266498e-05
6.32525893e-05
6.35748923e-05
6.23045591e-05
6.18946253e-05
6.23701411e-05
6.34837043e-05
6.24341168e-05
6.20460859e-05
6.23344058e-05
6.34434015e-05
6.2541865e-05
6.154899e-05
6.15014289e-05
6.32541595e-05
6.35771596e-05
6.23380469e-05
6.20089644e-05
6.22959639e-05
6.34113951e-05
6.28070472e-05
6.16916599e-05
6.15592752e-05
6.31404811e-05
6.3522095e-05
6.2396951e-05
6.15387637e-05
6.15033028e-05
6.3204677e-05
6.35706786e-05
6.23939392e-05
6.20751964e-05
6.23178244e-05
6.33898853e-05
6.35574366e-05
6.22391289e-05
6.16015597e-05
6.23278471e-05
6.34359417e-05
6.35424183e-05
6.22644355e-05
6.1404951e-05
6.1576844e-05
6.28524825e-05
6.34734715e-05
6.27671176e-05
6.18060571e-05
6.15852968e-05
6.2726148e-05
6.34715838e-05
6.27066812e-05
6.16466502e-05
6.14548403e-05
6.27504137e-05
6.35300784e-05
6.24900348e-05
6.20185948e-05
6.23315847e-05
6.33557329e-05
6.35117316e-05
6.21945504e-05
6.15881001e-05
6.27888336e-05
6.34620062e-05
6.27138383e-05
6.17756258e-05
6.15873536e-05
6.28395646e-05
6.34822426e-05
6.26593116e-05
6.17276345e-05
6.15631805e-05
6.28706891e-05
6.34877157e-05
6.26278199e-05
6.17143643e-05
6.15789398e-05
6.29161055e-05
6.34914219e-05
6.26053062e-05
6.17197938e-05
6.16109184e-05
6.29495281e-05
6.34938367e-05
6.25866666e-05
6.17238045e-05
6.1631486e-05
6.2953875e-05
6.35027092e-05
6.25642027e-05
6.17745276e-05
6.1653596e-05
6.2771303e-05
6.3533667e-05
6.25683689e-05
6.19390956e-05
6.16647755e-05
6.23016689e-05
6.34766348e-05
6.35893697e-05
6.26001039e-05
6.17844272e-05
6.1495965e-05
6.24772271e-05
6.35120469e-05
6.26355582e-05
6.17912461e-05
6.15793608e-05
6.24838509e-05
6.35232645e-05
6.26525261e-05
6.18589056e-05
6.16347213e-05
6.24093538e-05
6.35448584e-05
6.28078707e-05
6.22733346e-05
6.23210239e-05
6.35356312e-05
6.28970985e-05
6.19006896e-05
6.16385104e-05
6.24300388e-05
6.35463669e-05
6.2795931e-05
6.2324287e-05
6.23225373e-05
6.35511044e-05
6.27730032e-05
6.197785e-05
6.17975619e-05
6.18729131e-05
6.17985542e-05
6.23748357e-05
6.3542631e-05
6.28466875e-05
6.22668513e-05
6.23203638e-05
6.35512131e-05
6.27905614e-05
6.18337133e-05
6.15081678e-05
6.23097628e-05
6.35262848e-05
6.27847377e-05
6.20316705e-05
6.22902161e-05
6.35355904e-05
6.27989235e-05
6.19557651e-05
6.228225e-05
6.35302204e-05
6.27640555e-05
6.19022741e-05
6.22781323e-05
6.35205867e-05
6.27718535e-05
6.18981505e-05
6.22808697e-05
6.35118478e-05
6.28026026e-05
6.1925083e-05
6.22880997e-05
6.35016928e-05
6.28456553e-05
6.19552463e-05
6.23021126e-05
6.34900413e-05
6.28152374e-05
6.17050505e-05
6.13607713e-05
6.22917644e-05
6.34646307e-05
6.3060665e-05
6.20575443e-05
6.23356702e-05
6.34673303e-05
6.30470079e-05
6.2050408e-05
6.23359223e-05
6.34586228e-05
6.30801133e-05
6.2050961e-05
6.23313066e-05
6.34397077e-05
6.29128163e-05
6.17506273e-05
6.13873686e-05
6.23044327e-05
6.34211143e-05
6.33071951e-05
6.21438396e-05
6.23872027e-05
6.34223133e-05
6.32707139e-05
6.21844561e-05
6.23819954e-05
6.34252683e-05
6.33118642e-05
6.22413391e-05
6.23527089e-05
6.34090987e-05
6.3103667e-05
6.19532268e-05
6.16569966e-05
6.23134343e-05
6.34626162e-05
6.35942855e-05
6.23084238e-05
6.18662064e-05
6.19124406e-05
6.18955484e-05
6.18900483e-05
6.24485869e-05
6.35370758e-05
6.36042506e-05
6.23135645e-05
6.22519271e-05
6.2320702e-05
6.3478014e-05
6.30093482e-05
6.1923108e-05
6.17011034e-05
6.23552396e-05
6.35003354e-05
6.28262324e-05
6.22370747e-05
6.23029747e-05
6.34825622e-05
6.28810498e-05
6.18814413e-05
6.17872727e-05
6.2477335e-05
6.34951944e-05
6.26798854e-05
6.18190994e-05
6.18075572e-05
6.26014198e-05
6.35149869e-05
6.25697553e-05
6.17645142e-05
6.18904032e-05
6.2687048e-05
6.35277161e-05
6.24899948e-05
6.1672946e-05
6.19289282e-05
6.27438776e-05
6.35336444e-05
6.24070875e-05
6.15541525e-05
6.19576581e-05
6.29100247e-05
6.3510335e-05
6.23081165e-05
6.14514576e-05
6.22041736e-05
6.34860424e-05
6.34604929e-05
6.23855532e-05
6.20984263e-05
6.28019815e-05
6.34501382e-05
6.2242585e-05
6.1426146e-05
6.22324265e-05
6.33574248e-05
6.25888919e-05
6.2251339e-05
6.23652866e-05
6.35114482e-05
6.23517011e-05
6.22633338e-05
6.25281988e-05
6.3537806e-05
6.25503359e-05
6.16168872e-05
6.18077445e-05
6.2589659e-05
6.34955933e-05
6.25376247e-05
6.16934184e-05
6.18987939e-05
6.26456728e-05
6.34874147e-05
6.25236924e-05
6.17611341e-05
6.19706649e-05
6.26810648e-05
6.34863123e-05
6.25331739e-05
6.18083366e-05
6.19909636e-05
6.25957996e-05
6.34863412e-05
6.26323146e-05
6.18750027e-05
6.19821208e-05
6.24946574e-05
6.34761319e-05
6.27595071e-05
6.18855988e-05
6.19306025e-05
6.24290998e-05
)
;

boundaryField
{
    closed
    {
        type            calculated;
        value           nonuniform List<scalar> 0();
    }
    open
    {
        type            calculated;
        value           nonuniform List<scalar> 0();
    }
    sides
    {
        type            empty;
    }
    procBoundary2to1
    {
        type            processor;
        value           uniform 6.35085672e-05;
    }
    procBoundary2to3
    {
        type            processor;
        value           uniform 6.34626363e-05;
    }
}


// ************************************************************************* //
