/*--------------------------------*- C++ -*----------------------------------*\
| =========                 |                                                 |
| \\      /  F ield         | OpenFOAM: The Open Source CFD Toolbox           |
|  \\    /   O peration     | Version:  2306                                  |
|   \\  /    A nd           | Website:  www.openfoam.com                      |
|    \\/     M anipulation  |                                                 |
\*---------------------------------------------------------------------------*/
FoamFile
{
    version     2.0;
    format      ascii;
    arch        "LSB;label=32;scalar=64";
    class       volScalarField;
    location    "0.00108";
    object      sourcePV;
}
// * * * * * * * * * * * * * * * * * * * * * * * * * * * * * * * * * * * * * //

dimensions      [1 -3 -1 0 0 0 0];

internalField   nonuniform List<scalar> 
530
(
0.00599503862
0.116596397
0.155531825
0.124954856
0.00530662455
0.00603541634
0.119471707
0.156960256
0.124612007
0.00543851524
0.00617166245
0.115322272
0.153108967
0.123559123
0.00551084458
0.00624153296
0.124461515
0.149574775
0.150794497
0.117697325
0.00549296687
0.00609287906
0.00623710209
0.00591935925
0.128236482
0.166838808
0.133030152
0.00543051695
0.00625395063
0.130408981
0.153413794
0.153588982
0.133635388
0.00583992281
0.00616299742
0.125006952
0.158693538
0.127495581
0.00581655612
0.00609076486
0.125312282
0.164194711
0.12477716
0.00532683759
0.00605228763
0.00584701674
0.00551105307
0.130241071
0.15967881
0.158181761
0.139173087
0.005637838
0.00554267962
0.133332485
0.162248942
0.165674631
0.141443727
0.00515682513
0.00599222051
0.0503759362
0.148042862
0.138921631
0.00561159978
0.00551288766
0.116173813
0.154041338
0.129456174
0.00549081808
0.00497482981
0.150819929
0.147843042
0.004919148
0.00547818546
0.0907187024
0.152641499
0.10395035
0.00491385451
0.112538131
0.127708386
0.00530599158
0.00527841074
0.134659975
0.166519031
0.139865441
0.00560880747
0.00503982082
0.136734007
0.135677572
0.00512753365
0.00511704654
0.134203251
0.167306428
0.134888915
0.00558569291
0.00509079395
0.138324746
0.13964707
0.00515330108
0.00471576393
0.138876008
0.133674393
0.00530661507
0.00517397598
0.131690649
0.165539035
0.124975742
0.00566204869
0.00538018133
0.132064456
0.165029988
0.122883904
0.00567436168
0.00542948639
0.12994954
0.162744959
0.125292535
0.00574611046
0.00536077448
0.135935215
0.135276658
0.00550466418
0.00538286784
0.123952644
0.164202745
0.127724543
0.00577989243
0.00563285941
0.12254635
0.163823644
0.128144507
0.00582955706
0.00573674417
0.120629295
0.163279915
0.128941026
0.00583887452
0.00578212009
0.118357744
0.163357798
0.132527375
0.00571292738
0.00577611568
0.134183456
0.133188294
0.0058778714
0.00563383219
0.127496516
0.169144813
0.139470451
0.00543903013
0.00573713734
0.148238623
0.150539167
0.00533715885
0.00569400345
0.0965042305
0.157442561
0.133074542
0.00581240189
0.00585306069
0.120536845
0.165032327
0.132227204
0.00526220482
0.00581225559
0.150947309
0.154759249
0.00515636718
0.0056468532
0.100708379
0.160347096
0.140391841
0.00567817473
0.00598403821
0.0978411352
0.159943183
0.142018403
0.0056571017
0.00607840404
0.0969294728
0.153346873
0.124569943
0.00572766
0.00618829917
0.112929448
0.15457137
0.143052547
0.159375401
0.143157303
0.00517087808
0.0059667479
0.12846361
0.134318809
0.00476441845
0.00566462563
0.133845054
0.141283772
0.00449228053
0.00571388494
0.105021572
0.166556215
0.146319492
0.00443706039
0.00546422273
0.14107071
0.151867328
0.00336476081
0.00512960054
0.139614462
0.146236815
0.00339259039
0.00537511407
0.142375034
0.169642211
0.0787761738
0.00467207626
0.0664892548
0.150701745
0.0980716159
0.00463246493
0.0520365208
0.144878691
0.0989277212
0.00436927836
0.0417763665
0.164949328
0.167834617
0.00569682958
0.00541399689
0.100299129
0.148056217
0.0749397192
0.00485226413
0.0682528382
0.141609957
0.080849073
0.00452995238
0.0560377264
0.162947964
0.164663749
0.00516184485
0.00557738116
0.0865857809
0.143241343
0.0928191112
0.00436299043
0.0328928658
0.156927555
0.16248196
0.0119288011
0.00525231849
0.0763151668
0.163494376
0.164700872
0.00823533358
0.00564754629
0.0768775535
0.140207615
0.114473534
0.00416118162
0.00460614858
0.125452706
0.160876961
0.081185505
0.00477640649
0.00529608285
0.109994114
0.169196338
0.162133927
0.0306426706
0.00525514879
0.0352856117
0.152054471
0.161543931
0.0403095226
0.00504436343
0.0405074634
0.158848191
0.166734646
0.0387031651
0.00528882854
0.062442012
0.142785037
0.121103399
0.00386514737
0.00439012566
0.133987466
0.161640508
0.0357098299
0.00513595605
0.0397808345
0.153679829
0.161532321
0.0322042283
0.00516394855
0.0446776149
0.155699045
0.162501932
0.0301129842
0.00517142134
0.0476897744
0.156308126
0.161847378
0.0270493483
0.00521040133
0.049939605
0.156136009
0.160523734
0.0247979332
0.00524408377
0.0518731435
0.156004217
0.159661089
0.0244294294
0.00528249459
0.0542690664
0.153677263
0.15863834
0.0366135384
0.00533566896
0.0536254167
0.145655978
0.158130881
0.0937411236
0.00477884045
0.00605979943
0.0503302612
0.1523551
0.165115109
0.0619369135
0.00500213344
0.0469888353
0.152550737
0.161732524
0.0616102532
0.00512711522
0.0454631661
0.149463631
0.159345201
0.0708829041
0.00539720364
0.0331815873
0.131859495
0.102606777
0.00506967113
0.0265758527
0.147741301
0.159370641
0.0682449419
0.00546544816
0.0340408643
0.129581961
0.0977623936
0.00521527713
0.0356516538
0.144543455
0.152557489
0.148923976
0.152518215
0.0770815318
0.00540214055
0.0304351649
0.13225442
0.101235706
0.00509163656
0.0343079369
0.150281534
0.16476815
0.0893019765
0.00497418242
0.0352792326
0.142578561
0.10915711
0.0048963293
0.0343485505
0.145828667
0.110424695
0.00478685074
0.0369568499
0.148115079
0.111714849
0.00469014335
0.0363854855
0.148273498
0.112890504
0.00463611714
0.0341045072
0.147068143
0.113778903
0.00459847489
0.0309375515
0.145783483
0.113623456
0.00441528642
0.0326725135
0.155682548
0.170746114
0.109481991
0.00441392592
0.01667599
0.141158728
0.120255069
0.0044326696
0.0174544803
0.141225139
0.120918742
0.00433399354
0.0153821717
0.141199062
0.11899386
0.0040580383
0.0256956352
0.153546981
0.169649867
0.114034295
0.00408735247
0.00235553153
0.136932741
0.126180512
0.00402715708
0.00409232012
0.134803459
0.124915053
0.00402540031
0.00245080579
0.13215246
0.118976014
0.00389161787
0.0134568931
0.144641626
0.15832103
0.0894201962
0.00484810411
0.0056737398
0.0899718672
0.149188048
0.146495611
0.148004966
0.14789229
0.0662151295
0.00548356785
0.00585961073
0.0881620689
0.132339656
0.0879235334
0.00483536151
0.0194000201
0.145968575
0.156551017
0.079385478
0.0048731178
0.0322953987
0.13256165
0.100726584
0.0047538102
0.0280505668
0.148334919
0.152949645
0.0629752304
0.00500243402
0.0432855656
0.15141212
0.151926487
0.0501468114
0.00516939187
0.0530525849
0.153905416
0.148228011
0.0424985634
0.00528047357
0.0611288472
0.157875691
0.146375423
0.0378087296
0.00527541203
0.0708178721
0.162960979
0.14493907
0.0255449214
0.00490446541
0.0866006943
0.167326092
0.133745143
0.0043528177
0.00400025486
0.126466781
0.140299509
0.033653271
0.00437593051
0.0974664065
0.168425641
0.110476738
0.00310096934
0.0511579072
0.133829403
0.0770957318
0.00441278667
0.079119089
0.131705229
0.0574691403
0.00508654847
0.0547789193
0.160091155
0.151751597
0.051275272
0.00466163497
0.0561145691
0.157125268
0.147825175
0.0460786507
0.00462325031
0.0576667887
0.154269956
0.144639717
0.0430101841
0.00457769975
0.0567947431
0.152274683
0.143957263
0.0506601926
0.00449934303
0.0473076577
0.149433734
0.144643326
0.0609435396
0.00437095767
0.0367621948
0.14899099
0.147022259
0.0685758146
)
;

boundaryField
{
    closed
    {
        type            calculated;
        value           nonuniform List<scalar> 0();
    }
    open
    {
        type            calculated;
        value           nonuniform List<scalar> 0();
    }
    sides
    {
        type            empty;
    }
    procBoundary2to1
    {
        type            processor;
        value           uniform 0;
    }
    procBoundary2to3
    {
        type            processor;
        value           uniform 0;
    }
}


// ************************************************************************* //
