/*--------------------------------*- C++ -*----------------------------------*\
| =========                 |                                                 |
| \\      /  F ield         | OpenFOAM: The Open Source CFD Toolbox           |
|  \\    /   O peration     | Version:  2306                                  |
|   \\  /    A nd           | Website:  www.openfoam.com                      |
|    \\/     M anipulation  |                                                 |
\*---------------------------------------------------------------------------*/
FoamFile
{
    version     2.0;
    format      ascii;
    arch        "LSB;label=32;scalar=64";
    class       volScalarField;
    location    "0.0013";
    object      sourcePV;
}
// * * * * * * * * * * * * * * * * * * * * * * * * * * * * * * * * * * * * * //

dimensions      [1 -3 -1 0 0 0 0];

internalField   nonuniform List<scalar> 
531
(
0.118050748
0.156590397
0.118949962
0.00367619446
0.00422124204
0.12014826
0.157540272
0.118683344
0.00340898258
0.00372906573
0.125395795
0.161039567
0.121233686
0.0030757945
0.0126662786
0.125036587
0.114362273
0.0032827108
0.018000436
0.123212415
0.108855718
0.00324363363
0.00750803322
0.12881856
0.157935682
0.112247725
0.00267571291
0.0187084827
0.138059618
0.166790007
0.138636424
0.0180643526
0.00529690839
0.00485317149
0.00511964685
0.00558466012
0.0100397035
0.123328904
0.150241537
0.151801309
0.157779608
0.112080658
0.00301175108
0.023568285
0.140251003
0.161280119
0.108275928
0.00280299897
0.00566837936
0.0261960859
0.128781964
0.152722804
0.099581706
0.00312930282
0.0419616779
0.119460439
0.0886686676
0.00363050176
0.0211445345
0.130111589
0.148725289
0.151925768
0.155032994
0.0942364945
0.00366855617
0.00538458025
0.00547938696
0.00565569809
0.0506512241
0.146835894
0.158225757
0.0852694965
0.00377370999
0.0418547502
0.144049935
0.152443353
0.0733605636
0.0042691217
0.0438114805
0.14292915
0.148871781
0.0643066624
0.00459509077
0.0471516038
0.143658277
0.147056602
0.0566789358
0.00485653956
0.0497224056
0.144432147
0.14510838
0.0495175941
0.00511571612
0.0543406471
0.140973581
0.149312559
0.132275098
0.0211481717
0.00497861484
0.0874906058
0.138437667
0.0647257676
0.00492920826
0.0549959045
0.15013379
0.144214105
0.0479554892
0.00495520172
0.0684074353
0.152620748
0.139706281
0.0401449287
0.00486191902
0.0754681947
0.159553626
0.14027903
0.0379357588
0.00588754839
0.00479439397
0.0663524016
0.156178576
0.156153899
0.140808571
0.0484872336
0.00357446807
0.104930582
0.137998026
0.0435244498
0.00373340482
0.0920484908
0.150886517
0.121990679
0.0128711775
0.00426803047
0.0856110211
0.149554033
0.128573057
0.0274246674
0.00348740994
0.0979247771
0.143533721
0.0921693934
0.00276263583
0.0350351234
0.139313919
0.13455199
0.0371285039
0.00529061224
0.017472067
0.121313292
0.155418557
0.126531126
0.0276240594
0.00372213901
0.0835062882
0.145538118
0.125581929
0.0292770475
0.00362504182
0.0845460068
0.150136402
0.130596885
0.0374961109
0.00417848198
0.100144965
0.127468418
0.0469604153
0.0037252674
0.0700053932
0.150445269
0.150294322
0.129392015
0.0507015188
0.0034912948
0.0841340516
0.140858694
0.111566399
0.00431787403
0.00474861693
0.0619336352
0.15627115
0.147501354
0.0656069839
0.00435641559
0.0631616502
0.14239866
0.092715986
0.00537877781
0.0170859749
0.156828507
0.160795542
0.10416982
0.00546332927
0.0254478928
0.140539694
0.113507531
0.00618129015
0.00417539637
0.120776609
0.157210478
0.124127191
0.00624410179
0.00485827771
0.124762732
0.165427722
0.134386829
0.00623624653
0.00544635558
0.120272769
0.162202466
0.107178388
0.00558723664
0.0292913466
0.152478908
0.127966902
0.00612289383
0.00612464151
0.11206513
0.153938011
0.124591019
0.00593821358
0.00601801753
0.119187107
0.165994293
0.142831395
0.00550311143
0.00567886444
0.114255528
0.168965563
0.138490185
0.00477696254
0.00601388419
0.00569888852
0.00578348958
0.0824337048
0.141580959
0.14222252
0.149306265
0.151766594
0.172957651
0.156869576
0.00275722215
0.00604197997
0.0045259774
0.136922222
0.141028268
0.00491251131
0.00547493379
0.122672335
0.169305359
0.148006326
0.00511233984
0.00542147827
0.137539422
0.142367037
0.00504970257
0.00555831338
0.138335395
0.141080175
0.00526296054
0.00571089655
0.135289679
0.131091195
0.00572831491
0.00641530554
0.0671678371
0.133704581
0.140526809
0.136287038
0.154269958
0.121987766
0.00534227876
0.00577553246
0.00592586229
0.00539106805
0.129458429
0.149610424
0.133489431
0.150181879
0.124122389
0.00557601573
0.00613424774
0.0689895691
0.150993369
0.136320913
0.00599445601
0.00575378908
0.12163522
0.169011186
0.143292655
0.00560474534
0.00533756158
0.140090357
0.135702729
0.00627244942
0.00573232716
0.11783152
0.162656321
0.13488852
0.00605065468
0.00556293995
0.120816688
0.168583654
0.142151715
0.00579217743
0.00533852311
0.141513102
0.134536223
0.00641357109
0.00558842422
0.117353062
0.162433591
0.134195755
0.00613083998
0.00549046602
0.121071351
0.168201985
0.139085092
0.00607095456
0.00563301287
0.121327807
0.155282132
0.111440894
0.00608196779
0.00576201229
0.135940279
0.129307656
0.00629464595
0.00609251302
0.0921562115
0.147044771
0.161107763
0.149953024
0.00573942639
0.00509367306
0.147609224
0.144608912
0.00584353528
0.0051542479
0.148766769
0.138386413
0.00307015233
0.00654174893
0.00439579272
0.102771273
0.151823455
0.151740011
0.175893725
0.1563756
0.00557276776
0.00524295489
0.10535476
0.165280306
0.143192387
0.00568308401
0.00488803911
0.146761937
0.141461875
0.00595805997
0.00489343672
0.141427425
0.134287837
0.00632415695
0.00535740865
0.117734055
0.164518992
0.138809364
0.00575101037
0.00490971057
0.141533859
0.13552144
0.00622415054
0.00525185059
0.124665091
0.170746071
0.144796726
0.0056080132
0.00495304798
0.143525293
0.138730464
0.00613068739
0.00528482227
0.123671925
0.171842252
0.147888762
0.00553977381
0.00521649533
0.145095523
0.142395932
0.00608037607
0.00535885258
0.12514864
0.175879672
0.153929927
0.00531926899
0.00535335829
0.14963434
0.149802638
0.00559120485
0.00556955539
0.147171072
0.147293776
0.00567935501
0.00568930821
0.143419175
0.14270663
0.00592426794
0.0056311747
0.121032585
0.173732062
0.153259388
0.00506629536
0.00540333087
0.144258286
0.146828907
0.00524907409
0.00558360314
0.139972116
0.140193669
0.00563906732
0.00562331666
0.11441935
0.168586236
0.14803848
0.00494433227
0.00543363944
0.137340352
0.138097466
0.00542506704
0.00587215189
0.0839868832
0.152334476
0.136794982
0.00540537482
0.00580102688
0.10707134
0.150787756
0.164472921
0.150732007
0.00504659143
0.00513378567
0.121680435
0.179419754
0.155017053
0.00443796434
0.005097976
0.143813477
0.147959793
0.00470220009
0.00530271315
0.140216937
0.143016651
0.00487651369
0.00545060328
0.139969835
0.138481303
0.00340134935
0.00645904751
0.00339536123
0.119626621
0.151629531
0.141235736
0.164882065
0.143309432
0.0042013007
0.00611559484
0.0513954323
0.145330942
0.14031738
0.00537209515
0.00547687322
0.136541318
0.136803172
0.00544566042
0.00531092367
0.137336496
0.135336773
0.0056104281
0.00556465285
0.101311526
0.163901021
0.141961298
0.00497482427
0.00534715874
0.105753154
0.16290564
0.140299483
0.00503929339
0.00531926337
0.104460861
0.151528418
0.166400458
0.155515969
0.0227173642
0.00525880627
0.00536200574
0.00509104732
0.09858967
0.162536603
0.134811909
0.00437597141
0.00434646265
0.157524473
0.157971186
0.00379362974
0.00481055584
0.0967282188
0.168420066
0.151470736
0.00290452733
0.00514764733
0.0832344346
0.162686133
0.150629171
0.00268396177
0.00509301587
0.086554045
0.16324532
0.152189726
0.0105447609
0.00530465663
0.0697572175
0.157934165
0.15175785
0.0104132532
0.00569932782
0.0584001474
0.126945304
0.147614698
0.162487194
0.155176043
)
;

boundaryField
{
    closed
    {
        type            calculated;
        value           nonuniform List<scalar> 0();
    }
    open
    {
        type            calculated;
        value           nonuniform List<scalar> 0();
    }
    sides
    {
        type            empty;
    }
    procBoundary3to2
    {
        type            processor;
        value           uniform 0;
    }
    procBoundary3to4
    {
        type            processor;
        value           uniform 0;
    }
}


// ************************************************************************* //
