/*--------------------------------*- C++ -*----------------------------------*\
| =========                 |                                                 |
| \\      /  F ield         | OpenFOAM: The Open Source CFD Toolbox           |
|  \\    /   O peration     | Version:  2306                                  |
|   \\  /    A nd           | Website:  www.openfoam.com                      |
|    \\/     M anipulation  |                                                 |
\*---------------------------------------------------------------------------*/
FoamFile
{
    version     2.0;
    format      ascii;
    arch        "LSB;label=32;scalar=64";
    class       volScalarField;
    location    "0.0013";
    object      Z;
}
// * * * * * * * * * * * * * * * * * * * * * * * * * * * * * * * * * * * * * //

dimensions      [0 0 0 0 0 0 0];

internalField   nonuniform List<scalar> 
531
(
0.0146388167
0.0148113013
0.0146489639
0.0141247301
0.014108509
0.0146491259
0.0148151543
0.0146472073
0.0141300626
0.0141209612
0.0146749488
0.0148283782
0.0146574746
0.0141375451
0.0141873474
0.0146838909
0.0146255623
0.0141311097
0.014206404
0.0146742754
0.0145977795
0.0141329127
0.0141686431
0.0146945528
0.0148160339
0.0146109265
0.0141467563
0.0142088593
0.0147295833
0.0148462995
0.0147344912
0.0142066896
0.0140862907
0.0140997283
0.0140937979
0.014082392
0.0141772525
0.0146671065
0.0147828528
0.0147839516
0.0148124862
0.0146075928
0.0141535764
0.0142267176
0.0147398443
0.0148236696
0.0145877109
0.0141495656
0.0140782186
0.0142366778
0.0146927698
0.0147932421
0.0145457268
0.0141374059
0.0142968115
0.0146554385
0.0144970098
0.0141272779
0.014217763
0.0147030449
0.0147761879
0.014785779
0.0147993139
0.014519257
0.0141273245
0.0140860474
0.0140845698
0.0140796374
0.0143321346
0.0147645482
0.0148113031
0.0144785016
0.014122731
0.014296408
0.0147566961
0.0147892618
0.0144263113
0.0141114921
0.0143043463
0.0147524747
0.0147756831
0.0143875129
0.0141041451
0.014317658
0.0147555086
0.0147684139
0.0143558744
0.0140982232
0.0143280261
0.0147589166
0.0147612458
0.0143269947
0.0140926125
0.0143472231
0.0147441286
0.0147798526
0.0147136141
0.0142178264
0.0140922573
0.0144909337
0.0147352738
0.0143882104
0.0140933342
0.0143488529
0.0147815835
0.0147574876
0.0143208786
0.0140954019
0.0144057758
0.0147932549
0.0147394058
0.0142900043
0.0140967045
0.014436401
0.0148194876
0.0147381442
0.0142816142
0.014075274
0.0141050288
0.0143965028
0.0148069456
0.0148024622
0.0147444703
0.0143220032
0.0141215139
0.0145709975
0.0147349814
0.0143017014
0.0141187711
0.0145114436
0.0147895787
0.0146610179
0.0141874466
0.0141125558
0.0144830424
0.0147821775
0.0146945754
0.0142411004
0.0141288176
0.0145397718
0.0147607857
0.0145114761
0.0141472338
0.014269635
0.0147402837
0.0147192803
0.0142783201
0.0140876189
0.0142042455
0.0146535585
0.0148060488
0.014682473
0.014242007
0.0141271869
0.0144725045
0.0147663771
0.0146770633
0.0142482395
0.0141288211
0.0144770713
0.014783023
0.0147019138
0.0142795463
0.0141567765
0.0145480087
0.0146895361
0.0143155867
0.0141225756
0.0144134269
0.0147860217
0.0147801676
0.0146966261
0.0143318636
0.014132909
0.0144730977
0.0147451054
0.0146024732
0.0141148542
0.014104329
0.0143773048
0.0148051605
0.0147677076
0.0143941321
0.0141115918
0.0143815146
0.0147471323
0.0145126702
0.0140841239
0.0142028521
0.0148086498
0.0148202822
0.014567047
0.0140849849
0.0142337331
0.0147407201
0.0146160198
0.0140660809
0.0141193245
0.0146540391
0.014803824
0.014667401
0.0140651638
0.0140994411
0.0146745584
0.014833951
0.014714183
0.0140641619
0.0140849244
0.0146499657
0.014824525
0.0145871551
0.0140806442
0.0142476676
0.0147851135
0.0146953979
0.0140684203
0.0140693946
0.0146094677
0.0147908246
0.0146737501
0.0140717315
0.0140699443
0.0146461507
0.0148371681
0.0147500505
0.0140807928
0.0140789564
0.014621177
0.0148532917
0.0147328497
0.0140970367
0.0140732063
0.0140796549
0.0140787991
0.0144710966
0.0147505338
0.0147501418
0.0147815946
0.0147852108
0.0148753433
0.0148041031
0.0141417747
0.014074692
0.0141049154
0.0147283026
0.0147511764
0.0140940806
0.0140848941
0.0146653456
0.0148550717
0.0147700541
0.0140922324
0.0140800874
0.0147301942
0.0147510195
0.0140920541
0.0140775516
0.014731824
0.0147452332
0.0140870427
0.0140729646
0.0147193424
0.0147059935
0.0140753708
0.0140637532
0.0144007512
0.0147143019
0.0147445521
0.0147240793
0.014795296
0.0146612433
0.014084049
0.0140758765
0.0140731008
0.0140807909
0.0146995127
0.0147811925
0.0147150417
0.0147816809
0.0146724473
0.0140805409
0.0140697999
0.0144074801
0.0147779854
0.0147257809
0.0140683977
0.0140755381
0.0146558307
0.0148503971
0.0147491033
0.0140795141
0.0140811286
0.0147368578
0.0147256303
0.014063061
0.0140778207
0.0146382833
0.01482578
0.014719512
0.0140690851
0.014080984
0.01465468
0.0148499219
0.0147456717
0.0140759355
0.0140828539
0.0147440967
0.0147214722
0.0140602545
0.0140822984
0.014636777
0.0148253733
0.0147167261
0.0140666187
0.0140826196
0.0146556234
0.0148466719
0.0147331431
0.0140670401
0.0140782761
0.0146560212
0.0147985501
0.0146061636
0.0140711946
0.0140743298
0.0147241346
0.0146974691
0.0140616467
0.0140712283
0.0145144931
0.0147669193
0.0148198401
0.0147763004
0.0140761059
0.0140905207
0.0147700732
0.0147573327
0.0140753247
0.0140897125
0.0147818427
0.0147323449
0.0141370174
0.0140635092
0.0141179239
0.0145658397
0.0147943067
0.014783732
0.0148799959
0.0148004123
0.0140767616
0.0140912243
0.0145800113
0.0148388296
0.01475019
0.0140783223
0.0140961218
0.0147670183
0.0147450591
0.0140720242
0.0140978472
0.0147447145
0.0147199296
0.0140633581
0.01409016
0.0146399059
0.0148359457
0.0147325352
0.0140763549
0.0140956314
0.0147458717
0.0147240836
0.0140650663
0.0140913526
0.0146754048
0.0148596785
0.0147550166
0.0140786784
0.0140932412
0.0147536771
0.0147368523
0.0140666226
0.0140901287
0.0146707071
0.0148644998
0.0147675296
0.0140802209
0.0140865836
0.0147599873
0.0147515528
0.0140674963
0.0140878092
0.0146788448
0.0148804585
0.0147910722
0.0140848526
0.0140825885
0.0147789106
0.0147784376
0.0140796871
0.0140793678
0.0147683747
0.0147692871
0.014077559
0.0140768463
0.0147526213
0.0147536595
0.0140710582
0.0140811979
0.0146574362
0.0148729626
0.0147897637
0.0140908482
0.0140807694
0.0147589444
0.0147684533
0.0140878875
0.0140784756
0.0147402948
0.0147447619
0.0140774811
0.0140818677
0.0146238357
0.0148542385
0.0147706534
0.0140941597
0.0140791616
0.0147324927
0.0147365702
0.0140824258
0.0140779033
0.0144768699
0.0147898911
0.0147289445
0.0140833934
0.0140743854
0.0145916426
0.0147833241
0.0148353938
0.0147847299
0.0140876295
0.0140897146
0.0146618787
0.0148971921
0.0147986088
0.0141036735
0.0140859125
0.0147582788
0.0147751761
0.0140990237
0.0140827607
0.0147436975
0.014755566
0.014096315
0.0140783006
0.0147485539
0.0147357153
0.0141284413
0.0140634973
0.0141315886
0.0146480441
0.014799072
0.0147432494
0.0148455269
0.0147513997
0.0141063291
0.0140702342
0.0143355834
0.0147615886
0.0147451759
0.0140811458
0.0140780876
0.0147300396
0.0147316907
0.0140801975
0.0140811672
0.0147322389
0.0147260203
0.0140737126
0.0140823057
0.0145578979
0.0148366696
0.0147473713
0.0140874666
0.0140852869
0.0145827446
0.0148346206
0.0147428906
0.0140885505
0.014084168
0.0145803886
0.0147871285
0.0148448524
0.0148009638
0.0142235618
0.0140895128
0.0140878728
0.0140975408
0.0145471317
0.0148368348
0.0147233216
0.0141049899
0.0141041534
0.0148160714
0.0148148505
0.0141568293
0.0140990603
0.0145396563
0.0148592024
0.0147859704
0.0141533183
0.0140925032
0.0144761982
0.0148363575
0.0147834667
0.0141422864
0.0140927559
0.0144910292
0.0148369182
0.0147876179
0.0141800531
0.0140871603
0.0144129962
0.0148147024
0.0147841048
0.0141795767
0.0140766304
0.014364378
0.0146932472
0.0147700451
0.0148295483
0.0147980924
)
;

boundaryField
{
    closed
    {
        type            zeroGradient;
    }
    open
    {
        type            zeroGradient;
    }
    sides
    {
        type            empty;
    }
    procBoundary3to2
    {
        type            processor;
        value           uniform 0.0141010863;
    }
    procBoundary3to4
    {
        type            processor;
        value           uniform 0.0142691403;
    }
}


// ************************************************************************* //
