/*--------------------------------*- C++ -*----------------------------------*\
| =========                 |                                                 |
| \\      /  F ield         | OpenFOAM: The Open Source CFD Toolbox           |
|  \\    /   O peration     | Version:  2306                                  |
|   \\  /    A nd           | Website:  www.openfoam.com                      |
|    \\/     M anipulation  |                                                 |
\*---------------------------------------------------------------------------*/
FoamFile
{
    version     2.0;
    format      ascii;
    arch        "LSB;label=32;scalar=64";
    class       volScalarField;
    location    "0.00134";
    object      H;
}
// * * * * * * * * * * * * * * * * * * * * * * * * * * * * * * * * * * * * * //

dimensions      [0 0 0 0 0 0 0];

internalField   nonuniform List<scalar> 
531
(
9.52133263e-10
1.27133086e-09
2.59993862e-08
4.27840327e-08
3.68195844e-08
7.4717345e-10
1.25129724e-09
2.55961599e-08
4.37761022e-08
3.7066921e-08
6.66114807e-10
1.2307743e-09
2.68874867e-08
4.46623016e-08
3.72119393e-08
6.03229607e-10
1.21874868e-09
2.4651802e-08
4.43745168e-08
4.4001192e-08
1.57546125e-09
1.24507738e-09
1.25596952e-08
3.74353543e-08
3.82346252e-08
2.72301152e-09
1.18447498e-09
2.25490274e-08
4.42477953e-08
4.22786443e-08
4.52158118e-09
1.26449882e-09
1.25949821e-09
2.36958252e-08
4.0486817e-08
4.48015909e-08
4.56106485e-08
1.97270521e-08
9.81536078e-10
1.07794883e-09
2.7579834e-08
4.49924998e-08
4.27858629e-08
3.50625985e-09
1.05240308e-09
2.23129142e-08
4.46205506e-08
4.0859971e-08
2.32323873e-09
6.88323745e-10
3.04245106e-08
3.39541932e-08
3.8423185e-09
6.82646582e-10
3.08620728e-08
3.42068533e-08
4.89318321e-09
9.53314949e-10
2.4781585e-08
4.40136179e-08
3.6605197e-08
1.51728201e-09
9.85770499e-10
2.4963258e-08
3.93914913e-08
4.27848672e-08
4.32544689e-08
1.71877343e-08
1.07550248e-09
9.77731083e-10
3.26771263e-08
4.57660031e-08
3.23587078e-08
6.73253673e-10
9.3147015e-10
2.87965025e-08
3.84378751e-08
2.18837622e-08
1.03025662e-09
9.1982072e-10
3.03208543e-08
4.47596968e-08
4.74321104e-08
2.95409982e-08
8.39119177e-10
9.59166705e-10
3.19524264e-08
4.32612827e-08
2.6032234e-08
9.41282538e-10
9.14614056e-10
3.25531072e-08
4.20504762e-08
2.45948959e-08
9.41506652e-10
1.25785298e-09
1.73264657e-08
3.8367842e-08
4.41355501e-08
4.75925395e-08
3.06493087e-08
7.94039253e-10
1.22754996e-09
2.00214187e-08
4.26342487e-08
3.06065297e-08
8.27949745e-10
1.02087917e-09
3.16654406e-08
4.51955821e-08
2.78092743e-08
8.55604421e-10
1.24087682e-08
3.68513629e-08
2.52096063e-08
9.46115667e-10
1.38805358e-09
3.56688234e-08
4.63033974e-08
2.94972491e-08
7.72808886e-10
7.88378722e-10
3.37864452e-08
4.60228137e-08
3.0611675e-08
6.95051423e-10
8.24163629e-10
3.20775122e-08
4.58194279e-08
3.20725048e-08
5.99896052e-10
8.60217475e-10
3.02878738e-08
4.5683349e-08
3.3859098e-08
7.124389e-10
9.13245603e-10
2.77047968e-08
4.5566347e-08
3.60642759e-08
1.84718081e-09
9.68711314e-10
2.47594199e-08
4.34621356e-08
3.47264138e-08
1.81002298e-09
8.03391511e-10
2.69967007e-08
4.0444466e-08
2.72282519e-08
6.19946595e-10
5.93928479e-09
3.6902127e-08
3.767563e-08
4.54960591e-09
7.5996429e-10
2.68215574e-08
4.02443142e-08
2.46093705e-08
6.38458372e-10
1.03768422e-08
3.90827377e-08
3.96055095e-08
5.50538329e-09
7.89515847e-10
2.3979848e-08
3.80964649e-08
4.29521314e-08
4.46443675e-08
2.23228744e-08
8.09817937e-10
6.0566353e-09
3.58776257e-08
3.82801493e-08
8.52725557e-09
8.7256203e-10
2.05568662e-08
3.99935516e-08
3.41032082e-08
1.40543945e-09
5.91418788e-10
3.30105344e-08
3.82936416e-08
1.02329804e-08
8.50161925e-10
2.13048984e-08
4.10674987e-08
3.45177605e-08
7.33769634e-10
6.33807083e-10
3.37908956e-08
3.87632692e-08
8.85088452e-09
8.42834679e-10
2.40577342e-08
4.18982291e-08
3.07438903e-08
6.17696143e-10
4.09922054e-09
3.98443632e-08
4.05533482e-08
5.65292816e-09
7.6805293e-10
2.68101178e-08
4.45985384e-08
3.64504614e-08
6.34750286e-10
8.30634965e-10
2.83334602e-08
4.36030916e-08
3.41061358e-08
8.13245973e-10
8.47302039e-10
2.61072011e-08
4.11860066e-08
4.25092421e-08
2.74631128e-08
9.08247715e-10
6.33205607e-10
3.42004507e-08
4.41186763e-08
2.98001375e-08
8.94210661e-10
6.79478023e-10
3.1856698e-08
3.99206525e-08
2.40975499e-08
9.54285791e-10
5.04330376e-10
3.64107499e-08
4.25546002e-08
2.40993142e-08
9.18854193e-10
1.11799183e-09
3.86225961e-08
4.19533872e-08
1.9488626e-08
7.74387001e-10
1.61876676e-08
3.83880941e-08
2.69902441e-08
8.64873655e-10
3.02018496e-09
4.22452181e-08
4.39076317e-08
2.18497607e-08
9.39911412e-10
1.83186549e-09
4.06711816e-08
4.12549449e-08
1.93136712e-08
1.00299101e-09
1.61168147e-09
4.12592251e-08
4.16438066e-08
1.91361882e-08
9.96543724e-10
3.45660808e-09
4.06431962e-08
4.1527999e-08
4.09727255e-08
4.08763682e-08
1.86706206e-08
9.38751959e-10
1.64187469e-08
3.43174396e-08
1.73846394e-08
9.71945125e-10
2.05810595e-08
3.60856011e-08
1.84473063e-08
1.01862804e-09
1.11844759e-08
4.10399456e-08
4.11250317e-08
1.53581537e-08
9.55047572e-10
1.16884678e-08
4.33189735e-08
4.43515726e-08
1.73444308e-08
8.06350612e-10
2.30804525e-08
4.0169929e-08
1.8582184e-08
8.40103251e-10
2.39149694e-08
3.73274572e-08
1.49496395e-08
9.38988461e-10
1.65689567e-08
4.06006051e-08
4.08141736e-08
9.79181427e-09
9.76914517e-10
1.54678552e-08
4.13985631e-08
4.21627763e-08
1.03348687e-08
9.30813677e-10
1.78913665e-08
4.28668766e-08
4.33431342e-08
8.63479412e-09
9.13618723e-10
2.03381616e-08
4.44114125e-08
4.49068452e-08
9.70387817e-09
8.99176454e-10
2.76318251e-08
3.87537823e-08
1.09955668e-08
9.05579227e-10
2.28338266e-08
4.47929333e-08
4.42739948e-08
1.94497366e-09
9.89990553e-10
2.99421252e-08
3.88239874e-08
7.62500577e-09
9.40168796e-10
2.55599745e-08
4.62968075e-08
4.43275999e-08
6.37829419e-10
9.91141252e-10
3.21614255e-08
4.18620787e-08
1.00637339e-08
9.53275521e-10
3.28253951e-08
3.87835893e-08
5.74556003e-10
1.00588146e-09
2.84862428e-08
4.46485882e-08
3.86090786e-08
9.3788576e-10
1.01477242e-09
2.86172896e-08
4.64616259e-08
4.14889269e-08
9.62753478e-10
1.02366133e-09
3.5435511e-08
3.83768725e-08
8.40782132e-10
9.59641226e-10
4.06012622e-08
4.3040609e-08
5.30959522e-10
8.7593454e-10
3.30980369e-08
4.99200497e-08
4.28648137e-08
9.92145672e-10
9.22920751e-10
3.73658734e-08
3.75834946e-08
9.84075236e-10
8.79721877e-10
3.76687974e-08
3.61087514e-08
1.05346574e-09
9.39127294e-10
3.51877253e-08
4.86848401e-08
3.91760729e-08
1.07875622e-09
9.04445856e-10
3.50031665e-08
3.38161821e-08
1.15170176e-09
1.00156272e-09
3.41311451e-08
4.63793077e-08
3.48737847e-08
1.14617405e-09
1.03026206e-09
3.2485111e-08
4.56116032e-08
3.41451343e-08
1.17621555e-09
1.04915852e-09
3.24066093e-08
4.5267096e-08
3.34462948e-08
1.1980647e-09
1.06489541e-09
3.24376073e-08
4.45835345e-08
3.33378738e-08
1.22193896e-09
1.10322162e-09
3.08162089e-08
4.58914188e-08
4.58377005e-08
3.74622913e-08
1.06970212e-09
1.38241818e-09
7.91626015e-10
3.35183524e-08
4.79319954e-08
3.37918611e-08
1.17223875e-09
1.04128472e-09
3.69026787e-08
4.80012269e-08
3.51878603e-08
1.17593676e-09
9.60665299e-10
3.69462763e-08
3.38672918e-08
1.26785162e-09
1.01302864e-09
4.02252765e-08
4.94164165e-08
3.64835832e-08
1.13306924e-09
9.28525854e-10
3.95240382e-08
3.70653812e-08
1.21616907e-09
9.02015305e-10
3.99821569e-08
3.71319178e-08
1.23630517e-09
9.23219123e-10
3.88455921e-08
3.47908601e-08
1.24635337e-09
1.03598509e-09
4.1278715e-08
4.93975635e-08
3.53615817e-08
1.1518613e-09
9.853433e-10
3.64586657e-08
3.33403345e-08
1.25289782e-09
1.11636426e-09
3.84377903e-08
4.65188449e-08
3.2032747e-08
1.15707898e-09
1.1122388e-09
3.65754543e-08
4.63509242e-08
3.207815e-08
1.13306448e-09
1.10228245e-09
3.72409001e-08
4.72816378e-08
3.289106e-08
1.0856524e-09
1.08182673e-09
3.88337859e-08
4.88657262e-08
3.5801894e-08
1.06271249e-09
1.01763759e-09
3.5486592e-08
3.43673799e-08
1.12574804e-09
1.15539681e-09
3.91887283e-08
4.79756077e-08
3.51843415e-08
9.9037498e-10
1.41279114e-09
1.23293053e-09
3.07453164e-08
4.5303761e-08
4.4927623e-08
3.63599021e-08
1.01945672e-09
1.1493627e-09
3.65305067e-08
4.80897573e-08
3.77788812e-08
9.64348519e-10
1.11536559e-09
3.38098005e-08
3.4679836e-08
8.65611817e-10
1.20325736e-09
3.52884931e-08
4.76136981e-08
3.98828173e-08
8.83638263e-10
1.14150699e-09
3.38036035e-08
3.71626435e-08
6.49649041e-10
1.20304374e-09
3.31199765e-08
3.51969624e-08
6.85995802e-10
1.24930194e-09
3.24200347e-08
4.57496565e-08
3.83546781e-08
8.50886626e-10
1.23125835e-09
3.04297866e-08
4.54726204e-08
3.87957836e-08
8.35633448e-10
1.24579698e-09
2.92674564e-08
4.48296204e-08
3.90538314e-08
8.23996801e-10
1.25835284e-09
2.81846818e-08
4.43365148e-08
3.94917318e-08
8.06426098e-10
1.26138097e-09
2.73578129e-08
4.41303135e-08
4.00517453e-08
7.85291439e-10
1.26044465e-09
2.66864957e-08
4.40236313e-08
4.0611757e-08
7.62561634e-10
1.25737436e-09
)
;

boundaryField
{
    closed
    {
        type            calculated;
        value           nonuniform List<scalar> 0();
    }
    open
    {
        type            calculated;
        value           nonuniform List<scalar> 0();
    }
    sides
    {
        type            empty;
    }
    procBoundary1to0
    {
        type            processor;
        value           uniform 2.90149302e-08;
    }
    procBoundary1to2
    {
        type            processor;
        value           uniform 2.59655144e-08;
    }
}


// ************************************************************************* //
