/*--------------------------------*- C++ -*----------------------------------*\
| =========                 |                                                 |
| \\      /  F ield         | OpenFOAM: The Open Source CFD Toolbox           |
|  \\    /   O peration     | Version:  2306                                  |
|   \\  /    A nd           | Website:  www.openfoam.com                      |
|    \\/     M anipulation  |                                                 |
\*---------------------------------------------------------------------------*/
FoamFile
{
    version     2.0;
    format      ascii;
    arch        "LSB;label=32;scalar=64";
    class       volScalarField;
    location    "0.00134";
    object      H2O;
}
// * * * * * * * * * * * * * * * * * * * * * * * * * * * * * * * * * * * * * //

dimensions      [0 0 0 0 0 0 0];

internalField   nonuniform List<scalar> 
531
(
0.000950933437
0.00105289318
0.00510883066
0.00704504146
0.00659454362
0.000869020258
0.00104025222
0.00504639929
0.00712615471
0.00661590629
0.000835888122
0.00102315662
0.0052439655
0.00719793393
0.00662967774
0.000818009074
0.00101826796
0.00489870081
0.00716930788
0.00713899493
0.000959721329
0.00105546883
0.0029395925
0.00664641389
0.00669420207
0.00115298726
0.00101264707
0.00456251245
0.00715535229
0.00700693879
0.00146501526
0.00106651998
0.00106464794
0.0047471803
0.00687108328
0.00721226399
0.00726715425
0.00407850566
0.000965632413
0.000984162934
0.00534810923
0.0071992198
0.0070337417
0.00130387279
0.000948841643
0.0045204513
0.0071893869
0.00688936305
0.00110363978
0.000821157807
0.00577951407
0.00628726764
0.00137906111
0.000827045481
0.00584411082
0.0063240892
0.00155584928
0.000917845173
0.00491135231
0.00713175087
0.00659427764
0.000958505208
0.000923118087
0.00494587787
0.00678333461
0.00705557531
0.00707920789
0.00367481361
0.000995669187
0.000962750279
0.0061168408
0.00727058597
0.00607110067
0.00083666701
0.000908118871
0.00553635678
0.00668905255
0.00445449624
0.000982909194
0.000938973238
0.00576440113
0.00720888794
0.00742537369
0.00564632144
0.000890410373
0.000926289471
0.0060067966
0.00706715459
0.0051050619
0.000944243126
0.000917871743
0.00609363937
0.00696333796
0.00487660315
0.000955431563
0.00105068074
0.00372686741
0.00670007498
0.00718131014
0.00741884827
0.00581451485
0.00088671324
0.00102687423
0.00415824159
0.0070330348
0.00580796787
0.000892588128
0.000942567141
0.0059645104
0.00722525741
0.00538148763
0.000907379841
0.00288057292
0.00658936923
0.00497933363
0.00093642185
0.000960841199
0.00654544513
0.00731192469
0.00564092599
0.000885248608
0.000875024608
0.00627749439
0.0072855084
0.00580834299
0.000862209899
0.000885270307
0.00602699078
0.00726848362
0.00602459451
0.000832659914
0.00089703303
0.00575998579
0.00725648152
0.00628392698
0.000837998718
0.00091250376
0.00536693871
0.0072488746
0.00654992075
0.00103309341
0.000924549144
0.00490905758
0.0070824123
0.00640827027
0.00104472721
0.000883303925
0.00526157934
0.00683764897
0.00529361783
0.000838319433
0.00176170555
0.0066018437
0.00665167561
0.00150374556
0.000859077587
0.00523431998
0.00681907019
0.0048815323
0.000833952524
0.00253726959
0.00675794638
0.00679216123
0.00166779128
0.000860757107
0.00479313007
0.0066724209
0.00706146113
0.0071820357
0.00450727138
0.000888053594
0.00178799237
0.00652437148
0.00668745525
0.00219489699
0.000898297043
0.00424435893
0.00680063603
0.00631442616
0.000940887598
0.000798644339
0.00615917863
0.0066805529
0.00248426416
0.000886066362
0.0043627939
0.00688327601
0.00637434122
0.000812590062
0.000805904195
0.0062706129
0.00671614375
0.00224105295
0.000884086983
0.0048018704
0.00694419983
0.00582782782
0.000805309876
0.001412783
0.0068052271
0.00685986117
0.00167046538
0.000858625194
0.00523131379
0.00716384011
0.00658134056
0.000802598013
0.000888732251
0.00546600235
0.00708760305
0.00632167965
0.000860072234
0.000895065704
0.00512938455
0.00692156092
0.00702283363
0.00533125202
0.000901182694
0.000833836104
0.00633071199
0.0071278104
0.0056864506
0.000892392766
0.000845024777
0.00598931684
0.00680139036
0.00480767856
0.000924708302
0.000790323803
0.00655373084
0.00700536668
0.00480662521
0.000910057024
0.000884976185
0.00671153519
0.00695815607
0.00405921408
0.000859505425
0.00349799141
0.00669218248
0.00525911382
0.000869877863
0.00120765699
0.006987991
0.00711482738
0.00445151211
0.0009205323
0.00100040544
0.00686241346
0.00690351013
0.00404553371
0.000951306715
0.000962782019
0.0069120363
0.00693435456
0.00401635365
0.000950746938
0.00128459035
0.00685723556
0.00692755723
0.00691898696
0.00689550527
0.00393380892
0.000922234124
0.00355539869
0.00634239997
0.00371351508
0.000921295195
0.00424007262
0.00652945153
0.00389162001
0.000950076727
0.00266545482
0.00690488041
0.00690315548
0.00338974805
0.000947095303
0.00276248359
0.00709283782
0.00716573673
0.00370103001
0.000862840271
0.0046400353
0.00684087156
0.00389380412
0.000864525141
0.00477511122
0.00661924807
0.00329138664
0.000933349635
0.00359118248
0.00686125968
0.0068840081
0.00242685399
0.000959466546
0.00341852818
0.00692879296
0.00699047133
0.00250761805
0.000934241708
0.00381836255
0.00704133104
0.00708415815
0.00220521141
0.000921639604
0.00421757089
0.00716573015
0.00721567917
0.0023892298
0.000893545445
0.00535998979
0.00671608056
0.00260053644
0.000915473085
0.00461428917
0.00717648414
0.00715774568
0.00101404006
0.000932312314
0.00570704763
0.00671784789
0.0020100331
0.000928695477
0.00504340081
0.00729666166
0.00716692815
0.00079328772
0.000925118939
0.00603252133
0.00696821553
0.00244620544
0.00090728047
0.00612816787
0.00672204469
0.000745525922
0.000960918369
0.00549077098
0.00716827702
0.00671935208
0.000908487462
0.000967323914
0.00551017116
0.00731703494
0.00695460608
0.000916908567
0.000947933835
0.00643786017
0.00670023382
0.000843925339
0.00092038552
0.00684326724
0.00706087015
0.000741876593
0.000907919845
0.00616694266
0.00759876835
0.00707161637
0.000933491591
0.000908145801
0.006590014
0.00664117461
0.000908023152
0.000898018363
0.00662784559
0.00652504996
0.000929849338
0.000933451265
0.00646344891
0.0075042648
0.00679002702
0.00096348196
0.000901947605
0.00643232346
0.00627081959
0.000973164228
0.00095763843
0.00631904249
0.00732257274
0.00642893195
0.000986029323
0.000963320543
0.00608153029
0.00726417518
0.00632417601
0.000998025471
0.000969417788
0.00607061995
0.00723940558
0.00622318013
0.00100687325
0.000976138102
0.00607567514
0.00718391403
0.00620824156
0.00103161524
0.000982823039
0.00583542548
0.00730872051
0.00728621501
0.00667174786
0.000975194109
0.00111200887
0.000874440129
0.00623471727
0.00743801218
0.00627468069
0.00101203005
0.000950971005
0.00660145741
0.00745998264
0.00647311975
0.00101091891
0.000900271443
0.00660587691
0.00627538584
0.00103691825
0.000950697317
0.00686794322
0.00757199213
0.00657531864
0.00100080716
0.000877512849
0.0068000898
0.00658215478
0.00101925094
0.000876434998
0.00684766679
0.00658152669
0.00102402697
0.000884815186
0.00676518335
0.00640318606
0.00103352865
0.000956038435
0.00695225634
0.00757228917
0.00648471459
0.00101202854
0.000896255331
0.00657633388
0.00619817922
0.00104381447
0.000987532491
0.00673292992
0.00734028908
0.00601586918
0.0010199848
0.000975711093
0.00658651549
0.00732896243
0.00602253252
0.00101030674
0.000968347563
0.00664062676
0.0074042796
0.00614091443
0.000991448605
0.000955875007
0.00676473266
0.00753252457
0.00651365649
0.000981913964
0.000902557363
0.00651627111
0.00634436464
0.000997613577
0.000994281531
0.00680978003
0.00745757743
0.00647636437
0.0009924856
0.00113131231
0.00101874228
0.0058273531
0.00724919552
0.00723829338
0.00654065651
0.000961056465
0.000990440926
0.00660632279
0.00746940835
0.00666249252
0.00096052399
0.00095514701
0.00627823886
0.00639184602
0.000928483905
0.00102375205
0.00649585919
0.00743350742
0.00682669035
0.000931215749
0.000963704953
0.00627882916
0.00660987706
0.000852831381
0.000999689475
0.00617929764
0.00646177056
0.000865501644
0.00104331337
0.00607710751
0.00729035462
0.00671686321
0.000919020092
0.00102513282
0.00578108771
0.00727099161
0.00675018518
0.000911109378
0.00103383655
0.00560658346
0.00721991584
0.00677029679
0.000905822789
0.00104193888
0.00544288977
0.00718060749
0.00680359395
0.000897052792
0.00104526242
0.00531709184
0.00716380359
0.00684649258
0.000886022502
0.00104620964
0.00521450872
0.00715455019
0.00688922285
0.000874444499
0.00104641983
)
;

boundaryField
{
    closed
    {
        type            calculated;
        value           nonuniform List<scalar> 0();
    }
    open
    {
        type            calculated;
        value           nonuniform List<scalar> 0();
    }
    sides
    {
        type            empty;
    }
    procBoundary1to0
    {
        type            processor;
        value           uniform 0.00556870952;
    }
    procBoundary1to2
    {
        type            processor;
        value           uniform 0.00510390312;
    }
}


// ************************************************************************* //
