/*--------------------------------*- C++ -*----------------------------------*\
| =========                 |                                                 |
| \\      /  F ield         | OpenFOAM: The Open Source CFD Toolbox           |
|  \\    /   O peration     | Version:  2306                                  |
|   \\  /    A nd           | Website:  www.openfoam.com                      |
|    \\/     M anipulation  |                                                 |
\*---------------------------------------------------------------------------*/
FoamFile
{
    version     2.0;
    format      ascii;
    arch        "LSB;label=32;scalar=64";
    class       volScalarField;
    location    "0.00016";
    object      prefDPV_T;
}
// * * * * * * * * * * * * * * * * * * * * * * * * * * * * * * * * * * * * * //

dimensions      [1 -1 -1 -1 0 0 0];

internalField   nonuniform List<scalar> 
531
(
5.9764828e-10
5.97669983e-10
5.97512716e-10
5.9747698e-10
5.97557278e-10
5.97589029e-10
5.97552322e-10
5.97530812e-10
5.97545884e-10
5.97558009e-10
5.97552507e-10
5.97546522e-10
5.97548305e-10
5.97550959e-10
5.97550438e-10
5.97549382e-10
5.97549517e-10
5.97549887e-10
5.97549859e-10
5.97549749e-10
5.97549755e-10
5.97549779e-10
5.97549776e-10
5.9754977e-10
5.97549778e-10
5.97549781e-10
5.97549771e-10
5.97549769e-10
5.97549777e-10
5.9754978e-10
5.97549773e-10
5.97549771e-10
5.97549775e-10
5.97549777e-10
5.97549774e-10
5.97549772e-10
5.97549775e-10
5.97549777e-10
5.97549774e-10
5.97549772e-10
5.97549775e-10
5.97549776e-10
5.97549774e-10
5.97549773e-10
5.97549776e-10
5.97549776e-10
5.97549772e-10
5.97549773e-10
5.97549778e-10
5.97549778e-10
5.97549771e-10
5.9754977e-10
5.97549777e-10
5.97549779e-10
5.97549775e-10
5.9754977e-10
5.97549772e-10
5.97549778e-10
5.97549778e-10
5.97549772e-10
5.97549771e-10
5.97549775e-10
5.97549778e-10
5.97549775e-10
5.97549771e-10
5.97549773e-10
5.97549779e-10
5.97549778e-10
5.97549771e-10
5.97549771e-10
5.97549776e-10
5.97549777e-10
5.97549774e-10
5.97549774e-10
5.97549775e-10
5.97549772e-10
5.97549772e-10
5.97549779e-10
5.97549779e-10
5.9754977e-10
5.97549768e-10
5.97549778e-10
5.97549782e-10
5.97549773e-10
5.97549768e-10
5.97549774e-10
5.9754978e-10
5.97549775e-10
5.9754977e-10
5.97549773e-10
5.97549778e-10
5.97549776e-10
5.97549772e-10
5.97549774e-10
5.97549776e-10
5.97549775e-10
5.97549773e-10
5.97549775e-10
5.97549776e-10
5.97549774e-10
5.97549773e-10
5.97549775e-10
5.97549777e-10
5.97549775e-10
5.97549772e-10
5.97549773e-10
5.97549777e-10
5.97549777e-10
5.97549773e-10
5.97549773e-10
5.97549774e-10
5.97549775e-10
5.97549776e-10
5.97549777e-10
5.97549772e-10
5.9754977e-10
5.97549775e-10
5.97549782e-10
5.97549779e-10
5.97549765e-10
5.97549766e-10
5.97549784e-10
5.97549786e-10
5.97549769e-10
5.97549761e-10
5.97549774e-10
5.97549787e-10
5.9754978e-10
5.97549764e-10
5.97549766e-10
5.97549782e-10
5.97549783e-10
5.97549771e-10
5.97549767e-10
5.97549773e-10
5.97549781e-10
5.97549779e-10
5.9754977e-10
5.97549768e-10
5.97549774e-10
5.97549782e-10
5.9754978e-10
5.97549768e-10
5.97549766e-10
5.97549776e-10
5.97549784e-10
5.97549779e-10
5.97549765e-10
5.97549766e-10
5.97549781e-10
5.97549785e-10
5.97549773e-10
5.97549764e-10
5.97549771e-10
5.97549784e-10
5.97549783e-10
5.97549767e-10
5.97549764e-10
5.97549777e-10
5.97549785e-10
5.9754978e-10
5.97549764e-10
5.97549765e-10
5.9754978e-10
5.97549785e-10
5.97549777e-10
5.97549765e-10
5.97549766e-10
5.97549781e-10
5.97549785e-10
5.97549775e-10
5.97549765e-10
5.97549767e-10
5.97549783e-10
5.97549784e-10
5.97549771e-10
5.97549764e-10
5.97549773e-10
5.97549785e-10
5.97549781e-10
5.97549765e-10
5.97549765e-10
5.97549782e-10
5.97549786e-10
5.97549771e-10
5.97549762e-10
5.97549774e-10
5.97549788e-10
5.97549782e-10
5.97549762e-10
5.97549763e-10
5.97549782e-10
5.97549787e-10
5.97549774e-10
5.97549764e-10
5.97549767e-10
5.97549782e-10
5.97549783e-10
5.97549774e-10
5.97549766e-10
5.9754977e-10
5.97549781e-10
5.97549781e-10
5.97549772e-10
5.97549769e-10
5.97549773e-10
5.97549779e-10
5.97549779e-10
5.97549773e-10
5.9754977e-10
5.97549772e-10
5.97549779e-10
5.9754978e-10
5.97549773e-10
5.97549768e-10
5.97549773e-10
5.9754978e-10
5.97549779e-10
5.9754977e-10
5.9754977e-10
5.97549776e-10
5.97549778e-10
5.97549774e-10
5.97549772e-10
5.97549774e-10
5.97549775e-10
5.97549775e-10
5.97549774e-10
5.97549775e-10
5.97549774e-10
5.97549774e-10
5.97549775e-10
5.97549775e-10
5.97549774e-10
5.97549774e-10
5.97549776e-10
5.97549776e-10
5.97549774e-10
5.97549772e-10
5.97549774e-10
5.97549778e-10
5.97549778e-10
5.97549771e-10
5.97549769e-10
5.97549776e-10
5.97549781e-10
5.97549777e-10
5.97549768e-10
5.97549769e-10
5.9754978e-10
5.9754978e-10
5.97549772e-10
5.97549769e-10
5.97549774e-10
5.9754978e-10
5.97549778e-10
5.97549769e-10
5.9754977e-10
5.97549778e-10
5.9754978e-10
5.97549774e-10
5.97549769e-10
5.97549772e-10
5.97549779e-10
5.97549779e-10
5.97549773e-10
5.97549771e-10
5.97549774e-10
5.97549777e-10
5.97549776e-10
5.97549773e-10
5.97549774e-10
5.97549776e-10
5.97549774e-10
5.97549773e-10
5.97549776e-10
5.97549778e-10
5.97549774e-10
5.97549769e-10
5.97549773e-10
5.9754978e-10
5.97549778e-10
5.97549769e-10
5.97549771e-10
5.97549779e-10
5.97549779e-10
5.97549769e-10
5.97549769e-10
5.9754978e-10
5.97549782e-10
5.9754977e-10
5.97549764e-10
5.97549775e-10
5.97549787e-10
5.9754978e-10
5.97549763e-10
5.97549765e-10
5.97549783e-10
5.97549785e-10
5.97549772e-10
5.97549766e-10
5.97549773e-10
5.97549779e-10
5.97549777e-10
5.97549773e-10
5.97549773e-10
5.97549775e-10
5.97549775e-10
5.97549773e-10
5.97549775e-10
5.97549777e-10
5.97549776e-10
5.9754977e-10
5.97549771e-10
5.97549779e-10
5.9754978e-10
5.97549772e-10
5.97549768e-10
5.97549774e-10
5.97549781e-10
5.97549778e-10
5.97549769e-10
5.9754977e-10
5.97549777e-10
5.97549779e-10
5.97549775e-10
5.97549771e-10
5.97549772e-10
5.97549776e-10
5.97549778e-10
5.97549776e-10
5.97549771e-10
5.97549771e-10
5.97549776e-10
5.97549778e-10
5.97549775e-10
5.97549772e-10
5.97549773e-10
5.97549776e-10
5.97549776e-10
5.97549773e-10
5.97549773e-10
5.97549776e-10
5.97549776e-10
5.97549774e-10
5.97549773e-10
5.97549775e-10
5.97549776e-10
5.97549774e-10
5.97549774e-10
5.97549775e-10
5.97549775e-10
5.97549774e-10
5.97549774e-10
5.97549775e-10
5.97549775e-10
5.97549774e-10
5.97549774e-10
5.97549775e-10
5.97549775e-10
5.97549774e-10
5.97549775e-10
5.97549775e-10
5.97549774e-10
5.97549774e-10
5.97549774e-10
5.97549775e-10
5.97549775e-10
5.97549774e-10
5.97549774e-10
5.97549775e-10
5.97549774e-10
5.97549773e-10
5.97549774e-10
5.97549776e-10
5.97549775e-10
5.9754977e-10
5.97549769e-10
5.97549771e-10
5.97549772e-10
5.97549767e-10
5.97549759e-10
5.97549754e-10
5.97549754e-10
5.97549749e-10
5.97549732e-10
5.97549707e-10
5.97549695e-10
5.97549699e-10
5.97549624e-10
5.9754946e-10
5.9754976e-10
5.97550091e-10
5.97547503e-10
5.97545309e-10
5.97559734e-10
5.97574225e-10
5.97508417e-10
5.9742062e-10
5.97642992e-10
5.98009785e-10
5.97452723e-10
5.9593478e-10
5.97194278e-10
6.01265616e-10
5.98643247e-10
5.91021027e-10
5.90770225e-10
6.09698745e-10
6.09165176e-10
5.94490994e-10
5.88293457e-10
5.88415133e-10
6.1267118e-10
6.0791805e-10
6.12899568e-10
5.85493133e-10
5.86706407e-10
6.05053956e-10
6.03406911e-10
6.02928593e-10
6.01053723e-10
6.00206119e-10
5.98021435e-10
5.96872604e-10
5.94355636e-10
5.92826926e-10
5.90246259e-10
5.88235049e-10
5.86029923e-10
5.83966157e-10
5.81791702e-10
5.71190138e-10
5.62827799e-10
5.51986469e-10
5.50722264e-10
5.43635567e-10
5.34860377e-10
5.3077267e-10
5.13029978e-10
4.86677961e-10
5.39471996e-10
4.67229838e-10
5.06819694e-10
4.82852011e-10
4.77623395e-10
4.82536313e-10
4.53669726e-10
4.05663513e-10
3.99503077e-10
3.83054287e-10
3.69051296e-10
3.55832542e-10
3.37180885e-10
3.23270604e-10
3.02582584e-10
2.90832105e-10
2.71205054e-10
2.60739926e-10
2.41438171e-10
2.32588671e-10
2.12437022e-10
2.138184e-10
1.84305697e-10
1.70720049e-10
1.52694145e-10
2.00739208e-10
1.35710121e-10
9.0961839e-11
1.07776749e-10
1.87058051e-10
9.92488166e-11
2.82495632e-11
6.92979862e-11
1.96270294e-10
8.82418707e-11
-8.22741589e-12
2.20900284e-11
1.60607919e-10
5.59058217e-11
-2.64803306e-11
-6.81632144e-12
1.12026961e-10
1.24585509e-11
-3.84238755e-11
-1.79945764e-11
5.91506764e-11
-2.37997992e-11
-3.9150117e-11
-3.01036018e-11
2.89108064e-11
-3.8537238e-11
-3.91682039e-11
-3.88372583e-11
9.6893069e-12
-3.85184349e-11
-3.98827167e-11
-3.8803325e-11
-6.27410263e-12
-3.88767488e-11
-3.98985481e-11
-3.92293789e-11
-1.79424729e-11
-3.93676118e-11
-4.00124557e-11
-3.95809746e-11
-2.5165478e-11
-3.97174704e-11
-4.0181955e-11
-3.98837751e-11
-2.97118825e-11
-4.00033293e-11
-4.03396742e-11
-4.01299978e-11
-3.25380933e-11
-4.02504882e-11
-4.04825761e-11
-4.03609182e-11
-3.43022357e-11
-4.04024155e-11
-4.06252781e-11
-4.0479892e-11
-3.56095513e-11
-4.00624355e-11
-4.07766385e-11
-4.05734308e-11
-3.66273547e-11
-3.98314183e-11
-4.09425261e-11
-4.07584804e-11
-3.74445466e-11
)
;

boundaryField
{
    closed
    {
        type            calculated;
        value           nonuniform List<scalar> 0();
    }
    open
    {
        type            calculated;
        value           nonuniform List<scalar> 0();
    }
    sides
    {
        type            empty;
    }
    procBoundary4to3
    {
        type            processor;
        value           uniform 5.97379742e-10;
    }
    procBoundary4to5
    {
        type            processor;
        value           uniform -3.96881291e-11;
    }
}


// ************************************************************************* //
