/*--------------------------------*- C++ -*----------------------------------*\
| =========                 |                                                 |
| \\      /  F ield         | OpenFOAM: The Open Source CFD Toolbox           |
|  \\    /   O peration     | Version:  2306                                  |
|   \\  /    A nd           | Website:  www.openfoam.com                      |
|    \\/     M anipulation  |                                                 |
\*---------------------------------------------------------------------------*/
FoamFile
{
    version     2.0;
    format      ascii;
    arch        "LSB;label=32;scalar=64";
    class       volScalarField;
    location    "0.0007";
    object      H;
}
// * * * * * * * * * * * * * * * * * * * * * * * * * * * * * * * * * * * * * //

dimensions      [0 0 0 0 0 0 0];

internalField   nonuniform List<scalar> 
531
(
3.87756957e-08
4.36215852e-08
4.80560356e-09
8.4715438e-10
3.45470954e-08
4.18101632e-08
6.10312236e-09
1.08464689e-09
3.07920599e-08
4.22830979e-08
8.57836928e-09
1.11265252e-09
1.74357659e-08
4.26460086e-08
4.34285521e-08
3.58279366e-09
1.17122024e-09
2.64437476e-08
4.6004526e-08
2.67240053e-08
8.28692207e-10
1.8710366e-08
4.16129971e-08
2.69833982e-08
8.89181111e-10
5.99030565e-10
3.74666165e-08
4.13534309e-08
6.61994375e-09
1.24750718e-09
1.62102955e-08
3.53604917e-08
4.68430718e-08
4.68272632e-08
6.19242878e-09
1.15840686e-09
9.86102699e-10
1.2612929e-09
8.59136457e-09
3.39959567e-08
4.09223063e-08
4.16416195e-08
4.95137269e-08
5.04474025e-08
9.587769e-09
9.4518067e-10
1.02069611e-09
1.02765637e-09
2.43924312e-08
4.74081843e-08
4.61639537e-08
5.77185409e-10
1.18828449e-09
2.64718647e-08
4.56747974e-08
4.08983552e-08
7.6204425e-10
1.18459634e-09
2.72917326e-08
4.98242636e-08
4.69606187e-08
4.52281335e-10
1.18603583e-09
9.26606396e-10
1.23708579e-09
1.27398064e-08
3.69663554e-08
4.03751071e-08
4.73749889e-08
4.56206693e-08
7.90700118e-10
1.24889858e-09
1.36919609e-08
3.88511682e-08
4.37829588e-08
2.47105049e-08
1.16162913e-09
1.04356918e-09
3.50664406e-08
4.6312975e-08
3.00717673e-08
1.11213291e-09
1.14628262e-09
3.21492847e-08
4.56159751e-08
3.34411624e-08
1.11529677e-09
1.20574265e-09
2.79867193e-08
4.68498253e-08
4.69239946e-08
1.40701436e-08
1.0034818e-09
2.98167294e-08
4.27689788e-08
1.05243472e-08
1.05778546e-09
2.40058844e-08
4.24848976e-08
3.20662451e-08
9.91928484e-10
1.10966233e-09
3.59971919e-08
4.50669775e-08
1.18022753e-08
9.96965407e-10
2.0840641e-08
4.2583027e-08
3.90737812e-08
8.11969952e-10
1.1789973e-09
2.00406914e-08
4.46659094e-08
4.50949816e-08
8.29355601e-09
1.20056077e-09
1.11738488e-09
2.66017318e-08
4.09166519e-08
4.5138019e-08
4.4454205e-08
8.90663283e-10
1.03659956e-09
3.0208966e-08
4.49931935e-08
1.94594793e-08
8.00172688e-10
2.5495939e-08
4.21346799e-08
1.69716232e-08
8.75865613e-10
2.56099365e-08
4.11831591e-08
1.63024531e-08
9.16766611e-10
1.97791364e-08
4.13557236e-08
3.46317053e-08
5.98226494e-10
1.07155877e-09
3.02968411e-08
4.49785241e-08
2.09815834e-08
8.112279e-10
1.83204104e-08
4.25868008e-08
3.71104342e-08
5.6342555e-10
1.06929087e-09
2.98949187e-08
4.45811896e-08
2.16795025e-08
8.35122645e-10
1.46587846e-08
4.2471043e-08
4.27453348e-08
3.01967795e-09
1.14369982e-09
2.57655789e-08
3.99788637e-08
1.94840094e-08
9.47215186e-10
1.02179285e-08
4.10339556e-08
4.40428443e-08
1.11305469e-08
1.0630039e-09
1.19869124e-08
4.05410507e-08
4.41675182e-08
1.42304913e-08
1.06772425e-09
8.84022627e-09
3.71308666e-08
4.40708721e-08
2.84735304e-08
8.50768155e-10
1.21894907e-09
2.03366614e-08
4.36041006e-08
4.41222656e-08
5.97594914e-09
1.11261254e-09
1.38056471e-08
4.01706414e-08
4.48483214e-08
2.3462758e-08
8.28788685e-10
1.26961314e-09
7.77607022e-09
3.11980786e-08
3.73202044e-08
4.35965127e-08
4.51630049e-08
1.77067837e-08
9.18887682e-10
1.1498812e-08
4.01847791e-08
4.45768721e-08
1.55688053e-08
8.73019581e-10
2.43437743e-08
4.0730834e-08
1.8241033e-08
8.46202348e-10
2.40716976e-08
4.07949895e-08
1.77406881e-08
8.69027858e-10
2.39108791e-08
3.94364856e-08
1.93464226e-08
9.68933709e-10
9.36971514e-09
3.9254648e-08
4.41096842e-08
1.99322962e-08
9.60041972e-10
7.94630933e-09
3.81911363e-08
4.31405851e-08
1.9239449e-08
9.67311955e-10
8.65545488e-09
3.83883528e-08
4.31849602e-08
1.91798718e-08
9.43523564e-10
9.89152213e-09
3.97225671e-08
4.43710329e-08
1.56343596e-08
8.30935304e-10
2.45379913e-08
3.83265849e-08
1.77378113e-08
9.55115456e-10
1.28531799e-08
4.1681434e-08
4.56751724e-08
1.54344084e-08
7.17187558e-10
2.66320506e-08
4.04236607e-08
1.51071892e-08
7.59921129e-10
2.6507281e-08
3.90007158e-08
1.62523083e-08
9.61943539e-10
1.42495088e-08
4.19774776e-08
4.37228628e-08
9.4744819e-09
8.19157116e-10
2.84549196e-08
3.88482842e-08
1.45260906e-08
9.8546425e-10
1.43837628e-08
4.13783131e-08
4.28930837e-08
1.18044995e-08
9.84247007e-10
1.65761319e-08
3.97100949e-08
4.63409794e-08
3.27340287e-08
5.856662e-10
1.2118805e-09
8.87889292e-10
1.23319026e-09
4.42515578e-09
3.18511501e-08
3.89959334e-08
4.05188624e-08
4.71039559e-08
4.74439311e-08
1.14326908e-08
2.59403721e-09
3.11167798e-08
4.08824253e-08
1.30242724e-08
6.58606252e-10
2.75273007e-08
3.78854395e-08
1.49808645e-08
9.40525673e-10
1.3753437e-08
4.02457459e-08
4.15593518e-08
7.51595496e-09
7.47906857e-10
2.88874747e-08
3.84532718e-08
1.37625324e-08
8.77925801e-10
1.77963948e-08
4.25439962e-08
4.24400831e-08
3.73065759e-09
7.25330269e-10
3.04579656e-08
3.88165715e-08
1.26839429e-08
8.64681087e-10
1.9116506e-08
4.25499309e-08
4.03253968e-08
3.72104019e-09
9.92510882e-10
1.93404833e-08
4.16489539e-08
4.07678553e-08
4.2004863e-09
9.38373622e-10
2.0633335e-08
4.23930248e-08
3.98153199e-08
3.51594698e-09
9.14732733e-10
2.23001311e-08
4.2763117e-08
3.81413225e-08
2.49019271e-09
8.68447963e-10
2.49080702e-08
4.28734212e-08
3.40418214e-08
4.93051936e-10
7.93266041e-10
2.91829368e-08
4.31783625e-08
3.01502647e-08
6.31220507e-10
7.17982741e-10
3.23174472e-08
4.35441876e-08
2.71389509e-08
7.00421594e-10
1.9740093e-09
3.47943162e-08
4.2673121e-08
2.22870743e-08
7.85025609e-10
7.93240227e-09
3.90055576e-08
4.25290489e-08
1.24470915e-08
5.56384629e-10
2.70003359e-08
3.99573165e-08
2.19405681e-08
8.58689595e-10
5.61494485e-10
3.430047e-08
4.59897247e-08
3.11403718e-08
5.55789448e-10
8.51277047e-10
2.69396472e-08
4.28361654e-08
3.6042718e-08
6.21300098e-09
1.21468943e-09
1.08808982e-09
2.77884313e-08
4.57325676e-08
4.6966123e-08
1.20626601e-08
8.46307291e-10
2.51215542e-08
4.69998254e-08
3.26594593e-08
4.99529813e-10
7.42485862e-10
3.43497017e-08
4.79061782e-08
2.35515688e-08
7.32494288e-10
1.08906281e-09
1.20790063e-09
1.12591541e-08
3.78869206e-08
4.086992e-08
4.91029659e-08
4.89320314e-08
1.29466467e-08
1.30361113e-09
2.11754301e-08
2.43660395e-08
1.04013334e-09
3.05901141e-09
3.18085984e-09
2.97678943e-08
5.06094407e-08
1.98512795e-08
6.92469187e-09
7.46879031e-09
8.61552471e-09
9.14970468e-09
1.02599707e-08
1.08495629e-08
1.19615185e-08
1.2646853e-08
1.34380789e-08
1.39590926e-08
1.40752964e-08
1.37016477e-08
1.11333584e-08
8.81060838e-09
9.3549361e-09
9.76927051e-09
1.05765754e-08
1.12527758e-08
1.23565566e-08
1.32715472e-08
1.49640044e-08
1.47088394e-08
1.15279032e-08
1.08858571e-08
1.11798125e-08
1.25658842e-08
1.43563983e-08
1.56683423e-08
1.5781926e-08
1.52209757e-08
1.32732004e-08
1.77697793e-09
1.63023808e-09
1.64389918e-09
1.67024747e-09
1.63961397e-09
1.54680602e-09
1.48165493e-09
1.00140754e-09
4.68646301e-09
6.36891815e-09
1.51036129e-08
1.15087663e-08
1.97124327e-08
3.04465171e-08
5.76195678e-08
9.48020024e-08
6.31398149e-07
3.006584e-06
5.74509974e-06
8.64670527e-06
2.32649872e-05
3.50946138e-05
4.53572961e-05
5.4643735e-05
6.56820817e-05
7.99359028e-05
9.50762649e-05
0.000109503453
0.000125415933
0.000140619069
0.000154563086
0.000168228721
0.000180344002
0.000190975344
0.00019973877
0.000206539347
0.000211402775
0.000215688043
0.000219379137
0.000222552153
0.000225146216
0.000226836089
0.000227394953
0.000226894903
0.000225595827
0.000223315615
0.000220842769
0.000217404107
0.000213861623
0.000209508607
0.000205274215
0.000200118996
0.000195284917
0.000189048949
0.00018361086
0.000179015224
0.000174861091
0.000170373308
0.000166221599
0.000161883857
0.000157842094
0.000153724207
0.000149658896
0.00014544894
0.000141411503
0.000137403957
0.000133455892
0.000129450693
0.00012564164
0.000122065815
0.0001186288
0.000115356557
0.000112259382
0.000109387113
0.000106517933
0.000103772639
0.000100973649
9.82816121e-05
9.55084286e-05
9.28724234e-05
9.01217189e-05
8.75417885e-05
8.5083827e-05
8.28464614e-05
8.04954852e-05
7.84081201e-05
7.61804711e-05
7.42468105e-05
7.21934025e-05
7.04257671e-05
6.8505722e-05
6.68671254e-05
6.50618396e-05
6.35360347e-05
6.18442261e-05
6.0577689e-05
5.91325121e-05
5.79226962e-05
5.65231503e-05
5.53670587e-05
5.40102224e-05
5.29048363e-05
5.15881248e-05
)
;

boundaryField
{
    closed
    {
        type            calculated;
        value           nonuniform List<scalar> 0();
    }
    open
    {
        type            calculated;
        value           nonuniform List<scalar> 0();
    }
    sides
    {
        type            empty;
    }
    procBoundary4to3
    {
        type            processor;
        value           uniform 7.03219045e-10;
    }
    procBoundary4to5
    {
        type            processor;
        value           uniform 5.06048182e-05;
    }
}


// ************************************************************************* //
