/*--------------------------------*- C++ -*----------------------------------*\
| =========                 |                                                 |
| \\      /  F ield         | OpenFOAM: The Open Source CFD Toolbox           |
|  \\    /   O peration     | Version:  2306                                  |
|   \\  /    A nd           | Website:  www.openfoam.com                      |
|    \\/     M anipulation  |                                                 |
\*---------------------------------------------------------------------------*/
FoamFile
{
    version     2.0;
    format      ascii;
    arch        "LSB;label=32;scalar=64";
    class       volScalarField;
    location    "0.0007";
    object      prefDPV_H2;
}
// * * * * * * * * * * * * * * * * * * * * * * * * * * * * * * * * * * * * * //

dimensions      [1 -1 -1 0 0 0 0];

internalField   nonuniform List<scalar> 
531
(
-3.07963717e-05
-3.06399212e-05
-3.12642095e-05
-3.14916843e-05
-3.09073132e-05
-3.07017349e-05
-3.12301786e-05
-3.15314651e-05
-3.08989233e-05
-3.06762883e-05
-3.11730966e-05
-3.15041214e-05
-3.09929837e-05
-3.0666336e-05
-3.06339273e-05
-3.13080362e-05
-3.15374596e-05
-3.08968187e-05
-3.05343312e-05
-3.08666877e-05
-3.14714913e-05
-3.09636622e-05
-3.06987292e-05
-3.08771982e-05
-3.14628595e-05
-3.13864678e-05
-3.08463519e-05
-3.07126397e-05
-3.12193752e-05
-3.15377313e-05
-3.10120609e-05
-3.09017508e-05
-3.05112051e-05
-3.05073909e-05
-3.12385286e-05
-3.15253135e-05
-3.14764475e-05
-3.15439685e-05
-3.11540858e-05
-3.08951612e-05
-3.0735775e-05
-3.06988692e-05
-3.04085554e-05
-3.037155e-05
-3.11500371e-05
-3.14811546e-05
-3.14977275e-05
-3.15023744e-05
-3.09185511e-05
-3.04911363e-05
-3.05353768e-05
-3.14251868e-05
-3.15381472e-05
-3.09079229e-05
-3.05510278e-05
-3.07270532e-05
-3.14628361e-05
-3.15337353e-05
-3.09062754e-05
-3.03975372e-05
-3.05035162e-05
-3.14236187e-05
-3.15295191e-05
-3.14659435e-05
-3.15354897e-05
-3.10688076e-05
-3.08666261e-05
-3.07475064e-05
-3.04910001e-05
-3.0554461e-05
-3.14829373e-05
-3.15272385e-05
-3.1051197e-05
-3.07880427e-05
-3.06235441e-05
-3.09071331e-05
-3.15266609e-05
-3.15313232e-05
-3.09021065e-05
-3.05334351e-05
-3.08942618e-05
-3.15170675e-05
-3.15418533e-05
-3.09028443e-05
-3.05592021e-05
-3.09108064e-05
-3.15176924e-05
-3.15313948e-05
-3.0920726e-05
-3.0506393e-05
-3.05028425e-05
-3.10427712e-05
-3.15064336e-05
-3.09018119e-05
-3.06616155e-05
-3.11216199e-05
-3.15017747e-05
-3.09164781e-05
-3.06752043e-05
-3.09045644e-05
-3.14929961e-05
-3.15391886e-05
-3.08909566e-05
-3.0575295e-05
-3.10921136e-05
-3.14892505e-05
-3.09460796e-05
-3.06707174e-05
-3.0795764e-05
-3.14701558e-05
-3.15184641e-05
-3.09583625e-05
-3.05947282e-05
-3.05721718e-05
-3.11763023e-05
-3.1514734e-05
-3.15193118e-05
-3.09139456e-05
-3.07395809e-05
-3.05768824e-05
-3.06100523e-05
-3.13786353e-05
-3.15132515e-05
-3.08907369e-05
-3.05806573e-05
-3.09468827e-05
-3.14624632e-05
-3.09028582e-05
-3.06865989e-05
-3.09859576e-05
-3.14807478e-05
-3.09042257e-05
-3.07203786e-05
-3.09974077e-05
-3.14821577e-05
-3.0955298e-05
-3.0718561e-05
-3.09229303e-05
-3.14055711e-05
-3.15353281e-05
-3.08810191e-05
-3.05822646e-05
-3.09232116e-05
-3.14641402e-05
-3.09719201e-05
-3.06756273e-05
-3.08611017e-05
-3.14110733e-05
-3.1538388e-05
-3.08825414e-05
-3.05970895e-05
-3.09151814e-05
-3.14671726e-05
-3.1032566e-05
-3.06797953e-05
-3.0662971e-05
-3.1321031e-05
-3.154237e-05
-3.09079303e-05
-3.07612712e-05
-3.09464819e-05
-3.14857176e-05
-3.11218623e-05
-3.07264936e-05
-3.06167972e-05
-3.11078598e-05
-3.15017993e-05
-3.10831982e-05
-3.07417074e-05
-3.06109003e-05
-3.10388574e-05
-3.15120722e-05
-3.11519835e-05
-3.0843936e-05
-3.06127423e-05
-3.08763842e-05
-3.14730726e-05
-3.15520635e-05
-3.09496786e-05
-3.06360813e-05
-3.06135543e-05
-3.12397921e-05
-3.15154314e-05
-3.10492087e-05
-3.07437943e-05
-3.05840317e-05
-3.09002006e-05
-3.14494512e-05
-3.15393053e-05
-3.11760109e-05
-3.09256226e-05
-3.08654721e-05
-3.06332222e-05
-3.05782201e-05
-3.09766499e-05
-3.14697094e-05
-3.10929037e-05
-3.07594353e-05
-3.06021218e-05
-3.10140227e-05
-3.14846584e-05
-3.09098984e-05
-3.07463286e-05
-3.09683204e-05
-3.14849665e-05
-3.09073226e-05
-3.07433197e-05
-3.0975766e-05
-3.14933169e-05
-3.0908008e-05
-3.07908175e-05
-3.09526793e-05
-3.14942801e-05
-3.11417168e-05
-3.07835047e-05
-3.06161035e-05
-3.09457177e-05
-3.14937371e-05
-3.11762987e-05
-3.08206962e-05
-3.06528372e-05
-3.09553977e-05
-3.14955633e-05
-3.11589883e-05
-3.08141811e-05
-3.06512096e-05
-3.09567955e-05
-3.14917e-05
-3.11298096e-05
-3.07698367e-05
-3.0607904e-05
-3.10126573e-05
-3.14909347e-05
-3.09054422e-05
-3.0832661e-05
-3.09772436e-05
-3.14973193e-05
-3.10668878e-05
-3.0699308e-05
-3.05580809e-05
-3.10160501e-05
-3.14707491e-05
-3.08907473e-05
-3.07604109e-05
-3.10219451e-05
-3.14828587e-05
-3.0891577e-05
-3.08082641e-05
-3.10013936e-05
-3.14996314e-05
-3.10401515e-05
-3.06950354e-05
-3.06303066e-05
-3.11455021e-05
-3.14914379e-05
-3.08960731e-05
-3.08131918e-05
-3.10335412e-05
-3.15036282e-05
-3.10377454e-05
-3.07149283e-05
-3.06584542e-05
-3.1090658e-05
-3.15136997e-05
-3.100122e-05
-3.07610843e-05
-3.05321586e-05
-3.08866302e-05
-3.14315805e-05
-3.15505721e-05
-3.143912e-05
-3.15329543e-05
-3.12623011e-05
-3.09036369e-05
-3.08113992e-05
-3.07389621e-05
-3.05009302e-05
-3.0490756e-05
-3.10991898e-05
-3.13322239e-05
-3.08907784e-05
-3.0744116e-05
-3.10640995e-05
-3.1450466e-05
-3.08963018e-05
-3.08517923e-05
-3.10253663e-05
-3.14865664e-05
-3.10496093e-05
-3.07625808e-05
-3.07148003e-05
-3.11940455e-05
-3.14724285e-05
-3.08966512e-05
-3.0828933e-05
-3.10487846e-05
-3.14841357e-05
-3.098105e-05
-3.06793116e-05
-3.06809945e-05
-3.13012777e-05
-3.1473665e-05
-3.08967066e-05
-3.08141514e-05
-3.10716218e-05
-3.14848006e-05
-3.09609924e-05
-3.06793076e-05
-3.07507839e-05
-3.12990804e-05
-3.15022018e-05
-3.09627198e-05
-3.07110606e-05
-3.07369348e-05
-3.1285838e-05
-3.14939555e-05
-3.09457169e-05
-3.06845954e-05
-3.07689914e-05
-3.13045381e-05
-3.14892101e-05
-3.09277716e-05
-3.06718276e-05
-3.08241731e-05
-3.13329689e-05
-3.14802965e-05
-3.09065046e-05
-3.06690038e-05
-3.08978823e-05
-3.13978885e-05
-3.1462038e-05
-3.08916412e-05
-3.06563481e-05
-3.08747407e-05
-3.1423391e-05
-3.14401351e-05
-3.08911741e-05
-3.06415445e-05
-3.08753357e-05
-3.14351911e-05
-3.13358074e-05
-3.09078402e-05
-3.06726722e-05
-3.09119324e-05
-3.14548453e-05
-3.11762092e-05
-3.07911842e-05
-3.0676786e-05
-3.10765726e-05
-3.14239177e-05
-3.08882341e-05
-3.07721113e-05
-3.09195937e-05
-3.1456762e-05
-3.13689892e-05
-3.0883427e-05
-3.05449897e-05
-3.08517656e-05
-3.13981309e-05
-3.14662101e-05
-3.08866338e-05
-3.06669524e-05
-3.08776348e-05
-3.12197685e-05
-3.15414116e-05
-3.15005274e-05
-3.08858952e-05
-3.0555704e-05
-3.05079755e-05
-3.10862246e-05
-3.14961534e-05
-3.08797007e-05
-3.05002906e-05
-3.0833216e-05
-3.1400777e-05
-3.1474014e-05
-3.08472232e-05
-3.04629315e-05
-3.08567456e-05
-3.14979781e-05
-3.1579891e-05
-3.16041381e-05
-3.11062689e-05
-3.07736792e-05
-3.06745774e-05
-3.03993281e-05
-3.03884672e-05
-3.10793394e-05
-3.17358479e-05
-3.08755425e-05
-3.07820765e-05
-3.15187247e-05
-3.17413505e-05
-3.17004909e-05
-3.06300135e-05
-3.01681905e-05
-3.08912806e-05
-3.15520123e-05
-3.15115732e-05
-3.15557432e-05
-3.15470434e-05
-3.15738844e-05
-3.15769884e-05
-3.16023913e-05
-3.16177668e-05
-3.16522661e-05
-3.16992379e-05
-3.17658362e-05
-3.187284e-05
-3.21352304e-05
-3.2242762e-05
-3.20053952e-05
-3.18784373e-05
-3.16946784e-05
-3.15945022e-05
-3.14831755e-05
-3.1437734e-05
-3.13132977e-05
-3.12737751e-05
-3.12372118e-05
-3.11244162e-05
-3.10707463e-05
-3.10310818e-05
-3.10323641e-05
-3.09324869e-05
-3.0770269e-05
-3.05755517e-05
-3.05876595e-05
-3.23281388e-05
-3.20400038e-05
-3.17209194e-05
-3.13274919e-05
-3.10381251e-05
-3.06028945e-05
-3.0334768e-05
-2.99521968e-05
-3.35056419e-05
-3.42489503e-05
-3.52439269e-05
-3.616573e-05
-3.74378565e-05
-3.92917577e-05
-4.10132653e-05
-4.1891235e-05
-4.59846009e-05
-5.00279929e-05
-5.27533173e-05
-5.48922364e-05
-5.98185253e-05
-6.23374045e-05
-6.42703884e-05
-6.56691295e-05
-6.73017331e-05
-6.88616174e-05
-7.04732246e-05
-7.17661544e-05
-7.31525719e-05
-7.43132443e-05
-7.54572437e-05
-7.64577686e-05
-7.74349476e-05
-7.82757624e-05
-7.90832076e-05
-7.97361935e-05
-8.03122288e-05
-8.08406408e-05
-8.13648807e-05
-8.18420255e-05
-8.23042093e-05
-8.27557595e-05
-8.3189739e-05
-8.36174426e-05
-8.40246287e-05
-8.44031251e-05
-8.48037784e-05
-8.52166616e-05
-8.56122825e-05
-8.59800899e-05
-8.63421436e-05
-8.6697216e-05
-8.70434151e-05
-8.74371462e-05
-8.7782566e-05
-8.80254271e-05
-8.82570731e-05
-8.84832088e-05
-8.87026897e-05
-8.89162469e-05
-8.91254326e-05
-8.93228474e-05
-8.95281312e-05
-8.97289551e-05
-8.99304637e-05
-9.01199247e-05
-9.03210739e-05
-9.05193336e-05
-9.07151947e-05
-9.08942299e-05
-9.10707583e-05
-9.12303695e-05
-9.13854932e-05
-9.15227295e-05
-9.16636904e-05
-9.17922944e-05
-9.19332231e-05
-9.2065743e-05
-9.22073936e-05
-9.23368827e-05
-9.24775906e-05
-9.26122534e-05
-9.27471337e-05
-9.28645376e-05
-9.29929371e-05
-9.31020213e-05
-9.32229858e-05
-9.33258909e-05
-9.3441673e-05
-9.35369799e-05
-9.36444589e-05
-9.3732096e-05
-9.38324879e-05
-9.39135123e-05
-9.40071712e-05
-9.40756993e-05
-9.41574041e-05
-9.42222053e-05
-9.43008461e-05
-9.43622068e-05
-9.44380091e-05
-9.44961771e-05
-9.45693697e-05
)
;

boundaryField
{
    closed
    {
        type            calculated;
        value           nonuniform List<scalar> 0();
    }
    open
    {
        type            calculated;
        value           nonuniform List<scalar> 0();
    }
    sides
    {
        type            empty;
    }
    procBoundary4to3
    {
        type            processor;
        value           uniform -3.14569991e-05;
    }
    procBoundary4to5
    {
        type            processor;
        value           uniform -9.46226399e-05;
    }
}


// ************************************************************************* //
