/*--------------------------------*- C++ -*----------------------------------*\
| =========                 |                                                 |
| \\      /  F ield         | OpenFOAM: The Open Source CFD Toolbox           |
|  \\    /   O peration     | Version:  2306                                  |
|   \\  /    A nd           | Website:  www.openfoam.com                      |
|    \\/     M anipulation  |                                                 |
\*---------------------------------------------------------------------------*/
FoamFile
{
    version     2.0;
    format      ascii;
    arch        "LSB;label=32;scalar=64";
    class       volScalarField;
    location    "0.00182";
    object      prefDPV_H2O;
}
// * * * * * * * * * * * * * * * * * * * * * * * * * * * * * * * * * * * * * //

dimensions      [1 -1 -1 0 0 0 0];

internalField   nonuniform List<scalar> 
531
(
-3.84003501e-07
-3.84572555e-07
-3.83829235e-07
-3.84154564e-07
-3.66093797e-07
-3.64886724e-07
-3.63800892e-07
-3.6386256e-07
-3.84688868e-07
-3.84355428e-07
-3.64499052e-07
-3.63791541e-07
-3.84522529e-07
-3.84383322e-07
-3.65164641e-07
-3.63913502e-07
-3.84304038e-07
-3.84489205e-07
-3.65867729e-07
-3.63372647e-07
-3.63480003e-07
-3.84648276e-07
-3.84256369e-07
-3.64690848e-07
-3.64466851e-07
-3.84880598e-07
-3.84019185e-07
-3.84550593e-07
-3.6543768e-07
-3.64650668e-07
-3.8478644e-07
-3.8383595e-07
-3.84670286e-07
-3.66537976e-07
-3.6248234e-07
-3.63683358e-07
-3.84882646e-07
-3.84062938e-07
-3.84473736e-07
-3.65584932e-07
-3.64760261e-07
-3.84626644e-07
-3.83757362e-07
-3.84392187e-07
-3.67141879e-07
-3.64030985e-07
-3.64146176e-07
-3.84237979e-07
-3.84231224e-07
-3.66052435e-07
-3.64374226e-07
-3.63394526e-07
-3.63513139e-07
-3.84924693e-07
-3.84031019e-07
-3.84695484e-07
-3.66317055e-07
-3.63735572e-07
-3.84314125e-07
-3.84240335e-07
-3.65446105e-07
-3.64806912e-07
-3.84438585e-07
-3.83985143e-07
-3.65210947e-07
-3.65478253e-07
-3.84459457e-07
-3.68281936e-07
-3.63744024e-07
-3.84118837e-07
-3.84230795e-07
-3.65955606e-07
-3.64301355e-07
-3.84172901e-07
-3.84316055e-07
-3.66377282e-07
-3.63787975e-07
-3.6417038e-07
-3.84532605e-07
-3.83934898e-07
-3.84033339e-07
-3.65956304e-07
-3.65041335e-07
-3.84071828e-07
-3.84203385e-07
-3.67948247e-07
-3.64181374e-07
-3.6468036e-07
-3.62440062e-07
-3.62441323e-07
-3.85075884e-07
-3.84294182e-07
-3.84690989e-07
-3.83946413e-07
-3.84267091e-07
-3.66010834e-07
-3.63978022e-07
-3.63950926e-07
-3.84468838e-07
-3.84088722e-07
-3.65478261e-07
-3.64722061e-07
-3.84522879e-07
-3.8394331e-07
-3.65079589e-07
-3.65238105e-07
-3.84503095e-07
-3.66836407e-07
-3.63594373e-07
-3.84292654e-07
-3.84236717e-07
-3.65139222e-07
-3.64386421e-07
-3.84558678e-07
-3.8408283e-07
-3.64696553e-07
-3.64844929e-07
-3.84647877e-07
-3.8368919e-07
-3.84450877e-07
-3.68089255e-07
-3.64078498e-07
-3.64249067e-07
-3.84132173e-07
-3.84129487e-07
-3.66335953e-07
-3.64024728e-07
-3.63993471e-07
-3.843102e-07
-3.84071827e-07
-3.65872958e-07
-3.64813193e-07
-3.84271654e-07
-3.83955871e-07
-3.66061376e-07
-3.65308936e-07
-3.84110506e-07
-3.83952736e-07
-3.66583387e-07
-3.65341329e-07
-3.64415563e-07
-3.6447668e-07
-3.847268e-07
-3.84151532e-07
-3.64292345e-07
-3.64480014e-07
-3.84847981e-07
-3.83868613e-07
-3.84507192e-07
-3.6645682e-07
-3.64050797e-07
-3.84312483e-07
-3.84206011e-07
-3.65328345e-07
-3.64743101e-07
-3.84543051e-07
-3.84087169e-07
-3.64766438e-07
-3.64994551e-07
-3.84729391e-07
-3.83741405e-07
-3.84328797e-07
-3.71865262e-07
-3.64454211e-07
-3.64227295e-07
-3.64041467e-07
-3.84895124e-07
-3.84228127e-07
-3.64286531e-07
-3.64107307e-07
-3.84875642e-07
-3.84221486e-07
-3.6421375e-07
-3.64256115e-07
-3.84945651e-07
-3.83988167e-07
-3.84499554e-07
-3.66039879e-07
-3.63072743e-07
-3.63424664e-07
-3.84747366e-07
-3.84297272e-07
-3.64617195e-07
-3.64189547e-07
-3.8484585e-07
-3.84121199e-07
-3.84088605e-07
-3.83970938e-07
-3.73884563e-07
-3.65652206e-07
-3.64847664e-07
-3.64607945e-07
-3.62864737e-07
-3.62862808e-07
-3.8499258e-07
-3.8444786e-07
-3.8413232e-07
-3.84218761e-07
-3.66355827e-07
-3.64565882e-07
-3.6389677e-07
-3.6404685e-07
-3.85000455e-07
-3.84082279e-07
-3.84407547e-07
-3.65838591e-07
-3.6470334e-07
-3.84748934e-07
-3.83760058e-07
-3.84353667e-07
-3.67999363e-07
-3.64091832e-07
-3.64298821e-07
-3.84266801e-07
-3.84225746e-07
-3.66061092e-07
-3.63593113e-07
-3.63819684e-07
-3.84610236e-07
-3.84131004e-07
-3.64822529e-07
-3.64800064e-07
-3.84732762e-07
-3.83762404e-07
-3.84423726e-07
-3.66642911e-07
-3.63198134e-07
-3.63928569e-07
-3.84787482e-07
-3.84039208e-07
-3.84195787e-07
-3.65196854e-07
-3.63884009e-07
-3.84333444e-07
-3.84299216e-07
-3.66239372e-07
-3.84703782e-07
-3.83644683e-07
-3.65713448e-07
-3.65352426e-07
-3.6412e-07
-3.64233304e-07
-3.84647159e-07
-3.83836477e-07
-3.84246802e-07
-3.67164635e-07
-3.63906733e-07
-3.64730727e-07
-3.6239998e-07
-3.62526166e-07
-3.85112535e-07
-3.84491528e-07
-3.84735606e-07
-3.64179363e-07
-3.63005001e-07
-3.84887876e-07
-3.84521171e-07
-3.84210577e-07
-3.84266997e-07
-3.65890784e-07
-3.64231537e-07
-3.84211144e-07
-3.84244582e-07
-3.66088699e-07
-3.63665783e-07
-3.638434e-07
-3.84666245e-07
-3.84175603e-07
-3.64882462e-07
-3.6481144e-07
-3.84733363e-07
-3.83975672e-07
-3.84467053e-07
-3.75737684e-07
-3.63656603e-07
-3.64086058e-07
-3.62085903e-07
-3.62265864e-07
-3.85095894e-07
-3.84416239e-07
-3.8478676e-07
-3.84063666e-07
-3.84445471e-07
-3.6592815e-07
-3.63891897e-07
-3.6406336e-07
-3.84535568e-07
-3.84104261e-07
-3.65051802e-07
-3.65086035e-07
-3.84459142e-07
-3.83670231e-07
-3.84335223e-07
-3.70261577e-07
-3.6375492e-07
-3.64726644e-07
-3.62196056e-07
-3.62396936e-07
-3.8509309e-07
-3.84556412e-07
-3.84892859e-07
-3.6404513e-07
-3.62655397e-07
-3.84906487e-07
-3.84642441e-07
-3.84565678e-07
-3.84493761e-07
-3.64674896e-07
-3.64094407e-07
-3.84710579e-07
-3.84347235e-07
-3.84431657e-07
-3.84268758e-07
-3.77159116e-07
-3.64575032e-07
-3.64491547e-07
-3.6292637e-07
-3.62929001e-07
-3.84759178e-07
-3.84559103e-07
-3.63540856e-07
-3.63083305e-07
-3.84744411e-07
-3.84456835e-07
-3.84292397e-07
-3.84293889e-07
-3.6557476e-07
-3.6382233e-07
-3.62884049e-07
-3.63015462e-07
-3.84798551e-07
-3.84177727e-07
-3.84581991e-07
-3.65187278e-07
-3.63711509e-07
-3.84479524e-07
-3.83966666e-07
-3.84476442e-07
-3.65805999e-07
-3.62897761e-07
-3.63243105e-07
-3.84429822e-07
-3.84292739e-07
-3.63801237e-07
-3.62890259e-07
-3.84535362e-07
-3.84405441e-07
-3.8427334e-07
-3.84441666e-07
-3.63296429e-07
-3.60812415e-07
-3.58972803e-07
-3.58965766e-07
-3.85163707e-07
-3.84523664e-07
-3.84922596e-07
-3.84046963e-07
-3.84422158e-07
-3.83504413e-07
-3.83786023e-07
-3.61238485e-07
-3.60057204e-07
-3.82838609e-07
-3.82078662e-07
-3.82188335e-07
-3.60268294e-07
-3.58707462e-07
-3.80641923e-07
-3.80914655e-07
-3.79552455e-07
-3.80425953e-07
-3.78273936e-07
-3.80071946e-07
-3.76818402e-07
-3.75065092e-07
-3.56601223e-07
-3.77393753e-07
-3.73500882e-07
-3.74726957e-07
-3.71802171e-07
-3.72205929e-07
-3.69990114e-07
-3.69818119e-07
-3.68095633e-07
-3.6754869e-07
-3.6616892e-07
-3.65408217e-07
-3.64304794e-07
-3.63505041e-07
-3.62747188e-07
-3.623375e-07
-3.62733321e-07
-3.61401384e-07
-3.60189163e-07
-3.58697673e-07
-3.57239617e-07
-3.55634039e-07
-3.53927952e-07
-3.5218608e-07
-3.50233295e-07
-3.48334879e-07
-3.46153022e-07
-3.44263923e-07
-3.42454097e-07
-3.41588985e-07
-3.41748159e-07
-3.39945454e-07
-3.38414133e-07
-3.35600453e-07
-3.34036483e-07
-3.3019402e-07
-3.28890068e-07
-3.2391515e-07
-3.22691809e-07
-3.15862795e-07
-3.15353493e-07
-3.07604752e-07
-3.07617454e-07
-2.99126448e-07
-2.99143203e-07
-2.90742588e-07
-3.07252021e-07
-2.97613995e-07
-2.97112553e-07
-2.87311145e-07
-2.86170627e-07
-2.76536582e-07
-2.74413988e-07
-2.6513319e-07
-2.61762452e-07
-2.52794677e-07
-2.47923695e-07
-2.41090724e-07
-2.37350549e-07
-2.32359803e-07
-2.27849728e-07
-2.23085943e-07
-2.17880356e-07
-2.13348045e-07
-2.07427496e-07
-2.13246016e-07
-2.0420544e-07
-1.95774583e-07
-1.86407754e-07
-1.69698749e-07
-1.52929891e-07
-1.29089088e-07
-1.121378e-07
-8.49423092e-08
-6.36678709e-08
-3.69317307e-08
-1.75715758e-08
1.01292343e-08
2.8957297e-08
5.57557845e-08
7.50533606e-08
1.05441808e-07
1.26699422e-07
1.62314919e-07
1.85236546e-07
2.25287085e-07
2.48766101e-07
2.92048242e-07
3.15330557e-07
3.59792396e-07
3.81485276e-07
4.23892421e-07
4.43695322e-07
4.83206743e-07
5.00552554e-07
5.35576962e-07
5.50294761e-07
5.80922247e-07
5.93702912e-07
6.218019e-07
6.33065459e-07
6.58644021e-07
6.68682227e-07
6.91841062e-07
7.01507398e-07
7.22262363e-07
7.31920048e-07
7.50888477e-07
7.59554626e-07
7.76981305e-07
7.85707616e-07
8.01570735e-07
8.07302815e-07
8.20809943e-07
8.3185863e-07
8.45926961e-07
8.41416489e-07
8.50602881e-07
8.79817069e-07
8.93571179e-07
8.6128982e-07
8.68785176e-07
9.29414518e-07
9.51614543e-07
8.8164883e-07
8.89680281e-07
9.80806957e-07
9.93461156e-07
9.10093922e-07
9.15196063e-07
9.98672787e-07
1.00343334e-06
9.471531e-07
9.37051184e-07
1.00597126e-06
1.01066324e-06
9.68534492e-07
9.57836395e-07
1.01321154e-06
1.01624365e-06
9.83225918e-07
9.72557006e-07
1.01895935e-06
1.02136066e-06
9.93291702e-07
9.83411656e-07
1.02361684e-06
1.02533638e-06
1.00059351e-06
9.91633529e-07
1.02744943e-06
1.02846194e-06
1.00565995e-06
9.98309702e-07
1.03053748e-06
1.03111216e-06
)
;

boundaryField
{
    closed
    {
        type            calculated;
        value           nonuniform List<scalar> 0();
    }
    open
    {
        type            calculated;
        value           nonuniform List<scalar> 0();
    }
    sides
    {
        type            empty;
    }
    procBoundary4to3
    {
        type            processor;
        value           uniform -3.8486893e-07;
    }
    procBoundary4to5
    {
        type            processor;
        value           uniform 1.00964177e-06;
    }
}


// ************************************************************************* //
