/*--------------------------------*- C++ -*----------------------------------*\
| =========                 |                                                 |
| \\      /  F ield         | OpenFOAM: The Open Source CFD Toolbox           |
|  \\    /   O peration     | Version:  2306                                  |
|   \\  /    A nd           | Website:  www.openfoam.com                      |
|    \\/     M anipulation  |                                                 |
\*---------------------------------------------------------------------------*/
FoamFile
{
    version     2.0;
    format      ascii;
    arch        "LSB;label=32;scalar=64";
    class       volScalarField;
    location    "0.00046";
    object      H2;
}
// * * * * * * * * * * * * * * * * * * * * * * * * * * * * * * * * * * * * * //

dimensions      [0 0 0 0 0 0 0];

internalField   nonuniform List<scalar> 
530
(
0.0108474106
0.0108076442
0.0108034589
0.0108034623
0.0108034603
0.0108034603
0.0108034603
0.0108034603
0.0108034603
0.0108034603
0.0108034603
0.0108034603
0.0108034603
0.0108034603
0.0108034603
0.0108034603
0.0108034603
0.0108034603
0.0108034603
0.0108034603
0.0108034603
0.0108034603
0.0108034603
0.0108034603
0.0108034603
0.0108034603
0.0108034603
0.0108034603
0.0108034603
0.0108034603
0.0108034603
0.0108034603
0.0108034603
0.0108034603
0.0108034603
0.0108034603
0.0108034603
0.0108034603
0.0108034603
0.0108034603
0.0108034603
0.0108034603
0.0108034603
0.0108034603
0.0108034603
0.0108034603
0.0108034603
0.0108034603
0.0108034603
0.0108034603
0.0108034603
0.0108034603
0.0108034603
0.0108034603
0.0108034603
0.0108034603
0.0108034603
0.0108034603
0.0108034603
0.0108034603
0.0108034603
0.0108034603
0.0108034603
0.0108034603
0.0108034603
0.0108034603
0.0108034603
0.0108034603
0.0108034603
0.0108034603
0.0108034603
0.0108034603
0.0108034603
0.0108034603
0.0108034603
0.0108034603
0.0108034603
0.0108034603
0.0108034603
0.0108034604
0.0108034608
0.010803461
0.0108034608
0.0108034656
0.0108034745
0.010803453
0.010803434
0.010803466
0.0108041833
0.0108043256
0.0107996707
0.0107976894
0.0108154821
0.0108266568
0.0107894294
0.0107161694
0.0107645012
0.0110666504
0.0109769213
0.0106934077
0.0106697316
0.0106716299
0.0109502655
0.0110210932
0.0110152049
0.0109541177
0.0106760678
0.0106581914
0.0107394711
0.0110123851
0.0110202611
0.010683803
0.0106540432
0.0107208959
0.0110186731
0.0110206525
0.0106842896
0.010691261
0.0110178804
0.0110189549
0.0106783049
0.0106480511
0.0107056704
0.0110227271
0.0110224178
0.010684333
0.0106909304
0.0110209678
0.0110188562
0.0106812989
0.0106510843
0.0107021441
0.0110248485
0.0110234526
0.010684595
0.0106904532
0.0110255244
0.0110216833
0.0106805133
0.0106478738
0.0106951261
0.0110287093
0.0110256307
0.0106829158
0.0106858425
0.0110321555
0.0110226858
0.010681502
0.0106860165
0.0110329962
0.0110239337
0.0106826559
0.0106520928
0.0107046373
0.0110279097
0.0110261946
0.0106926375
0.0106972409
0.0110321513
0.0110287731
0.0106975446
0.0106696503
0.0106666719
0.0107158949
0.0110248702
0.0110252622
0.0106935268
0.0106594371
0.0107185163
0.0110310637
0.0110380086
0.0106907648
0.0106944351
0.0110439923
0.0110266918
0.0106886531
0.0106908581
0.0110480438
0.0110298029
0.0106871893
0.0106540926
0.010700952
0.0110403969
0.0110468303
0.0106900607
0.0106973617
0.0110483809
0.0110343737
0.0106909084
0.0106555249
0.0106935493
0.0110477872
0.0110532097
0.0106864847
0.0106897271
0.0110586198
0.011041506
0.0106851536
0.0106845065
0.0110703551
0.0110478443
0.0106834315
0.0106826153
0.0110738667
0.0110505479
0.010685642
0.0106851757
0.011070628
0.0110536103
0.0106882785
0.0106920546
0.0110655458
0.0110486509
0.0106826345
0.0106554982
0.0107123295
0.0110498957
0.0110165298
0.0106885426
0.0107000466
0.011052138
0.0110743858
0.0106895375
0.0107009922
0.0110574966
0.0110570415
0.0106747897
0.0106522993
0.0107697894
0.0110418093
0.0109200268
0.0106851059
0.0107201009
0.0110505684
0.0109852996
0.0106865459
0.0107202802
0.011055823
0.0110567414
0.0106688603
0.0106498841
0.0108684721
0.0110298036
0.0108394473
0.0106837159
0.0107565536
0.0110460789
0.0110204449
0.0106725431
0.0106554836
0.0109050395
0.0110224795
0.010818475
0.0106836002
0.0108174571
0.0110271088
0.0109090261
0.0106920721
0.0106610843
0.0106567599
0.0109369686
0.0110212331
0.0109419257
0.0106868845
0.0106754564
0.0109860211
0.0110100275
0.0107847843
0.0106859544
0.0109854183
0.0110093749
0.0108950846
0.0106908905
0.0106866495
0.0106630708
0.0106608967
0.0109548532
0.0110180622
0.0110641648
0.0106870425
0.0106764814
0.0110042068
0.0110184286
0.0109059214
0.0106704672
0.0106626782
0.0110090629
0.0110191948
0.0108653418
0.0106678352
0.0106625172
0.0110236392
0.0110198196
0.0108704738
0.010664122
0.01065701
0.0110253209
0.0110145808
0.0107316057
0.0106784325
0.0110654148
0.0110158383
0.0108345795
0.0106581419
0.0106513633
0.0110358605
0.0110106611
0.0107284773
0.0106835378
0.0110660194
0.0109989095
0.010897432
0.010723879
0.0106949666
0.0106883177
0.0106771531
0.0106685112
0.0110602903
0.0110057633
0.0107499658
0.0106818333
0.011075303
0.0110068343
0.0107252391
0.0106714058
0.0109731622
0.0110225918
0.0108515116
0.0106556493
0.0106484072
0.0110348152
0.0110162867
0.0107241496
0.0106744599
0.0110527307
0.0110133976
0.0107008996
0.0106622592
0.0110300605
0.0110208263
0.0108373443
0.0106647968
0.0106588789
0.0110366191
0.0110181514
0.0107448041
0.0106703832
0.0107720639
0.0110382194
0.0110530513
0.0106691961
0.0106551757
0.0110059168
0.0110202532
0.0108689124
0.010672204
0.010665949
0.0108061745
0.0110293464
0.0109178302
0.0106858717
0.0107071537
0.0110426108
0.0110356356
0.0106970099
0.0106562821
0.0107118779
0.0110501302
0.0110070762
0.010684716
0.0107115095
0.0110498061
0.0110381336
0.0106835298
0.0106864687
0.0110651046
0.0110302255
0.0107215664
0.0106549941
0.0107020517
0.0110588806
0.0110392199
0.0106883739
0.0106951915
0.0110637932
0.011055967
0.0106909085
0.0106868709
0.0110141531
0.0110343624
0.0107209832
0.0106550327
0.010732674
0.0110550348
0.0109695535
0.0106925034
0.0106982701
0.0110707902
0.0110405027
0.0107004077
0.0106554133
0.0107426151
0.0110534804
0.010967411
0.0106877228
0.0106910841
0.0110614888
0.0110587403
0.0106982556
0.0106919265
0.0110319562
0.0110540999
0.0106924919
0.0106969149
0.0110734494
0.0110549654
0.0106938811
0.0106532795
0.0107673165
0.0110477936
0.0108447642
0.0106888262
0.0108407906
0.0110272331
0.0109431569
0.0107220721
0.0106742278
0.0106655276
0.010776232
0.0110429261
0.0110397556
0.0106994989
0.0106684594
0.0107718507
0.0110451166
0.0110583783
0.0106911627
0.0106678254
0.0107642762
0.0110457885
0.0110421862
0.0106929035
0.0106669385
0.0107579798
0.0110465035
0.0110476965
0.0106954571
0.0106652153
0.010738288
0.0110493858
0.0110151645
0.0108331865
0.0107128538
0.0106822231
0.0106785269
0.0107813304
0.0110372993
0.0110270187
0.0107102896
0.0106613748
0.0107585766
0.0110454327
0.0108692489
0.0106858257
0.0108003123
0.0110332672
0.0110403832
0.0106800019
0.0106560175
0.0107489804
0.0110459871
0.0108589272
0.0106810417
0.0108092775
0.0110324263
0.0108433992
0.0106808865
0.0108055328
0.0110322989
0.0109902569
0.0106746975
0.0106514921
0.0107516925
0.0110427816
0.0108449365
0.0106791523
0.0108200166
0.0110289121
0.0108296922
0.0106799812
0.0108188153
0.0110279232
0.010976003
0.010672817
0.010651585
0.0107617945
0.011037509
0.0108292626
0.0106770627
0.0108360363
0.0110248942
0.0108123826
0.010677969
0.0108348741
0.0110237293
0.0109578342
0.0106704009
0.0106507194
0.0107734161
0.011032166
0.0108119519
0.0106723996
0.0108474916
0.011021265
0.0107882249
0.0106712335
0.0108617778
0.0110204946
0.0107827229
0.010669579
0.0108213101
0.0110182999
0.0110663727
0.010671191
0.0106530503
0.0108087653
0.0110271845
0.0107923262
0.0106737955
0.0108422818
)
;

boundaryField
{
    closed
    {
        type            calculated;
        value           uniform 0.014448553;
    }
    open
    {
        type            calculated;
        value           nonuniform List<scalar> 0();
    }
    sides
    {
        type            empty;
    }
    procBoundary0to1
    {
        type            processor;
        value           uniform 0.011016654;
    }
}


// ************************************************************************* //
