/*--------------------------------*- C++ -*----------------------------------*\
| =========                 |                                                 |
| \\      /  F ield         | OpenFOAM: The Open Source CFD Toolbox           |
|  \\    /   O peration     | Version:  2306                                  |
|   \\  /    A nd           | Website:  www.openfoam.com                      |
|    \\/     M anipulation  |                                                 |
\*---------------------------------------------------------------------------*/
FoamFile
{
    version     2.0;
    format      ascii;
    arch        "LSB;label=32;scalar=64";
    class       volScalarField;
    location    "0.00046";
    object      p;
}
// * * * * * * * * * * * * * * * * * * * * * * * * * * * * * * * * * * * * * //

dimensions      [1 -1 -2 0 0 0 0];

internalField   nonuniform List<scalar> 
530
(
102208.886
102217.716
102194.636
102146.907
102105.265
102057.862
101969.504
101820.909
101675.064
101619.376
101668.609
101719.517
101695.723
101583.7
101489.867
101505.469
101617.732
101718.894
101735.989
101626.288
101473.685
101419.277
101518.815
101664.196
101745.989
101708.323
101550.565
101373.023
101274.386
101311.951
101466.549
101638.509
101754.29
101810.325
101817.082
101800.52
101782.744
101772.508
101768.148
101763.424
101752.012
101729.256
101692.004
101637.452
101563.747
101471.839
101367.793
101263.932
101176.253
101119.139
101100.499
101119.652
101168.717
101236.201
101310.883
101384.247
101451.198
101509.544
101558.998
101600.265
101634.418
101662.554
101685.632
101704.439
101719.596
101731.594
101740.828
101747.629
101752.289
101755.072
101756.211
101755.934
101754.449
101751.946
101748.602
101744.58
101740.033
101735.102
101729.921
101724.613
101719.288
101714.044
101708.964
101704.114
101699.545
101695.29
101691.367
101687.783
101684.529
101681.591
101678.947
101676.57
101674.433
101672.513
101670.778
101669.189
101667.773
101666.526
101665.429
101664.284
101663.23
101662.284
101661.451
101660.681
101659.994
101659.364
101658.624
101657.888
101657.211
101656.542
101655.874
101655.283
101654.636
101653.998
101653.374
101652.744
101652.19
101651.611
101651.02
101650.397
101649.823
101649.161
101648.487
101647.801
101647.091
101646.447
101645.757
101645.032
101644.261
101643.518
101642.688
101641.856
101641.009
101640.138
101639.335
101638.465
101637.557
101636.614
101635.697
101634.67
101633.633
101632.572
101631.492
101630.487
101629.4
101628.268
101627.125
101626.002
101624.793
101623.554
101622.306
101621.107
101619.795
101618.486
101617.166
101615.852
101614.637
101613.358
101612.078
101610.801
101609.601
101608.461
101607.325
101606.229
101605.15
101604.109
101603.2
101602.381
101601.583
101600.82
101600.112
101599.592
101599.139
101598.749
101598.373
101598.135
101597.989
101597.903
101597.812
101597.854
101598.916
101600.073
101601.279
101602.528
101604.033
101605.755
101607.534
101609.213
101611.078
101613.108
101615.28
101618.073
101620.868
101623.928
101627.307
101630.741
101633.935
101637.287
101641.029
101644.826
101648.388
101652.116
101656.264
101660.44
101664.323
101668.335
101672.732
101677.093
101681.067
101685.08
101689.394
101693.576
101697.377
101701.23
101705.374
101709.563
101713.525
101717.337
101720.769
101724.421
101727.979
101731.358
101734.103
101737.091
101741.82
101746.206
101751.398
101756.918
101762.433
101767.512
101772.361
101776.901
101781.539
101785.85
101789.91
101793.508
101797.257
101800.588
101803.622
101805.904
101808.262
101810.652
101812.603
101814.28
101815.503
101816.57
101817.223
101817.571
101817.067
101816.427
101815.747
101814.881
101813.758
101812.12
101810.21
101808.048
101805.648
101802.62
101799.801
101796.759
101793.457
101790.373
101786.997
101782.831
101778.346
101773.773
101769.581
101765.259
101760.644
101755.71
101751.268
101746.684
101741.558
101736.178
101730.765
101725.156
101719.41
101714.332
101709.038
101702.557
101695.85
101689.192
101683.321
101677.321
101670.764
101663.822
101656.802
101650.649
101644.399
101637.7
101630.618
101623.428
101617.163
101610.804
101603.994
101596.818
101589.509
101583.079
101576.626
101570.186
101563.493
101557.632
101551.74
101545.551
101538.996
101532.259
101526.35
101520.381
101514.392
101508.14
101502.66
101497.084
101491.071
101484.913
101478.551
101472.052
101465.293
101458.281
101452.487
101446.534
101440.39
101433.834
101428.259
101422.564
101416.718
101410.498
101404.763
101398.87
101392.52
101385.749
101378.79
101372.714
101366.587
101360.509
101354.189
101348.59
101343.008
101336.764
101330.453
101325.024
101319.58
101313.877
101307.926
101301.928
101296.828
101291.804
101286.779
101281.723
101276.681
101271.768
101269.405
101263.73
101258.237
101253.736
101249.299
101244.625
101239.863
101235.342
101230.982
101226.784
101222.253
101217.951
101213.774
101209.982
101206.756
101203.899
101201.225
101198.496
101195.956
101192.836
101189.986
101186.88
101183.743
101179.698
101175.65
101171.529
101168.608
101165.706
101162.574
101159.229
101155.497
101151.838
101147.445
101143.677
101142.882
101142.024
101144.578
101143.718
101142.983
101142.609
101142.277
101141.776
101141.121
101140.059
101138.984
101137.403
101136.199
101139.174
101142.017
101145.472
101149.504
101153.801
101157.792
101161.789
101165.421
101169.264
101169.524
101173.497
101177.182
101185.073
101192.543
101199.33
101208.568
101214.76
101220.541
101225.787
101230.922
101241.055
101250.678
101259.167
101267.095
101274.451
101281.557
101287.869
101293.586
101298.598
101303.334
101307.666
101311.545
101314.407
101316.612
101320.948
101325.582
101329.459
101332.295
101334.424
101338.156
101343.214
101347.698
101351.265
101354.262
101357.068
101361.501
101365.594
101368.917
101371.79
101376.637
101382.353
101387.818
101392.692
101397.203
101401.639
101405.921
101410.071
101414.038
101417.849
101421.215
101424.27
101427.302
101430.189
101432.881
101435.234
101437.475
101439.498
101441.574
101443.526
101445.406
101446.784
101448.375
101450.184
101451.839
101453.527
101455.134
101456.849
101458.536
101460.256
101461.937
101463.713
101465.478
101467.259
101468.836
101470.599
101472.532
101474.386
101476.286
101478.19
101480.199
101482.19
101484.215
101486.264
101488.4
101490.534
101492.687
101494.748
101496.976
101499.326
101501.619
101503.934
101506.302
101508.76
101511.166
101513.585
101516.067
101518.617
101521.133
101523.658
101526.188
101528.862
101531.605
101534.282
101536.949
101539.693
101542.526
101545.227
101547.909
101550.681
101553.545
101556.185
101558.801
101561.575
101564.238
101566.871
101569.611
101571.993
101574.664
101577.334
101579.863
101582.441
101585.052
101587.558
)
;

boundaryField
{
    closed
    {
        type            zeroGradient;
    }
    open
    {
        type            waveTransmissive;
        gamma           1.25;
        fieldInf        101325;
        lInf            1;
        value           nonuniform List<scalar> 0();
    }
    sides
    {
        type            empty;
    }
    procBoundary0to1
    {
        type            processor;
        value           uniform 101590.015;
    }
}


// ************************************************************************* //
