/*--------------------------------*- C++ -*----------------------------------*\
| =========                 |                                                 |
| \\      /  F ield         | OpenFOAM: The Open Source CFD Toolbox           |
|  \\    /   O peration     | Version:  2306                                  |
|   \\  /    A nd           | Website:  www.openfoam.com                      |
|    \\/     M anipulation  |                                                 |
\*---------------------------------------------------------------------------*/
FoamFile
{
    version     2.0;
    format      ascii;
    arch        "LSB;label=32;scalar=64";
    class       volScalarField;
    location    "0.00046";
    object      prefDPV_T;
}
// * * * * * * * * * * * * * * * * * * * * * * * * * * * * * * * * * * * * * //

dimensions      [1 -1 -1 -1 0 0 0];

internalField   nonuniform List<scalar> 
530
(
5.99249154e-10
5.97650377e-10
5.97549261e-10
5.9754978e-10
5.97549775e-10
5.97549775e-10
5.97549775e-10
5.97549775e-10
5.97549775e-10
5.97549775e-10
5.97549775e-10
5.97549775e-10
5.97549775e-10
5.97549775e-10
5.97549775e-10
5.97549775e-10
5.97549775e-10
5.97549775e-10
5.97549775e-10
5.97549775e-10
5.97549775e-10
5.97549775e-10
5.97549775e-10
5.97549775e-10
5.97549775e-10
5.97549775e-10
5.97549775e-10
5.97549775e-10
5.97549775e-10
5.97549775e-10
5.97549775e-10
5.97549775e-10
5.97549775e-10
5.97549775e-10
5.97549775e-10
5.97549775e-10
5.97549775e-10
5.97549775e-10
5.97549775e-10
5.97549775e-10
5.97549775e-10
5.97549775e-10
5.97549775e-10
5.97549775e-10
5.97549775e-10
5.97549775e-10
5.97549775e-10
5.97549775e-10
5.97549775e-10
5.97549775e-10
5.97549775e-10
5.97549775e-10
5.97549775e-10
5.97549775e-10
5.97549775e-10
5.97549775e-10
5.97549775e-10
5.97549775e-10
5.97549775e-10
5.97549775e-10
5.97549775e-10
5.97549775e-10
5.97549775e-10
5.97549775e-10
5.97549775e-10
5.97549775e-10
5.97549775e-10
5.97549775e-10
5.97549775e-10
5.97549775e-10
5.97549775e-10
5.97549775e-10
5.97549775e-10
5.97549775e-10
5.97549775e-10
5.97549775e-10
5.97549775e-10
5.97549775e-10
5.97549775e-10
5.97549775e-10
5.97549786e-10
5.9754979e-10
5.97549723e-10
5.97549944e-10
5.97550243e-10
5.975489e-10
5.97547299e-10
5.97548888e-10
5.97587536e-10
5.9759464e-10
5.97332467e-10
5.97217148e-10
5.98211136e-10
5.98819222e-10
5.96745888e-10
5.92431303e-10
5.9530524e-10
6.11706167e-10
6.06965294e-10
5.91123599e-10
5.89975201e-10
5.9006848e-10
6.05543393e-10
6.09315746e-10
6.09000953e-10
6.05745707e-10
5.90289645e-10
5.89418563e-10
5.93869745e-10
6.08848689e-10
6.09250475e-10
5.90671898e-10
5.89218776e-10
5.92793508e-10
6.09186626e-10
6.09269193e-10
5.90689272e-10
5.9101867e-10
6.09135424e-10
6.09187173e-10
5.90404294e-10
5.88930657e-10
5.91889318e-10
6.0939984e-10
6.09363309e-10
5.9069044e-10
5.91002087e-10
6.09299558e-10
6.09183362e-10
5.90549914e-10
5.89076736e-10
5.91668711e-10
6.0951211e-10
6.09419247e-10
5.90702614e-10
5.90978274e-10
6.09540052e-10
6.09332772e-10
5.90512411e-10
5.88922567e-10
5.91254799e-10
6.09714622e-10
6.09533135e-10
5.90619904e-10
5.90755155e-10
6.09893587e-10
6.09383221e-10
5.90552952e-10
5.90763831e-10
6.0993365e-10
6.09450994e-10
5.90617061e-10
5.89125251e-10
5.91814049e-10
6.09673989e-10
6.09566369e-10
5.91093291e-10
5.91305885e-10
6.09895845e-10
6.09707384e-10
5.91396475e-10
5.89971757e-10
5.89829028e-10
5.92417697e-10
6.09508747e-10
6.09520809e-10
5.91215559e-10
5.89479135e-10
5.92634309e-10
6.09842767e-10
6.10192541e-10
5.90999923e-10
5.91169636e-10
6.10522314e-10
6.09597143e-10
5.90898656e-10
5.90996667e-10
6.10730725e-10
6.09763498e-10
5.90865814e-10
5.89222412e-10
5.91588994e-10
6.10335089e-10
6.10662569e-10
5.90963426e-10
5.91308945e-10
6.10751833e-10
6.10007612e-10
5.91079044e-10
5.89292027e-10
5.91138706e-10
6.1072514e-10
6.11001177e-10
5.90788467e-10
5.90939713e-10
6.11296166e-10
6.10381161e-10
5.90724816e-10
5.9068801e-10
6.11915654e-10
6.10716177e-10
5.90640278e-10
5.90596548e-10
6.12101595e-10
6.10859116e-10
5.90747384e-10
5.90720055e-10
6.11931466e-10
6.11023226e-10
5.90874752e-10
5.91052209e-10
6.11659991e-10
6.10763642e-10
5.90615748e-10
5.8929009e-10
5.92332383e-10
6.10835442e-10
6.09071813e-10
5.90887915e-10
5.91447893e-10
6.10954086e-10
6.12129862e-10
5.90936469e-10
5.91491092e-10
6.11236182e-10
6.11209946e-10
5.90228592e-10
5.89135203e-10
5.95713451e-10
6.10406717e-10
6.03911952e-10
5.90722829e-10
5.92749965e-10
6.10871428e-10
6.07411435e-10
5.90791735e-10
5.92746324e-10
6.11150314e-10
6.11201919e-10
5.89935948e-10
5.89018062e-10
6.01161713e-10
6.097722e-10
5.99508744e-10
5.9065468e-10
5.94889163e-10
6.10636501e-10
6.09280977e-10
5.90113683e-10
5.89287811e-10
6.0312742e-10
6.09384008e-10
5.98332752e-10
5.90653994e-10
5.98340435e-10
6.09630114e-10
6.03307791e-10
5.91076393e-10
5.89558108e-10
5.89349599e-10
6.04840163e-10
6.09323446e-10
6.05084531e-10
5.90807261e-10
5.90255305e-10
6.07451547e-10
6.08727959e-10
5.96384932e-10
5.90771644e-10
6.07422877e-10
6.08691202e-10
6.02545645e-10
5.91010681e-10
5.90796822e-10
5.89653926e-10
5.89549198e-10
6.05790854e-10
6.09159877e-10
6.11598572e-10
5.90816548e-10
5.90300564e-10
6.08417292e-10
6.09178995e-10
6.03131398e-10
5.90011302e-10
5.89635374e-10
6.08674506e-10
6.09214263e-10
6.00913587e-10
5.89884092e-10
5.89627572e-10
6.09445671e-10
6.09249284e-10
6.01199036e-10
5.8970463e-10
5.89361735e-10
6.09534411e-10
6.08967726e-10
5.93296145e-10
5.90399755e-10
6.11645825e-10
6.09036304e-10
5.99216989e-10
5.89416193e-10
5.89088888e-10
6.1009104e-10
6.08757527e-10
5.9310773e-10
5.90653815e-10
6.116801e-10
6.0814053e-10
6.02669232e-10
5.92984225e-10
5.91198153e-10
5.90885067e-10
5.90333133e-10
5.89920235e-10
6.11383847e-10
6.08501749e-10
5.94362786e-10
5.90570659e-10
6.12170179e-10
6.08555905e-10
5.92954264e-10
5.90059406e-10
6.06771083e-10
6.09393724e-10
6.0015798e-10
5.89296302e-10
5.88946084e-10
6.10036019e-10
6.09056647e-10
5.92839908e-10
5.90207461e-10
6.10983252e-10
6.08904981e-10
5.91486866e-10
5.89615379e-10
6.09783319e-10
6.0930091e-10
5.99359217e-10
5.89737133e-10
5.89451826e-10
6.10131672e-10
6.09157881e-10
5.94143878e-10
5.90007065e-10
5.95756617e-10
6.10226194e-10
6.10998475e-10
5.89950664e-10
5.89274006e-10
6.08508026e-10
6.09271907e-10
6.01110992e-10
5.90099826e-10
5.89793758e-10
5.97721095e-10
6.09752299e-10
6.03789355e-10
5.90761446e-10
5.91882331e-10
6.10450183e-10
6.1006971e-10
5.9151052e-10
5.89327081e-10
5.92319737e-10
6.1085158e-10
6.08569909e-10
5.90705494e-10
5.92199806e-10
6.1083435e-10
6.10217791e-10
5.90646631e-10
5.90783563e-10
6.11641685e-10
6.09783799e-10
5.92925015e-10
5.89264823e-10
5.91736735e-10
6.11314693e-10
6.10273925e-10
5.90881263e-10
5.9120737e-10
6.11574242e-10
6.11152368e-10
5.91006651e-10
5.90801871e-10
6.08945545e-10
6.10004999e-10
5.92888066e-10
5.89266612e-10
5.9359552e-10
6.11111794e-10
6.0656983e-10
5.91078329e-10
5.91356997e-10
6.11943788e-10
6.1033263e-10
5.91680359e-10
5.89285038e-10
5.94189715e-10
6.11025893e-10
6.06455761e-10
5.90848888e-10
5.91008952e-10
6.11451247e-10
6.11295854e-10
5.91433452e-10
5.91050443e-10
6.09889307e-10
6.11059626e-10
5.91081949e-10
5.9129912e-10
6.12081991e-10
6.11097944e-10
5.91270063e-10
5.89182033e-10
5.95589975e-10
6.10722938e-10
5.99805078e-10
5.90906864e-10
5.99640757e-10
6.09637411e-10
6.05149096e-10
5.92822047e-10
5.90193782e-10
5.89772895e-10
5.96043256e-10
6.10470032e-10
6.10299562e-10
5.91558427e-10
5.89913677e-10
5.95802207e-10
6.10586349e-10
6.11288649e-10
5.91051751e-10
5.89883138e-10
5.95369825e-10
6.10620872e-10
6.10426863e-10
5.91171339e-10
5.89840418e-10
5.95019783e-10
6.10657328e-10
6.10717135e-10
5.91345365e-10
5.89757363e-10
5.93917501e-10
6.10811962e-10
6.08989083e-10
5.9916162e-10
5.92198724e-10
5.90584732e-10
5.90400574e-10
5.9631534e-10
6.10171525e-10
6.09620876e-10
5.92234701e-10
5.89572211e-10
5.95086893e-10
6.1059826e-10
6.01158118e-10
5.90756924e-10
5.97385268e-10
6.09954875e-10
6.10338876e-10
5.90485546e-10
5.89314385e-10
5.94524291e-10
6.10625678e-10
6.0059578e-10
5.9052494e-10
5.97902356e-10
6.09910197e-10
5.99737175e-10
5.90516908e-10
5.97676444e-10
6.09903424e-10
6.07675018e-10
5.90223736e-10
5.89096491e-10
5.94668125e-10
6.1045609e-10
5.99828204e-10
5.90432422e-10
5.98490882e-10
6.09725393e-10
5.9897862e-10
5.90472447e-10
5.98408255e-10
6.09672564e-10
6.06913807e-10
5.90131349e-10
5.8910096e-10
5.95232532e-10
6.10177256e-10
5.98964198e-10
5.90330918e-10
5.99370436e-10
6.09513284e-10
5.98017013e-10
5.90374724e-10
5.99292018e-10
6.09450999e-10
6.05941119e-10
5.90013049e-10
5.89059138e-10
5.95880485e-10
6.09893897e-10
5.98004668e-10
5.90105387e-10
5.99996208e-10
6.09319133e-10
5.96672089e-10
5.90049465e-10
6.00778967e-10
6.09278504e-10
5.96364187e-10
5.89968908e-10
5.98532801e-10
6.09162496e-10
6.11708296e-10
5.90052563e-10
5.89173334e-10
5.97858866e-10
6.09634397e-10
5.96905944e-10
5.90172238e-10
5.99686079e-10
)
;

boundaryField
{
    closed
    {
        type            calculated;
        value           uniform 7.29034145e-10;
    }
    open
    {
        type            calculated;
        value           nonuniform List<scalar> 0();
    }
    sides
    {
        type            empty;
    }
    procBoundary0to1
    {
        type            processor;
        value           uniform 6.09077889e-10;
    }
}


// ************************************************************************* //
