/*--------------------------------*- C++ -*----------------------------------*\
| =========                 |                                                 |
| \\      /  F ield         | OpenFOAM: The Open Source CFD Toolbox           |
|  \\    /   O peration     | Version:  2306                                  |
|   \\  /    A nd           | Website:  www.openfoam.com                      |
|    \\/     M anipulation  |                                                 |
\*---------------------------------------------------------------------------*/
FoamFile
{
    version     2.0;
    format      ascii;
    arch        "LSB;label=32;scalar=64";
    class       volScalarField;
    location    "0.00046";
    object      T;
}
// * * * * * * * * * * * * * * * * * * * * * * * * * * * * * * * * * * * * * //

dimensions      [0 0 0 1 0 0 0];

internalField   nonuniform List<scalar> 
530
(
334.378425
330.329613
329.57551
329.573913
329.573357
329.573353
329.573353
329.573353
329.573353
329.573353
329.573353
329.573353
329.573353
329.573353
329.573353
329.573353
329.573353
329.573353
329.573353
329.573353
329.573353
329.573353
329.573353
329.573353
329.573353
329.573353
329.573353
329.573353
329.573353
329.573353
329.573353
329.573353
329.573353
329.573353
329.573353
329.573353
329.573353
329.573353
329.573353
329.573353
329.573353
329.573353
329.573353
329.573353
329.573353
329.573353
329.573353
329.573353
329.573353
329.573353
329.573353
329.573353
329.573353
329.573353
329.573353
329.573353
329.573353
329.573353
329.573353
329.573353
329.573353
329.573353
329.573353
329.573353
329.573353
329.573353
329.573353
329.573353
329.573353
329.573353
329.573353
329.573353
329.573353
329.573353
329.573353
329.573353
329.573354
329.573356
329.573364
329.573372
329.573437
329.573485
329.573769
329.574099
329.575232
329.575585
329.577929
329.579515
329.599631
329.606479
329.533452
329.521689
329.843447
330.128581
329.426626
329.463103
329.258071
338.957685
334.378171
328.435345
324.12687
324.992644
333.503227
339.473682
339.81117
333.620817
326.601041
322.754997
329.051608
340.037226
340.441875
328.325195
321.676831
328.969965
339.60141
340.516332
327.868508
327.998996
340.039031
340.229258
327.502962
320.600924
329.036727
339.527258
340.431536
327.78591
327.876508
339.906698
340.170488
327.942782
321.045344
329.11868
339.456856
340.348344
327.772196
327.709
339.788721
340.08985
327.884207
320.464226
329.135837
339.411917
340.341078
327.395735
327.001076
339.455271
340.172659
327.358284
327.067251
339.630406
340.056901
328.230663
321.212044
329.122804
339.361132
340.174507
328.993451
328.635638
339.341296
339.890642
329.135483
324.367576
324.334963
329.448687
339.660756
340.036577
328.816233
322.22347
329.083103
339.16986
339.760679
328.492154
328.142434
338.958417
339.961176
328.289841
327.600438
339.110473
339.785131
328.690057
321.2393
329.176697
338.933181
339.334625
328.149455
328.282405
338.943867
339.537407
328.717286
321.26488
329.222686
338.736586
339.082846
327.412989
327.02708
338.484766
339.488016
327.317074
326.301687
338.171184
339.304817
326.905938
325.964459
338.048621
339.224812
327.249958
326.339872
338.092501
339.029367
327.609376
327.406921
338.388979
339.053369
328.207053
321.434573
328.731404
338.728146
335.739288
327.696185
329.679238
338.654444
337.859496
327.890784
329.582031
338.548857
338.669407
326.521491
321.240415
328.741757
339.033955
332.560997
327.350029
328.952156
338.687031
334.652773
327.460725
329.033686
338.47169
337.164066
324.906622
321.167704
330.941079
339.391099
330.485696
327.036163
328.971723
338.708525
335.840513
325.349625
322.353818
332.054943
339.658555
330.122234
327.589892
329.787989
339.455717
332.261493
329.133508
322.841746
322.761651
333.070588
339.455688
333.228259
327.400007
325.887168
334.714401
339.937206
329.886776
328.250354
334.739585
340.05578
331.892899
328.918506
327.485386
323.17895
323.152602
333.657813
339.36958
337.37758
327.627847
325.015443
335.372994
339.369482
332.195628
324.527826
323.507153
335.564536
339.582845
331.16697
324.087505
323.470591
336.081105
339.473817
331.273948
323.332015
322.835713
336.147607
339.840457
329.692739
326.379319
337.687511
339.708805
330.48821
322.422389
322.126033
336.535194
340.089935
329.722413
327.854095
337.671609
340.261198
331.968467
328.880168
328.565222
328.482656
325.184662
325.07921
337.372779
340.100925
329.749579
327.567254
338.000372
340.175385
329.512053
325.325806
334.297981
339.4844
330.826354
321.851555
321.373187
336.492808
339.84485
329.805911
325.805702
337.120887
339.885032
329.592721
323.57282
336.368267
339.514851
330.596596
323.275647
322.932317
336.549689
339.669629
329.272864
324.443558
329.228731
338.704523
338.815595
324.592085
321.565764
335.458334
339.473815
331.246028
325.72493
324.128969
329.524653
339.208175
332.503355
327.639757
329.586462
338.95765
339.710749
328.287338
321.80747
328.651615
338.539146
335.411357
327.475519
329.221227
338.553917
336.487785
327.134115
326.772312
337.497145
339.864503
328.443713
321.711996
328.690248
338.240719
336.550604
327.850724
328.404174
338.095475
338.739661
328.490135
326.597894
335.661142
339.62996
328.458894
321.748996
328.347111
338.340486
334.112926
328.126796
328.942
337.895028
339.308645
328.458005
321.76398
328.300747
338.572237
334.046834
327.656155
327.825015
337.358016
338.808473
329.162852
328.044932
336.29145
337.107022
328.58191
329.479917
337.935167
338.841038
328.618811
321.534662
328.620587
338.858596
330.589894
328.297164
330.254585
339.418755
333.264305
329.203008
325.306701
323.865697
329.013917
338.796265
339.029849
328.85737
323.532777
328.917659
338.703689
338.230926
328.965039
323.443811
328.835577
338.731069
339.012201
328.861412
323.32481
328.718096
338.773537
338.89374
328.718449
323.140411
328.395154
338.575173
340.2404
330.356241
329.687963
327.113935
325.719704
329.170254
339.019508
339.661764
328.604595
322.703215
328.546237
338.924125
331.139645
327.361698
329.459168
339.305761
336.536537
327.644849
321.748191
328.524578
338.997533
330.870273
326.599395
329.543248
339.341556
330.526038
326.496724
329.556596
339.347209
334.787482
326.465779
321.069861
328.61281
339.100316
330.53266
326.14189
329.800525
339.403455
330.233508
326.253021
329.852265
339.458692
334.313979
326.056102
321.084845
328.785559
339.2639
330.180133
325.745324
330.181306
339.511844
329.890588
325.877009
330.220182
339.579094
333.727946
325.550909
320.999637
328.993632
339.466206
329.824557
325.030715
330.47214
339.72542
329.439605
324.970639
330.83085
339.744234
329.346938
324.570303
329.970242
339.809643
337.548158
325.82924
320.836394
329.606868
339.440655
329.486592
325.076652
330.453397
)
;

boundaryField
{
    closed
    {
        type            fixedValue;
        value           uniform 400;
    }
    open
    {
        type            zeroGradient;
    }
    sides
    {
        type            empty;
    }
    procBoundary0to1
    {
        type            processor;
        value           uniform 339.752577;
    }
}


// ************************************************************************* //
