/*--------------------------------*- C++ -*----------------------------------*\
| =========                 |                                                 |
| \\      /  F ield         | OpenFOAM: The Open Source CFD Toolbox           |
|  \\    /   O peration     | Version:  2306                                  |
|   \\  /    A nd           | Website:  www.openfoam.com                      |
|    \\/     M anipulation  |                                                 |
\*---------------------------------------------------------------------------*/
FoamFile
{
    version     2.0;
    format      ascii;
    arch        "LSB;label=32;scalar=64";
    class       volScalarField;
    location    "0.00094";
    object      prefDPV_T;
}
// * * * * * * * * * * * * * * * * * * * * * * * * * * * * * * * * * * * * * //

dimensions      [1 -1 -1 -1 0 0 0];

internalField   nonuniform List<scalar> 
530
(
6.03709047e-10
5.97985146e-10
5.97546393e-10
5.97549568e-10
5.97549777e-10
5.97549775e-10
5.97549775e-10
5.97549775e-10
5.97549775e-10
5.97549775e-10
5.97549775e-10
5.97549775e-10
5.97549775e-10
5.97549775e-10
5.97549775e-10
5.97549775e-10
5.97549775e-10
5.97549775e-10
5.97549775e-10
5.97549775e-10
5.97549775e-10
5.97549775e-10
5.97549775e-10
5.97549775e-10
5.97549775e-10
5.97549775e-10
5.97549775e-10
5.97549775e-10
5.97549775e-10
5.97549775e-10
5.97549775e-10
5.97549775e-10
5.97549775e-10
5.97549775e-10
5.97549775e-10
5.97549775e-10
5.97549775e-10
5.97549775e-10
5.97549775e-10
5.97549775e-10
5.97549775e-10
5.97549775e-10
5.97549775e-10
5.97549775e-10
5.97549775e-10
5.97549775e-10
5.97549775e-10
5.97549775e-10
5.97549775e-10
5.97549775e-10
5.97549775e-10
5.97549775e-10
5.97549775e-10
5.97549775e-10
5.97549775e-10
5.97549775e-10
5.97549775e-10
5.97549775e-10
5.97549775e-10
5.97549775e-10
5.97549775e-10
5.97549775e-10
5.97549775e-10
5.97549775e-10
5.97549775e-10
5.97549775e-10
5.97549775e-10
5.97549775e-10
5.97549775e-10
5.97549775e-10
5.97549775e-10
5.97549775e-10
5.97549776e-10
5.97549778e-10
5.97549793e-10
5.97549807e-10
5.97549739e-10
5.97549769e-10
5.97550349e-10
5.97550484e-10
5.97549266e-10
5.97549211e-10
5.97550055e-10
5.9755419e-10
5.97572675e-10
5.9759604e-10
5.97492207e-10
5.97158039e-10
5.97265962e-10
5.98586936e-10
5.9934143e-10
5.97675542e-10
5.91738836e-10
5.91135284e-10
5.93943977e-10
6.1023438e-10
6.10159235e-10
6.02645931e-10
5.90187899e-10
5.90107262e-10
5.90193273e-10
5.92091688e-10
6.10090458e-10
6.0920663e-10
6.09915661e-10
6.09784873e-10
6.08648075e-10
5.90695994e-10
5.89535795e-10
5.89679548e-10
5.90313292e-10
5.93057671e-10
6.11320952e-10
6.09186161e-10
6.08955177e-10
5.92208383e-10
5.90245788e-10
5.90561712e-10
5.94219628e-10
6.0998159e-10
6.09083316e-10
6.08889332e-10
5.92076017e-10
5.90311044e-10
5.9061331e-10
5.9428695e-10
6.11872879e-10
6.10680642e-10
5.93235592e-10
5.93694547e-10
6.10632061e-10
6.09291706e-10
5.90974926e-10
5.90201082e-10
5.93545625e-10
6.12268805e-10
6.09716765e-10
5.92310294e-10
5.93042934e-10
6.11272824e-10
6.08992861e-10
5.91979254e-10
5.92835313e-10
6.11070031e-10
6.08249888e-10
5.91732767e-10
5.92767071e-10
6.10970355e-10
6.07689083e-10
5.91606521e-10
5.92805018e-10
6.10918428e-10
6.07202006e-10
5.91534101e-10
5.92898047e-10
6.10723958e-10
6.06535028e-10
5.91495536e-10
5.93095749e-10
6.1028926e-10
6.06630525e-10
5.90273736e-10
5.89851895e-10
5.93893199e-10
6.12266087e-10
6.06708053e-10
5.91663873e-10
5.93494828e-10
6.11416074e-10
6.07030197e-10
5.90308813e-10
5.89939359e-10
5.942505e-10
6.11750131e-10
6.07101199e-10
5.91654476e-10
5.93447872e-10
6.1201891e-10
6.06838346e-10
5.91530056e-10
5.93298507e-10
6.12161886e-10
6.06400236e-10
5.91452134e-10
5.93273507e-10
6.12227319e-10
6.06108979e-10
5.91404996e-10
5.93311208e-10
6.12317042e-10
6.0566049e-10
5.91409468e-10
5.93504282e-10
6.11979611e-10
6.06297754e-10
5.90056538e-10
5.89866743e-10
5.94699966e-10
6.10978414e-10
6.06588379e-10
5.9150253e-10
5.93782554e-10
6.11194374e-10
6.0612521e-10
5.91437809e-10
5.93797478e-10
6.11646166e-10
6.06697695e-10
5.90000126e-10
5.89891205e-10
5.95142339e-10
6.10574156e-10
6.06339177e-10
5.91398538e-10
5.9389938e-10
6.11121854e-10
6.07124612e-10
5.89969008e-10
5.89869075e-10
5.95174918e-10
6.10317347e-10
6.0674262e-10
5.91253521e-10
5.93695059e-10
6.10475579e-10
6.06543639e-10
5.91114398e-10
5.93495927e-10
6.10558391e-10
6.06199405e-10
5.90998829e-10
5.93427712e-10
6.10616834e-10
6.05762845e-10
5.90993564e-10
5.93470238e-10
6.10934e-10
6.06745609e-10
5.89701667e-10
5.89650945e-10
5.94920204e-10
6.10050818e-10
6.06867369e-10
5.90953227e-10
5.93505122e-10
6.10043562e-10
6.06621984e-10
5.90807315e-10
5.93434554e-10
6.10103137e-10
6.06050696e-10
5.90777528e-10
5.93439299e-10
6.10208902e-10
6.08010588e-10
5.89649165e-10
5.89697988e-10
5.95536241e-10
6.09480277e-10
6.08239936e-10
5.90970538e-10
5.93804399e-10
6.09400224e-10
6.07758949e-10
5.90894232e-10
5.93701999e-10
6.09564948e-10
6.09856675e-10
5.8978159e-10
5.89895934e-10
5.96643804e-10
6.09202557e-10
6.08278005e-10
5.91007445e-10
5.93915637e-10
6.09462946e-10
6.08241466e-10
5.89760447e-10
5.89917306e-10
5.90514684e-10
5.90672278e-10
5.98219563e-10
6.08854123e-10
6.12179534e-10
5.90302847e-10
5.90359594e-10
5.98416724e-10
6.08805715e-10
6.10498678e-10
5.91248139e-10
5.94225048e-10
6.08827383e-10
6.08926185e-10
5.90768707e-10
5.93869424e-10
6.09316424e-10
6.07003287e-10
5.89523307e-10
5.89720331e-10
5.90381357e-10
5.90582089e-10
5.98391506e-10
6.08216543e-10
6.09079697e-10
5.91535993e-10
5.9067487e-10
5.99951499e-10
6.08199805e-10
6.09279154e-10
5.91354528e-10
5.90467707e-10
5.98707538e-10
6.08808008e-10
6.11235286e-10
5.89793555e-10
5.89635233e-10
5.95870932e-10
6.09152029e-10
6.10731069e-10
5.89781884e-10
5.89711128e-10
5.96436061e-10
6.0888031e-10
6.1213308e-10
5.90809012e-10
5.92845473e-10
6.0883392e-10
6.10918694e-10
5.89733267e-10
5.8974267e-10
5.96022971e-10
6.09067127e-10
6.10251257e-10
5.89991673e-10
5.89842784e-10
5.96748827e-10
6.09013205e-10
6.10181672e-10
5.90001064e-10
5.89850046e-10
5.96570736e-10
6.09099141e-10
6.10025426e-10
5.8983123e-10
5.89820044e-10
5.90630896e-10
5.96261996e-10
6.0870516e-10
6.09943741e-10
5.89974424e-10
5.89822369e-10
5.96540592e-10
6.09015462e-10
6.09926187e-10
5.89931562e-10
5.8971701e-10
5.96199314e-10
6.08784445e-10
6.1121374e-10
5.90805669e-10
5.92752237e-10
6.08539777e-10
6.11864099e-10
5.90454181e-10
5.92425311e-10
6.08859967e-10
6.10646321e-10
5.89502804e-10
5.89416823e-10
5.94787167e-10
6.09210337e-10
6.09836302e-10
5.89707741e-10
5.89454827e-10
5.95465615e-10
6.08956383e-10
6.11905255e-10
5.90621392e-10
5.92159856e-10
6.08908222e-10
6.09780669e-10
5.89617772e-10
5.89438594e-10
5.95073738e-10
6.0912871e-10
6.11829654e-10
5.90637899e-10
5.91933547e-10
6.09272576e-10
6.0977032e-10
5.89802118e-10
5.89342717e-10
5.93535754e-10
6.09821454e-10
6.09739747e-10
5.90167563e-10
5.89355268e-10
5.93148801e-10
6.10146002e-10
6.098192e-10
5.90340484e-10
5.89445662e-10
5.93225472e-10
6.10411017e-10
6.11228733e-10
5.91063599e-10
5.91688806e-10
6.11448671e-10
6.11661752e-10
5.90986496e-10
5.91436393e-10
6.10155673e-10
6.11139801e-10
5.91929411e-10
5.8963672e-10
5.90789645e-10
6.09453113e-10
6.11551211e-10
5.94575319e-10
5.91522448e-10
6.03807698e-10
6.12105807e-10
5.95740381e-10
5.91399657e-10
6.01162712e-10
6.11821682e-10
5.97926175e-10
5.90124847e-10
5.90194154e-10
6.01576351e-10
6.11913982e-10
5.98676321e-10
5.91803688e-10
5.98468021e-10
6.11232989e-10
6.00466833e-10
5.90349776e-10
5.90189043e-10
5.99445962e-10
6.11614845e-10
5.99604627e-10
5.91784253e-10
5.97789678e-10
6.11268237e-10
6.00986882e-10
5.90400936e-10
5.90149426e-10
5.98790399e-10
6.12256699e-10
6.00219839e-10
5.91842831e-10
5.98123522e-10
6.12305452e-10
6.00081029e-10
5.9167584e-10
5.98246541e-10
6.12208488e-10
5.99583423e-10
5.91480593e-10
5.97883244e-10
6.12108058e-10
6.00471068e-10
5.90390077e-10
5.90157573e-10
5.99297839e-10
6.11235917e-10
6.01453801e-10
5.90544529e-10
5.90308068e-10
6.00767382e-10
6.10982448e-10
6.00092572e-10
5.91619673e-10
5.98211741e-10
6.11276428e-10
6.01058191e-10
5.90428729e-10
5.90245598e-10
6.00123396e-10
6.10838996e-10
6.01849409e-10
5.90581338e-10
5.90415453e-10
6.01670074e-10
6.10489965e-10
6.00747017e-10
5.91850251e-10
5.98231327e-10
6.1090977e-10
6.0149852e-10
5.90449251e-10
5.90385292e-10
6.01320501e-10
6.10591116e-10
6.01130878e-10
5.90238512e-10
5.90256864e-10
6.02703527e-10
6.11277926e-10
5.97267726e-10
5.91057352e-10
5.95813687e-10
6.09661328e-10
6.08368078e-10
6.09954169e-10
5.96911959e-10
5.90453816e-10
5.90315723e-10
5.90464132e-10
5.90466643e-10
5.90692211e-10
6.04924823e-10
6.10120537e-10
6.00667404e-10
5.90859957e-10
5.92229055e-10
6.09909582e-10
6.09326492e-10
5.99047654e-10
5.90419844e-10
5.9038736e-10
5.98818477e-10
6.09716653e-10
6.0894296e-10
5.90383545e-10
5.90210415e-10
5.97868836e-10
6.09812463e-10
6.09717767e-10
5.90519744e-10
)
;

boundaryField
{
    closed
    {
        type            calculated;
        value           uniform 7.28109291e-10;
    }
    open
    {
        type            calculated;
        value           nonuniform List<scalar> 0();
    }
    sides
    {
        type            empty;
    }
    procBoundary0to1
    {
        type            processor;
        value           uniform 5.90422475e-10;
    }
}


// ************************************************************************* //
