/*--------------------------------*- C++ -*----------------------------------*\
| =========                 |                                                 |
| \\      /  F ield         | OpenFOAM: The Open Source CFD Toolbox           |
|  \\    /   O peration     | Version:  2306                                  |
|   \\  /    A nd           | Website:  www.openfoam.com                      |
|    \\/     M anipulation  |                                                 |
\*---------------------------------------------------------------------------*/
FoamFile
{
    version     2.0;
    format      ascii;
    arch        "LSB;label=32;scalar=64";
    class       volScalarField;
    location    "0.00156";
    object      mu;
}
// * * * * * * * * * * * * * * * * * * * * * * * * * * * * * * * * * * * * * //

dimensions      [1 -1 -1 0 0 0 0];

internalField   nonuniform List<scalar> 
530
(
5.354286e-05
5.36309873e-05
5.37656163e-05
5.37862558e-05
5.3664168e-05
5.37322468e-05
5.38766038e-05
5.3890652e-05
5.37743421e-05
5.38250814e-05
5.39699482e-05
5.39859944e-05
5.38715644e-05
5.39152795e-05
5.4048764e-05
5.40693793e-05
5.39581163e-05
5.39997393e-05
5.4128802e-05
5.41532852e-05
5.40439525e-05
5.40752894e-05
5.42065613e-05
5.42296648e-05
5.41290104e-05
5.41479393e-05
5.42853651e-05
5.43017715e-05
5.42086019e-05
5.42190372e-05
5.43608442e-05
5.43732841e-05
5.42838987e-05
5.42923629e-05
5.44333052e-05
5.44445567e-05
5.4355926e-05
5.43637466e-05
5.45032107e-05
5.45148925e-05
5.44255288e-05
5.44330272e-05
5.45708308e-05
5.45834691e-05
5.44936026e-05
5.45002871e-05
5.46345543e-05
5.46494706e-05
5.45606141e-05
5.45659478e-05
5.46919796e-05
5.47070386e-05
5.46274776e-05
5.46303703e-05
5.4746639e-05
5.47635982e-05
5.46809249e-05
5.46939308e-05
5.47977007e-05
5.48225385e-05
5.47335195e-05
5.47521661e-05
5.48465408e-05
5.48820712e-05
5.47855585e-05
5.48027928e-05
5.4894754e-05
5.4929628e-05
5.48367931e-05
5.48533143e-05
5.49431927e-05
5.49761631e-05
5.48871592e-05
5.49038758e-05
5.4991678e-05
5.50230841e-05
5.49367649e-05
5.49540964e-05
5.50395172e-05
5.50696633e-05
5.49857677e-05
5.50039101e-05
5.50866496e-05
5.51159243e-05
5.50336933e-05
5.50533571e-05
5.51365163e-05
5.51616884e-05
5.50819565e-05
5.51021978e-05
5.51872462e-05
5.52099181e-05
5.51350687e-05
5.51515416e-05
5.52389337e-05
5.52597601e-05
5.51875274e-05
5.52045782e-05
5.52908884e-05
5.53109248e-05
5.5239561e-05
5.5257375e-05
5.53427978e-05
5.53626928e-05
5.52915973e-05
5.53097866e-05
5.53938711e-05
5.54142547e-05
5.53436909e-05
5.53620281e-05
5.54446323e-05
5.54655488e-05
5.53960277e-05
5.54142714e-05
5.5495308e-05
5.55168529e-05
5.54486003e-05
5.5466655e-05
5.55460107e-05
5.55684487e-05
5.55014955e-05
5.55193102e-05
5.55966395e-05
5.56201252e-05
5.55539627e-05
5.55722092e-05
5.56474929e-05
5.56715612e-05
5.56064371e-05
5.56251107e-05
5.56987664e-05
5.57235024e-05
5.56593304e-05
5.56783706e-05
5.57505661e-05
5.57759482e-05
5.57126724e-05
5.57320919e-05
5.58029723e-05
5.58289384e-05
5.57665268e-05
5.5786281e-05
5.58556837e-05
5.5882338e-05
5.58207273e-05
5.58413185e-05
5.59094885e-05
5.59358763e-05
5.58755857e-05
5.58968509e-05
5.59630016e-05
5.59905689e-05
5.5930538e-05
5.595295e-05
5.60208664e-05
5.60453439e-05
5.59883919e-05
5.60091559e-05
5.60806726e-05
5.61039353e-05
5.60496004e-05
5.60684275e-05
5.61431316e-05
5.61638387e-05
5.61114925e-05
5.61292045e-05
5.62060663e-05
5.62249218e-05
5.61736181e-05
5.61901764e-05
5.62689689e-05
5.62862124e-05
5.62364272e-05
5.62514831e-05
5.63322683e-05
5.63476564e-05
5.62997183e-05
5.63131682e-05
5.63960207e-05
5.6409511e-05
5.63633119e-05
5.63751673e-05
5.6460235e-05
5.64717234e-05
5.6427243e-05
5.64373129e-05
5.65201557e-05
5.65338592e-05
5.64874842e-05
5.6499803e-05
5.657603e-05
5.65914041e-05
5.65429635e-05
5.65559745e-05
5.6630005e-05
5.66465128e-05
5.65983965e-05
5.66115391e-05
5.66835289e-05
5.670023e-05
5.66535589e-05
5.66671353e-05
5.67369869e-05
5.67535162e-05
5.67083647e-05
5.67224934e-05
5.67900358e-05
5.68063494e-05
5.67626302e-05
5.67773413e-05
5.68425801e-05
5.68584558e-05
5.68162164e-05
5.6831637e-05
5.68944912e-05
5.69100168e-05
5.68690888e-05
5.68852293e-05
5.69454891e-05
5.69609476e-05
5.69211899e-05
5.69381498e-05
5.69968651e-05
5.70115452e-05
5.69736264e-05
5.69902334e-05
5.70485535e-05
5.70630179e-05
5.70266319e-05
5.70433713e-05
5.71003765e-05
5.71144267e-05
5.70783508e-05
5.70961533e-05
5.71510439e-05
5.71657402e-05
5.71291629e-05
5.71478158e-05
5.72010768e-05
5.72160712e-05
5.71793459e-05
5.71983199e-05
5.72506353e-05
5.72653654e-05
5.72288851e-05
5.72478463e-05
5.73000063e-05
5.73138744e-05
5.72777905e-05
5.72965111e-05
5.73481665e-05
5.7361819e-05
5.7325883e-05
5.73444128e-05
5.73951981e-05
5.74093571e-05
5.73729881e-05
5.7391568e-05
5.744091e-05
5.74564263e-05
5.74186436e-05
5.74378404e-05
5.7484731e-05
5.75025245e-05
5.74625141e-05
5.74819594e-05
5.75251643e-05
5.75443474e-05
5.7503627e-05
5.75257946e-05
5.75625765e-05
5.75866876e-05
5.75433806e-05
5.75686328e-05
5.75991628e-05
5.76269189e-05
5.75825337e-05
5.76102378e-05
5.76361511e-05
5.76658037e-05
5.76219917e-05
5.76504458e-05
5.76749263e-05
5.77037831e-05
5.76617955e-05
5.76898487e-05
5.77160492e-05
5.77418176e-05
5.77020297e-05
5.77281315e-05
5.77593991e-05
5.77816164e-05
5.77425835e-05
5.77667906e-05
5.78020739e-05
5.78182318e-05
5.7781347e-05
5.78027513e-05
5.78428639e-05
5.78533051e-05
5.78183623e-05
5.78382387e-05
5.78797266e-05
5.78878252e-05
5.78539331e-05
5.78732174e-05
5.79127766e-05
5.79219645e-05
5.78866713e-05
5.79078771e-05
5.7942962e-05
5.7953415e-05
5.79171865e-05
5.79416631e-05
5.79714625e-05
5.79838249e-05
5.79465166e-05
5.79739147e-05
5.79991904e-05
5.80130151e-05
5.7975352e-05
5.80044853e-05
5.80268762e-05
5.80409954e-05
5.80040926e-05
5.80335502e-05
5.80547509e-05
5.80678107e-05
5.8032723e-05
5.80610652e-05
5.80828939e-05
5.80934906e-05
5.80612512e-05
5.80871396e-05
5.81111319e-05
5.81181337e-05
5.80894043e-05
5.81121716e-05
5.81367613e-05
5.81417912e-05
5.81167786e-05
5.81363861e-05
5.81607118e-05
5.81645434e-05
5.81426909e-05
5.81597436e-05
5.81835077e-05
5.81864235e-05
5.81672008e-05
5.81822231e-05
5.82051819e-05
5.82074862e-05
5.81903612e-05
5.82039083e-05
5.82257637e-05
5.82278327e-05
5.82122516e-05
5.82249153e-05
5.82453017e-05
5.82472879e-05
5.82327283e-05
5.82450509e-05
5.82634731e-05
5.82658397e-05
5.82515517e-05
5.82646398e-05
5.82806183e-05
5.82835739e-05
5.82691451e-05
5.82828955e-05
5.82969748e-05
5.83003146e-05
5.82864829e-05
5.8299791e-05
5.83127037e-05
5.83160436e-05
5.8303127e-05
5.83157181e-05
5.83277397e-05
5.83308999e-05
5.83189369e-05
5.83307224e-05
5.83419389e-05
5.83449008e-05
5.83338613e-05
5.83449307e-05
5.83553296e-05
5.83581042e-05
5.83478807e-05
5.83583221e-05
5.83679493e-05
5.83705236e-05
5.83611296e-05
5.83708682e-05
5.83799119e-05
5.83821172e-05
5.83736933e-05
5.83823971e-05
5.83911937e-05
5.83930673e-05
5.83857478e-05
5.83934858e-05
5.84017663e-05
5.84032832e-05
5.83964831e-05
5.84038282e-05
5.84115784e-05
5.84127958e-05
5.84068436e-05
5.84131435e-05
5.84206941e-05
5.84216287e-05
5.84164895e-05
5.8422332e-05
5.84294408e-05
5.84299131e-05
5.84252622e-05
5.84306263e-05
5.84372229e-05
5.84376053e-05
5.84333917e-05
5.84381953e-05
5.8444452e-05
5.84447559e-05
5.84411634e-05
5.84452364e-05
5.84511528e-05
5.84513942e-05
5.84481287e-05
5.84516525e-05
5.8457136e-05
5.84575859e-05
5.8454583e-05
5.845785e-05
5.84629104e-05
5.84633087e-05
5.84605921e-05
5.84635613e-05
5.84682776e-05
5.84686322e-05
5.84661807e-05
5.84691503e-05
5.84734398e-05
5.8473569e-05
5.84712164e-05
5.84740769e-05
5.84782544e-05
5.84783584e-05
5.84764202e-05
5.84787339e-05
5.84837e-05
5.84835821e-05
5.84813092e-05
5.84835612e-05
5.84881293e-05
5.84895146e-05
5.84883685e-05
5.84899978e-05
5.8491176e-05
5.84927571e-05
5.84935653e-05
5.84951098e-05
5.84961714e-05
5.84977047e-05
5.84988828e-05
5.85004011e-05
5.85016708e-05
5.85031462e-05
5.85044916e-05
5.85058824e-05
5.85073023e-05
5.85087085e-05
5.85100165e-05
5.85113791e-05
5.85125561e-05
5.85138193e-05
5.85148419e-05
5.85159594e-05
5.85168049e-05
5.85177396e-05
5.85183962e-05
5.85191247e-05
5.85195965e-05
5.85201143e-05
5.85204217e-05
5.85207469e-05
5.85209232e-05
5.85210951e-05
5.85211799e-05
5.85212503e-05
5.85212832e-05
5.85213026e-05
5.8521319e-05
5.85212585e-05
5.85212092e-05
5.85211739e-05
5.85211514e-05
5.85211369e-05
5.85211288e-05
5.8521124e-05
5.85211218e-05
5.85211209e-05
5.85211205e-05
5.85211203e-05
5.85211203e-05
5.85211203e-05
5.85211203e-05
5.85211203e-05
5.85211203e-05
5.85211203e-05
5.85211203e-05
5.85211203e-05
5.85211203e-05
5.85211203e-05
5.85211203e-05
5.85211203e-05
5.85211203e-05
5.85211203e-05
5.85211203e-05
5.85211203e-05
5.85211203e-05
5.85211203e-05
5.85211203e-05
5.85211203e-05
5.85211203e-05
5.85211203e-05
5.85211203e-05
5.85211203e-05
5.85211203e-05
5.85211203e-05
)
;

boundaryField
{
    closed
    {
        type            calculated;
        value           nonuniform List<scalar> 0();
    }
    open
    {
        type            calculated;
        value           uniform 5.85211203e-05;
    }
    sides
    {
        type            empty;
    }
    procBoundary5to4
    {
        type            processor;
        value           uniform 5.36731541e-05;
    }
}


// ************************************************************************* //
