/*--------------------------------*- C++ -*----------------------------------*\
| =========                 |                                                 |
| \\      /  F ield         | OpenFOAM: The Open Source CFD Toolbox           |
|  \\    /   O peration     | Version:  2306                                  |
|   \\  /    A nd           | Website:  www.openfoam.com                      |
|    \\/     M anipulation  |                                                 |
\*---------------------------------------------------------------------------*/
FoamFile
{
    version     2.0;
    format      ascii;
    arch        "LSB;label=32;scalar=64";
    class       volScalarField;
    location    "0.00156";
    object      prefDh_H2O;
}
// * * * * * * * * * * * * * * * * * * * * * * * * * * * * * * * * * * * * * //

dimensions      [1 1 -3 0 0 0 0];

internalField   nonuniform List<scalar> 
530
(
-198.269175
-197.29719
-202.580522
-202.621513
-198.565219
-198.035397
-202.797628
-202.825779
-198.818142
-198.73323
-202.980074
-203.011957
-198.973005
-199.422837
-203.134147
-203.174693
-199.088541
-199.981711
-203.290435
-203.338111
-199.349979
-200.346715
-203.43951
-203.482867
-199.660557
-200.650193
-203.588201
-203.618909
-199.942083
-200.910605
-203.730612
-203.75384
-200.195501
-201.16168
-203.867383
-203.888271
-200.423472
-201.386655
-203.999255
-204.020525
-200.637395
-201.585261
-204.126879
-204.149766
-200.84413
-201.762423
-204.247475
-204.273536
-201.076094
-201.921011
-204.353046
-204.34639
-201.305228
-202.067741
-204.453646
-204.417698
-201.447851
-202.213812
-204.547883
-204.547346
-201.58857
-202.331998
-204.63834
-204.701084
-201.731329
-202.403458
-204.727824
-204.789264
-201.871477
-202.486467
-204.817839
-204.875817
-202.00785
-202.583806
-204.908074
-204.963229
-202.139493
-202.68953
-204.99655
-205.048024
-202.269457
-202.801074
-205.08093
-205.130866
-202.384558
-202.916482
-205.17017
-205.213
-202.499398
-203.028521
-205.261004
-205.29952
-202.644364
-203.140182
-205.353581
-205.388915
-202.783429
-203.276669
-205.446713
-205.480666
-202.917755
-203.412753
-205.539869
-205.573532
-203.04953
-203.544708
-205.631692
-205.666122
-203.181109
-203.673266
-205.72151
-205.755773
-203.309984
-203.798669
-205.808977
-205.844186
-203.437425
-203.92197
-205.896562
-205.933143
-203.565967
-204.043647
-205.984083
-206.022283
-203.686333
-204.166128
-206.072019
-206.11106
-203.802082
-204.283315
-206.160671
-206.20069
-203.917085
-204.399265
-206.250192
-206.291148
-204.031947
-204.515352
-206.340691
-206.38248
-204.148026
-204.631277
-206.429406
-206.470981
-204.260932
-204.752496
-206.518224
-206.559284
-204.377999
-204.872671
-206.606538
-206.649353
-204.486793
-204.993316
-206.701654
-206.739502
-204.611557
-205.103421
-206.799695
-206.835561
-204.75351
-205.225678
-206.901715
-206.933557
-204.896569
-205.352631
-207.004306
-207.033232
-205.041273
-205.47517
-207.105829
-207.131438
-205.18707
-205.594594
-207.20444
-207.227235
-205.333968
-205.711963
-207.303528
-207.323455
-205.480038
-205.829211
-207.403091
-207.419977
-205.628414
-205.947545
-207.496008
-207.516114
-205.755059
-206.076661
-207.582719
-207.605154
-205.846062
-206.169403
-207.666402
-207.690389
-205.938622
-206.25637
-207.749157
-207.773352
-206.032098
-206.346535
-207.829826
-207.852986
-206.126676
-206.439085
-207.907929
-207.930744
-206.220148
-206.533084
-207.985054
-208.007209
-206.311129
-206.626627
-208.061016
-208.08263
-206.399976
-206.719088
-208.13542
-208.156884
-206.485895
-206.811417
-208.210099
-208.230386
-206.573789
-206.900562
-208.284925
-208.30483
-206.670719
-206.996489
-208.359601
-208.378886
-206.761309
-207.097574
-208.432359
-208.452476
-206.85125
-207.195268
-208.503434
-208.523206
-206.943402
-207.288235
-208.571178
-208.590518
-207.037938
-207.37866
-208.638196
-208.655431
-207.135223
-207.468788
-208.701893
-208.718777
-207.233752
-207.56046
-208.763812
-208.781227
-207.326306
-207.654074
-208.823748
-208.842703
-207.408066
-207.748147
-208.881034
-208.902611
-207.473295
-207.820393
-208.933908
-208.957003
-207.510182
-207.899999
-208.982776
-209.011719
-207.542944
-207.981363
-209.030334
-209.063529
-207.583982
-208.055628
-209.07802
-209.113403
-207.646501
-208.121386
-209.127476
-209.161829
-207.73409
-208.190439
-209.179319
-209.20905
-207.847177
-208.259564
-209.231427
-209.256862
-207.982182
-208.347362
-209.282184
-209.300747
-208.10549
-208.411332
-209.330523
-209.342597
-208.215313
-208.481878
-209.374122
-209.383559
-208.303097
-208.557502
-209.413185
-209.423871
-208.365209
-208.640172
-209.448796
-209.46091
-208.411778
-208.723715
-209.482303
-209.496565
-208.455182
-208.799288
-209.514735
-209.530622
-208.504892
-208.866771
-209.546918
-209.563105
-208.565774
-208.927806
-209.579098
-209.594087
-208.638793
-208.982255
-209.611369
-209.6236
-208.722465
-209.031543
-209.643561
-209.651775
-208.811987
-209.079934
-209.672664
-209.678691
-208.903506
-209.129862
-209.699771
-209.704451
-208.984213
-209.180138
-209.725457
-209.729098
-209.058145
-209.230264
-209.749766
-209.752707
-209.126136
-209.280918
-209.772737
-209.775398
-209.188844
-209.333262
-209.794436
-209.796984
-209.244493
-209.385124
-209.814527
-209.817474
-209.290199
-209.439384
-209.833382
-209.83697
-209.330773
-209.487439
-209.851285
-209.855265
-209.376686
-209.528509
-209.868424
-209.87237
-209.423191
-209.566808
-209.884721
-209.888447
-209.468273
-209.602553
-209.899844
-209.903167
-209.510981
-209.637004
-209.913662
-209.916775
-209.550979
-209.669719
-209.92662
-209.929512
-209.58942
-209.69997
-209.938846
-209.941343
-209.627127
-209.725752
-209.950327
-209.952461
-209.665472
-209.753047
-209.96103
-209.962795
-209.695512
-209.778258
-209.970912
-209.972359
-209.727236
-209.798106
-209.980056
-209.98119
-209.756632
-209.822018
-209.988791
-209.989435
-209.781669
-209.841614
-209.99651
-209.997047
-209.804696
-209.858257
-210.003647
-210.004081
-209.828551
-209.873932
-210.010225
-210.010581
-209.848172
-209.887455
-210.016049
-210.01661
-209.866514
-209.90279
-210.02165
-210.022149
-209.884045
-209.916822
-210.026828
-210.027271
-209.900878
-209.933276
-210.031785
-210.03199
-209.915421
-209.946043
-210.036383
-210.036543
-209.935801
-209.959381
-210.041622
-210.041514
-209.956934
-209.978282
-210.019066
-210.028719
-210.001354
-210.011475
-210.012087
-210.020349
-210.016099
-210.022847
-210.021144
-210.026955
-210.026205
-210.031367
-210.03132
-210.036113
-210.036383
-210.041112
-210.041303
-210.04637
-210.046244
-210.051347
-210.051081
-210.055932
-210.05566
-210.060036
-210.059846
-210.063577
-210.063528
-210.066506
-210.066626
-210.068825
-210.069102
-210.070587
-210.070965
-210.071888
-210.072289
-210.072835
-210.073204
-210.073536
-210.07389
-210.073806
-210.073741
-210.073696
-210.073668
-210.073651
-210.073641
-210.073636
-210.073633
-210.073632
-210.073632
-210.073632
-210.073632
-210.073632
-210.073632
-210.073632
-210.073632
-210.073632
-210.073632
-210.073632
-210.073632
-210.073632
-210.073632
-210.073632
-210.073632
-210.073632
-210.073632
-210.073632
-210.073632
-210.073632
-210.073632
-210.073632
-210.073632
-210.073632
-210.073632
-210.073632
-210.073632
-210.073632
)
;

boundaryField
{
    closed
    {
        type            calculated;
        value           nonuniform List<scalar> 0();
    }
    open
    {
        type            calculated;
        value           uniform -210.073632;
    }
    sides
    {
        type            empty;
    }
    procBoundary5to4
    {
        type            processor;
        value           uniform -202.399548;
    }
}


// ************************************************************************* //
