/*--------------------------------*- C++ -*----------------------------------*\
| =========                 |                                                 |
| \\      /  F ield         | OpenFOAM: The Open Source CFD Toolbox           |
|  \\    /   O peration     | Version:  2306                                  |
|   \\  /    A nd           | Website:  www.openfoam.com                      |
|    \\/     M anipulation  |                                                 |
\*---------------------------------------------------------------------------*/
FoamFile
{
    version     2.0;
    format      ascii;
    arch        "LSB;label=32;scalar=64";
    class       volScalarField;
    location    "0.00156";
    object      prefDZ_H;
}
// * * * * * * * * * * * * * * * * * * * * * * * * * * * * * * * * * * * * * //

dimensions      [1 -1 -1 0 0 0 0];

internalField   nonuniform List<scalar> 
530
(
0.000342580934
0.000342910054
0.000344744054
0.000344873646
0.000343327606
0.000343618617
0.000345423627
0.00034551343
0.000344002897
0.000344275181
0.00034599736
0.000346098698
0.000344587779
0.000344917683
0.000346483548
0.000346612015
0.000345105753
0.000345508658
0.000346977743
0.000347128594
0.000345647168
0.000346013376
0.000347458694
0.000347600099
0.000346194533
0.000346492201
0.000347946239
0.000348046552
0.000346707863
0.000346955564
0.000348414242
0.00034849025
0.00034719268
0.000347430829
0.000348864542
0.000348933212
0.000347654885
0.000347890742
0.000349299917
0.000349371008
0.000348101363
0.000348334169
0.00034972199
0.000349798709
0.000348538532
0.000348762329
0.000350120985
0.000350211241
0.000348974803
0.000349178108
0.000350482316
0.000350564039
0.000349410756
0.000349584864
0.00035082743
0.00035091111
0.000349755635
0.000349987009
0.00035115118
0.000351287818
0.000350095591
0.000350354103
0.00035146173
0.000351675014
0.000350433037
0.000350669007
0.000351768518
0.000351977679
0.000350765571
0.000350986009
0.000352076665
0.000352274349
0.000351092536
0.000351306481
0.000352385113
0.000352573476
0.000351414269
0.000351626963
0.00035268962
0.000352870463
0.000351732246
0.000351946487
0.000352989716
0.000353165459
0.000352041191
0.000352264828
0.00035330649
0.000353457447
0.000352352099
0.000352579068
0.000353628439
0.000353764428
0.000352696926
0.000352896275
0.00035395612
0.000354081101
0.000353036874
0.000353240139
0.000354285368
0.00035440568
0.000353373435
0.000353582583
0.000354614314
0.000354733806
0.000353709464
0.000353921909
0.00035493815
0.000355060577
0.00035404573
0.000354259461
0.000355259996
0.000355385541
0.000354383556
0.000354596256
0.000355581163
0.000355710412
0.000354722406
0.000354933289
0.000355902377
0.000356036925
0.000355063191
0.000355271395
0.000356222998
0.000356363773
0.000355399989
0.000355610895
0.000356544812
0.000356688988
0.000355735847
0.000355949578
0.000356868978
0.000357017077
0.000356073736
0.00035628994
0.000357196108
0.00035734801
0.000356413946
0.000356632765
0.000357526664
0.000357682006
0.000356757135
0.000356978012
0.00035785872
0.0003580181
0.000357101376
0.000357329021
0.000358197019
0.000358354802
0.000357450031
0.000357682421
0.000358533298
0.000358698201
0.000357797202
0.000358039546
0.000358895677
0.00035904188
0.000358164395
0.00035839486
0.000359269447
0.000359408382
0.000358554528
0.000358770709
0.000359658839
0.000359782534
0.00035894866
0.000359156196
0.000360050788
0.000360163465
0.000359344269
0.000359541472
0.000360442185
0.000360545254
0.000359743827
0.00035992762
0.000360835526
0.000360927541
0.000360146159
0.00036031513
0.000361231262
0.000361311942
0.000360549787
0.000360704098
0.000361629455
0.000361698075
0.000360955805
0.000361093837
0.000362001333
0.000362083257
0.000361336742
0.000361487743
0.000362348498
0.000362440252
0.000361681961
0.000361837279
0.000362683817
0.000362782248
0.00036202683
0.000362181543
0.000363015917
0.000363115485
0.000362369996
0.000362526355
0.000363347003
0.000363445575
0.00036271102
0.000362870022
0.000363675027
0.000363772384
0.000363048323
0.000363210757
0.000363999515
0.000364094305
0.000363380772
0.000363547864
0.000364319713
0.000364412442
0.000363708265
0.000363880334
0.000364633954
0.000364726289
0.000364030276
0.0003642086
0.00036495007
0.000365037653
0.000364354574
0.000364531056
0.000365267613
0.000365353844
0.000364684271
0.000364861331
0.000365585428
0.000365669209
0.000365004769
0.00036519061
0.000365895854
0.000365983499
0.000365319649
0.000365512387
0.000366202014
0.000366291361
0.00036563126
0.000365826104
0.000366504785
0.000366592487
0.000365939578
0.000366133358
0.000366805949
0.000366888207
0.00036624475
0.000366435398
0.00036709905
0.000367179977
0.000366545357
0.000366733263
0.000367385009
0.000367468864
0.000366838611
0.000367027161
0.000367662736
0.000367754504
0.000367120647
0.00036731595
0.000367928892
0.000368033962
0.000367388082
0.000367586785
0.000368174702
0.000368287798
0.000367632309
0.000367857476
0.000368402208
0.000368544357
0.000367867868
0.000368122742
0.000368624429
0.000368788017
0.000368101835
0.000368380412
0.000368848552
0.00036902335
0.000368342836
0.00036862811
0.00036908274
0.000369252878
0.000368592068
0.000368872148
0.00036933026
0.000369482213
0.000368850193
0.000369109836
0.000369590383
0.000369721497
0.000369115626
0.000369355126
0.000369846059
0.000369941656
0.000369367697
0.000369577769
0.000370090373
0.00037015237
0.000369606159
0.000369799599
0.000370311228
0.000370359503
0.000369833454
0.000370019967
0.000370509372
0.000370564153
0.00037003685
0.00037024054
0.000370690365
0.000370752658
0.000370222788
0.000370456288
0.000370861162
0.000370934769
0.000370400962
0.000370660828
0.000371027135
0.000371109394
0.000370578208
0.000370853315
0.000371192598
0.000371276601
0.000370758304
0.000371035263
0.000371358892
0.000371436683
0.00037094148
0.000371206385
0.000371526506
0.000371589801
0.000371127325
0.000371367734
0.000371694465
0.000371736564
0.000371312766
0.000371522868
0.000371846808
0.000371877304
0.000371494291
0.000371673801
0.000371989104
0.000372012512
0.000371664173
0.000371819955
0.000372124415
0.000372142385
0.000371824028
0.000371961073
0.000372252941
0.000372267267
0.000371974408
0.000372097843
0.000372374853
0.000372387759
0.000372115969
0.000372231271
0.000372490453
0.000372502836
0.000372247355
0.000372359594
0.000372597859
0.000372612456
0.000372366427
0.000372485554
0.000372699065
0.000372717134
0.000372476993
0.000372602171
0.000372795509
0.000372815798
0.000372587737
0.00037270897
0.000372888152
0.000372908391
0.00037269474
0.000372809442
0.000372976598
0.000372995741
0.000372796592
0.000372903915
0.000373060005
0.000373077936
0.000372892718
0.000372993493
0.000373138534
0.000373155339
0.000372982912
0.000373077925
0.000373212442
0.000373228049
0.000373068282
0.000373156835
0.000373282413
0.000373295827
0.000373149569
0.000373228635
0.000373348323
0.000373359752
0.000373228187
0.000373298416
0.000373409995
0.00037341933
0.000373296831
0.000373363363
0.000373467145
0.000373474704
0.000373363875
0.000373420884
0.00037352018
0.000373526034
0.000373426188
0.000373478955
0.000373571005
0.000373574111
0.000373482258
0.000373530675
0.000373616126
0.000373618675
0.000373534102
0.00037357742
0.00037365798
0.000373660023
0.000373584197
0.000373620912
0.000373696708
0.000373698353
0.000373628478
0.000373660239
0.000373731192
0.000373734044
0.000373669515
0.000373698913
0.000373764438
0.000373766967
0.000373707823
0.000373734471
0.000373795285
0.000373797536
0.000373743581
0.00037377011
0.000373824913
0.000373825825
0.00037377557
0.000373800924
0.000373852497
0.000373853219
0.000373810373
0.000373830486
0.000373883782
0.000373883115
0.000373843912
0.000373862967
0.000373900968
0.000373911617
0.000373896437
0.000373908513
0.000373914992
0.000373926184
0.00037392908
0.00037393956
0.000373944638
0.00037395473
0.000373960726
0.000373970503
0.000373977197
0.0003739866
0.000373993774
0.000374002675
0.000374010191
0.000374019254
0.000374026034
0.00037403484
0.000374040841
0.000374049001
0.000374054146
0.00037406134
0.000374065544
0.000374071529
0.00037407476
0.000374079388
0.000374081694
0.000374084948
0.00037408645
0.000374088465
0.000374089338
0.000374090389
0.000374090828
0.00037409126
0.000374091459
0.000374091594
0.000374091742
0.000374091338
0.000374091018
0.000374090791
0.000374090648
0.000374090558
0.000374090507
0.000374090478
0.000374090464
0.000374090459
0.000374090456
0.000374090456
0.000374090455
0.000374090455
0.000374090455
0.000374090455
0.000374090455
0.000374090455
0.000374090455
0.000374090455
0.000374090455
0.000374090455
0.000374090455
0.000374090455
0.000374090455
0.000374090455
0.000374090455
0.000374090455
0.000374090455
0.000374090455
0.000374090455
0.000374090455
0.000374090455
0.000374090455
0.000374090455
0.000374090455
0.000374090455
0.000374090455
)
;

boundaryField
{
    closed
    {
        type            calculated;
        value           nonuniform List<scalar> 0();
    }
    open
    {
        type            calculated;
        value           uniform 0.000374090455;
    }
    sides
    {
        type            empty;
    }
    procBoundary5to4
    {
        type            processor;
        value           uniform 0.000344181057;
    }
}


// ************************************************************************* //
