/*--------------------------------*- C++ -*----------------------------------*\
| =========                 |                                                 |
| \\      /  F ield         | OpenFOAM: The Open Source CFD Toolbox           |
|  \\    /   O peration     | Version:  2306                                  |
|   \\  /    A nd           | Website:  www.openfoam.com                      |
|    \\/     M anipulation  |                                                 |
\*---------------------------------------------------------------------------*/
FoamFile
{
    version     2.0;
    format      ascii;
    arch        "LSB;label=32;scalar=64";
    class       volScalarField;
    location    "0.00056";
    object      prefDPV_H2;
}
// * * * * * * * * * * * * * * * * * * * * * * * * * * * * * * * * * * * * * //

dimensions      [1 -1 -1 0 0 0 0];

internalField   nonuniform List<scalar> 
531
(
-3.15347002e-05
-3.1326134e-05
-3.08086879e-05
-3.09136073e-05
-3.15737094e-05
-3.15440989e-05
-3.08037087e-05
-3.0521842e-05
-3.09043667e-05
-3.15405602e-05
-3.13738496e-05
-3.08773868e-05
-3.09173472e-05
-3.15764893e-05
-3.15488337e-05
-3.0905192e-05
-3.07153698e-05
-3.07563516e-05
-3.06474786e-05
-3.09116696e-05
-3.15403985e-05
-3.1445824e-05
-3.08467569e-05
-3.09424126e-05
-3.15701567e-05
-3.15212597e-05
-3.0756627e-05
-3.03882563e-05
-3.09094224e-05
-3.15178913e-05
-3.14127353e-05
-3.06986707e-05
-3.09615205e-05
-3.15425979e-05
-3.13652761e-05
-3.07078293e-05
-3.09557125e-05
-3.15578762e-05
-3.15249568e-05
-3.07311424e-05
-3.0362176e-05
-3.0926417e-05
-3.15097428e-05
-3.1442586e-05
-3.07161026e-05
-3.09646926e-05
-3.15478248e-05
-3.1526016e-05
-3.07496927e-05
-3.03711712e-05
-3.09321143e-05
-3.15058935e-05
-3.14839059e-05
-3.06906348e-05
-3.08977563e-05
-3.15322913e-05
-3.14427376e-05
-3.06998073e-05
-3.08998134e-05
-3.15507482e-05
-3.15305227e-05
-3.07411333e-05
-3.03551998e-05
-3.09346099e-05
-3.1506382e-05
-3.15095888e-05
-3.06741455e-05
-3.08308058e-05
-3.1532056e-05
-3.1494431e-05
-3.06882988e-05
-3.08474962e-05
-3.15527192e-05
-3.15335167e-05
-3.07528454e-05
-3.03793826e-05
-3.09304272e-05
-3.15096643e-05
-3.15211544e-05
-3.06665158e-05
-3.07654427e-05
-3.15351336e-05
-3.15414583e-05
-3.07070961e-05
-3.08037817e-05
-3.15564634e-05
-3.15368441e-05
-3.08001564e-05
-3.04264895e-05
-3.0911103e-05
-3.15203997e-05
-3.15787233e-05
-3.07493736e-05
-3.08042051e-05
-3.15582739e-05
-3.15418054e-05
-3.08415728e-05
-3.04512273e-05
-3.09038066e-05
-3.15222179e-05
-3.15825036e-05
-3.07844983e-05
-3.0808361e-05
-3.15612447e-05
-3.15497284e-05
-3.08975267e-05
-3.05052304e-05
-3.0898508e-05
-3.15368145e-05
-3.15590524e-05
-3.09046477e-05
-3.05226081e-05
-3.09029456e-05
-3.15362889e-05
-3.15579913e-05
-3.09033014e-05
-3.0522742e-05
-3.09066836e-05
-3.15345126e-05
-3.15557092e-05
-3.09008064e-05
-3.04918563e-05
-3.08378361e-05
-3.15214043e-05
-3.15748305e-05
-3.08774844e-05
-3.083381e-05
-3.15334135e-05
-3.15489846e-05
-3.08908252e-05
-3.04554723e-05
-3.07834039e-05
-3.15221241e-05
-3.15779356e-05
-3.08939236e-05
-3.08410826e-05
-3.15329052e-05
-3.15527131e-05
-3.08870752e-05
-3.05571292e-05
-3.08971965e-05
-3.15260669e-05
-3.15737755e-05
-3.09090893e-05
-3.07136011e-05
-3.06330962e-05
-3.08154603e-05
-3.15481157e-05
-3.15452527e-05
-3.0890942e-05
-3.06011439e-05
-3.08727353e-05
-3.15339887e-05
-3.15802593e-05
-3.09036003e-05
-3.0830886e-05
-3.15479015e-05
-3.15463872e-05
-3.08916311e-05
-3.04334298e-05
-3.07217824e-05
-3.15318241e-05
-3.15743628e-05
-3.08385173e-05
-3.07731359e-05
-3.15553699e-05
-3.1540623e-05
-3.08951147e-05
-3.04342056e-05
-3.07367232e-05
-3.15360761e-05
-3.15745454e-05
-3.08453256e-05
-3.07932363e-05
-3.15621386e-05
-3.15398809e-05
-3.08966375e-05
-3.05035581e-05
-3.08362768e-05
-3.15508494e-05
-3.15477952e-05
-3.09049716e-05
-3.05238286e-05
-3.08400968e-05
-3.15495295e-05
-3.15390837e-05
-3.09074972e-05
-3.04579782e-05
-3.0743141e-05
-3.15264035e-05
-3.15627057e-05
-3.07820395e-05
-3.07104068e-05
-3.15271193e-05
-3.1548919e-05
-3.07352886e-05
-3.06651997e-05
-3.15236178e-05
-3.15466227e-05
-3.06779032e-05
-3.06262477e-05
-3.15314117e-05
-3.15196007e-05
-3.09107806e-05
-3.04309788e-05
-3.07526883e-05
-3.15141258e-05
-3.15669538e-05
-3.08514009e-05
-3.07725393e-05
-3.15203619e-05
-3.1529981e-05
-3.0904221e-05
-3.04240046e-05
-3.06932619e-05
-3.15058841e-05
-3.15708543e-05
-3.088549e-05
-3.07875815e-05
-3.14966007e-05
-3.15352083e-05
-3.08970144e-05
-3.04771334e-05
-3.07492417e-05
-3.1489954e-05
-3.15752216e-05
-3.09164862e-05
-3.08284068e-05
-3.14588941e-05
-3.15366687e-05
-3.08984243e-05
-3.05521835e-05
-3.08031605e-05
-3.14706416e-05
-3.15647232e-05
-3.09125123e-05
-3.07046961e-05
-3.06163844e-05
-3.07662972e-05
-3.14700558e-05
-3.1540407e-05
-3.08982767e-05
-3.05717337e-05
-3.09081121e-05
-3.14376847e-05
-3.14808546e-05
-3.0849114e-05
-3.0727844e-05
-3.13042195e-05
-3.15094805e-05
-3.09049293e-05
-3.07040845e-05
-3.12665098e-05
-3.14655778e-05
-3.09062543e-05
-3.07900498e-05
-3.13031673e-05
-3.14011058e-05
-3.08757487e-05
-3.07969163e-05
-3.13003268e-05
-3.15113479e-05
-3.08734915e-05
-3.05081885e-05
-3.0878045e-05
-3.14266779e-05
-3.12606591e-05
-3.08096215e-05
-3.05717669e-05
-3.09319447e-05
-3.1472612e-05
-3.094959e-05
-3.07766304e-05
-3.09101022e-05
-3.14478141e-05
-3.11871555e-05
-3.08221472e-05
-3.05840219e-05
-3.09320739e-05
-3.14745127e-05
-3.09647147e-05
-3.08285267e-05
-3.09122407e-05
-3.14511335e-05
-3.11696277e-05
-3.08476862e-05
-3.06188932e-05
-3.09243935e-05
-3.14532201e-05
-3.11846058e-05
-3.08542242e-05
-3.0597142e-05
-3.09032343e-05
-3.14405735e-05
-3.1197703e-05
-3.08389608e-05
-3.05256944e-05
-3.08734848e-05
-3.14318855e-05
-3.10299913e-05
-3.07827387e-05
-3.08712155e-05
-3.14261075e-05
-3.10035785e-05
-3.08174091e-05
-3.08765833e-05
-3.14239251e-05
-3.12609582e-05
-3.09032233e-05
-3.0599151e-05
-3.08793603e-05
-3.14340333e-05
-3.12900819e-05
-3.09034175e-05
-3.05846087e-05
-3.08804642e-05
-3.14455174e-05
-3.10553425e-05
-3.08694765e-05
-3.08765285e-05
-3.14287321e-05
-3.13444318e-05
-3.0902006e-05
-3.06075626e-05
-3.08747131e-05
-3.14352673e-05
-3.133211e-05
-3.09103705e-05
-3.0670237e-05
-3.09440415e-05
-3.14735245e-05
-3.10310987e-05
-3.08092757e-05
-3.08860015e-05
-3.1420614e-05
-3.14126607e-05
-3.08977684e-05
-3.06137871e-05
-3.0877876e-05
-3.14334266e-05
-3.14140262e-05
-3.08973459e-05
-3.05541683e-05
-3.087517e-05
-3.1417295e-05
-3.12490256e-05
-3.07837608e-05
-3.08062296e-05
-3.13765211e-05
-3.14216157e-05
-3.08987192e-05
-3.06160827e-05
-3.08893081e-05
-3.14494955e-05
-3.1206589e-05
-3.0912839e-05
-3.09055963e-05
-3.14498552e-05
-3.14435555e-05
-3.08967885e-05
-3.05703028e-05
-3.08837051e-05
-3.14496614e-05
-3.14492246e-05
-3.08968707e-05
-3.05795733e-05
-3.08822086e-05
-3.1461128e-05
-3.12867862e-05
-3.09369419e-05
-3.09129004e-05
-3.14612848e-05
-3.14614917e-05
-3.09034441e-05
-3.06226335e-05
-3.08968602e-05
-3.14670509e-05
-3.14341239e-05
-3.09067669e-05
-3.06393557e-05
-3.05203957e-05
-3.08642265e-05
-3.13824572e-05
-3.15636432e-05
-3.1351383e-05
-3.08804061e-05
-3.05616951e-05
-3.08901362e-05
-3.14641608e-05
-3.14631855e-05
-3.08991035e-05
-3.05951534e-05
-3.08928202e-05
-3.14662743e-05
-3.14513329e-05
-3.08971188e-05
-3.05321601e-05
-3.08828702e-05
-3.14667796e-05
-3.12393241e-05
-3.08785275e-05
-3.091331e-05
-3.14756169e-05
-3.14305755e-05
-3.08935244e-05
-3.05129922e-05
-3.08815952e-05
-3.14716124e-05
-3.11803204e-05
-3.08738059e-05
-3.09051327e-05
-3.14791519e-05
-3.13992123e-05
-3.08525497e-05
-3.05096456e-05
-3.08872562e-05
-3.14782136e-05
-3.10853214e-05
-3.08412422e-05
-3.08962287e-05
-3.14794513e-05
-3.13269634e-05
-3.07734102e-05
-3.05299346e-05
-3.09579066e-05
-3.14953636e-05
-3.09514354e-05
-3.07666131e-05
-3.09005525e-05
-3.14831434e-05
-3.12253592e-05
-3.06751206e-05
-3.05407147e-05
-3.10972113e-05
-3.15232546e-05
-3.09189732e-05
-3.08213209e-05
-3.09252487e-05
-3.15044538e-05
-3.15122228e-05
-3.08970752e-05
-3.08007622e-05
-3.07472246e-05
-3.06127745e-05
-3.09083587e-05
-3.14689321e-05
-3.15017644e-05
-3.09130485e-05
-3.0831737e-05
-3.14102274e-05
-3.15234918e-05
-3.09234674e-05
-3.07400178e-05
-3.14095366e-05
-3.15192431e-05
-3.09092431e-05
-3.04955615e-05
-3.09154671e-05
-3.14572546e-05
-3.14086697e-05
-3.0727798e-05
-3.0818116e-05
-3.14591442e-05
-3.12722024e-05
-3.07210051e-05
-3.09252566e-05
-3.14837439e-05
-3.15381313e-05
-3.08864286e-05
-3.04647933e-05
-3.09008706e-05
-3.1450564e-05
-3.12188009e-05
-3.07140198e-05
-3.08938058e-05
-3.14730047e-05
-3.11289581e-05
-3.07232669e-05
-3.0907207e-05
-3.14896123e-05
-3.15307589e-05
-3.08840686e-05
-3.04696066e-05
-3.09096948e-05
-3.14377985e-05
-3.15071035e-05
-3.07901382e-05
-3.06152812e-05
-3.1359857e-05
-3.12219805e-05
-3.070736e-05
-3.09016014e-05
-3.14856442e-05
-3.15455526e-05
-3.08845259e-05
-3.0523656e-05
-3.08972744e-05
-3.14713004e-05
-3.15369691e-05
-3.08883288e-05
-3.05065083e-05
-3.08980413e-05
-3.14714643e-05
-3.1535248e-05
-3.08875899e-05
-3.0507529e-05
-3.08951861e-05
-3.1473443e-05
-3.15383493e-05
-3.0886439e-05
-3.05208939e-05
-3.08927083e-05
-3.14757036e-05
-3.15422993e-05
-3.0885006e-05
-3.05309661e-05
-3.08908993e-05
-3.14779058e-05
-3.15457383e-05
-3.08828542e-05
-3.05315061e-05
-3.08896427e-05
-3.14794326e-05
-3.15486988e-05
-3.08801479e-05
-3.05278026e-05
-3.08873764e-05
-3.14799393e-05
-3.15549976e-05
-3.08784085e-05
-3.05392054e-05
)
;

boundaryField
{
    closed
    {
        type            calculated;
        value           nonuniform List<scalar> 0();
    }
    open
    {
        type            calculated;
        value           nonuniform List<scalar> 0();
    }
    sides
    {
        type            empty;
    }
    procBoundary1to0
    {
        type            processor;
        value           uniform -3.08932386e-05;
    }
    procBoundary1to2
    {
        type            processor;
        value           uniform -3.08862003e-05;
    }
}


// ************************************************************************* //
