/*--------------------------------*- C++ -*----------------------------------*\
| =========                 |                                                 |
| \\      /  F ield         | OpenFOAM: The Open Source CFD Toolbox           |
|  \\    /   O peration     | Version:  2306                                  |
|   \\  /    A nd           | Website:  www.openfoam.com                      |
|    \\/     M anipulation  |                                                 |
\*---------------------------------------------------------------------------*/
FoamFile
{
    version     2.0;
    format      ascii;
    arch        "LSB;label=32;scalar=64";
    class       volScalarField;
    location    "0.00018";
    object      prefDZ_H2O;
}
// * * * * * * * * * * * * * * * * * * * * * * * * * * * * * * * * * * * * * //

dimensions      [1 -1 -1 0 0 0 0];

internalField   nonuniform List<scalar> 
531
(
-7.52081092e-07
-7.52079575e-07
-7.52079068e-07
-7.52079967e-07
-7.52080751e-07
-7.5208038e-07
-7.52079526e-07
-7.52079593e-07
-7.52080293e-07
-7.52080359e-07
-7.52079946e-07
-7.52079789e-07
-7.52079992e-07
-7.52080161e-07
-7.52080093e-07
-7.52079958e-07
-7.52079963e-07
-7.52080016e-07
-7.52080048e-07
-7.52080063e-07
-7.52080034e-07
-7.52079963e-07
-7.52079981e-07
-7.52080094e-07
-7.52080082e-07
-7.52079928e-07
-7.52079935e-07
-7.52080139e-07
-7.52080138e-07
-7.5207989e-07
-7.52079874e-07
-7.52080148e-07
-7.52080191e-07
-7.52079921e-07
-7.52079844e-07
-7.52080076e-07
-7.52080185e-07
-7.52080027e-07
-7.52079897e-07
-7.5207995e-07
-7.52080085e-07
-7.52080093e-07
-7.5208008e-07
-7.52079978e-07
-7.52079868e-07
-7.52079988e-07
-7.52080245e-07
-7.52080158e-07
-7.52079765e-07
-7.52079793e-07
-7.52080266e-07
-7.52080278e-07
-7.5207985e-07
-7.52079782e-07
-7.52080116e-07
-7.52080215e-07
-7.5207999e-07
-7.52079882e-07
-7.52080006e-07
-7.52080112e-07
-7.52080081e-07
-7.52079973e-07
-7.52079947e-07
-7.52079991e-07
-7.52080112e-07
-7.52080115e-07
-7.52079953e-07
-7.52079877e-07
-7.52080025e-07
-7.52080193e-07
-7.52080131e-07
-7.52079856e-07
-7.52079851e-07
-7.52080085e-07
-7.52080207e-07
-7.52080087e-07
-7.52079858e-07
-7.5207988e-07
-7.52080129e-07
-7.52080157e-07
-7.52079977e-07
-7.52079923e-07
-7.52080052e-07
-7.52080093e-07
-7.52079957e-07
-7.52079931e-07
-7.52080138e-07
-7.52080181e-07
-7.5207989e-07
-7.52079772e-07
-7.52080087e-07
-7.5208034e-07
-7.52080108e-07
-7.52079689e-07
-7.52079757e-07
-7.52080297e-07
-7.52080358e-07
-7.52079922e-07
-7.52079674e-07
-7.52079943e-07
-7.52080339e-07
-7.52080233e-07
-7.52079753e-07
-7.52079767e-07
-7.52080205e-07
-7.52080263e-07
-7.52079927e-07
-7.52079809e-07
-7.52080046e-07
-7.52080195e-07
-7.5208005e-07
-7.52079895e-07
-7.52079956e-07
-7.52080094e-07
-7.52080088e-07
-7.52080017e-07
-7.52079982e-07
-7.52079984e-07
-7.52080009e-07
-7.52080062e-07
-7.52080072e-07
-7.52080019e-07
-7.52079961e-07
-7.52079974e-07
-7.52080064e-07
-7.52080089e-07
-7.52080026e-07
-7.52079957e-07
-7.52079983e-07
-7.52080067e-07
-7.52080062e-07
-7.5208e-07
-7.52080002e-07
-7.5208003e-07
-7.52080022e-07
-7.52079996e-07
-7.52080024e-07
-7.52080076e-07
-7.52080058e-07
-7.52079943e-07
-7.52079933e-07
-7.52080058e-07
-7.52080161e-07
-7.52080105e-07
-7.52079842e-07
-7.52079826e-07
-7.52080146e-07
-7.52080308e-07
-7.52080031e-07
-7.52079682e-07
-7.52079838e-07
-7.52080365e-07
-7.52080334e-07
-7.52079751e-07
-7.52079666e-07
-7.52080152e-07
-7.52080373e-07
-7.52080026e-07
-7.52079709e-07
-7.52079916e-07
-7.5208027e-07
-7.52080184e-07
-7.52079842e-07
-7.5207986e-07
-7.52080131e-07
-7.52080144e-07
-7.52079968e-07
-7.52079933e-07
-7.52080051e-07
-7.52080095e-07
-7.52080005e-07
-7.52079946e-07
-7.52080016e-07
-7.52080102e-07
-7.52080074e-07
-7.52079941e-07
-7.52079936e-07
-7.52080055e-07
-7.52080131e-07
-7.52080064e-07
-7.52079887e-07
-7.520799e-07
-7.52080167e-07
-7.52080209e-07
-7.52079899e-07
-7.52079766e-07
-7.52080093e-07
-7.52080337e-07
-7.5208003e-07
-7.52079672e-07
-7.52079917e-07
-7.52080367e-07
-7.52080211e-07
-7.5207972e-07
-7.52079781e-07
-7.5208025e-07
-7.52080243e-07
-7.52079895e-07
-7.52079864e-07
-7.5208006e-07
-7.52080101e-07
-7.5208003e-07
-7.52080017e-07
-7.52080015e-07
-7.52079962e-07
-7.52079984e-07
-7.52080128e-07
-7.5208012e-07
-7.52079901e-07
-7.52079883e-07
-7.52080113e-07
-7.52080171e-07
-7.52079975e-07
-7.52079887e-07
-7.52080033e-07
-7.52080129e-07
-7.5208003e-07
-7.52079936e-07
-7.52079998e-07
-7.52080089e-07
-7.52080072e-07
-7.52079979e-07
-7.5207996e-07
-7.52079983e-07
-7.52080091e-07
-7.52080143e-07
-7.52079997e-07
-7.52079813e-07
-7.52079943e-07
-7.52080298e-07
-7.52080248e-07
-7.52079725e-07
-7.52079697e-07
-7.52080215e-07
-7.52080403e-07
-7.52080002e-07
-7.52079636e-07
-7.52079845e-07
-7.52080363e-07
-7.52080326e-07
-7.52079783e-07
-7.52079696e-07
-7.52080119e-07
-7.52080327e-07
-7.52080021e-07
-7.52079757e-07
-7.52079977e-07
-7.52080247e-07
-7.52080077e-07
-7.52079818e-07
-7.52079961e-07
-7.52080221e-07
-7.52080104e-07
-7.52079822e-07
-7.52079897e-07
-7.52080206e-07
-7.52080185e-07
-7.52079872e-07
-7.52079857e-07
-7.5208011e-07
-7.52080177e-07
-7.52079982e-07
-7.52079869e-07
-7.52080022e-07
-7.52080187e-07
-7.52080071e-07
-7.5207983e-07
-7.52079896e-07
-7.52080234e-07
-7.52080222e-07
-7.52079831e-07
-7.52079774e-07
-7.52080136e-07
-7.52080287e-07
-7.52080002e-07
-7.52079774e-07
-7.52079961e-07
-7.52080218e-07
-7.52080121e-07
-7.52079895e-07
-7.52079937e-07
-7.52080078e-07
-7.52080061e-07
-7.52080002e-07
-7.52080032e-07
-7.52080056e-07
-7.52079964e-07
-7.52079945e-07
-7.52080101e-07
-7.52080142e-07
-7.52079958e-07
-7.52079873e-07
-7.5208003e-07
-7.52080164e-07
-7.52080101e-07
-7.52079919e-07
-7.5207992e-07
-7.52079989e-07
-7.52080112e-07
-7.52080161e-07
-7.52080021e-07
-7.52079809e-07
-7.5207988e-07
-7.52080272e-07
-7.52080265e-07
-7.52079826e-07
-7.52079721e-07
-7.52080095e-07
-7.52080337e-07
-7.52080094e-07
-7.52079731e-07
-7.52079813e-07
-7.52080264e-07
-7.52080264e-07
-7.52079897e-07
-7.52079793e-07
-7.52080035e-07
-7.52080207e-07
-7.52080087e-07
-7.520799e-07
-7.52079927e-07
-7.52080064e-07
-7.5208007e-07
-7.52080068e-07
-7.52080053e-07
-7.52079924e-07
-7.52079906e-07
-7.52080123e-07
-7.520802e-07
-7.52079954e-07
-7.52079813e-07
-7.52080037e-07
-7.52080223e-07
-7.5208005e-07
-7.52079859e-07
-7.52079972e-07
-7.52080128e-07
-7.52080067e-07
-7.5207997e-07
-7.52079995e-07
-7.52080032e-07
-7.52080022e-07
-7.52080033e-07
-7.52080058e-07
-7.52079998e-07
-7.52079949e-07
-7.52080036e-07
-7.52080119e-07
-7.52080038e-07
-7.5207992e-07
-7.52079952e-07
-7.52080106e-07
-7.52080109e-07
-7.52080009e-07
-7.52079933e-07
-7.52079958e-07
-7.52080099e-07
-7.5208012e-07
-7.52079982e-07
-7.52079909e-07
-7.52080027e-07
-7.52080136e-07
-7.52080035e-07
-7.52079908e-07
-7.5208e-07
-7.52080145e-07
-7.52080056e-07
-7.52079874e-07
-7.52079951e-07
-7.52080197e-07
-7.52080165e-07
-7.52079833e-07
-7.52079823e-07
-7.52080142e-07
-7.52080255e-07
-7.52080031e-07
-7.52079792e-07
-7.52079858e-07
-7.52080203e-07
-7.52080248e-07
-7.52079987e-07
-7.52079777e-07
-7.52079898e-07
-7.52080256e-07
-7.52080239e-07
-7.52079849e-07
-7.52079774e-07
-7.52080104e-07
-7.52080273e-07
-7.52080016e-07
-7.52079779e-07
-7.52079969e-07
-7.52080247e-07
-7.52080114e-07
-7.52079817e-07
-7.52079903e-07
-7.52080203e-07
-7.52080154e-07
-7.52079869e-07
-7.52079891e-07
-7.52080141e-07
-7.52080134e-07
-7.52079934e-07
-7.52079936e-07
-7.52080088e-07
-7.52080083e-07
-7.52079958e-07
-7.5207997e-07
-7.52080096e-07
-7.52080084e-07
-7.5207993e-07
-7.52079935e-07
-7.52080121e-07
-7.5208013e-07
-7.52079931e-07
-7.52079891e-07
-7.52080091e-07
-7.52080171e-07
-7.52079983e-07
-7.52079861e-07
-7.52080021e-07
-7.5208018e-07
-7.52080062e-07
-7.52079881e-07
-7.52079955e-07
-7.52080131e-07
-7.52080088e-07
-7.52079944e-07
-7.52079973e-07
-7.52080085e-07
-7.52080055e-07
-7.52079942e-07
-7.52079979e-07
-7.52080133e-07
-7.52080114e-07
-7.52079878e-07
-7.52079873e-07
-7.52080152e-07
-7.52080225e-07
-7.52079942e-07
-7.52079774e-07
-7.52080024e-07
-7.52080294e-07
-7.5208011e-07
-7.52079744e-07
-7.52079834e-07
-7.52080287e-07
-7.52080274e-07
-7.52079826e-07
-7.52079738e-07
-7.52080086e-07
-7.52080314e-07
-7.52080126e-07
-7.5207975e-07
-7.52079785e-07
-7.52080206e-07
-7.52080301e-07
-7.52079994e-07
-7.52079742e-07
-7.52079904e-07
-7.52080269e-07
-7.52080232e-07
-7.52079836e-07
-7.52079799e-07
-7.52080107e-07
-7.52080231e-07
-7.52080024e-07
-7.52079839e-07
-7.52079956e-07
-7.52080169e-07
-7.52080122e-07
-7.5207991e-07
-7.52079919e-07
-7.52080101e-07
-7.52080105e-07
-7.52079959e-07
-7.52079951e-07
-7.52080094e-07
-7.52080097e-07
-7.52079926e-07
-7.52079924e-07
-7.52080135e-07
-7.52080147e-07
-7.52079913e-07
-7.5207988e-07
-7.52080099e-07
-7.5208015e-07
-7.52079987e-07
-7.52079937e-07
-7.52080023e-07
-7.52080039e-07
-7.52080017e-07
-7.52080077e-07
-7.52080094e-07
-7.52079893e-07
-7.52079845e-07
-7.52080181e-07
-7.52080317e-07
-7.52079903e-07
-7.52079621e-07
-7.52080026e-07
-7.52080479e-07
-7.52080174e-07
-7.52079576e-07
-7.52079735e-07
-7.52080383e-07
-7.52080333e-07
-7.52079792e-07
-7.52079807e-07
-7.52080178e-07
-7.52080116e-07
-7.52079701e-07
-7.52079919e-07
-7.52080809e-07
-7.52080583e-07
-7.52078511e-07
-7.5207855e-07
-7.52081963e-07
-7.52082779e-07
-7.52078446e-07
-7.5207589e-07
-7.52080229e-07
-7.52085149e-07
-7.52081963e-07
-7.52074618e-07
-7.52075824e-07
-7.52084923e-07
-7.52084901e-07
-7.52077033e-07
-7.52075448e-07
-7.52081098e-07
)
;

boundaryField
{
    closed
    {
        type            calculated;
        value           nonuniform List<scalar> 0();
    }
    open
    {
        type            calculated;
        value           nonuniform List<scalar> 0();
    }
    sides
    {
        type            empty;
    }
    procBoundary1to0
    {
        type            processor;
        value           uniform -7.5208104e-07;
    }
    procBoundary1to2
    {
        type            processor;
        value           uniform -7.52083699e-07;
    }
}


// ************************************************************************* //
