/*--------------------------------*- C++ -*----------------------------------*\
| =========                 |                                                 |
| \\      /  F ield         | OpenFOAM: The Open Source CFD Toolbox           |
|  \\    /   O peration     | Version:  2306                                  |
|   \\  /    A nd           | Website:  www.openfoam.com                      |
|    \\/     M anipulation  |                                                 |
\*---------------------------------------------------------------------------*/
FoamFile
{
    version     2.0;
    format      ascii;
    arch        "LSB;label=32;scalar=64";
    class       volScalarField;
    location    "0.00018";
    object      prefDPV_T;
}
// * * * * * * * * * * * * * * * * * * * * * * * * * * * * * * * * * * * * * //

dimensions      [1 -1 -1 -1 0 0 0];

internalField   nonuniform List<scalar> 
531
(
5.97550322e-10
5.97549546e-10
5.97549287e-10
5.97549747e-10
5.97550148e-10
5.97549958e-10
5.97549521e-10
5.97549556e-10
5.97549913e-10
5.97549947e-10
5.97549736e-10
5.97549656e-10
5.9754976e-10
5.97549846e-10
5.97549811e-10
5.97549742e-10
5.97549745e-10
5.97549772e-10
5.97549788e-10
5.97549796e-10
5.97549781e-10
5.97549745e-10
5.97549754e-10
5.97549812e-10
5.97549806e-10
5.97549727e-10
5.9754973e-10
5.97549835e-10
5.97549834e-10
5.97549707e-10
5.97549699e-10
5.97549839e-10
5.97549861e-10
5.97549723e-10
5.97549684e-10
5.97549803e-10
5.97549858e-10
5.97549777e-10
5.97549711e-10
5.97549738e-10
5.97549807e-10
5.97549811e-10
5.97549804e-10
5.97549752e-10
5.97549696e-10
5.97549757e-10
5.97549889e-10
5.97549844e-10
5.97549643e-10
5.97549657e-10
5.97549899e-10
5.97549906e-10
5.97549687e-10
5.97549652e-10
5.97549823e-10
5.97549874e-10
5.97549759e-10
5.97549703e-10
5.97549766e-10
5.97549821e-10
5.97549805e-10
5.9754975e-10
5.97549736e-10
5.97549759e-10
5.97549821e-10
5.97549823e-10
5.97549739e-10
5.97549701e-10
5.97549776e-10
5.97549862e-10
5.97549831e-10
5.9754969e-10
5.97549687e-10
5.97549807e-10
5.97549869e-10
5.97549808e-10
5.97549691e-10
5.97549702e-10
5.97549829e-10
5.97549844e-10
5.97549752e-10
5.97549724e-10
5.9754979e-10
5.97549811e-10
5.97549741e-10
5.97549728e-10
5.97549834e-10
5.97549856e-10
5.97549707e-10
5.97549647e-10
5.97549808e-10
5.97549938e-10
5.97549819e-10
5.97549604e-10
5.97549639e-10
5.97549915e-10
5.97549946e-10
5.97549724e-10
5.97549597e-10
5.97549735e-10
5.97549937e-10
5.97549883e-10
5.97549637e-10
5.97549645e-10
5.97549868e-10
5.97549898e-10
5.97549726e-10
5.97549666e-10
5.97549787e-10
5.97549863e-10
5.97549789e-10
5.9754971e-10
5.97549741e-10
5.97549811e-10
5.97549809e-10
5.97549772e-10
5.97549755e-10
5.97549755e-10
5.97549768e-10
5.97549795e-10
5.975498e-10
5.97549773e-10
5.97549744e-10
5.9754975e-10
5.97549796e-10
5.97549809e-10
5.97549777e-10
5.97549742e-10
5.97549755e-10
5.97549798e-10
5.97549795e-10
5.97549764e-10
5.97549764e-10
5.97549779e-10
5.97549775e-10
5.97549762e-10
5.97549776e-10
5.97549803e-10
5.97549793e-10
5.97549735e-10
5.97549729e-10
5.97549793e-10
5.97549846e-10
5.97549817e-10
5.97549683e-10
5.97549675e-10
5.97549838e-10
5.97549921e-10
5.97549779e-10
5.97549601e-10
5.97549681e-10
5.9754995e-10
5.97549934e-10
5.97549636e-10
5.97549593e-10
5.97549841e-10
5.97549954e-10
5.97549777e-10
5.97549615e-10
5.97549721e-10
5.97549902e-10
5.97549858e-10
5.97549683e-10
5.97549692e-10
5.9754983e-10
5.97549837e-10
5.97549747e-10
5.97549729e-10
5.97549789e-10
5.97549812e-10
5.97549766e-10
5.97549736e-10
5.97549772e-10
5.97549816e-10
5.97549802e-10
5.97549733e-10
5.97549731e-10
5.97549792e-10
5.97549831e-10
5.97549796e-10
5.97549706e-10
5.97549713e-10
5.97549849e-10
5.9754987e-10
5.97549712e-10
5.97549644e-10
5.97549811e-10
5.97549936e-10
5.97549779e-10
5.97549596e-10
5.97549721e-10
5.97549951e-10
5.97549872e-10
5.9754962e-10
5.97549652e-10
5.97549891e-10
5.97549888e-10
5.9754971e-10
5.97549694e-10
5.97549794e-10
5.97549815e-10
5.97549779e-10
5.97549772e-10
5.97549771e-10
5.97549744e-10
5.97549755e-10
5.97549829e-10
5.97549825e-10
5.97549713e-10
5.97549704e-10
5.97549821e-10
5.97549851e-10
5.97549751e-10
5.97549706e-10
5.9754978e-10
5.9754983e-10
5.97549779e-10
5.97549731e-10
5.97549762e-10
5.97549809e-10
5.97549801e-10
5.97549753e-10
5.97549743e-10
5.97549755e-10
5.9754981e-10
5.97549836e-10
5.97549762e-10
5.97549668e-10
5.97549734e-10
5.97549916e-10
5.9754989e-10
5.97549623e-10
5.97549608e-10
5.97549874e-10
5.9754997e-10
5.97549764e-10
5.97549577e-10
5.97549684e-10
5.97549949e-10
5.9754993e-10
5.97549653e-10
5.97549608e-10
5.97549825e-10
5.97549931e-10
5.97549774e-10
5.97549639e-10
5.97549752e-10
5.9754989e-10
5.97549803e-10
5.97549671e-10
5.97549744e-10
5.97549877e-10
5.97549817e-10
5.97549673e-10
5.97549711e-10
5.97549869e-10
5.97549858e-10
5.97549698e-10
5.9754969e-10
5.9754982e-10
5.97549854e-10
5.97549754e-10
5.97549697e-10
5.97549775e-10
5.97549859e-10
5.975498e-10
5.97549677e-10
5.9754971e-10
5.97549883e-10
5.97549877e-10
5.97549677e-10
5.97549648e-10
5.97549833e-10
5.9754991e-10
5.97549764e-10
5.97549648e-10
5.97549744e-10
5.97549875e-10
5.97549825e-10
5.9754971e-10
5.97549731e-10
5.97549804e-10
5.97549795e-10
5.97549764e-10
5.9754978e-10
5.97549792e-10
5.97549745e-10
5.97549736e-10
5.97549815e-10
5.97549836e-10
5.97549742e-10
5.97549699e-10
5.97549779e-10
5.97549847e-10
5.97549815e-10
5.97549722e-10
5.97549723e-10
5.97549758e-10
5.97549821e-10
5.97549846e-10
5.97549774e-10
5.97549666e-10
5.97549702e-10
5.97549903e-10
5.97549899e-10
5.97549675e-10
5.97549621e-10
5.97549812e-10
5.97549936e-10
5.97549812e-10
5.97549626e-10
5.97549668e-10
5.97549899e-10
5.97549899e-10
5.97549711e-10
5.97549657e-10
5.97549781e-10
5.97549869e-10
5.97549808e-10
5.97549713e-10
5.97549726e-10
5.97549796e-10
5.97549799e-10
5.97549798e-10
5.97549791e-10
5.97549725e-10
5.97549716e-10
5.97549827e-10
5.97549866e-10
5.9754974e-10
5.97549668e-10
5.97549783e-10
5.97549878e-10
5.97549789e-10
5.97549691e-10
5.97549749e-10
5.97549829e-10
5.97549798e-10
5.97549748e-10
5.97549761e-10
5.9754978e-10
5.97549775e-10
5.97549781e-10
5.97549793e-10
5.97549763e-10
5.97549737e-10
5.97549782e-10
5.97549824e-10
5.97549783e-10
5.97549723e-10
5.97549739e-10
5.97549817e-10
5.97549819e-10
5.97549768e-10
5.97549729e-10
5.97549742e-10
5.97549814e-10
5.97549825e-10
5.97549754e-10
5.97549717e-10
5.97549778e-10
5.97549833e-10
5.97549781e-10
5.97549716e-10
5.97549763e-10
5.97549838e-10
5.97549792e-10
5.97549699e-10
5.97549739e-10
5.97549864e-10
5.97549848e-10
5.97549678e-10
5.97549673e-10
5.97549836e-10
5.97549894e-10
5.97549779e-10
5.97549657e-10
5.97549691e-10
5.97549868e-10
5.9754989e-10
5.97549757e-10
5.9754965e-10
5.97549711e-10
5.97549894e-10
5.97549886e-10
5.97549686e-10
5.97549648e-10
5.97549817e-10
5.97549903e-10
5.97549772e-10
5.97549651e-10
5.97549748e-10
5.9754989e-10
5.97549822e-10
5.9754967e-10
5.97549714e-10
5.97549867e-10
5.97549842e-10
5.97549696e-10
5.97549708e-10
5.97549836e-10
5.97549832e-10
5.9754973e-10
5.97549731e-10
5.97549808e-10
5.97549806e-10
5.97549742e-10
5.97549748e-10
5.97549813e-10
5.97549807e-10
5.97549728e-10
5.97549731e-10
5.97549825e-10
5.9754983e-10
5.97549728e-10
5.97549708e-10
5.9754981e-10
5.97549851e-10
5.97549755e-10
5.97549693e-10
5.97549774e-10
5.97549856e-10
5.97549795e-10
5.97549702e-10
5.97549741e-10
5.9754983e-10
5.97549809e-10
5.97549735e-10
5.9754975e-10
5.97549807e-10
5.97549792e-10
5.97549734e-10
5.97549753e-10
5.97549832e-10
5.97549822e-10
5.97549701e-10
5.97549699e-10
5.97549841e-10
5.97549879e-10
5.97549734e-10
5.97549648e-10
5.97549776e-10
5.97549914e-10
5.9754982e-10
5.97549633e-10
5.97549679e-10
5.97549911e-10
5.97549904e-10
5.97549675e-10
5.9754963e-10
5.97549807e-10
5.97549924e-10
5.97549828e-10
5.97549635e-10
5.97549654e-10
5.97549869e-10
5.97549917e-10
5.9754976e-10
5.97549632e-10
5.97549714e-10
5.97549901e-10
5.97549882e-10
5.9754968e-10
5.97549661e-10
5.97549818e-10
5.97549881e-10
5.97549776e-10
5.97549681e-10
5.97549741e-10
5.9754985e-10
5.97549826e-10
5.97549718e-10
5.97549722e-10
5.97549815e-10
5.97549817e-10
5.97549742e-10
5.97549738e-10
5.97549811e-10
5.97549813e-10
5.97549725e-10
5.97549725e-10
5.97549833e-10
5.97549839e-10
5.97549719e-10
5.97549702e-10
5.97549814e-10
5.9754984e-10
5.97549757e-10
5.97549731e-10
5.97549775e-10
5.97549784e-10
5.97549772e-10
5.97549803e-10
5.97549811e-10
5.97549709e-10
5.97549684e-10
5.97549856e-10
5.97549926e-10
5.97549714e-10
5.9754957e-10
5.97549777e-10
5.97550008e-10
5.97549852e-10
5.97549547e-10
5.97549628e-10
5.97549959e-10
5.97549934e-10
5.97549657e-10
5.97549665e-10
5.97549855e-10
5.97549823e-10
5.9754961e-10
5.97549722e-10
5.97550177e-10
5.97550062e-10
5.97549002e-10
5.97549022e-10
5.97550767e-10
5.97551185e-10
5.97548969e-10
5.97547662e-10
5.97549881e-10
5.97552397e-10
5.97550767e-10
5.97547011e-10
5.97547627e-10
5.97552282e-10
5.9755227e-10
5.97548246e-10
5.97547435e-10
5.97550325e-10
)
;

boundaryField
{
    closed
    {
        type            calculated;
        value           nonuniform List<scalar> 0();
    }
    open
    {
        type            calculated;
        value           nonuniform List<scalar> 0();
    }
    sides
    {
        type            empty;
    }
    procBoundary1to0
    {
        type            processor;
        value           uniform 5.97550296e-10;
    }
    procBoundary1to2
    {
        type            processor;
        value           uniform 5.97551656e-10;
    }
}


// ************************************************************************* //
