/*--------------------------------*- C++ -*----------------------------------*\
| =========                 |                                                 |
| \\      /  F ield         | OpenFOAM: The Open Source CFD Toolbox           |
|  \\    /   O peration     | Version:  2306                                  |
|   \\  /    A nd           | Website:  www.openfoam.com                      |
|    \\/     M anipulation  |                                                 |
\*---------------------------------------------------------------------------*/
FoamFile
{
    version     2.0;
    format      ascii;
    arch        "LSB;label=32;scalar=64";
    class       volScalarField;
    location    "0.00018";
    object      prefDPV_H2O;
}
// * * * * * * * * * * * * * * * * * * * * * * * * * * * * * * * * * * * * * //

dimensions      [1 -1 -1 0 0 0 0];

internalField   nonuniform List<scalar> 
531
(
-3.730672e-07
-3.73066448e-07
-3.73066197e-07
-3.73066642e-07
-3.73067031e-07
-3.73066847e-07
-3.73066423e-07
-3.73066457e-07
-3.73066804e-07
-3.73066837e-07
-3.73066632e-07
-3.73066554e-07
-3.73066655e-07
-3.73066738e-07
-3.73066705e-07
-3.73066638e-07
-3.7306664e-07
-3.73066667e-07
-3.73066682e-07
-3.7306669e-07
-3.73066676e-07
-3.73066641e-07
-3.7306665e-07
-3.73066706e-07
-3.730667e-07
-3.73066623e-07
-3.73066626e-07
-3.73066728e-07
-3.73066727e-07
-3.73066604e-07
-3.73066596e-07
-3.73066732e-07
-3.73066754e-07
-3.7306662e-07
-3.73066581e-07
-3.73066697e-07
-3.7306675e-07
-3.73066672e-07
-3.73066607e-07
-3.73066634e-07
-3.73066701e-07
-3.73066705e-07
-3.73066698e-07
-3.73066648e-07
-3.73066593e-07
-3.73066653e-07
-3.73066781e-07
-3.73066737e-07
-3.73066542e-07
-3.73066556e-07
-3.73066791e-07
-3.73066797e-07
-3.73066584e-07
-3.7306655e-07
-3.73066716e-07
-3.73066765e-07
-3.73066654e-07
-3.730666e-07
-3.73066662e-07
-3.73066714e-07
-3.73066699e-07
-3.73066645e-07
-3.73066632e-07
-3.73066654e-07
-3.73066714e-07
-3.73066716e-07
-3.73066635e-07
-3.73066598e-07
-3.73066671e-07
-3.73066754e-07
-3.73066724e-07
-3.73066587e-07
-3.73066585e-07
-3.73066701e-07
-3.73066761e-07
-3.73066702e-07
-3.73066588e-07
-3.73066599e-07
-3.73066723e-07
-3.73066737e-07
-3.73066647e-07
-3.73066621e-07
-3.73066685e-07
-3.73066705e-07
-3.73066637e-07
-3.73066624e-07
-3.73066727e-07
-3.73066748e-07
-3.73066604e-07
-3.73066546e-07
-3.73066702e-07
-3.73066828e-07
-3.73066712e-07
-3.73066504e-07
-3.73066538e-07
-3.73066806e-07
-3.73066836e-07
-3.7306662e-07
-3.73066497e-07
-3.73066631e-07
-3.73066827e-07
-3.73066774e-07
-3.73066536e-07
-3.73066543e-07
-3.7306676e-07
-3.73066789e-07
-3.73066622e-07
-3.73066564e-07
-3.73066682e-07
-3.73066755e-07
-3.73066684e-07
-3.73066607e-07
-3.73066637e-07
-3.73066705e-07
-3.73066703e-07
-3.73066667e-07
-3.7306665e-07
-3.73066651e-07
-3.73066663e-07
-3.7306669e-07
-3.73066694e-07
-3.73066668e-07
-3.73066639e-07
-3.73066646e-07
-3.73066691e-07
-3.73066703e-07
-3.73066671e-07
-3.73066637e-07
-3.73066651e-07
-3.73066692e-07
-3.73066689e-07
-3.73066659e-07
-3.7306666e-07
-3.73066674e-07
-3.7306667e-07
-3.73066657e-07
-3.73066671e-07
-3.73066697e-07
-3.73066688e-07
-3.73066631e-07
-3.73066625e-07
-3.73066688e-07
-3.73066739e-07
-3.73066711e-07
-3.7306658e-07
-3.73066572e-07
-3.73066731e-07
-3.73066812e-07
-3.73066674e-07
-3.73066501e-07
-3.73066579e-07
-3.7306684e-07
-3.73066824e-07
-3.73066535e-07
-3.73066493e-07
-3.73066734e-07
-3.73066844e-07
-3.73066671e-07
-3.73066514e-07
-3.73066617e-07
-3.73066793e-07
-3.7306675e-07
-3.7306658e-07
-3.73066589e-07
-3.73066723e-07
-3.7306673e-07
-3.73066643e-07
-3.73066625e-07
-3.73066684e-07
-3.73066706e-07
-3.73066661e-07
-3.73066632e-07
-3.73066667e-07
-3.73066709e-07
-3.73066696e-07
-3.73066629e-07
-3.73066627e-07
-3.73066686e-07
-3.73066724e-07
-3.73066691e-07
-3.73066602e-07
-3.73066609e-07
-3.73066741e-07
-3.73066762e-07
-3.73066609e-07
-3.73066543e-07
-3.73066705e-07
-3.73066826e-07
-3.73066674e-07
-3.73066496e-07
-3.73066618e-07
-3.73066841e-07
-3.73066764e-07
-3.7306652e-07
-3.7306655e-07
-3.73066783e-07
-3.73066779e-07
-3.73066606e-07
-3.73066591e-07
-3.73066689e-07
-3.73066709e-07
-3.73066673e-07
-3.73066667e-07
-3.73066666e-07
-3.7306664e-07
-3.73066651e-07
-3.73066722e-07
-3.73066718e-07
-3.73066609e-07
-3.73066601e-07
-3.73066715e-07
-3.73066744e-07
-3.73066646e-07
-3.73066603e-07
-3.73066675e-07
-3.73066723e-07
-3.73066674e-07
-3.73066627e-07
-3.73066658e-07
-3.73066703e-07
-3.73066695e-07
-3.73066648e-07
-3.73066639e-07
-3.73066651e-07
-3.73066704e-07
-3.73066729e-07
-3.73066657e-07
-3.73066566e-07
-3.7306663e-07
-3.73066807e-07
-3.73066782e-07
-3.73066522e-07
-3.73066508e-07
-3.73066766e-07
-3.73066859e-07
-3.7306666e-07
-3.73066478e-07
-3.73066582e-07
-3.73066839e-07
-3.7306682e-07
-3.73066551e-07
-3.73066508e-07
-3.73066718e-07
-3.73066821e-07
-3.73066669e-07
-3.73066538e-07
-3.73066647e-07
-3.73066781e-07
-3.73066697e-07
-3.73066569e-07
-3.7306664e-07
-3.73066768e-07
-3.7306671e-07
-3.73066571e-07
-3.73066607e-07
-3.73066761e-07
-3.73066751e-07
-3.73066595e-07
-3.73066588e-07
-3.73066713e-07
-3.73066746e-07
-3.7306665e-07
-3.73066594e-07
-3.73066669e-07
-3.73066752e-07
-3.73066694e-07
-3.73066574e-07
-3.73066607e-07
-3.73066775e-07
-3.73066769e-07
-3.73066575e-07
-3.73066547e-07
-3.73066726e-07
-3.73066801e-07
-3.73066659e-07
-3.73066547e-07
-3.7306664e-07
-3.73066767e-07
-3.73066719e-07
-3.73066607e-07
-3.73066627e-07
-3.73066698e-07
-3.73066689e-07
-3.7306666e-07
-3.73066675e-07
-3.73066687e-07
-3.73066641e-07
-3.73066632e-07
-3.73066709e-07
-3.73066729e-07
-3.73066638e-07
-3.73066596e-07
-3.73066673e-07
-3.7306674e-07
-3.73066709e-07
-3.73066619e-07
-3.73066619e-07
-3.73066653e-07
-3.73066714e-07
-3.73066738e-07
-3.73066669e-07
-3.73066564e-07
-3.73066599e-07
-3.73066794e-07
-3.7306679e-07
-3.73066572e-07
-3.7306652e-07
-3.73066706e-07
-3.73066826e-07
-3.73066705e-07
-3.73066525e-07
-3.73066566e-07
-3.7306679e-07
-3.7306679e-07
-3.73066608e-07
-3.73066556e-07
-3.73066676e-07
-3.73066761e-07
-3.73066702e-07
-3.73066609e-07
-3.73066623e-07
-3.7306669e-07
-3.73066694e-07
-3.73066692e-07
-3.73066685e-07
-3.73066621e-07
-3.73066612e-07
-3.7306672e-07
-3.73066758e-07
-3.73066636e-07
-3.73066566e-07
-3.73066677e-07
-3.73066769e-07
-3.73066684e-07
-3.73066589e-07
-3.73066645e-07
-3.73066722e-07
-3.73066692e-07
-3.73066644e-07
-3.73066656e-07
-3.73066674e-07
-3.7306667e-07
-3.73066675e-07
-3.73066687e-07
-3.73066658e-07
-3.73066633e-07
-3.73066677e-07
-3.73066718e-07
-3.73066678e-07
-3.73066619e-07
-3.73066635e-07
-3.73066711e-07
-3.73066713e-07
-3.73066663e-07
-3.73066625e-07
-3.73066638e-07
-3.73066708e-07
-3.73066718e-07
-3.7306665e-07
-3.73066614e-07
-3.73066672e-07
-3.73066726e-07
-3.73066676e-07
-3.73066613e-07
-3.73066659e-07
-3.73066731e-07
-3.73066686e-07
-3.73066596e-07
-3.73066635e-07
-3.73066757e-07
-3.73066741e-07
-3.73066576e-07
-3.73066571e-07
-3.73066729e-07
-3.73066785e-07
-3.73066674e-07
-3.73066556e-07
-3.73066588e-07
-3.7306676e-07
-3.73066782e-07
-3.73066652e-07
-3.73066548e-07
-3.73066608e-07
-3.73066786e-07
-3.73066777e-07
-3.73066584e-07
-3.73066547e-07
-3.7306671e-07
-3.73066794e-07
-3.73066667e-07
-3.73066549e-07
-3.73066644e-07
-3.73066781e-07
-3.73066715e-07
-3.73066568e-07
-3.73066611e-07
-3.73066759e-07
-3.73066735e-07
-3.73066594e-07
-3.73066605e-07
-3.73066729e-07
-3.73066725e-07
-3.73066626e-07
-3.73066627e-07
-3.73066702e-07
-3.730667e-07
-3.73066638e-07
-3.73066644e-07
-3.73066706e-07
-3.73066701e-07
-3.73066624e-07
-3.73066627e-07
-3.73066719e-07
-3.73066723e-07
-3.73066625e-07
-3.73066604e-07
-3.73066704e-07
-3.73066743e-07
-3.7306665e-07
-3.7306659e-07
-3.73066669e-07
-3.73066748e-07
-3.7306669e-07
-3.73066599e-07
-3.73066637e-07
-3.73066724e-07
-3.73066703e-07
-3.73066631e-07
-3.73066645e-07
-3.73066701e-07
-3.73066686e-07
-3.7306663e-07
-3.73066648e-07
-3.73066725e-07
-3.73066716e-07
-3.73066598e-07
-3.73066596e-07
-3.73066734e-07
-3.73066771e-07
-3.7306663e-07
-3.73066546e-07
-3.7306667e-07
-3.73066804e-07
-3.73066713e-07
-3.73066532e-07
-3.73066576e-07
-3.73066801e-07
-3.73066795e-07
-3.73066572e-07
-3.73066529e-07
-3.73066701e-07
-3.73066815e-07
-3.73066721e-07
-3.73066534e-07
-3.73066552e-07
-3.73066761e-07
-3.73066808e-07
-3.73066656e-07
-3.73066531e-07
-3.73066611e-07
-3.73066792e-07
-3.73066774e-07
-3.73066577e-07
-3.73066559e-07
-3.73066712e-07
-3.73066773e-07
-3.73066671e-07
-3.73066579e-07
-3.73066637e-07
-3.73066742e-07
-3.73066719e-07
-3.73066614e-07
-3.73066619e-07
-3.73066709e-07
-3.73066711e-07
-3.73066638e-07
-3.73066634e-07
-3.73066705e-07
-3.73066707e-07
-3.73066622e-07
-3.73066621e-07
-3.73066726e-07
-3.73066732e-07
-3.73066615e-07
-3.73066599e-07
-3.73066708e-07
-3.73066733e-07
-3.73066652e-07
-3.73066627e-07
-3.7306667e-07
-3.73066678e-07
-3.73066667e-07
-3.73066697e-07
-3.73066705e-07
-3.73066606e-07
-3.73066582e-07
-3.73066748e-07
-3.73066816e-07
-3.7306661e-07
-3.73066471e-07
-3.73066672e-07
-3.73066896e-07
-3.73066745e-07
-3.73066449e-07
-3.73066527e-07
-3.73066849e-07
-3.73066824e-07
-3.73066556e-07
-3.73066563e-07
-3.73066747e-07
-3.73066716e-07
-3.7306651e-07
-3.73066618e-07
-3.7306706e-07
-3.73066948e-07
-3.7306592e-07
-3.73065939e-07
-3.73067632e-07
-3.73068037e-07
-3.73065888e-07
-3.7306462e-07
-3.73066772e-07
-3.73069213e-07
-3.73067632e-07
-3.73063989e-07
-3.73064587e-07
-3.73069101e-07
-3.7306909e-07
-3.73065187e-07
-3.73064401e-07
-3.73067204e-07
)
;

boundaryField
{
    closed
    {
        type            calculated;
        value           nonuniform List<scalar> 0();
    }
    open
    {
        type            calculated;
        value           nonuniform List<scalar> 0();
    }
    sides
    {
        type            empty;
    }
    procBoundary1to0
    {
        type            processor;
        value           uniform -3.73067175e-07;
    }
    procBoundary1to2
    {
        type            processor;
        value           uniform -3.73068494e-07;
    }
}


// ************************************************************************* //
