/*--------------------------------*- C++ -*----------------------------------*\
| =========                 |                                                 |
| \\      /  F ield         | OpenFOAM: The Open Source CFD Toolbox           |
|  \\    /   O peration     | Version:  2306                                  |
|   \\  /    A nd           | Website:  www.openfoam.com                      |
|    \\/     M anipulation  |                                                 |
\*---------------------------------------------------------------------------*/
FoamFile
{
    version     2.0;
    format      ascii;
    arch        "LSB;label=32;scalar=64";
    class       volScalarField;
    location    "0.00018";
    object      sourcePV;
}
// * * * * * * * * * * * * * * * * * * * * * * * * * * * * * * * * * * * * * //

dimensions      [1 -3 -1 0 0 0 0];

internalField   nonuniform List<scalar> 
531
(
0.081527033
0.0815318661
0.0815334786
0.0815306161
0.0815281182
0.0815293019
0.0815320221
0.0815318067
0.081529579
0.0815293677
0.0815306843
0.081531182
0.0815305354
0.0815299999
0.0815302163
0.0815306467
0.0815306296
0.0815304594
0.0815303589
0.0815303119
0.0815304021
0.0815306284
0.0815305704
0.0815302103
0.0815302489
0.0815307407
0.081530719
0.0815300685
0.0815300703
0.0815308606
0.0815309117
0.0815300394
0.0815299017
0.0815307626
0.0815310079
0.0815302686
0.0815299227
0.0815304258
0.0815308408
0.0815306713
0.081530239
0.0815302144
0.0815302575
0.0815305818
0.0815309313
0.0815305498
0.0815297294
0.0815300088
0.0815312614
0.0815311719
0.0815296648
0.0815296266
0.0815309907
0.0815312069
0.0815301433
0.0815298257
0.0815305421
0.0815308867
0.0815304931
0.0815301559
0.081530252
0.0815305963
0.0815306817
0.0815305395
0.0815301543
0.0815301435
0.0815306622
0.0815309032
0.081530432
0.0815298975
0.0815300942
0.081530971
0.0815309868
0.0815302402
0.0815298516
0.0815302327
0.0815309638
0.081530893
0.0815301017
0.0815300102
0.081530586
0.0815307556
0.0815303457
0.0815302159
0.0815306498
0.0815307315
0.0815300703
0.0815299358
0.0815308625
0.0815312366
0.0815302353
0.0815294273
0.081530168
0.0815315017
0.0815312864
0.0815295659
0.0815293722
0.0815307597
0.0815315504
0.0815306917
0.0815294319
0.0815297682
0.0815312979
0.0815312524
0.0815298586
0.0815296721
0.0815307453
0.0815311211
0.0815303634
0.08152989
0.0815303507
0.0815308444
0.0815306529
0.0815302134
0.0815302296
0.0815304568
0.0815305673
0.081530562
0.0815304824
0.0815303133
0.0815302827
0.0815304514
0.0815306349
0.0815305945
0.0815303071
0.0815302287
0.08153043
0.0815306484
0.0815305639
0.0815302977
0.0815303148
0.0815305098
0.0815305053
0.0815304143
0.0815304418
0.0815305237
0.0815304339
0.0815302682
0.0815303256
0.0815306918
0.0815307256
0.0815303253
0.081529998
0.0815301756
0.0815310156
0.0815310656
0.0815300471
0.0815295297
0.0815304138
0.0815315252
0.0815310258
0.0815293481
0.081529447
0.081531304
0.081531574
0.0815300262
0.0815293242
0.0815304299
0.0815314378
0.081530778
0.0815296504
0.0815299257
0.0815310139
0.0815309587
0.0815300954
0.0815300511
0.0815306129
0.0815307255
0.0815303498
0.08153021
0.0815304967
0.0815306819
0.0815304593
0.0815301857
0.0815302744
0.0815306992
0.081530714
0.0815303359
0.0815300926
0.0815303062
0.0815308724
0.0815308283
0.0815299799
0.0815298461
0.0815308326
0.0815312576
0.0815302156
0.0815294387
0.0815304153
0.0815315547
0.0815307748
0.0815293432
0.0815298379
0.0815314028
0.0815312087
0.0815297149
0.0815297381
0.081530847
0.0815309434
0.0815303191
0.0815301902
0.0815304174
0.0815304582
0.0815304639
0.0815306325
0.0815305613
0.0815301039
0.0815301282
0.0815308279
0.0815308848
0.0815301518
0.0815299652
0.0815305918
0.0815308718
0.0815304069
0.0815300991
0.0815304159
0.081530715
0.0815305185
0.0815302266
0.0815302808
0.0815305771
0.0815306372
0.081530564
0.0815302216
0.081530057
0.081530521
0.0815311055
0.0815306942
0.0815295622
0.0815297211
0.0815313886
0.0815314768
0.0815298253
0.081529228
0.081530506
0.08153167
0.0815310066
0.0815293546
0.0815294743
0.0815312019
0.0815314792
0.0815301311
0.0815294711
0.0815304443
0.0815312866
0.081530585
0.0815297249
0.0815302675
0.0815310897
0.0815306345
0.0815298068
0.0815301795
0.0815310776
0.081530841
0.0815298539
0.0815299215
0.0815309178
0.0815309675
0.0815301612
0.0815299488
0.0815305677
0.081530927
0.0815304428
0.0815299155
0.0815302858
0.081531053
0.0815308421
0.0815297653
0.0815298038
0.0815310481
0.0815312316
0.0815300785
0.0815295967
0.0815305065
0.0815312309
0.0815306348
0.0815298183
0.0815301272
0.0815308453
0.0815307129
0.0815302617
0.081530318
0.0815305062
0.0815304083
0.081530333
0.0815306254
0.0815306858
0.0815301886
0.0815300578
0.0815306444
0.081530916
0.0815304168
0.0815299896
0.0815301906
0.0815307683
0.0815307663
0.0815305452
0.0815301557
0.0815300001
0.0815304432
0.081531119
0.0815308925
0.0815296436
0.0815296665
0.0815310654
0.0815313996
0.0815302076
0.0815294386
0.0815302118
0.081531369
0.0815311077
0.0815296706
0.081529669
0.081530838
0.0815311722
0.0815304011
0.0815298522
0.0815302358
0.0815308284
0.0815307423
0.0815303077
0.0815302873
0.0815302952
0.081530341
0.0815307533
0.0815308097
0.0815301185
0.0815298755
0.0815306576
0.0815311078
0.0815303929
0.0815298003
0.0815303508
0.0815309613
0.0815306012
0.081530103
0.0815302976
0.0815306059
0.0815305262
0.0815304106
0.0815304415
0.0815304049
0.0815303267
0.0815305168
0.0815306742
0.0815303955
0.0815301321
0.0815303903
0.0815307657
0.0815306636
0.0815301753
0.0815301628
0.0815304814
0.0815307256
0.0815306442
0.0815301963
0.0815301303
0.0815305681
0.0815308013
0.0815304242
0.0815300793
0.0815303999
0.0815308046
0.0815305119
0.08153005
0.0815303341
0.0815309138
0.0815306659
0.0815298826
0.0815299855
0.0815310438
0.0815310743
0.0815300605
0.0815296997
0.0815304119
0.0815311737
0.0815309637
0.0815298633
0.0815297222
0.0815305533
0.0815312208
0.0815308373
0.0815296967
0.0815297488
0.0815309931
0.0815312309
0.0815301794
0.0815296416
0.0815304593
0.081531214
0.0815306087
0.0815297256
0.0815301496
0.0815310957
0.0815308208
0.0815298644
0.0815300217
0.0815309292
0.081530859
0.0815300612
0.0815300849
0.0815307217
0.0815307139
0.0815302314
0.0815302464
0.0815306451
0.0815306081
0.0815302051
0.0815302425
0.0815307331
0.0815307169
0.0815301263
0.0815300964
0.0815307309
0.08153086
0.0815302202
0.0815299675
0.0815305654
0.0815309534
0.0815304457
0.0815299365
0.0815303133
0.0815308919
0.0815306538
0.0815300948
0.0815302301
0.0815306894
0.081530597
0.0815302399
0.0815303362
0.0815306946
0.0815305796
0.0815300875
0.0815301468
0.0815309008
0.0815309153
0.0815300269
0.0815297932
0.0815306954
0.0815312321
0.0815304365
0.0815295759
0.0815301615
0.0815313258
0.0815310403
0.0815295956
0.0815296385
0.0815310651
0.0815313458
0.081530239
0.0815295103
0.0815301091
0.0815313092
0.0815311958
0.081529856
0.0815295538
0.0815305312
0.081531332
0.0815308183
0.0815296555
0.0815297725
0.0815310337
0.0815311522
0.0815301718
0.0815297771
0.0815304341
0.0815310238
0.0815306531
0.0815299734
0.0815301236
0.0815307973
0.0815307685
0.0815301889
0.0815301764
0.081530643
0.0815306679
0.0815302131
0.0815302032
0.0815307484
0.0815307539
0.0815300799
0.0815300423
0.0815307889
0.0815308932
0.0815301951
0.0815300326
0.0815305529
0.0815307133
0.0815304391
0.0815303858
0.0815304575
0.0815302658
0.0815302134
0.0815308528
0.0815310056
0.0815299362
0.0815295005
0.0815308211
0.0815317173
0.0815304274
0.0815289859
0.0815299577
0.0815318603
0.0815313552
0.0815292926
0.0815294501
0.0815311732
0.0815311255
0.081529944
0.0815301409
0.0815314652
0.0815307699
0.0815279351
0.0815286528
0.0815352534
0.0815351309
0.0815242594
0.0815216606
0.0815354626
0.0815436017
0.0815297817
0.0815141102
0.0815242592
0.0815476546
0.0815438144
0.0815148299
0.0815149001
0.0815399638
0.0815450123
0.0815270124
)
;

boundaryField
{
    closed
    {
        type            calculated;
        value           nonuniform List<scalar> 0();
    }
    open
    {
        type            calculated;
        value           nonuniform List<scalar> 0();
    }
    sides
    {
        type            empty;
    }
    procBoundary1to0
    {
        type            processor;
        value           uniform 0;
    }
    procBoundary1to2
    {
        type            processor;
        value           uniform 0;
    }
}


// ************************************************************************* //
