/*--------------------------------*- C++ -*----------------------------------*\
| =========                 |                                                 |
| \\      /  F ield         | OpenFOAM: The Open Source CFD Toolbox           |
|  \\    /   O peration     | Version:  2306                                  |
|   \\  /    A nd           | Website:  www.openfoam.com                      |
|    \\/     M anipulation  |                                                 |
\*---------------------------------------------------------------------------*/
FoamFile
{
    version     2.0;
    format      ascii;
    arch        "LSB;label=32;scalar=64";
    class       volScalarField;
    location    "0.00102";
    object      prefDh_T;
}
// * * * * * * * * * * * * * * * * * * * * * * * * * * * * * * * * * * * * * //

dimensions      [1 1 -3 -1 0 0 0];

internalField   nonuniform List<scalar> 
530
(
0.00764612739
0.00849055784
0.00848610265
0.00757762286
0.00768014212
0.00840415445
0.00847623065
0.00790473137
0.00767479972
0.00796908733
0.0084667212
0.00840750182
0.00769131724
0.0078226085
0.00845717591
0.00845757071
0.00773169875
0.00785609194
0.00844722971
0.00844659986
0.00775120084
0.00791324816
0.00843695788
0.00843590679
0.00777234967
0.00794888392
0.00842639539
0.00842520323
0.00779106183
0.00797041778
0.00841605255
0.00841476214
0.00781806748
0.00798485161
0.00834917047
0.00836818552
0.0079398542
0.00804542747
0.00813755947
0.00823034926
0.0082305772
0.00823661728
0.00790654232
0.00805006625
0.00837218165
0.00835058715
0.00788844076
0.00801217592
0.00837010568
0.00837020079
0.00788140671
0.00800352697
0.0083595442
0.00835983303
0.00788370374
0.00800055742
0.00834933261
0.00834972071
0.00788620035
0.0079985071
0.00833946028
0.00833982981
0.00788795975
0.00799643011
0.00832976751
0.00833016805
0.00788786532
0.00799408319
0.00832037954
0.00832077014
0.00789295948
0.00799084991
0.00831130213
0.0083116679
0.00789636193
0.00799163653
0.00830252667
0.00830286933
0.00789819318
0.00799333562
0.00829405249
0.0082943683
0.00789933723
0.00799546489
0.00828584817
0.00828613026
0.00790053168
0.0079974002
0.00827783386
0.00827811818
0.00790175943
0.00799878963
0.00827004895
0.00827037765
0.00790520178
0.00799891713
0.00826254538
0.00826286779
0.00791008775
0.00799980178
0.00825530725
0.0082556153
0.00791351142
0.0080009984
0.00824833013
0.00824862312
0.00791700869
0.00800216706
0.00824159293
0.00824188274
0.00792054444
0.00800356023
0.00823504213
0.00823535838
0.00792420822
0.00800533105
0.00822875376
0.00822909782
0.00792737076
0.00800756713
0.0082227338
0.00822309827
0.00793057354
0.00800980982
0.00821698194
0.00821736902
0.00793420811
0.0080108236
0.0082115032
0.00821190282
0.00793842907
0.0080113594
0.00820626745
0.00820664852
0.00794368875
0.00801245128
0.00820127996
0.00820165443
0.00794925482
0.00801404221
0.0081965512
0.0081969522
0.00795687999
0.00801573032
0.00819219204
0.00819257306
0.00796102108
0.00801816488
0.00818811021
0.00818852878
0.00796408163
0.00801766918
0.00818431429
0.00818473516
0.00796604206
0.00801753791
0.00818078654
0.00818114149
0.00796931407
0.00801769479
0.00817752849
0.00817776475
0.00797378238
0.00801885189
0.00817457685
0.00817468683
0.00798010235
0.00802097502
0.00817190785
0.00817191112
0.0079883135
0.00802505778
0.00816947527
0.00816943801
0.00799802399
0.0080318405
0.00816726447
0.00816725175
0.00801253357
0.00804442643
0.00816549558
0.00816538837
0.0080352406
0.00806078397
0.00816422665
0.00816373818
0.00807246289
0.00807472822
0.00813612086
0.00816219519
0.0081193222
0.0080777608
0.00804395506
0.00816081441
0.00815940122
0.00808171825
0.00798622052
0.00815962935
0.00815679165
0.00808405293
0.00796565483
0.00815852819
0.00815504457
0.00808494258
0.00796933932
0.00815749544
0.00815396514
0.008085509
0.00797968417
0.00815657513
0.00815326423
0.00808622357
0.00799212869
0.00815553688
0.00815284336
0.00808658372
0.00800550543
0.00815461296
0.00815243575
0.00808703122
0.00801827276
0.00815379547
0.00815198183
0.00808768547
0.00803041802
0.00815309961
0.00815159421
0.00808847923
0.00804074817
0.00815253503
0.0081512804
0.0080893912
0.00804662304
0.00815210069
0.00815100402
0.00809040299
0.00804876475
0.00815178835
0.00815078506
0.00809146966
0.00805062937
0.00815158581
0.0081506499
0.00809254665
0.00805280385
0.00815148115
0.00815060618
0.00809362637
0.00805556245
0.00815146446
0.0081506584
0.00809476095
0.00805875207
0.00815152686
0.00815079777
0.00809600077
0.00806222176
0.00815166052
0.00815101438
0.00809738517
0.00806583701
0.00815185836
0.00815129772
0.00809894099
0.00806938176
0.00815211539
0.0081516256
0.00810066586
0.00807325098
0.0081524265
0.00815199905
0.00810259573
0.00807764744
0.00815278818
0.00815241567
0.00810470457
0.00808221309
0.00815319328
0.00815287336
0.00810694081
0.00808686169
0.00815363631
0.00815336609
0.00810925933
0.00809143218
0.0081541121
0.00815388768
0.00811169796
0.00809584295
0.00815461515
0.00815443246
0.00811421045
0.00810007334
0.0081551409
0.0081549951
0.00811679376
0.00810412386
0.00815568177
0.00815557052
0.0081194426
0.00810800043
0.00815622703
0.00815614456
0.008122103
0.00811170501
0.0081567812
0.00815672421
0.00812470844
0.00811523785
0.00815734019
0.00815730575
0.00812723708
0.00811860011
0.00815790041
0.00815788582
0.00812967784
0.00812179551
0.00815845857
0.00815846134
0.00813202405
0.0081248283
0.0081590117
0.00815902949
0.0081342718
0.0081277031
0.00815955714
0.00815958778
0.0081364192
0.00813042475
0.00816009248
0.00816013398
0.00813846486
0.00813299935
0.00816061557
0.00816066624
0.00814041165
0.00813543049
0.00816112489
0.00816118263
0.00814225897
0.00813772576
0.00816161857
0.00816168209
0.00814401289
0.00813988736
0.00816209571
0.00816216309
0.00814567028
0.00814192657
0.00816255571
0.00816262433
0.00814724013
0.00814384316
0.00816299626
0.00816306647
0.00814872667
0.00814564187
0.00816341743
0.00816348838
0.00815012856
0.00814733234
0.00816381896
0.00816388965
0.00815144766
0.0081489215
0.00816420064
0.00816427011
0.00815268545
0.00815041685
0.00816456243
0.00816462974
0.00815384316
0.00815182635
0.0081649045
0.00816496862
0.00815492194
0.00815315819
0.0081652272
0.00816528687
0.00815592292
0.00815442061
0.00816553108
0.00816558465
0.00815684727
0.0081556218
0.00816581678
0.00816586224
0.00815769538
0.00815677067
0.00816608489
0.00816612018
0.0081584551
0.0081578886
0.00816633574
0.00816635948
0.00815909678
0.00815901337
0.00816656935
0.00816658055
0.00815961359
0.00816012286
0.00816678537
0.00816678203
0.00815999848
0.0081610468
0.00816698351
0.00816697287
0.00816054362
0.00816162966
0.00816716251
0.0081671534
0.00816119782
0.00816222999
0.00816732997
0.00816732013
0.00816182019
0.00816279359
0.00816748454
0.0081674744
0.00816240994
0.00816332562
0.00816762653
0.00816761628
0.00816295573
0.00816382272
0.00816775666
0.00816774655
0.00816346639
0.00816427871
0.00816787557
0.00816786578
0.00816395259
0.00816469854
0.00816798453
0.00816797443
0.00816440121
0.00816507573
0.0081680835
0.00816807391
0.00816484541
0.00816542687
0.00816817338
0.00816816515
0.00816525258
0.00816572386
0.00816825578
0.00816825016
0.00816565535
0.00816604012
0.00816833679
0.00816833447
0.00816616059
0.00816651725
0.00816803154
0.00816821345
0.00816706235
0.00816733875
0.00816750794
0.00816774597
0.00816754531
0.00816777546
0.00816766602
0.00816788096
0.00816778374
0.00816798314
0.00816790431
0.00816809383
0.00816802873
0.00816820404
0.00816815592
0.00816831311
0.00816828292
0.00816841932
0.00816840693
0.00816852051
0.00816852501
0.00816861473
0.00816863412
0.0081687007
0.00816873143
0.00816877766
0.00816881137
0.00816884602
0.00816887807
0.00816890024
0.00816890385
0.00816890612
0.00816890763
0.00816890845
0.00816890888
0.00816890905
0.00816890908
0.00816890907
0.00816890904
0.00816890901
0.00816890899
0.00816890898
0.00816890897
0.00816890897
0.00816890897
0.00816890897
0.00816890897
0.00816890897
0.00816890897
0.00816890897
0.00816890897
0.00816890897
0.00816890897
0.00816890897
0.00816890897
0.00816890897
0.00816890897
0.00816890897
0.00816890897
0.00816890897
0.00816890897
0.00816890897
0.00816890897
0.00816890897
0.00816890897
0.00816890897
0.00816890897
0.00816890897
0.00816890897
0.00816890897
0.00816890897
0.00816890897
0.00816890897
0.00816890897
0.00816890897
)
;

boundaryField
{
    closed
    {
        type            calculated;
        value           nonuniform List<scalar> 0();
    }
    open
    {
        type            calculated;
        value           uniform 0.00816890897;
    }
    sides
    {
        type            empty;
    }
    procBoundary5to4
    {
        type            processor;
        value           uniform 0.00743985152;
    }
}


// ************************************************************************* //
