/*--------------------------------*- C++ -*----------------------------------*\
| =========                 |                                                 |
| \\      /  F ield         | OpenFOAM: The Open Source CFD Toolbox           |
|  \\    /   O peration     | Version:  2306                                  |
|   \\  /    A nd           | Website:  www.openfoam.com                      |
|    \\/     M anipulation  |                                                 |
\*---------------------------------------------------------------------------*/
FoamFile
{
    version     2.0;
    format      ascii;
    arch        "LSB;label=32;scalar=64";
    class       volScalarField;
    location    "0.00102";
    object      prefDh_H;
}
// * * * * * * * * * * * * * * * * * * * * * * * * * * * * * * * * * * * * * //

dimensions      [1 1 -3 0 0 0 0];

internalField   nonuniform List<scalar> 
530
(
82013.4004
82566.928
82555.3299
82185.5214
82234.0164
82742.4887
82750.1458
82567.1683
82414.7102
82658.8799
82947.1488
82978.7224
82583.2651
82638.3996
83108.6295
83131.918
82765.1548
82797.5295
83271.9903
83275.6799
82928.7854
82976.0848
83423.9401
83433.0149
83088.5623
83140.4222
83573.6244
83589.6135
83240.4225
83294.417
83733.2746
83749.3508
83389.9146
83441.6379
83774.8272
83825.4913
83615.5807
83632.887
83798.2326
83843.7123
83900.8727
83903.4698
83722.8327
83805.7436
84148.2133
84122.2908
83820.4588
83883.0101
84215.7043
84277.8729
83931.1215
83993.9621
84318.5001
84381.2291
84050.5722
84110.8273
84431.028
84491.6066
84169.3693
84228.3418
84543.5777
84603.4487
84286.8554
84345.7997
84660.98
84713.6944
84403.5778
84462.8578
84780.0962
84827.7381
84530.8839
84582.1392
84901.8546
84945.2765
84657.0585
84709.3156
85024.2611
85066.2891
84782.388
84837.8548
85146.6107
85189.7924
84907.9866
84967.5211
85269.5057
85314.4992
85034.9178
85098.1013
85393.6166
85440.3095
85163.8283
85229.6378
85522.7577
85567.7006
85298.1231
85362.0576
85655.4843
85699.5885
85437.4905
85499.595
85791.0011
85835.3256
85579.3466
85640.3701
85929.2613
85974.2631
85723.3066
85783.0428
86069.5969
86113.6407
85869.3248
85927.7993
86211.9089
86255.2407
86017.3238
86074.7684
86356.6079
86399.3024
86166.4835
86223.9763
86503.501
86545.5231
86316.9809
86374.1021
86652.4203
86693.1159
86469.5655
86525.3089
86803.6252
86841.9011
86623.8727
86678.4285
86956.4012
86992.2975
86779.7026
86832.9202
87109.1048
87144.0626
86937.1198
86988.3963
87263.3466
87297.0969
87096.2478
87143.9499
87409.7606
87448.3079
87244.5423
87297.109
87552.3464
87592.1316
87389.3687
87441.1035
87692.4201
87732.5357
87533.6998
87584.3819
87832.035
87870.4508
87677.5127
87726.6038
87971.9588
88005.9913
87820.4245
87867.8081
88111.726
88139.6629
87962.787
88007.4863
88251.1025
88272.3847
88105.0377
88146.669
88391.6832
88406.0695
88248.4304
88286.5926
88534.5735
88545.1362
88396.5613
88433.413
88679.0169
88687.8838
88550.2702
88581.9825
88832.18
88831.8848
88718.6429
88729.1246
88938.8748
88971.9518
88959.491
88863.5123
88871.7062
89103.1258
89127.4012
88994.4188
88919.3704
89232.4599
89156.6636
89117.557
89011.0927
89351.0379
89239.6455
89233.5718
89125.6084
89460.3955
89348.7776
89345.5866
89243.6534
89565.4295
89464.1101
89454.2795
89359.6378
89665.2369
89576.3847
89558.0521
89473.3695
89760.2678
89685.778
89658.3015
89582.3151
89851.6735
89790.93
89754.923
89686.6389
89939.5982
89891.6851
89847.7273
89784.9292
90024.0924
89985.9036
89936.6335
89875.9552
90105.3209
90071.2371
90021.6423
89961.4747
90183.2794
90150.0491
90102.7344
90042.4557
90257.8168
90225.0826
90179.8822
90120.2609
90328.816
90297.8506
90253.1416
90195.5512
90396.2691
90367.901
90322.7196
90268.0275
90460.2673
90435.0958
90388.8313
90337.442
90520.9338
90499.3004
90451.6758
90403.6124
90578.3932
90560.3717
90511.4118
90466.3466
90632.7577
90618.4167
90568.1377
90526.5523
90684.1085
90670.5399
90621.9322
90584.3354
90732.3794
90719.8951
90672.824
90639.3421
90777.7191
90766.5441
90720.8757
90691.4857
90820.336
90810.5431
90766.1461
90740.6056
90860.3769
90851.8578
90808.7502
90786.6534
90897.9201
90890.502
90848.8503
90829.67
90933.0623
90926.5318
90886.5631
90869.7596
90965.9085
90960.0398
90921.9948
90907.0501
90996.4745
90991.0638
90955.1353
90941.6648
91024.8246
91019.783
90985.9463
90973.7254
91051.0297
91046.3063
91014.4967
91003.356
91075.1902
91070.7457
91040.8807
91030.6862
91097.4108
91093.2149
91065.2018
91055.8453
91117.7986
91113.8266
91087.5685
91078.9607
91136.46
91132.6927
91108.0914
91100.1576
91153.5013
91149.9225
91126.8779
91119.5623
91169.0248
91165.6251
91144.0454
91137.288
91183.1375
91179.9006
91159.6937
91153.4584
91195.9309
91192.8571
91173.9466
91168.1689
91207.508
91204.5851
91186.8753
91181.5558
91217.9659
91215.1741
91198.6031
91193.6973
91227.3854
91224.7195
91209.2331
91204.6832
91235.8502
91233.3059
91218.8382
91214.6202
91243.4404
91241.0127
91227.4999
91223.5985
91250.2298
91247.9171
91235.2937
91231.7049
91256.2876
91254.0914
91242.29
91239.0219
91261.6781
91259.6041
91248.5538
91245.6279
91266.4603
91264.5197
91254.1434
91251.5985
91270.6866
91268.9005
91259.1116
91257.0056
91274.4038
91272.8058
91263.5045
91261.9191
91277.6426
91276.3021
91267.3297
91266.4389
91280.4188
91279.4612
91270.5479
91270.7011
91282.7729
91282.2827
91273.1923
91274.6702
91284.7472
91284.4774
91275.2738
91277.9616
91286.3188
91286.4841
91277.5445
91280.2519
91287.8311
91288.2098
91279.8998
91282.4383
91289.3664
91289.7312
91282.0223
91284.3957
91290.7234
91291.0706
91283.9337
91286.1533
91291.911
91292.2393
91285.6253
91287.7189
91292.9419
91293.2493
91287.1362
91289.0922
91293.8464
91294.1165
91288.5072
91290.2973
91294.6343
91294.8527
91289.7194
91291.3321
91295.3247
91295.4723
91290.8638
91292.2487
91295.9626
91295.988
91291.8724
91292.9878
91296.5091
91296.4959
91292.8441
91293.749
91297.2034
91297.1861
91294.0767
91294.9098
91298.6454
91299.0634
91296.2426
91296.8782
91297.2568
91297.7923
91297.272
91297.7791
91297.4726
91297.9324
91297.6493
91298.0593
91297.8158
91298.1873
91297.9699
91298.2973
91298.1129
91298.3902
91298.2409
91298.4663
91298.3526
91298.5268
91298.4488
91298.575
91298.5321
91298.6166
91298.6072
91298.6591
91298.6745
91298.7118
91298.7376
91298.7239
91298.634
91298.5653
91298.5154
91298.4811
91298.4585
91298.4446
91298.4364
91298.432
91298.4297
91298.4286
91298.4281
91298.4279
91298.4278
91298.4278
91298.4278
91298.4278
91298.4278
91298.4278
91298.4278
91298.4278
91298.4278
91298.4278
91298.4278
91298.4278
91298.4278
91298.4278
91298.4278
91298.4278
91298.4278
91298.4278
91298.4278
91298.4278
91298.4278
91298.4278
91298.4278
91298.4278
91298.4278
91298.4278
91298.4278
91298.4278
91298.4278
91298.4278
91298.4278
91298.4278
91298.4278
)
;

boundaryField
{
    closed
    {
        type            calculated;
        value           nonuniform List<scalar> 0();
    }
    open
    {
        type            calculated;
        value           uniform 91298.4278;
    }
    sides
    {
        type            empty;
    }
    procBoundary5to4
    {
        type            processor;
        value           uniform 81986.2175;
    }
}


// ************************************************************************* //
