/*--------------------------------*- C++ -*----------------------------------*\
| =========                 |                                                 |
| \\      /  F ield         | OpenFOAM: The Open Source CFD Toolbox           |
|  \\    /   O peration     | Version:  2306                                  |
|   \\  /    A nd           | Website:  www.openfoam.com                      |
|    \\/     M anipulation  |                                                 |
\*---------------------------------------------------------------------------*/
FoamFile
{
    version     2.0;
    format      ascii;
    arch        "LSB;label=32;scalar=64";
    class       volVectorField;
    location    "0.00102";
    object      U;
}
// * * * * * * * * * * * * * * * * * * * * * * * * * * * * * * * * * * * * * //

dimensions      [0 1 -1 0 0 0 0];

internalField   nonuniform List<vector> 
530
(
(0.240641811 0 0)
(0.236872015 0 0)
(0.33780029 0 0)
(0.28993722 0 0)
(0.161815476 0 0)
(0.197537507 0 0)
(0.333720965 0 0)
(0.356467013 0 0)
(0.278337666 0 0)
(0.200161793 0 0)
(0.227422268 0 0)
(0.365641487 0 0)
(0.380336657 0 0)
(0.248436915 0 0)
(0.219666601 0 0)
(0.337838204 0 0)
(0.350017366 0 0)
(0.244802157 0 0)
(0.244638197 0 0)
(0.356225081 0 0)
(0.363978626 0 0)
(0.261125028 0 0)
(0.261179187 0 0)
(0.371332896 0 0)
(0.380594735 0 0)
(0.275117714 0 0)
(0.271073873 0 0)
(0.383974157 0 0)
(0.393600307 0 0)
(0.280583008 0 0)
(0.276875506 0 0)
(0.403951059 0 0)
(0.415502922 0 0)
(0.291062588 0 0)
(0.258716572 0 0)
(0.356143965 0 0)
(0.400549698 0 0)
(0.349189098 0 0)
(0.320215124 0 0)
(0.334527289 0 0)
(0.361632211 0 0)
(0.396694437 0 0)
(0.375837521 0 0)
(0.303168782 0 0)
(0.343783527 0 0)
(0.456928198 0 0)
(0.454860669 0 0)
(0.344466842 0 0)
(0.324088555 0 0)
(0.427505088 0 0)
(0.450098151 0 0)
(0.356234825 0 0)
(0.337982708 0 0)
(0.432463147 0 0)
(0.454031267 0 0)
(0.365139112 0 0)
(0.348353756 0 0)
(0.439950505 0 0)
(0.460054132 0 0)
(0.372831932 0 0)
(0.356501908 0 0)
(0.445765368 0 0)
(0.464390871 0 0)
(0.380205666 0 0)
(0.36706114 0 0)
(0.454319359 0 0)
(0.46905735 0 0)
(0.38613574 0 0)
(0.375380533 0 0)
(0.461118972 0 0)
(0.47570692 0 0)
(0.394624781 0 0)
(0.384434198 0 0)
(0.468199724 0 0)
(0.481182065 0 0)
(0.401707289 0 0)
(0.393143009 0 0)
(0.47587649 0 0)
(0.487687401 0 0)
(0.408696692 0 0)
(0.400866622 0 0)
(0.483196905 0 0)
(0.49476553 0 0)
(0.416274749 0 0)
(0.408465328 0 0)
(0.489812573 0 0)
(0.501680851 0 0)
(0.425390671 0 0)
(0.417478372 0 0)
(0.496208032 0 0)
(0.507446026 0 0)
(0.433359066 0 0)
(0.426471352 0 0)
(0.503608485 0 0)
(0.514050329 0 0)
(0.441115065 0 0)
(0.434434085 0 0)
(0.510689453 0 0)
(0.521327573 0 0)
(0.449287244 0 0)
(0.442487435 0 0)
(0.518218186 0 0)
(0.528997175 0 0)
(0.457108889 0 0)
(0.450087842 0 0)
(0.525916512 0 0)
(0.537123348 0 0)
(0.465412735 0 0)
(0.457966785 0 0)
(0.532734474 0 0)
(0.54422457 0 0)
(0.474755516 0 0)
(0.467441423 0 0)
(0.539779098 0 0)
(0.551169866 0 0)
(0.48403689 0 0)
(0.476983053 0 0)
(0.547276377 0 0)
(0.55818911 0 0)
(0.492826146 0 0)
(0.486796702 0 0)
(0.556204866 0 0)
(0.565939986 0 0)
(0.500575755 0 0)
(0.49531989 0 0)
(0.565387853 0 0)
(0.574989201 0 0)
(0.509217777 0 0)
(0.504572839 0 0)
(0.575285428 0 0)
(0.584218389 0 0)
(0.517994899 0 0)
(0.513836088 0 0)
(0.584253818 0 0)
(0.593321174 0 0)
(0.528745517 0 0)
(0.524745954 0 0)
(0.59354102 0 0)
(0.602392734 0 0)
(0.539079187 0 0)
(0.535273045 0 0)
(0.603105973 0 0)
(0.614024222 0 0)
(0.553006136 0 0)
(0.547191211 0 0)
(0.611841624 0 0)
(0.621765456 0 0)
(0.562803545 0 0)
(0.558683718 0 0)
(0.622988849 0 0)
(0.632652539 0 0)
(0.573712467 0 0)
(0.568907697 0 0)
(0.632287579 0 0)
(0.64206329 0 0)
(0.584564023 0 0)
(0.579983045 0 0)
(0.641116708 0 0)
(0.650217587 0 0)
(0.595778952 0 0)
(0.59272742 0 0)
(0.650918839 0 0)
(0.657776837 0 0)
(0.606056633 0 0)
(0.605618356 0 0)
(0.661610198 0 0)
(0.665855249 0 0)
(0.61621735 0 0)
(0.618623604 0 0)
(0.673272762 0 0)
(0.675115674 0 0)
(0.626929755 0 0)
(0.632892452 0 0)
(0.688197002 0 0)
(0.687895362 0 0)
(0.638571756 0 0)
(0.646865895 0 0)
(0.705195373 0 0)
(0.705047249 0 0)
(0.6541249 0 0)
(0.664759437 0 0)
(0.728307922 0 0)
(0.727599481 0 0)
(0.671693941 0 0)
(0.684189083 0 0)
(0.754209026 0 0)
(0.746243504 0 0)
(0.680086553 0 0)
(0.682066771 0 0)
(0.747421813 0 0)
(0.784929207 0 0)
(0.76029296 0 0)
(0.690214165 0 0)
(0.683604362 0 0)
(0.76118671 0 0)
(0.762381157 0 0)
(0.696799507 0 0)
(0.702624343 0 0)
(0.755199554 0 0)
(0.732609804 0 0)
(0.687055408 0 0)
(0.716273936 0 0)
(0.760187876 0 0)
(0.728905163 0 0)
(0.691975865 0 0)
(0.728813882 0 0)
(0.770381315 0 0)
(0.738918312 0 0)
(0.702545312 0 0)
(0.73820311 0 0)
(0.780960126 0 0)
(0.753447438 0 0)
(0.716389127 0 0)
(0.747822437 0 0)
(0.790697975 0 0)
(0.767574517 0 0)
(0.72987806 0 0)
(0.757014911 0 0)
(0.80044896 0 0)
(0.781642241 0 0)
(0.743671986 0 0)
(0.766345574 0 0)
(0.809793077 0 0)
(0.795446262 0 0)
(0.757879386 0 0)
(0.776431245 0 0)
(0.819447378 0 0)
(0.809017093 0 0)
(0.771905931 0 0)
(0.786637872 0 0)
(0.828944666 0 0)
(0.821683089 0 0)
(0.785400904 0 0)
(0.797110962 0 0)
(0.837539666 0 0)
(0.831755657 0 0)
(0.797509727 0 0)
(0.807950412 0 0)
(0.845884801 0 0)
(0.840601555 0 0)
(0.808587383 0 0)
(0.818406308 0 0)
(0.853946548 0 0)
(0.84898358 0 0)
(0.818815764 0 0)
(0.827932272 0 0)
(0.861591183 0 0)
(0.857237333 0 0)
(0.828597196 0 0)
(0.836849248 0 0)
(0.868849456 0 0)
(0.865180188 0 0)
(0.837801171 0 0)
(0.845036624 0 0)
(0.875601368 0 0)
(0.872735326 0 0)
(0.846396808 0 0)
(0.852477265 0 0)
(0.881781525 0 0)
(0.87980837 0 0)
(0.854317431 0 0)
(0.859121705 0 0)
(0.88727287 0 0)
(0.886213681 0 0)
(0.861378695 0 0)
(0.864783686 0 0)
(0.891786801 0 0)
(0.891584886 0 0)
(0.867973862 0 0)
(0.870713035 0 0)
(0.895477301 0 0)
(0.895002863 0 0)
(0.873287987 0 0)
(0.875975823 0 0)
(0.89857026 0 0)
(0.897814074 0 0)
(0.877823178 0 0)
(0.880361099 0 0)
(0.900894169 0 0)
(0.899896914 0 0)
(0.881373381 0 0)
(0.883645973 0 0)
(0.902397483 0 0)
(0.901239309 0 0)
(0.883940411 0 0)
(0.885970682 0 0)
(0.903204454 0 0)
(0.901755828 0 0)
(0.885405641 0 0)
(0.88723811 0 0)
(0.903137132 0 0)
(0.901426225 0 0)
(0.88590691 0 0)
(0.88750704 0 0)
(0.902161286 0 0)
(0.900197015 0 0)
(0.885405922 0 0)
(0.88671929 0 0)
(0.900186958 0 0)
(0.898104048 0 0)
(0.884156249 0 0)
(0.885171156 0 0)
(0.897298106 0 0)
(0.895059441 0 0)
(0.882026453 0 0)
(0.882818986 0 0)
(0.893727021 0 0)
(0.891359118 0 0)
(0.879174327 0 0)
(0.879749262 0 0)
(0.889532781 0 0)
(0.887069053 0 0)
(0.875667412 0 0)
(0.87603363 0 0)
(0.884789104 0 0)
(0.88225396 0 0)
(0.871576128 0 0)
(0.871747077 0 0)
(0.879567172 0 0)
(0.876983267 0 0)
(0.866975922 0 0)
(0.866967544 0 0)
(0.873939319 0 0)
(0.871326479 0 0)
(0.861940862 0 0)
(0.86176993 0 0)
(0.867974121 0 0)
(0.865349945 0 0)
(0.856541396 0 0)
(0.856224371 0 0)
(0.861735369 0 0)
(0.859114947 0 0)
(0.850843047 0 0)
(0.850398102 0 0)
(0.855284447 0 0)
(0.852680654 0 0)
(0.844908522 0 0)
(0.844348747 0 0)
(0.848673106 0 0)
(0.846098254 0 0)
(0.838792797 0 0)
(0.838139588 0 0)
(0.841958124 0 0)
(0.839417314 0 0)
(0.832547173 0 0)
(0.831813499 0 0)
(0.835179165 0 0)
(0.832674961 0 0)
(0.82621041 0 0)
(0.825413256 0 0)
(0.828371237 0 0)
(0.825913818 0 0)
(0.819831599 0 0)
(0.818979355 0 0)
(0.821570768 0 0)
(0.819171511 0 0)
(0.813446633 0 0)
(0.812544737 0 0)
(0.81480665 0 0)
(0.812469332 0 0)
(0.807079091 0 0)
(0.806136479 0 0)
(0.808101254 0 0)
(0.805827516 0 0)
(0.80075044 0 0)
(0.799774902 0 0)
(0.801470808 0 0)
(0.799260609 0 0)
(0.794476406 0 0)
(0.793474721 0 0)
(0.794926255 0 0)
(0.792778023 0 0)
(0.788267661 0 0)
(0.787245914 0 0)
(0.788474252 0 0)
(0.786385141 0 0)
(0.782131036 0 0)
(0.781094891 0 0)
(0.78211835 0 0)
(0.780084678 0 0)
(0.776070775 0 0)
(0.775025414 0 0)
(0.775859516 0 0)
(0.773877409 0 0)
(0.770088809 0 0)
(0.769037985 0 0)
(0.769695035 0 0)
(0.767761228 0 0)
(0.764183456 0 0)
(0.763123693 0 0)
(0.763611148 0 0)
(0.761724708 0 0)
(0.758344518 0 0)
(0.757286581 0 0)
(0.757610116 0 0)
(0.755731349 0 0)
(0.752545966 0 0)
(0.751520174 0 0)
(0.751668026 0 0)
(0.749758489 0 0)
(0.746794788 0 0)
(0.745877837 0 0)
(0.745763833 0 0)
(0.743714112 0 0)
(0.741007814 0 0)
(0.740157115 0 0)
(0.739901147 0 0)
(0.737929553 0 0)
(0.7353443 0 0)
(0.73433648 0 0)
(0.733933794 0 0)
(0.73206078 0 0)
(0.729624586 0 0)
(0.72860175 0 0)
(0.728127458 0 0)
(0.726307982 0 0)
(0.723974256 0 0)
(0.722935171 0 0)
(0.722402069 0 0)
(0.720636738 0 0)
(0.718402664 0 0)
(0.71735838 0 0)
(0.716773994 0 0)
(0.715047619 0 0)
(0.712896726 0 0)
(0.71184367 0 0)
(0.711203654 0 0)
(0.709504007 0 0)
(0.707422198 0 0)
(0.706363922 0 0)
(0.705684511 0 0)
(0.704021393 0 0)
(0.702021187 0 0)
(0.700965126 0 0)
(0.700249115 0 0)
(0.698612108 0 0)
(0.696679474 0 0)
(0.695638176 0 0)
(0.694912021 0 0)
(0.693356192 0 0)
(0.691527783 0 0)
(0.690526151 0 0)
(0.689814513 0 0)
(0.688335251 0 0)
(0.686584311 0 0)
(0.685605145 0 0)
(0.684939916 0 0)
(0.683524274 0 0)
(0.681761383 0 0)
(0.680741214 0 0)
(0.680067858 0 0)
(0.678211781 0 0)
(0.675649671 0 0)
(0.674972656 0 0)
(0.675399159 0 0)
(0.674469695 0 0)
(0.672182288 0 0)
(0.670244061 0 0)
(0.66860769 0 0)
(0.666749249 0 0)
(0.664685576 0 0)
(0.662530181 0 0)
(0.660276442 0 0)
(0.657899339 0 0)
(0.655393119 0 0)
(0.652752967 0 0)
(0.649973491 0 0)
(0.647048635 0 0)
(0.643974457 0 0)
(0.640747413 0 0)
(0.637365893 0 0)
(0.633829077 0 0)
(0.630137984 0 0)
(0.626294447 0 0)
(0.622301746 0 0)
(0.618163531 0 0)
(0.613883925 0 0)
(0.609466376 0 0)
(0.604913076 0 0)
(0.600223857 0 0)
(0.595395226 0 0)
(0.590419797 0 0)
(0.585285849 0 0)
(0.579978796 0 0)
(0.574484661 0 0)
(0.568793801 0 0)
(0.562908433 0 0)
(0.55685783 0 0)
(0.550712676 0 0)
(0.544600801 0 0)
(0.538721252 0 0)
(0.533350426 0 0)
(0.528833238 0 0)
(0.525552785 0 0)
(0.523875646 0 0)
(0.524078286 0 0)
(0.526272873 0 0)
(0.530365925 0 0)
(0.53609335 0 0)
(0.543170413 0 0)
(0.551566495 0 0)
(0.561856754 0 0)
(0.575530949 0 0)
(0.595096068 0 0)
(0.623839463 0 0)
(0.665240088 0 0)
(0.722139293 0 0)
(0.795792413 0 0)
(0.884754919 0 0)
(0.983590377 0 0)
(1.08193695 0 0)
(1.16536915 0 0)
(1.21829755 0 0)
(1.22913835 0 0)
(1.19450537 0 0)
(1.12556307 0 0)
(1.04282883 0 0)
(0.970180822 0 0)
(0.901884074 0 0)
(0.842933305 0 0)
(0.808508883 0 0)
(0.843754691 0 0)
(0.883623696 0 0)
(0.910557187 0 0)
(0.851581751 0 0)
(0.819063282 0 0)
(0.778154098 0 0)
(0.830552434 0 0)
(0.850197915 0 0)
(0.874257556 0 0)
)
;

boundaryField
{
    closed
    {
        type            noSlip;
    }
    open
    {
        type            inletOutlet;
        inletValue      uniform (0 0 0);
        value           uniform (0.874257556 0 0);
    }
    sides
    {
        type            empty;
    }
    procBoundary5to4
    {
        type            processor;
        value           uniform (0.334075535 0 0);
    }
}


// ************************************************************************* //
