/*--------------------------------*- C++ -*----------------------------------*\
| =========                 |                                                 |
| \\      /  F ield         | OpenFOAM: The Open Source CFD Toolbox           |
|  \\    /   O peration     | Version:  2306                                  |
|   \\  /    A nd           | Website:  www.openfoam.com                      |
|    \\/     M anipulation  |                                                 |
\*---------------------------------------------------------------------------*/
FoamFile
{
    version     2.0;
    format      ascii;
    arch        "LSB;label=32;scalar=64";
    class       volScalarField;
    location    "0.0007";
    object      H;
}
// * * * * * * * * * * * * * * * * * * * * * * * * * * * * * * * * * * * * * //

dimensions      [0 0 0 0 0 0 0];

internalField   nonuniform List<scalar> 
531
(
1.07359941e-09
3.52272079e-08
4.66150953e-08
2.97506312e-08
1.09048176e-09
1.19436563e-09
3.32388558e-08
4.74211083e-08
2.83731969e-08
1.01949431e-09
1.40225597e-08
4.26783098e-08
2.87103471e-08
1.16138447e-09
1.24065992e-09
3.46696735e-08
4.39206205e-08
2.17959312e-08
2.0746644e-08
4.11912146e-08
2.65837094e-08
1.02600896e-09
1.40305643e-09
8.82707119e-09
3.83330873e-08
4.75294779e-08
2.78596464e-08
1.11200467e-09
6.60922996e-10
3.87114813e-08
4.95608712e-08
2.7138869e-08
1.02317843e-09
1.66238544e-08
4.56326664e-08
2.6636879e-08
1.07857616e-09
2.09169476e-08
4.56194e-08
2.78770585e-08
1.07295423e-09
1.39775858e-09
1.37722179e-08
4.02564923e-08
4.80601002e-08
2.82466622e-08
1.12501051e-09
7.27503699e-10
3.90270402e-08
4.91359539e-08
2.53732157e-08
1.07056784e-09
1.85032612e-08
4.47430479e-08
2.28885563e-08
1.15815802e-09
2.13445164e-08
4.36167683e-08
2.74626831e-08
1.24489524e-09
1.3566273e-09
2.58225646e-08
4.24525226e-08
4.46428063e-08
2.86304548e-08
1.19472497e-09
1.08031669e-09
3.83814103e-08
4.87529874e-08
2.32697792e-08
1.10458085e-09
2.0490167e-08
4.55150572e-08
2.10277475e-08
1.17259442e-09
2.5646563e-08
4.58270291e-08
2.42246442e-08
1.15364001e-09
1.3921872e-09
1.40113685e-08
4.09616981e-08
4.70487941e-08
2.52705988e-08
1.25312604e-09
1.31997474e-09
3.26715899e-08
3.99839103e-08
4.20151917e-08
4.76613141e-08
2.62152912e-08
9.47339873e-10
1.40545296e-09
4.09782816e-09
3.94002625e-08
4.78840022e-08
1.75679032e-08
1.14744e-09
2.3139859e-08
4.55625957e-08
1.84066507e-08
1.1806097e-09
2.2930632e-08
4.62913956e-08
3.20210807e-08
1.32405275e-09
1.3114633e-09
2.88776065e-08
4.96463074e-08
2.57168219e-08
1.12800596e-09
2.46131824e-08
4.65745269e-08
2.10070751e-08
1.1842892e-09
9.23837203e-09
4.33955111e-08
4.39668952e-08
1.51316392e-08
1.28593599e-09
1.06530665e-09
3.94033432e-08
4.70231817e-08
2.25417708e-08
1.22161639e-09
1.1714593e-09
3.96010969e-08
4.58043058e-08
2.48767622e-08
1.27686197e-09
1.04081429e-09
3.5330733e-08
4.89540409e-08
4.17905463e-08
1.05632226e-08
1.17851096e-08
4.42280812e-08
2.64376431e-08
1.23909939e-09
8.07385321e-10
4.32339148e-08
4.85431261e-08
1.39504546e-08
1.14598348e-09
2.62545399e-08
4.36085832e-08
1.150335e-08
1.21289982e-09
2.89598665e-08
4.29457005e-08
2.22454925e-08
1.35526631e-09
1.27634224e-09
2.95035601e-08
4.38320465e-08
4.39451673e-08
2.74389821e-08
1.18210371e-09
9.49680429e-10
4.68873188e-08
4.35668078e-08
1.10944277e-09
1.98548932e-08
4.76397487e-08
1.29676257e-08
1.12227593e-09
3.20734118e-08
4.48366118e-08
7.66514614e-09
1.17346381e-09
2.56364497e-08
4.46469833e-08
3.22092298e-08
1.35231308e-09
1.27153313e-09
2.86364319e-08
4.74111834e-08
2.3895946e-08
1.1406868e-09
2.49863266e-08
4.55746596e-08
2.24874921e-08
1.26057825e-09
1.17101088e-09
4.21157148e-08
4.95067492e-08
2.12404679e-08
1.10037495e-09
2.61908925e-08
4.50760032e-08
2.20126841e-08
1.27676126e-09
1.16309786e-09
4.15248132e-08
4.9293318e-08
2.31374172e-08
1.11277862e-09
2.28209657e-08
4.49610438e-08
2.72988805e-08
1.33779239e-09
1.2416821e-09
3.48021573e-08
4.6298809e-08
2.69492814e-08
1.26414955e-09
1.14562973e-09
4.1064227e-08
4.88803182e-08
3.45678539e-08
1.28489329e-09
1.25067904e-09
2.86198724e-08
4.40443378e-08
2.56896057e-08
1.26412729e-09
1.13210726e-09
4.35373238e-08
5.03728652e-08
2.97518087e-08
1.18419884e-09
1.13812346e-09
4.37767576e-08
4.94385238e-08
3.0054518e-08
1.27950661e-09
1.20635508e-09
3.73346985e-08
4.68474313e-08
2.39414827e-08
1.15088067e-09
2.03150681e-08
4.35598979e-08
2.50028562e-08
1.28078643e-09
1.15544008e-09
4.15737284e-08
4.78705549e-08
2.86237199e-08
1.28753854e-09
1.18984828e-09
3.76378387e-08
4.7839695e-08
2.80056802e-08
1.12626976e-09
1.75728731e-08
4.62159472e-08
2.17846223e-08
1.13805873e-09
2.49904897e-08
4.54580956e-08
1.73250933e-08
1.16340292e-09
2.52716988e-08
4.38050719e-08
2.38876214e-08
1.2863103e-09
1.16216889e-09
4.24493304e-08
4.86037699e-08
2.20061693e-08
1.11200627e-09
2.59088536e-08
4.46488366e-08
1.04191131e-08
1.16329653e-09
2.86411567e-08
4.40208308e-08
2.31409902e-08
1.28541107e-09
1.15352298e-09
4.26715459e-08
4.92873082e-08
2.81685615e-08
1.12009211e-09
1.06350878e-09
4.83192287e-08
4.7093999e-08
8.87392487e-10
7.32804577e-10
4.77480515e-08
3.37258054e-08
1.33721997e-09
1.15319571e-09
3.35615132e-08
5.05860229e-08
3.43492694e-08
1.02161592e-09
1.46004563e-09
8.40357264e-10
3.98771996e-08
5.38309874e-08
3.0104834e-08
1.08849728e-09
1.415574e-09
1.04830879e-08
3.74640284e-08
4.43077425e-08
4.60271269e-08
3.57249509e-08
1.18483182e-09
4.33087363e-10
4.69616813e-08
4.31514762e-08
1.3166537e-09
1.21466523e-09
2.35151528e-08
4.48882612e-08
3.09385602e-08
1.30958125e-09
1.24173525e-09
4.12073321e-08
4.9836614e-08
3.02814117e-08
1.1718809e-09
1.1888253e-08
4.40486181e-08
2.93895522e-08
1.32069934e-09
1.2864339e-09
3.86593427e-08
4.71215528e-08
3.15225339e-08
1.33128955e-09
1.32447627e-09
3.5504215e-08
4.52845701e-08
3.08153024e-08
1.32352784e-09
1.33025139e-09
3.77325948e-08
4.53708691e-08
2.98752518e-08
1.32209732e-09
1.32588309e-09
3.74055038e-08
4.59617171e-08
3.14282125e-08
1.31312012e-09
1.33260981e-09
3.78255186e-08
4.62210139e-08
3.18954815e-08
1.32605405e-09
1.34551385e-09
3.64644825e-08
4.50312876e-08
3.15656244e-08
1.33599001e-09
1.35406343e-09
3.49391305e-08
4.46218391e-08
3.17468603e-08
1.32442344e-09
1.32331686e-09
3.70340821e-08
4.79895495e-08
3.63942403e-08
1.29386928e-09
1.32412005e-09
3.71309497e-08
4.7435963e-08
3.57017136e-08
1.30025285e-09
1.34856945e-09
3.47190009e-08
4.54265564e-08
3.38433156e-08
1.23859441e-09
1.30153011e-09
4.14865086e-08
3.77636709e-08
1.36013853e-09
1.27072052e-09
3.47731748e-08
4.96990944e-08
3.21319673e-08
1.03574922e-09
1.48999841e-09
1.13374644e-09
3.32813696e-08
4.48040198e-08
3.90938022e-08
4.64808839e-08
3.62286015e-08
1.11978236e-09
1.38188354e-09
1.50496075e-08
4.22485412e-08
3.68481105e-08
1.22200053e-09
9.45084505e-10
4.30034912e-08
4.0859671e-08
1.27263037e-09
1.25202453e-09
3.29595446e-08
4.82171776e-08
3.92312251e-08
1.10685759e-09
1.12706372e-09
4.25103355e-08
4.11870827e-08
1.24701925e-09
1.23854036e-09
3.20105376e-08
4.8965157e-08
4.04139478e-08
1.06253617e-09
9.50759679e-10
4.45346847e-08
3.90679216e-08
1.11784322e-09
1.38477224e-09
4.28806923e-08
3.95374297e-08
1.19692885e-09
1.30990147e-09
2.96604794e-08
4.47505367e-08
3.72058109e-08
1.13811349e-09
1.37989128e-09
2.72731645e-08
4.1555545e-08
4.56020546e-08
4.15376126e-08
9.7647848e-10
1.33008698e-09
1.17937521e-08
4.17673806e-08
4.12969993e-08
1.07267596e-09
1.22940707e-09
2.2580786e-08
4.80817165e-08
3.97967607e-08
7.6610436e-10
1.40934435e-09
1.00983246e-09
3.30358122e-08
4.58152668e-08
4.73768618e-08
4.66367135e-08
8.74104085e-10
1.2257173e-09
1.56264566e-08
4.27454773e-08
4.19989653e-08
1.13514952e-09
1.25411617e-09
2.70421551e-08
4.63244278e-08
4.0531568e-08
1.01532011e-09
1.089037e-09
4.05743586e-08
4.13774862e-08
9.99028263e-10
1.227324e-09
2.75114577e-08
4.79264139e-08
4.23171401e-08
9.68882517e-10
1.03663706e-09
4.13923256e-08
4.19759137e-08
9.98786734e-10
1.21828313e-09
2.75143353e-08
4.89016132e-08
4.31223835e-08
9.27339261e-10
6.24826493e-10
4.42291281e-08
3.41916015e-08
1.01364546e-09
6.25205071e-09
4.25061085e-08
3.98572307e-08
1.05440925e-09
1.27340429e-09
2.58509113e-08
4.75414818e-08
3.68449241e-08
8.80719881e-10
2.3129666e-08
4.53872374e-08
2.93848679e-09
1.10514106e-09
4.09915297e-08
4.31320634e-08
5.0878127e-10
1.20009909e-09
8.58973385e-09
4.41842226e-08
4.45453572e-08
1.03064341e-09
1.29559649e-09
8.18933989e-09
3.46013887e-08
4.93043429e-08
4.77901431e-08
8.91924117e-10
1.16210328e-09
2.66002e-08
4.85798439e-08
4.10674355e-08
8.59790001e-10
3.19961504e-09
4.34974536e-08
3.79505107e-08
1.01213682e-09
1.27385968e-09
2.57376581e-08
4.80841954e-08
3.65521453e-08
8.43338256e-10
2.56840718e-08
4.50714585e-08
5.22254068e-10
1.19115436e-09
3.88672652e-08
4.18058669e-08
6.35130198e-10
1.21737804e-09
2.28530084e-08
4.55681533e-08
4.37069646e-08
9.11335729e-10
1.23961415e-09
)
;

boundaryField
{
    closed
    {
        type            calculated;
        value           nonuniform List<scalar> 0();
    }
    open
    {
        type            calculated;
        value           nonuniform List<scalar> 0();
    }
    sides
    {
        type            empty;
    }
    procBoundary1to0
    {
        type            processor;
        value           uniform 1.17887382e-09;
    }
    procBoundary1to2
    {
        type            processor;
        value           uniform 2.28811371e-08;
    }
}


// ************************************************************************* //
