/*--------------------------------*- C++ -*----------------------------------*\
| =========                 |                                                 |
| \\      /  F ield         | OpenFOAM: The Open Source CFD Toolbox           |
|  \\    /   O peration     | Version:  2306                                  |
|   \\  /    A nd           | Website:  www.openfoam.com                      |
|    \\/     M anipulation  |                                                 |
\*---------------------------------------------------------------------------*/
FoamFile
{
    version     2.0;
    format      ascii;
    arch        "LSB;label=32;scalar=64";
    class       volScalarField;
    location    "0.00022";
    object      p;
}
// * * * * * * * * * * * * * * * * * * * * * * * * * * * * * * * * * * * * * //

dimensions      [1 -1 -2 0 0 0 0];

internalField   nonuniform List<scalar> 
531
(
101532.258
101531.824
101531.382
101530.936
101530.486
101530.03
101529.569
101529.102
101528.631
101528.155
101527.675
101527.189
101526.699
101526.204
101525.705
101525.201
101524.693
101524.181
101523.664
101523.144
101522.619
101522.091
101521.559
101521.024
101520.485
101519.942
101519.396
101518.847
101518.295
101517.74
101517.182
101516.622
101516.058
101515.492
101514.924
101514.354
101513.781
101513.207
101512.63
101512.052
101511.472
101510.891
101510.308
101509.725
101509.14
101508.554
101507.967
101507.38
101506.792
101506.204
101505.616
101505.028
101504.439
101503.851
101503.264
101502.677
101502.09
101501.505
101500.92
101500.336
101499.754
101499.174
101498.594
101498.017
101497.442
101496.868
101496.297
101495.728
101495.162
101494.598
101494.038
101493.48
101492.925
101492.374
101491.826
101491.282
101490.742
101490.206
101489.673
101489.145
101488.621
101488.102
101487.588
101487.078
101486.574
101486.075
101485.581
101485.092
101484.609
101484.132
101483.661
101483.195
101482.736
101482.284
101481.838
101481.398
101480.965
101480.54
101480.121
101479.71
101479.306
101478.909
101478.52
101478.139
101477.765
101477.4
101477.043
101476.694
101476.354
101476.022
101475.699
101475.385
101475.08
101474.784
101474.497
101474.219
101473.951
101473.693
101473.444
101473.205
101472.976
101472.757
101472.548
101472.35
101472.162
101471.984
101471.817
101471.661
101471.516
101471.381
101471.258
101471.146
101471.045
101470.956
101470.878
101470.812
101470.757
101470.715
101470.684
101470.665
101470.658
101470.664
101470.681
101470.711
101470.754
101470.809
101470.876
101470.957
101471.05
101471.156
101471.274
101471.406
101471.551
101471.709
101471.881
101472.065
101472.263
101472.475
101472.7
101472.938
101473.19
101473.456
101473.735
101474.028
101474.335
101474.655
101474.99
101475.338
101475.7
101476.076
101476.467
101476.871
101477.289
101477.72
101478.166
101478.626
101479.1
101479.588
101480.09
101480.606
101481.135
101481.679
101482.236
101482.807
101483.392
101483.991
101484.603
101485.229
101485.868
101486.521
101487.187
101487.866
101488.558
101489.264
101489.982
101490.713
101491.457
101492.214
101492.982
101493.763
101494.556
101495.361
101496.178
101497.006
101497.846
101498.697
101499.558
101500.431
101501.314
101502.207
101503.11
101504.023
101504.946
101505.877
101506.818
101507.767
101508.725
101509.691
101510.664
101511.645
101512.633
101513.627
101514.628
101515.635
101516.648
101517.665
101518.688
101519.715
101520.746
101521.78
101522.818
101523.859
101524.901
101525.946
101526.992
101528.039
101529.086
101530.133
101531.18
101532.226
101533.27
101534.312
101535.352
101536.388
101537.421
101538.45
101539.474
101540.493
101541.506
101542.513
101543.513
101544.506
101545.49
101546.467
101547.434
101548.391
101549.338
101550.275
101551.2
101552.114
101553.015
101553.903
101554.777
101555.638
101556.484
101557.314
101558.129
101558.928
101559.71
101560.475
101561.222
101561.95
101562.66
101563.351
101564.021
101564.672
101565.302
101565.91
101566.497
101567.062
101567.604
101568.123
101568.619
101569.092
101569.54
101569.964
101570.362
101570.736
101571.085
101571.407
101571.704
101571.974
101572.217
101572.434
101572.624
101572.786
101572.921
101573.029
101573.108
101573.16
101573.183
101573.179
101573.146
101573.085
101572.996
101572.879
101572.733
101572.558
101572.356
101572.125
101571.867
101571.58
101571.265
101570.923
101570.552
101570.155
101569.73
101569.279
101568.8
101568.295
101567.764
101567.207
101566.624
101566.016
101565.383
101564.726
101564.044
101563.339
101562.611
101561.86
101561.086
101560.291
101559.474
101558.637
101557.779
101556.901
101556.005
101555.09
101554.157
101553.206
101552.24
101551.257
101550.258
101549.245
101548.219
101547.179
101546.126
101545.062
101543.986
101542.901
101541.806
101540.702
101539.59
101538.471
101537.346
101536.215
101535.08
101533.941
101532.799
101531.654
101530.509
101529.363
101528.217
101527.073
101525.93
101524.791
101523.656
101522.525
101521.4
101520.282
101519.171
101518.069
101516.975
101515.892
101514.819
101513.759
101512.711
101511.676
101510.656
101509.651
101508.662
101507.69
101506.736
101505.8
101504.883
101503.987
101503.112
101502.258
101501.427
101500.618
101499.834
101499.075
101498.34
101497.632
101496.951
101496.296
101495.67
101495.072
101494.504
101493.965
101493.456
101492.979
101492.532
101492.118
101491.735
101491.385
101491.069
101490.785
101490.536
101490.32
101490.139
101489.993
101489.881
101489.805
101489.763
101489.757
101489.787
101489.852
101489.953
101490.089
101490.261
101490.468
101490.71
101490.988
101491.301
101491.649
101492.031
101492.448
101492.898
101493.383
101493.9
101494.45
101495.032
101495.646
101496.291
101496.967
101497.672
101498.407
101499.17
101499.961
101500.779
101501.623
101502.491
101503.384
101504.3
101505.238
101506.198
101507.177
101508.175
101509.191
101510.223
101511.27
101512.331
101513.404
101514.489
101515.583
101516.685
101517.795
101518.909
101520.027
101521.148
101522.268
101523.388
101524.505
101525.618
101526.724
101527.822
101528.911
101529.989
101531.053
101532.103
101533.136
101534.15
101535.144
101536.116
101537.064
101537.986
101538.881
101539.746
101540.58
101541.381
101542.148
101542.878
101543.57
101544.222
101544.833
101545.401
101545.924
101546.401
101546.83
101547.21
101547.54
101547.818
101548.044
101548.216
101548.334
101548.398
101548.406
101548.358
101548.252
101548.095
101547.89
101547.627
101547.304
101546.941
101546.545
101546.114
101545.612
101545.119
101544.576
101544.205
101543.211
101542.214
101541.114
101539.994
101538.885
101537.784
101536.491
101535.044
101533.588
101532.136
101530.676
101529.006
101527.269
101525.697
101524.132
101522.345
101520.562
101518.922
101517.1
101515.217
)
;

boundaryField
{
    closed
    {
        type            zeroGradient;
    }
    open
    {
        type            waveTransmissive;
        gamma           1.25;
        fieldInf        101325;
        lInf            1;
        value           nonuniform List<scalar> 0();
    }
    sides
    {
        type            empty;
    }
    procBoundary3to2
    {
        type            processor;
        value           uniform 101532.685;
    }
    procBoundary3to4
    {
        type            processor;
        value           uniform 101513.258;
    }
}


// ************************************************************************* //
