/*--------------------------------*- C++ -*----------------------------------*\
| =========                 |                                                 |
| \\      /  F ield         | OpenFOAM: The Open Source CFD Toolbox           |
|  \\    /   O peration     | Version:  2306                                  |
|   \\  /    A nd           | Website:  www.openfoam.com                      |
|    \\/     M anipulation  |                                                 |
\*---------------------------------------------------------------------------*/
FoamFile
{
    version     2.0;
    format      ascii;
    arch        "LSB;label=32;scalar=64";
    class       volScalarField;
    location    "0.00022";
    object      Z;
}
// * * * * * * * * * * * * * * * * * * * * * * * * * * * * * * * * * * * * * //

dimensions      [0 0 0 0 0 0 0];

internalField   nonuniform List<scalar> 
531
(
0.0144605394
0.0144524129
0.0144602942
0.0144677171
0.014463888
0.0144582216
0.0144597763
0.0144635398
0.0144630646
0.0144608428
0.0144609188
0.0144620602
0.0144620585
0.014461614
0.0144615989
0.0144617189
0.0144617129
0.0144616794
0.0144617368
0.0144617647
0.0144616853
0.0144616352
0.0144616957
0.014461773
0.0144617524
0.0144616574
0.0144616578
0.0144617235
0.0144617432
0.0144617126
0.0144616914
0.014461698
0.0144617011
0.0144617013
0.014461729
0.0144617359
0.0144616805
0.0144616508
0.0144617205
0.0144617903
0.0144617263
0.0144616012
0.0144616321
0.0144618262
0.0144618246
0.0144616162
0.0144615569
0.014461737
0.014461874
0.0144617579
0.0144615454
0.0144615797
0.014461834
0.0144618518
0.0144616647
0.0144615801
0.0144616692
0.0144617831
0.014461774
0.0144617132
0.0144616701
0.014461644
0.0144616602
0.0144617866
0.0144618208
0.0144616694
0.0144615512
0.01446167
0.0144618733
0.0144618215
0.0144615574
0.0144615621
0.0144617991
0.0144618431
0.0144616769
0.0144616004
0.0144616971
0.0144617741
0.0144617283
0.0144616762
0.0144616948
0.0144617165
0.0144617006
0.0144616981
0.0144617331
0.0144617309
0.0144616653
0.0144616655
0.0144617496
0.0144617624
0.0144616755
0.0144616449
0.0144617202
0.0144617667
0.0144617111
0.0144616563
0.0144616916
0.0144617457
0.0144617256
0.014461678
0.0144616893
0.0144617307
0.0144617238
0.0144616838
0.0144616866
0.0144617314
0.0144617312
0.014461685
0.0144616785
0.0144617225
0.0144617383
0.0144617007
0.0144616744
0.0144617013
0.0144617385
0.0144617274
0.0144616775
0.014461678
0.0144617239
0.0144617415
0.0144617078
0.0144616682
0.0144616852
0.0144617474
0.0144617447
0.0144616718
0.0144616588
0.0144617296
0.0144617637
0.0144617003
0.0144616417
0.0144616915
0.0144617799
0.0144617537
0.0144616286
0.0144616322
0.0144617712
0.0144618026
0.0144616789
0.0144615971
0.014461684
0.0144618181
0.014461786
0.0144616076
0.0144616069
0.014461759
0.0144618072
0.0144617061
0.0144616205
0.0144616685
0.014461772
0.0144617619
0.0144616656
0.0144616564
0.0144617253
0.0144617528
0.0144617013
0.014461658
0.0144617001
0.0144617673
0.0144617376
0.0144616322
0.0144616404
0.014461784
0.0144618044
0.0144616601
0.0144615862
0.0144616982
0.0144618335
0.0144617839
0.0144615935
0.014461597
0.0144617674
0.014461819
0.0144617091
0.0144616099
0.0144616567
0.0144617811
0.0144617741
0.0144616634
0.0144616436
0.01446172
0.0144617636
0.0144617168
0.0144616566
0.0144616768
0.0144617492
0.0144617469
0.0144616847
0.0144616679
0.0144617019
0.0144617362
0.0144617301
0.0144616952
0.0144616838
0.0144616994
0.0144617235
0.0144617195
0.014461696
0.0144616979
0.014461721
0.0144617161
0.0144616786
0.014461684
0.0144617544
0.0144617539
0.0144616501
0.0144616327
0.0144617546
0.0144618047
0.0144616856
0.0144615948
0.0144616903
0.0144618218
0.0144617632
0.0144616016
0.0144616178
0.0144617931
0.0144618017
0.0144616598
0.0144616167
0.0144617161
0.0144617861
0.0144617292
0.0144616428
0.0144616598
0.014461756
0.0144617579
0.0144616851
0.0144616577
0.0144617039
0.0144617515
0.0144617292
0.0144616695
0.0144616742
0.014461734
0.014461738
0.0144616932
0.014461683
0.0144617127
0.014461722
0.0144617008
0.0144616976
0.0144617205
0.0144617181
0.0144616816
0.014461685
0.0144617431
0.0144617425
0.0144616673
0.01446166
0.0144617423
0.0144617604
0.0144616783
0.0144616506
0.014461731
0.0144617668
0.0144616843
0.0144616375
0.0144617259
0.0144617945
0.0144617023
0.0144615955
0.0144616781
0.0144618401
0.0144617904
0.014461562
0.0144615717
0.0144618314
0.0144618736
0.0144616417
0.0144615233
0.0144616936
0.0144618883
0.0144618069
0.0144615444
0.0144615556
0.0144618119
0.0144618719
0.0144616835
0.0144615451
0.0144616547
0.0144618524
0.0144618201
0.0144615835
0.0144615815
0.0144617801
0.014461827
0.0144616768
0.0144616007
0.0144617076
0.0144617971
0.0144617229
0.0144616294
0.0144616793
0.0144617783
0.0144617492
0.0144616377
0.0144616459
0.0144617685
0.0144617806
0.0144616725
0.014461624
0.0144617018
0.0144617898
0.0144617617
0.0144616308
0.0144616308
0.014461744
0.0144617897
0.0144617152
0.0144616282
0.0144616553
0.0144617767
0.014461775
0.0144616652
0.0144616361
0.0144617184
0.0144617737
0.0144617199
0.0144616481
0.0144616758
0.0144617564
0.0144617491
0.0144616679
0.0144616645
0.014461729
0.0144617469
0.014461701
0.0144616715
0.0144616989
0.0144617356
0.014461725
0.0144616855
0.0144616867
0.0144617195
0.0144617249
0.0144617014
0.0144616905
0.0144617087
0.0144617238
0.0144617076
0.0144616872
0.0144617026
0.0144617305
0.0144617169
0.0144616796
0.0144616893
0.0144617364
0.0144617323
0.0144616776
0.0144616776
0.0144617312
0.0144617374
0.0144616893
0.0144616772
0.0144617179
0.0144617341
0.0144617013
0.0144616831
0.0144617092
0.0144617277
0.0144617062
0.014461688
0.0144617067
0.0144617253
0.0144617083
0.0144616884
0.0144617038
0.0144617254
0.0144617119
0.0144616885
0.0144617003
0.0144617257
0.0144617155
0.014461686
0.0144616941
0.0144617309
0.0144617279
0.0144616803
0.0144616783
0.0144617287
0.0144617434
0.014461697
0.0144616647
0.0144616981
0.0144617502
0.0144617388
0.014461668
0.0144616657
0.0144617235
0.0144617493
0.0144617179
0.0144616712
0.0144616767
0.0144617247
0.0144617378
0.0144617186
0.014461684
0.0144616839
0.0144617025
0.014461728
0.0144617307
0.0144617092
0.0144616753
0.0144616772
0.0144617275
0.0144617547
0.0144617225
0.01446165
0.0144616543
0.0144617456
0.0144617813
0.0144617203
0.0144616266
0.014461638
0.0144617621
0.0144618018
0.0144617199
0.0144616069
0.0144616248
0.0144617834
0.0144618198
0.0144616946
0.0144615852
0.0144616473
0.014461821
0.0144618101
0.0144616269
0.014461595
0.0144617365
0.0144618119
0.0144617193
0.0144616167
0.0144616663
0.0144617809
0.0144617644
0.0144616461
0.014461647
0.0144617483
0.014461769
0.0144616868
0.0144616397
0.0144616988
0.0144617784
0.0144617532
0.0144616359
0.0144616371
0.0144617504
0.0144617873
0.0144617054
0.0144616284
0.0144616651
0.0144617722
0.0144617676
0.0144616735
0.0144616507
0.014461705
0.0144617481
0.0144617322
0.014461683
0.0144616832
0.0144617067
0.0144617202
0.0144617186
0.0144617086
0.0144616946
0.0144616948
0.0144617138
0.0144617227
0.0144617072
0.0144616906
0.0144617005
0.0144617217
0.0144617173
0.0144616953
0.0144616959
0.0144617127
0.0144617152
0.0144617089
0.0144617039
0.0144617018
0.0144616989
0.0144617094
0.0144617253
0.0144617188
0.0144616862
0.0144616834
0.0144616903
0.0144617157
0.0144618158
0.014461837
0.0144614335
0.0144611237
0.0144620836
0.0144636456
0.014462136
0.0144566746
0.0144575734
0.0144732587
0.0144763549
0.0144443459
0.014427792
0.0144802264
0.0145459509
0.014475913
0.0143295762
0.0143981886
0.0146953836
0.0146909259
0.0141707785
0.0140922908
0.0146420663
0.0148067498
0.0145268151
0.014079195
0.0141155575
0.0148023757
0.0148034909
0.0144900129
0.0140810065
0.0141291813
0.0148228028
0.0147080426
0.0140777615
0.0141300985
0.0148104109
0.0148071846
0.0142632946
0.0140992331
0.014502025
)
;

boundaryField
{
    closed
    {
        type            zeroGradient;
    }
    open
    {
        type            zeroGradient;
    }
    sides
    {
        type            empty;
    }
    procBoundary3to2
    {
        type            processor;
        value           uniform 0.0144747516;
    }
    procBoundary3to4
    {
        type            processor;
        value           uniform 0.0148155749;
    }
}


// ************************************************************************* //
