/*--------------------------------*- C++ -*----------------------------------*\
| =========                 |                                                 |
| \\      /  F ield         | OpenFOAM: The Open Source CFD Toolbox           |
|  \\    /   O peration     | Version:  2306                                  |
|   \\  /    A nd           | Website:  www.openfoam.com                      |
|    \\/     M anipulation  |                                                 |
\*---------------------------------------------------------------------------*/
FoamFile
{
    version     2.0;
    format      ascii;
    arch        "LSB;label=32;scalar=64";
    class       volScalarField;
    location    "0.0014";
    object      prefDPV_H2O;
}
// * * * * * * * * * * * * * * * * * * * * * * * * * * * * * * * * * * * * * //

dimensions      [1 -1 -1 0 0 0 0];

internalField   nonuniform List<scalar> 
530
(
1.09291908e-06
1.094256e-06
1.09550402e-06
1.09678735e-06
1.09798423e-06
1.09921727e-06
1.10036635e-06
1.10155235e-06
1.10265661e-06
1.1037987e-06
1.10484445e-06
1.10590279e-06
1.10688563e-06
1.10790354e-06
1.10884852e-06
1.10982834e-06
1.11073728e-06
1.11168109e-06
1.1125558e-06
1.11346548e-06
1.1143078e-06
1.11518506e-06
1.11599686e-06
1.11684323e-06
1.11762647e-06
1.11844329e-06
1.11919994e-06
1.11998274e-06
1.12070612e-06
1.12146095e-06
1.12216171e-06
1.12291019e-06
1.12362055e-06
1.12436802e-06
1.12505363e-06
1.12577728e-06
1.12643923e-06
1.12714e-06
1.12777932e-06
1.12845818e-06
1.12907583e-06
1.12973371e-06
1.1303306e-06
1.13096843e-06
1.13154541e-06
1.1321641e-06
1.13272201e-06
1.13332242e-06
1.13386213e-06
1.13444504e-06
1.13496742e-06
1.13553358e-06
1.13603946e-06
1.13658239e-06
1.13705443e-06
1.13757072e-06
1.13802685e-06
1.13852877e-06
1.13896961e-06
1.13945747e-06
1.13988352e-06
1.14035774e-06
1.1407694e-06
1.14123042e-06
1.14162802e-06
1.14207631e-06
1.14246017e-06
1.14289618e-06
1.14326661e-06
1.14369077e-06
1.14404809e-06
1.14446083e-06
1.14480532e-06
1.14520706e-06
1.145539e-06
1.14593015e-06
1.14624981e-06
1.14663078e-06
1.14693842e-06
1.14730962e-06
1.14760546e-06
1.14796731e-06
1.14825156e-06
1.1486045e-06
1.14887734e-06
1.14922182e-06
1.14948342e-06
1.14981992e-06
1.1500704e-06
1.15039941e-06
1.1506389e-06
1.15096095e-06
1.15118955e-06
1.15150516e-06
1.151723e-06
1.15203256e-06
1.15223983e-06
1.15254337e-06
1.15274019e-06
1.1530337e-06
1.15321473e-06
1.15349976e-06
1.15366569e-06
1.15393705e-06
1.15411774e-06
1.15436513e-06
1.15455315e-06
1.1547809e-06
1.15497261e-06
1.155183e-06
1.15537658e-06
1.15557099e-06
1.15576546e-06
1.15594483e-06
1.15613962e-06
1.15630461e-06
1.15649938e-06
1.15665052e-06
1.15684502e-06
1.15698294e-06
1.15717681e-06
1.15730245e-06
1.15749502e-06
1.15760976e-06
1.15778802e-06
1.15789584e-06
1.15807527e-06
1.15817945e-06
1.15834909e-06
1.15844951e-06
1.15860985e-06
1.15870609e-06
1.15885783e-06
1.15894947e-06
1.15909323e-06
1.1591799e-06
1.15931618e-06
1.15939765e-06
1.15952679e-06
1.15960295e-06
1.15972519e-06
1.15979597e-06
1.15991149e-06
1.1599769e-06
1.16008583e-06
1.16014589e-06
1.16024834e-06
1.16030309e-06
1.16039916e-06
1.16044864e-06
1.16053842e-06
1.16058268e-06
1.16066627e-06
1.16070537e-06
1.16078284e-06
1.16081683e-06
1.16088826e-06
1.16091721e-06
1.16098268e-06
1.16100665e-06
1.16106624e-06
1.16108529e-06
1.16113908e-06
1.16115327e-06
1.16120132e-06
1.16121072e-06
1.16125313e-06
1.1612578e-06
1.16129462e-06
1.16129464e-06
1.16132596e-06
1.16132138e-06
1.16134728e-06
1.16133817e-06
1.16135872e-06
1.16134515e-06
1.16136043e-06
1.16134246e-06
1.16135257e-06
1.16133024e-06
1.16133527e-06
1.16130865e-06
1.1613087e-06
1.16127784e-06
1.161273e-06
1.16123799e-06
1.16122833e-06
1.16118926e-06
1.1611748e-06
1.16113184e-06
1.16111245e-06
1.16106584e-06
1.16104117e-06
1.16099105e-06
1.16096063e-06
1.16090665e-06
1.16087333e-06
1.16082173e-06
1.16078721e-06
1.16072414e-06
1.16068097e-06
1.16061803e-06
1.16056912e-06
1.16050457e-06
1.16045089e-06
1.16038783e-06
1.16033276e-06
1.16026742e-06
1.16020802e-06
1.16014028e-06
1.16007674e-06
1.16000649e-06
1.15993901e-06
1.15986615e-06
1.15979492e-06
1.15971939e-06
1.15964455e-06
1.15956631e-06
1.15948801e-06
1.15940703e-06
1.15932537e-06
1.15924167e-06
1.15915676e-06
1.15907033e-06
1.15898227e-06
1.15889313e-06
1.15880201e-06
1.15871019e-06
1.15861609e-06
1.15852162e-06
1.15842464e-06
1.15832756e-06
1.15822776e-06
1.15812812e-06
1.15802558e-06
1.15792343e-06
1.15781754e-06
1.15770923e-06
1.15759798e-06
1.15748719e-06
1.1573735e-06
1.1572603e-06
1.15714422e-06
1.15702869e-06
1.15691029e-06
1.15679249e-06
1.15667185e-06
1.15655184e-06
1.15642904e-06
1.15630689e-06
1.15618199e-06
1.15605776e-06
1.15593084e-06
1.1558046e-06
1.15567574e-06
1.15554755e-06
1.15541681e-06
1.15528674e-06
1.15515421e-06
1.15502233e-06
1.15488807e-06
1.15475445e-06
1.15461853e-06
1.15448325e-06
1.15434574e-06
1.15420885e-06
1.15406983e-06
1.15393141e-06
1.15379094e-06
1.15365107e-06
1.15350924e-06
1.15336796e-06
1.15322485e-06
1.15308223e-06
1.15293793e-06
1.15279421e-06
1.15264899e-06
1.15250402e-06
1.15235735e-06
1.15221098e-06
1.15206296e-06
1.15191525e-06
1.15176597e-06
1.151617e-06
1.15146656e-06
1.15131641e-06
1.15116489e-06
1.15101364e-06
1.15086111e-06
1.15070885e-06
1.15055539e-06
1.1504022e-06
1.1502479e-06
1.15009385e-06
1.14993878e-06
1.14978397e-06
1.14962821e-06
1.14947271e-06
1.14931633e-06
1.14916022e-06
1.14900331e-06
1.14884667e-06
1.1486893e-06
1.1485322e-06
1.14837444e-06
1.14821696e-06
1.1480589e-06
1.14790111e-06
1.14774281e-06
1.14758479e-06
1.14742633e-06
1.14726815e-06
1.14710959e-06
1.14695133e-06
1.14679273e-06
1.14663448e-06
1.1464759e-06
1.14631773e-06
1.14615641e-06
1.14599333e-06
1.14583013e-06
1.14566744e-06
1.14550473e-06
1.1453425e-06
1.14518032e-06
1.14501862e-06
1.14485701e-06
1.1446959e-06
1.14453492e-06
1.14437446e-06
1.14421415e-06
1.14405439e-06
1.14389481e-06
1.14373579e-06
1.143577e-06
1.14341878e-06
1.14326082e-06
1.14310344e-06
1.14294636e-06
1.14278988e-06
1.14263372e-06
1.14247818e-06
1.14232299e-06
1.14216844e-06
1.14201427e-06
1.14186074e-06
1.14170764e-06
1.14155518e-06
1.14140318e-06
1.14125183e-06
1.14110097e-06
1.14095078e-06
1.1408011e-06
1.1406521e-06
1.14050364e-06
1.14035588e-06
1.14020866e-06
1.14006217e-06
1.13991625e-06
1.13977105e-06
1.13962645e-06
1.1394826e-06
1.13933935e-06
1.13919686e-06
1.13905501e-06
1.13891392e-06
1.13877348e-06
1.13863381e-06
1.13849483e-06
1.13835661e-06
1.13821911e-06
1.13808236e-06
1.13794637e-06
1.13781111e-06
1.13767666e-06
1.13754291e-06
1.13741003e-06
1.1372778e-06
1.13714723e-06
1.13701726e-06
1.13688814e-06
1.13675968e-06
1.13663203e-06
1.13650512e-06
1.13637898e-06
1.13625362e-06
1.13612904e-06
1.13600526e-06
1.13588225e-06
1.13576007e-06
1.13563867e-06
1.13551811e-06
1.13539834e-06
1.13527942e-06
1.1351613e-06
1.13504404e-06
1.13492759e-06
1.134812e-06
1.13469724e-06
1.13458334e-06
1.13447028e-06
1.13435809e-06
1.13424674e-06
1.13413627e-06
1.13402665e-06
1.13391791e-06
1.13381002e-06
1.13370301e-06
1.13359687e-06
1.13349161e-06
1.13338722e-06
1.13328372e-06
1.13318108e-06
1.13307934e-06
1.13297846e-06
1.13287848e-06
1.13277937e-06
1.13268115e-06
1.1325838e-06
1.13248734e-06
1.13239177e-06
1.13229707e-06
1.13220326e-06
1.13211032e-06
1.13201827e-06
1.1319271e-06
1.1318368e-06
1.13174738e-06
1.13165884e-06
1.13156852e-06
1.13147815e-06
1.1313887e-06
1.13130017e-06
1.13121255e-06
1.13112585e-06
1.13104005e-06
1.13095515e-06
1.13087116e-06
1.13078806e-06
1.13070586e-06
1.13062454e-06
1.13054412e-06
1.13046458e-06
1.13038592e-06
1.13030813e-06
1.13023122e-06
1.13015517e-06
1.13007999e-06
1.13000566e-06
1.12993219e-06
1.12985957e-06
1.1297878e-06
1.12971679e-06
1.12964405e-06
1.12956712e-06
1.12948585e-06
1.12940007e-06
1.12930965e-06
1.12921446e-06
1.1291144e-06
1.12900936e-06
1.1288993e-06
1.12878417e-06
1.12866399e-06
1.12853879e-06
1.12840869e-06
1.12827384e-06
1.12813448e-06
1.12799088e-06
1.12784345e-06
1.12769262e-06
1.127539e-06
1.12738321e-06
1.12722607e-06
1.12706839e-06
1.12691122e-06
1.12675556e-06
1.12660265e-06
1.12645365e-06
1.12630989e-06
1.1261726e-06
1.12604311e-06
1.12592253e-06
1.125812e-06
1.12571235e-06
1.12562427e-06
1.12554809e-06
1.12548388e-06
1.12543132e-06
1.12538977e-06
1.12535823e-06
1.12533549e-06
1.12532011e-06
1.12531064e-06
1.12530557e-06
1.12530365e-06
1.12530379e-06
1.12530481e-06
1.12530723e-06
1.12530651e-06
1.12530473e-06
1.12530393e-06
1.12530349e-06
1.12530332e-06
1.12530325e-06
1.12530323e-06
1.12530322e-06
1.12530322e-06
1.12530322e-06
1.12530322e-06
1.12530322e-06
1.12530322e-06
1.12530322e-06
1.12530322e-06
1.12530322e-06
1.12530322e-06
1.12530322e-06
1.12530322e-06
1.12530322e-06
1.12530322e-06
1.12530322e-06
1.12530322e-06
1.12530322e-06
1.12530322e-06
1.12530322e-06
1.12530322e-06
1.12530322e-06
1.12530322e-06
1.12530322e-06
1.12530322e-06
)
;

boundaryField
{
    closed
    {
        type            calculated;
        value           nonuniform List<scalar> 0();
    }
    open
    {
        type            calculated;
        value           uniform 1.12530322e-06;
    }
    sides
    {
        type            empty;
    }
    procBoundary5to4
    {
        type            processor;
        value           uniform 1.09161615e-06;
    }
}


// ************************************************************************* //
