/*--------------------------------*- C++ -*----------------------------------*\
| =========                 |                                                 |
| \\      /  F ield         | OpenFOAM: The Open Source CFD Toolbox           |
|  \\    /   O peration     | Version:  2306                                  |
|   \\  /    A nd           | Website:  www.openfoam.com                      |
|    \\/     M anipulation  |                                                 |
\*---------------------------------------------------------------------------*/
FoamFile
{
    version     2.0;
    format      ascii;
    arch        "LSB;label=32;scalar=64";
    class       volScalarField;
    location    "0.0014";
    object      rho;
}
// * * * * * * * * * * * * * * * * * * * * * * * * * * * * * * * * * * * * * //

dimensions      [1 -3 0 0 0 0 0];

internalField   nonuniform List<scalar> 
530
(
0.189238683
0.189067474
0.188909542
0.188743049
0.188589621
0.188427614
0.188278505
0.188120779
0.187975902
0.187822278
0.187685058
0.18754443
0.18741596
0.187279582
0.187155042
0.187022833
0.186902329
0.186774246
0.186657824
0.186533838
0.186421484
0.186301566
0.186193198
0.186077318
0.185972773
0.185860898
0.185759956
0.185655159
0.185562524
0.18546304
0.185373979
0.18527613
0.185186993
0.185090288
0.18500463
0.184911427
0.184829034
0.18473908
0.184659726
0.184572755
0.184496202
0.18441195
0.184337958
0.184256175
0.184184508
0.184104961
0.184035393
0.183957886
0.183890201
0.18381458
0.183748584
0.183674736
0.183610284
0.183539595
0.183480396
0.183413656
0.183356273
0.183291111
0.183235509
0.18317202
0.183118227
0.183056508
0.183004608
0.182944763
0.18289487
0.182837011
0.182789257
0.182733504
0.182688024
0.182634494
0.18259142
0.182540224
0.182499673
0.182450906
0.182412977
0.182366709
0.182331473
0.182287747
0.182255243
0.182214064
0.182184298
0.182145633
0.182118576
0.182082353
0.18205794
0.182024046
0.182002178
0.181970463
0.181951008
0.181921292
0.181904089
0.181876167
0.181861023
0.181834674
0.181821373
0.181796379
0.181784682
0.181760895
0.181750556
0.181729254
0.181721916
0.181702746
0.181697431
0.181679758
0.181672318
0.18165737
0.181648903
0.181635996
0.181626908
0.18161567
0.181606129
0.181596307
0.181586408
0.181577825
0.181567632
0.181560167
0.18154973
0.181543307
0.181532667
0.181527226
0.181516448
0.181511879
0.181501106
0.181497188
0.181487531
0.18148433
0.18147387
0.181471772
0.181461388
0.181460218
0.181450081
0.181449781
0.181439983
0.181440555
0.181431167
0.181432634
0.181423727
0.181426119
0.181417769
0.181421124
0.181413411
0.181417771
0.181410779
0.181416193
0.181410009
0.181416532
0.181411245
0.181418936
0.181414637
0.18142356
0.181420339
0.181430559
0.181428505
0.181440088
0.181439289
0.181452299
0.181452836
0.181467333
0.181469283
0.181485325
0.181488758
0.181506395
0.181511373
0.18153065
0.181537226
0.181558178
0.181566398
0.181589056
0.181598956
0.181623342
0.181634948
0.181661077
0.18167441
0.181702289
0.181717358
0.18174699
0.181763796
0.181795176
0.181813713
0.181846831
0.181867084
0.181901919
0.181923869
0.181960391
0.181984012
0.182022176
0.182047446
0.182087188
0.182114099
0.182155327
0.182183905
0.182226512
0.182256827
0.18230074
0.182332838
0.182378185
0.182410762
0.18245486
0.182487482
0.182535861
0.182571573
0.182619273
0.182656941
0.182704522
0.182743618
0.182791782
0.182832454
0.182880809
0.182922504
0.182970988
0.183013545
0.183062085
0.183105341
0.183153868
0.183197667
0.183246111
0.183290312
0.183338608
0.183383087
0.183431176
0.183475827
0.183523662
0.183568397
0.183615941
0.183660692
0.183707926
0.183752643
0.183799559
0.183844215
0.183890822
0.183935405
0.183981728
0.184026245
0.184072323
0.184116799
0.184162683
0.184207465
0.18425491
0.184301057
0.184348451
0.184394714
0.184442133
0.184488578
0.184536106
0.184582805
0.184630524
0.184677551
0.184725545
0.184772971
0.184821322
0.184869217
0.184917998
0.184966426
0.185015707
0.185064724
0.185114563
0.185164217
0.185214664
0.185264994
0.185316086
0.18536712
0.185418884
0.185470637
0.185523089
0.185575567
0.185628709
0.185681905
0.18573573
0.185789627
0.185844116
0.185898688
0.185953812
0.186009021
0.186064743
0.186120546
0.186176959
0.186233577
0.186290644
0.186347793
0.186405344
0.186462961
0.186520933
0.186578952
0.186637279
0.186695631
0.186754246
0.186812862
0.186871696
0.186930507
0.186989494
0.187048432
0.187107505
0.187166505
0.187225602
0.187284602
0.187343662
0.187402604
0.187461572
0.187520401
0.187579226
0.187637893
0.187696529
0.18775499
0.187813397
0.187871614
0.187929756
0.187987696
0.188045543
0.18810318
0.188160709
0.18821802
0.188275213
0.188332183
0.188389026
0.188445644
0.188502128
0.188558389
0.188614509
0.18867144
0.188729059
0.188786443
0.188843672
0.188900668
0.188957512
0.189014131
0.1890706
0.189126851
0.189182958
0.189238853
0.189294609
0.189350162
0.18940558
0.189460804
0.189515898
0.189570806
0.189625589
0.189680192
0.189734675
0.189788986
0.18984318
0.189897206
0.18995112
0.190004871
0.19005851
0.19011199
0.19016536
0.190218574
0.190271677
0.190324624
0.19037746
0.19043014
0.190482706
0.190535115
0.190587407
0.190639539
0.190691549
0.190743397
0.190795117
0.19084667
0.19089809
0.190949337
0.191000444
0.191051373
0.191102154
0.19115275
0.19120319
0.191253438
0.191303523
0.191353408
0.191403122
0.191452627
0.191501954
0.191551063
0.191599986
0.191648683
0.191697188
0.191745456
0.191793525
0.191841549
0.191889373
0.191936953
0.191984322
0.192031441
0.192078338
0.192124981
0.192171393
0.192217543
0.192263455
0.1923091
0.192354499
0.192399625
0.192444498
0.192489092
0.192533427
0.192577478
0.192621264
0.192664762
0.192707989
0.192750922
0.19279358
0.192835941
0.192878021
0.1929198
0.192961294
0.193002483
0.193043383
0.193083975
0.193124274
0.193164263
0.193203955
0.193243333
0.193282413
0.193321176
0.193359637
0.19339778
0.193435618
0.193473137
0.193510349
0.193547239
0.19358382
0.193620079
0.193656028
0.193691652
0.193726966
0.193761955
0.193796631
0.193830983
0.193865021
0.193898735
0.193932992
0.193967222
0.194001124
0.194034691
0.194067931
0.194100835
0.194133414
0.194165659
0.19419758
0.194229168
0.194260434
0.194291369
0.194321984
0.19435227
0.194382237
0.19441188
0.194441205
0.194470209
0.194498898
0.194527268
0.194555327
0.194583071
0.194610506
0.194637658
0.19466549
0.194694937
0.194726069
0.194758943
0.194793623
0.19483016
0.194868608
0.194909006
0.194951392
0.194995789
0.195042214
0.195090665
0.19514113
0.195193575
0.195247955
0.195304198
0.195362215
0.195421896
0.195483108
0.195545702
0.195609504
0.195674334
0.195739986
0.195806248
0.195872862
0.195939538
0.196005854
0.196071231
0.19613476
0.196195111
0.196250342
0.196297908
0.196334803
0.196358297
0.196367231
0.196363851
0.196355299
0.196351957
0.196362148
0.19638669
0.19641736
0.196441965
0.196451049
0.196437693
0.196398885
0.19635316
0.196328546
0.196320329
0.19630918
0.196296788
0.196277755
0.196259884
0.196240948
0.196240495
0.196251402
0.196252654
0.196248072
0.196248231
0.196306547
0.196422801
0.196525973
0.196539274
0.196504819
0.196493688
0.196482811
0.196419358
0.196351845
0.196283941
0.196141309
0.196092645
0.196164466
0.196285452
0.19647103
0.196338483
0.196234271
0.196404656
0.196363954
)
;

boundaryField
{
    closed
    {
        type            calculated;
        value           nonuniform List<scalar> 0();
    }
    open
    {
        type            calculated;
        value           uniform 0.196352833;
    }
    sides
    {
        type            empty;
    }
    procBoundary5to4
    {
        type            processor;
        value           uniform 0.189401457;
    }
}


// ************************************************************************* //
