/*--------------------------------*- C++ -*----------------------------------*\
| =========                 |                                                 |
| \\      /  F ield         | OpenFOAM: The Open Source CFD Toolbox           |
|  \\    /   O peration     | Version:  2306                                  |
|   \\  /    A nd           | Website:  www.openfoam.com                      |
|    \\/     M anipulation  |                                                 |
\*---------------------------------------------------------------------------*/
FoamFile
{
    version     2.0;
    format      ascii;
    arch        "LSB;label=32;scalar=64";
    class       volScalarField;
    location    "0.00046";
    object      prefDh_H;
}
// * * * * * * * * * * * * * * * * * * * * * * * * * * * * * * * * * * * * * //

dimensions      [1 1 -3 0 0 0 0];

internalField   nonuniform List<scalar> 
531
(
23715.6879
23226.4065
23068.4667
23484.5912
23922.4468
23610.5684
23200.2588
23098.6701
23635.7206
23943.1024
23379.3466
23170.2419
23609.0494
23955.8306
23367.8194
23186.8152
23377.307
23930.4428
23983.7909
23405.5223
23385.395
23335.4399
23377.6103
23491.5561
23436.0574
23222.3209
23221.3127
23748.7413
23978.4339
23938.0743
23379.3436
23270.5321
23126.7371
23173.7776
23854.0905
23974.3443
23403.4581
23202.7605
23349.0435
23883.7661
23884.2133
23290.5928
23138.8903
23494.4433
23949.1867
23959.6969
23365.9409
23378.9129
23375.9894
23380.0767
23379.9308
23379.8935
23390.205
23447.4818
23440.7844
23385.8382
23381.2763
23393.1473
23404.2213
23400.6903
23393.2021
23392.7198
23394.5403
23394.8635
23394.3157
23393.7641
23393.6632
23393.5805
23393.4916
23393.4035
23393.3196
23393.2625
23393.2268
23393.2078
23393.1913
23393.1728
23393.1278
23393.1066
23393.1615
23393.2011
23393.1098
23392.9882
23393.0824
23393.3288
23393.27
23392.8296
23392.8078
23393.4297
23393.5719
23392.918
23392.5339
23393.1014
23393.7891
23393.403
23392.4588
23392.5818
23393.6727
23393.7464
23392.8054
23392.5684
23393.1892
23393.511
23393.1097
23392.8671
23393.3071
23393.5016
23392.46
23391.9948
23394.4724
23396.2601
23391.6992
23386.9152
23392.7424
23408.1618
23401.1956
23375.6528
23375.8515
23440.9793
23451.9128
23369.5402
23378.9146
23425.2595
23591.9887
23411.5288
23305.2179
23403.5218
23897.5001
23909.2548
23232.1499
23093.9016
23652.4366
23935.1605
23376.88
23107.5119
23362.4211
23902.391
23736.4237
23175.9856
23140.4699
23806.4537
23946.9196
23402.6982
23139.8902
23329.2507
23907.856
23959.9893
23367.6873
23233.5243
23396.3801
23702.1293
23430.8494
23392.0927
23370.3245
23460.1204
23460.5569
23376.4461
23372.5051
23397.891
23412.8704
23396.4152
23386.0587
23389.9505
23396.2344
23395.2897
23392.3836
23392.4311
23393.3092
23393.2404
23393.02
23393.2028
23393.3239
23393.0725
23392.9081
23393.0975
23393.2729
23393.1812
23393.0372
23393.0598
23393.1335
23393.1339
23393.1461
23393.1741
23393.0846
23392.9071
23393.0368
23393.6312
23393.6352
23392.1121
23391.897
23394.3552
23395.9818
23392.733
23387.8921
23390.1993
23403.7514
23404.8784
23383.218
23377.2133
23394.4004
23440.0407
23430.9928
23367.7574
23376.597
23411.3964
23563.6116
23483.1322
23355.7244
23302.8681
23598.5752
23941.9645
23447.2734
23169.585
23142.367
23765.5307
23937.892
23411.8306
23135.8261
23371.3758
23817.8264
23480.9617
23106.6178
23259.0082
23858.1314
23973.9966
23378.1319
23141.4942
23480.7743
23922.2559
23479.797
23144.8703
23159.8943
23889.6595
23964.8537
23387.4954
23114.9135
23546.17
23925.5258
23438.5008
23114.611
23212.4943
23904.8408
23968.6736
23386.9311
23091.3722
23532.9463
23927.6484
23471.2409
23121.4313
23154.1071
23853.3658
23975.8922
23672.9382
23364.4062
23330.735
23389.1916
23418.2087
23439.0091
23375.6936
23229.1044
23371.921
23932.4071
23985.9101
23378.3787
23159.3783
23514.3848
23923.3779
23528.4525
23121.86
23117.5476
23859.1125
23959.1984
23385.1935
23136.2624
23452.5035
23911.7249
23525.1684
23133.676
23108.2129
23824.8916
23950.6626
23373.1608
23115.7925
23392.0985
23883.8566
23589.8882
23158.2954
23091.7757
23723.2656
23943.8273
23376.9509
23156.3098
23369.3107
23861.2099
23760.2988
23241.3853
23081.086
23509.8768
23905.7636
23520.7978
23179.2376
23097.7456
23649.0602
23928.0234
23479.5038
23165.8645
23111.6567
23704.6713
23930.7991
23461.3955
23141.3222
23119.3544
23756.5601
23929.7376
23447.1828
23128.1849
23124.3014
23775.3993
23921.562
23455.6417
23109.5986
23103.5157
23717.709
23919.2179
23443.9448
23129.3382
23169.0091
23885.6457
23929.0068
23397.0279
23093.3866
23267.1581
23913.8466
23928.838
23340.9807
23172.3108
23783.1096
23929.4374
23374.4843
23108.1279
23380.5493
23909.7784
23807.4591
23255.6214
23128.3526
23428.8752
23927.416
23948.9649
23408.2861
23354.0409
23229.651
23120.4318
23373.6153
23886.0406
23765.5622
23256.3159
23219.7346
23849.3078
23949.1567
23373.3193
23136.7437
23370.2964
23910.0125
23928.0802
23380.1151
23225.2558
23466.6249
23532.2599
23367.4353
23312.608
23879.6403
23977.2712
23385.1434
23172.4769
23688.6664
23970.453
23456.7152
23022.7751
23026.3245
23805.3391
24041.8488
23798.5154
23050.7629
22691.7594
23235.663
24118.4548
23491.492
22766.6708
22973.1585
23978.8247
24066.2997
24009.1734
24013.6266
23996.2502
23991.7958
23993.4484
23996.852
24015.7773
24033.5587
24074.1388
24114.0691
24200.184
24313.7845
24599.8982
24544.2941
24369.4546
24162.9249
24061.6563
23919.3625
23884.9121
23764.0877
23768.6141
23633.8362
23549.5909
23504.3231
23499.4576
23433.4395
23310.4549
23321.5002
24721.1764
23808.1787
25302.1884
27104.7079
26415.9376
28558.1417
27878.6218
29472.8696
28398.3369
27220.9033
28557.901
29843.8207
32684.4913
34973.1776
37208.785
39530.0767
42104.1328
48093.7419
50559.9671
52738.7955
54807.8561
56976.4875
59049.0821
60948.4095
62604.6423
64244.3487
65827.394
67359.7954
68757.1053
70109.3412
71344.3926
72501.4703
73530.8338
74422.927
75266.2848
76023.148
76772.2041
77414.8812
78078.5725
78606.8595
79277.0493
79787.3153
80450.8621
80874.0848
81497.126
81900.9382
82467.3768
82841.7376
83331.3376
83700.9814
84225.4912
84558.2484
84908.9071
85190.461
85501.4901
85756.5616
86040.9954
86292.6997
86570.4357
86805.6576
87061.617
87296.7884
87614.677
87890.6261
88167.426
88376.7359
88596.5877
88777.5006
88976.3776
89140.979
89330.1643
89485.3062
89654.4277
89787.9722
89947.1473
90085.8732
90290.1684
90443.7969
90632.5071
90768.2222
90939.9745
91061.0505
91206.6745
91303.5633
91436.735
91526.211
91645.1479
91732.7281
91843.1579
91925.5339
92028.2301
92109.519
92201.0616
92280.6618
92362.616
92439.1919
92507.8366
92577.9589
92640.3065
92715.0916
92775.6815
92851.0881
92905.7719
92978.5881
93028.042
93094.784
93135.9266
93198.9152
93235.5421
93295.7131
93328.1248
93385.645
93414.0247
)
;

boundaryField
{
    closed
    {
        type            calculated;
        value           nonuniform List<scalar> 0();
    }
    open
    {
        type            calculated;
        value           nonuniform List<scalar> 0();
    }
    sides
    {
        type            empty;
    }
    procBoundary4to3
    {
        type            processor;
        value           uniform 23900.3248;
    }
    procBoundary4to5
    {
        type            processor;
        value           uniform 93469.1786;
    }
}


// ************************************************************************* //
