/*--------------------------------*- C++ -*----------------------------------*\
| =========                 |                                                 |
| \\      /  F ield         | OpenFOAM: The Open Source CFD Toolbox           |
|  \\    /   O peration     | Version:  2306                                  |
|   \\  /    A nd           | Website:  www.openfoam.com                      |
|    \\/     M anipulation  |                                                 |
\*---------------------------------------------------------------------------*/
FoamFile
{
    version     2.0;
    format      ascii;
    arch        "LSB;label=32;scalar=64";
    class       volScalarField;
    location    "0.00046";
    object      prefDh_H2;
}
// * * * * * * * * * * * * * * * * * * * * * * * * * * * * * * * * * * * * * //

dimensions      [1 1 -3 0 0 0 0];

internalField   nonuniform List<scalar> 
531
(
34.5476537
26.4488474
23.8535231
30.457896
37.9492971
32.6906618
26.0248945
24.3582084
33.1187254
38.3151541
28.8622117
25.5271483
32.644692
38.5069769
28.5597068
25.7775057
28.6306842
38.0806821
38.9317905
29.1423099
29.0647948
28.2470618
28.822599
30.6040196
29.644213
26.4271778
26.3359339
35.1294868
38.8151163
38.2146443
28.7375353
27.1959603
24.8121231
25.5857703
36.9429287
38.770903
29.1166424
26.0311441
28.2166134
37.3635978
37.4101497
27.4898694
24.9945749
30.6238857
38.3675112
38.5632095
28.4748796
28.988893
28.8353186
28.7971247
28.7510852
28.7574692
28.8980516
29.8374402
29.7233256
28.8223995
28.7518168
28.9309197
29.1072764
29.0485733
28.9256798
28.9169957
28.9447612
28.94898
28.9394511
28.9297168
28.9276385
28.9257961
28.9239639
28.9222177
28.9206058
28.9195156
28.9188019
28.9183807
28.9180232
28.9176701
28.9168939
28.9165141
28.9173788
28.9179965
28.9165121
28.9145368
28.9160534
28.9200296
28.9190772
28.9119618
28.9116086
28.9216536
28.9239516
28.9133856
28.9071877
28.9163475
28.9274634
28.9212198
28.9059771
28.9079596
28.9255805
28.9267721
28.9115687
28.9077448
28.9177667
28.9229672
28.9164857
28.9125696
28.919683
28.9228345
28.9060283
28.8985746
28.9385866
28.9677831
28.8938518
28.8181154
28.9108712
29.1646548
29.0494137
28.6504505
28.654463
29.7190695
29.9085086
28.570962
28.8307286
29.451351
32.3547226
29.2332005
27.8160635
29.3478277
37.6075565
37.8011813
26.5810988
24.2854753
33.4162247
38.1507003
28.7148321
24.4765567
28.4400431
37.6478623
34.9138887
25.6486342
25.0370283
36.1564708
38.331436
29.1358479
25.0155486
28.1586419
37.7656517
38.5832978
28.6478179
26.6201331
28.9784039
34.3020242
29.5513195
29.115117
28.6172775
30.0516754
30.0555671
28.6692284
28.6102946
28.997629
29.243681
28.9717525
28.8053208
28.866566
28.9676963
28.95217
28.905032
28.9057255
28.9198252
28.9186846
28.9150915
28.9180299
28.9199704
28.9159024
28.9132399
28.9162951
28.9191246
28.9176409
28.9153129
28.915677
28.9168667
28.9168731
28.917069
28.9175221
28.916076
28.9132128
28.9153065
28.9249189
28.9249889
28.9004078
28.896976
28.9366665
28.9631677
28.9105303
28.8332213
28.8701881
29.0908351
29.1101073
28.7603085
28.6727458
28.9407888
29.7035235
29.5536191
28.5576839
28.7650879
29.2250662
31.8569599
30.456812
28.6318933
27.7244364
32.4558241
38.2743366
29.8606618
25.5332162
25.0705346
35.4303732
38.1873472
29.2633676
24.9997431
28.7025749
36.3642185
30.4123463
24.5466587
26.9876109
36.9795247
38.7745775
28.8138613
25.029947
30.3852231
37.9528476
30.4047598
25.1322795
25.3597202
37.4922616
38.6361713
29.0454753
24.5969236
31.5321618
37.9994359
29.705408
24.6311105
26.2232654
37.7241227
38.6998273
29.0480883
24.2015232
31.2993142
38.030856
30.255221
24.7511443
25.2286553
36.9365142
38.7682369
33.7924611
28.5668351
28.2310593
29.0825543
29.3747677
29.7181471
28.7662534
26.5162559
28.7388747
38.1272495
38.9640752
28.8568634
25.3358201
30.9774844
37.9563896
31.2487732
24.7535773
24.6449657
37.0388877
38.5402019
28.9719849
24.9576913
29.9058111
37.7789243
31.1923803
24.9425561
24.5027915
36.4885835
38.4058842
28.7143518
24.6283238
28.8862582
37.3465949
32.3249259
25.3509044
24.2289584
34.6743988
38.2989668
28.7285777
25.3046868
28.5485207
36.9929401
35.3426705
26.7040424
24.0632722
30.8926977
37.6877188
31.1254164
25.6903475
24.3259254
33.3526415
38.0324665
30.4155169
25.4633095
24.5538015
34.3435719
38.0735461
30.1055112
25.0586964
24.6777221
35.2683116
38.0562279
29.8667915
24.8434382
24.759536
35.6046348
37.9238441
30.0114279
24.5385479
24.4093898
34.5735337
37.8936186
29.8105402
24.8757323
25.5035637
37.4450962
38.0502926
29.0556395
24.2744106
27.1412494
37.8537028
38.0953266
28.3801115
25.5782316
35.7414867
38.0802223
28.7555715
24.506966
28.7225498
37.7607446
36.1797118
26.9212353
24.8559584
29.5068743
38.0142396
38.3616432
29.2130028
28.6137911
26.4731727
24.7293662
28.6870509
37.3898811
35.4333798
26.9896961
26.3872311
36.8664616
38.3884539
28.7024396
24.9764671
28.5809514
37.7659279
38.0902732
28.9539058
26.4735435
30.1593578
31.3057585
28.7662987
27.8739473
37.3445273
38.8666354
29.0328761
25.5224232
34.0490632
38.7286176
29.989234
23.0234791
23.0219798
36.1273462
39.8840591
36.0117643
23.2144035
17.3728025
26.0166016
41.2329004
30.4801302
18.3131417
21.4641369
38.7715628
39.955739
39.0406339
38.968421
38.6138836
38.4195547
38.3280602
38.2697911
38.4270794
38.6054818
39.0867738
39.6297806
40.8562052
42.5804392
47.1649895
45.9496762
42.7361622
38.829939
36.8353195
33.835655
32.8930086
30.3282222
30.1691628
27.7565178
25.9567664
24.6249695
23.7364873
21.7454145
19.2692947
19.0392651
42.6357985
22.1863153
48.7674922
77.8732204
67.0788235
106.096846
92.9300756
123.559649
102.003678
79.104885
103.330531
130.506972
191.651522
252.775453
319.435032
393.816088
484.434464
732.955059
847.588409
955.328583
1063.55393
1182.06659
1301.76524
1415.62481
1518.94601
1624.10437
1729.72456
1834.22329
1932.31114
2029.73541
2120.96737
2207.98643
2287.07917
2356.70577
2423.66971
2484.55178
2545.77033
2598.87204
2654.52228
2699.23275
2756.71833
2800.83677
2859.17253
2896.52708
2952.47198
2988.95026
3040.74419
3075.19659
3120.74197
3155.38306
3204.85343
3236.45878
3269.79593
3296.81316
3326.66922
3351.48216
3379.10946
3403.81741
3430.99259
3454.24359
3479.52687
3502.92539
3534.67752
3562.31978
3590.0145
3611.11924
3633.27533
3651.5461
3671.67668
3688.41116
3707.64193
3723.43042
3740.68233
3754.30912
3770.56394
3784.74054
3805.73605
3821.52631
3840.95843
3854.9117
3872.6118
3885.06071
3900.09402
3910.06164
3923.81958
3933.01548
3945.28471
3954.28708
3965.69054
3974.16867
3984.78314
3993.14403
4002.59072
4010.76934
4019.21108
4027.06762
4034.12474
4041.30529
4047.69761
4055.382
4061.6034
4069.35482
4074.95236
4082.42059
4087.46534
4094.28735
4098.45666
4104.86976
4108.55743
4114.65859
4117.89621
4123.70299
4126.50968
)
;

boundaryField
{
    closed
    {
        type            calculated;
        value           nonuniform List<scalar> 0();
    }
    open
    {
        type            calculated;
        value           nonuniform List<scalar> 0();
    }
    sides
    {
        type            empty;
    }
    procBoundary4to3
    {
        type            processor;
        value           uniform 37.6137373;
    }
    procBoundary4to5
    {
        type            processor;
        value           uniform 4132.05242;
    }
}


// ************************************************************************* //
