/*--------------------------------*- C++ -*----------------------------------*\
| =========                 |                                                 |
| \\      /  F ield         | OpenFOAM: The Open Source CFD Toolbox           |
|  \\    /   O peration     | Version:  2306                                  |
|   \\  /    A nd           | Website:  www.openfoam.com                      |
|    \\/     M anipulation  |                                                 |
\*---------------------------------------------------------------------------*/
FoamFile
{
    version     2.0;
    format      ascii;
    arch        "LSB;label=32;scalar=64";
    class       volScalarField;
    location    "0.00046";
    object      prefDh_H2O;
}
// * * * * * * * * * * * * * * * * * * * * * * * * * * * * * * * * * * * * * //

dimensions      [1 1 -3 0 0 0 0];

internalField   nonuniform List<scalar> 
531
(
92.4685078
88.0593827
87.8832956
90.8293005
92.4924118
91.7799108
88.0334425
87.9225363
91.9250431
92.5621274
88.6618221
87.9961866
91.7462163
92.4892777
89.1410708
87.999139
89.7100952
92.4842455
92.3410476
89.9010614
88.2504344
88.1920114
88.7012985
90.838295
90.3135977
88.0869456
88.0332682
92.6347668
92.2493576
92.5057766
89.3863351
88.1255975
87.947559
88.0005547
92.9642051
92.3318678
89.8350378
88.0116632
89.0318884
92.7026468
92.8383783
88.125469
87.9480288
90.9198077
92.3925016
92.4601701
89.3972555
88.2612696
88.4232648
89.137711
89.3750543
89.3373312
89.6431128
90.4386157
90.3685287
89.5963801
89.5057077
89.7587223
89.9406013
89.8940883
89.7870521
89.7835031
89.8189958
89.8283432
89.8228603
89.8179528
89.8183534
89.8192818
89.8196394
89.819684
89.8195106
89.8193621
89.8194038
89.8196117
89.8197528
89.8197031
89.81923
89.8190585
89.8200038
89.8207025
89.8193437
89.8175196
89.81899
89.8227999
89.8219066
89.8151383
89.8148051
89.8243755
89.8265503
89.8165176
89.8105747
89.8193452
89.829866
89.8239729
89.8094116
89.8113196
89.8280934
89.829216
89.8147802
89.8111106
89.8206879
89.8256171
89.8194513
89.8157089
89.8224435
89.8253939
89.8092866
89.8018486
89.839966
89.8658646
89.7970557
89.715525
89.8124109
90.0245245
89.9323572
89.4647997
89.4640819
90.3947665
90.4974213
89.2613015
88.8058474
90.2286849
91.6376036
90.0177596
88.1996011
88.5159024
92.7525667
92.7425474
88.0925925
87.9218503
92.0358879
92.4537187
89.2521249
87.9112106
89.2237358
92.6091551
92.5820991
88.0226551
87.9621974
92.95113
92.3988798
89.6743154
87.9525533
88.1930848
92.7004176
92.5123733
88.6043217
88.1058863
89.8302803
92.3616067
90.272112
88.6069
89.0896454
90.5708819
90.5848568
89.448011
89.3572744
89.8757917
90.0813898
89.8619877
89.6972578
89.7656764
89.8640777
89.8508124
89.8070745
89.8081251
89.8220104
89.8210789
89.8178365
89.8207084
89.8226348
89.818804
89.8163032
89.8192375
89.8219484
89.8205479
89.8183415
89.8186929
89.819831
89.8198386
89.8200271
89.8204553
89.8190804
89.8163357
89.8183331
89.8274211
89.8274589
89.8039273
89.8004184
89.8382862
89.862137
89.813096
89.733934
89.7713104
89.9698727
89.9822534
89.6480311
89.5051305
89.8242974
90.3836245
90.2741382
89.1456372
88.9332939
90.0397408
91.4307102
90.7651984
88.2488846
88.1614627
91.6733374
92.4872478
90.3480291
88.0079161
87.966068
92.7441327
92.4227553
89.9157776
87.9870325
88.7036743
93.0528592
90.7612941
87.9773887
88.0993222
92.8562391
92.3642542
88.817054
87.9454321
90.8100493
92.5155303
90.7210435
87.9844856
87.986493
92.8073565
92.4143988
88.4880537
87.9184643
91.3091388
92.4877199
90.2714862
87.9484302
88.0455056
92.7312211
92.4133904
88.4005376
87.8857476
91.2128547
92.4737162
90.6448194
87.962052
87.9534588
92.984153
92.2347551
92.2090263
88.7155415
88.2261028
88.4578978
89.978998
90.2622065
88.8216544
88.0786544
88.5420007
92.5312743
92.3301051
88.5783762
87.9745053
91.0686531
92.4633762
91.1499304
87.9589126
87.9250274
93.0066356
92.4099546
88.6765758
87.9498157
90.5391746
92.5231496
91.1216239
87.9677828
87.9233619
93.0806224
92.439223
88.8411415
87.9324543
89.8632885
92.6387266
91.6277112
87.9977776
87.9024563
92.4756754
92.4648156
89.183726
87.9853735
89.3558678
92.7242994
92.7534875
88.0829674
87.898778
91.0417685
92.5522804
91.0721895
88.0176038
87.9080943
92.0065819
92.4577607
90.6773519
87.9972479
87.9228335
92.362859
92.4394371
90.4886728
87.9689441
87.9293762
92.6780568
92.4409481
90.3195253
87.9549249
87.9352694
92.7906276
92.455972
90.4123096
87.9350006
87.9056291
92.4340972
92.4867121
90.286984
87.9664799
87.9923531
92.8768184
92.4624568
89.5203271
87.9192243
88.1221828
92.6584743
92.6270204
88.2254307
88.0111216
92.8305788
92.5403946
88.744839
87.9276051
89.5796588
92.5725057
92.9990819
88.0881173
87.9626361
90.2878294
92.4302052
92.3851491
89.8284873
88.2530748
88.0431997
87.9567823
89.0538701
92.6621093
92.7613656
88.1281103
88.0858896
92.9761292
92.4658489
88.9306425
87.9585655
89.2862043
92.5768709
92.6533834
88.2295392
88.0889044
90.643542
91.1905972
88.2265426
88.1661082
92.8760405
92.4919033
88.2755732
87.9687259
92.2353851
92.4099659
90.5489706
87.7697026
87.726764
92.8901713
92.2711167
92.8877058
87.6094503
87.2196038
89.0248952
92.4935039
91.0268168
87.0674644
87.2329824
92.2099086
91.3112814
91.4672251
91.0281784
90.8494011
90.5020713
90.1586739
89.8310377
89.3826217
89.0553258
88.5298426
88.2111749
87.7043639
87.3453983
87.1062465
86.726826
86.2370598
85.4672616
84.9527366
83.8834036
83.266102
82.1259221
81.8780355
81.1862142
80.2328556
79.0896628
77.6611958
75.8743832
74.5424399
72.6920044
74.9803609
62.514392
66.0443785
54.0610999
61.3446724
49.2919347
53.8127163
45.4865128
49.6550609
54.250804
44.9688051
39.2656445
28.2752253
19.477101
10.7463715
1.68107157
-8.73023467
-32.8134948
-43.9510279
-54.4092084
-63.9422264
-74.0618811
-83.0034127
-91.1178347
-97.6736078
-104.313681
-110.391487
-116.406236
-121.637584
-126.725842
-131.171564
-135.352639
-138.939892
-142.076445
-144.932098
-147.464529
-149.828005
-151.832643
-153.741295
-155.284564
-157.172419
-158.728646
-160.601381
-161.9504
-163.726649
-164.970828
-166.614403
-167.760124
-169.205057
-170.271572
-171.811125
-172.797885
-173.906368
-174.723027
-175.699806
-176.437176
-177.323715
-178.050474
-178.919541
-179.596546
-180.384947
-181.053003
-181.964581
-182.714679
-183.512979
-184.099389
-184.749772
-185.273859
-185.876748
-186.371193
-186.942555
-187.408672
-187.926929
-188.346557
-188.837734
-189.264986
-189.83695
-190.281133
-190.810199
-191.210561
-191.697758
-192.061901
-192.494243
-192.809873
-193.212629
-193.508699
-193.881685
-194.167958
-194.51642
-194.786736
-195.113386
-195.377979
-195.679532
-195.93862
-196.21755
-196.469793
-196.720365
-196.961394
-197.195686
-197.445814
-197.671794
-197.923266
-198.132466
-198.379393
-198.573114
-198.80847
-198.981136
-199.21083
-199.370708
-199.596758
-199.744578
-199.967242
-200.103585
)
;

boundaryField
{
    closed
    {
        type            calculated;
        value           nonuniform List<scalar> 0();
    }
    open
    {
        type            calculated;
        value           nonuniform List<scalar> 0();
    }
    sides
    {
        type            empty;
    }
    procBoundary4to3
    {
        type            processor;
        value           uniform 92.6106089;
    }
    procBoundary4to5
    {
        type            processor;
        value           uniform -200.323278;
    }
}


// ************************************************************************* //
