/*--------------------------------*- C++ -*----------------------------------*\
| =========                 |                                                 |
| \\      /  F ield         | OpenFOAM: The Open Source CFD Toolbox           |
|  \\    /   O peration     | Version:  2306                                  |
|   \\  /    A nd           | Website:  www.openfoam.com                      |
|    \\/     M anipulation  |                                                 |
\*---------------------------------------------------------------------------*/
FoamFile
{
    version     2.0;
    format      ascii;
    arch        "LSB;label=32;scalar=64";
    class       volScalarField;
    location    "0.00128";
    object      alpha;
}
// * * * * * * * * * * * * * * * * * * * * * * * * * * * * * * * * * * * * * //

dimensions      [1 -1 -1 0 0 0 0];

internalField   nonuniform List<scalar> 
531
(
3.57708664e-05
3.50927704e-05
3.50959905e-05
3.68108969e-05
3.68038096e-05
3.58692846e-05
3.51127256e-05
3.51798676e-05
3.68205177e-05
3.57298013e-05
3.5161159e-05
3.68234043e-05
3.6807288e-05
3.68139916e-05
3.57442663e-05
3.5281667e-05
3.68152732e-05
3.68092705e-05
3.57669306e-05
3.5491173e-05
3.52615694e-05
3.52613344e-05
3.68070519e-05
3.68081554e-05
3.57561037e-05
3.54397171e-05
3.50929533e-05
3.50985724e-05
3.6790898e-05
3.68078921e-05
3.52604818e-05
3.50758319e-05
3.67854147e-05
3.68058245e-05
3.67793844e-05
3.68024751e-05
3.5947858e-05
3.51291474e-05
3.51305852e-05
3.67976923e-05
3.68044753e-05
3.57637931e-05
3.49166446e-05
3.4976476e-05
3.68016829e-05
3.68120142e-05
3.67999701e-05
3.58745923e-05
3.50425362e-05
3.5168729e-05
3.68119203e-05
3.57465689e-05
3.50929646e-05
3.68072564e-05
3.68137215e-05
3.56174199e-05
3.54331921e-05
3.68089102e-05
3.68064644e-05
3.59422967e-05
3.56435864e-05
3.50983679e-05
3.51014745e-05
3.68103634e-05
3.68137573e-05
3.68150214e-05
3.57538746e-05
3.50702085e-05
3.50717006e-05
3.6800133e-05
3.68144205e-05
3.57383745e-05
3.49935491e-05
3.50035882e-05
3.67826244e-05
3.68307904e-05
3.55824491e-05
3.52789729e-05
3.67889479e-05
3.68213256e-05
3.54916294e-05
3.54119355e-05
3.67944608e-05
3.6811567e-05
3.68018925e-05
3.57994547e-05
3.54183518e-05
3.51081078e-05
3.51060086e-05
3.68036582e-05
3.68054079e-05
3.68112741e-05
3.57512876e-05
3.50146694e-05
3.50182695e-05
3.67830524e-05
3.68078012e-05
3.57331356e-05
3.48891134e-05
3.49028714e-05
3.67706832e-05
3.68238949e-05
3.55214141e-05
3.52079735e-05
3.6778064e-05
3.6813716e-05
3.54483516e-05
3.53702262e-05
3.67830339e-05
3.68028245e-05
3.67988296e-05
3.57540658e-05
3.53059674e-05
3.4991088e-05
3.4989804e-05
3.67767785e-05
3.67834401e-05
3.67824743e-05
3.6091729e-05
3.49218611e-05
3.49230993e-05
3.67598317e-05
3.67984319e-05
3.67814142e-05
3.68012739e-05
3.58144459e-05
3.53977424e-05
3.51601586e-05
3.50811454e-05
3.67864238e-05
3.68184808e-05
3.56987811e-05
3.47075855e-05
3.48006362e-05
3.67974334e-05
3.6806127e-05
3.68096107e-05
3.56371156e-05
3.52699044e-05
3.67699735e-05
3.6770791e-05
3.67767663e-05
3.62212761e-05
3.53013644e-05
3.52412636e-05
3.48665158e-05
3.48722827e-05
3.67735936e-05
3.6792738e-05
3.68034754e-05
3.57076182e-05
3.4745017e-05
3.47511563e-05
3.67725957e-05
3.67990777e-05
3.6787647e-05
3.67985051e-05
3.57937741e-05
3.53740029e-05
3.50648558e-05
3.50632047e-05
3.67707234e-05
3.679516e-05
3.67749299e-05
3.67946194e-05
3.60842973e-05
3.52873086e-05
3.52451881e-05
3.47914746e-05
3.47959511e-05
3.67665478e-05
3.67917148e-05
3.678093e-05
3.6792277e-05
3.6033363e-05
3.52427436e-05
3.52252592e-05
3.48079158e-05
3.48137073e-05
3.6778124e-05
3.68088327e-05
3.67977945e-05
3.68098839e-05
3.5729811e-05
3.52320297e-05
3.49593218e-05
3.49603995e-05
3.68059205e-05
3.68124744e-05
3.68240253e-05
3.57097656e-05
3.50795682e-05
3.67920748e-05
3.68123542e-05
3.55883097e-05
3.53922519e-05
3.67941385e-05
3.6811865e-05
3.55144163e-05
3.54700058e-05
3.67982714e-05
3.68133956e-05
3.68183302e-05
3.57390892e-05
3.52950812e-05
3.52207821e-05
3.52240277e-05
3.68203959e-05
3.57382209e-05
3.51117145e-05
3.68059073e-05
3.68262986e-05
3.56841851e-05
3.53962005e-05
3.6814389e-05
3.68158693e-05
3.57319788e-05
3.54896216e-05
3.52337009e-05
3.52417087e-05
3.68113579e-05
3.68166853e-05
3.68221117e-05
3.58010295e-05
3.53143273e-05
3.51380131e-05
3.51417413e-05
3.68062876e-05
3.68153918e-05
3.68200434e-05
3.57872057e-05
3.50704989e-05
3.53000962e-05
3.68167781e-05
3.57117864e-05
3.5224419e-05
3.68062632e-05
3.6807821e-05
3.68199025e-05
3.57359921e-05
3.5106244e-05
3.49818253e-05
3.49839756e-05
3.68068277e-05
3.6812444e-05
3.68139376e-05
3.68134832e-05
3.57573583e-05
3.5389161e-05
3.52011729e-05
3.51987132e-05
3.68181199e-05
3.68136083e-05
3.6825803e-05
3.5793232e-05
3.51911766e-05
3.51869633e-05
3.6813955e-05
3.68188825e-05
3.57665667e-05
3.50741315e-05
3.53272453e-05
3.68250745e-05
3.57195353e-05
3.50666908e-05
3.68228443e-05
3.68230073e-05
3.55540144e-05
3.52603951e-05
3.68224695e-05
3.68182241e-05
3.55410052e-05
3.52952314e-05
3.6819972e-05
3.6810321e-05
3.58839271e-05
3.52100212e-05
3.52122924e-05
3.68084026e-05
3.68115072e-05
3.59332103e-05
3.5547048e-05
3.52052554e-05
3.52243691e-05
3.6826886e-05
3.5602323e-05
3.51731089e-05
3.68170806e-05
3.68151963e-05
3.68253661e-05
3.57173414e-05
3.51245838e-05
3.68155086e-05
3.68071359e-05
3.57152391e-05
3.52616417e-05
3.50147041e-05
3.5031595e-05
3.68158328e-05
3.6809823e-05
3.68154694e-05
3.68120703e-05
3.57286769e-05
3.50322746e-05
3.50386713e-05
3.67970501e-05
3.68131526e-05
3.56047106e-05
3.51712047e-05
3.68032478e-05
3.67937002e-05
3.57460918e-05
3.50364921e-05
3.51145834e-05
3.67915719e-05
3.67862013e-05
3.67932536e-05
3.54239861e-05
3.53514875e-05
3.67984869e-05
3.55061631e-05
3.45103509e-05
3.67830045e-05
3.67803733e-05
3.67792578e-05
3.6783559e-05
3.50873989e-05
3.50671877e-05
3.67813479e-05
3.5328679e-05
3.425712e-05
3.67717568e-05
3.67648231e-05
3.67675828e-05
3.67702222e-05
3.51224876e-05
3.51111951e-05
3.67785149e-05
3.53901586e-05
3.43410218e-05
3.6776146e-05
3.67695957e-05
3.67753383e-05
3.67779885e-05
3.52722822e-05
3.5245852e-05
3.67909085e-05
3.5528852e-05
3.48724589e-05
3.67934837e-05
3.67715115e-05
3.6790127e-05
3.57753362e-05
3.50014979e-05
3.50072991e-05
3.67779689e-05
3.67897927e-05
3.57594595e-05
3.48089867e-05
3.49111421e-05
3.67929337e-05
3.67890079e-05
3.67952612e-05
3.53849493e-05
3.53449324e-05
3.68141637e-05
3.57430058e-05
3.47348067e-05
3.67972476e-05
3.67900654e-05
3.54250079e-05
3.51336656e-05
3.679258e-05
3.67913401e-05
3.53406765e-05
3.51952864e-05
3.67948296e-05
3.67994121e-05
3.5149806e-05
3.50697611e-05
3.68101911e-05
3.68118054e-05
3.68063454e-05
3.68203068e-05
3.55469043e-05
3.51230611e-05
3.68206695e-05
3.68101862e-05
3.57283233e-05
3.53114208e-05
3.52044918e-05
3.52027975e-05
3.68137805e-05
3.67972631e-05
3.57431655e-05
3.52140769e-05
3.52147004e-05
3.68004837e-05
3.67894632e-05
3.57617271e-05
3.5002895e-05
3.50160555e-05
3.67910076e-05
3.68094619e-05
3.51427793e-05
3.50297833e-05
3.68066093e-05
3.68088506e-05
3.67994349e-05
3.68078755e-05
3.6799371e-05
3.54068316e-05
3.50556758e-05
3.6815182e-05
3.67985528e-05
3.5396787e-05
3.49493756e-05
3.68104729e-05
3.67928289e-05
3.56293793e-05
3.46619065e-05
3.47520191e-05
3.67939304e-05
3.6792285e-05
3.67905333e-05
3.54266786e-05
3.49888018e-05
3.68091225e-05
3.67924432e-05
3.56581014e-05
3.47145144e-05
3.47887277e-05
3.67998257e-05
3.67988987e-05
3.67969852e-05
3.5460481e-05
3.5114971e-05
3.68204426e-05
3.67954698e-05
3.57270981e-05
3.50144072e-05
3.50244678e-05
3.67992604e-05
3.68128791e-05
3.56725599e-05
3.52766915e-05
3.68159987e-05
3.67957413e-05
3.57552003e-05
3.51674072e-05
3.51741828e-05
3.68078969e-05
3.68108957e-05
3.56954656e-05
3.53022171e-05
3.68213214e-05
3.67917078e-05
3.57497087e-05
3.50946022e-05
3.51058719e-05
3.67983765e-05
3.68179587e-05
3.53910496e-05
3.52421271e-05
3.6819298e-05
3.68059678e-05
3.68055547e-05
3.54544989e-05
3.50017661e-05
3.6818551e-05
3.68032881e-05
3.5410595e-05
3.51326649e-05
3.68123647e-05
3.67910592e-05
3.56724983e-05
3.52569832e-05
3.48728394e-05
3.48804272e-05
3.6808675e-05
3.67794924e-05
3.67921995e-05
3.54836813e-05
3.5068387e-05
3.68134394e-05
3.67885063e-05
3.67949707e-05
3.55945905e-05
3.49697416e-05
3.68132008e-05
3.67915783e-05
3.55168697e-05
3.50582988e-05
3.68166524e-05
3.67795158e-05
3.57552586e-05
3.49431288e-05
3.49676188e-05
3.67810411e-05
3.68110733e-05
3.54385389e-05
3.51488777e-05
3.67878326e-05
3.68020411e-05
3.52510833e-05
3.52025681e-05
3.68004381e-05
3.67873328e-05
3.67812656e-05
3.55667805e-05
3.4971784e-05
3.68016318e-05
3.67778883e-05
3.57171908e-05
3.45833856e-05
3.46363643e-05
3.67816858e-05
3.67762174e-05
3.67760924e-05
3.54401375e-05
3.49424529e-05
3.67869558e-05
3.67818051e-05
3.51138658e-05
3.50540216e-05
3.6793122e-05
3.67744419e-05
3.67734573e-05
3.55546434e-05
3.49982268e-05
3.67836237e-05
)
;

boundaryField
{
    closed
    {
        type            calculated;
        value           nonuniform List<scalar> 0();
    }
    open
    {
        type            calculated;
        value           nonuniform List<scalar> 0();
    }
    sides
    {
        type            empty;
    }
    procBoundary3to2
    {
        type            processor;
        value           uniform 3.68041477e-05;
    }
    procBoundary3to4
    {
        type            processor;
        value           uniform 3.67641569e-05;
    }
}


// ************************************************************************* //
