/*--------------------------------*- C++ -*----------------------------------*\
| =========                 |                                                 |
| \\      /  F ield         | OpenFOAM: The Open Source CFD Toolbox           |
|  \\    /   O peration     | Version:  2306                                  |
|   \\  /    A nd           | Website:  www.openfoam.com                      |
|    \\/     M anipulation  |                                                 |
\*---------------------------------------------------------------------------*/
FoamFile
{
    version     2.0;
    format      ascii;
    arch        "LSB;label=32;scalar=64";
    class       volScalarField;
    location    "0.00128";
    object      H2O;
}
// * * * * * * * * * * * * * * * * * * * * * * * * * * * * * * * * * * * * * //

dimensions      [0 0 0 0 0 0 0];

internalField   nonuniform List<scalar> 
531
(
0.00562807807
0.00745869461
0.00745422576
0.000946196904
0.00104594732
0.00449624411
0.0074282374
0.00732399786
0.000929563263
0.00639480246
0.00735314387
0.000853647672
0.00110573496
0.0010216424
0.00598437329
0.007165135
0.000945981658
0.00108491733
0.00555023741
0.0068364193
0.00719710913
0.00719688588
0.000918448272
0.00107760244
0.00599043914
0.00691839575
0.00745833957
0.00745023266
0.000848689844
0.00103992807
0.00719950986
0.00748552141
0.000795302864
0.00103517246
0.000992941594
0.00104309694
0.00396227661
0.00740271801
0.00740060558
0.000898575679
0.00102638982
0.00562624557
0.00772897887
0.00763946136
0.00089762546
0.00108492845
0.00104236682
0.00440411416
0.00753671194
0.00734114978
0.000915591312
0.00573025844
0.00745891353
0.00090476324
0.00106214421
0.00663598693
0.00692725846
0.000897022944
0.001116873
0.00395378784
0.00659220829
0.00745046862
0.00744588012
0.00087459058
0.0011029594
0.00104859561
0.0055956388
0.00749392631
0.00749222414
0.000913564624
0.00102649803
0.00586009825
0.00761126311
0.007598365
0.000899304567
0.00104113653
0.00669450317
0.00716840011
0.000877168512
0.00107688429
0.0068374838
0.00695942391
0.000856916846
0.00112637897
0.00107625729
0.00508134971
0.00695098583
0.00743537083
0.00743874239
0.000844292909
0.00110397249
0.00103333306
0.00575445216
0.00757896767
0.0075748746
0.000908708153
0.00101592399
0.00621560434
0.00776991706
0.00775387124
0.000885295332
0.00102867305
0.00679171893
0.007279962
0.000865807386
0.0010687329
0.0069062388
0.00702606841
0.000846429826
0.00112461134
0.00106374391
0.00584513477
0.00712840079
0.00761511533
0.00761737409
0.000806570976
0.00105746896
0.000992123305
0.00317696036
0.00772081325
0.00772030198
0.000826184336
0.00103799221
0.00104323504
0.00106753266
0.00497251235
0.00698340912
0.0073547219
0.00747744737
0.000865648796
0.000999221427
0.00650376078
0.00804828367
0.00790958575
0.00087550033
0.00106358792
0.00102866545
0.00660611532
0.00718453245
0.000867841991
0.0010689453
0.00103201193
0.00258245454
0.00713504808
0.00722934389
0.00780534651
0.0077972611
0.000844040495
0.00107588837
0.00101872312
0.00649226085
0.00798920785
0.00798339928
0.000903546028
0.00102522565
0.0010622645
0.00105818509
0.00528180007
0.00702192913
0.00750161837
0.00750471692
0.000832125948
0.00104640746
0.000998379384
0.00106169604
0.003215181
0.00715672812
0.00722303218
0.00791987321
0.00791391087
0.000834149355
0.00102017557
0.00100529252
0.0010470074
0.0034707534
0.00722632425
0.00725362736
0.00789550116
0.00788885683
0.000844077351
0.00101767296
0.00103491975
0.00104247109
0.00611332809
0.00724305039
0.00766577148
0.00766389877
0.000834936294
0.00107807312
0.000973820905
0.00648530944
0.00747973748
0.000937875706
0.00106080556
0.00668200753
0.00699168801
0.000935890624
0.00109551058
0.00679911389
0.00686825311
0.000905223427
0.00113382
0.00105384977
0.00574445261
0.00714384183
0.00725960826
0.00725479544
0.000931101762
0.00582253826
0.00742997052
0.00096939576
0.00106037498
0.00652387178
0.00698456105
0.000983258993
0.00109642208
0.00577599139
0.00683769126
0.00723935206
0.00722701772
0.000914550089
0.00111210678
0.00104250636
0.00499963544
0.00711320377
0.00738904814
0.00738317111
0.000896624996
0.00110619325
0.0010414569
0.00516855393
0.00749380456
0.00713547633
0.00096076029
0.00648147409
0.00725462276
0.00091015101
0.00111320816
0.00100943119
0.00594810846
0.00743833
0.00763121832
0.0076277986
0.00086599082
0.00103900484
0.00103798806
0.00106282495
0.00554472268
0.00699662612
0.00729059496
0.00729442615
0.000926031432
0.00111093587
0.0010522325
0.00509878244
0.00730609993
0.00731255602
0.000999905493
0.00104594947
0.00529754003
0.00748823104
0.00709121894
0.000956458475
0.0059403302
0.00749991586
0.000985133232
0.00104687854
0.00673143537
0.00719799648
0.000970160487
0.0010663206
0.00675287815
0.00714380699
0.000979845331
0.00106852688
0.00430144515
0.00727683891
0.00727289648
0.000978427011
0.00109359814
0.00399096171
0.00674613456
0.00728418883
0.00725447906
0.000978185649
0.00665746778
0.00733434604
0.000915333547
0.00110291237
0.00100047831
0.00633167043
0.00740990316
0.00101228688
0.00105096847
0.00644783227
0.00719724091
0.0075804847
0.007553802
0.000894973672
0.00102994051
0.00103855094
0.0010383749
0.00617430398
0.00755234055
0.00754342798
0.000993019014
0.0010378442
0.0066556288
0.00733761057
0.0010120207
0.00104159676
0.00604691283
0.00754470082
0.00742532429
0.000971898637
0.0010761324
0.00105140672
0.00694411501
0.00705775865
0.000892044923
0.00681455109
0.00834118869
0.000879288749
0.000986015891
0.000967176299
0.00101485655
0.00746646292
0.00749782997
0.000846492377
0.0070930935
0.00871093677
0.000856803259
0.000972631662
0.000960396335
0.00101261187
0.00741223328
0.00742976743
0.000858221661
0.00699756104
0.00858757003
0.000871686298
0.000983118048
0.000976794204
0.0010246291
0.00718132938
0.00722222856
0.000901940432
0.00677935335
0.00779457349
0.000907854746
0.00109654451
0.00100108802
0.00596786889
0.00759771658
0.00759018052
0.00101974365
0.00102044446
0.00637628493
0.00789063672
0.00773798626
0.000936955937
0.00105486214
0.00101794037
0.0070043171
0.00706729244
0.000891557982
0.0064091952
0.00800506243
0.000971832739
0.00101926023
0.00694223082
0.0073956035
0.000948843
0.00105730411
0.00707465357
0.00730027762
0.000927229355
0.00105405102
0.0073707337
0.00749488912
0.000874011005
0.00103252701
0.00099820168
0.00103078948
0.00674710584
0.007412297
0.000989528424
0.00105271465
0.00639311302
0.0071196926
0.00728571434
0.00728853132
0.000968707806
0.00105456073
0.00621167006
0.00727133274
0.00727007375
0.00102440928
0.00104704793
0.0057325934
0.00759594761
0.00757798803
0.000960515962
0.00103494385
0.00738152422
0.00755692114
0.000833052855
0.00104377227
0.000940509526
0.00106329758
0.00104447867
0.00696896125
0.00751619426
0.000934883336
0.00102584328
0.00698506748
0.00767901032
0.000953517213
0.000993874718
0.0066178079
0.00811279608
0.00798205633
0.000920715404
0.00104711171
0.00102969565
0.00693906014
0.00761831788
0.000955978204
0.00100001851
0.00657200575
0.00803405241
0.00792672678
0.000929161523
0.00105141055
0.00104641187
0.00688496573
0.00742458426
0.000965366117
0.00103005466
0.00640266044
0.00757842361
0.00756529711
0.00098780223
0.00104549666
0.00655096878
0.00717359767
0.000995429526
0.00106120455
0.00572219026
0.00734349074
0.00733274984
0.000992067477
0.00105932498
0.00651291162
0.00713396007
0.000995110783
0.00105755073
0.00573169905
0.00745546918
0.00743905718
0.000964870761
0.00105346577
0.00699579577
0.00722669987
0.000872078317
0.00108334246
0.0010092659
0.00689392387
0.0075995277
0.000909224767
0.00103369297
0.00696428286
0.00739726956
0.000935476475
0.00105225525
0.00655133794
0.00720514925
0.00779573668
0.00778325933
0.000850859763
0.00106159032
0.000968430607
0.00685068246
0.00749624499
0.000849892188
0.00108410636
0.00098675157
0.00667451388
0.00764746492
0.000921648868
0.00102504004
0.00679709344
0.00751133046
0.000949938884
0.00102571601
0.00577362294
0.0076853869
0.00765300602
0.000941186638
0.00103431971
0.00692397411
0.00737221092
0.000885480013
0.00105497981
0.00721438932
0.00728888334
0.000839370298
0.00109162152
0.00101609873
0.00672032619
0.00764327372
0.000926629043
0.000993151618
0.00648211354
0.0082256715
0.00815431222
0.000868829981
0.00104251243
0.000993456642
0.0069205531
0.00768830878
0.00085305182
0.00103155288
0.00742513126
0.00751820581
0.000796821915
0.00107955831
0.00099822557
0.00674189795
0.00760200365
0.00090747496
)
;

boundaryField
{
    closed
    {
        type            calculated;
        value           nonuniform List<scalar> 0();
    }
    open
    {
        type            calculated;
        value           nonuniform List<scalar> 0();
    }
    sides
    {
        type            empty;
    }
    procBoundary3to2
    {
        type            processor;
        value           uniform 0.00103641312;
    }
    procBoundary3to4
    {
        type            processor;
        value           uniform 0.00103773928;
    }
}


// ************************************************************************* //
