/*--------------------------------*- C++ -*----------------------------------*\
| =========                 |                                                 |
| \\      /  F ield         | OpenFOAM: The Open Source CFD Toolbox           |
|  \\    /   O peration     | Version:  2306                                  |
|   \\  /    A nd           | Website:  www.openfoam.com                      |
|    \\/     M anipulation  |                                                 |
\*---------------------------------------------------------------------------*/
FoamFile
{
    version     2.0;
    format      ascii;
    arch        "LSB;label=32;scalar=64";
    class       volScalarField;
    location    "0.00128";
    object      prefDPV_T;
}
// * * * * * * * * * * * * * * * * * * * * * * * * * * * * * * * * * * * * * //

dimensions      [1 -1 -1 -1 0 0 0];

internalField   nonuniform List<scalar> 
531
(
5.93931569e-10
5.89281417e-10
5.89181761e-10
6.09871908e-10
6.09026291e-10
5.97731016e-10
5.89262505e-10
5.89446048e-10
6.09946251e-10
5.91453255e-10
5.89410392e-10
6.10601654e-10
6.08454526e-10
6.09167507e-10
5.92750175e-10
5.89785252e-10
6.0983973e-10
6.08629228e-10
5.94149898e-10
5.90516436e-10
5.89782205e-10
5.89712628e-10
6.10150898e-10
6.0870455e-10
5.92779654e-10
5.90383296e-10
5.89294342e-10
5.89188452e-10
6.10901268e-10
6.09049151e-10
5.89888073e-10
5.89094671e-10
6.11419071e-10
6.09108384e-10
6.09698569e-10
6.09062578e-10
5.99649245e-10
5.89361413e-10
5.89288716e-10
6.10402345e-10
6.09198521e-10
5.9390837e-10
5.88687468e-10
5.88722373e-10
6.1037942e-10
6.08607885e-10
6.09088761e-10
5.98027575e-10
5.89029303e-10
5.89349407e-10
6.10138401e-10
5.93525298e-10
5.89171161e-10
6.10271814e-10
6.08802131e-10
5.90926222e-10
5.90296361e-10
6.10328075e-10
6.08359022e-10
5.99650106e-10
5.90959069e-10
5.89211943e-10
5.8913113e-10
6.10516984e-10
6.08429862e-10
6.08915174e-10
5.93960196e-10
5.89132547e-10
5.89000359e-10
6.10248958e-10
6.09120213e-10
5.9310099e-10
5.8894404e-10
5.88709685e-10
6.1051512e-10
6.08861339e-10
5.90900997e-10
5.89694171e-10
6.10662807e-10
6.08609327e-10
5.9058908e-10
5.90163406e-10
6.10799763e-10
6.08232522e-10
6.08765485e-10
5.95691568e-10
5.90263233e-10
5.89252177e-10
5.89200067e-10
6.10839526e-10
6.08485212e-10
6.09082687e-10
5.93471558e-10
5.89004599e-10
5.8886091e-10
6.10427504e-10
6.0926738e-10
5.9200769e-10
5.88649263e-10
5.8841307e-10
6.10735768e-10
6.09027275e-10
5.90732613e-10
5.89495064e-10
6.10850831e-10
6.08742238e-10
5.90480253e-10
5.90069806e-10
6.10983919e-10
6.0831637e-10
6.08903333e-10
5.93209564e-10
5.89982971e-10
5.88929728e-10
5.88902532e-10
6.11388195e-10
6.09081178e-10
6.09681486e-10
6.0258057e-10
5.88715818e-10
5.88639065e-10
6.11350296e-10
6.09140496e-10
6.0922663e-10
6.08849776e-10
5.96079544e-10
5.90194593e-10
5.89437203e-10
5.89067677e-10
6.10785656e-10
6.09335414e-10
5.91139516e-10
5.87942771e-10
5.88143586e-10
6.10610559e-10
6.08847903e-10
6.09137916e-10
5.91031416e-10
5.89863136e-10
6.10897413e-10
6.09076668e-10
6.09365356e-10
6.04880935e-10
5.89915949e-10
5.89840036e-10
5.88526112e-10
5.88511745e-10
6.1108063e-10
6.08840332e-10
6.0927577e-10
5.91229014e-10
5.88145032e-10
5.88044635e-10
6.10557098e-10
6.09251232e-10
6.09004405e-10
6.08956448e-10
5.9506656e-10
5.90190021e-10
5.89194861e-10
5.89112626e-10
6.11209707e-10
6.09089685e-10
6.09684753e-10
6.08954886e-10
6.02436528e-10
5.89843262e-10
5.89798342e-10
5.88261016e-10
5.88243516e-10
6.11225268e-10
6.09354737e-10
6.095746e-10
6.09106834e-10
6.01465701e-10
5.89703352e-10
5.89659347e-10
5.88291371e-10
5.88219142e-10
6.11044049e-10
6.0924352e-10
6.09173364e-10
6.09010596e-10
5.92302915e-10
5.89674271e-10
5.88678707e-10
5.88699511e-10
6.10904898e-10
6.08666802e-10
6.09521506e-10
5.91157628e-10
5.89106465e-10
6.10094383e-10
6.08824888e-10
5.90821919e-10
5.90157607e-10
6.10095932e-10
6.085125e-10
5.90573374e-10
5.90383342e-10
6.10338299e-10
6.08150229e-10
6.08841883e-10
5.93452228e-10
5.89805353e-10
5.89494033e-10
5.89538235e-10
6.09933407e-10
5.93213531e-10
5.89139473e-10
6.09702219e-10
6.08721238e-10
5.91017368e-10
5.90125064e-10
6.09511184e-10
6.0847326e-10
5.93328436e-10
5.90466775e-10
5.89535621e-10
5.89585232e-10
6.10152119e-10
6.08323688e-10
6.0891566e-10
5.95942954e-10
5.89837673e-10
5.89261877e-10
5.89233662e-10
6.10352193e-10
6.08387707e-10
6.08941134e-10
5.95379683e-10
5.89071497e-10
5.89784061e-10
6.09695208e-10
5.91151588e-10
5.89601897e-10
6.10231383e-10
6.08382055e-10
6.09232177e-10
5.92826103e-10
5.89220284e-10
5.88738564e-10
5.88755385e-10
6.10621397e-10
6.09022177e-10
6.0901982e-10
6.08797784e-10
5.94127551e-10
5.90151318e-10
5.89474455e-10
5.89464639e-10
6.09996546e-10
6.08358111e-10
6.08798991e-10
5.95613706e-10
5.8942219e-10
5.89385006e-10
6.09364342e-10
6.08909342e-10
5.94907982e-10
5.89071137e-10
5.89781365e-10
6.09669552e-10
5.92783034e-10
5.89009788e-10
6.09428737e-10
6.08869096e-10
5.90558145e-10
5.89672744e-10
6.09566493e-10
6.08729355e-10
5.90534116e-10
5.89822285e-10
6.09498625e-10
6.08770403e-10
5.98371996e-10
5.89513883e-10
5.89464826e-10
6.0960136e-10
6.08532722e-10
5.99501224e-10
5.90641285e-10
5.8948296e-10
5.89568685e-10
6.09460107e-10
5.90805904e-10
5.89371562e-10
6.10100453e-10
6.08419189e-10
6.0927084e-10
5.91593818e-10
5.89281935e-10
6.0924039e-10
6.08954792e-10
5.91234635e-10
5.8981544e-10
5.88836912e-10
5.8896665e-10
6.10292263e-10
6.0912471e-10
6.0900285e-10
6.09030789e-10
5.92114378e-10
5.89018028e-10
5.88906106e-10
6.09558519e-10
6.09027209e-10
5.90867864e-10
5.89496327e-10
6.09338215e-10
6.09144826e-10
5.92568908e-10
5.89149182e-10
5.89282628e-10
6.09792186e-10
6.08889392e-10
6.09059186e-10
5.90383015e-10
5.90162076e-10
6.10454479e-10
5.90635486e-10
5.87387762e-10
6.10691085e-10
6.09753312e-10
6.09932173e-10
6.09467201e-10
5.89336183e-10
5.89227721e-10
6.10996804e-10
5.90066917e-10
5.86649918e-10
6.10981611e-10
6.09998042e-10
6.10086324e-10
6.0959333e-10
5.8950848e-10
5.89438828e-10
6.10914895e-10
5.90301833e-10
5.86924283e-10
6.10813674e-10
6.09865205e-10
6.09876562e-10
6.09422676e-10
5.89947416e-10
5.89851606e-10
6.10425817e-10
5.90732018e-10
5.8862432e-10
6.10352509e-10
6.08818861e-10
6.09540018e-10
5.9292534e-10
5.8907355e-10
5.88988992e-10
6.09467139e-10
6.09367417e-10
5.9162826e-10
5.88419767e-10
5.88635923e-10
6.10095866e-10
6.09061082e-10
6.0934714e-10
5.9019762e-10
5.90086298e-10
6.10335809e-10
5.91462794e-10
5.88097731e-10
6.09748122e-10
6.09376002e-10
5.90371343e-10
5.89425989e-10
6.09991826e-10
6.09020553e-10
5.90129495e-10
5.89583114e-10
6.10168227e-10
6.08986959e-10
5.89450904e-10
5.89081114e-10
6.10523503e-10
6.0908587e-10
6.0943897e-10
6.09035792e-10
5.90664219e-10
5.89247636e-10
6.09405935e-10
6.08915235e-10
5.91452422e-10
5.89980977e-10
5.89542048e-10
5.89580169e-10
6.09647008e-10
6.08999117e-10
5.92059926e-10
5.89720381e-10
5.89630358e-10
6.09247634e-10
6.0912856e-10
5.93579709e-10
5.89051781e-10
5.88891559e-10
6.09899189e-10
6.09082159e-10
5.89461348e-10
5.88918432e-10
6.10916213e-10
6.09006813e-10
6.10012758e-10
6.08836959e-10
6.09074264e-10
5.9021717e-10
5.8910687e-10
6.09940053e-10
6.09249742e-10
5.90199684e-10
5.88791703e-10
6.09809436e-10
6.09583955e-10
5.90989136e-10
5.87921214e-10
5.88048592e-10
6.10233744e-10
6.09105823e-10
6.09277712e-10
5.90348599e-10
5.88945204e-10
6.09797849e-10
6.09531459e-10
5.91082189e-10
5.88082582e-10
5.8814775e-10
6.10111556e-10
6.09014973e-10
6.09075358e-10
5.90419064e-10
5.89327589e-10
6.09625335e-10
6.09235705e-10
5.91418668e-10
5.89083703e-10
5.88879621e-10
6.09588289e-10
6.08959898e-10
5.91181129e-10
5.89839557e-10
6.09388891e-10
6.0895058e-10
5.93584592e-10
5.89540413e-10
5.89396504e-10
6.09482261e-10
6.08849653e-10
5.91217901e-10
5.89941932e-10
6.0935053e-10
6.09015425e-10
5.9353369e-10
5.89350953e-10
5.89132655e-10
6.09801974e-10
6.0884824e-10
5.90280775e-10
5.89624385e-10
6.10469542e-10
6.08669207e-10
6.09345129e-10
5.90378956e-10
5.88895219e-10
6.1014367e-10
6.09141572e-10
5.90293766e-10
5.89377168e-10
6.09956696e-10
6.09068683e-10
5.91187966e-10
5.89925647e-10
5.88545941e-10
5.88614519e-10
6.10741641e-10
6.09074802e-10
6.09818498e-10
5.90592497e-10
5.89199013e-10
6.10712884e-10
6.08798535e-10
6.09631446e-10
5.90916851e-10
5.88884312e-10
6.10074146e-10
6.09311719e-10
5.90648908e-10
5.89214981e-10
6.09793454e-10
6.09400722e-10
5.93429892e-10
5.88949841e-10
5.88703945e-10
6.10151991e-10
6.09075301e-10
5.90581916e-10
5.89368056e-10
6.10597405e-10
6.08958002e-10
5.8994567e-10
5.89578176e-10
6.10908699e-10
6.08739116e-10
6.09474076e-10
5.90885331e-10
5.88960915e-10
6.1012008e-10
6.09708538e-10
5.91382448e-10
5.87776844e-10
5.87752729e-10
6.10794971e-10
6.09274309e-10
6.0972004e-10
5.90531395e-10
5.88845308e-10
6.10893724e-10
6.09329651e-10
5.89523438e-10
5.89166818e-10
6.1134427e-10
6.08950891e-10
6.09697853e-10
5.90936841e-10
5.89110406e-10
6.10434013e-10
)
;

boundaryField
{
    closed
    {
        type            calculated;
        value           nonuniform List<scalar> 0();
    }
    open
    {
        type            calculated;
        value           nonuniform List<scalar> 0();
    }
    sides
    {
        type            empty;
    }
    procBoundary3to2
    {
        type            processor;
        value           uniform 6.09110195e-10;
    }
    procBoundary3to4
    {
        type            processor;
        value           uniform 6.09413611e-10;
    }
}


// ************************************************************************* //
