/*--------------------------------*- C++ -*----------------------------------*\
| =========                 |                                                 |
| \\      /  F ield         | OpenFOAM: The Open Source CFD Toolbox           |
|  \\    /   O peration     | Version:  2306                                  |
|   \\  /    A nd           | Website:  www.openfoam.com                      |
|    \\/     M anipulation  |                                                 |
\*---------------------------------------------------------------------------*/
FoamFile
{
    version     2.0;
    format      ascii;
    arch        "LSB;label=32;scalar=64";
    class       volScalarField;
    location    "0.00128";
    object      PV;
}
// * * * * * * * * * * * * * * * * * * * * * * * * * * * * * * * * * * * * * //

dimensions      [0 0 0 0 0 0 0];

internalField   nonuniform List<scalar> 
531
(
-0.00710799056
-0.00718786288
-0.00718443619
-0.00694122519
-0.00694044314
-0.00706556656
-0.00718447091
-0.00717848502
-0.00694010227
-0.00713740279
-0.00718067026
-0.00694131903
-0.00693956423
-0.0069394784
-0.00712196777
-0.00717149495
-0.00694094618
-0.00693854248
-0.00710413102
-0.00715698606
-0.00717415525
-0.00717186143
-0.00694170814
-0.00693819854
-0.00712192502
-0.00716108651
-0.00718703286
-0.00718351961
-0.00694537307
-0.00693960421
-0.00717668955
-0.0071864509
-0.00694760732
-0.0069417853
-0.00694540535
-0.00694211028
-0.00704875283
-0.00718541363
-0.00718304323
-0.00694451502
-0.00694179568
-0.00710756798
-0.00720021633
-0.00719195139
-0.00694420099
-0.00693925296
-0.00694173516
-0.00706208321
-0.00718966997
-0.0071788862
-0.00694155546
-0.00711118219
-0.00718486428
-0.00694320543
-0.00693895208
-0.00714920706
-0.00716154408
-0.00694302456
-0.00693886901
-0.00704699195
-0.00714540546
-0.00718575328
-0.0071827484
-0.00694297582
-0.00693798986
-0.00693922562
-0.0071044536
-0.00718760873
-0.00718406819
-0.0069426336
-0.00693947969
-0.00711393579
-0.00719423741
-0.00718692278
-0.0069459331
-0.00693646634
-0.00715323233
-0.00717013201
-0.00694552245
-0.00693776094
-0.00715936331
-0.00716215507
-0.00694513045
-0.0069387914
-0.00693998034
-0.0070869546
-0.00716227899
-0.00718518391
-0.00718319173
-0.00694422978
-0.00693875574
-0.00693977672
-0.00711101386
-0.00719211994
-0.00718815178
-0.00694452846
-0.00694024992
-0.00712838134
-0.00720184844
-0.00719409923
-0.0069473899
-0.00693728119
-0.00715802758
-0.00717568927
-0.00694698
-0.00693889922
-0.00716315114
-0.00716623562
-0.00694698742
-0.00694031414
-0.00694102799
-0.00711732866
-0.00717259958
-0.00719519065
-0.0071936312
-0.00694952288
-0.00694373144
-0.0069459266
-0.00702421467
-0.00720084142
-0.00719840728
-0.00695176697
-0.00694300074
-0.00694514303
-0.00694168858
-0.00708422679
-0.00716494245
-0.00718232843
-0.0071849344
-0.00694605394
-0.00694017273
-0.00714100757
-0.00721291639
-0.00720364508
-0.00694475214
-0.00694069858
-0.00694053869
-0.00714916619
-0.00717559029
-0.00694893547
-0.00694501409
-0.00694501697
-0.00700635972
-0.00717236488
-0.0071779861
-0.00720297789
-0.00720070605
-0.00694842746
-0.00694121481
-0.00694186304
-0.00714168467
-0.00721209486
-0.0072080277
-0.00694795121
-0.00694222764
-0.00694342244
-0.00694165408
-0.00709620662
-0.00716785441
-0.00719029825
-0.00718820507
-0.00694926917
-0.00694251201
-0.0069457553
-0.00694208303
-0.00702477189
-0.00717260095
-0.00717649197
-0.00720724194
-0.0072054606
-0.00694871938
-0.00694259534
-0.00694395927
-0.00694191694
-0.00703157881
-0.00717525524
-0.00717591143
-0.0072053602
-0.00720244256
-0.00694695831
-0.00694020294
-0.00694142345
-0.00693961115
-0.00712513864
-0.00717606943
-0.00719338836
-0.00719340933
-0.00694385018
-0.00693975371
-0.00693941451
-0.00714165547
-0.00718597343
-0.00694508103
-0.00693982668
-0.00715181065
-0.00716518393
-0.0069449446
-0.00693958647
-0.00715688506
-0.00715930352
-0.00694470201
-0.00693877111
-0.00693912868
-0.00711062645
-0.0071706529
-0.00717438698
-0.00717463735
-0.00693970105
-0.00711392533
-0.00718131815
-0.0069417329
-0.0069369626
-0.00714100141
-0.00716267627
-0.00694007928
-0.00693769952
-0.00711035714
-0.0071566179
-0.00717310685
-0.00717270089
-0.00694136724
-0.00693759117
-0.00693760332
-0.00708249429
-0.00716760714
-0.00718104719
-0.00717891779
-0.00694275442
-0.00693750592
-0.00693849627
-0.00708845984
-0.00718633438
-0.00716881157
-0.00693994041
-0.00713982873
-0.00717581315
-0.00694244515
-0.00693909135
-0.0069388928
-0.00711909653
-0.00718383058
-0.00719213789
-0.00719111547
-0.0069438224
-0.00693998977
-0.00694024439
-0.00693933421
-0.00710388591
-0.00716464261
-0.00717755084
-0.00717660398
-0.0069416347
-0.00693831173
-0.00693848734
-0.00708634214
-0.00717799605
-0.00717656022
-0.00694032857
-0.00693874337
-0.00709265111
-0.00718598469
-0.00716556273
-0.00693895617
-0.00711744265
-0.00718514701
-0.00693964815
-0.00693807207
-0.00715035779
-0.00717278378
-0.00693992578
-0.0069387907
-0.00715150308
-0.00717149509
-0.00693966289
-0.00694023179
-0.00705718632
-0.00717741719
-0.00717462756
-0.00694172296
-0.00693854234
-0.00704758169
-0.00715244712
-0.0071765685
-0.00717499997
-0.00693858514
-0.00714839837
-0.00717867587
-0.00694128608
-0.00693902737
-0.00693882629
-0.00713458341
-0.00718318607
-0.00694003196
-0.00694026257
-0.00713831302
-0.00717531771
-0.00718949659
-0.00718950035
-0.00694193759
-0.00694128748
-0.00693960683
-0.00694106373
-0.00712775734
-0.0071918901
-0.00718699185
-0.0069433188
-0.00693971121
-0.00715003553
-0.00718156701
-0.00694137706
-0.0069428798
-0.00712401129
-0.00719342421
-0.00718433062
-0.00694432427
-0.00694278049
-0.00694262644
-0.00716479284
-0.0071711054
-0.00694373334
-0.00715965884
-0.00722626463
-0.00694670966
-0.00694534769
-0.00694583965
-0.00694420573
-0.00718902371
-0.0071904919
-0.00694618487
-0.00717224659
-0.0072434607
-0.00694815129
-0.00694738239
-0.00694720363
-0.00694584074
-0.00718759146
-0.00718865479
-0.00694638256
-0.00716858537
-0.00723819694
-0.00694741171
-0.00694662654
-0.00694597564
-0.00694467659
-0.00717638687
-0.00717875037
-0.00694413487
-0.00715799903
-0.00720281087
-0.00694459498
-0.00694353271
-0.00694339648
-0.00712313549
-0.00719540669
-0.00719214977
-0.00694351494
-0.00694269449
-0.00713821395
-0.00720789351
-0.00719757527
-0.00694360252
-0.0069419385
-0.00694201322
-0.00716557029
-0.00716974045
-0.00694105844
-0.00714016416
-0.00721024991
-0.00694310778
-0.00694239089
-0.00716477671
-0.00718465206
-0.00694442625
-0.0069421886
-0.00717171943
-0.00718020296
-0.00694493574
-0.0069417929
-0.0071843097
-0.00718795062
-0.0069442712
-0.00694159914
-0.00694300838
-0.0069401059
-0.00715474418
-0.00718359114
-0.00694016803
-0.00694025772
-0.00713741048
-0.00717191137
-0.00717771593
-0.00717823545
-0.00694042841
-0.00694146332
-0.0071305056
-0.00718030533
-0.00717767993
-0.00694134897
-0.00694304121
-0.00711187107
-0.00719602147
-0.00718991767
-0.00694491953
-0.00694076147
-0.00718545746
-0.00719054103
-0.00694544282
-0.00694270283
-0.00694499914
-0.00694261074
-0.00694267646
-0.00716594502
-0.00719007716
-0.00694263042
-0.00694257826
-0.00716541988
-0.00719744923
-0.0069411865
-0.00694369436
-0.00714742327
-0.00721781681
-0.00720735142
-0.00694368556
-0.00694181123
-0.00694196819
-0.00716304278
-0.00719396467
-0.00694029327
-0.00694266436
-0.00714452757
-0.00721347665
-0.00720395436
-0.00694239291
-0.00694050293
-0.00694067161
-0.00715956789
-0.0071848272
-0.00693871721
-0.00694190907
-0.00713589674
-0.00719407012
-0.00718719181
-0.00694199391
-0.00693867274
-0.00714611425
-0.00717338008
-0.00693928019
-0.00694154671
-0.00711005076
-0.00718317535
-0.00717794446
-0.0069413424
-0.00693918385
-0.00714407795
-0.0071723551
-0.00693902938
-0.00694241673
-0.00711020226
-0.00718929772
-0.0071822003
-0.00694316969
-0.00693862333
-0.00716722406
-0.00717474734
-0.00694172383
-0.00694079609
-0.00694086704
-0.00716128531
-0.00719168015
-0.00694154168
-0.00694064157
-0.00716463609
-0.00718365192
-0.00694106717
-0.00694178608
-0.00714583149
-0.00717749684
-0.00720166793
-0.00720166576
-0.00694301448
-0.00694377633
-0.00694351607
-0.00716112108
-0.00718953103
-0.00694307607
-0.00694309054
-0.00694297307
-0.00715310748
-0.00719586418
-0.00694216826
-0.00694276998
-0.00715737742
-0.00719084892
-0.00694022016
-0.00694469821
-0.00711231078
-0.00720127377
-0.00719180123
-0.00694577939
-0.00693929946
-0.00716690307
-0.00718138929
-0.00694558906
-0.00694069711
-0.00717915109
-0.0071791587
-0.00694462495
-0.00694280346
-0.00694391629
-0.00715581893
-0.00719682292
-0.00694267053
-0.00694506799
-0.00714336002
-0.00722430538
-0.00721654865
-0.00694583621
-0.00694423851
-0.00694433087
-0.00716551087
-0.00719790551
-0.00694585356
-0.00694324722
-0.00718854979
-0.0071904614
-0.00694570053
-0.00694441501
-0.0069446706
-0.00715849894
-0.00719556781
-0.00694541514
)
;

boundaryField
{
    closed
    {
        type            zeroGradient;
    }
    open
    {
        type            zeroGradient;
    }
    sides
    {
        type            empty;
    }
    procBoundary3to2
    {
        type            processor;
        value           uniform -0.00694120058;
    }
    procBoundary3to4
    {
        type            processor;
        value           uniform -0.00694520395;
    }
}


// ************************************************************************* //
