/*--------------------------------*- C++ -*----------------------------------*\
| =========                 |                                                 |
| \\      /  F ield         | OpenFOAM: The Open Source CFD Toolbox           |
|  \\    /   O peration     | Version:  2306                                  |
|   \\  /    A nd           | Website:  www.openfoam.com                      |
|    \\/     M anipulation  |                                                 |
\*---------------------------------------------------------------------------*/
FoamFile
{
    version     2.0;
    format      ascii;
    arch        "LSB;label=32;scalar=64";
    class       volScalarField;
    location    "0.00128";
    object      sourcePV;
}
// * * * * * * * * * * * * * * * * * * * * * * * * * * * * * * * * * * * * * //

dimensions      [1 -3 -1 0 0 0 0];

internalField   nonuniform List<scalar> 
531
(
0.107310101
0.168314257
0.167792481
0.00477320677
0.00558490018
0.0808039385
0.166852415
0.162610962
0.00469607363
0.126140722
0.16385375
0.00405754042
0.00612298584
0.00544631096
0.115976293
0.156314473
0.00480173675
0.00595802827
0.105432301
0.143316281
0.157826577
0.157557387
0.00450631835
0.00588740404
0.116161243
0.146774132
0.168338259
0.167629477
0.00378961599
0.00556143929
0.158324646
0.168958359
0.00328763344
0.00550611265
0.0049592191
0.00555109583
0.0688050062
0.165994692
0.165656448
0.00426937023
0.00542107763
0.107262174
0.178787071
0.174870142
0.00428870712
0.00597723727
0.00552742874
0.0788218086
0.171104199
0.163079262
0.00451531783
0.109765804
0.167974938
0.00438915198
0.00579323716
0.135175629
0.146841426
0.004333503
0.00621280813
0.0688119328
0.13311578
0.167716171
0.167239958
0.00414895406
0.00614425295
0.00568569159
0.106523417
0.169464184
0.168965409
0.00441612845
0.00549115205
0.112912041
0.174230929
0.172952509
0.00417185215
0.00573156651
0.137992263
0.156121736
0.0040234233
0.00597306748
0.143684482
0.147857483
0.00388561717
0.00632988997
0.00583229593
0.0943293766
0.147864014
0.167148726
0.167135162
0.00383941903
0.00609477125
0.00552815266
0.110358391
0.172949399
0.172337131
0.00425627074
0.00535396213
0.121671952
0.180492761
0.179170508
0.00396846775
0.00557595686
0.142055895
0.160706649
0.0038500297
0.00584987338
0.146586344
0.150726343
0.0037159034
0.00625382233
0.00570345553
0.112576698
0.155309676
0.17436369
0.174388516
0.00332647199
0.00554297917
0.00497344278
0.0516837617
0.178498881
0.178275399
0.00338118845
0.00547909751
0.00540655132
0.00575299934
0.0917648866
0.149161354
0.164018616
0.168498343
0.00390608701
0.00528416102
0.129489699
0.190956963
0.1854017
0.00406744481
0.00575279561
0.00547636579
0.134168233
0.157528093
0.00381223242
0.00555444211
0.00527791463
0.0390169737
0.155372972
0.159553285
0.181745175
0.181355787
0.00363039406
0.00576562109
0.00534806117
0.129348313
0.188841299
0.188387261
0.00413974075
0.00537360545
0.00561328257
0.00565339414
0.0990116327
0.151010177
0.170006876
0.169896778
0.00350722851
0.00552886988
0.00497547248
0.00565665448
0.0524785321
0.156132664
0.159109575
0.186113084
0.185817119
0.0034962563
0.0052791156
0.00507638521
0.00551407097
0.0580611912
0.158922195
0.1600532
0.185126259
0.184670859
0.00366176719
0.00537620918
0.00544822098
0.00559718953
0.119118049
0.159607722
0.175936707
0.175911091
0.00377372075
0.00592152809
0.00510340718
0.12863319
0.168729086
0.00457094504
0.00577219544
0.137002191
0.149412329
0.00456801481
0.0060670993
0.141719335
0.144308165
0.00433098944
0.00640643495
0.00575399081
0.110102046
0.155370332
0.159734968
0.159668874
0.00470854951
0.111996074
0.166525833
0.00493918632
0.00586580932
0.129908377
0.148929115
0.00511785755
0.00610285791
0.110857779
0.143160884
0.158922542
0.158518758
0.00450239538
0.00624320299
0.00568270497
0.0924603172
0.154019756
0.165026242
0.164653587
0.00431188941
0.00618341899
0.00565923155
0.0963903358
0.169266683
0.154884628
0.00494003344
0.128405124
0.159893282
0.00442896783
0.00619082097
0.00538217124
0.11506175
0.167182042
0.174542818
0.174436583
0.00404981739
0.00558515193
0.00558679295
0.00579743342
0.1053033
0.149627055
0.161136
0.16128205
0.00464881065
0.00621167417
0.00579225136
0.0947589702
0.161682168
0.161854374
0.00525856153
0.00568982482
0.0994527978
0.169008371
0.152725258
0.00496059343
0.114833114
0.169352185
0.00519291889
0.00572661529
0.138256865
0.157460371
0.00506092383
0.0058605624
0.139226696
0.155433984
0.00512722244
0.00582445253
0.0766095996
0.160626766
0.1602605
0.00503452781
0.00604818135
0.0697115529
0.139383524
0.160863205
0.159765549
0.00516108195
0.135689165
0.162836531
0.00454890852
0.00615389017
0.00534301679
0.124499642
0.166066247
0.0053761969
0.00565123273
0.127398376
0.157954797
0.172521063
0.171694473
0.0043637374
0.00548882925
0.00560231113
0.00557712519
0.120626502
0.171782373
0.171032444
0.00508183264
0.00558008819
0.135890124
0.163421605
0.00528869557
0.00547735256
0.117527928
0.171822224
0.166783151
0.00486160465
0.00572247875
0.005558687
0.148025535
0.152622063
0.00421823557
0.142757092
0.20220562
0.00400092788
0.00490626932
0.00473592963
0.00517695205
0.168837052
0.169933877
0.00370486869
0.15394503
0.216014905
0.00372864059
0.00468393145
0.00459717992
0.00506580698
0.166899161
0.167482183
0.0037872797
0.150281055
0.211463108
0.0038878836
0.00480717115
0.00479203075
0.00522275532
0.157682987
0.159260951
0.00425172863
0.141443748
0.181508915
0.0043207373
0.00579635908
0.00510357891
0.11566187
0.173985041
0.173410158
0.00518053673
0.00526814563
0.125827193
0.185198291
0.179053005
0.0045689154
0.00555903413
0.00528438708
0.150189371
0.152784316
0.00432252831
0.126570587
0.189421935
0.00490026474
0.00525982535
0.147886021
0.165876282
0.00466929823
0.00559617348
0.153304234
0.161975835
0.00449782305
0.00562412013
0.164808634
0.169347092
0.00414272944
0.00552490448
0.00519098181
0.00556915908
0.139537215
0.166063613
0.0052157227
0.0056874788
0.126090892
0.154887063
0.161147412
0.16141484
0.00498790042
0.00561360273
0.121615618
0.161098344
0.160724404
0.0053763177
0.0054949537
0.109839905
0.173845911
0.172571998
0.00475935793
0.00552942414
0.165341893
0.171690356
0.00376210572
0.00560120654
0.00464458383
0.0057624586
0.00554145435
0.148550169
0.170403736
0.00470504659
0.00537528925
0.149263068
0.176842778
0.00483358749
0.00506001996
0.134557087
0.193628299
0.188337777
0.00443521706
0.00551502422
0.00535296417
0.14763764
0.174550695
0.00484549979
0.00511035966
0.13268697
0.19061899
0.186159311
0.00454907409
0.00559783871
0.00554155375
0.145287344
0.166894271
0.00500535859
0.00539021371
0.126324472
0.173150748
0.171955419
0.0050521057
0.00564408748
0.132099431
0.156922495
0.00523414749
0.00566020198
0.109579138
0.163843506
0.162849053
0.00514880776
0.00574930063
0.130346934
0.155419588
0.00526846808
0.00560083938
0.109803974
0.168382113
0.166927176
0.00484791953
0.00574809413
0.150111955
0.158649594
0.00418911218
0.00592151054
0.00528094622
0.145555893
0.173561867
0.00450618168
0.00547575605
0.148638683
0.165794259
0.00469061711
0.00555079845
0.132151064
0.158722677
0.181372315
0.180992166
0.00393117269
0.00555117254
0.00483597952
0.144346693
0.169774854
0.00395575678
0.00580691845
0.00501335095
0.1370671
0.175686445
0.00457668184
0.00532008592
0.141954209
0.170507972
0.00484556226
0.00524263889
0.110830712
0.177534276
0.175431168
0.00452355817
0.00553525563
0.147859362
0.164600058
0.00408783885
0.00565035617
0.159224124
0.161424368
0.00377439882
0.00586332715
0.00517184403
0.139204732
0.175706401
0.00453964226
0.00495073247
0.129589456
0.198034661
0.195076037
0.00390112697
0.00536451432
0.00494100815
0.147490632
0.17739656
0.00380037603
0.00530868635
0.167530542
0.170676173
0.00335383681
0.00567074314
0.00496402169
0.140496881
0.1742761
0.00424951799
)
;

boundaryField
{
    closed
    {
        type            calculated;
        value           nonuniform List<scalar> 0();
    }
    open
    {
        type            calculated;
        value           nonuniform List<scalar> 0();
    }
    sides
    {
        type            empty;
    }
    procBoundary3to2
    {
        type            processor;
        value           uniform 0;
    }
    procBoundary3to4
    {
        type            processor;
        value           uniform 0;
    }
}


// ************************************************************************* //
