/*--------------------------------*- C++ -*----------------------------------*\
| =========                 |                                                 |
| \\      /  F ield         | OpenFOAM: The Open Source CFD Toolbox           |
|  \\    /   O peration     | Version:  2306                                  |
|   \\  /    A nd           | Website:  www.openfoam.com                      |
|    \\/     M anipulation  |                                                 |
\*---------------------------------------------------------------------------*/
FoamFile
{
    version     2.0;
    format      ascii;
    arch        "LSB;label=32;scalar=64";
    class       volScalarField;
    location    "0.00106";
    object      prefDPV_H2O;
}
// * * * * * * * * * * * * * * * * * * * * * * * * * * * * * * * * * * * * * //

dimensions      [1 -1 -1 0 0 0 0];

internalField   nonuniform List<scalar> 
530
(
-3.83784259e-07
-3.69467957e-07
-3.65344486e-07
-3.65737248e-07
-3.65051788e-07
-3.64946227e-07
-3.84251642e-07
-3.83655077e-07
-3.66824392e-07
-3.65716724e-07
-3.84163331e-07
-3.83649396e-07
-3.66258761e-07
-3.65364376e-07
-3.84148174e-07
-3.83907951e-07
-3.68181517e-07
-3.64423788e-07
-3.6516862e-07
-3.84443704e-07
-3.83666791e-07
-3.83850806e-07
-3.66046285e-07
-3.64544601e-07
-3.63292717e-07
-3.63305398e-07
-3.851584e-07
-3.84323976e-07
-3.84187932e-07
-3.842259e-07
-3.66698747e-07
-3.6418881e-07
-3.64245286e-07
-3.84185725e-07
-3.84148154e-07
-3.68711455e-07
-3.64416704e-07
-3.65294288e-07
-3.84537016e-07
-3.83514137e-07
-3.83865065e-07
-3.67810758e-07
-3.64667471e-07
-3.64583164e-07
-3.84433436e-07
-3.84044291e-07
-3.66264846e-07
-3.64593402e-07
-3.63616513e-07
-3.63619671e-07
-3.8522201e-07
-3.84251716e-07
-3.8414614e-07
-3.84151549e-07
-3.67383667e-07
-3.64476653e-07
-3.64594424e-07
-3.84204923e-07
-3.83948647e-07
-3.68496662e-07
-3.65087132e-07
-3.65017777e-07
-3.84208652e-07
-3.83828368e-07
-3.69337276e-07
-3.65190169e-07
-3.6512076e-07
-3.84262246e-07
-3.83761459e-07
-3.69846883e-07
-3.65184006e-07
-3.65188597e-07
-3.8397768e-07
-3.83746726e-07
-3.69675846e-07
-3.6547198e-07
-3.65841439e-07
-3.65122883e-07
-3.65012456e-07
-3.84506489e-07
-3.83627392e-07
-3.66278063e-07
-3.66015032e-07
-3.8482643e-07
-3.83410667e-07
-3.83960779e-07
-3.67394957e-07
-3.64158783e-07
-3.64116708e-07
-3.84415413e-07
-3.84106127e-07
-3.67692782e-07
-3.6401682e-07
-3.64699852e-07
-3.84582803e-07
-3.83875413e-07
-3.83859483e-07
-3.83900494e-07
-3.67653662e-07
-3.64562879e-07
-3.64479158e-07
-3.64347071e-07
-3.8516694e-07
-3.83955902e-07
-3.65615573e-07
-3.65008325e-07
-3.8494562e-07
-3.83938071e-07
-3.65890396e-07
-3.64903144e-07
-3.84757402e-07
-3.84162257e-07
-3.66974397e-07
-3.6401855e-07
-3.64798856e-07
-3.84747784e-07
-3.83654028e-07
-3.83801124e-07
-3.66729697e-07
-3.64507736e-07
-3.64426996e-07
-3.84765848e-07
-3.84119994e-07
-3.67307902e-07
-3.64420982e-07
-3.64441137e-07
-3.84532448e-07
-3.83981879e-07
-3.66203657e-07
-3.64935744e-07
-3.84826683e-07
-3.84139032e-07
-3.66460729e-07
-3.64137849e-07
-3.63978486e-07
-3.84827369e-07
-3.83947074e-07
-3.66009784e-07
-3.6487952e-07
-3.8523792e-07
-3.83850888e-07
-3.65796488e-07
-3.6488406e-07
-3.853182e-07
-3.83858208e-07
-3.65776058e-07
-3.64925525e-07
-3.85351244e-07
-3.83864456e-07
-3.65817352e-07
-3.65039042e-07
-3.85329005e-07
-3.83913153e-07
-3.65979796e-07
-3.64928114e-07
-3.85161482e-07
-3.84143875e-07
-3.67237805e-07
-3.64117267e-07
-3.64683165e-07
-3.84891413e-07
-3.83590998e-07
-3.8362659e-07
-3.67194072e-07
-3.65019141e-07
-3.65380799e-07
-3.64700091e-07
-3.64515923e-07
-3.85366212e-07
-3.83852103e-07
-3.66831045e-07
-3.65509858e-07
-3.85418624e-07
-3.83793552e-07
-3.664434e-07
-3.6526227e-07
-3.85703007e-07
-3.83948327e-07
-3.65838318e-07
-3.64664711e-07
-3.86173538e-07
-3.84189425e-07
-3.64373641e-07
-3.63533732e-07
-3.86934808e-07
-3.84239707e-07
-3.85171957e-07
-3.83947201e-07
-3.84039914e-07
-3.66446451e-07
-3.6397173e-07
-3.64724528e-07
-3.64036585e-07
-3.63915052e-07
-3.85681185e-07
-3.84300393e-07
-3.67799833e-07
-3.64437402e-07
-3.64307397e-07
-3.85185083e-07
-3.8392469e-07
-3.66447571e-07
-3.65222148e-07
-3.85855662e-07
-3.83824743e-07
-3.65885471e-07
-3.65230944e-07
-3.86157444e-07
-3.83679489e-07
-3.84219386e-07
-3.66759873e-07
-3.64859411e-07
-3.85864623e-07
-3.83797052e-07
-3.66240482e-07
-3.65767048e-07
-3.85894791e-07
-3.6903309e-07
-3.64781902e-07
-3.85713037e-07
-3.8394181e-07
-3.67953211e-07
-3.65442336e-07
-3.65208988e-07
-3.65168261e-07
-3.85592284e-07
-3.83960883e-07
-3.69135296e-07
-3.65184312e-07
-3.6506223e-07
-3.85206093e-07
-3.83710354e-07
-3.67326091e-07
-3.6561091e-07
-3.85616891e-07
-3.83857298e-07
-3.68051852e-07
-3.64835793e-07
-3.64694472e-07
-3.85490682e-07
-3.83954547e-07
-3.69271515e-07
-3.64917602e-07
-3.64970516e-07
-3.85041284e-07
-3.83930641e-07
-3.76906943e-07
-3.64790318e-07
-3.64588606e-07
-3.86143099e-07
-3.83820492e-07
-3.66329301e-07
-3.65491898e-07
-3.8603067e-07
-3.83522509e-07
-3.83839261e-07
-3.71170687e-07
-3.65520381e-07
-3.65702023e-07
-3.65719313e-07
-3.64906107e-07
-3.65113602e-07
-3.85092502e-07
-3.83556601e-07
-3.83827689e-07
-3.68956991e-07
-3.64614414e-07
-3.64519117e-07
-3.85536033e-07
-3.84110096e-07
-3.68775275e-07
-3.64248717e-07
-3.6484469e-07
-3.85103128e-07
-3.83575225e-07
-3.83611482e-07
-3.67730358e-07
-3.64324103e-07
-3.6422446e-07
-3.85203651e-07
-3.83955471e-07
-3.66619427e-07
-3.65076917e-07
-3.85677883e-07
-3.8405016e-07
-3.67765914e-07
-3.64540175e-07
-3.64447551e-07
-3.85306764e-07
-3.83966749e-07
-3.66778088e-07
-3.65081956e-07
-3.85637698e-07
-3.84132056e-07
-3.68267525e-07
-3.63964018e-07
-3.64691706e-07
-3.85287327e-07
-3.83647192e-07
-3.8399038e-07
-3.68129105e-07
-3.6476365e-07
-3.64689209e-07
-3.64559726e-07
-3.85764534e-07
-3.83941788e-07
-3.6652928e-07
-3.65323412e-07
-3.85777998e-07
-3.83914639e-07
-3.66387807e-07
-3.64942941e-07
-3.85653792e-07
-3.84128704e-07
-3.68178329e-07
-3.64152899e-07
-3.66414316e-07
-3.8486758e-07
-3.83381773e-07
-3.83554557e-07
-3.66829755e-07
-3.65124197e-07
-3.85699411e-07
-3.83968668e-07
-3.67478253e-07
-3.65146842e-07
-3.64542787e-07
-3.64394367e-07
-3.86084911e-07
-3.84150095e-07
-3.65933785e-07
-3.64396825e-07
-3.86373419e-07
-3.84094709e-07
-3.65983198e-07
-3.64793974e-07
-3.86217412e-07
-3.83901858e-07
-3.66429245e-07
-3.65927422e-07
-3.86028168e-07
-3.69372076e-07
-3.64567247e-07
-3.85715767e-07
-3.84255187e-07
-3.6815958e-07
-3.64335419e-07
-3.64214172e-07
-3.85511639e-07
-3.84192568e-07
-3.69241007e-07
-3.64126983e-07
-3.65659107e-07
-3.85081798e-07
-3.83491182e-07
-3.83825351e-07
-3.67187485e-07
-3.6490731e-07
-3.85760132e-07
-3.83985842e-07
-3.66341095e-07
-3.64791899e-07
-3.85780554e-07
-3.84182149e-07
-3.67855274e-07
-3.64338552e-07
-3.64215597e-07
-3.85476725e-07
-3.8396767e-07
-3.66945864e-07
-3.65308442e-07
-3.85642709e-07
-3.84000223e-07
-3.68444133e-07
-3.64721917e-07
-3.64629158e-07
-3.85333139e-07
-3.8407869e-07
-3.69172953e-07
-3.64870111e-07
-3.64800066e-07
-3.85288754e-07
-3.84140367e-07
-3.69387971e-07
-3.6474673e-07
-3.65677694e-07
-3.85065546e-07
-3.83798238e-07
-3.66097307e-07
-3.64099419e-07
-3.86228121e-07
-3.84122106e-07
-3.66339217e-07
-3.6486834e-07
-3.85842253e-07
-3.84105062e-07
-3.68708976e-07
-3.64890563e-07
-3.64839023e-07
-3.84886562e-07
-3.83919834e-07
-3.70455361e-07
-3.65205894e-07
-3.65142968e-07
-3.85081839e-07
-3.83882303e-07
-3.70273324e-07
-3.65097284e-07
-3.65018515e-07
-3.85226376e-07
-3.83903572e-07
-3.69940357e-07
-3.64982908e-07
-3.64900275e-07
-3.8523624e-07
-3.83929176e-07
-3.69603904e-07
-3.64854247e-07
-3.64802159e-07
-3.85250369e-07
-3.83987099e-07
-3.69608386e-07
-3.64831739e-07
-3.64739249e-07
-3.85170031e-07
-3.83841521e-07
-3.67128837e-07
-3.65351482e-07
-3.85282286e-07
-3.83972529e-07
-3.6837444e-07
-3.64489606e-07
-3.64392876e-07
-3.85032078e-07
-3.83914425e-07
-3.6695405e-07
-3.65269474e-07
-3.85262292e-07
-3.840122e-07
-3.68211157e-07
-3.64430174e-07
-3.64343486e-07
-3.85015146e-07
-3.83944568e-07
-3.66904253e-07
-3.65265652e-07
-3.85206795e-07
-3.84037027e-07
-3.68100588e-07
-3.64392424e-07
-3.64307019e-07
-3.84985597e-07
-3.83968782e-07
-3.66809642e-07
-3.65228097e-07
-3.85146274e-07
-3.84067971e-07
-3.67899545e-07
-3.64264088e-07
-3.64171693e-07
-3.84961976e-07
-3.84009411e-07
-3.66633427e-07
-3.65105614e-07
-3.85078465e-07
-3.84120905e-07
-3.67626368e-07
-3.6417103e-07
-3.64058139e-07
-3.84988926e-07
-3.83937717e-07
-3.66663748e-07
-3.65249528e-07
-3.85224517e-07
-3.8380122e-07
-3.66191995e-07
-3.65110383e-07
-3.85253934e-07
-3.83904421e-07
-3.66034548e-07
-3.64896143e-07
-3.85023125e-07
-3.84182379e-07
-3.67396232e-07
-3.64230749e-07
-3.64214303e-07
-3.84723872e-07
-3.83969209e-07
-3.66717375e-07
-3.65407092e-07
-3.8501606e-07
-3.8395488e-07
-3.659715e-07
-3.64743388e-07
-3.84974762e-07
-3.84425899e-07
-3.66108563e-07
-3.62716027e-07
-3.6268236e-07
-3.85206318e-07
-3.843122e-07
-3.65884415e-07
-3.64701209e-07
-3.84902189e-07
-3.83926896e-07
-3.65990902e-07
-3.65386642e-07
-3.84627504e-07
-3.83828284e-07
-3.66370063e-07
-3.65758076e-07
-3.84265399e-07
-3.84133371e-07
-3.67606761e-07
-3.64102467e-07
-3.64101642e-07
-3.8459555e-07
-3.84154883e-07
-3.65518524e-07
-3.65183484e-07
-3.84755746e-07
-3.83538576e-07
-3.84639985e-07
-3.67017644e-07
-3.63661281e-07
-3.64251806e-07
-3.84186589e-07
-3.84322418e-07
-3.67453674e-07
-3.64320734e-07
)
;

boundaryField
{
    closed
    {
        type            calculated;
        value           nonuniform List<scalar> 0();
    }
    open
    {
        type            calculated;
        value           nonuniform List<scalar> 0();
    }
    sides
    {
        type            empty;
    }
    procBoundary2to1
    {
        type            processor;
        value           uniform -3.83912793e-07;
    }
    procBoundary2to3
    {
        type            processor;
        value           uniform -3.64822723e-07;
    }
}


// ************************************************************************* //
