/*--------------------------------*- C++ -*----------------------------------*\
| =========                 |                                                 |
| \\      /  F ield         | OpenFOAM: The Open Source CFD Toolbox           |
|  \\    /   O peration     | Version:  2306                                  |
|   \\  /    A nd           | Website:  www.openfoam.com                      |
|    \\/     M anipulation  |                                                 |
\*---------------------------------------------------------------------------*/
FoamFile
{
    version     2.0;
    format      ascii;
    arch        "LSB;label=32;scalar=64";
    class       volScalarField;
    location    "0.00152";
    object      T;
}
// * * * * * * * * * * * * * * * * * * * * * * * * * * * * * * * * * * * * * //

dimensions      [0 0 0 1 0 0 0];

internalField   nonuniform List<scalar> 
530
(
323.915726
339.011357
339.350231
339.231767
330.818727
326.03605
319.822818
319.982726
338.726323
339.635973
325.695881
322.185226
338.757711
339.871869
324.417168
323.184838
338.756408
339.982122
339.079942
329.161122
320.128726
320.182185
330.635922
339.640131
339.812927
339.715037
331.349779
327.856555
321.381327
321.517071
338.946501
339.754909
326.473125
324.902189
339.057124
339.747716
339.317224
329.465913
324.513206
317.992314
318.113165
339.067262
339.319415
339.292255
328.233954
321.083845
336.930171
339.486649
339.152017
339.597486
329.833402
325.787381
321.213315
321.219445
339.294109
339.452486
329.486299
321.23817
321.337332
339.281254
339.378437
329.615316
321.079885
321.27899
339.134769
339.810968
339.255169
329.296916
321.302622
321.477236
339.192511
339.990097
327.865601
326.09292
339.320369
339.880992
339.456989
329.579195
327.008069
322.240335
322.198068
339.544555
339.432986
329.321416
319.022835
319.322337
339.078445
339.826076
326.371323
324.464124
339.267408
339.90738
339.432769
329.19901
323.346912
320.25311
318.786667
330.683157
339.532734
340.045821
339.808819
328.990991
324.368304
339.458269
339.402039
339.392441
326.13402
324.458109
339.181546
329.501634
320.667708
339.406695
339.313068
339.281277
329.653882
324.545027
319.367071
319.367987
339.538893
339.551205
339.499379
329.354548
323.052384
339.664384
339.472999
329.623026
321.755445
322.164018
339.559231
329.503236
322.093372
339.507506
339.760541
339.251422
329.252518
319.14596
319.389971
339.40046
339.9069
326.968407
326.595447
339.288597
329.404061
319.754426
339.504674
339.545361
327.605673
323.935983
339.201371
339.764008
327.246333
324.659586
339.151759
339.787991
326.06284
325.300569
339.286247
339.762667
339.221447
329.36281
323.736166
320.507384
319.475747
330.891797
339.554747
340.124408
339.734974
339.695409
329.485425
319.220465
320.215308
339.31151
329.659729
318.251002
339.317184
339.326568
325.724597
322.143334
339.037242
339.588986
324.845429
324.02482
339.213808
339.693554
339.163936
329.484577
323.692166
319.134839
319.126297
334.583499
339.594863
339.379653
339.779256
339.2829
329.440481
321.764309
321.851248
339.590161
339.347296
329.561785
319.093012
319.421887
339.1477
339.642428
325.78604
324.958895
339.059555
329.406555
316.789639
338.73375
339.267476
339.160584
327.569743
319.418309
332.632399
339.489456
339.783638
339.669046
339.636855
329.612939
322.390162
339.703447
339.607569
329.748312
324.272085
319.515943
319.639895
339.23325
339.567313
338.955539
329.654148
320.611789
321.975103
339.258594
329.49602
321.439326
339.737028
339.27031
329.757266
322.651994
322.812389
339.504636
339.724901
339.411283
329.910076
328.560389
324.032221
324.169393
339.616413
329.564246
322.835154
339.667757
339.697707
329.58855
326.103721
320.527731
320.700199
339.271231
339.79454
339.231802
339.888884
339.647117
329.562804
326.566994
322.166012
322.228934
339.407093
339.849141
327.898206
324.009878
339.364334
339.756698
329.833454
324.794437
318.6299
318.852401
338.926724
339.627124
338.873395
339.804017
327.708541
324.827592
339.262797
329.290945
319.085217
339.502517
339.415137
339.372795
329.839922
322.522978
339.265912
339.802149
328.951477
324.378181
339.356564
339.807107
329.682159
325.256936
319.230023
319.391643
339.123803
339.805475
339.042161
339.959787
339.488862
329.411042
325.359918
325.872244
321.622904
321.735854
339.293256
339.519457
329.580985
322.183187
322.295903
339.169904
339.601183
329.991695
324.570105
339.115155
339.199559
330.728341
320.39949
320.589755
338.804197
339.759854
338.890775
339.955686
339.414701
329.1492
322.964588
324.196216
318.890997
319.188961
338.728777
339.753331
325.738611
322.603128
338.567868
339.749826
338.834789
339.812259
330.2044
326.899926
322.912084
323.022274
339.062652
339.742195
329.646421
317.705539
317.847247
339.209858
339.569318
339.561064
328.759895
326.157963
338.94434
329.938089
319.8916
339.070265
339.236307
329.576485
318.150303
318.436553
338.761036
339.714085
339.141084
339.938961
339.636802
329.250113
323.529429
319.937076
319.956033
339.074212
339.510783
339.434601
329.837525
323.712291
338.998883
339.383962
329.615827
322.002534
322.141846
339.028018
339.719698
339.519715
329.339696
323.18973
324.276203
318.079145
318.315555
338.596362
339.524812
339.169684
324.173354
321.212134
338.764083
339.537896
339.441832
327.70418
323.136863
338.850161
339.677874
339.356686
329.361303
320.583094
320.706308
338.766002
339.53053
329.607812
320.980305
321.097477
338.742495
339.695834
329.316347
322.444142
338.806355
339.526509
329.565297
318.629633
318.933534
339.16283
339.772452
339.67878
328.044939
321.520686
338.927332
339.775918
327.523766
323.56052
338.93494
339.813003
329.186146
324.99661
339.078822
339.697208
329.467979
324.293174
324.365071
339.000139
339.97248
329.253884
321.86163
321.890367
339.028614
340.07292
328.242021
323.417747
338.983994
339.929427
329.047651
324.083614
338.97492
339.68948
329.412103
321.949262
322.002404
338.672665
339.765006
339.402418
339.706805
329.228688
322.116774
323.749064
318.189925
318.417326
338.227009
339.569559
339.078294
339.755038
339.737087
329.331024
322.752622
321.847455
321.915628
338.569447
339.631659
325.891002
323.014308
338.717997
339.736233
325.269923
322.818132
338.750557
339.847332
339.494521
339.902897
329.178499
325.082782
323.451395
323.404398
338.840434
339.852078
325.431338
324.232287
338.831745
339.85369
339.75888
329.200348
323.547316
323.427147
323.056448
338.935057
339.925037
327.169389
326.273529
339.160431
329.608369
326.944683
339.145218
329.165636
325.139439
339.206487
340.018139
339.916065
329.063623
322.810691
322.043638
321.470903
339.0171
339.803377
323.120046
322.133792
339.054366
339.816551
339.778873
327.747373
324.041327
339.129217
340.002338
)
;

boundaryField
{
    closed
    {
        type            fixedValue;
        value           nonuniform List<scalar> 0();
    }
    open
    {
        type            zeroGradient;
    }
    sides
    {
        type            empty;
    }
    procBoundary2to1
    {
        type            processor;
        value           uniform 326.609462;
    }
    procBoundary2to3
    {
        type            processor;
        value           uniform 340.054612;
    }
}


// ************************************************************************* //
