/*--------------------------------*- C++ -*----------------------------------*\
| =========                 |                                                 |
| \\      /  F ield         | OpenFOAM: The Open Source CFD Toolbox           |
|  \\    /   O peration     | Version:  2306                                  |
|   \\  /    A nd           | Website:  www.openfoam.com                      |
|    \\/     M anipulation  |                                                 |
\*---------------------------------------------------------------------------*/
FoamFile
{
    version     2.0;
    format      ascii;
    arch        "LSB;label=32;scalar=64";
    class       volScalarField;
    location    "0.00112";
    object      H;
}
// * * * * * * * * * * * * * * * * * * * * * * * * * * * * * * * * * * * * * //

dimensions      [0 0 0 0 0 0 0];

internalField   nonuniform List<scalar> 
531
(
5.03768098e-08
5.01918495e-08
1.00496099e-09
1.1032242e-09
2.15685132e-08
4.84254155e-08
4.80680142e-08
1.00750607e-09
1.21858938e-09
3.57876985e-08
4.04119865e-08
1.03437411e-09
1.21705596e-09
2.21354874e-08
4.61423208e-08
4.60173233e-08
1.07301423e-09
1.24375472e-09
2.46604509e-08
3.80055846e-08
4.70440058e-08
4.70453481e-08
9.93201845e-10
1.11176863e-09
2.51988632e-08
5.02688337e-08
4.98541355e-08
1.04813884e-09
1.1446167e-09
3.49359758e-08
4.61816529e-08
1.63661165e-08
1.11305551e-09
1.31351532e-09
1.17323561e-09
2.43049365e-08
5.31426633e-08
5.27702821e-08
1.0486957e-09
1.18133635e-09
3.3328845e-08
4.37051109e-08
2.33250816e-08
1.21564726e-09
1.38722057e-09
1.9613889e-08
3.76989655e-08
4.86683097e-08
4.82717919e-08
9.88060691e-10
1.23036557e-09
3.89862312e-08
4.21819416e-08
1.00138602e-09
1.26653655e-09
3.96945436e-08
4.45615117e-08
1.10053058e-09
1.22894319e-09
3.06825496e-08
4.50236461e-08
3.33213511e-08
1.14534247e-09
1.42943055e-09
1.81979195e-08
3.6715038e-08
4.83375212e-08
4.82038444e-08
1.08418682e-09
1.13116769e-09
2.63476197e-08
5.07693305e-08
5.00958682e-08
1.11779979e-09
1.20801303e-09
3.10667648e-08
4.23596078e-08
2.68031676e-08
1.27034175e-09
1.41200169e-09
3.24646864e-08
3.95855715e-08
1.19274009e-09
1.3199183e-09
2.7507154e-08
4.33444458e-08
4.42072388e-08
2.38432385e-08
1.24114383e-09
1.37461419e-09
2.08951105e-08
3.88726675e-08
4.75268063e-08
4.73785428e-08
1.0890661e-09
1.23038896e-09
2.805693e-08
4.17362138e-08
4.49708204e-08
4.50127544e-08
1.09186964e-09
1.26982345e-09
3.75233353e-08
3.91981032e-08
1.15595452e-09
1.31714321e-09
3.67869989e-08
3.77392977e-08
1.22333541e-09
1.33999533e-09
2.97402312e-08
4.08567794e-08
4.56701762e-08
4.83191033e-08
1.60327243e-08
1.03335279e-09
1.26981447e-09
1.16901715e-09
3.78241281e-08
3.6402904e-08
1.2478655e-09
1.4116973e-09
1.32329659e-09
2.32493742e-08
4.15952668e-08
4.20342505e-08
5.18146314e-08
5.16820802e-08
1.06253374e-09
1.07041679e-09
2.98615793e-08
5.3151267e-08
4.41627267e-08
9.8175734e-10
1.30051008e-09
1.14536921e-09
1.83168834e-08
4.35518926e-08
4.06437489e-08
1.22768735e-09
1.36213648e-09
2.7074525e-08
3.93404197e-08
3.97404638e-08
4.33817675e-08
2.69260163e-08
1.2622717e-09
1.40231027e-09
2.21992136e-08
4.20529142e-08
4.59695716e-08
2.61192395e-08
1.18614497e-09
1.35209307e-09
1.28721652e-09
1.5247256e-08
3.9662052e-08
4.16664904e-08
4.67797413e-08
3.28945288e-08
1.11200532e-09
1.11917157e-09
1.22754313e-09
1.15587836e-09
3.88340036e-08
4.62563116e-08
4.25817548e-08
4.82680682e-08
3.23548567e-08
1.05973963e-09
1.10899825e-09
1.19569318e-09
9.2079341e-10
3.84180989e-08
4.68961579e-08
4.32257133e-08
4.84891679e-08
2.90788871e-08
1.07868989e-09
1.37257557e-09
1.23701708e-09
1.61664889e-08
4.13970928e-08
4.40837653e-08
5.29455054e-08
4.60243625e-08
9.06005043e-10
1.29106928e-09
9.61126729e-09
4.08604704e-08
3.77094971e-08
8.81853236e-10
1.40729072e-09
5.07744256e-10
3.83759915e-08
3.23808609e-08
1.2518897e-09
1.02583738e-08
4.06154458e-08
3.21314663e-08
1.24275015e-09
1.21355856e-09
3.30086067e-08
4.38387779e-08
4.53074984e-08
3.80213281e-08
1.0572427e-09
3.95559597e-09
4.33256767e-08
2.97262739e-08
1.07337482e-09
1.28921713e-08
4.66180422e-08
3.88688138e-08
1.12160929e-09
1.17281206e-09
3.49821695e-08
5.31079622e-08
3.73265429e-08
8.84362913e-10
1.41836805e-09
1.20147831e-09
3.09766187e-08
4.24074816e-08
4.87813735e-08
4.86860775e-08
8.08455289e-10
1.29686756e-09
1.11225463e-09
3.20659379e-08
4.97794652e-08
3.50165355e-08
1.00514807e-09
1.05993626e-08
4.30952685e-08
3.04341907e-08
1.19324701e-09
1.09168425e-09
3.35332725e-08
4.60028546e-08
4.5927101e-08
2.50935219e-08
1.1138863e-09
1.36758532e-09
1.30198513e-09
1.84919365e-08
3.99837839e-08
4.29372135e-08
4.82389779e-08
2.87382871e-08
1.03955294e-09
1.47389308e-09
1.28031385e-09
2.81615648e-08
4.89142063e-08
3.73211626e-08
1.04449955e-09
1.08935341e-09
3.8486602e-08
5.3172212e-08
3.53498844e-08
9.36633606e-10
1.74936767e-08
4.40285086e-08
1.73285862e-08
1.15465159e-09
2.69215838e-08
4.2141918e-08
9.0717664e-09
1.20126171e-09
2.76529526e-08
4.19891077e-08
1.63459452e-08
1.22225353e-09
5.5400966e-09
3.82220544e-08
4.84275951e-08
3.38744748e-08
1.03791757e-09
1.1554206e-09
3.60830055e-08
5.02491846e-08
2.80634512e-08
9.84611326e-10
2.45293676e-08
4.27947299e-08
8.05878133e-09
1.2118714e-09
1.11768763e-08
3.88275222e-08
4.72258948e-08
3.14609486e-08
1.04439055e-09
9.5517336e-10
3.91342545e-08
5.30105855e-08
3.74650627e-08
8.24581019e-10
1.31376846e-09
1.16454101e-09
1.25616231e-09
2.84064776e-08
4.15935131e-08
5.02066292e-08
4.98711721e-08
4.86401491e-10
1.12526202e-09
4.03814253e-08
4.25965476e-08
7.10356953e-10
1.28345708e-09
2.59165344e-08
4.02210664e-08
6.66158173e-10
1.29582267e-09
1.91334305e-08
4.22283317e-08
4.82080063e-08
2.63571046e-08
1.01651724e-09
2.74209318e-08
4.45857291e-08
3.96892667e-09
1.18742324e-09
1.60736703e-08
4.21052296e-08
4.73105815e-08
2.3682186e-08
1.042015e-09
2.90659427e-08
4.36554818e-08
4.48513397e-10
1.2046067e-09
1.67735034e-08
4.18111032e-08
4.64215989e-08
2.21409098e-08
1.0584918e-09
2.95823752e-08
4.31162767e-08
5.93638375e-10
1.20564128e-09
1.67086972e-08
4.23710588e-08
4.60482361e-08
1.9211466e-08
1.08614419e-09
3.03516534e-08
4.26474357e-08
6.51623e-10
1.21370635e-09
1.75558472e-08
4.21740523e-08
4.55733839e-08
2.05500772e-08
1.07200765e-09
9.62966104e-09
4.42346368e-08
4.75161282e-08
1.80626978e-08
1.08292454e-09
1.1340009e-08
4.39311739e-08
4.75850763e-08
1.95462854e-08
1.09492624e-09
3.16827431e-08
4.30828611e-08
7.04814984e-10
1.22325023e-09
3.44476074e-08
4.44106156e-08
5.68963296e-09
1.21208712e-09
3.70159507e-08
4.2633484e-08
7.18441025e-10
1.28457508e-09
3.03755465e-08
4.02478513e-08
7.65842563e-10
1.30010332e-09
1.99641942e-08
4.16773976e-08
4.57151439e-08
2.78778357e-08
1.13648472e-09
1.34650409e-09
2.85606836e-08
4.16768052e-08
4.93640087e-08
4.92229388e-08
6.58927225e-10
1.16398542e-09
3.40631373e-08
4.24386919e-08
7.30119486e-10
1.20551512e-09
2.0512017e-08
4.61784683e-08
4.74390497e-08
2.04754936e-08
1.17779884e-09
1.25194803e-09
3.10085494e-08
4.32258297e-08
4.23038125e-09
9.58574071e-10
9.58438304e-10
6.01524285e-10
4.49304289e-08
5.20570731e-08
1.52797824e-08
9.98185899e-10
1.9525119e-08
5.02667883e-08
4.98476532e-08
6.76282964e-10
1.08547696e-09
2.06035733e-08
4.88130036e-08
4.86107513e-08
4.70523076e-10
1.0936892e-09
1.97381472e-08
4.8353771e-08
4.80618037e-08
5.94506858e-10
1.10166801e-09
2.01347669e-08
4.83795496e-08
4.82123186e-08
7.082172e-10
1.10068897e-09
2.01334647e-08
4.85378163e-08
4.81848855e-08
7.00374926e-10
1.18231595e-09
3.45307062e-08
4.24342495e-08
7.44506932e-10
1.1631096e-09
2.11024534e-08
4.8350746e-08
4.79295825e-08
7.09404594e-10
1.19139218e-09
3.48653378e-08
4.27284331e-08
7.49419778e-10
1.16453504e-09
2.16937639e-08
4.83726336e-08
4.80139758e-08
7.29518455e-10
1.19633635e-09
3.45797846e-08
4.25411189e-08
7.47576873e-10
1.17293063e-09
2.21503446e-08
4.80100147e-08
4.78231764e-08
7.65992821e-10
1.11908698e-09
2.21000255e-08
4.88275961e-08
4.83304454e-08
7.34496515e-10
1.21381237e-09
3.44588702e-08
4.10937092e-08
7.70427157e-10
1.29203249e-09
2.71694549e-08
3.80971558e-08
4.96685218e-08
4.92871929e-08
6.5780137e-10
1.24181943e-09
1.15668708e-09
3.2961555e-08
4.28483403e-08
7.69226668e-10
1.15303873e-09
2.41686194e-08
4.97213779e-08
4.92151703e-08
6.83391339e-10
1.17878166e-09
3.53619183e-08
4.42314812e-08
7.21995835e-10
1.14581733e-09
2.51941376e-08
4.96971853e-08
4.91171645e-08
6.79920578e-10
1.20135077e-09
3.55039029e-08
4.26116522e-08
6.81424213e-10
1.24604845e-09
3.42015731e-08
4.19170255e-08
7.20924667e-10
1.17551262e-09
2.42363415e-08
4.7858202e-08
4.74955679e-08
7.23392518e-10
1.13518515e-09
2.43452225e-08
4.81529337e-08
4.79522805e-08
7.43240936e-10
1.12648652e-09
2.3001905e-08
4.79367681e-08
4.74256292e-08
6.83184003e-10
1.19559566e-09
3.37476168e-08
4.25138157e-08
6.91547671e-10
1.16589527e-09
2.47474347e-08
4.79865125e-08
4.75712723e-08
6.82462811e-10
)
;

boundaryField
{
    closed
    {
        type            calculated;
        value           nonuniform List<scalar> 0();
    }
    open
    {
        type            calculated;
        value           nonuniform List<scalar> 0();
    }
    sides
    {
        type            empty;
    }
    procBoundary3to2
    {
        type            processor;
        value           uniform 2.53807959e-08;
    }
    procBoundary3to4
    {
        type            processor;
        value           uniform 1.11656815e-09;
    }
}


// ************************************************************************* //
