/*--------------------------------*- C++ -*----------------------------------*\
| =========                 |                                                 |
| \\      /  F ield         | OpenFOAM: The Open Source CFD Toolbox           |
|  \\    /   O peration     | Version:  2306                                  |
|   \\  /    A nd           | Website:  www.openfoam.com                      |
|    \\/     M anipulation  |                                                 |
\*---------------------------------------------------------------------------*/
FoamFile
{
    version     2.0;
    format      ascii;
    arch        "LSB;label=32;scalar=64";
    class       volScalarField;
    location    "0.00112";
    object      prefDPV_H2O;
}
// * * * * * * * * * * * * * * * * * * * * * * * * * * * * * * * * * * * * * //

dimensions      [1 -1 -1 0 0 0 0];

internalField   nonuniform List<scalar> 
531
(
-3.63593226e-07
-3.63680404e-07
-3.84983626e-07
-3.84529331e-07
-3.73460045e-07
-3.64104217e-07
-3.64050185e-07
-3.84956548e-07
-3.84109177e-07
-3.66737901e-07
-3.65755407e-07
-3.84861953e-07
-3.84091857e-07
-3.73153437e-07
-3.64537709e-07
-3.64536555e-07
-3.84715853e-07
-3.83994863e-07
-3.71822814e-07
-3.66301216e-07
-3.64382108e-07
-3.64378617e-07
-3.85017496e-07
-3.84496612e-07
-3.71534277e-07
-3.63665817e-07
-3.6368672e-07
-3.84826956e-07
-3.84394931e-07
-3.66736836e-07
-3.64537656e-07
-3.76532514e-07
-3.84513404e-07
-3.83787964e-07
-3.84276383e-07
-3.71964223e-07
-3.62904008e-07
-3.62875124e-07
-3.84852232e-07
-3.84285569e-07
-3.67419797e-07
-3.64959827e-07
-3.72469026e-07
-3.84116321e-07
-3.83493296e-07
-3.74549424e-07
-3.66102908e-07
-3.64004888e-07
-3.63898441e-07
-3.85033461e-07
-3.84084975e-07
-3.66107856e-07
-3.65218128e-07
-3.84983434e-07
-3.83946878e-07
-3.65823827e-07
-3.6468984e-07
-3.846574e-07
-3.84089968e-07
-3.68681921e-07
-3.64717709e-07
-3.67421668e-07
-3.84405425e-07
-3.83315127e-07
-3.7536301e-07
-3.66314985e-07
-3.64006722e-07
-3.63982025e-07
-3.84692375e-07
-3.84448052e-07
-3.70910056e-07
-3.63441627e-07
-3.63510922e-07
-3.84578111e-07
-3.84171068e-07
-3.6849497e-07
-3.65226041e-07
-3.70607274e-07
-3.83926325e-07
-3.83417948e-07
-3.67888333e-07
-3.65611959e-07
-3.84305031e-07
-3.8376148e-07
-3.70280555e-07
-3.64785513e-07
-3.64713861e-07
-3.72180967e-07
-3.84037154e-07
-3.8354498e-07
-3.73832491e-07
-3.65878447e-07
-3.64136524e-07
-3.64110228e-07
-3.84672452e-07
-3.84076192e-07
-3.70054249e-07
-3.65378882e-07
-3.646882e-07
-3.64626637e-07
-3.84622e-07
-3.83956711e-07
-3.66228759e-07
-3.65792564e-07
-3.84382235e-07
-3.83804744e-07
-3.66320312e-07
-3.66078606e-07
-3.84137669e-07
-3.83658106e-07
-3.69171176e-07
-3.65567728e-07
-3.64319076e-07
-3.64034681e-07
-3.7675321e-07
-3.84835958e-07
-3.83952555e-07
-3.84359701e-07
-3.6604434e-07
-3.66418322e-07
-3.84051189e-07
-3.83378203e-07
-3.83707531e-07
-3.72528195e-07
-3.65390659e-07
-3.65280157e-07
-3.63167338e-07
-3.63256917e-07
-3.84789596e-07
-3.84678536e-07
-3.69120678e-07
-3.63036268e-07
-3.64715449e-07
-3.85047503e-07
-3.83812913e-07
-3.8437518e-07
-3.75327829e-07
-3.65030473e-07
-3.65424866e-07
-3.84113836e-07
-3.83590213e-07
-3.70517088e-07
-3.65724442e-07
-3.65551877e-07
-3.64915819e-07
-3.7053764e-07
-3.83964818e-07
-3.83465673e-07
-3.73107128e-07
-3.64930558e-07
-3.64360547e-07
-3.70943011e-07
-3.8427708e-07
-3.83648957e-07
-3.8385694e-07
-3.77197448e-07
-3.65769652e-07
-3.65178712e-07
-3.64306649e-07
-3.676603e-07
-3.84547805e-07
-3.84471373e-07
-3.84079319e-07
-3.8647832e-07
-3.65805059e-07
-3.64733658e-07
-3.65004119e-07
-3.64133575e-07
-3.67953969e-07
-3.84728859e-07
-3.8451808e-07
-3.84194732e-07
-3.85272107e-07
-3.65924451e-07
-3.64608591e-07
-3.64833048e-07
-3.64120843e-07
-3.69440919e-07
-3.84646487e-07
-3.83561648e-07
-3.84013264e-07
-3.76630173e-07
-3.65537616e-07
-3.64693375e-07
-3.63027485e-07
-3.64317861e-07
-3.85331734e-07
-3.8383673e-07
-3.80742684e-07
-3.65567404e-07
-3.66175545e-07
-3.85390512e-07
-3.83406515e-07
-3.86797373e-07
-3.6574964e-07
-3.68056009e-07
-3.84031296e-07
-3.80319138e-07
-3.65447832e-07
-3.68037919e-07
-3.84034945e-07
-3.84226485e-07
-3.67654446e-07
-3.64939535e-07
-3.64662142e-07
-3.66331525e-07
-3.84735109e-07
-3.84558248e-07
-3.65108693e-07
-3.69213913e-07
-3.84662298e-07
-3.78609722e-07
-3.64368567e-07
-3.66027992e-07
-3.84529277e-07
-3.8431009e-07
-3.66598078e-07
-3.63118489e-07
-3.66065672e-07
-3.85406568e-07
-3.83352605e-07
-3.8416394e-07
-3.68633498e-07
-3.65390821e-07
-3.63968298e-07
-3.63954652e-07
-3.85704462e-07
-3.83819285e-07
-3.8449968e-07
-3.6798652e-07
-3.63834768e-07
-3.66620571e-07
-3.84933067e-07
-3.80149962e-07
-3.65105579e-07
-3.68830872e-07
-3.84211367e-07
-3.84680395e-07
-3.67399886e-07
-3.64474358e-07
-3.64438898e-07
-3.71517926e-07
-3.84537539e-07
-3.83580786e-07
-3.8379382e-07
-3.75222203e-07
-3.65749063e-07
-3.64813729e-07
-3.64038817e-07
-3.69556102e-07
-3.84811619e-07
-3.8321571e-07
-3.83870174e-07
-3.69897412e-07
-3.63856264e-07
-3.66150002e-07
-3.84819137e-07
-3.84677763e-07
-3.65693836e-07
-3.63047951e-07
-3.66487418e-07
-3.85192884e-07
-3.75814842e-07
-3.64925314e-07
-3.75948433e-07
-3.84360071e-07
-3.70601374e-07
-3.65286528e-07
-3.81221913e-07
-3.84181141e-07
-3.70260847e-07
-3.65321936e-07
-3.76504385e-07
-3.84103278e-07
-3.83340747e-07
-3.65903541e-07
-3.64205768e-07
-3.67249035e-07
-3.84808482e-07
-3.84403836e-07
-3.66242507e-07
-3.63720067e-07
-3.69980584e-07
-3.84987565e-07
-3.71858206e-07
-3.65270333e-07
-3.81879214e-07
-3.84129759e-07
-3.79600751e-07
-3.65853495e-07
-3.64393168e-07
-3.6842554e-07
-3.84784535e-07
-3.85144287e-07
-3.65618704e-07
-3.63236198e-07
-3.66052927e-07
-3.85610752e-07
-3.83800927e-07
-3.8430838e-07
-3.84001825e-07
-3.69912067e-07
-3.65477684e-07
-3.63785849e-07
-3.63688188e-07
-3.86893539e-07
-3.84504737e-07
-3.65974461e-07
-3.65216634e-07
-3.86024402e-07
-3.83860426e-07
-3.71229654e-07
-3.655267e-07
-3.86253597e-07
-3.83865401e-07
-3.74821913e-07
-3.64928062e-07
-3.64026081e-07
-3.70821867e-07
-3.84892329e-07
-3.70344685e-07
-3.64802963e-07
-3.84802035e-07
-3.84237684e-07
-3.76599717e-07
-3.65127882e-07
-3.6426867e-07
-3.72277116e-07
-3.84784687e-07
-3.69581792e-07
-3.65037988e-07
-3.87049477e-07
-3.84164942e-07
-3.76171385e-07
-3.65233975e-07
-3.64481859e-07
-3.73130519e-07
-3.84717608e-07
-3.69331769e-07
-3.65176658e-07
-3.86518922e-07
-3.84154267e-07
-3.76211051e-07
-3.65175459e-07
-3.6455798e-07
-3.74805679e-07
-3.84610784e-07
-3.68975087e-07
-3.6528203e-07
-3.86299609e-07
-3.84121252e-07
-3.75714376e-07
-3.65219601e-07
-3.64701874e-07
-3.74030422e-07
-3.84656916e-07
-3.80629511e-07
-3.64798308e-07
-3.64271572e-07
-3.75494268e-07
-3.84620438e-07
-3.79554643e-07
-3.6484127e-07
-3.64172099e-07
-3.74611599e-07
-3.84591024e-07
-3.68326547e-07
-3.65101817e-07
-3.86101346e-07
-3.84110923e-07
-3.67190602e-07
-3.64738769e-07
-3.83465056e-07
-3.84168429e-07
-3.66568879e-07
-3.6508742e-07
-3.86036561e-07
-3.83878175e-07
-3.69059737e-07
-3.65568777e-07
-3.85868757e-07
-3.83834281e-07
-3.74352122e-07
-3.65066068e-07
-3.64548738e-07
-3.70012498e-07
-3.84427992e-07
-3.8368272e-07
-3.69829445e-07
-3.6538246e-07
-3.6390911e-07
-3.63850412e-07
-3.86260316e-07
-3.84313733e-07
-3.67419336e-07
-3.65317069e-07
-3.85996468e-07
-3.84166129e-07
-3.74045941e-07
-3.6425459e-07
-3.64153081e-07
-3.74086709e-07
-3.84266188e-07
-3.84025183e-07
-3.68668124e-07
-3.65161018e-07
-3.84593625e-07
-3.85055023e-07
-3.85081416e-07
-3.86422906e-07
-3.64664151e-07
-3.63443162e-07
-3.77204719e-07
-3.84922524e-07
-3.74603095e-07
-3.63835294e-07
-3.6373355e-07
-3.87015427e-07
-3.84594209e-07
-3.7399616e-07
-3.64164776e-07
-3.6408079e-07
-3.86952041e-07
-3.84555616e-07
-3.74473675e-07
-3.64262768e-07
-3.64205594e-07
-3.86501757e-07
-3.84525936e-07
-3.74254127e-07
-3.64206759e-07
-3.6417026e-07
-3.8608736e-07
-3.84532129e-07
-3.74255883e-07
-3.64187202e-07
-3.64076184e-07
-3.86107859e-07
-3.8425136e-07
-3.67212622e-07
-3.65335164e-07
-3.85943962e-07
-3.84295814e-07
-3.73720603e-07
-3.64191782e-07
-3.64089985e-07
-3.86077287e-07
-3.84224343e-07
-3.670975e-07
-3.65241521e-07
-3.85930839e-07
-3.84293828e-07
-3.73396744e-07
-3.64192026e-07
-3.64065813e-07
-3.86004161e-07
-3.84207178e-07
-3.67188163e-07
-3.65269304e-07
-3.85933788e-07
-3.84264565e-07
-3.73153504e-07
-3.64225178e-07
-3.64190796e-07
-3.85882104e-07
-3.84472925e-07
-3.73173958e-07
-3.64078548e-07
-3.63975709e-07
-3.8598553e-07
-3.84145452e-07
-3.67231932e-07
-3.65485126e-07
-3.85847387e-07
-3.8383184e-07
-3.705779e-07
-3.66157823e-07
-3.63859017e-07
-3.63785353e-07
-3.86296762e-07
-3.8400664e-07
-3.84334358e-07
-3.67814205e-07
-3.65238116e-07
-3.85866321e-07
-3.84343979e-07
-3.72070024e-07
-3.63888084e-07
-3.63761116e-07
-3.86178563e-07
-3.84283784e-07
-3.67002518e-07
-3.64882122e-07
-3.86038445e-07
-3.84374269e-07
-3.71537129e-07
-3.63914781e-07
-3.6377024e-07
-3.86185116e-07
-3.84200996e-07
-3.6705909e-07
-3.6514571e-07
-3.86170492e-07
-3.84017014e-07
-3.67379668e-07
-3.65382946e-07
-3.86032236e-07
-3.84254899e-07
-3.72047172e-07
-3.64310006e-07
-3.64224562e-07
-3.86031104e-07
-3.84414704e-07
-3.71994126e-07
-3.64234967e-07
-3.64163412e-07
-3.85958633e-07
-3.84440151e-07
-3.72695394e-07
-3.64332609e-07
-3.64202988e-07
-3.86164294e-07
-3.84205248e-07
-3.67601824e-07
-3.65281468e-07
-3.86132039e-07
-3.84289121e-07
-3.71788667e-07
-3.6429932e-07
-3.64199679e-07
-3.86177302e-07
)
;

boundaryField
{
    closed
    {
        type            calculated;
        value           nonuniform List<scalar> 0();
    }
    open
    {
        type            calculated;
        value           nonuniform List<scalar> 0();
    }
    sides
    {
        type            empty;
    }
    procBoundary3to2
    {
        type            processor;
        value           uniform -3.71441581e-07;
    }
    procBoundary3to4
    {
        type            processor;
        value           uniform -3.84493689e-07;
    }
}


// ************************************************************************* //
