/*--------------------------------*- C++ -*----------------------------------*\
| =========                 |                                                 |
| \\      /  F ield         | OpenFOAM: The Open Source CFD Toolbox           |
|  \\    /   O peration     | Version:  2306                                  |
|   \\  /    A nd           | Website:  www.openfoam.com                      |
|    \\/     M anipulation  |                                                 |
\*---------------------------------------------------------------------------*/
FoamFile
{
    version     2.0;
    format      ascii;
    arch        "LSB;label=32;scalar=64";
    class       volScalarField;
    location    "4e-05";
    object      prefDZ_H2;
}
// * * * * * * * * * * * * * * * * * * * * * * * * * * * * * * * * * * * * * //

dimensions      [1 -1 -1 0 0 0 0];

internalField   nonuniform List<scalar> 
3810
(
6.35381241e-05
6.36407817e-05
6.17580498e-05
6.18935843e-05
6.35623101e-05
6.36033023e-05
6.1808507e-05
6.18217916e-05
6.35794453e-05
6.3571488e-05
6.17704353e-05
6.18116445e-05
6.35815206e-05
6.35534063e-05
6.17251017e-05
6.17979704e-05
6.35753114e-05
6.35430269e-05
6.16605746e-05
6.17737643e-05
6.35653428e-05
6.35467259e-05
6.15420805e-05
6.17824113e-05
6.35674667e-05
6.35560948e-05
6.12124104e-05
6.23314677e-05
6.35900651e-05
6.18589986e-05
6.23143028e-05
6.36042494e-05
6.20652556e-05
6.200902e-05
6.35864179e-05
6.3579764e-05
6.18977171e-05
6.19580272e-05
6.35982904e-05
6.35888331e-05
6.18054525e-05
6.20218978e-05
6.36041252e-05
6.35984253e-05
6.16778355e-05
6.23011839e-05
6.36167361e-05
6.20848218e-05
6.18854699e-05
6.2157753e-05
6.22779149e-05
6.35976156e-05
6.36227122e-05
6.19189054e-05
6.20653939e-05
6.36053471e-05
6.36097097e-05
6.17982304e-05
6.20396131e-05
6.36024635e-05
6.35897917e-05
6.16309695e-05
6.22960278e-05
6.35940892e-05
6.19090282e-05
6.18341688e-05
6.21543678e-05
6.22967181e-05
6.35860828e-05
6.35516757e-05
6.18931541e-05
6.20797604e-05
6.35945392e-05
6.35124244e-05
6.1763994e-05
6.20194034e-05
6.35923161e-05
6.34820368e-05
6.17155518e-05
6.21239576e-05
6.35844685e-05
6.34513677e-05
6.15470926e-05
6.23178964e-05
6.34373616e-05
6.21128608e-05
6.22455829e-05
6.35845827e-05
6.34094867e-05
6.16782525e-05
6.16715057e-05
6.20116216e-05
6.23265132e-05
6.35854474e-05
6.33876542e-05
6.18965881e-05
6.23707048e-05
6.3592139e-05
6.33604689e-05
6.17866746e-05
6.22746328e-05
6.35897244e-05
6.3340777e-05
6.17610797e-05
6.22749071e-05
6.35840127e-05
6.33320335e-05
6.17569049e-05
6.22826295e-05
6.35789695e-05
6.33319888e-05
6.17364989e-05
6.22829125e-05
6.35751428e-05
6.33350052e-05
6.16747986e-05
6.23309479e-05
6.3568514e-05
6.33559312e-05
6.13135122e-05
6.12793214e-05
6.2338625e-05
6.34950669e-05
6.34232032e-05
6.17535134e-05
6.24409312e-05
6.35466398e-05
6.34034529e-05
6.1756867e-05
6.23837902e-05
6.35453744e-05
6.34234216e-05
6.13290039e-05
6.12971999e-05
6.23497272e-05
6.3476865e-05
6.34770939e-05
6.13138244e-05
6.1294338e-05
6.23326172e-05
6.35015515e-05
6.25905198e-05
6.21087694e-05
6.35342874e-05
6.34688957e-05
6.14575296e-05
6.22070036e-05
6.35054691e-05
6.34446489e-05
6.18408522e-05
6.2206686e-05
6.35529872e-05
6.34630738e-05
6.17952812e-05
6.21163231e-05
6.3578024e-05
6.34923678e-05
6.1664081e-05
6.20633758e-05
6.35754337e-05
6.35246123e-05
6.12498281e-05
6.11773827e-05
6.23029397e-05
6.35112093e-05
6.36360338e-05
6.17683174e-05
6.21790938e-05
6.35543756e-05
6.36455845e-05
6.15894919e-05
6.23141862e-05
6.35995578e-05
6.18293986e-05
6.17429049e-05
6.22187482e-05
6.23093763e-05
6.35937508e-05
6.36621088e-05
6.19811978e-05
6.20007545e-05
6.36045005e-05
6.36486193e-05
6.18346355e-05
6.18866227e-05
6.35876832e-05
6.36729901e-05
6.15962086e-05
6.22930428e-05
6.36359375e-05
6.21640078e-05
6.18657649e-05
6.35701699e-05
6.36324312e-05
6.16553955e-05
6.15607002e-05
6.19617991e-05
6.2283625e-05
6.35791148e-05
6.36578926e-05
6.19626798e-05
6.18613205e-05
6.35832296e-05
6.37071852e-05
6.17935237e-05
6.22727556e-05
6.36045205e-05
6.22972523e-05
6.1707788e-05
6.24010723e-05
6.35648928e-05
6.26283606e-05
6.17368493e-05
6.21062117e-05
6.35861317e-05
6.36433252e-05
6.18303967e-05
6.17848496e-05
6.35865065e-05
6.36163217e-05
6.18295366e-05
6.17896697e-05
6.35855158e-05
6.3577757e-05
6.17733038e-05
6.17722811e-05
6.35791671e-05
6.35488678e-05
6.16546301e-05
6.16940667e-05
6.3577897e-05
6.35320124e-05
6.16268976e-05
6.16200297e-05
6.19041506e-05
6.23320375e-05
6.35643772e-05
6.34982164e-05
6.20346225e-05
6.21588094e-05
6.357981e-05
6.34541843e-05
6.18014455e-05
6.20238597e-05
6.36013045e-05
6.34711579e-05
6.1569841e-05
6.13128594e-05
6.22985459e-05
6.35675136e-05
6.34785499e-05
6.16243066e-05
6.15537626e-05
6.23235544e-05
6.35606296e-05
6.3358267e-05
6.19043751e-05
6.23600038e-05
6.35744383e-05
6.33076548e-05
6.17440441e-05
6.21437402e-05
6.35777687e-05
6.34229786e-05
6.12937172e-05
6.12416025e-05
6.23235442e-05
6.35187005e-05
6.33662089e-05
6.19189027e-05
6.23544053e-05
6.35829029e-05
6.33593656e-05
6.18046804e-05
6.22290353e-05
6.35876221e-05
6.33708149e-05
6.17351953e-05
6.21505422e-05
6.35859641e-05
6.34711567e-05
6.17076659e-05
6.23253239e-05
6.35628722e-05
6.23737553e-05
6.17097906e-05
6.24786962e-05
6.35541962e-05
6.23489979e-05
6.17433307e-05
6.33832345e-05
6.35676175e-05
6.19365221e-05
6.17552546e-05
6.35771811e-05
6.35704986e-05
6.18122694e-05
6.17257204e-05
6.35649533e-05
6.35736538e-05
6.18250157e-05
6.16748105e-05
6.35465736e-05
6.35787853e-05
6.18111588e-05
6.16100944e-05
6.3571635e-05
6.3596963e-05
6.20913493e-05
6.17491662e-05
6.23926833e-05
6.23561306e-05
6.17209041e-05
6.25639412e-05
6.35949352e-05
6.21322485e-05
6.18730477e-05
6.34778269e-05
6.35987722e-05
6.20884907e-05
6.18537948e-05
6.34697923e-05
6.35914873e-05
6.2054773e-05
6.18299253e-05
6.34544604e-05
6.3584949e-05
6.20463171e-05
6.18009228e-05
6.34402146e-05
6.35740569e-05
6.19562141e-05
6.16985624e-05
6.34622372e-05
6.35396925e-05
6.19605844e-05
6.10172894e-05
6.20954898e-05
6.3494516e-05
6.3600181e-05
6.22194383e-05
6.1211927e-05
6.22981326e-05
6.34701667e-05
6.36329992e-05
6.22441202e-05
6.18890343e-05
6.34287764e-05
6.36026673e-05
6.21158479e-05
6.18254689e-05
6.3434827e-05
6.36061309e-05
6.19703603e-05
6.19893192e-05
6.34792321e-05
6.28086365e-05
6.13618007e-05
6.23504701e-05
6.35403431e-05
6.23103833e-05
6.19194507e-05
6.35142209e-05
6.35011812e-05
6.18881898e-05
6.22996726e-05
6.35387147e-05
6.29515402e-05
6.17225081e-05
6.22949674e-05
6.35513819e-05
6.23644304e-05
6.16227537e-05
6.16626569e-05
6.23247734e-05
6.35388274e-05
6.35076545e-05
6.18098895e-05
6.19225845e-05
6.35208143e-05
6.36070802e-05
6.17367988e-05
6.20741234e-05
6.3515864e-05
6.28353396e-05
6.11298794e-05
6.23599752e-05
6.35548338e-05
6.20281699e-05
6.1743635e-05
6.35560675e-05
6.3519683e-05
6.16470035e-05
6.18705004e-05
6.35198617e-05
6.35077142e-05
6.10952362e-05
6.23177794e-05
6.34401495e-05
6.20707411e-05
6.20702495e-05
6.35618737e-05
6.33929149e-05
6.17880493e-05
6.21928665e-05
6.35656235e-05
6.33576222e-05
6.17262121e-05
6.2329902e-05
6.3558949e-05
6.31307562e-05
6.17178814e-05
6.23971375e-05
6.35445551e-05
6.28567953e-05
6.1707849e-05
6.23259038e-05
6.3523702e-05
6.2633431e-05
6.16719944e-05
6.22918397e-05
6.34918224e-05
6.24146134e-05
6.15357043e-05
6.23887356e-05
6.25995027e-05
6.21109944e-05
6.2313332e-05
6.35091915e-05
6.23695415e-05
6.18658044e-05
6.2356797e-05
6.34908711e-05
6.230415e-05
6.18266507e-05
6.23981681e-05
6.34841768e-05
6.22813961e-05
6.18268571e-05
6.24242804e-05
6.34826394e-05
6.22753557e-05
6.18337436e-05
6.24333213e-05
6.34866133e-05
6.22789708e-05
6.18363803e-05
6.24235452e-05
6.34969414e-05
6.22940169e-05
6.18345412e-05
6.23932519e-05
6.3511827e-05
6.23352275e-05
6.18434349e-05
6.2354917e-05
6.35105241e-05
6.24155596e-05
6.17425508e-05
6.24825173e-05
6.3426759e-05
6.16675884e-05
6.16610158e-05
6.22161883e-05
6.23646705e-05
6.35757318e-05
6.31666622e-05
6.18716972e-05
6.24145167e-05
6.35715111e-05
6.31683519e-05
6.17547685e-05
6.22799429e-05
6.35599807e-05
6.34266184e-05
6.16322909e-05
6.20748033e-05
6.3526266e-05
6.35170844e-05
6.11787096e-05
6.23327783e-05
6.35497153e-05
6.20209983e-05
6.19107862e-05
6.35674986e-05
6.35061355e-05
6.17796284e-05
6.18740421e-05
6.35781717e-05
6.35124126e-05
6.16913066e-05
6.18140615e-05
6.35735727e-05
6.35223879e-05
6.1661631e-05
6.1759164e-05
6.35612502e-05
6.35406679e-05
6.16145013e-05
6.17364287e-05
6.35650555e-05
6.35662768e-05
6.12745414e-05
6.23264481e-05
6.35898487e-05
6.21217318e-05
6.17230193e-05
6.35793488e-05
6.35462367e-05
6.18215183e-05
6.18145764e-05
6.35784247e-05
6.35238073e-05
6.17809552e-05
6.18359253e-05
6.35767347e-05
6.3502686e-05
6.17650238e-05
6.18608026e-05
6.3576536e-05
6.34694461e-05
6.17136199e-05
6.18750209e-05
6.3594336e-05
6.34663851e-05
6.15812421e-05
6.12476007e-05
6.22158586e-05
6.35375293e-05
6.34416108e-05
6.18220953e-05
6.20420489e-05
6.35620166e-05
6.33894135e-05
6.17742354e-05
6.20683472e-05
6.35840155e-05
6.34196992e-05
6.14530584e-05
6.12648014e-05
6.23157682e-05
6.35320305e-05
6.33264456e-05
6.18402433e-05
6.22799517e-05
6.35553665e-05
6.32933827e-05
6.18416295e-05
6.22995413e-05
6.35589467e-05
6.32551337e-05
6.17941083e-05
6.2320217e-05
6.35524504e-05
6.32193921e-05
6.17154309e-05
6.23550295e-05
6.35285035e-05
6.31714705e-05
6.1353664e-05
6.2332568e-05
6.32688795e-05
6.20628573e-05
6.23213239e-05
6.35480491e-05
6.31757222e-05
6.17555937e-05
6.23929903e-05
6.35154758e-05
6.31000843e-05
6.12658733e-05
6.23253318e-05
6.32482321e-05
6.20320177e-05
6.23198503e-05
6.35602502e-05
6.31671433e-05
6.17701026e-05
6.2364701e-05
6.35623063e-05
6.31573753e-05
6.16987957e-05
6.23415806e-05
6.35619651e-05
6.31893847e-05
6.16744193e-05
6.23078502e-05
6.35618637e-05
6.32197939e-05
6.16655192e-05
6.22889406e-05
6.35611835e-05
6.3219814e-05
6.16627525e-05
6.22866148e-05
6.35603466e-05
6.32164397e-05
6.16655863e-05
6.22849558e-05
6.3559909e-05
6.32345141e-05
6.1673514e-05
6.22799371e-05
6.35579985e-05
6.32527841e-05
6.16771086e-05
6.2271508e-05
6.35472743e-05
6.32891501e-05
6.16352034e-05
6.23447216e-05
6.35003369e-05
6.29565162e-05
6.11252455e-05
6.23335466e-05
6.34591333e-05
6.21115289e-05
6.21476617e-05
6.35556078e-05
6.33798647e-05
6.17464155e-05
6.23905229e-05
6.35157868e-05
6.26712997e-05
6.119314e-05
6.23374551e-05
6.3412621e-05
6.20714674e-05
6.23992266e-05
6.3576663e-05
6.27331303e-05
6.16797014e-05
6.22944183e-05
6.35663127e-05
6.26126643e-05
6.15990663e-05
6.22840706e-05
6.35640653e-05
6.26639613e-05
6.16133829e-05
6.23114545e-05
6.35644175e-05
6.28675926e-05
6.16623669e-05
6.2401523e-05
6.35651039e-05
6.34188019e-05
6.17078979e-05
6.20947804e-05
6.35555829e-05
6.35637601e-05
6.16888952e-05
6.20100982e-05
6.35293186e-05
6.35604913e-05
6.11410718e-05
6.23518366e-05
6.3594046e-05
6.17527324e-05
6.23136357e-05
6.35785239e-05
6.21145789e-05
6.20573242e-05
6.35710339e-05
6.35442913e-05
6.18431206e-05
6.19948879e-05
6.35655917e-05
6.35293701e-05
6.16869439e-05
6.1998604e-05
6.35335174e-05
6.3454895e-05
6.10961836e-05
6.23714698e-05
6.35794141e-05
6.17307588e-05
6.23267359e-05
6.35541203e-05
6.21348624e-05
6.21806031e-05
6.35407942e-05
6.29811749e-05
6.1301039e-05
6.23377437e-05
6.35049963e-05
6.20079163e-05
6.20463008e-05
6.3584302e-05
6.34451112e-05
6.18209963e-05
6.21254129e-05
6.35946037e-05
6.33851408e-05
6.17531172e-05
6.21952643e-05
6.35909568e-05
6.33432073e-05
6.1744733e-05
6.22404479e-05
6.35883219e-05
6.33115528e-05
6.17551755e-05
6.22762234e-05
6.35886045e-05
6.32964569e-05
6.17525006e-05
6.23164777e-05
6.35916759e-05
6.33165906e-05
6.1744752e-05
6.23042698e-05
6.35019735e-05
6.22710453e-05
6.1720946e-05
6.19101041e-05
6.23194767e-05
6.35870022e-05
6.33099133e-05
6.18256595e-05
6.2384154e-05
6.35782922e-05
6.33128864e-05
6.1877934e-05
6.24201994e-05
6.35771776e-05
6.33151294e-05
6.1895839e-05
6.24498989e-05
6.35737795e-05
6.33235541e-05
6.18291109e-05
6.24587143e-05
6.3560757e-05
6.33426854e-05
6.12824003e-05
6.12448067e-05
6.23461208e-05
6.34880997e-05
6.34408553e-05
6.14121762e-05
6.14028666e-05
6.22070852e-05
6.23762999e-05
6.35656673e-05
6.34522475e-05
6.20333485e-05
6.24448247e-05
6.35752843e-05
6.33553046e-05
6.19146412e-05
6.23546748e-05
6.35530218e-05
6.24786355e-05
6.16048983e-05
6.17301001e-05
6.24340622e-05
6.35295957e-05
6.29469125e-05
6.19243912e-05
6.23317597e-05
6.35452325e-05
6.27390317e-05
6.18911183e-05
6.23243246e-05
6.35311574e-05
6.23122723e-05
6.14562002e-05
6.17854281e-05
6.27007836e-05
6.35323311e-05
6.2295238e-05
6.15433964e-05
6.18512388e-05
6.2512468e-05
6.3567348e-05
6.2606812e-05
6.18911757e-05
6.23134243e-05
6.35680288e-05
6.26871576e-05
6.19060184e-05
6.23089318e-05
6.35769862e-05
6.26845546e-05
6.18651574e-05
6.23047497e-05
6.3576311e-05
6.27013003e-05
6.17674298e-05
6.2303616e-05
6.35675658e-05
6.2327106e-05
6.15670025e-05
6.17192618e-05
6.2332086e-05
6.3568475e-05
6.36084206e-05
6.17872894e-05
6.21590474e-05
6.35658773e-05
6.35642401e-05
6.17504933e-05
6.22616891e-05
6.35685464e-05
6.29204107e-05
6.14486578e-05
6.13411808e-05
6.22898655e-05
6.35329638e-05
6.36127941e-05
6.1756825e-05
6.20341859e-05
6.35682155e-05
6.35741828e-05
6.18045544e-05
6.19556453e-05
6.35789131e-05
6.35560472e-05
6.17370122e-05
6.19215357e-05
6.35874414e-05
6.35416322e-05
6.14800337e-05
6.11906018e-05
6.22868759e-05
6.35448083e-05
6.36023475e-05
6.16191795e-05
6.14202369e-05
6.22935648e-05
6.35504612e-05
6.36349268e-05
6.1809458e-05
6.19265512e-05
6.35624327e-05
6.36486864e-05
6.14545362e-05
6.22769324e-05
6.36103416e-05
6.22275986e-05
6.17237916e-05
6.36096123e-05
6.35965507e-05
6.18427738e-05
6.17228608e-05
6.35924902e-05
6.35981919e-05
6.17467475e-05
6.16782815e-05
6.35744377e-05
6.35935163e-05
6.17478188e-05
6.16709217e-05
6.35557908e-05
6.35878469e-05
6.17830318e-05
6.16823047e-05
6.35370478e-05
6.35801259e-05
6.18146619e-05
6.16912789e-05
6.35261604e-05
6.35623445e-05
6.17946213e-05
6.16061681e-05
6.35476164e-05
6.3531311e-05
6.19690829e-05
6.11075873e-05
6.17811357e-05
6.34882829e-05
6.36049737e-05
6.19979869e-05
6.18004663e-05
6.34595018e-05
6.36091263e-05
6.20645068e-05
6.17749264e-05
6.34517343e-05
6.35899521e-05
6.20698559e-05
6.17737385e-05
6.34484418e-05
6.35655627e-05
6.20501978e-05
6.16813999e-05
6.34772989e-05
6.35285881e-05
6.23157678e-05
6.12414547e-05
6.15780504e-05
6.34432292e-05
6.35850217e-05
6.22840212e-05
6.18700168e-05
6.33781292e-05
6.35951157e-05
6.22757136e-05
6.18138135e-05
6.33648086e-05
6.35794753e-05
6.22196767e-05
6.16867871e-05
6.33901278e-05
6.35678746e-05
6.23638717e-05
6.16290855e-05
6.15379509e-05
6.15516598e-05
6.33453163e-05
6.35527263e-05
6.24427166e-05
6.19208857e-05
6.33705716e-05
6.35853172e-05
6.23515401e-05
6.183544e-05
6.33647763e-05
6.35875922e-05
6.22987801e-05
6.17969941e-05
6.33661446e-05
6.35836645e-05
6.22464395e-05
6.1762968e-05
6.33827287e-05
6.35785833e-05
6.21363851e-05
6.17608513e-05
6.34199546e-05
6.35667033e-05
6.20335638e-05
6.20022973e-05
6.34384172e-05
6.23295482e-05
6.13647199e-05
6.35022201e-05
6.35189981e-05
6.20090528e-05
6.20148961e-05
6.34875678e-05
6.23351239e-05
6.12734434e-05
6.35404008e-05
6.35254838e-05
6.2059017e-05
6.16842683e-05
6.3528014e-05
6.35714918e-05
6.19477764e-05
6.16970654e-05
6.35530341e-05
6.35593362e-05
6.18844719e-05
6.17418644e-05
6.35642107e-05
6.35168914e-05
6.18516058e-05
6.18153913e-05
6.35702441e-05
6.34612231e-05
6.18329577e-05
6.19104805e-05
6.35763443e-05
6.33995308e-05
6.18141063e-05
6.20180873e-05
6.35900767e-05
6.33469923e-05
6.17607259e-05
6.20484901e-05
6.36172427e-05
6.33832104e-05
6.18586806e-05
6.10997855e-05
6.19911425e-05
6.35262697e-05
6.32813512e-05
6.19281627e-05
6.23040081e-05
6.35652637e-05
6.3257821e-05
6.18843311e-05
6.2359828e-05
6.35699672e-05
6.3258416e-05
6.18620069e-05
6.2376589e-05
6.3575812e-05
6.32868735e-05
6.18303624e-05
6.24080729e-05
6.35504994e-05
6.34135689e-05
6.14390135e-05
6.14386489e-05
6.1517046e-05
6.23836394e-05
6.35506697e-05
6.33482681e-05
6.1875791e-05
6.2367093e-05
6.35688918e-05
6.33256225e-05
6.1812769e-05
6.22973618e-05
6.35787213e-05
6.33616923e-05
6.17488292e-05
6.22232221e-05
6.35788166e-05
6.33836536e-05
6.17106035e-05
6.21638995e-05
6.35786983e-05
6.3408132e-05
6.16834387e-05
6.21071952e-05
6.35802651e-05
6.34385536e-05
6.1667081e-05
6.20532415e-05
6.35826135e-05
6.34705706e-05
6.16615071e-05
6.20057089e-05
6.35847275e-05
6.35006689e-05
6.16662964e-05
6.19682646e-05
6.35861762e-05
6.35257317e-05
6.16802369e-05
6.19430216e-05
6.35877446e-05
6.35452009e-05
6.1700497e-05
6.19292855e-05
6.3591523e-05
6.3562765e-05
6.17224661e-05
6.19391781e-05
6.35909065e-05
6.35835607e-05
6.17366919e-05
6.20777724e-05
6.35676963e-05
6.35434456e-05
6.13872876e-05
6.11880335e-05
6.22575601e-05
6.35222796e-05
6.36588652e-05
6.18246582e-05
6.19380374e-05
6.35590993e-05
6.36197035e-05
6.19042565e-05
6.2043959e-05
6.35553814e-05
6.35831996e-05
6.160892e-05
6.15659425e-05
6.16840386e-05
6.22071239e-05
6.35644604e-05
6.36313193e-05
6.19451859e-05
6.19493559e-05
6.35858874e-05
6.36142909e-05
6.19739602e-05
6.1975063e-05
6.35790564e-05
6.36029378e-05
6.19257584e-05
6.20249793e-05
6.35926462e-05
6.35607256e-05
6.16593398e-05
6.13726673e-05
6.2135563e-05
6.35380125e-05
6.36380047e-05
6.18369034e-05
6.19589937e-05
6.35716055e-05
6.35740652e-05
6.1673605e-05
6.13297374e-05
6.20440546e-05
6.35439855e-05
6.36379037e-05
6.1822252e-05
6.18234815e-05
6.35496476e-05
6.36390143e-05
6.18541773e-05
6.18557556e-05
6.35680838e-05
6.36333823e-05
6.15828856e-05
6.23048208e-05
6.36159463e-05
6.22068857e-05
6.16579687e-05
6.35888188e-05
6.36023027e-05
6.18892163e-05
6.17674135e-05
6.35855758e-05
6.3594491e-05
6.18311136e-05
6.18178492e-05
6.35838292e-05
6.35759508e-05
6.18209068e-05
6.1846421e-05
6.35966614e-05
6.35304191e-05
6.17112996e-05
6.1213595e-05
6.1923901e-05
6.35221628e-05
6.36285906e-05
6.17216037e-05
6.17767588e-05
6.35459952e-05
6.36252115e-05
6.16102826e-05
6.23224026e-05
6.36070858e-05
6.22391006e-05
6.16502181e-05
6.35680916e-05
6.36088188e-05
6.16493248e-05
6.2231396e-05
6.36020366e-05
6.22890432e-05
6.1567763e-05
6.35634787e-05
6.35909834e-05
6.18778368e-05
6.16897438e-05
6.35536274e-05
6.35853569e-05
6.18373702e-05
6.17565567e-05
6.35527417e-05
6.35917056e-05
6.18502653e-05
6.17705665e-05
6.35558215e-05
6.35969949e-05
6.18720968e-05
6.18100483e-05
6.35578025e-05
6.3579244e-05
6.19205763e-05
6.18891093e-05
6.35673535e-05
6.35410426e-05
6.18473857e-05
6.12907718e-05
6.16540034e-05
6.35420088e-05
6.35857888e-05
6.17342347e-05
6.16862767e-05
6.356738e-05
6.35904704e-05
6.22971564e-05
6.18415884e-05
6.18393291e-05
6.21033456e-05
6.35842723e-05
6.36111899e-05
6.18776141e-05
6.18364866e-05
6.35496773e-05
6.3614214e-05
6.18918322e-05
6.17888596e-05
6.35486985e-05
6.36067026e-05
6.18657039e-05
6.17708546e-05
6.35612518e-05
6.36070025e-05
6.18448669e-05
6.17723292e-05
6.35796204e-05
6.36175166e-05
6.18822222e-05
6.18018255e-05
6.35798853e-05
6.36129371e-05
6.21827506e-05
6.2196493e-05
6.19706016e-05
6.20368565e-05
6.36091257e-05
6.30081674e-05
6.14161089e-05
6.18599517e-05
6.356303e-05
6.35303576e-05
6.17841081e-05
6.19548217e-05
6.36017809e-05
6.35310785e-05
6.17475653e-05
6.19850356e-05
6.3611506e-05
6.34876721e-05
6.17133849e-05
6.22949421e-05
6.35410197e-05
6.21222275e-05
6.20970203e-05
6.35983289e-05
6.33711472e-05
6.17732557e-05
6.21447083e-05
6.35957261e-05
6.33038859e-05
6.1700959e-05
6.22609557e-05
6.35681685e-05
6.32697951e-05
6.15697547e-05
6.232917e-05
6.3280284e-05
6.19454106e-05
6.22370412e-05
6.35583543e-05
6.31808756e-05
6.17833115e-05
6.23919263e-05
6.35729748e-05
6.31010083e-05
6.17621975e-05
6.24140048e-05
6.35466359e-05
6.30765447e-05
6.15686905e-05
6.23196573e-05
6.31897483e-05
6.20367849e-05
6.24125911e-05
6.3557428e-05
6.30711051e-05
6.18623322e-05
6.240417e-05
6.35727728e-05
6.30311364e-05
6.18403806e-05
6.24133279e-05
6.35782024e-05
6.30900047e-05
6.18477989e-05
6.24427768e-05
6.35536387e-05
6.33861868e-05
6.13162754e-05
6.12879543e-05
6.23494747e-05
6.35162482e-05
6.34694503e-05
6.18381439e-05
6.23579727e-05
6.35390159e-05
6.34564502e-05
6.12915203e-05
6.12560966e-05
6.23496042e-05
6.35161908e-05
6.35487866e-05
6.18325943e-05
6.21348848e-05
6.35726086e-05
6.35127989e-05
6.18537224e-05
6.21173751e-05
6.35937223e-05
6.35282376e-05
6.18399775e-05
6.20793992e-05
6.36024057e-05
6.35509487e-05
6.18372847e-05
6.20544822e-05
6.36005393e-05
6.35783828e-05
6.18380832e-05
6.21150918e-05
6.3578968e-05
6.35506163e-05
6.14810489e-05
6.12642277e-05
6.22909819e-05
6.35211997e-05
6.3611109e-05
6.14811888e-05
6.12234516e-05
6.21077678e-05
6.35434572e-05
6.36368349e-05
6.18072056e-05
6.18400431e-05
6.35684968e-05
6.360713e-05
6.18544875e-05
6.18477591e-05
6.35771085e-05
6.359631e-05
6.18401347e-05
6.1838995e-05
6.35777276e-05
6.35976906e-05
6.18429586e-05
6.18303177e-05
6.35759115e-05
6.36023695e-05
6.18599605e-05
6.18415626e-05
6.35678662e-05
6.36015354e-05
6.18931118e-05
6.19044547e-05
6.35676189e-05
6.35777043e-05
6.16735579e-05
6.15890534e-05
6.15321052e-05
6.17945932e-05
6.35580953e-05
6.36047624e-05
6.18715098e-05
6.17938963e-05
6.35569134e-05
6.36033133e-05
6.19193e-05
6.18470667e-05
6.35672312e-05
6.35984423e-05
6.19107041e-05
6.18604474e-05
6.35767929e-05
6.35917619e-05
6.19395815e-05
6.18786691e-05
6.35902631e-05
6.35673892e-05
6.22299431e-05
6.16930779e-05
6.2005092e-05
6.35722102e-05
6.35780465e-05
6.21096562e-05
6.14769679e-05
6.16594005e-05
6.35539247e-05
6.35974526e-05
6.19065593e-05
6.17376196e-05
6.35492657e-05
6.35980628e-05
6.18548786e-05
6.17182571e-05
6.35446084e-05
6.35947648e-05
6.18396797e-05
6.16995048e-05
6.35449052e-05
6.35956418e-05
6.18327387e-05
6.16900533e-05
6.35526193e-05
6.3600078e-05
6.18570916e-05
6.1720411e-05
6.35745532e-05
6.35999574e-05
6.19873117e-05
6.18553807e-05
6.36159113e-05
6.35795316e-05
6.22764592e-05
6.20518922e-05
6.23047075e-05
6.19433035e-05
6.19440589e-05
6.35519223e-05
6.36253919e-05
6.22563265e-05
6.19043575e-05
6.35631874e-05
6.36285395e-05
6.1984449e-05
6.17502716e-05
6.35594792e-05
6.36164913e-05
6.18911438e-05
6.17485183e-05
6.35688903e-05
6.35848665e-05
6.19855703e-05
6.2014609e-05
6.35841174e-05
6.23182417e-05
6.15912969e-05
6.35800746e-05
6.35492611e-05
6.19392333e-05
6.19794663e-05
6.35694522e-05
6.23255457e-05
6.13655265e-05
6.35633591e-05
6.35319627e-05
6.1905115e-05
6.19472424e-05
6.3547491e-05
6.23336876e-05
6.12838483e-05
6.35352122e-05
6.35370886e-05
6.20458521e-05
6.16940794e-05
6.34950877e-05
6.35692625e-05
6.20312103e-05
6.17385922e-05
6.34799622e-05
6.35781026e-05
6.20510048e-05
6.17641122e-05
6.34765935e-05
6.3573088e-05
6.20736272e-05
6.17736068e-05
6.34912076e-05
6.35547325e-05
6.20985316e-05
6.16863219e-05
6.35331639e-05
6.35121073e-05
6.23281858e-05
6.11408782e-05
6.11753204e-05
6.34649428e-05
6.35617427e-05
6.22124357e-05
6.18244104e-05
6.34827641e-05
6.35818842e-05
6.21064154e-05
6.21018938e-05
6.34778146e-05
6.23157896e-05
6.18128581e-05
6.35249827e-05
6.2356321e-05
6.13750502e-05
6.34891074e-05
6.35479068e-05
6.21690607e-05
6.17558701e-05
6.34669891e-05
6.35877209e-05
6.21274679e-05
6.17844577e-05
6.3465846e-05
6.35952558e-05
6.21032993e-05
6.18494062e-05
6.34731364e-05
6.35831409e-05
6.20803602e-05
6.20822426e-05
6.34817025e-05
6.23264984e-05
6.14014067e-05
6.34909883e-05
6.3536737e-05
6.22013917e-05
6.17818858e-05
6.34668433e-05
6.35615336e-05
6.21609359e-05
6.17610128e-05
6.35101651e-05
6.35225884e-05
6.2335075e-05
6.12781613e-05
6.13052307e-05
6.34472433e-05
6.35688058e-05
6.22385128e-05
6.180052e-05
6.34414067e-05
6.35833404e-05
6.22011912e-05
6.18473688e-05
6.34466222e-05
6.35707013e-05
6.21835281e-05
6.1811584e-05
6.34956311e-05
6.35371039e-05
6.23339596e-05
6.13890674e-05
6.14070279e-05
6.34578866e-05
6.35781075e-05
6.21912813e-05
6.18582785e-05
6.34698995e-05
6.35856475e-05
6.21371738e-05
6.20605503e-05
6.34723946e-05
6.2322646e-05
6.16929328e-05
6.35001444e-05
6.35639225e-05
6.20991349e-05
6.20227462e-05
6.34974368e-05
6.23365276e-05
6.16245933e-05
6.34862349e-05
6.35884469e-05
6.20943915e-05
6.1780998e-05
6.34814028e-05
6.35979137e-05
6.20217861e-05
6.18151224e-05
6.34938843e-05
6.3589955e-05
6.19779617e-05
6.18320048e-05
6.35081323e-05
6.35807022e-05
6.19212838e-05
6.1802041e-05
6.35266756e-05
6.3565881e-05
6.1837178e-05
6.15740942e-05
6.1740292e-05
6.35445297e-05
6.35794145e-05
6.1736842e-05
6.15514909e-05
6.18055556e-05
6.35480793e-05
6.35956806e-05
6.18124832e-05
6.18189935e-05
6.35652649e-05
6.35817453e-05
6.1846097e-05
6.18733205e-05
6.35804082e-05
6.35742069e-05
6.18120938e-05
6.18821054e-05
6.35928879e-05
6.35684852e-05
6.17633624e-05
6.18914185e-05
6.35918362e-05
6.35452727e-05
6.1522642e-05
6.14162915e-05
6.19505796e-05
6.35440485e-05
6.3612719e-05
6.17171858e-05
6.18138509e-05
6.35684288e-05
6.35823012e-05
6.17661263e-05
6.18499946e-05
6.3588254e-05
6.35690754e-05
6.1763861e-05
6.18814236e-05
6.35998943e-05
6.3566971e-05
6.17737067e-05
6.19179156e-05
6.36008384e-05
6.35732977e-05
6.17976152e-05
6.20288156e-05
6.35910354e-05
6.35543127e-05
6.1572838e-05
6.15389357e-05
6.23155232e-05
6.35494221e-05
6.35869119e-05
6.16684332e-05
6.16123845e-05
6.23312604e-05
6.35582689e-05
6.35638679e-05
6.19124802e-05
6.22187321e-05
6.35545977e-05
6.35260028e-05
6.16423474e-05
6.23279957e-05
6.34842827e-05
6.19786176e-05
6.19922608e-05
6.35702662e-05
6.34515466e-05
6.17431332e-05
6.19756675e-05
6.35866678e-05
6.33956697e-05
6.17140353e-05
6.20898548e-05
6.35901181e-05
6.33558748e-05
6.17406983e-05
6.21788681e-05
6.3586162e-05
6.33340111e-05
6.17507509e-05
6.2282966e-05
6.35632902e-05
6.32995186e-05
6.12766644e-05
6.12542699e-05
6.23260797e-05
6.35271897e-05
6.33197975e-05
6.17009717e-05
6.23514911e-05
6.35657031e-05
6.32486336e-05
6.18005783e-05
6.24224806e-05
6.35932408e-05
6.32207516e-05
6.18560045e-05
6.24207218e-05
6.36118181e-05
6.32340342e-05
6.20156473e-05
6.24173248e-05
6.35880216e-05
6.32445365e-05
6.18245906e-05
6.18121583e-05
6.21425054e-05
6.21013395e-05
6.23499297e-05
6.35276815e-05
6.32459463e-05
6.18539809e-05
6.23629896e-05
6.32160982e-05
6.21955164e-05
6.24045989e-05
6.35740788e-05
6.30439008e-05
6.1861275e-05
6.23655649e-05
6.35744241e-05
6.28813631e-05
6.17416355e-05
6.23493619e-05
6.35644213e-05
6.28356503e-05
6.17068512e-05
6.23477097e-05
6.35509999e-05
6.28353765e-05
6.16858943e-05
6.23495072e-05
6.35131336e-05
6.2865163e-05
6.13658183e-05
6.23161007e-05
6.30393798e-05
6.19951343e-05
6.23914527e-05
6.35506121e-05
6.29167594e-05
6.17342614e-05
6.23655266e-05
6.35533791e-05
6.28838498e-05
6.16759402e-05
6.23770142e-05
6.35583359e-05
6.29776349e-05
6.16533239e-05
6.24128407e-05
6.35617814e-05
6.31151487e-05
6.16400375e-05
6.22842589e-05
6.35646147e-05
6.32723273e-05
6.16292907e-05
6.21457115e-05
6.3567353e-05
6.3401098e-05
6.16195983e-05
6.20305568e-05
6.356973e-05
6.34600791e-05
6.16140574e-05
6.19497418e-05
6.35713201e-05
6.34917092e-05
6.16156257e-05
6.18931594e-05
6.3572438e-05
6.35118333e-05
6.16230855e-05
6.18537732e-05
6.35735092e-05
6.35268341e-05
6.16342565e-05
6.18269806e-05
6.35750045e-05
6.35393562e-05
6.16472165e-05
6.18123797e-05
6.35757467e-05
6.355114e-05
6.16663313e-05
6.18188364e-05
6.35684688e-05
6.35686008e-05
6.16802485e-05
6.18796604e-05
6.35534174e-05
6.35922897e-05
6.14422012e-05
6.2314868e-05
6.36241344e-05
6.18850052e-05
6.21760905e-05
6.36098247e-05
6.19438323e-05
6.18022092e-05
6.35618175e-05
6.35991643e-05
6.18287275e-05
6.18060646e-05
6.3575327e-05
6.35820624e-05
6.18040679e-05
6.18354966e-05
6.35752426e-05
6.35760574e-05
6.17699697e-05
6.18444811e-05
6.35710749e-05
6.35637959e-05
6.16236515e-05
6.16156035e-05
6.16620439e-05
6.17906374e-05
6.35575755e-05
6.35793253e-05
6.17893871e-05
6.17524616e-05
6.35553881e-05
6.35839611e-05
6.18047553e-05
6.17446682e-05
6.35564941e-05
6.35834869e-05
6.18125629e-05
6.17393816e-05
6.35559356e-05
6.35849299e-05
6.18172045e-05
6.17334005e-05
6.35540456e-05
6.35852884e-05
6.1829692e-05
6.17372857e-05
6.35521425e-05
6.35811553e-05
6.18493778e-05
6.17485295e-05
6.35604235e-05
6.35641616e-05
6.18708222e-05
6.1702116e-05
6.35921404e-05
6.35300728e-05
6.21455293e-05
6.12640587e-05
6.13884732e-05
6.35078207e-05
6.35784488e-05
6.20610688e-05
6.17070791e-05
6.3515432e-05
6.35912504e-05
6.19741326e-05
6.17089168e-05
6.34947494e-05
6.35878875e-05
6.19673412e-05
6.17075891e-05
6.34791184e-05
6.35802339e-05
6.1936775e-05
6.17246336e-05
6.34804371e-05
6.35582651e-05
6.18512841e-05
6.18561327e-05
6.35128405e-05
6.2348563e-05
6.13002609e-05
6.34807261e-05
6.35242096e-05
6.20826369e-05
6.16423723e-05
6.3423824e-05
6.35619254e-05
6.20516267e-05
6.162771e-05
6.33965492e-05
6.35669358e-05
6.20538104e-05
6.16092391e-05
6.33745331e-05
6.35647946e-05
6.20773479e-05
6.16036801e-05
6.33529851e-05
6.35622127e-05
6.21128122e-05
6.16088119e-05
6.33325995e-05
6.35601846e-05
6.21665709e-05
6.1621009e-05
6.32888071e-05
6.35581519e-05
6.22623332e-05
6.16388672e-05
6.31572016e-05
6.35541965e-05
6.23845686e-05
6.16588464e-05
6.30376039e-05
6.35501957e-05
6.24079512e-05
6.16786643e-05
6.29193389e-05
6.35459993e-05
6.23749775e-05
6.17022955e-05
6.28221065e-05
6.35399219e-05
6.23549206e-05
6.17571774e-05
6.28310577e-05
6.35348218e-05
6.23576155e-05
6.20144983e-05
6.28817702e-05
6.23301126e-05
6.14759187e-05
6.27405708e-05
6.3497204e-05
6.23357898e-05
6.17707074e-05
6.27183759e-05
6.35288924e-05
6.23335147e-05
6.18048392e-05
6.2706262e-05
6.35314124e-05
6.23341225e-05
6.18338187e-05
6.27238978e-05
6.35263739e-05
6.23401037e-05
6.1848017e-05
6.27728263e-05
6.35167685e-05
6.23479501e-05
6.17395741e-05
6.28973026e-05
6.34876937e-05
6.23473487e-05
6.13042181e-05
6.13160407e-05
6.28360712e-05
6.34635276e-05
6.23468509e-05
6.12519305e-05
6.12794707e-05
6.30743942e-05
6.35318353e-05
6.24685181e-05
6.18035092e-05
6.33285917e-05
6.3565944e-05
6.23183132e-05
6.17544494e-05
6.3365929e-05
6.35706816e-05
6.22103744e-05
6.17230351e-05
6.33964905e-05
6.35702996e-05
6.21127205e-05
6.16977128e-05
6.34343099e-05
6.35718993e-05
6.20173228e-05
6.16801634e-05
6.34739851e-05
6.35746802e-05
6.19292921e-05
6.16725078e-05
6.35122532e-05
6.3577496e-05
6.18551746e-05
6.16723224e-05
6.35449373e-05
6.35791344e-05
6.17975832e-05
6.17008547e-05
6.35655461e-05
6.35715789e-05
6.17886894e-05
6.17621487e-05
6.35849949e-05
6.35654605e-05
6.18115531e-05
6.17558722e-05