/*--------------------------------*- C++ -*----------------------------------*\
| =========                 |                                                 |
| \\      /  F ield         | OpenFOAM: The Open Source CFD Toolbox           |
|  \\    /   O peration     | Version:  2306                                  |
|   \\  /    A nd           | Website:  www.openfoam.com                      |
|    \\/     M anipulation  |                                                 |
\*---------------------------------------------------------------------------*/
FoamFile
{
    version     2.0;
    format      ascii;
    arch        "LSB;label=32;scalar=64";
    class       volScalarField;
    location    "4e-05";
    object      Z;
}
// * * * * * * * * * * * * * * * * * * * * * * * * * * * * * * * * * * * * * //

dimensions      [0 0 0 0 0 0 0];

internalField   nonuniform List<scalar> 
3810
(
0.0140838134
0.0140622184
0.0147952725
0.0147632681
0.0140762787
0.0140725726
0.0147836608
0.0147787344
0.0140735719
0.0140789594
0.0147884294
0.0147820442
0.0140736864
0.0140830604
0.0147956684
0.0147850197
0.0140749419
0.0140860656
0.0148067095
0.0147887864
0.0140774802
0.0140871399
0.0148259683
0.0147860634
0.0140798592
0.014082999
0.0148759577
0.0146918536
0.0140821903
0.0147736783
0.0146678565
0.014073986
0.0147416966
0.014748201
0.0140692407
0.0140810023
0.0147665187
0.0147574229
0.0140697773
0.0140798407
0.0147803809
0.0147456064
0.0140706129
0.014075057
0.0147998436
0.0146059558
0.0140739012
0.0147374016
0.0147665561
0.0147256583
0.0146145866
0.0140673637
0.0140715519
0.0147623018
0.0147351037
0.0140690522
0.0140770766
0.0147813324
0.0147400712
0.014071305
0.0140782795
0.0148079564
0.0145967067
0.0140791537
0.0147658306
0.0147761379
0.0147263639
0.0145523429
0.0140689758
0.0140872426
0.0147676301
0.0147366166
0.0140709709
0.0140993514
0.0147875234
0.0147482703
0.014072502
0.0141068433
0.0147956789
0.0147321193
0.0140751806
0.0141116612
0.0148256863
0.0145452611
0.0141177084
0.0147333089
0.0147155736
0.0140720693
0.0141251807
0.0148021831
0.0148093109
0.0147493319
0.0145958773
0.0140716516
0.0141295762
0.0147669525
0.0146993898
0.0140727165
0.0141390965
0.0147839249
0.0147186099
0.0140740753
0.0141442394
0.0147885767
0.0147219899
0.0140751824
0.0141462698
0.0147900464
0.0147232153
0.0140761611
0.0141466238
0.0147939462
0.0147249416
0.0140773286
0.0141461125
0.0148042923
0.0147185666
0.0140806769
0.0141412026
0.0148625222
0.014880378
0.0145691081
0.014089828
0.0141284781
0.0147978822
0.0146969802
0.0140807335
0.0141312929
0.0147949393
0.01470822
0.0140830011
0.0141258047
0.0148631985
0.0148773579
0.0145618741
0.0140942953
0.0141155259
0.0148676608
0.0148753735
0.0145551557
0.0140899939
0.0143321707
0.0147389793
0.0140914303
0.0141207453
0.0148473149
0.0147370132
0.0140866262
0.0141186226
0.01478441
0.0147380426
0.0140779783
0.0141147883
0.0147865453
0.0147503609
0.0140755936
0.0141096498
0.0148056838
0.0147550255
0.0140791889
0.0141004991
0.0148706642
0.014890496
0.0145770803
0.0140871226
0.014077918
0.0147949557
0.0147232176
0.0140789276
0.014074588
0.0148192106
0.0145434743
0.014080863
0.0147799279
0.0147964567
0.0147170095
0.0145692943
0.0140670235
0.0140659658
0.0147515324
0.0147499841
0.0140693959
0.0140696675
0.0147754996
0.0147662741
0.0140745766
0.0140627655
0.0148130742
0.0145602865
0.0140720335
0.0147244099
0.0147705761
0.0140768423
0.0140710382
0.0148045378
0.0148191839
0.0147577033
0.0145980635
0.0140722119
0.0140607664
0.0147562496
0.0147666256
0.0140764867
0.0140598487
0.0147814843
0.0146133343
0.0140729454
0.0145491358
0.0147974925
0.0144232506
0.0140759525
0.0143189125
0.0147943056
0.0147309652
0.0140749121
0.0140628491
0.0147785789
0.0147798932
0.0140745966
0.0140694332
0.0147796157
0.0147830528
0.0140746161
0.0140757919
0.0147892143
0.0147872336
0.0140763635
0.0140826022
0.0148079495
0.0147995627
0.0140773527
0.0140874006
0.0148129916
0.0148124461
0.0147713289
0.0146917902
0.0140731421
0.014089742
0.014748858
0.0147261165
0.0140727658
0.0141035583
0.014783116
0.0147492331
0.0140725144
0.0141014929
0.0148188935
0.0148652502
0.0146382777
0.0140794143
0.0140986211
0.0148140712
0.0148272844
0.0146201839
0.0140781757
0.0141300967
0.0147692476
0.0147009957
0.0140762186
0.0141433877
0.0147931384
0.0147372689
0.014078015
0.0141243103
0.0148664564
0.0148817686
0.0146030709
0.0140857746
0.0141364324
0.014768167
0.0147042433
0.0140750058
0.0141406016
0.0147826735
0.0147290928
0.0140753765
0.0141389296
0.0147936671
0.0147421139
0.0140757755
0.0141223062
0.0147990279
0.0146358957
0.0140841276
0.0144342924
0.0147988951
0.0143814108
0.0140871355
0.0146668972
0.0147943259
0.0141349123
0.0140829099
0.0147770594
0.0147933746
0.014087008
0.0140808015
0.0147919736
0.0147980382
0.0140871806
0.0140786769
0.0147908729
0.0148052983
0.0140932323
0.0140772615
0.014789392
0.0148141198
0.0140837529
0.0140745707
0.0147365521
0.0147910064
0.0144346881
0.0144705129
0.0147936907
0.0143435153
0.0140756117
0.0147342798
0.0147721755
0.0140988444
0.0140720837
0.0147433204
0.0147753367
0.0141040502
0.0140732283
0.0147496711
0.0147798424
0.0141089191
0.0140744886
0.0147528348
0.0147852077
0.0141135592
0.0140767136
0.0147674774
0.014803453
0.0141134822
0.0140861888
0.0147562316
0.0149140824
0.0147367253
0.0141004178
0.014074976
0.0147122651
0.0148826719
0.0146991581
0.014101917
0.0140644988
0.0147220565
0.01476792
0.0141156865
0.014074089
0.0147424078
0.0147826892
0.0141139421
0.0140773284
0.0147623568
0.0147624692
0.0141005103
0.014261689
0.0148592405
0.0144670762
0.0140987388
0.0146832668
0.014782677
0.0140926627
0.0141052685
0.0147725492
0.0147172268
0.0140861017
0.0142255766
0.0147972541
0.0145921807
0.0140854125
0.0144525512
0.0148123017
0.0148052998
0.0145414647
0.0140825433
0.0141077429
0.0147856339
0.0147777094
0.0140871187
0.0140811703
0.0148002703
0.0147481817
0.0140899288
0.0142552782
0.014892207
0.0144717723
0.0140870635
0.0147489998
0.0147978149
0.0140760138
0.0140957726
0.0148125643
0.0147762886
0.0140871114
0.0141033654
0.0149020822
0.0145613721
0.0141206201
0.0147439427
0.0147555693
0.0140754305
0.0141323043
0.0147877879
0.0147404805
0.0140781048
0.0141435056
0.0147976222
0.0147176157
0.0140809034
0.0141897416
0.0147998258
0.0146728865
0.0140849509
0.0142529891
0.0148023957
0.0146192068
0.0140903065
0.0143161363
0.0148097981
0.0145598239
0.0140989209
0.0143988485
0.014829502
0.0144374076
0.0143279162
0.0147361581
0.0145126715
0.0140936991
0.0144230102
0.0147780076
0.014453584
0.0140997193
0.0144667209
0.014784703
0.0144234942
0.014101806
0.0144883261
0.0147850041
0.0144078603
0.0141021514
0.0144966241
0.0147840478
0.0144029149
0.0141010599
0.0144940737
0.0147834014
0.0144083951
0.0140984977
0.0144792209
0.0147830226
0.0144270547
0.0140945879
0.0144475552
0.0147813885
0.0144583619
0.0140926243
0.0144017837
0.0148012436
0.0143837424
0.0141230465
0.0148131694
0.0148172127
0.0147203173
0.0145090668
0.0140749413
0.0141849341
0.0147733715
0.0146766419
0.0140777304
0.0141816665
0.0147932179
0.014724477
0.0140795758
0.0141290575
0.0148149396
0.0147537536
0.0140869704
0.0141058252
0.0148869353
0.0146128237
0.0140947192
0.0147540847
0.0147729468
0.014073492
0.014099094
0.0147875382
0.0147783314
0.0140743559
0.0140954611
0.0148012519
0.0147862973
0.0140756554
0.0140918675
0.0148069765
0.0147930577
0.0140780916
0.0140879889
0.0148160873
0.0147935038
0.0140789366
0.0140795253
0.0148684212
0.0146794597
0.0140827812
0.0147345524
0.0147961722
0.0140733131
0.0140841378
0.0147830343
0.0147818821
0.0140758438
0.0140883422
0.0147893753
0.0147786915
0.0140769016
0.0140925668
0.0147921169
0.0147753261
0.0140777206
0.0140993126
0.0147991937
0.014774786
0.0140761415
0.0140995109
0.0148179556
0.0148780289
0.0147117954
0.0140831957
0.0141078598
0.0147855543
0.0147438463
0.0140775934
0.0141216937
0.0147896905
0.0147421613
0.0140762598
0.0141140587
0.0148400967
0.0148756722
0.0146667201
0.0140844731
0.0141399423
0.0147817458
0.0147116353
0.0140786169
0.014150536
0.014779822
0.0147132379
0.0140788708
0.0141600531
0.0147874516
0.0147126627
0.0140809219
0.0141690161
0.0148009836
0.0147072262
0.0140869498
0.0141799901
0.0148646125
0.0145835079
0.0141604573
0.0147463317
0.0147143122
0.014080071
0.0141806714
0.0147955834
0.0147011604
0.0140893327
0.0141970108
0.0148788034
0.0145683223
0.014165754
0.0147499935
0.0147169161
0.0140783696
0.0141823179
0.0147908072
0.0147089616
0.0140801731
0.0141838495
0.0148020462
0.0147136472
0.0140806272
0.01417729
0.0148059719
0.0147204401
0.0140806677
0.0141710935
0.0148074557
0.0147241961
0.0140807607
0.0141708035
0.0148080348
0.0147246245
0.0140808249
0.0141712174
0.014807744
0.0147250909
0.0140807144
0.0141675098
0.0148066924
0.0147263356
0.0140807789
0.0141638234
0.0148067536
0.0147277806
0.0140823037
0.0141576087
0.0148160632
0.0147097227
0.0140919292
0.0142277276
0.0149000175
0.0145273553
0.014121697
0.0147377416
0.0147494751
0.0140771399
0.01413946
0.0147976491
0.0146826646
0.0140886232
0.0143045379
0.0148892875
0.0144945483
0.014133767
0.0147416323
0.0146977822
0.0140754155
0.0142855524
0.0148046768
0.0146119503
0.0140798395
0.0143236555
0.0148179143
0.0145991522
0.0140802155
0.0143068153
0.0148156668
0.0146277954
0.0140792885
0.0142486738
0.0148078933
0.0146984807
0.0140779876
0.0141294719
0.014800733
0.0147526732
0.0140787112
0.0140911539
0.0148068305
0.0147612956
0.0140858142
0.0140944218
0.0148903704
0.0146019901
0.0140874935
0.0147971466
0.0145901061
0.0140832806
0.014737246
0.0147477674
0.0140720519
0.0140918007
0.0147779923
0.0147589605
0.0140759217
0.0140949358
0.0148058636
0.0147658821
0.0140855011
0.0141214724
0.0148967962
0.014637393
0.0140910424
0.0147989165
0.0146315736
0.0140904037
0.0147356038
0.0147289312
0.0140813485
0.0142214981
0.0148640328
0.0145225852
0.0141006367
0.0147523675
0.0147497952
0.0140712584
0.0141173337
0.0147786311
0.0147433987
0.0140723713
0.0141319443
0.0147892927
0.0147343626
0.0140737552
0.0141418051
0.0147909
0.014726728
0.0140744793
0.0141490588
0.0147893288
0.0147194058
0.0140748972
0.0141534956
0.0147894183
0.014708369
0.0140749216
0.0141501498
0.0147916756
0.0145767853
0.0140994018
0.0145820628
0.0147947525
0.0147618293
0.0145419002
0.0140742742
0.0141506655
0.0147789149
0.0146799072
0.0140753951
0.0141513278
0.0147713318
0.014690478
0.0140749488
0.0141498581
0.0147689382
0.0146943309
0.0140757306
0.0141477313
0.0147807736
0.0146978603
0.0140813152
0.0141453679
0.0148684463
0.0148858137
0.0145434535
0.0140932662
0.0141307381
0.0148519123
0.0148595336
0.0147232372
0.014536724
0.014073464
0.0141238561
0.0147486876
0.0146723908
0.01407485
0.0141463734
0.0147668531
0.014608186
0.0140839764
0.014377515
0.0148172713
0.0147981747
0.014418427
0.0140840876
0.0142311693
0.0147692097
0.0145745952
0.0140817303
0.0142843341
0.0147733587
0.0145011255
0.0140896102
0.0144795473
0.0148436159
0.0147842837
0.0142948835
0.0140896753
0.0145050567
0.0148305911
0.014771867
0.0143699303
0.014078936
0.0143258277
0.0147717839
0.0145374313
0.0140777698
0.0142995774
0.0147681249
0.014553368
0.0140763751
0.0143003727
0.0147741328
0.014563095
0.0140769356
0.0142953174
0.0147901988
0.014523551
0.0140819736
0.014472952
0.0148229736
0.0147949794
0.0145290775
0.0140770429
0.0140891146
0.0147891605
0.0147351521
0.0140767553
0.0140947619
0.01479414
0.0147205807
0.0140793326
0.0142336313
0.0148384828
0.0148643875
0.0145794274
0.0140829734
0.0140768485
0.0147947365
0.0147432568
0.0140753577
0.0140834786
0.0147839195
0.014759784
0.0140736422
0.0140848478
0.0147938405
0.0147671098
0.0140749766
0.014086558
0.0148317087
0.0148849571
0.0146258049
0.0140819668
0.0140714211
0.0148140978
0.0148456213
0.0146331458
0.0140791036
0.0140637099
0.0147882013
0.0147535066
0.0140777569
0.0140610123
0.0148390202
0.0146239407
0.0140748812
0.0147113709
0.014794679
0.0140680393
0.0140724259
0.0147760875
0.0147944039
0.0140752988
0.0140723439
0.0147926389
0.0148014205
0.0140804511
0.0140731893
0.0147936367
0.0148030552
0.0140849632
0.0140738153
0.0147893282
0.0148018643
0.0140893251
0.0140746388
0.0147853084
0.0148017535
0.0140930142
0.0140773474
0.0147870395
0.0148179087
0.0140916731
0.0140858822
0.0147517843
0.0148996688
0.0147841803
0.0140981193
0.0140686041
0.0147612047
0.0147792589
0.0141069529
0.0140695397
0.0147511266
0.0147850264
0.0141102608
0.0140723971
0.0147496551
0.0147878775
0.0141135579
0.0140763733
0.0147499992
0.0148060011
0.014111279
0.0140855124
0.0146926175
0.0148808892
0.0148193418
0.0141094243
0.0140724585
0.0147183725
0.0147702081
0.0141291995
0.014071562
0.0147226334
0.0147804049
0.0141344345
0.0140751679
0.0147295494
0.0148021687
0.0141336376
0.014078956
0.0146727611
0.0148143439
0.0148360854
0.0148267079
0.0141372001
0.0140784616
0.0146871436
0.0147655481
0.0141354369
0.014073302
0.0147124689
0.0147771727
0.0141383288
0.0140739412
0.0147230583
0.0147836677
0.0141383689
0.0140749406
0.014732547
0.0147895906
0.0141359219
0.0140757864
0.0147485887
0.0147909966
0.0141301947
0.0140758931
0.014762973
0.0147552729
0.0141255953
0.0146127324
0.0148633972
0.0141134768
0.0140838334
0.0147643923
0.0147556589
0.0141146366
0.0146055529
0.0148761894
0.014101807
0.0140852625
0.0147563874
0.0148051581
0.0141009541
0.014076939
0.0147749761
0.014800075
0.0140939013
0.0140801671
0.0147835066
0.0147920589
0.0140893858
0.0140896354
0.0147866504
0.0147803936
0.0140860174
0.0141023714
0.0147875379
0.014766288
0.0140831542
0.0141168214
0.0147879818
0.0147508471
0.0140800733
0.0141291827
0.0147921989
0.0147481243
0.0140731203
0.0141214013
0.0147785554
0.0149032196
0.0147510784
0.0140879905
0.0141517905
0.0147698748
0.0147133723
0.0140794335
0.0141567819
0.0147741084
0.0147063738
0.0140788859
0.0141585235
0.0147768255
0.0147059717
0.0140780354
0.0141549424
0.0147809631
0.0146973895
0.0140807214
0.0141206711
0.0148507324
0.0148503938
0.014835828
0.0146900048
0.0140827802
0.014144979
0.0147755844
0.0147148041
0.0140777509
0.0141480814
0.0147835389
0.0147260481
0.0140771127
0.0141418829
0.0147930942
0.0147376838
0.0140774302
0.0141374079
0.0147991097
0.0147470913
0.0140775321
0.0141319148
0.0148032254
0.0147556292
0.0140772271
0.014124793
0.0148054854
0.014763145
0.0140766612
0.0141168571
0.014806022
0.0147691817
0.014076001
0.0141088692
0.0148049887
0.0147734315
0.0140753405
0.0141016184
0.0148025692
0.0147758292
0.0140746125
0.0140954343
0.0147989835
0.0147763599
0.0140736305
0.0140898617
0.0147948364
0.0147722962
0.0140734303
0.0140831678
0.01479402
0.0147491255
0.0140788721
0.0140853606
0.0148489368
0.0148876306
0.0147080669
0.0140863984
0.0140664639
0.014783822
0.0147612092
0.0140765145
0.0140717949
0.0147689333
0.0147482654
0.0140787932
0.014076866
0.014815874
0.0148241328
0.0148060503
0.0147196733
0.01407728
0.0140660946
0.0147600858
0.0147585229
0.0140721386
0.0140694032
0.0147538891
0.0147555739
0.0140744824
0.0140696348
0.0147621451
0.0147500579
0.0140739468
0.014077126
0.0148015678
0.0148560672
0.014724075
0.0140839781
0.0140622214
0.0147813912
0.0147558667
0.0140771899
0.014075885
0.0148006703
0.0148617951
0.0147395291
0.0140834468
0.0140632354
0.0147838863
0.0147729006
0.0140793453
0.0140649846
0.0147772686
0.0147680317
0.0140788985
0.0140613114
0.0148173224
0.0146768161
0.0140741226
0.0147153795
0.0148041227
0.0140725592
0.0140716903
0.0147683412
0.0147871497
0.0140758178
0.0140713478
0.0147778999
0.0147802383
0.0140765479
0.0140730791
0.0147792107
0.0147799245
0.0140754669
0.0140828082
0.0147922961
0.0148824749
0.0147579208
0.0140886218
0.0140646228
0.0148021544
0.0147805816
0.0140830738
0.0140625707
0.0148149508
0.0146957245
0.0140763388
0.0147119148
0.0148044717
0.014080447
0.0140666953
0.0148072895
0.0147128598
0.0140777269
0.0147036329
0.0148195934
0.0140793053
0.0140741172
0.0147721649
0.0148003154
0.0140840103
0.0140731851
0.01477915
0.0147896033
0.0140842977
0.0140717746
0.0147769016
0.0147863957
0.0140837204
0.0140707566
0.0147731855
0.014780632
0.0140828975
0.014072181
0.0147651388
0.0147723346
0.0140811991
0.0140806897
0.0147732127
0.01486907
0.01480521
0.0140868091
0.0140732251
0.014794873
0.0148006615
0.014077688
0.0140720848
0.0146049723
0.0147751725
0.0147765255
0.0147322752
0.0140766047
0.0140653345
0.0147712311
0.0147732598
0.0140837941
0.0140680998
0.0147709059
0.0147817185
0.0140846044
0.0140696393
0.0147745579
0.0147852485
0.0140826613
0.0140697655
0.014776031
0.0147843364
0.0140789742
0.0140682487
0.0147692347
0.0147783736
0.0140747555
0.0140664376
0.0147239684
0.0147206735
0.0147596688
0.0147526937
0.0140773558
0.0142130814
0.0148452733
0.0147800453
0.0140770624
0.0140848574
0.0147858967
0.0147553524
0.0140704333
0.0140914663
0.0147880138
0.0147497676
0.0140697151
0.0141003648
0.0147945592
0.0146265395
0.0140912722
0.0147321526
0.0147348689
0.0140682943
0.0141326561
0.0147843423
0.0147355867
0.0140732956
0.0141479017
0.0147975124
0.0147209804
0.0140783249
0.0141566156
0.0148275283
0.0146431137
0.014156206
0.0147630149
0.0147226591
0.014078123
0.0141791148
0.0147868115
0.0146998966
0.0140783479
0.0141946973
0.0147901108
0.0146786424
0.0140831177
0.0142008195
0.0148302194
0.0146028297
0.0141770467
0.014749252
0.0146935805
0.0140788152
0.0142028197
0.0147751103
0.0146704364
0.0140781929
0.0142101593
0.0147774063
0.0146639692
0.0140771562
0.0141968155
0.0147772439
0.0146776017
0.0140810784
0.014134503
0.0148643159
0.0148784297
0.0146421306
0.0140868681
0.01412321
0.0147832189
0.0147111525
0.0140825245
0.014115294
0.0148683615
0.0148817343
0.0146641498
0.0140865732
0.0141022908
0.014783239
0.0147441067
0.0140748257
0.0141046547
0.0147753471
0.0147483897
0.0140716552
0.0140984483
0.0147757154
0.0147521497
0.0140703
0.0140917611
0.0147754317
0.0147529398
0.0140703036
0.0140841234
0.014777057
0.0147408232
0.0140754987
0.0140843653
0.0148335674
0.014875413
0.0147026391
0.0140873436
0.0140730631
0.0148378289
0.0148776079
0.0147348025
0.0140829931
0.0140679919
0.0147856869
0.0147767425
0.0140751242
0.0140729749
0.0147746555
0.0147776873
0.0140752674
0.0140734403
0.0147760068
0.0147786199
0.0140759411
0.0140726586
0.0147754381
0.0147789654
0.0140767303
0.0140714998
0.0147730129
0.014776067
0.0140780458
0.0140704317
0.014769052
0.014767669
0.0140779449
0.0140740881
0.0148042262
0.0148178063
0.0148286196
0.014784116
0.0140806347
0.0140700633
0.0147732193
0.0147819515
0.014081397
0.0140699952
0.014764967
0.0147742681
0.0140804126
0.0140699372
0.0147653408
0.0147723283
0.0140795214
0.0140704302
0.0147594765
0.014771401
0.0140756659
0.014075166
0.0147100988
0.0148048231
0.0147492639
0.0140773015
0.0140736624
0.014731326
0.0148375963
0.01480388
0.014083143
0.0140717224
0.0147694026
0.0147911191
0.0140867235
0.0140713753
0.0147786149
0.014794477
0.0140884269
0.0140720913
0.0147814024
0.0147976027
0.0140892431
0.0140721893
0.0147821337
0.0147987186
0.0140888306
0.0140715407
0.0147766389
0.0147935882
0.0140854613
0.0140706364
0.0147518085
0.0147736902
0.0140760363
0.0140714048
0.0146235296
0.0147474635
0.0146953735
0.0147665814
0.0147553517
0.014082287
0.0140650487
0.0147140382
0.014761252
0.0140862258
0.0140662357
0.014757615
0.0147861227
0.01409033
0.0140690503
0.0147724396
0.0147890142
0.0140899059
0.0140714429
0.0147561629
0.0147522906
0.0140841768
0.0146170329
0.0148199478
0.0140863373
0.0140777273
0.0147637374
0.0147598101
0.0140912603
0.014635339
0.014857014
0.0140917776
0.0140819695
0.0147711484
0.0147666641
0.0140970213
0.0146216395
0.0148703037
0.0140971202
0.0140833861
0.0147527861
0.0148036398
0.0141052076
0.0140762788
0.0147584921
0.0147940992
0.0141082094
0.0140746954
0.014756211
0.014790039
0.0141092014
0.0140752012
0.0147518678
0.0147899764
0.0141075862
0.0140782748
0.0147435503
0.0148075006
0.014099626
0.0140886877
0.0146499772
0.0148972931
0.0148836107
0.0141095436
0.0140801346
0.0147298554
0.0147810666
0.0141097989
0.0140717214
0.0147465015
0.0147366101
0.0141110108
0.0146188186
0.014793282
0.0141061379
0.0146073331
0.0148565077
0.0141095572
0.0140812652
0.0147371017
0.0147920959
0.0141140559
0.0140735935
0.0147453127
0.0147847315
0.0141151648
0.0140719712
0.0147485716
0.0147748432
0.0141146792
0.0140716723
0.0147515948
0.0147414748
0.0141139561
0.0146052558
0.0148550706
0.0141115474
0.0140824988
0.0147319074
0.0147897274
0.0141156532
0.0140772005
0.0147366101
0.0147941813
0.0141085979
0.0140857156
0.0146705856
0.0148769653
0.0148630484
0.0141148655
0.0140783843
0.0147280862
0.0147839484
0.0141189348
0.0140734299
0.014734182
0.0147765194
0.0141178753
0.0140749516
0.0147331786
0.0147850343
0.0141096262
0.0140825492
0.0146852948
0.0148579166
0.0148459421
0.0141104535
0.0140756295
0.0147302671
0.0147737612
0.0141123681
0.0140708339
0.0147377647
0.0147420316
0.0141109008
0.0146637236
0.014806594
0.0141042964
0.0140744946
0.0147393529
0.0147490844
0.0141053143
0.0146842572
0.0148140736
0.0141028523
0.0140730987
0.0147416682
0.0147842285
0.0141027134
0.0140706785
0.0147521955
0.0147793328
0.0140986738
0.0140712534
0.0147573949
0.0147777812
0.0140941043
0.0140724772
0.0147646652
0.0147841033
0.0140893151
0.0140763334
0.0147746686
0.0148225208
0.014792032
0.0140830096
0.0140751882
0.0147921257
0.0148253459
0.0147817541
0.0140807213
0.0140728979
0.0147826546
0.0147814483
0.014075549
0.0140759066
0.0147757632
0.0147749579
0.014073128
0.014077481
0.0147799844
0.0147748074
0.0140713308
0.0140795904
0.0147876245
0.0147739702
0.0140733337
0.0140831789
0.0148250944
0.0148499046
0.0147563924
0.0140811763
0.0140752428
0.0147997637
0.0147822892
0.014075124
0.014080985
0.0147891166
0.0147797425
0.0140722
0.0140832312
0.0147874987
0.0147757482
0.0140706344
0.0140841422
0.0147850885
0.0147695148
0.0140703155
0.0140836716
0.0147822258
0.0147507662
0.0140730194
0.0140840382
0.0148176344
0.0148305619
0.0146941941
0.0140799636
0.0140777747
0.0148067892
0.0148171283
0.0146808112
0.0140772035
0.0140866833
0.0147690507
0.0147190724
0.0140768442
0.0140951955
0.0148141396
0.0146392431
0.0141071684
0.0147577712
0.0147591102
0.0140741458
0.0141166903
0.0147922987
0.0147651089
0.0140737815
0.014127516
0.0147956269
0.0147502777
0.0140736002
0.0141354722
0.0147914148
0.0147373148
0.0140742241
0.0141415059
0.0147910817
0.0147188189
0.0140795593
0.0141458687
0.0148672061
0.0148800142
0.0146508264
0.0140869595
0.0141517867
0.0148025129
0.0147054701
0.01407861
0.0141654756
0.0147829866
0.0146941125
0.0140743539
0.0141710631
0.0147711494
0.0146756483
0.0140706191
0.0141675446
0.0147446686
0.0146292944
0.0140721917
0.0141610227
0.0147802625
0.0147962394
0.0147292505
0.0147417838
0.0145179771
0.0140818013
0.0141698289
0.0147873629
0.0144855253
0.0141703758
0.0147227705
0.0146571861
0.0140762623
0.0142107747
0.0147737308
0.0146525859
0.0140799391
0.0142473636
0.0147932388
0.0146394912
0.0140824385
0.0142585448
0.0148001707
0.0146373787
0.014084427
0.0142583767
0.0148061946
0.0146381419
0.0140909658
0.0142516382
0.0148615213
0.0145511193
0.014209724
0.0147562908
0.0146892788
0.0140816317
0.0142382617
0.0147976729
0.0146664432
0.0140827988
0.0142454722
0.0148063071
0.0146696847
0.0140819917
0.0142227446
0.0148097503
0.0146946853
0.0140810664
0.0141920961
0.0148116303
0.0147230349
0.014080146
0.0141598412
0.0148128999
0.0147494424
0.0140792421
0.0141328807
0.0148139957
0.0147682026
0.0140784838
0.0141182873
0.0148145594
0.0147787829
0.0140778561
0.0141089519
0.014814075
0.014784882
0.0140772838
0.0141019764
0.0148126924
0.0147882578
0.0140767225
0.0140963178
0.0148107021
0.0147899259
0.0140761325
0.0140915934
0.0148084121
0.0147901568
0.0140756534
0.0140874523
0.0148055914
0.0147873104
0.014076301
0.0140826493
0.0148052446
0.0147747037
0.0140798244
0.0140742628
0.0148418216
0.0147044635
0.0140735202
0.0147732162
0.0147250999
0.0140724699
0.01476436
0.0147830141
0.0140741177
0.014073833
0.0147803832
0.0147842673
0.0140732602
0.0140748643
0.0147832641
0.014780228
0.0140737743
0.0140741975
0.0147890464
0.0147791442
0.0140759153
0.0140763783
0.0148120674
0.0148150502
0.0148078154
0.0147862126
0.0140776857
0.0140730685
0.014787173
0.0147907353
0.0140793882
0.014072916
0.0147848194
0.0147919339
0.0140807088
0.0140730488
0.014783947
0.0147926557
0.0140823524
0.0140729491
0.0147838338
0.0147934233
0.014084161
0.0140729573
0.0147826821
0.0147929886
0.014085863
0.0140734753
0.0147799517
0.0147924206
0.0140861205
0.0140760501
0.014774283
0.0148031808
0.0140813319
0.0140845507
0.0147259863
0.0148760405
0.0148482392
0.0140927673
0.0140765649
0.0147515708
0.0147977276
0.0140970537
0.0140730782
0.0147670356
0.0147968698
0.0141027038
0.0140736535
0.0147701658
0.0147978145
0.0141075258
0.014074709
0.0147753941
0.014796563
0.0141108114
0.0140766434
0.0147865797
0.014781115
0.014105701
0.0146381552
0.0148706115
0.0141121155
0.0140856579
0.0147532139
0.0148124692
0.0141241742
0.0140790905
0.014761689
0.0148126631
0.0141312794
0.0140789111
0.0147627627
0.0148155679
0.0141372909
0.0140796497
0.0147602213
0.014816753
0.0141429986
0.0140803182
0.0147557417
0.0148162484
0.0141484124
0.0140808404
0.0147476025
0.0148146242
0.0141579684
0.0140814109
0.0147299925
0.0148121729
0.0141841086
0.0140824951
0.0147056414
0.014809316
0.0142098631
0.0140836853
0.0146798167
0.0148063122
0.0142372678
0.0140849094
0.0146548796
0.0148025618
0.0142618567
0.0140861042
0.0146471181
0.0147944243
0.014260373
0.0140853185
0.0146549084
0.0147539064
0.0142463969
0.0145115456
0.014844224
0.0142845274
0.0140941496
0.0145978424
0.0147937894
0.014290412
0.0140881552
0.0145932541
0.0147867381
0.0142939294
0.014087409
0.0145912103
0.0147825799
0.0142887145
0.0140874664
0.014595827
0.0147816092
0.0142748328
0.0140888177
0.0146119029
0.0148009058
0.014243581
0.0140950498
0.0145291844
0.0148724614
0.0148660988
0.0142583709
0.0140998915
0.0145250945
0.014884239
0.0148701059
0.0141987967
0.0140859409
0.014687193
0.0147868747
0.0141487632
0.0140782668
0.0147240746
0.0147926544
0.0141396973
0.0140775193
0.0147398251
0.0147974601
0.0141312214
0.0140772964
0.0147526203
0.0148012724
0.0141209536
0.0140767666
0.0147645951
0.0148036523
0.0141099309
0.0140760519
0.014775213
0.0148044298
0.0140989936
0.0140753503
0.0147835488
0.014804135
0.0140892254
0.0140748974
0.0147896725
0.014799843
0.0140831183
0.0140771943
0.0147881132
0.0147910262
0.014078917
0.0140778772
0.0147809121
0.0147941131
0.0140716498
0.0140816368
0.0147111687
0.01486365
0.0148162323
0.0140740733
0.0140840295
0.0146774835
0.0148558697
0.0147934981
0.014082013
0.0140743834
0.0147588433
0.0147186974
0.0140763085
0.0146535669
0.0148312732
0.0140736478
0.014074886
0.0147822828
0.0148026442
0.0140821491
0.0140761195
0.0147898928
0.014803201
0.0140862131
0.0140748486
0.014788729
0.0148005018
0.0140884248
0.0140742057
0.0147862215
0.0147905464
0.0140893414
0.0140719542
0.0147886458
0.014747802
0.0140827022
0.0146846159
0.0148383262
0.0140882846
0.0140785476
0.0147752764
0.0148052689
0.0140956474
0.0140769243
0.0147869805
0.014808242
0.0140991916
0.0140764768
0.0147897249
0.0148107654
0.0141005725
0.0140764458
0.0147894512
0.0148092666
0.0141007719
0.014076531
0.0147886005
0.0148018378
0.0140995075
0.0140765863
0.014791586
0.0147843859
0.0140923652
0.0147076144
0.0148578668
0.0140967368
0.0140813367
0.0147721413
0.0148198165
0.0140996516
0.014078985
0.0147893474
0.0148154017
0.0141003709
0.0140777791
0.0147936251
0.014815752
0.0140996074
0.0140773665
0.0147964794
0.0148169485
0.0140982037
0.0140772932
0.0147987268
0.0148180171
0.0140964757
0.0140773017
0.0148004545
0.0148189543
0.0140945163
0.0140772234
0.0148015402
0.0148182434
0.0140922555
0.0140769451
0.014801332
0.0148161696
0.0140898256
0.0140765224
0.0148004509
0.01481282
0.0140873737
0.0140760164
0.0147985084
0.014809046
0.0140851476
0.0140754299
0.0147954309
0.0148039843
0.0140834048
0.0140746625
0.0147915353
0.0147983233
0.0140830231
0.0140741889
0.0147859103
0.0147915955
0.0140838111
0.0140740505
0.0147761079
0.0147823228
0.0140830648
0.0140773204
0.0147531781
0.0148183401
0.0148422015
0.0148353174
0.0140910357
0.0140776791
0.0147652997
0.0147938935
0.0140951406
0.0140740624
0.0147615529
0.0147848876
0.0141001744
0.0140737417
0.0147565517
0.0147827832
0.0141040435
0.0140737524
0.0147523689
0.0147813634
0.0141069332
0.0140739522
0.0147489842
0.0147799603
0.0141083886
0.0140745825
0.0147418107
0.0147850987
0.0141071308
0.0140798476
0.0147256345
0.0148653912
0.0147938575
0.0140972678
0.0140698683
0.0147523797
0.0147773768
0.0141021775
0.0140817957
0.0147419434
0.0148783925
0.0148006021
0.0141132387
0.0140729848
0.0148035687
0.014783904
0.0140893678
0.0140751239
0.0147673129
0.014778213
0.0140834008
0.0140776357
0.0147786622
0.0147800363
0.014076899
0.0140799685
0.0147852448
0.0147795031
0.0140730314
0.0140838122
0.0147875245
0.0147760376
0.0140706534
0.0140879462
0.0147866297
0.0147702536
0.0140676157
0.0140892741
0.0147686203
0.0147500764
0.0140639376
0.0140832158
0.0147369145
0.0147955276
0.0147249764
0.0147999097
0.0144451511
0.0140823688
0.0147347735
0.0147502391
0.0140656602
0.0140950588
0.0147661282
0.0147610905
0.014067561
0.0140971282
0.0147833726
0.014754166
0.0140706997
0.0140936288
0.0148062202
0.0147055099
0.0140814018
0.0147463313
0.0147969469
0.0140708855
0.0140967107
0.0147877709
0.0147836512
0.0140712345
0.0141001874
0.0147911242
0.0147755395
0.0140708978
0.0141017926
0.0147931499
0.0147717747
0.0140707003
0.0141037875
0.0147912461
0.0147668486
0.0140705391
0.0141042522
0.0147851127
0.0147667603
0.0140711805
0.0140960811
0.0147816781
0.0148337416
0.0147434605
0.0140753137
0.014102554
0.0147797051
0.0148528878
0.0147181666
0.0140820609
0.0141343628
0.0147856814
0.0147281113
0.0140769905
0.0141482103
0.0147829271
0.0147162014
0.0140762259
0.0141601967
0.0147894527
0.0147111408
0.014076777
0.014172361
0.0147921685
0.0147018286
0.0140773805
0.0141821568
0.0147903354
0.0146838952
0.0140807791
0.0141866795
0.0148199856
0.0145941431
0.0141610909
0.0147459285
0.0147039524
0.0140789616
0.0142161862
0.0147868078
0.014672495
0.0140804467
0.0142319174
0.0147915718
0.0146551401
0.0140810337
0.0142400544
0.0147902672
0.01464859
0.014080732
0.014240541
0.0147865382
0.0146642036
0.0140840835
0.0141429826
0.0148911587
0.0149059777
0.0146159942
0.0140957089
0.0142225391
0.0148137561
0.014671934
0.0140863652