/*--------------------------------*- C++ -*----------------------------------*\
| =========                 |                                                 |
| \\      /  F ield         | OpenFOAM: The Open Source CFD Toolbox           |
|  \\    /   O peration     | Version:  2306                                  |
|   \\  /    A nd           | Website:  www.openfoam.com                      |
|    \\/     M anipulation  |                                                 |
\*---------------------------------------------------------------------------*/
FoamFile
{
    version     2.0;
    format      ascii;
    arch        "LSB;label=32;scalar=64";
    class       volScalarField;
    location    "0.00188";
    object      H;
}
// * * * * * * * * * * * * * * * * * * * * * * * * * * * * * * * * * * * * * //

dimensions      [0 0 0 0 0 0 0];

internalField   nonuniform List<scalar> 
530
(
2.64848939e-05
2.59443241e-05
2.53721791e-05
2.48528939e-05
2.43064942e-05
2.38074984e-05
2.32852346e-05
2.28055607e-05
2.23059506e-05
2.18446659e-05
2.13663325e-05
2.0922537e-05
2.04641971e-05
2.00370196e-05
1.95974732e-05
1.91860695e-05
1.87665293e-05
1.84273407e-05
1.80781831e-05
1.77510453e-05
1.74151546e-05
1.70995552e-05
1.67762632e-05
1.64717095e-05
1.61603837e-05
1.58664026e-05
1.55664423e-05
1.52825792e-05
1.49934143e-05
1.47192306e-05
1.44403197e-05
1.41753909e-05
1.39062195e-05
1.36501331e-05
1.33902116e-05
1.31425665e-05
1.28914277e-05
1.26518328e-05
1.24090302e-05
1.21771034e-05
1.19422097e-05
1.17475187e-05
1.1563814e-05
1.1389335e-05
1.12112729e-05
1.10419006e-05
1.08692813e-05
1.07048535e-05
1.05374855e-05
1.03778432e-05
1.0215543e-05
1.00605297e-05
9.90312086e-06
9.75258317e-06
9.59989609e-06
9.4536837e-06
9.30555472e-06
9.16352036e-06
9.01979156e-06
8.88179083e-06
8.74230982e-06
8.60820076e-06
8.47282057e-06
8.34246338e-06
8.21104223e-06
8.08350786e-06
7.95257698e-06
7.82466977e-06
7.69798856e-06
7.5738705e-06
7.45127266e-06
7.33077976e-06
7.21210406e-06
7.09507778e-06
6.9801675e-06
6.86645429e-06
6.75515717e-06
6.64460781e-06
6.53677622e-06
6.42924512e-06
6.32473614e-06
6.22008092e-06
6.12833649e-06
6.05379608e-06
5.98175099e-06
5.90905416e-06
5.83901457e-06
5.7681023e-06
5.70001331e-06
5.630829e-06
5.56463689e-06
5.49712618e-06
5.43277864e-06
5.36688916e-06
5.30433538e-06
5.24001654e-06
5.17920713e-06
5.11641009e-06
5.057297e-06
4.99597471e-06
4.93851106e-06
4.87861823e-06
4.82275831e-06
4.76425134e-06
4.70995054e-06
4.65278746e-06
4.60000231e-06
4.54414269e-06
4.49283083e-06
4.43823564e-06
4.38835588e-06
4.33498744e-06
4.2864997e-06
4.23432155e-06
4.18718689e-06
4.13616378e-06
4.09034435e-06
4.0404421e-06
3.99590114e-06
3.94708665e-06
3.90378845e-06
3.85602963e-06
3.81393951e-06
3.76720521e-06
3.72628947e-06
3.68054948e-06
3.64077537e-06
3.59600038e-06
3.55733607e-06
3.51349761e-06
3.47591214e-06
3.43298259e-06
3.39644587e-06
3.35439838e-06
3.31888114e-06
3.27768961e-06
3.24316341e-06
3.20280241e-06
3.16923967e-06
3.12968439e-06
3.09705834e-06
3.05828456e-06
3.02656925e-06
2.98855329e-06
2.95772355e-06
2.92044232e-06
2.89047359e-06
2.85390474e-06
2.82477286e-06
2.78889502e-06
2.76057581e-06
2.7253691e-06
2.69783768e-06
2.66328447e-06
2.63651434e-06
2.60260018e-06
2.57656214e-06
2.54327651e-06
2.51793828e-06
2.48527312e-06
2.46060249e-06
2.42854458e-06
2.40452129e-06
2.37303372e-06
2.34967399e-06
2.31867402e-06
2.29604963e-06
2.26606866e-06
2.24298928e-06
2.21452404e-06
2.19109715e-06
2.16403225e-06
2.14031275e-06
2.1145732e-06
2.09058439e-06
2.06611466e-06
2.04186118e-06
2.01862122e-06
1.99407313e-06
1.9720632e-06
1.94778764e-06
1.92651526e-06
1.90287134e-06
1.89201521e-06
1.87974825e-06
1.86897386e-06
1.85690158e-06
1.8461928e-06
1.83432509e-06
1.82366422e-06
1.81200982e-06
1.80138665e-06
1.78994869e-06
1.77935934e-06
1.76813651e-06
1.75758086e-06
1.74656914e-06
1.73604905e-06
1.72524298e-06
1.71476127e-06
1.7041547e-06
1.69371453e-06
1.68330113e-06
1.67290569e-06
1.66267919e-06
1.65233147e-06
1.6422859e-06
1.63198861e-06
1.62211831e-06
1.61187387e-06
1.60217353e-06
1.59198404e-06
1.58244873e-06
1.57231599e-06
1.5629411e-06
1.55286665e-06
1.54364789e-06
1.53363305e-06
1.52456639e-06
1.51461225e-06
1.50569394e-06
1.49580141e-06
1.48702793e-06
1.47719777e-06
1.46856582e-06
1.45879862e-06
1.45030508e-06
1.44060136e-06
1.43224327e-06
1.42260347e-06
1.41437796e-06
1.4048025e-06
1.39670678e-06
1.38719613e-06
1.37922737e-06
1.36978219e-06
1.36193744e-06
1.3525587e-06
1.3448347e-06
1.33552391e-06
1.32791692e-06
1.31867631e-06
1.31118194e-06
1.30201459e-06
1.29462769e-06
1.28553767e-06
1.27825214e-06
1.26924467e-06
1.26205275e-06
1.25313032e-06
1.24602977e-06
1.23725659e-06
1.23024767e-06
1.22151897e-06
1.21455216e-06
1.2059507e-06
1.1990339e-06
1.19055429e-06
1.1836855e-06
1.17532749e-06
1.16850629e-06
1.16026886e-06
1.15349538e-06
1.14537714e-06
1.13865175e-06
1.13065107e-06
1.12397432e-06
1.11608937e-06
1.10946194e-06
1.1016908e-06
1.09511336e-06
1.08745409e-06
1.08092731e-06
1.07337796e-06
1.06690251e-06
1.05946115e-06
1.0530377e-06
1.0457024e-06
1.03933167e-06
1.03210052e-06
1.02578321e-06
1.01865433e-06
1.01239116e-06
1.00536271e-06
9.99154344e-07
9.92224567e-07
9.86071617e-07
9.79238846e-07
9.73141849e-07
9.66404521e-07
9.60363936e-07
9.53720592e-07
9.477368e-07
9.41186081e-07
9.352594e-07
9.28800027e-07
9.22930737e-07
9.16561486e-07
9.10749851e-07
9.04469528e-07
8.98715819e-07
8.92476282e-07
8.86581236e-07
8.80266005e-07
8.74427045e-07
8.68191187e-07
8.62408192e-07
8.56250561e-07
8.50523355e-07
8.44442876e-07
8.38771253e-07
8.32766893e-07
8.27150643e-07
8.21221393e-07
8.15660317e-07
8.09805178e-07
8.04299096e-07
7.98517075e-07
7.93065826e-07
7.87355937e-07
7.81959376e-07
7.76320638e-07
7.70978635e-07
7.65410073e-07
7.60122512e-07
7.54623158e-07
7.49389938e-07
7.43958821e-07
7.38779863e-07
7.33416009e-07
7.28291261e-07
7.22993683e-07
7.17923128e-07
7.12690821e-07
7.07674485e-07
7.02506423e-07
6.97544379e-07
6.9243952e-07
6.87531875e-07
6.82489179e-07
6.77636061e-07
6.7265451e-07
6.67856034e-07
6.62934668e-07
6.58190897e-07
6.5332885e-07
6.48620581e-07
6.43505135e-07
6.38570012e-07
6.33548131e-07
6.28694314e-07
6.23764058e-07
6.18990791e-07
6.14150202e-07
6.09456741e-07
6.04703901e-07
6.00089473e-07
5.9542254e-07
5.90886317e-07
5.86303546e-07
5.81844637e-07
5.77344381e-07
5.72961836e-07
5.68542536e-07
5.64235354e-07
5.59895528e-07
5.55662673e-07
5.51400899e-07
5.47241313e-07
5.43056214e-07
5.38968829e-07
5.34859063e-07
5.30842811e-07
5.26807064e-07
5.22860886e-07
5.18897865e-07
5.15020711e-07
5.11129145e-07
5.07319977e-07
5.03498618e-07
4.99756406e-07
4.96004038e-07
4.92327751e-07
4.88643199e-07
4.85031796e-07
4.8141394e-07
4.77866355e-07
4.74314149e-07
4.70829276e-07
4.67341768e-07
4.63918449e-07
4.60494795e-07
4.57131813e-07
4.53771287e-07
4.50467379e-07
4.47169365e-07
4.43923247e-07
4.40687204e-07
4.37497632e-07
4.34323029e-07
4.31188864e-07
4.28030081e-07
4.24649846e-07
4.21283109e-07
4.179487e-07
4.14624257e-07
4.11334838e-07
4.08052889e-07
4.04807626e-07
4.01568343e-07
3.98366475e-07
3.95169946e-07
3.92010827e-07
3.88857039e-07
3.8574014e-07
3.82628979e-07
3.7955387e-07
3.76485142e-07
3.73451466e-07
3.70424919e-07
3.67432365e-07
3.64447711e-07
3.61495995e-07
3.58552922e-07
3.5564177e-07
3.52739959e-07
3.49869097e-07
3.47008227e-07
3.44177377e-07
3.41357128e-07
3.38566003e-07
3.35786062e-07
3.33034366e-07
3.30294423e-07
3.27581855e-07
3.248816e-07
3.22207855e-07
3.19546975e-07
3.16911751e-07
3.14289926e-07
3.11692928e-07
3.0910982e-07
3.06550769e-07
3.04006019e-07
3.01484659e-07
2.98977878e-07
2.96493985e-07
2.94024746e-07
2.91578136e-07
2.8914597e-07
2.8673651e-07
2.84340897e-07
2.8196601e-07
2.79517212e-07
2.76922508e-07
2.7415923e-07
2.71238116e-07
2.68127441e-07
2.64850006e-07
2.61357707e-07
2.57599156e-07
2.53271248e-07
2.48747309e-07
2.43974507e-07
2.38982288e-07
2.33742296e-07
2.28267634e-07
2.22545287e-07
2.16582343e-07
2.10373233e-07
2.03926418e-07
1.97240142e-07
1.90327046e-07
1.83189715e-07
1.75845126e-07
1.68301614e-07
1.60581867e-07
1.52698124e-07
1.44685319e-07
1.36543788e-07
1.28308392e-07
1.20005163e-07
1.11681289e-07
1.03372915e-07
9.51263116e-08
8.69894669e-08
7.90143428e-08
7.12571858e-08
6.37736979e-08
5.66257964e-08
4.98667624e-08
4.3558596e-08
3.77421879e-08
3.24711113e-08
2.77623542e-08
2.36513125e-08
2.01223958e-08
1.71824098e-08
1.47778364e-08
1.28928374e-08
1.13630241e-08
1.03717139e-08
9.47546057e-09
9.02954911e-09
9.02835838e-09
9.02778445e-09
9.02759462e-09
9.02749137e-09
9.02745486e-09
9.02744289e-09
9.0274391e-09
9.02743808e-09
9.02743782e-09
9.02743776e-09
9.02743775e-09
9.02743775e-09
9.02743774e-09
9.02743774e-09
9.02743774e-09
9.02743774e-09
9.02743774e-09
9.02743774e-09
9.02743774e-09
9.02743774e-09
9.02743774e-09
9.02743774e-09
9.02743774e-09
9.02743774e-09
9.02743774e-09
9.02743774e-09
)
;

boundaryField
{
    closed
    {
        type            calculated;
        value           nonuniform List<scalar> 0();
    }
    open
    {
        type            calculated;
        value           uniform 9.02743774e-09;
    }
    sides
    {
        type            empty;
    }
    procBoundary5to4
    {
        type            processor;
        value           uniform 2.70845773e-05;
    }
}


// ************************************************************************* //
