/*--------------------------------*- C++ -*----------------------------------*\
| =========                 |                                                 |
| \\      /  F ield         | OpenFOAM: The Open Source CFD Toolbox           |
|  \\    /   O peration     | Version:  2306                                  |
|   \\  /    A nd           | Website:  www.openfoam.com                      |
|    \\/     M anipulation  |                                                 |
\*---------------------------------------------------------------------------*/
FoamFile
{
    version     2.0;
    format      ascii;
    arch        "LSB;label=32;scalar=64";
    class       volScalarField;
    location    "0.00188";
    object      prefDh_T;
}
// * * * * * * * * * * * * * * * * * * * * * * * * * * * * * * * * * * * * * //

dimensions      [1 1 -3 -1 0 0 0];

internalField   nonuniform List<scalar> 
530
(
0.00710713944
0.00713056899
0.00715591883
0.00717843135
0.00720264466
0.00722428141
0.00724742775
0.00726822894
0.0072903723
0.00731037665
0.00733157635
0.00735082122
0.00737113238
0.00738965392
0.00740912771
0.00742696113
0.00744556314
0.00746094474
0.00747713026
0.0074919614
0.00750752744
0.00752183156
0.00753680857
0.00755060776
0.00756502476
0.00757834
0.00759222453
0.00760507585
0.007618454
0.00763086067
0.00764375714
0.00765573775
0.00766817594
0.00767974846
0.00769175057
0.00770293243
0.00771451957
0.00772532763
0.00773651989
0.00774697054
0.0077577871
0.00776697903
0.0077761069
0.0077845831
0.00779342749
0.00780165375
0.00781022477
0.00781820855
0.00782651581
0.00783426449
0.00784231716
0.00784983799
0.00785764484
0.00786494495
0.00787251439
0.00787960076
0.00788694083
0.00789382031
0.00790093875
0.00790761805
0.00791452228
0.00792100797
0.00792770513
0.00793400368
0.00794050061
0.00794665638
0.00795312114
0.00795929238
0.00796554784
0.00797153555
0.00797758938
0.00798340083
0.00798926042
0.00799490264
0.00800057511
0.00800605493
0.00801154716
0.00801687117
0.0080221898
0.00802736445
0.00803251584
0.00803754744
0.00804225217
0.0080463328
0.00805039546
0.00805437236
0.00805832132
0.00806219761
0.00806603558
0.00806981418
0.00807354385
0.00807722756
0.00808085158
0.00808444306
0.00808796403
0.00809146584
0.00809488631
0.0080983009
0.00810162336
0.00810495309
0.00810817998
0.00811142709
0.0081145608
0.00811772748
0.00812077033
0.00812385867
0.00812681292
0.00812982495
0.00813269281
0.00813563047
0.00813841408
0.00814127927
0.00814398071
0.00814677526
0.00814939657
0.00815212225
0.00815466538
0.00815732393
0.0081597908
0.00816238389
0.00816477633
0.00816730559
0.00816962543
0.00817209244
0.00817434141
0.00817674771
0.00817892752
0.0081812746
0.0081833869
0.00818567622
0.00818772263
0.00818995559
0.00819193768
0.00819411565
0.00819603495
0.00819815928
0.00820001727
0.00820208924
0.00820388737
0.00820590827
0.00820764794
0.00820961901
0.00821130157
0.00821322404
0.00821485079
0.00821672587
0.00821829808
0.00822012693
0.00822164586
0.0082234296
0.00822489651
0.00822663616
0.00822805236
0.00822974882
0.00823111573
0.00823276972
0.0082340889
0.00823570093
0.00823697408
0.00823854459
0.00823977334
0.00824130317
0.00824248832
0.00824397961
0.00824512013
0.00824657664
0.00824766995
0.00824907158
0.00825016387
0.00825149114
0.00825257919
0.00825383631
0.00825491849
0.008256108
0.00825718455
0.00825830771
0.0082593801
0.00826043718
0.0082615079
0.00826249767
0.00826354868
0.00826448998
0.00826550831
0.0082661159
0.00826678531
0.00826737112
0.00826802478
0.00826859001
0.0082692272
0.0082697734
0.00827039334
0.00827092168
0.00827152382
0.00827203513
0.00827261915
0.00827311404
0.00827367979
0.00827415869
0.00827470615
0.00827516943
0.00827569866
0.00827614659
0.00827665772
0.00827709054
0.00827758375
0.00827800168
0.00827847714
0.00827888039
0.00827933829
0.00827972706
0.00828016759
0.00828054208
0.00828096543
0.00828132587
0.00828173221
0.00828207879
0.0082824683
0.00828280124
0.0082831741
0.0082834936
0.00828384998
0.00828415625
0.00828449633
0.00828478957
0.00828511353
0.00828539392
0.00828570196
0.00828596967
0.00828626199
0.00828651719
0.00828679399
0.00828703684
0.00828729833
0.00828752899
0.00828777536
0.00828799397
0.00828822544
0.00828843215
0.00828864892
0.00828884388
0.00828904613
0.00828922952
0.00828941742
0.00828958943
0.00828976315
0.00828992397
0.00829008368
0.00829023349
0.00829037938
0.00829051836
0.00829065052
0.00829077857
0.00829089782
0.00829101433
0.00829112163
0.00829122652
0.0082913218
0.00829141534
0.00829149877
0.00829158112
0.00829165289
0.00829172422
0.00829178448
0.00829184498
0.00829189389
0.00829194372
0.00829198147
0.00829202079
0.00829204755
0.00829207651
0.00829209243
0.0082921112
0.00829211646
0.00829212517
0.00829211996
0.00829211875
0.00829210325
0.00829209224
0.00829206666
0.00829204598
0.00829201052
0.00829198029
0.00829193513
0.00829189549
0.00829184082
0.0082917919
0.0082917279
0.00829166983
0.00829159669
0.00829152961
0.0082914475
0.00829137153
0.00829128064
0.00829119591
0.00829109642
0.00829100305
0.00829089514
0.00829079326
0.0082906771
0.00829056684
0.0082904426
0.00829030735
0.00829010412
0.00828990451
0.0082896927
0.00828948482
0.00828926465
0.00828904864
0.00828882034
0.00828859636
0.00828836014
0.00828812834
0.00828788441
0.00828764495
0.00828739351
0.00828714655
0.00828688781
0.00828663352
0.00828636767
0.00828610621
0.00828583344
0.00828556498
0.00828528548
0.00828501019
0.00828472415
0.0082844422
0.0082841498
0.00828386137
0.00828356278
0.00828326805
0.00828296345
0.00828266259
0.00828235213
0.00828204534
0.0082817292
0.00828141666
0.00828109497
0.00828077688
0.0082804498
0.00828012635
0.00827979403
0.00827946541
0.00827912798
0.00827879438
0.008278452
0.00827811361
0.00827776718
0.00827743645
0.0082770964
0.00827675918
0.00827641331
0.00827606986
0.00827571836
0.00827536894
0.00827501199
0.00827465686
0.00827429465
0.00827393405
0.00827356677
0.00827320095
0.00827282879
0.00827245796
0.00827208112
0.00827170552
0.00827132419
0.00827094403
0.00827055841
0.00827017391
0.00826978419
0.00826939554
0.00826900193
0.00826860934
0.00826821203
0.0082678157
0.00826741487
0.008267015
0.00826661084
0.00826620762
0.00826580032
0.00826539394
0.00826498369
0.00826457434
0.0082641613
0.00826374917
0.00826333354
0.0082629188
0.00826250075
0.00826208357
0.00826166328
0.00826124383
0.00826082149
0.00826039992
0.00825997572
0.00825955216
0.00825912629
0.00825870088
0.00825827352
0.00825784638
0.00825741774
0.00825698899
0.00825655923
0.00825611633
0.00825560213
0.00825508811
0.00825457383
0.00825406012
0.00825354595
0.00825303266
0.00825251878
0.008252006
0.0082514926
0.00825098044
0.00825046769
0.00824995626
0.00824944431
0.00824893373
0.00824842272
0.00824791311
0.00824740318
0.00824689467
0.00824638595
0.00824587866
0.00824537128
0.00824486534
0.00824435942
0.00824385495
0.00824335062
0.00824284774
0.00824234511
0.00824184395
0.00824134313
0.0082408438
0.00824034492
0.00823984753
0.0082393507
0.00823885537
0.00823836069
0.00823786752
0.00823737511
0.00823688422
0.00823639418
0.00823590567
0.00823541811
0.00823493208
0.00823444708
0.00823396365
0.00823348132
0.00823300058
0.008232521
0.00823204307
0.00823156632
0.0082310913
0.00823061695
0.00823012712
0.00822960375
0.00822904581
0.00822844983
0.00822781528
0.00822713754
0.00822641723
0.00822565153
0.00822485168
0.00822399785
0.00822309094
0.0082221257
0.00822110121
0.00822001379
0.00821886168
0.00821764217
0.00821635364
0.00821499412
0.00821356278
0.00821205867
0.00821048227
0.00820883422
0.00820711683
0.00820533295
0.00820348766
0.00820158623
0.00819956211
0.0081972478
0.00819490654
0.00819255354
0.00819020746
0.00818788865
0.00818561953
0.00818342386
0.00818132611
0.00817935077
0.00817752081
0.00817585716
0.00817437617
0.00817308988
0.0081720027
0.00817111343
0.00817041171
0.00816988234
0.00816950226
0.00816924683
0.0081690874
0.00816899904
0.00816895966
0.00816895301
0.0081689485
0.00816892708
0.00816891635
0.00816891251
0.00816891028
0.00816890943
0.00816890912
0.00816890901
0.00816890898
0.00816890897
0.00816890897
0.00816890897
0.00816890897
0.00816890897
0.00816890897
0.00816890897
0.00816890897
0.00816890897
0.00816890897
0.00816890897
0.00816890897
0.00816890897
0.00816890897
0.00816890897
0.00816890897
0.00816890897
0.00816890897
)
;

boundaryField
{
    closed
    {
        type            calculated;
        value           nonuniform List<scalar> 0();
    }
    open
    {
        type            calculated;
        value           uniform 0.00816890897;
    }
    sides
    {
        type            empty;
    }
    procBoundary5to4
    {
        type            processor;
        value           uniform 0.00708057487;
    }
}


// ************************************************************************* //
