/*--------------------------------*- C++ -*----------------------------------*\
| =========                 |                                                 |
| \\      /  F ield         | OpenFOAM: The Open Source CFD Toolbox           |
|  \\    /   O peration     | Version:  2306                                  |
|   \\  /    A nd           | Website:  www.openfoam.com                      |
|    \\/     M anipulation  |                                                 |
\*---------------------------------------------------------------------------*/
FoamFile
{
    version     2.0;
    format      ascii;
    arch        "LSB;label=32;scalar=64";
    class       volScalarField;
    location    "0.00188";
    object      Z;
}
// * * * * * * * * * * * * * * * * * * * * * * * * * * * * * * * * * * * * * //

dimensions      [0 0 0 0 0 0 0];

internalField   nonuniform List<scalar> 
530
(
0.0157082236
0.0157129353
0.0157184689
0.0157231363
0.0157285453
0.0157331706
0.0157384621
0.0157430475
0.015748228
0.0157527754
0.0157578514
0.0157623627
0.0157673405
0.0157718172
0.0157767029
0.0157811466
0.0157859402
0.0157901786
0.0157947178
0.0157989242
0.0158033843
0.0158075584
0.0158119432
0.0158160849
0.0158203977
0.0158245073
0.0158287511
0.0158328288
0.0158370066
0.0158410525
0.015845167
0.0158491813
0.0158532352
0.0158572183
0.015861214
0.015865166
0.015869106
0.0158730272
0.0158769138
0.0158808046
0.0158846399
0.0158883935
0.0158920199
0.0158956873
0.0158992665
0.0159029005
0.0159064331
0.0159100329
0.0159135193
0.0159170841
0.0159205248
0.0159240537
0.015927449
0.0159309412
0.0159342915
0.0159377461
0.0159410518
0.0159444681
0.0159477293
0.0159511064
0.0159543234
0.0159576607
0.0159608336
0.0159641303
0.0159672593
0.0159705241
0.0159736501
0.0159769204
0.0159800007
0.015983225
0.0159862599
0.0159894377
0.0159924274
0.0159955583
0.0159985029
0.0160015866
0.0160044862
0.0160075224
0.0160103772
0.0160133654
0.0160161757
0.0160191157
0.0160218371
0.0160245995
0.0160271899
0.0160299016
0.0160324426
0.0160351025
0.0160375934
0.0160402005
0.0160426408
0.016045194
0.0160475831
0.0160500816
0.0160524187
0.0160548615
0.0160571459
0.0160595321
0.016061763
0.0160640918
0.0160662684
0.0160685391
0.0160706606
0.0160728723
0.0160749378
0.0160770897
0.0160790984
0.0160811898
0.0160831409
0.016085171
0.0160870636
0.0160890317
0.016090865
0.0160927703
0.0160945436
0.0160963853
0.0160980977
0.0160998752
0.0161015258
0.0161032384
0.0161048266
0.0161064734
0.0161079984
0.0161095789
0.0161110398
0.0161125533
0.0161139495
0.0161153953
0.016116726
0.0161181034
0.0161193679
0.0161206764
0.0161218739
0.0161231129
0.0161242428
0.0161254115
0.0161264732
0.0161275712
0.016128564
0.0161295907
0.0161305139
0.0161314687
0.0161323218
0.0161332042
0.0161339866
0.0161347961
0.0161355072
0.0161362434
0.0161368827
0.016137545
0.0161381119
0.0161387
0.0161391941
0.0161397075
0.0161401283
0.0161405667
0.0161409137
0.0161412768
0.0161415495
0.016141837
0.0161420351
0.0161422466
0.0161423697
0.0161425049
0.016142553
0.016142612
0.0161425837
0.0161425625
0.0161424661
0.0161423612
0.0161421949
0.0161420071
0.0161417704
0.0161414999
0.0161411927
0.0161408394
0.0161404613
0.0161400254
0.0161395747
0.0161390582
0.0161385526
0.0161379389
0.0161373761
0.016136559
0.0161358714
0.0161349336
0.0161342068
0.0161331499
0.0161323817
0.0161312077
0.0161303954
0.016129107
0.0161282475
0.0161268476
0.0161259381
0.0161244296
0.0161234671
0.0161218527
0.0161208346
0.0161191169
0.0161180407
0.016116222
0.0161150856
0.0161131682
0.0161119696
0.0161099555
0.0161086929
0.016106584
0.0161052559
0.0161030538
0.0161016588
0.0160993653
0.016097902
0.0160955187
0.016093986
0.0160915143
0.0160899113
0.0160873525
0.0160856783
0.0160830338
0.0160812876
0.0160785586
0.0160767398
0.0160739274
0.0160720356
0.0160691409
0.0160671757
0.0160641996
0.0160621609
0.0160591042
0.0160569919
0.0160538554
0.0160516696
0.0160484539
0.0160461948
0.0160429007
0.0160405683
0.0160371967
0.0160347911
0.0160313429
0.0160288639
0.0160253406
0.0160227874
0.0160191917
0.0160165626
0.016012898
0.0160101903
0.0160064618
0.0160036717
0.0159998839
0.0159970083
0.0159932076
0.0159902547
0.0159863577
0.0159833006
0.0159793652
0.0159762093
0.015972233
0.0159689801
0.015964963
0.0159616155
0.0159575571
0.0159541173
0.0159500173
0.0159464877
0.0159423454
0.0159387284
0.0159345432
0.0159308411
0.0159266125
0.0159228277
0.0159185553
0.01591469
0.0159103733
0.01590643
0.0159020686
0.0158980496
0.0158936432
0.0158895507
0.0158850993
0.0158809355
0.0158764389
0.0158722059
0.0158676643
0.0158633642
0.0158587778
0.0158544124
0.0158497814
0.0158453529
0.0158406776
0.0158361877
0.0158314686
0.0158269191
0.0158221569
0.0158175496
0.0158127446
0.0158080813
0.0158032344
0.0157985168
0.0157936285
0.0157888583
0.0157839299
0.0157791102
0.0157741432
0.0157692743
0.0157642684
0.0157593521
0.0157543082
0.0157493459
0.0157442651
0.0157392585
0.0157341416
0.0157290923
0.0157239405
0.01571885
0.0157136642
0.0157085343
0.0157033155
0.0156981476
0.0156928971
0.0156876928
0.0156824117
0.0156771725
0.0156718619
0.0156665894
0.0156612505
0.0156559462
0.0156505802
0.0156452457
0.0156398539
0.0156344906
0.0156290742
0.0156236837
0.0156182439
0.0156128278
0.0156073659
0.0156019257
0.0155964429
0.01559098
0.0155854777
0.0155799937
0.0155744732
0.0155689696
0.0155634322
0.0155579104
0.0155523574
0.0155468192
0.0155412562
0.0155357065
0.0155301302
0.0155245663
0.0155189781
0.0155134015
0.0155078027
0.0155022149
0.0154966069
0.0154910093
0.0154853934
0.0154797875
0.0154741651
0.0154685522
0.0154629247
0.0154573064
0.015451675
0.0154460527
0.0154404188
0.0154347939
0.0154291589
0.0154235328
0.015417898
0.0154122721
0.0154066388
0.0154010145
0.0153953841
0.0153897627
0.0153841366
0.0153785195
0.0153728988
0.0153672874
0.0153616736
0.0153560692
0.0153504634
0.0153448674
0.015339271
0.0153336846
0.0153280989
0.0153225234
0.0153169496
0.0153113863
0.0153058257
0.0153002759
0.0152947297
0.0152891946
0.015283664
0.0152781448
0.0152726311
0.0152671291
0.0152616333
0.0152561497
0.0152506732
0.015245209
0.0152397534
0.0152343131
0.0152288817
0.0152234636
0.0152180548
0.0152126598
0.0152072749
0.0152019041
0.0151965441
0.0151911986
0.0151858645
0.0151805453
0.0151752381
0.0151699464
0.0151646671
0.0151594037
0.0151541535
0.0151489194
0.015143699
0.0151384952
0.0151333058
0.0151281332
0.0151229755
0.0151178352
0.0151127102
0.0151076028
0.0151025114
0.015097438
0.0150923809
0.0150873423
0.0150823205
0.0150773174
0.0150723317
0.015067365
0.0150624162
0.0150574866
0.0150525753
0.0150476837
0.0150428108
0.0150379578
0.0150331239
0.0150283102
0.015023516
0.0150187424
0.0150139886
0.0150092556
0.0150045428
0.0149998512
0.01499518
0.0149905303
0.0149859014
0.0149812893
0.0149765298
0.0149714575
0.0149660532
0.0149602988
0.0149541737
0.0149476591
0.0149407326
0.0149333767
0.014925571
0.0149172922
0.0149085177
0.0148992285
0.014889404
0.014879027
0.0148680801
0.0148565501
0.0148444252
0.0148316987
0.0148183673
0.0148044345
0.0147899094
0.01477481
0.0147591622
0.0147430037
0.0147263824
0.0147093605
0.0146920132
0.0146744316
0.0146567217
0.0146390058
0.0146214203
0.0146041156
0.0145872524
0.0145709991
0.0145555256
0.0145409975
0.0145275686
0.0145153711
0.0145045085
0.0144950444
0.0144870005
0.0144803468
0.0144750109
0.0144708723
0.0144677835
0.0144655684
0.0144640548
0.0144630383
0.0144624723
0.014462099
0.0144619026
0.0144617943
0.0144617412
0.0144617229
0.0144617126
0.0144617088
0.0144617075
0.0144617071
0.0144617069
0.0144617069
0.0144617069
0.0144617069
0.0144617069
0.0144617069
0.0144617069
0.0144617069
0.0144617069
0.0144617069
0.0144617069
0.0144617069
0.0144617069
0.0144617069
0.0144617069
0.0144617069
0.0144617069
0.0144617069
0.0144617069
)
;

boundaryField
{
    closed
    {
        type            zeroGradient;
    }
    open
    {
        type            zeroGradient;
    }
    sides
    {
        type            empty;
    }
    procBoundary5to4
    {
        type            processor;
        value           uniform 0.0157025589;
    }
}


// ************************************************************************* //
