/*--------------------------------*- C++ -*----------------------------------*\
| =========                 |                                                 |
| \\      /  F ield         | OpenFOAM: The Open Source CFD Toolbox           |
|  \\    /   O peration     | Version:  2306                                  |
|   \\  /    A nd           | Website:  www.openfoam.com                      |
|    \\/     M anipulation  |                                                 |
\*---------------------------------------------------------------------------*/
FoamFile
{
    version     2.0;
    format      ascii;
    arch        "LSB;label=32;scalar=64";
    class       volScalarField;
    location    "0.00052";
    object      prefDZ_H2;
}
// * * * * * * * * * * * * * * * * * * * * * * * * * * * * * * * * * * * * * //

dimensions      [1 -1 -1 0 0 0 0];

internalField   nonuniform List<scalar> 
530
(
6.30194409e-05
6.24417328e-05
6.23316569e-05
6.23305586e-05
6.23304618e-05
6.23304598e-05
6.23304598e-05
6.23304597e-05
6.23304597e-05
6.23304597e-05
6.23304597e-05
6.23304597e-05
6.23304597e-05
6.23304597e-05
6.23304597e-05
6.23304597e-05
6.23304597e-05
6.23304597e-05
6.23304597e-05
6.23304597e-05
6.23304597e-05
6.23304597e-05
6.23304597e-05
6.23304597e-05
6.23304597e-05
6.23304597e-05
6.23304597e-05
6.23304597e-05
6.23304597e-05
6.23304597e-05
6.23304597e-05
6.23304597e-05
6.23304597e-05
6.23304597e-05
6.23304597e-05
6.23304597e-05
6.23304597e-05
6.23304597e-05
6.23304597e-05
6.23304597e-05
6.23304597e-05
6.23304597e-05
6.23304597e-05
6.23304597e-05
6.23304597e-05
6.23304597e-05
6.23304597e-05
6.23304597e-05
6.23304597e-05
6.23304597e-05
6.23304597e-05
6.23304597e-05
6.23304597e-05
6.23304597e-05
6.23304597e-05
6.23304597e-05
6.23304597e-05
6.23304597e-05
6.23304597e-05
6.23304597e-05
6.23304597e-05
6.23304597e-05
6.23304597e-05
6.23304597e-05
6.23304597e-05
6.23304597e-05
6.23304597e-05
6.23304597e-05
6.23304597e-05
6.23304597e-05
6.23304597e-05
6.23304597e-05
6.23304598e-05
6.23304598e-05
6.23304599e-05
6.233046e-05
6.23304607e-05
6.23304611e-05
6.23304654e-05
6.23304679e-05
6.23304851e-05
6.23305176e-05
6.23305439e-05
6.23306767e-05
6.23307778e-05
6.23312627e-05
6.23315852e-05
6.23310906e-05
6.23310355e-05
6.23359072e-05
6.23518872e-05
6.23447951e-05
6.22998287e-05
6.23013304e-05
6.24899881e-05
6.25225791e-05
6.22761513e-05
6.21327169e-05
6.22881434e-05
6.33195654e-05
6.36286074e-05
6.23842082e-05
6.20553054e-05
6.14099419e-05
6.13063773e-05
6.26889239e-05
6.350644e-05
6.35500302e-05
6.35725157e-05
6.23770056e-05
6.16390592e-05
6.14603867e-05
6.27420334e-05
6.35014441e-05
6.24102326e-05
6.17952974e-05
6.15605768e-05
6.27205252e-05
6.35391807e-05
6.2340023e-05
6.21879119e-05
6.26247703e-05
6.34978836e-05
6.2428608e-05
6.18011878e-05
6.1572475e-05
6.25825023e-05
6.35259227e-05
6.23446455e-05
6.21586715e-05
6.2548733e-05
6.34858659e-05
6.24565765e-05
6.18260365e-05
6.15744917e-05
6.25012464e-05
6.35079287e-05
6.23612202e-05
6.21641903e-05
6.24874297e-05
6.34714191e-05
6.24812525e-05
6.18224345e-05
6.15032671e-05
6.24277934e-05
6.34917741e-05
6.23742565e-05
6.20693428e-05
6.2399653e-05
6.34953257e-05
6.23901396e-05
6.21751489e-05
6.24223845e-05
6.34586854e-05
6.25303966e-05
6.19021807e-05
6.15557595e-05
6.23932678e-05
6.34928187e-05
6.24285175e-05
6.22654427e-05
6.24159076e-05
6.34918523e-05
6.25762444e-05
6.23214192e-05
6.18359625e-05
6.1698547e-05
6.23591089e-05
6.34259362e-05
6.2627599e-05
6.20375707e-05
6.16089824e-05
6.2375705e-05
6.34747957e-05
6.24560784e-05
6.21834943e-05
6.23468242e-05
6.34824842e-05
6.24542629e-05
6.22139083e-05
6.23572172e-05
6.34460691e-05
6.26158934e-05
6.19514506e-05
6.15441836e-05
6.23296051e-05
6.34686557e-05
6.24454954e-05
6.21136456e-05
6.23270314e-05
6.34437584e-05
6.26385221e-05
6.19467403e-05
6.14935428e-05
6.23135608e-05
6.34550079e-05
6.24474286e-05
6.19646072e-05
6.22785486e-05
6.34528622e-05
6.24514101e-05
6.19377021e-05
6.22726525e-05
6.34478912e-05
6.24469524e-05
6.18945273e-05
6.22645168e-05
6.34367233e-05
6.24399452e-05
6.18964529e-05
6.2313456e-05
6.34282063e-05
6.23163646e-05
6.17953363e-05
6.23201566e-05
6.34440872e-05
6.24056624e-05
6.14935773e-05
6.22063988e-05
6.34274789e-05
6.24797268e-05
6.18293996e-05
6.2253808e-05
6.34704703e-05
6.24852473e-05
6.20104718e-05
6.2294009e-05
6.34848797e-05
6.29688746e-05
6.21073138e-05
6.14102594e-05
6.22414344e-05
6.34674458e-05
6.25017488e-05
6.19257053e-05
6.22756631e-05
6.35175404e-05
6.24799683e-05
6.20028479e-05
6.22947886e-05
6.35180931e-05
6.30610045e-05
6.21105356e-05
6.14139173e-05
6.22419975e-05
6.35033258e-05
6.24973707e-05
6.2001774e-05
6.22960313e-05
6.35419775e-05
6.31927528e-05
6.2189223e-05
6.14570149e-05
6.22593515e-05
6.35314605e-05
6.25080346e-05
6.21214742e-05
6.23194182e-05
6.35756882e-05
6.33619806e-05
6.23056398e-05
6.17422507e-05
6.16433197e-05
6.22756718e-05
6.35419675e-05
6.35474014e-05
6.23034478e-05
6.16331927e-05
6.22870967e-05
6.35470301e-05
6.25944591e-05
6.23296551e-05
6.23240111e-05
6.35863972e-05
6.35974626e-05
6.22859141e-05
6.21188207e-05
6.18808477e-05
6.15657541e-05
6.22508789e-05
6.355721e-05
6.36156925e-05
6.22818737e-05
6.18026541e-05
6.22723076e-05
6.35579859e-05
6.35757465e-05
6.22933626e-05
6.162069e-05
6.22737433e-05
6.35529854e-05
6.35428138e-05
6.23059588e-05
6.15129282e-05
6.22738477e-05
6.35527714e-05
6.35379831e-05
6.22601332e-05
6.14137216e-05
6.22555358e-05
6.35425654e-05
6.28779127e-05
6.21368058e-05
6.23030123e-05
6.361299e-05
6.34986693e-05
6.22413656e-05
6.13754088e-05
6.22835442e-05
6.35093926e-05
6.31938113e-05
6.20470235e-05
6.23053302e-05
6.34397505e-05
6.36442723e-05
6.3070458e-05
6.22831034e-05
6.18450231e-05
6.19066369e-05
6.15335718e-05
6.23582192e-05
6.35358373e-05
6.33330276e-05
6.21509791e-05
6.23952731e-05
6.35740888e-05
6.32885925e-05
6.22069347e-05
6.23841693e-05
6.35988345e-05
6.35418487e-05
6.22690081e-05
6.12924489e-05
6.22898918e-05
6.35017627e-05
6.34818186e-05
6.19779245e-05
6.21661452e-05
6.35533192e-05
6.34706326e-05
6.20855556e-05
6.2294101e-05
6.35797738e-05
6.35683193e-05
6.22587512e-05
6.13885899e-05
6.23080456e-05
6.35252054e-05
6.35623625e-05
6.23065954e-05
6.14619108e-05
6.22961122e-05
6.35011911e-05
6.35338403e-05
6.20988436e-05
6.21297144e-05
6.35722313e-05
6.35575925e-05
6.22955671e-05
6.14027494e-05
6.23202022e-05
6.35224187e-05
6.35859753e-05
6.23049737e-05
6.1575003e-05
6.23081968e-05
6.34727139e-05
6.35410278e-05
6.18230639e-05
6.16703229e-05
6.35131657e-05
6.35468833e-05
6.23355352e-05
6.16498236e-05
6.24131436e-05
6.34934919e-05
6.26165338e-05
6.16931216e-05
6.19801009e-05
6.35246088e-05
6.35734922e-05
6.19005586e-05
6.18634064e-05
6.35674686e-05
6.35436856e-05
6.22896525e-05
6.15071652e-05
6.23073743e-05
6.34897807e-05
6.29666877e-05
6.16984499e-05
6.18457499e-05
6.35364419e-05
6.35588064e-05
6.17809323e-05
6.17423481e-05
6.35533501e-05
6.35518231e-05
6.18814414e-05
6.19286474e-05
6.36137892e-05
6.35170495e-05
6.23305289e-05
6.1273977e-05
6.20640199e-05
6.35269339e-05
6.35661278e-05
6.1834068e-05
6.18985762e-05
6.35782819e-05
6.35326465e-05
6.18478041e-05
6.19297865e-05
6.35976907e-05
6.3533881e-05
6.19880127e-05
6.21595595e-05
6.36370136e-05
6.35226987e-05
6.23081908e-05
6.13582032e-05
6.22135099e-05
6.35695606e-05
6.35709238e-05
6.21180832e-05
6.23513558e-05
6.36338679e-05
6.35786319e-05
6.23143798e-05
6.19132897e-05
6.17636756e-05
6.23285054e-05
6.36377401e-05
6.35587272e-05
6.22911864e-05
6.16144024e-05
6.22879597e-05
6.36154105e-05
6.35706386e-05
6.22998382e-05
6.16164752e-05
6.22906751e-05
6.36157935e-05
6.35618529e-05
6.22991551e-05
6.15927013e-05
6.22923823e-05
6.36217835e-05
6.35344998e-05
6.22773481e-05
6.13327743e-05
6.22258237e-05
6.34773189e-05
6.36635939e-05
6.34220618e-05
6.23012891e-05
6.17201105e-05
6.16869744e-05
6.23509064e-05
6.36251671e-05
6.35457257e-05
6.23073955e-05
6.15461714e-05
6.23287943e-05
6.35609441e-05
6.35213773e-05
6.20644208e-05
6.23767111e-05
6.36343182e-05
6.35330211e-05
6.21949219e-05
6.1328562e-05
6.23138931e-05
6.35463546e-05
6.34911521e-05
6.18847777e-05
6.22540884e-05
6.35831106e-05
6.34027111e-05
6.19749163e-05
6.23894337e-05
6.36231506e-05
6.35334223e-05
6.21373692e-05
6.12463e-05
6.22864532e-05
6.35232058e-05
6.34191412e-05
6.18322437e-05
6.23001861e-05
6.35599332e-05
6.3194915e-05
6.19448152e-05
6.23920383e-05
6.36029129e-05
6.35540129e-05
6.218389e-05
6.12560159e-05
6.23479218e-05
6.35044762e-05
6.32953193e-05
6.1823239e-05
6.23442283e-05
6.35413215e-05
6.30714363e-05
6.19428171e-05
6.23769221e-05
6.35853547e-05
6.35678121e-05
6.22817495e-05
6.12669673e-05
6.22925772e-05
6.34832905e-05
6.27816232e-05
6.18059536e-05
6.22705383e-05
6.35284355e-05
6.24118068e-05
6.17523924e-05
6.22856402e-05
6.35110575e-05
6.26998959e-05
6.18500423e-05
6.22466151e-05
6.3544214e-05
6.35996075e-05
6.22584519e-05
6.13796153e-05
6.22887984e-05
6.34541723e-05
)
;

boundaryField
{
    closed
    {
        type            calculated;
        value           uniform 8.13120305e-05;
    }
    open
    {
        type            calculated;
        value           nonuniform List<scalar> 0();
    }
    sides
    {
        type            empty;
    }
    procBoundary0to1
    {
        type            processor;
        value           uniform 6.30461654e-05;
    }
}


// ************************************************************************* //
