/*--------------------------------*- C++ -*----------------------------------*\
| =========                 |                                                 |
| \\      /  F ield         | OpenFOAM: The Open Source CFD Toolbox           |
|  \\    /   O peration     | Version:  2306                                  |
|   \\  /    A nd           | Website:  www.openfoam.com                      |
|    \\/     M anipulation  |                                                 |
\*---------------------------------------------------------------------------*/
FoamFile
{
    version     2.0;
    format      ascii;
    arch        "LSB;label=32;scalar=64";
    class       volScalarField;
    location    "0.00052";
    object      prefDPV_T;
}
// * * * * * * * * * * * * * * * * * * * * * * * * * * * * * * * * * * * * * //

dimensions      [1 -1 -1 -1 0 0 0];

internalField   nonuniform List<scalar> 
530
(
5.99659662e-10
5.9768492e-10
5.97549376e-10
5.97549768e-10
5.97549775e-10
5.97549775e-10
5.97549775e-10
5.97549775e-10
5.97549775e-10
5.97549775e-10
5.97549775e-10
5.97549775e-10
5.97549775e-10
5.97549775e-10
5.97549775e-10
5.97549775e-10
5.97549775e-10
5.97549775e-10
5.97549775e-10
5.97549775e-10
5.97549775e-10
5.97549775e-10
5.97549775e-10
5.97549775e-10
5.97549775e-10
5.97549775e-10
5.97549775e-10
5.97549775e-10
5.97549775e-10
5.97549775e-10
5.97549775e-10
5.97549775e-10
5.97549775e-10
5.97549775e-10
5.97549775e-10
5.97549775e-10
5.97549775e-10
5.97549775e-10
5.97549775e-10
5.97549775e-10
5.97549775e-10
5.97549775e-10
5.97549775e-10
5.97549775e-10
5.97549775e-10
5.97549775e-10
5.97549775e-10
5.97549775e-10
5.97549775e-10
5.97549775e-10
5.97549775e-10
5.97549775e-10
5.97549775e-10
5.97549775e-10
5.97549775e-10
5.97549775e-10
5.97549775e-10
5.97549775e-10
5.97549775e-10
5.97549775e-10
5.97549775e-10
5.97549775e-10
5.97549775e-10
5.97549775e-10
5.97549775e-10
5.97549775e-10
5.97549775e-10
5.97549775e-10
5.97549775e-10
5.97549775e-10
5.97549775e-10
5.97549775e-10
5.97549775e-10
5.97549775e-10
5.97549775e-10
5.97549775e-10
5.97549775e-10
5.97549776e-10
5.97549778e-10
5.97549766e-10
5.97549797e-10
5.97549925e-10
5.97549591e-10
5.97549586e-10
5.97550282e-10
5.97554133e-10
5.97555703e-10
5.97523465e-10
5.97484051e-10
5.97617095e-10
5.97977803e-10
5.97774011e-10
5.95834135e-10
5.95796126e-10
6.00994949e-10
6.01568852e-10
5.9468696e-10
5.90726978e-10
5.91232119e-10
6.11150525e-10
6.08439412e-10
5.98242295e-10
5.90364798e-10
5.89050574e-10
5.88892051e-10
6.04394097e-10
6.09714902e-10
6.09170908e-10
6.08917964e-10
5.98275047e-10
5.89606564e-10
5.89242638e-10
6.05151282e-10
6.09487664e-10
5.98848331e-10
5.90027432e-10
5.89457445e-10
6.04837752e-10
6.09180439e-10
5.96518285e-10
5.90750079e-10
6.03394862e-10
6.0953651e-10
5.99354888e-10
5.90006589e-10
5.89422391e-10
6.02739512e-10
6.09444683e-10
5.97009278e-10
5.90673611e-10
6.02189723e-10
6.09718626e-10
6.00028094e-10
5.90045559e-10
5.89432175e-10
6.01401895e-10
6.0964071e-10
5.97633566e-10
5.90709387e-10
6.01143057e-10
6.09908401e-10
6.0057177e-10
5.90024298e-10
5.89296538e-10
6.00083313e-10
6.09907055e-10
5.9812943e-10
5.90450935e-10
5.99544396e-10
6.09925546e-10
5.98618798e-10
5.90771644e-10
5.99957285e-10
6.10049944e-10
6.01576876e-10
5.90199155e-10
5.89421872e-10
5.9936789e-10
6.09848904e-10
5.99413449e-10
5.90927036e-10
5.99669655e-10
6.09741947e-10
6.02392998e-10
5.91087602e-10
5.90083109e-10
5.89844667e-10
5.98534338e-10
6.10226297e-10
6.03304029e-10
5.90516656e-10
5.89639429e-10
5.98901414e-10
6.09953181e-10
6.00069231e-10
5.90791182e-10
5.98207952e-10
6.10009836e-10
6.00128672e-10
5.90943784e-10
5.98446143e-10
6.10144903e-10
6.03110968e-10
5.90307181e-10
5.89490537e-10
5.97891788e-10
6.10120249e-10
5.99969294e-10
5.90730297e-10
5.97689586e-10
6.10230954e-10
6.03496246e-10
5.90303134e-10
5.89427916e-10
5.97384972e-10
6.1025368e-10
6.00029081e-10
5.90417083e-10
5.96345026e-10
6.10392084e-10
6.00181732e-10
5.9040718e-10
5.96124362e-10
6.10428771e-10
6.00112592e-10
5.9033187e-10
5.95874159e-10
6.10487723e-10
5.99971961e-10
5.90485758e-10
5.97113659e-10
6.10876224e-10
5.97160864e-10
5.90319974e-10
5.97431178e-10
6.10469775e-10
5.9938373e-10
5.89491117e-10
5.93406717e-10
6.10820106e-10
6.00858564e-10
5.90235775e-10
5.95334689e-10
6.10206959e-10
6.00889449e-10
5.90622336e-10
5.96043664e-10
6.09874566e-10
6.0839774e-10
5.90534495e-10
5.8937061e-10
5.94570627e-10
6.10293938e-10
6.01222982e-10
5.90372543e-10
5.96050564e-10
6.0984458e-10
6.00817496e-10
5.9054673e-10
5.96038149e-10
6.09613516e-10
6.09584065e-10
5.90498964e-10
5.89370936e-10
5.94756922e-10
6.10010248e-10
6.01163754e-10
5.90526489e-10
5.9590199e-10
6.0939712e-10
6.11225025e-10
5.9066706e-10
5.89500428e-10
5.95294331e-10
6.09748033e-10
6.01329827e-10
5.90722421e-10
5.96442169e-10
6.08952159e-10
6.11518877e-10
5.92030839e-10
5.90032803e-10
5.89654125e-10
5.93609307e-10
6.09545381e-10
6.09805165e-10
5.91355591e-10
5.89845698e-10
5.96059185e-10
6.09357116e-10
6.02831679e-10
5.91177716e-10
5.96940553e-10
6.08716882e-10
6.08834679e-10
5.93876287e-10
5.90903293e-10
5.89940445e-10
5.89622918e-10
5.92626375e-10
6.09497449e-10
6.08828717e-10
5.9366625e-10
5.90142167e-10
5.94486009e-10
6.09223337e-10
6.09351944e-10
5.91694672e-10
5.8982759e-10
5.94058222e-10
6.09314338e-10
6.09876098e-10
5.90979819e-10
5.89647109e-10
5.93742516e-10
6.09367245e-10
6.10004277e-10
5.90832898e-10
5.89404844e-10
5.93124986e-10
6.0956386e-10
6.07058201e-10
5.90779416e-10
5.94108558e-10
6.08835043e-10
6.10420146e-10
5.90740448e-10
5.894035e-10
5.92344925e-10
6.09715387e-10
6.11073938e-10
5.90831151e-10
5.92133657e-10
6.1050922e-10
6.07911705e-10
6.09741581e-10
5.91325199e-10
5.90503231e-10
5.90075024e-10
5.89631369e-10
5.91437415e-10
6.09620146e-10
6.12106753e-10
5.90874096e-10
5.9241362e-10
6.0911187e-10
6.12283138e-10
5.90908135e-10
5.9238084e-10
6.09060219e-10
6.09806487e-10
5.9082858e-10
5.89213168e-10
5.91061603e-10
6.10021622e-10
6.10980142e-10
5.90493757e-10
5.91147454e-10
6.09592996e-10
6.10971059e-10
5.90683294e-10
5.91350816e-10
6.0939871e-10
6.09480251e-10
5.90839772e-10
5.89370813e-10
5.91968595e-10
6.09706783e-10
6.09693315e-10
5.91067883e-10
5.89542493e-10
5.92852141e-10
6.09701737e-10
6.10338348e-10
5.90747601e-10
5.910142e-10
6.09592068e-10
6.09416695e-10
5.91382397e-10
5.89404487e-10
5.91078035e-10
6.09787735e-10
6.09174417e-10
5.92305273e-10
5.89793055e-10
5.92896007e-10
6.09845666e-10
6.10039358e-10
5.90257531e-10
5.89965771e-10
6.10540051e-10
6.09482313e-10
5.91480385e-10
5.89924554e-10
5.99361977e-10
6.09505519e-10
6.03169912e-10
5.89994057e-10
5.90559918e-10
6.0987626e-10
6.09706567e-10
5.90359145e-10
5.90360566e-10
6.09693548e-10
6.09491017e-10
5.90996082e-10
5.89642645e-10
5.95244238e-10
6.09593846e-10
6.08289107e-10
5.90003833e-10
5.90369444e-10
6.09737909e-10
6.0965178e-10
5.90130187e-10
5.90089808e-10
6.09682428e-10
6.09747794e-10
5.90289658e-10
5.90524707e-10
6.09039038e-10
6.09500855e-10
5.91411035e-10
5.89142334e-10
5.90595005e-10
6.09714267e-10
6.09675944e-10
5.90253824e-10
5.90407224e-10
6.09298804e-10
6.0989132e-10
5.90187069e-10
5.90475812e-10
6.0914509e-10
6.10011125e-10
5.90449184e-10
5.90969294e-10
6.08754297e-10
6.09586476e-10
5.91032188e-10
5.89240463e-10
5.90826531e-10
6.09373065e-10
6.09832554e-10
5.90772825e-10
5.91264626e-10
6.085794e-10
6.09019643e-10
5.92829042e-10
5.90249633e-10
5.89912894e-10
5.913935e-10
6.08827724e-10
6.09217617e-10
5.9224315e-10
5.89690295e-10
5.92258766e-10
6.0882924e-10
6.09164706e-10
5.92016198e-10
5.89680456e-10
5.92265803e-10
6.08858215e-10
6.09222158e-10
5.9189409e-10
5.89651419e-10
5.922262e-10
6.08892364e-10
6.0939068e-10
5.91037488e-10
5.89291283e-10
5.93050808e-10
6.1011877e-10
6.0778058e-10
6.10791623e-10
5.91762422e-10
5.90084158e-10
5.89713527e-10
5.91461588e-10
6.08876148e-10
6.09277483e-10
5.92101118e-10
5.89605699e-10
5.91767676e-10
6.09234039e-10
6.10507457e-10
5.90631523e-10
5.91676795e-10
6.08639232e-10
6.09501453e-10
5.90758031e-10
5.89166182e-10
5.91103842e-10
6.09520136e-10
6.1092674e-10
5.90282291e-10
5.91337906e-10
6.09078498e-10
6.11622479e-10
5.90393308e-10
5.91549442e-10
6.08807375e-10
6.09577799e-10
5.90637761e-10
5.89030732e-10
5.91112304e-10
6.09708472e-10
6.11615914e-10
5.90208231e-10
5.91433947e-10
6.09264413e-10
6.11141592e-10
5.90377145e-10
5.91727209e-10
6.08949302e-10
6.09451735e-10
5.90711066e-10
5.89072562e-10
5.91232961e-10
6.09824016e-10
6.12305726e-10
5.90202251e-10
5.91447692e-10
6.09436858e-10
6.09628105e-10
5.90388918e-10
5.91799777e-10
6.09130638e-10
6.09431357e-10
5.90825293e-10
5.89105018e-10
5.91551384e-10
6.10061132e-10
6.05724966e-10
5.90128252e-10
5.94993903e-10
6.09535593e-10
5.99451275e-10
5.89973118e-10
5.96183494e-10
6.0946339e-10
6.04516606e-10
5.90209422e-10
5.91043771e-10
6.09613325e-10
6.09044162e-10
5.9253187e-10
5.89238636e-10
5.9216602e-10
6.10119862e-10
)
;

boundaryField
{
    closed
    {
        type            calculated;
        value           uniform 7.28905011e-10;
    }
    open
    {
        type            calculated;
        value           nonuniform List<scalar> 0();
    }
    sides
    {
        type            empty;
    }
    procBoundary0to1
    {
        type            processor;
        value           uniform 6.09317585e-10;
    }
}


// ************************************************************************* //
