/*--------------------------------*- C++ -*----------------------------------*\
| =========                 |                                                 |
| \\      /  F ield         | OpenFOAM: The Open Source CFD Toolbox           |
|  \\    /   O peration     | Version:  2306                                  |
|   \\  /    A nd           | Website:  www.openfoam.com                      |
|    \\/     M anipulation  |                                                 |
\*---------------------------------------------------------------------------*/
FoamFile
{
    version     2.0;
    format      ascii;
    arch        "LSB;label=32;scalar=64";
    class       volScalarField;
    location    "0.00038";
    object      PV;
}
// * * * * * * * * * * * * * * * * * * * * * * * * * * * * * * * * * * * * * //

dimensions      [0 0 0 0 0 0 0];

internalField   nonuniform List<scalar> 
531
(
-0.0070314337
-0.00701079282
-0.0071267421
-0.00722262376
-0.00711912005
-0.00709207057
-0.00723672591
-0.00726722623
-0.00709468044
-0.00701817202
-0.00716857887
-0.00718700807
-0.00703394555
-0.00710638051
-0.00724609135
-0.0071426209
-0.00702216211
-0.00715424368
-0.00722406233
-0.00708242075
-0.0071266059
-0.00725689439
-0.00711565161
-0.00702622105
-0.00710443447
-0.00725225729
-0.0072522618
-0.00704710428
-0.00701697571
-0.00717524165
-0.00723595436
-0.00714512001
-0.00707547861
-0.00714096676
-0.00719043284
-0.00715173413
-0.00712255875
-0.0071364024
-0.00715134259
-0.00714458104
-0.00713736172
-0.00713924766
-0.00714199263
-0.00714137502
-0.00714026166
-0.007140383
-0.00714073592
-0.00714070723
-0.00714057556
-0.00714057499
-0.00714061176
-0.0071406123
-0.00714060013
-0.00714059844
-0.00714060119
-0.00714060172
-0.00714060084
-0.0071406005
-0.00714060064
-0.00714060071
-0.00714060065
-0.0071406006
-0.00714060061
-0.0071406006
-0.00714060059
-0.00714060058
-0.00714060058
-0.00714060057
-0.00714060056
-0.00714060055
-0.00714060055
-0.00714060054
-0.00714060053
-0.00714060053
-0.00714060052
-0.00714060051
-0.00714060051
-0.0071406005
-0.00714060049
-0.00714060048
-0.00714060048
-0.00714060047
-0.00714060047
-0.00714060046
-0.00714060045
-0.00714060044
-0.00714060044
-0.00714060043
-0.00714060042
-0.00714060041
-0.00714060041
-0.0071406004
-0.00714060039
-0.00714060038
-0.00714060038
-0.00714060037
-0.00714060036
-0.00714060035
-0.00714060034
-0.00714060034
-0.00714060033
-0.00714060032
-0.00714060031
-0.0071406003
-0.00714060029
-0.00714060028
-0.00714060028
-0.00714060027
-0.00714060026
-0.00714060025
-0.00714060024
-0.00714060023
-0.00714060022
-0.00714060021
-0.0071406002
-0.00714060019
-0.00714060018
-0.00714060017
-0.00714060016
-0.00714060016
-0.00714060014
-0.00714060014
-0.00714060012
-0.00714060012
-0.00714060011
-0.0071406001
-0.00714060009
-0.00714060008
-0.00714060007
-0.00714060006
-0.00714060005
-0.00714060004
-0.00714060003
-0.00714060002
-0.00714060001
-0.0071406
-0.00714059999
-0.00714059999
-0.00714059998
-0.00714059997
-0.00714059996
-0.00714059995
-0.00714059994
-0.00714059993
-0.00714059993
-0.00714059992
-0.00714059991
-0.0071405999
-0.00714059989
-0.00714059989
-0.00714059988
-0.00714059987
-0.00714059986
-0.00714059986
-0.00714059985
-0.00714059984
-0.00714059983
-0.00714059983
-0.00714059982
-0.00714059982
-0.00714059981
-0.0071405998
-0.0071405998
-0.00714059979
-0.00714059978
-0.00714059978
-0.00714059977
-0.00714059977
-0.00714059976
-0.00714059976
-0.00714059975
-0.00714059974
-0.00714059974
-0.00714059973
-0.00714059973
-0.00714059972
-0.00714059972
-0.00714059971
-0.00714059971
-0.0071405997
-0.0071405997
-0.00714059969
-0.00714059969
-0.00714059968
-0.00714059968
-0.00714059967
-0.00714059967
-0.00714059966
-0.00714059966
-0.00714059965
-0.00714059965
-0.00714059964
-0.00714059964
-0.00714059963
-0.00714059963
-0.00714059962
-0.00714059962
-0.00714059961
-0.00714059961
-0.0071405996
-0.0071405996
-0.00714059959
-0.00714059959
-0.00714059958
-0.00714059958
-0.00714059958
-0.00714059957
-0.00714059957
-0.00714059956
-0.00714059956
-0.00714059955
-0.00714059955
-0.00714059954
-0.00714059954
-0.00714059953
-0.00714059953
-0.00714059952
-0.00714059952
-0.00714059951
-0.00714059951
-0.0071405995
-0.0071405995
-0.00714059949
-0.00714059949
-0.00714059948
-0.00714059948
-0.00714059947
-0.00714059947
-0.00714059946
-0.00714059946
-0.00714059945
-0.00714059945
-0.00714059944
-0.00714059944
-0.00714059943
-0.00714059943
-0.00714059942
-0.00714059942
-0.00714059941
-0.00714059941
-0.0071405994
-0.0071405994
-0.00714059939
-0.00714059939
-0.00714059938
-0.00714059938
-0.00714059937
-0.00714059937
-0.00714059936
-0.00714059936
-0.00714059935
-0.00714059935
-0.00714059934
-0.00714059934
-0.00714059933
-0.00714059933
-0.00714059932
-0.00714059932
-0.00714059932
-0.00714059931
-0.00714059931
-0.0071405993
-0.0071405993
-0.00714059929
-0.00714059929
-0.00714059928
-0.00714059928
-0.00714059927
-0.00714059927
-0.00714059927
-0.00714059926
-0.00714059926
-0.00714059925
-0.00714059925
-0.00714059924
-0.00714059924
-0.00714059923
-0.00714059923
-0.00714059923
-0.00714059922
-0.00714059922
-0.00714059921
-0.00714059921
-0.0071405992
-0.0071405992
-0.00714059919
-0.00714059919
-0.00714059918
-0.00714059918
-0.00714059917
-0.00714059917
-0.00714059916
-0.00714059916
-0.00714059915
-0.00714059915
-0.00714059914
-0.00714059914
-0.00714059913
-0.00714059913
-0.00714059912
-0.00714059912
-0.00714059911
-0.0071405991
-0.0071405991
-0.00714059909
-0.00714059909
-0.00714059908
-0.00714059908
-0.00714059907
-0.00714059907
-0.00714059906
-0.00714059905
-0.00714059905
-0.00714059904
-0.00714059903
-0.00714059903
-0.00714059902
-0.00714059901
-0.00714059901
-0.007140599
-0.00714059899
-0.00714059899
-0.00714059898
-0.00714059897
-0.00714059897
-0.00714059896
-0.00714059895
-0.00714059895
-0.00714059894
-0.00714059893
-0.00714059892
-0.00714059892
-0.00714059891
-0.0071405989
-0.00714059889
-0.00714059889
-0.00714059888
-0.00714059887
-0.00714059886
-0.00714059886
-0.00714059885
-0.00714059884
-0.00714059883
-0.00714059883
-0.00714059882
-0.00714059881
-0.0071405988
-0.0071405988
-0.00714059879
-0.00714059878
-0.00714059878
-0.00714059877
-0.00714059876
-0.00714059876
-0.00714059875
-0.00714059874
-0.00714059874
-0.00714059873
-0.00714059872
-0.00714059872
-0.00714059871
-0.0071405987
-0.0071405987
-0.00714059869
-0.00714059869
-0.00714059868
-0.00714059868
-0.00714059867
-0.00714059867
-0.00714059866
-0.00714059865
-0.00714059865
-0.00714059864
-0.00714059864
-0.00714059864
-0.00714059863
-0.00714059863
-0.00714059862
-0.00714059862
-0.00714059861
-0.00714059861
-0.0071405986
-0.0071405986
-0.0071405986
-0.00714059859
-0.00714059859
-0.00714059858
-0.00714059858
-0.00714059857
-0.00714059857
-0.00714059857
-0.00714059857
-0.00714059856
-0.00714059856
-0.00714059855
-0.00714059855
-0.00714059855
-0.00714059855
-0.00714059854
-0.00714059854
-0.00714059854
-0.00714059854
-0.00714059853
-0.00714059853
-0.00714059853
-0.00714059853
-0.00714059853
-0.00714059852
-0.00714059852
-0.00714059852
-0.00714059852
-0.00714059852
-0.00714059852
-0.00714059851
-0.00714059851
-0.00714059851
-0.00714059851
-0.00714059851
-0.00714059851
-0.0071405985
-0.0071405985
-0.0071405985
-0.0071405985
-0.0071405985
-0.0071405985
-0.0071405985
-0.00714059849
-0.00714059849
-0.00714059849
-0.00714059849
-0.00714059849
-0.00714059848
-0.00714059849
-0.0071405985
-0.00714059849
-0.00714059844
-0.00714059846
-0.00714059861
-0.00714059864
-0.00714059823
-0.00714059803
-0.00714059897
-0.00714060009
-0.00714059854
-0.0071405949
-0.00714059676
-0.00714060768
-0.0071406091
-0.00714058655
-0.00714057344
-0.00714061151
-0.00714067232
-0.00714064601
-0.00714048105
-0.00714044302
-0.00714078659
-0.00714120423
-0.00714083359
-0.00713931703
-0.007139273
-0.00714385454
-0.00714679349
-0.0071368273
-0.00712777176
-0.00714376578
-0.00718023666
-0.00715400923
-0.00708508701
-0.00711437356
-0.00723224989
-0.00722642185
-0.00701281139
-0.0070131045
-0.00722418326
-0.00725140308
-0.00717519063
-0.00701971505
-0.0070137017
-0.00724056946
-0.00724759277
-0.00722553221
-0.00714126367
-0.0070226921
-0.00701438456
-0.00727467351
-0.00727246099
-0.00702402849
-0.00702156265
-0.00702123598
-0.00725420838
-0.00725592506
-0.00702161992
-0.0070212115
-0.00726191951
-0.00728064049
-0.00718741559
-0.00702419604
-0.0070197644
-0.00701890969
-0.007265204
-0.00727433046
-0.00725516957
-0.00715827269
-0.00702102465
-0.00701791848
-0.00701535682
-0.00724477788
-0.00725738293
-0.00702149115
-0.00701674025
-0.00724407473
-0.00724117108
-0.00701799779
-0.00701647975
-0.00725732396
-0.00727089225
-0.00714626559
-0.00702266267
-0.00701460645
-0.0072492001
-0.00725419134
-0.0070227947
-0.00701631267
-0.00725526028
-0.00726462013
-0.0071096863
-0.007021425
-0.00701869298
-0.00723373962
-0.00725682703
-0.00719393701
)
;

boundaryField
{
    closed
    {
        type            zeroGradient;
    }
    open
    {
        type            zeroGradient;
    }
    sides
    {
        type            empty;
    }
    procBoundary3to2
    {
        type            processor;
        value           uniform -0.00719038142;
    }
    procBoundary3to4
    {
        type            processor;
        value           uniform -0.00702098526;
    }
}


// ************************************************************************* //
