/*--------------------------------*- C++ -*----------------------------------*\
| =========                 |                                                 |
| \\      /  F ield         | OpenFOAM: The Open Source CFD Toolbox           |
|  \\    /   O peration     | Version:  2306                                  |
|   \\  /    A nd           | Website:  www.openfoam.com                      |
|    \\/     M anipulation  |                                                 |
\*---------------------------------------------------------------------------*/
FoamFile
{
    version     2.0;
    format      ascii;
    arch        "LSB;label=32;scalar=64";
    class       volScalarField;
    location    "0.0011";
    object      p;
}
// * * * * * * * * * * * * * * * * * * * * * * * * * * * * * * * * * * * * * //

dimensions      [1 -1 -2 0 0 0 0];

internalField   nonuniform List<scalar> 
531
(
101382.373
101382.357
101382.38
101382.415
101382.439
101382.446
101382.463
101382.481
101382.503
101382.532
101382.559
101382.574
101382.547
101382.496
101382.471
101382.467
101382.449
101382.403
101382.373
101382.353
101382.312
101382.237
101382.161
101382.083
101381.992
101382.288
101382.254
101382.236
101382.232
101382.222
101382.206
101382.215
101382.257
101382.307
101381.923
101381.844
101381.792
101381.764
101381.747
101381.732
101381.723
101381.734
101381.589
101381.51
101381.458
101381.413
101381.36
101381.292
101381.243
101381.216
101381.197
101381.163
101381.111
101381.064
101381.029
101381.015
101381
101380.971
101380.917
101380.888
101380.873
101380.844
101380.79
101380.756
101380.736
101380.698
101380.637
101380.594
101380.562
101380.512
101380.437
101380.379
101380.329
101380.258
101380.162
101380.085
101380.008
101379.911
101379.794
101379.689
101379.604
101379.524
101379.446
101379.345
101379.272
101379.209
101379.132
101379.024
101378.898
101378.758
101378.595
101378.452
101378.483
101378.546
101378.644
101378.73
101378.806
101378.465
101378.39
101378.331
101378.272
101378.194
101378.091
101378.003
101377.919
101377.816
101377.695
101377.591
101377.49
101377.373
101377.239
101377.123
101377.011
101376.884
101376.744
101376.626
101376.505
101376.369
101376.226
101376.097
101375.989
101375.881
101375.781
101375.68
101375.458
101375.31
101375.173
101375.028
101374.864
101374.71
101374.794
101374.617
101374.436
101374.255
101374.096
101373.947
101373.796
101373.638
101373.496
101373.382
101373.277
101373.184
101373.076
101372.98
101372.901
101372.817
101372.722
101372.611
101372.514
101372.424
101372.323
101372.212
101372.11
101372.025
101371.934
101371.838
101371.734
101371.652
101371.576
101371.492
101371.402
101371.325
101371.259
101371.202
101371.136
101371.052
101370.973
101370.922
101370.885
101370.848
101370.806
101370.787
101370.798
101370.804
101370.427
101370.309
101370.214
101370.149
101370.095
101370.047
101369.957
101369.865
101369.771
101369.66
101369.885
101369.818
101369.749
101369.689
101369.631
101369.538
101369.422
101369.295
101369.096
101368.903
101369.159
101369.445
101369.708
101369.942
101370.584
101370.854
101371.116
101371.397
101371.659
101371.913
101372.163
101372.411
101372.635
101372.809
101372.942
101373.075
101373.212
101373.341
101373.832
101374.003
101374.185
101374.393
101374.612
101374.824
101374.999
101375.173
101375.354
101375.528
101376.058
101376.269
101376.493
101376.758
101377.016
101377.252
101377.508
101377.793
101378.072
101377.909
101378.02
101378.147
101378.289
101378.432
101378.925
101379.117
101379.327
101379.558
101379.817
101380.087
101379.968
101380.094
101380.238
101380.403
101380.882
101381.078
101381.281
101381.49
101381.698
101381.914
101382.143
101382.386
101382.63
101382.866
101383.076
101383.309
101383.573
101383.851
101384.101
101384.328
101384.584
101384.895
101385.202
101385.488
101385.787
101386.103
101386.451
101386.817
101387.161
101387.492
101387.849
101388.247
101388.671
101389.057
101389.428
101389.808
101390.202
101390.604
101391.011
101391.404
101391.804
101392.538
101392.988
101393.45
101393.929
101394.424
101394.967
101395.528
101395.725
101396.151
101396.602
101397.093
101397.606
101398.064
101398.501
101398.939
101399.384
101399.842
101400.312
101400.725
101401.108
101401.482
101401.848
101402.204
101402.555
101402.883
101403.467
101403.787
101404.085
101404.358
101404.606
101404.81
101405.242
101405.434
101405.608
101405.758
101405.889
101406.009
101406.116
101406.185
101406.222
101406.232
101406.232
101406.235
101406.22
101406.169
101406.097
101406.019
101405.92
101405.813
101405.707
101405.602
101405.485
101405.04
101404.81
101404.59
101404.344
101404.097
101403.835
101403.57
101403.285
101403.011
101402.725
101402.441
101402.151
101401.872
101401.614
101401.359
101401.106
101400.854
101400.618
101400.386
101400.168
101399.963
101399.761
101399.568
101399.384
101399.225
101399.067
101398.932
101398.799
101398.683
101398.593
101398.518
101398.456
101398.39
101398.38
101398.409
101398.249
101398.177
101398.16
101398.107
101398.096
101398.136
101398.171
101398.19
101398.222
101398.305
101398.408
101398.504
101398.56
101398.637
101398.773
101398.966
101399.171
101399.357
101399.594
101399.875
101400.194
101400.554
101400.956
101401.404
101401.898
101402.44
101403.029
101403.666
101404.348
101405.073
101405.836
101406.632
101407.453
101408.29
101409.118
101409.912
101410.711
101411.485
101412.213
101412.871
101413.436
101413.882
101414.179
101414.304
101414.234
101413.938
101413.373
101412.539
101411.407
101409.962
101408.189
101406.087
101403.655
101400.915
101397.859
101394.551
101391.023
101387.189
101383.567
101381.619
101379.881
101378.221
101377.238
101377.226
101378.486
101381.338
101386.056
101392.957
101401.912
101412.832
101425.326
101438.649
101451.83
101463.609
101489.928
101491.02
101374.125
101363.32
101384.238
101395.613
101400.326
101400.955
101399.283
101396.585
101393.566
101390.768
101388.349
101386.469
101385.222
101384.647
101384.78
101385.659
101387.287
101389.726
101392.968
101396.516
101400.481
101408.965
101415.586
101407.93
101407.952
101433.142
101446.814
101438.627
101440.91
101455.467
101456.966
101455.491
101452.895
101444.026
101439.343
101442.43
101442.522
101438.009
101434.053
101430.019
101427.225
101430.16
101428.789
101412.127
101404.197
101422.271
101437.447
101441.995
101451.89
101473.603
101497.725
101521.374
101546.489
101575.043
101614.53
101641.085
101648.294
101662.665
101679.902
101687.793
101689.022
101690.797
101695.739
101697.631
101692.787
101687.885
101688.478
101688.19
101680.249
101671.21
101669.134
101667.824
101658.606
101647.76
101644.585
101643.244
101634.201
101623.007
101619.397
101618.715
101611.125
101600.619
101597.065
101597.241
101591.481
)
;

boundaryField
{
    closed
    {
        type            zeroGradient;
    }
    open
    {
        type            waveTransmissive;
        gamma           1.25;
        fieldInf        101325;
        lInf            1;
        value           nonuniform List<scalar> 0();
    }
    sides
    {
        type            empty;
    }
    procBoundary4to3
    {
        type            processor;
        value           uniform 101382.418;
    }
    procBoundary4to5
    {
        type            processor;
        value           uniform 101582.524;
    }
}


// ************************************************************************* //
