/*--------------------------------*- C++ -*----------------------------------*\
| =========                 |                                                 |
| \\      /  F ield         | OpenFOAM: The Open Source CFD Toolbox           |
|  \\    /   O peration     | Version:  2306                                  |
|   \\  /    A nd           | Website:  www.openfoam.com                      |
|    \\/     M anipulation  |                                                 |
\*---------------------------------------------------------------------------*/
FoamFile
{
    version     2.0;
    format      ascii;
    arch        "LSB;label=32;scalar=64";
    class       volScalarField;
    location    "0.00182";
    object      prefDZ_T;
}
// * * * * * * * * * * * * * * * * * * * * * * * * * * * * * * * * * * * * * //

dimensions      [1 -1 -1 -1 0 0 0];

internalField   nonuniform List<scalar> 
530
(
-1.03130129e-10
-1.02969932e-10
-1.02814647e-10
-1.02667192e-10
-1.02518286e-10
-1.02378085e-10
-1.02235288e-10
-1.02101888e-10
-1.0196494e-10
-1.01837917e-10
-1.01705913e-10
-1.01583803e-10
-1.01456668e-10
-1.01340167e-10
-1.01218162e-10
-1.01106908e-10
-1.00989796e-10
-1.00883448e-10
-1.00775454e-10
-1.00680004e-10
-1.00578356e-10
-1.00486894e-10
-1.00389176e-10
-1.00301481e-10
-1.00207544e-10
-1.00123407e-10
-1.00033103e-10
-9.99523294e-11
-9.98655166e-11
-9.97879209e-11
-9.97044588e-11
-9.96298675e-11
-9.95496189e-11
-9.94778677e-11
-9.94006981e-11
-9.93316316e-11
-9.92574091e-11
-9.91908796e-11
-9.91194748e-11
-9.90553419e-11
-9.89866278e-11
-9.89247576e-11
-9.88605006e-11
-9.88062042e-11
-9.87478914e-11
-9.86953753e-11
-9.86391303e-11
-9.8588323e-11
-9.85340767e-11
-9.84849094e-11
-9.8432594e-11
-9.83850003e-11
-9.83345493e-11
-9.82884653e-11
-9.82398138e-11
-9.81951775e-11
-9.81482619e-11
-9.81050135e-11
-9.80597718e-11
-9.80178532e-11
-9.79741289e-11
-9.79311625e-11
-9.78875569e-11
-9.78460141e-11
-9.78040197e-11
-9.77638313e-11
-9.77233803e-11
-9.76844799e-11
-9.76455063e-11
-9.76078297e-11
-9.7570269e-11
-9.75337545e-11
-9.74975442e-11
-9.74621318e-11
-9.74272108e-11
-9.73928428e-11
-9.73591517e-11
-9.73257719e-11
-9.72932527e-11
-9.72608067e-11
-9.72294027e-11
-9.71978377e-11
-9.71674935e-11
-9.71367584e-11
-9.71091919e-11
-9.70838518e-11
-9.70597912e-11
-9.70350345e-11
-9.70116759e-11
-9.69874767e-11
-9.69647918e-11
-9.69411247e-11
-9.69190861e-11
-9.68959266e-11
-9.68745075e-11
-9.68518316e-11
-9.68310063e-11
-9.68087908e-11
-9.67885339e-11
-9.67667563e-11
-9.67470434e-11
-9.67256818e-11
-9.67064889e-11
-9.66855223e-11
-9.6666826e-11
-9.66462338e-11
-9.66280116e-11
-9.66077739e-11
-9.65900036e-11
-9.65701011e-11
-9.65527614e-11
-9.65331753e-11
-9.65162452e-11
-9.64969574e-11
-9.64804169e-11
-9.64614094e-11
-9.64452388e-11
-9.64264945e-11
-9.64106749e-11
-9.63921769e-11
-9.63766898e-11
-9.63584217e-11
-9.63432494e-11
-9.63251952e-11
-9.63103204e-11
-9.62924646e-11
-9.62778705e-11
-9.6260198e-11
-9.62458683e-11
-9.62283646e-11
-9.62142833e-11
-9.61969342e-11
-9.6183086e-11
-9.61658779e-11
-9.61522475e-11
-9.61351672e-11
-9.612174e-11
-9.61047747e-11
-9.60915362e-11
-9.6074674e-11
-9.60616097e-11
-9.60448391e-11
-9.60319348e-11
-9.60152451e-11
-9.60024867e-11
-9.59858675e-11
-9.59732411e-11
-9.59566827e-11
-9.59441746e-11
-9.59276674e-11
-9.59152649e-11
-9.58987988e-11
-9.58864901e-11
-9.58700543e-11
-9.58578298e-11
-9.58414116e-11
-9.58292644e-11
-9.58128486e-11
-9.58007752e-11
-9.57846217e-11
-9.57720728e-11
-9.57564272e-11
-9.57434157e-11
-9.57282471e-11
-9.57147845e-11
-9.57000638e-11
-9.568616e-11
-9.567186e-11
-9.56575233e-11
-9.56436195e-11
-9.56288552e-11
-9.5615327e-11
-9.56004827e-11
-9.55870142e-11
-9.55720165e-11
-9.55582807e-11
-9.55434631e-11
-9.55294615e-11
-9.55148082e-11
-9.55005411e-11
-9.54860372e-11
-9.54715054e-11
-9.54571355e-11
-9.54423407e-11
-9.54280888e-11
-9.54136961e-11
-9.54028643e-11
-9.53904969e-11
-9.53796334e-11
-9.53669017e-11
-9.53559933e-11
-9.53429092e-11
-9.53319427e-11
-9.53185179e-11
-9.53074808e-11
-9.52937264e-11
-9.5282607e-11
-9.52685331e-11
-9.52573209e-11
-9.5242937e-11
-9.52316222e-11
-9.52169371e-11
-9.5205511e-11
-9.51905327e-11
-9.51789875e-11
-9.51637235e-11
-9.51520521e-11
-9.51365095e-11
-9.51247055e-11
-9.51088909e-11
-9.50969485e-11
-9.50808682e-11
-9.50687821e-11
-9.50524421e-11
-9.50402077e-11
-9.50236136e-11
-9.50112267e-11
-9.49943838e-11
-9.49818407e-11
-9.49647542e-11
-9.49520517e-11
-9.49347266e-11
-9.49218616e-11
-9.49043028e-11
-9.48912725e-11
-9.48734853e-11
-9.48602867e-11
-9.4842277e-11
-9.48289063e-11
-9.48106811e-11
-9.47971337e-11
-9.47787018e-11
-9.47649714e-11
-9.47463438e-11
-9.47324222e-11
-9.47136122e-11
-9.46994893e-11
-9.46805117e-11
-9.46661769e-11
-9.46470455e-11
-9.4632491e-11
-9.46132131e-11
-9.45984283e-11
-9.4579029e-11
-9.4564276e-11
-9.45445389e-11
-9.45294336e-11
-9.45096951e-11
-9.44942383e-11
-9.44744863e-11
-9.44586986e-11
-9.44389202e-11
-9.44228176e-11
-9.44030035e-11
-9.43866004e-11
-9.43667428e-11
-9.43500524e-11
-9.43301447e-11
-9.43131794e-11
-9.42932158e-11
-9.4275987e-11
-9.42559627e-11
-9.42384808e-11
-9.42183919e-11
-9.42006666e-11
-9.41805098e-11
-9.41625502e-11
-9.4142323e-11
-9.41241377e-11
-9.41038381e-11
-9.40854354e-11
-9.40650618e-11
-9.40464497e-11
-9.40260007e-11
-9.40071871e-11
-9.3986662e-11
-9.39676546e-11
-9.39470527e-11
-9.3927859e-11
-9.39071801e-11
-9.38878074e-11
-9.38670516e-11
-9.38475071e-11
-9.38266745e-11
-9.38069654e-11
-9.37860567e-11
-9.37661897e-11
-9.37452057e-11
-9.37251878e-11
-9.37041294e-11
-9.36839673e-11
-9.36628356e-11
-9.36425361e-11
-9.36213325e-11
-9.36002496e-11
-9.35781674e-11
-9.35568183e-11
-9.35346612e-11
-9.35131834e-11
-9.34909533e-11
-9.34693533e-11
-9.34470525e-11
-9.34253365e-11
-9.34029675e-11
-9.33811415e-11
-9.33587071e-11
-9.33367771e-11
-9.33142803e-11
-9.3292252e-11
-9.32696958e-11
-9.32475751e-11
-9.32249629e-11
-9.32027554e-11
-9.31800905e-11
-9.31578017e-11
-9.31350877e-11
-9.31127233e-11
-9.30899637e-11
-9.30675293e-11
-9.30447278e-11
-9.30222287e-11
-9.29993891e-11
-9.2976831e-11
-9.29539571e-11
-9.29313453e-11
-9.2908441e-11
-9.28857809e-11
-9.28628502e-11
-9.28401473e-11
-9.28171941e-11
-9.27944539e-11
-9.27714819e-11
-9.274871e-11
-9.27257232e-11
-9.2702925e-11
-9.26799274e-11
-9.26571085e-11
-9.26341038e-11
-9.26111583e-11
-9.25879639e-11
-9.25649374e-11
-9.25417634e-11
-9.25187461e-11
-9.24955957e-11
-9.24725927e-11
-9.24494694e-11
-9.24264854e-11
-9.2403393e-11
-9.23804327e-11
-9.23573748e-11
-9.23344429e-11
-9.23114233e-11
-9.22885244e-11
-9.22655469e-11
-9.22426854e-11
-9.2219754e-11
-9.21969342e-11
-9.21740529e-11
-9.21512793e-11
-9.21284519e-11
-9.21057287e-11
-9.20829592e-11
-9.20602906e-11
-9.20375829e-11
-9.20149734e-11
-9.19923313e-11
-9.19697849e-11
-9.19472124e-11
-9.19247333e-11
-9.19022342e-11
-9.18798266e-11
-9.18574047e-11
-9.18350726e-11
-9.18127317e-11
-9.17904792e-11
-9.17682232e-11
-9.17460542e-11
-9.17238868e-11
-9.17018052e-11
-9.16797303e-11
-9.16577398e-11
-9.16357613e-11
-9.16138656e-11
-9.15919872e-11
-9.15701901e-11
-9.15484157e-11
-9.15267206e-11
-9.1505054e-11
-9.14834644e-11
-9.14619094e-11
-9.14404289e-11
-9.14189422e-11
-9.1396616e-11
-9.13743308e-11
-9.13521195e-11
-9.132995e-11
-9.13078571e-11
-9.12858074e-11
-9.12638365e-11
-9.12419105e-11
-9.12200652e-11
-9.11982667e-11
-9.11765505e-11
-9.11548833e-11
-9.11332995e-11
-9.11117673e-11
-9.10903194e-11
-9.10689256e-11
-9.1047617e-11
-9.10263651e-11
-9.1005199e-11
-9.09840922e-11
-9.0963072e-11
-9.09421135e-11
-9.09212423e-11
-9.09004353e-11
-9.08797162e-11
-9.08590636e-11
-9.08384997e-11
-9.08180045e-11
-9.07975986e-11
-9.07772636e-11
-9.07570186e-11
-9.07368465e-11
-9.07167652e-11
-9.06967587e-11
-9.06768437e-11
-9.06570054e-11
-9.06372592e-11
-9.06175915e-11
-9.05980167e-11
-9.0578522e-11
-9.05591209e-11
-9.05398015e-11
-9.05205764e-11
-9.05014345e-11
-9.04823876e-11
-9.04634253e-11
-9.04445588e-11
-9.04257779e-11
-9.04070939e-11
-9.03884963e-11
-9.03699968e-11
-9.03515841e-11
-9.03332711e-11
-9.03150451e-11
-9.02969204e-11
-9.02788825e-11
-9.02609475e-11
-9.02430996e-11
-9.02253554e-11
-9.02076994e-11
-9.01901279e-11
-9.01718702e-11
-9.01524172e-11
-9.01317079e-11
-9.01096906e-11
-9.00862783e-11
-9.00614162e-11
-9.00350165e-11
-9.00070201e-11
-8.99773426e-11
-8.99459225e-11
-8.99126811e-11
-8.98775601e-11
-8.98404897e-11
-8.98014213e-11
-8.97602996e-11
-8.97170936e-11
-8.96717708e-11
-8.96243274e-11
-8.95747654e-11
-8.95231203e-11
-8.94694418e-11
-8.94138205e-11
-8.9356368e-11
-8.92972502e-11
-8.9236063e-11
-8.91719326e-11
-8.91068224e-11
-8.90410992e-11
-8.89751719e-11
-8.89095096e-11
-8.88446256e-11
-8.87810793e-11
-8.87194569e-11
-8.8660363e-11
-8.86043949e-11
-8.85521215e-11
-8.85040562e-11
-8.84606219e-11
-8.84221342e-11
-8.83887551e-11
-8.83605069e-11
-8.83372192e-11
-8.83185972e-11
-8.8304163e-11
-8.82933859e-11
-8.8285623e-11
-8.82802713e-11
-8.82767166e-11
-8.82744886e-11
-8.82730206e-11
-8.82724374e-11
-8.82721608e-11
-8.82720265e-11
-8.82719735e-11
-8.82719519e-11
-8.82719417e-11
-8.82719386e-11
-8.82719375e-11
-8.82719372e-11
-8.82719371e-11
-8.82719371e-11
-8.82719371e-11
-8.82719371e-11
-8.82719371e-11
-8.82719371e-11
-8.82719371e-11
-8.82719371e-11
-8.82719371e-11
-8.82719371e-11
-8.82719371e-11
-8.82719371e-11
-8.82719371e-11
-8.82719371e-11
-8.82719371e-11
-8.82719371e-11
-8.82719371e-11
-8.82719371e-11
)
;

boundaryField
{
    closed
    {
        type            calculated;
        value           nonuniform List<scalar> 0();
    }
    open
    {
        type            calculated;
        value           uniform -8.82719371e-11;
    }
    sides
    {
        type            empty;
    }
    procBoundary5to4
    {
        type            processor;
        value           uniform -1.03305861e-10;
    }
}


// ************************************************************************* //
