/*--------------------------------*- C++ -*----------------------------------*\
| =========                 |                                                 |
| \\      /  F ield         | OpenFOAM: The Open Source CFD Toolbox           |
|  \\    /   O peration     | Version:  2306                                  |
|   \\  /    A nd           | Website:  www.openfoam.com                      |
|    \\/     M anipulation  |                                                 |
\*---------------------------------------------------------------------------*/
FoamFile
{
    version     2.0;
    format      ascii;
    arch        "LSB;label=32;scalar=64";
    class       volScalarField;
    location    "0.00182";
    object      prefDZ_H2O;
}
// * * * * * * * * * * * * * * * * * * * * * * * * * * * * * * * * * * * * * //

dimensions      [1 -1 -1 0 0 0 0];

internalField   nonuniform List<scalar> 
530
(
2.21254096e-06
2.21482636e-06
2.21704663e-06
2.21921631e-06
2.22135103e-06
2.22343415e-06
2.2254878e-06
2.22748936e-06
2.22946614e-06
2.2313909e-06
2.23329311e-06
2.23514182e-06
2.23697162e-06
2.23875008e-06
2.24051254e-06
2.24222519e-06
2.2439242e-06
2.24557522e-06
2.24716651e-06
2.24869226e-06
2.25020683e-06
2.25168343e-06
2.25314831e-06
2.25457813e-06
2.25599556e-06
2.25738087e-06
2.25875298e-06
2.26009596e-06
2.26142481e-06
2.26272752e-06
2.26401508e-06
2.26527953e-06
2.26652771e-06
2.26775581e-06
2.26896647e-06
2.27016006e-06
2.271335e-06
2.27249586e-06
2.27363685e-06
2.27476671e-06
2.27587545e-06
2.27697598e-06
2.27804226e-06
2.27908036e-06
2.28009347e-06
2.28110513e-06
2.28209001e-06
2.28307607e-06
2.28403364e-06
2.28499492e-06
2.28592607e-06
2.28686338e-06
2.28776895e-06
2.28868307e-06
2.28956387e-06
2.29045557e-06
2.29131237e-06
2.2921824e-06
2.29301596e-06
2.29386505e-06
2.29467745e-06
2.29553941e-06
2.29635081e-06
2.29719125e-06
2.29798039e-06
2.29880013e-06
2.29956777e-06
2.30036761e-06
2.30111449e-06
2.3018952e-06
2.30262206e-06
2.30338438e-06
2.30409195e-06
2.30483661e-06
2.30552558e-06
2.30625328e-06
2.30692438e-06
2.30763579e-06
2.30828972e-06
2.30898552e-06
2.30962297e-06
2.3103038e-06
2.31092547e-06
2.31159198e-06
2.3121938e-06
2.31283403e-06
2.31341349e-06
2.31404022e-06
2.3146051e-06
2.31521855e-06
2.31576918e-06
2.31636958e-06
2.31690625e-06
2.31749382e-06
2.3180168e-06
2.31859177e-06
2.31910133e-06
2.31966391e-06
2.3201603e-06
2.32071071e-06
2.32119416e-06
2.32173261e-06
2.32220333e-06
2.32273003e-06
2.32318824e-06
2.32370338e-06
2.32414928e-06
2.32465306e-06
2.32508685e-06
2.32557945e-06
2.32600132e-06
2.32648291e-06
2.32689304e-06
2.32736381e-06
2.32776237e-06
2.32822247e-06
2.32860964e-06
2.32905923e-06
2.32943518e-06
2.32987441e-06
2.33023929e-06
2.33066832e-06
2.33102228e-06
2.33144124e-06
2.33178443e-06
2.33219348e-06
2.33252604e-06
2.3329253e-06
2.33324737e-06
2.33363697e-06
2.33394868e-06
2.33432876e-06
2.33463024e-06
2.33500091e-06
2.33529228e-06
2.33565368e-06
2.33593507e-06
2.3362873e-06
2.33655882e-06
2.33690199e-06
2.33716378e-06
2.33749799e-06
2.33775017e-06
2.33807551e-06
2.3383182e-06
2.33863476e-06
2.3388681e-06
2.33917595e-06
2.33940007e-06
2.3396993e-06
2.33991431e-06
2.34020503e-06
2.34041101e-06
2.34069335e-06
2.34089037e-06
2.34116451e-06
2.34135255e-06
2.34161877e-06
2.34179771e-06
2.34205033e-06
2.3422318e-06
2.34246568e-06
2.34264902e-06
2.34286499e-06
2.3430496e-06
2.34324843e-06
2.34343378e-06
2.34361619e-06
2.34380181e-06
2.34396846e-06
2.34415394e-06
2.34430543e-06
2.34448586e-06
2.34462582e-06
2.34480403e-06
2.34493519e-06
2.34510702e-06
2.34522972e-06
2.34539506e-06
2.34550963e-06
2.3456684e-06
2.34577517e-06
2.34592728e-06
2.34602657e-06
2.34617196e-06
2.34626543e-06
2.34641094e-06
2.34650276e-06
2.34664147e-06
2.34672686e-06
2.34685869e-06
2.34693775e-06
2.34706264e-06
2.34713541e-06
2.34725334e-06
2.34731988e-06
2.34743083e-06
2.34749118e-06
2.34759513e-06
2.34764932e-06
2.34774629e-06
2.34779435e-06
2.34788433e-06
2.34792629e-06
2.3480093e-06
2.34804519e-06
2.34812123e-06
2.34815108e-06
2.34822017e-06
2.34824401e-06
2.34830615e-06
2.34832401e-06
2.34837922e-06
2.34839113e-06
2.34843943e-06
2.34844541e-06
2.34848683e-06
2.34848692e-06
2.34852147e-06
2.3485157e-06
2.34854342e-06
2.34853179e-06
2.34855272e-06
2.34853527e-06
2.34854944e-06
2.34852619e-06
2.34853364e-06
2.34850461e-06
2.34850538e-06
2.3484706e-06
2.34846473e-06
2.34842424e-06
2.34841175e-06
2.34836562e-06
2.34834649e-06
2.34829485e-06
2.34826904e-06
2.34821204e-06
2.34817946e-06
2.34811731e-06
2.34807786e-06
2.34801069e-06
2.34796433e-06
2.3478922e-06
2.3478416e-06
2.34776259e-06
2.34770405e-06
2.34762109e-06
2.34755496e-06
2.34746779e-06
2.34739439e-06
2.34730284e-06
2.34722245e-06
2.34712636e-06
2.34703922e-06
2.3469385e-06
2.34684482e-06
2.34673938e-06
2.34663935e-06
2.34652913e-06
2.3464229e-06
2.34630787e-06
2.3461956e-06
2.34607573e-06
2.34595754e-06
2.34583283e-06
2.34570884e-06
2.34557928e-06
2.34544961e-06
2.34531522e-06
2.34517999e-06
2.34504077e-06
2.34490009e-06
2.34475607e-06
2.34461005e-06
2.34446124e-06
2.34430999e-06
2.34415642e-06
2.34400005e-06
2.34384175e-06
2.34368036e-06
2.34351738e-06
2.34335107e-06
2.34318345e-06
2.34301231e-06
2.3428401e-06
2.34266423e-06
2.34248749e-06
2.34230697e-06
2.34212576e-06
2.34194069e-06
2.34175507e-06
2.34156553e-06
2.34137558e-06
2.34117573e-06
2.34097414e-06
2.34076877e-06
2.34056292e-06
2.3403533e-06
2.34014328e-06
2.33992951e-06
2.3397154e-06
2.33949757e-06
2.33927945e-06
2.33905765e-06
2.33883562e-06
2.33860994e-06
2.33838407e-06
2.33815462e-06
2.337925e-06
2.33769187e-06
2.33745858e-06
2.33722187e-06
2.33698502e-06
2.33674482e-06
2.33650448e-06
2.33626089e-06
2.33601717e-06
2.33577029e-06
2.33552327e-06
2.3352732e-06
2.33502298e-06
2.33476982e-06
2.33451649e-06
2.33426033e-06
2.334004e-06
2.33374494e-06
2.3334857e-06
2.33322384e-06
2.3329618e-06
2.33269722e-06
2.33243248e-06
2.33216529e-06
2.33189795e-06
2.33162825e-06
2.33135841e-06
2.33108629e-06
2.33081407e-06
2.33053966e-06
2.33026509e-06
2.32998826e-06
2.32971117e-06
2.32943195e-06
2.32915245e-06
2.32887096e-06
2.32858918e-06
2.32830552e-06
2.32802157e-06
2.32773584e-06
2.32744985e-06
2.32716217e-06
2.32687424e-06
2.32658471e-06
2.32629496e-06
2.3260037e-06
2.32571224e-06
2.32541936e-06
2.3251263e-06
2.32483191e-06
2.32453736e-06
2.32424156e-06
2.32394564e-06
2.32364855e-06
2.32335136e-06
2.32305308e-06
2.32275474e-06
2.32245538e-06
2.32215598e-06
2.32185566e-06
2.32155532e-06
2.32125413e-06
2.32095295e-06
2.320651e-06
2.3203491e-06
2.32004649e-06
2.31974396e-06
2.3194408e-06
2.31913775e-06
2.31883415e-06
2.31853067e-06
2.31822672e-06
2.31792292e-06
2.31761873e-06
2.3173147e-06
2.31701037e-06
2.31670622e-06
2.31640185e-06
2.31609765e-06
2.31579334e-06
2.3154892e-06
2.31518505e-06
2.31488056e-06
2.31456648e-06
2.31425269e-06
2.31393911e-06
2.31362591e-06
2.31331292e-06
2.31300039e-06
2.31268809e-06
2.3123763e-06
2.31206479e-06
2.31175384e-06
2.31144319e-06
2.31113315e-06
2.31082346e-06
2.31051441e-06
2.31020576e-06
2.30989779e-06
2.30959026e-06
2.30928344e-06
2.30897711e-06
2.30867153e-06
2.30836648e-06
2.30806221e-06
2.30775852e-06
2.30745563e-06
2.30715337e-06
2.30685195e-06
2.30655119e-06
2.30625131e-06
2.30595213e-06
2.30565385e-06
2.30535632e-06
2.30505971e-06
2.3047639e-06
2.30446904e-06
2.30417501e-06
2.30388196e-06
2.30358977e-06
2.3032986e-06
2.30300833e-06
2.3027191e-06
2.3024308e-06
2.30214357e-06
2.30185731e-06
2.30157213e-06
2.30128796e-06
2.30100491e-06
2.30072289e-06
2.30044201e-06
2.30016219e-06
2.29988355e-06
2.29960597e-06
2.29932962e-06
2.29905435e-06
2.29878033e-06
2.29850741e-06
2.29823578e-06
2.29796526e-06
2.29769607e-06
2.29742799e-06
2.29716127e-06
2.29689543e-06
2.29662149e-06
2.29632944e-06
2.29601839e-06
2.29568702e-06
2.29533445e-06
2.29495929e-06
2.29456058e-06
2.29413696e-06
2.29368739e-06
2.29321057e-06
2.29270546e-06
2.29217086e-06
2.29160582e-06
2.29100932e-06
2.29038064e-06
2.28971906e-06
2.28902422e-06
2.28829587e-06
2.28753422e-06
2.28673974e-06
2.28591343e-06
2.28505672e-06
2.28417175e-06
2.28326113e-06
2.28231992e-06
2.28133565e-06
2.28033861e-06
2.27933487e-06
2.2783316e-06
2.27733676e-06
2.27635913e-06
2.27540807e-06
2.27449333e-06
2.27362477e-06
2.27281186e-06
2.27206338e-06
2.27138674e-06
2.27078765e-06
2.27026944e-06
2.26983294e-06
2.26947598e-06
2.2691938e-06
2.26897898e-06
2.2688224e-06
2.26871369e-06
2.26864237e-06
2.26859871e-06
2.2685743e-06
2.26856184e-06
2.26855935e-06
2.26855167e-06
2.26854716e-06
2.26854506e-06
2.26854427e-06
2.26854397e-06
2.26854383e-06
2.26854379e-06
2.26854378e-06
2.26854378e-06
2.26854378e-06
2.26854378e-06
2.26854378e-06
2.26854378e-06
2.26854378e-06
2.26854378e-06
2.26854378e-06
2.26854378e-06
2.26854378e-06
2.26854378e-06
2.26854378e-06
2.26854378e-06
2.26854378e-06
2.26854378e-06
2.26854378e-06
2.26854378e-06
2.26854378e-06
2.26854378e-06
)
;

boundaryField
{
    closed
    {
        type            calculated;
        value           nonuniform List<scalar> 0();
    }
    open
    {
        type            calculated;
        value           uniform 2.26854378e-06;
    }
    sides
    {
        type            empty;
    }
    procBoundary5to4
    {
        type            processor;
        value           uniform 2.21016598e-06;
    }
}


// ************************************************************************* //
