/*--------------------------------*- C++ -*----------------------------------*\
| =========                 |                                                 |
| \\      /  F ield         | OpenFOAM: The Open Source CFD Toolbox           |
|  \\    /   O peration     | Version:  2306                                  |
|   \\  /    A nd           | Website:  www.openfoam.com                      |
|    \\/     M anipulation  |                                                 |
\*---------------------------------------------------------------------------*/
FoamFile
{
    version     2.0;
    format      ascii;
    arch        "LSB;label=32;scalar=64";
    class       volScalarField;
    location    "0.00182";
    object      sourcePV;
}
// * * * * * * * * * * * * * * * * * * * * * * * * * * * * * * * * * * * * * //

dimensions      [1 -3 -1 0 0 0 0];

internalField   nonuniform List<scalar> 
530
(
0.233182926
0.227799288
0.22264904
0.217805281
0.21287634
0.208259951
0.203540646
0.199137036
0.194616419
0.190411989
0.186076119
0.182051641
0.177890283
0.174038872
0.170045326
0.166355723
0.162521006
0.158982657
0.155636103
0.152721559
0.14966836
0.1468672
0.143930455
0.14123658
0.138411197
0.135818869
0.133099957
0.130603775
0.12798663
0.125581497
0.123061586
0.12074269
0.118315638
0.116078425
0.113740003
0.111580155
0.109326272
0.107239687
0.105066375
0.103049149
0.10095256
0.0990009608
0.0971020212
0.095572575
0.0939792598
0.0924962654
0.0909558281
0.089517576
0.0880281966
0.086633042
0.0851929588
0.083839316
0.0824468244
0.0811331628
0.0797866138
0.0785114545
0.0772092526
0.0759711649
0.0747117664
0.0735093649
0.0722891017
0.0710687856
0.0698568004
0.0686755371
0.0675058337
0.0663619199
0.0652328172
0.0641246213
0.0630344938
0.0619604505
0.0609077257
0.0598663311
0.0588494873
0.0578392948
0.0568568584
0.0558764752
0.0549270175
0.0539751008
0.0530572356
0.0521324899
0.0512448708
0.0503460445
0.0494873622
0.0486132448
0.0478686023
0.0472434616
0.0466523776
0.0460432871
0.0454698911
0.0448763543
0.0443201009
0.0437416357
0.0432020001
0.0426381384
0.0421146153
0.041564903
0.0410570052
0.0405210022
0.0400282589
0.0395055393
0.0390274954
0.0385176469
0.0380538619
0.0375564861
0.0371065335
0.0366212451
0.0361847118
0.0357111381
0.0352876244
0.0348254047
0.0344145237
0.0339633088
0.0335646863
0.0331241377
0.0327374119
0.0323072013
0.0319320225
0.0315118314
0.0311478615
0.0307373808
0.030384293
0.0299832228
0.0296407008
0.0292487499
0.0289164881
0.028533374
0.028211076
0.0278365248
0.0275239034
0.0271576499
0.0268544264
0.0264962136
0.0262021168
0.0258516968
0.0255664623
0.0252235963
0.0249469653
0.024611424
0.0243431426
0.0240147066
0.0237545245
0.0234329847
0.0231806544
0.022865812
0.0226210888
0.0223127542
0.0220753971
0.0217733871
0.0215431622
0.021247295
0.021023981
0.020734068
0.0205174659
0.0202332999
0.0200232457
0.0197445863
0.0195409657
0.0192675269
0.0190702848
0.0188063909
0.0186063275
0.0183560524
0.0181533935
0.0179161842
0.0177111171
0.0174864634
0.0172791398
0.0170665724
0.0168571085
0.0166562025
0.0164446751
0.0162550556
0.0160458575
0.0158634421
0.0156553406
0.0154764124
0.0152734322
0.0150978246
0.0148998453
0.0147273771
0.0145342893
0.0143647787
0.014176472
0.0140097469
0.0138261014
0.013679981
0.0135911546
0.0135108067
0.013423857
0.013344057
0.0132589434
0.0131796971
0.0130963722
0.0130176898
0.0129361031
0.0128579958
0.012778097
0.0127005749
0.0126223158
0.0125453871
0.0124687223
0.0123923933
0.0123172801
0.0122415552
0.0121679536
0.012092836
0.0120207081
0.0119461998
0.0118755093
0.0118016116
0.011732324
0.0116590372
0.0115911194
0.0115184434
0.0114518634
0.0113797975
0.0113145245
0.0112430677
0.0111790715
0.0111082228
0.0110454738
0.0109752328
0.0109137014
0.0108440683
0.0107837243
0.010714701
0.0106555134
0.010587104
0.0105290397
0.0104612512
0.0104042747
0.0103371172
0.0102811908
0.0102146769
0.010159761
0.0100939048
0.0100399596
0.00997477336
0.00992176279
0.00985725229
0.00980514953
0.00974130742
0.00969006224
0.00962697354
0.00957704521
0.00951426029
0.009464871
0.00940310468
0.00935417103
0.00929341872
0.00924494533
0.00918518311
0.00913716708
0.00907837628
0.00903081323
0.0089729763
0.00892586293
0.00886896167
0.00882229643
0.00876631167
0.00872009435
0.00866500639
0.00861923732
0.00856502653
0.00851970594
0.00846635328
0.0084214808
0.0083689681
0.00832454265
0.00827285271
0.00822887258
0.00817798905
0.00813445205
0.00808435931
0.00804126301
0.00799194597
0.00794928784
0.00790073188
0.0078585094
0.00781070022
0.00776891101
0.0077218345
0.00768047641
0.0076341185
0.0075931898
0.00754753615
0.00750703577
0.0074620715
0.00742199933
0.0073777087
0.00733806586
0.00729443227
0.00725522108
0.0072122274
0.0071716913
0.00712715006
0.00708663394
0.00704268069
0.00700253858
0.00695915615
0.00691938847
0.0068765617
0.00683716741
0.00679488286
0.00675585968
0.00671410523
0.00667544998
0.00663421445
0.00659592345
0.00655519626
0.00651726559
0.00647703659
0.00643946226
0.00639972167
0.00636249966
0.00632323801
0.00628636436
0.00624757246
0.00621104323
0.00617271218
0.00613652351
0.00609864458
0.0060627928
0.0060253573
0.00598983907
0.00595283815
0.00591765065
0.00588107512
0.00584621624
0.00581005636
0.00577552492
0.00573977033
0.00570556612
0.00567020584
0.00563632963
0.00560135231
0.00556780562
0.00553319979
0.00549826464
0.00546116402
0.00542551982
0.00538911721
0.00535407484
0.00531834885
0.0052839009
0.00524883165
0.00521496969
0.00518053885
0.00514725347
0.00511344413
0.005080725
0.00504752148
0.00501535759
0.00498274515
0.00495112504
0.00491908963
0.00488800166
0.00485652971
0.00482596224
0.00479504048
0.00476498207
0.00473459748
0.00470503691
0.00467517669
0.00464610305
0.0046167546
0.00458815726
0.00455930825
0.00453117683
0.0045028153
0.00447513961
0.004447254
0.00442002397
0.00439260329
0.00436580885
0.0043388428
0.00431247378
0.00428595288
0.00425999895
0.00423391465
0.00420836528
0.00418271004
0.00415755451
0.00413232178
0.00410754931
0.00408273343
0.00405833344
0.00403392937
0.00400989177
0.00398589484
0.00396221034
0.00393846586
0.00391203181
0.00388562966
0.00385945831
0.00383329015
0.00380737607
0.00378144443
0.00375578247
0.0037300898
0.00370467531
0.00367922371
0.00365405277
0.00362884378
0.00360391331
0.00357894788
0.00355425559
0.00352953411
0.00350507841
0.0034806008
0.00345638063
0.0034321465
0.00340816119
0.00338416993
0.00336041903
0.00333666994
0.00331315315
0.0032896455
0.00326636258
0.00324309569
0.0032200464
0.00319701963
0.00317420372
0.00315141651
0.00312883372
0.00310628556
0.00308393563
0.00306162607
0.00303950874
0.00301743729
0.00299555241
0.00297371851
0.00295206606
0.00293046902
0.00290904922
0.00288768808
0.00286650148
0.00284537496
0.00282442257
0.00280352896
0.00278281228
0.00276214947
0.00274167046
0.00272123602
0.00270099675
0.00268078842
0.00266078993
0.00264080674
0.00262104691
0.00260129129
0.00258176205
0.00256224233
0.00254290852
0.00252040846
0.00249622669
0.00247046223
0.00244326962
0.00241434151
0.00238383288
0.00235146343
0.00231734128
0.00228124148
0.00224322215
0.00220310631
0.00216092487
0.00211653035
0.00206995047
0.0020210571
0.00196988759
0.00191633729
0.00186045622
0.00180217485
0.00174156118
0.00167858541
0.00161335924
0.00154586786
0.00147634207
0.00140462447
0.0013309652
0.00125543927
0.00117838931
0.00110002758
0.00102070758
0.000940792799
0.000860744556
0.000781059659
0.000702315618
0.000625139439
0.000550188833
0.000478185648
0.000409786924
0.000345734289
0.000286552304
0.000232899096
0.000185003311
0.000143325532
0.000107670484
7.81622632e-05
5.42215282e-05
3.54715464e-05
2.09902792e-05
1.06430632e-05
9.15995334e-07
9.94495656e-08
9.945038e-08
9.94509175e-08
9.94511914e-08
9.94513299e-08
9.9451406e-08
9.94514339e-08
9.94514452e-08
9.94514488e-08
9.94514499e-08
9.94514502e-08
9.94514503e-08
9.94514503e-08
9.94514503e-08
9.94514503e-08
9.94514503e-08
9.94514503e-08
9.94514503e-08
9.94514503e-08
9.94514503e-08
9.94514503e-08
9.94514503e-08
9.94514503e-08
9.94514503e-08
9.94514503e-08
9.94514503e-08
9.94514503e-08
)
;

boundaryField
{
    closed
    {
        type            calculated;
        value           nonuniform List<scalar> 0();
    }
    open
    {
        type            calculated;
        value           uniform 0;
    }
    sides
    {
        type            empty;
    }
    procBoundary5to4
    {
        type            processor;
        value           uniform 0;
    }
}


// ************************************************************************* //
