/*--------------------------------*- C++ -*----------------------------------*\
| =========                 |                                                 |
| \\      /  F ield         | OpenFOAM: The Open Source CFD Toolbox           |
|  \\    /   O peration     | Version:  2306                                  |
|   \\  /    A nd           | Website:  www.openfoam.com                      |
|    \\/     M anipulation  |                                                 |
\*---------------------------------------------------------------------------*/
FoamFile
{
    version     2.0;
    format      ascii;
    arch        "LSB;label=32;scalar=64";
    class       volVectorField;
    location    "0.00182";
    object      U;
}
// * * * * * * * * * * * * * * * * * * * * * * * * * * * * * * * * * * * * * //

dimensions      [0 1 -1 0 0 0 0];

internalField   nonuniform List<vector> 
530
(
(1.40306469 0 0)
(1.40279765 0 0)
(1.40246203 0 0)
(1.40208349 0 0)
(1.40167324 0 0)
(1.40123239 0 0)
(1.40076 0 0)
(1.40025779 0 0)
(1.39972648 0 0)
(1.39916768 0 0)
(1.39858331 0 0)
(1.39797652 0 0)
(1.39734853 0 0)
(1.39670328 0 0)
(1.3960433 0 0)
(1.39537304 0 0)
(1.39469423 0 0)
(1.39400073 0 0)
(1.39327853 0 0)
(1.39253426 0 0)
(1.39178714 0 0)
(1.3910471 0 0)
(1.39031593 0 0)
(1.3895961 0 0)
(1.38888922 0 0)
(1.38819828 0 0)
(1.38752482 0 0)
(1.38687144 0 0)
(1.38623936 0 0)
(1.38563074 0 0)
(1.38504646 0 0)
(1.38448823 0 0)
(1.38395657 0 0)
(1.38345273 0 0)
(1.38297686 0 0)
(1.38252977 0 0)
(1.38211121 0 0)
(1.38172157 0 0)
(1.3813604 0 0)
(1.38102816 0 0)
(1.3807242 0 0)
(1.38044436 0 0)
(1.38017684 0 0)
(1.37991831 0 0)
(1.37967747 0 0)
(1.37945973 0 0)
(1.37926395 0 0)
(1.37908857 0 0)
(1.37893177 0 0)
(1.37879246 0 0)
(1.37866903 0 0)
(1.37856037 0 0)
(1.37846488 0 0)
(1.37838145 0 0)
(1.37830854 0 0)
(1.37824514 0 0)
(1.37818977 0 0)
(1.37814147 0 0)
(1.37809887 0 0)
(1.37806124 0 0)
(1.37802809 0 0)
(1.37800031 0 0)
(1.37797624 0 0)
(1.3779534 0 0)
(1.37793054 0 0)
(1.37790732 0 0)
(1.37788305 0 0)
(1.37785741 0 0)
(1.37782977 0 0)
(1.37779994 0 0)
(1.3777674 0 0)
(1.37773207 0 0)
(1.37769355 0 0)
(1.37765186 0 0)
(1.37760671 0 0)
(1.37755822 0 0)
(1.37750616 0 0)
(1.37745075 0 0)
(1.37739183 0 0)
(1.37732966 0 0)
(1.37726424 0 0)
(1.37719617 0 0)
(1.37712553 0 0)
(1.37705036 0 0)
(1.37696427 0 0)
(1.37686653 0 0)
(1.37676319 0 0)
(1.37665789 0 0)
(1.37655076 0 0)
(1.37644194 0 0)
(1.37633136 0 0)
(1.3762195 0 0)
(1.37610642 0 0)
(1.3759926 0 0)
(1.37587812 0 0)
(1.37576345 0 0)
(1.37564867 0 0)
(1.37553428 0 0)
(1.37542036 0 0)
(1.37530739 0 0)
(1.37519546 0 0)
(1.37508503 0 0)
(1.37497619 0 0)
(1.3748694 0 0)
(1.37476473 0 0)
(1.3746626 0 0)
(1.37456311 0 0)
(1.37446662 0 0)
(1.37437322 0 0)
(1.37428326 0 0)
(1.37419679 0 0)
(1.37411413 0 0)
(1.3740353 0 0)
(1.3739606 0 0)
(1.37389002 0 0)
(1.37382381 0 0)
(1.37376193 0 0)
(1.37370459 0 0)
(1.37365172 0 0)
(1.37360349 0 0)
(1.37355979 0 0)
(1.37352075 0 0)
(1.37348621 0 0)
(1.37345627 0 0)
(1.37343072 0 0)
(1.37340962 0 0)
(1.37339274 0 0)
(1.37338008 0 0)
(1.37337137 0 0)
(1.37336658 0 0)
(1.3733654 0 0)
(1.37336777 0 0)
(1.37337335 0 0)
(1.37338203 0 0)
(1.37339346 0 0)
(1.37340749 0 0)
(1.37342376 0 0)
(1.37344209 0 0)
(1.37346209 0 0)
(1.37348357 0 0)
(1.37350612 0 0)
(1.37352955 0 0)
(1.37355344 0 0)
(1.37357758 0 0)
(1.37360154 0 0)
(1.37362513 0 0)
(1.3736479 0 0)
(1.37366967 0 0)
(1.37369001 0 0)
(1.37370872 0 0)
(1.37372538 0 0)
(1.37373984 0 0)
(1.37375161 0 0)
(1.37376064 0 0)
(1.37376639 0 0)
(1.37376888 0 0)
(1.37376752 0 0)
(1.37376215 0 0)
(1.37375162 0 0)
(1.37373707 0 0)
(1.37371788 0 0)
(1.37369356 0 0)
(1.37366387 0 0)
(1.37362853 0 0)
(1.37358729 0 0)
(1.37353986 0 0)
(1.37348602 0 0)
(1.37342543 0 0)
(1.37335795 0 0)
(1.37328318 0 0)
(1.37320094 0 0)
(1.37311025 0 0)
(1.37301104 0 0)
(1.37290348 0 0)
(1.37278763 0 0)
(1.3726628 0 0)
(1.37252875 0 0)
(1.37238503 0 0)
(1.37223151 0 0)
(1.37206769 0 0)
(1.37189344 0 0)
(1.37170823 0 0)
(1.37151204 0 0)
(1.37130434 0 0)
(1.37108465 0 0)
(1.37085066 0 0)
(1.37060174 0 0)
(1.37033877 0 0)
(1.37006263 0 0)
(1.36977267 0 0)
(1.36946883 0 0)
(1.36915037 0 0)
(1.36881736 0 0)
(1.3684691 0 0)
(1.36810567 0 0)
(1.36772639 0 0)
(1.36733139 0 0)
(1.36691999 0 0)
(1.36649235 0 0)
(1.36604783 0 0)
(1.36558664 0 0)
(1.36510813 0 0)
(1.36461258 0 0)
(1.36409937 0 0)
(1.36356884 0 0)
(1.36302039 0 0)
(1.36245442 0 0)
(1.36187036 0 0)
(1.36126869 0 0)
(1.36064885 0 0)
(1.3600114 0 0)
(1.35935581 0 0)
(1.35868272 0 0)
(1.35799163 0 0)
(1.35728325 0 0)
(1.35655711 0 0)
(1.35581399 0 0)
(1.35505346 0 0)
(1.35427636 0 0)
(1.35348231 0 0)
(1.3526722 0 0)
(1.35184567 0 0)
(1.35100367 0 0)
(1.35014591 0 0)
(1.34927336 0 0)
(1.34838576 0 0)
(1.34748414 0 0)
(1.34656829 0 0)
(1.34563927 0 0)
(1.34469692 0 0)
(1.3437423 0 0)
(1.34277531 0 0)
(1.341797 0 0)
(1.34080729 0 0)
(1.3398072 0 0)
(1.33879666 0 0)
(1.33777676 0 0)
(1.33674745 0 0)
(1.33571013 0 0)
(1.33466494 0 0)
(1.33361484 0 0)
(1.33256068 0 0)
(1.33146875 0 0)
(1.33041139 0 0)
(1.32935493 0 0)
(1.32825035 0 0)
(1.32716761 0 0)
(1.3260796 0 0)
(1.32498759 0 0)
(1.32389279 0 0)
(1.3227965 0 0)
(1.32169913 0 0)
(1.32060177 0 0)
(1.31950475 0 0)
(1.31840906 0 0)
(1.31731502 0 0)
(1.31622358 0 0)
(1.31513513 0 0)
(1.31405064 0 0)
(1.31297055 0 0)
(1.31189584 0 0)
(1.31082704 0 0)
(1.30976514 0 0)
(1.30871071 0 0)
(1.30766478 0 0)
(1.30662795 0 0)
(1.30560127 0 0)
(1.30458541 0 0)
(1.3035814 0 0)
(1.30258996 0 0)
(1.30161214 0 0)
(1.3006487 0 0)
(1.29970068 0 0)
(1.29876888 0 0)
(1.29785433 0 0)
(1.29695784 0 0)
(1.29608044 0 0)
(1.29522295 0 0)
(1.29438635 0 0)
(1.29357145 0 0)
(1.2927792 0 0)
(1.29201039 0 0)
(1.2912659 0 0)
(1.29054647 0 0)
(1.2898529 0 0)
(1.28918588 0 0)
(1.28854611 0 0)
(1.28793419 0 0)
(1.2873507 0 0)
(1.28679615 0 0)
(1.28627107 0 0)
(1.28577583 0 0)
(1.28531038 0 0)
(1.28487343 0 0)
(1.28446634 0 0)
(1.2840906 0 0)
(1.28374531 0 0)
(1.28343034 0 0)
(1.28314558 0 0)
(1.28289074 0 0)
(1.28266544 0 0)
(1.28246919 0 0)
(1.28230143 0 0)
(1.28216148 0 0)
(1.28204858 0 0)
(1.28196187 0 0)
(1.28190043 0 0)
(1.28186322 0 0)
(1.28184915 0 0)
(1.28185702 0 0)
(1.28188558 0 0)
(1.28193351 0 0)
(1.28199944 0 0)
(1.28208192 0 0)
(1.28217947 0 0)
(1.28229057 0 0)
(1.28241366 0 0)
(1.28254716 0 0)
(1.28268949 0 0)
(1.28283902 0 0)
(1.28299418 0 0)
(1.28315335 0 0)
(1.28331498 0 0)
(1.28347751 0 0)
(1.28363943 0 0)
(1.28379927 0 0)
(1.28395562 0 0)
(1.28410713 0 0)
(1.28425249 0 0)
(1.2843905 0 0)
(1.28452001 0 0)
(1.28463997 0 0)
(1.28474942 0 0)
(1.28484749 0 0)
(1.28493342 0 0)
(1.28500654 0 0)
(1.28506624 0 0)
(1.2851119 0 0)
(1.28514347 0 0)
(1.28516078 0 0)
(1.2851634 0 0)
(1.28515141 0 0)
(1.28512493 0 0)
(1.28508414 0 0)
(1.28502933 0 0)
(1.28496088 0 0)
(1.28487926 0 0)
(1.28478505 0 0)
(1.2846789 0 0)
(1.28456153 0 0)
(1.28443374 0 0)
(1.28429641 0 0)
(1.28415047 0 0)
(1.2839969 0 0)
(1.28383674 0 0)
(1.28367106 0 0)
(1.28350098 0 0)
(1.28332765 0 0)
(1.28315222 0 0)
(1.28297589 0 0)
(1.28279984 0 0)
(1.28262528 0 0)
(1.2824534 0 0)
(1.28228539 0 0)
(1.28212245 0 0)
(1.28196574 0 0)
(1.28181641 0 0)
(1.28167558 0 0)
(1.28154435 0 0)
(1.2814238 0 0)
(1.28131497 0 0)
(1.28121885 0 0)
(1.28113643 0 0)
(1.28106863 0 0)
(1.28101634 0 0)
(1.28098042 0 0)
(1.28096169 0 0)
(1.28096093 0 0)
(1.28097887 0 0)
(1.28101622 0 0)
(1.28107364 0 0)
(1.28115177 0 0)
(1.28125119 0 0)
(1.28137248 0 0)
(1.28151616 0 0)
(1.28168274 0 0)
(1.28187271 0 0)
(1.28208651 0 0)
(1.28232449 0 0)
(1.28258695 0 0)
(1.2828749 0 0)
(1.28319132 0 0)
(1.28353429 0 0)
(1.2839011 0 0)
(1.28429391 0 0)
(1.28471369 0 0)
(1.28516077 0 0)
(1.28563544 0 0)
(1.28613799 0 0)
(1.28666877 0 0)
(1.28722813 0 0)
(1.28781641 0 0)
(1.28843396 0 0)
(1.28908116 0 0)
(1.28975836 0 0)
(1.29046594 0 0)
(1.2912043 0 0)
(1.29197385 0 0)
(1.29277499 0 0)
(1.29360816 0 0)
(1.29447381 0 0)
(1.29537239 0 0)
(1.29630438 0 0)
(1.29727026 0 0)
(1.29827055 0 0)
(1.29930578 0 0)
(1.30037647 0 0)
(1.3014832 0 0)
(1.30262652 0 0)
(1.30380705 0 0)
(1.30502538 0 0)
(1.30628215 0 0)
(1.30757801 0 0)
(1.30891361 0 0)
(1.31028964 0 0)
(1.31170681 0 0)
(1.31316584 0 0)
(1.31466746 0 0)
(1.31621244 0 0)
(1.31780155 0 0)
(1.31943559 0 0)
(1.32111537 0 0)
(1.32284173 0 0)
(1.32461553 0 0)
(1.32643762 0 0)
(1.32830891 0 0)
(1.33023029 0 0)
(1.33220269 0 0)
(1.33422704 0 0)
(1.33630431 0 0)
(1.33843546 0 0)
(1.34062146 0 0)
(1.34286332 0 0)
(1.34516203 0 0)
(1.34751861 0 0)
(1.34993406 0 0)
(1.35240941 0 0)
(1.35494568 0 0)
(1.35754389 0 0)
(1.36020508 0 0)
(1.36293019 0 0)
(1.3657198 0 0)
(1.36857735 0 0)
(1.37161014 0 0)
(1.3749427 0 0)
(1.37860861 0 0)
(1.38264678 0 0)
(1.38710216 0 0)
(1.39202574 0 0)
(1.39747527 0 0)
(1.40351609 0 0)
(1.41022203 0 0)
(1.41767627 0 0)
(1.42597198 0 0)
(1.43521275 0 0)
(1.4455125 0 0)
(1.4569944 0 0)
(1.46978841 0 0)
(1.48402671 0 0)
(1.49983612 0 0)
(1.51732652 0 0)
(1.53657429 0 0)
(1.55759987 0 0)
(1.58033921 0 0)
(1.60460996 0 0)
(1.63007573 0 0)
(1.65621771 0 0)
(1.68233258 0 0)
(1.70751017 0 0)
(1.73068883 0 0)
(1.75079465 0 0)
(1.76684915 0 0)
(1.77811463 0 0)
(1.78420118 0 0)
(1.78507995 0 0)
(1.78098261 0 0)
(1.77222965 0 0)
(1.75908708 0 0)
(1.74175417 0 0)
(1.72055394 0 0)
(1.69633193 0 0)
(1.67083764 0 0)
(1.646793 0 0)
(1.62756953 0 0)
(1.61619411 0 0)
(1.61547768 0 0)
(1.62742559 0 0)
(1.65182889 0 0)
(1.68364001 0 0)
(1.71647645 0 0)
(1.74653633 0 0)
(1.77367699 0 0)
(1.80326108 0 0)
(1.84613939 0 0)
(1.90745819 0 0)
(1.94610485 0 0)
(1.9717992 0 0)
(2.01101974 0 0)
(1.88884984 0 0)
(1.55905228 0 0)
(1.28235117 0 0)
(1.27291902 0 0)
(1.42543828 0 0)
(1.59627737 0 0)
(1.73783648 0 0)
(1.80432804 0 0)
(1.73541151 0 0)
(1.59911711 0 0)
(1.45298796 0 0)
(1.36036679 0 0)
(1.30582993 0 0)
(1.30938028 0 0)
(1.32771311 0 0)
(1.39301106 0 0)
(1.38753632 0 0)
(1.28618216 0 0)
(1.33116883 0 0)
(1.68475343 0 0)
(1.90109325 0 0)
(1.75614784 0 0)
)
;

boundaryField
{
    closed
    {
        type            noSlip;
    }
    open
    {
        type            inletOutlet;
        inletValue      uniform (0 0 0);
        value           uniform (1.75614784 0 0);
    }
    sides
    {
        type            empty;
    }
    procBoundary5to4
    {
        type            processor;
        value           uniform (1.40325634 0 0);
    }
}


// ************************************************************************* //
