/*--------------------------------*- C++ -*----------------------------------*\
| =========                 |                                                 |
| \\      /  F ield         | OpenFOAM: The Open Source CFD Toolbox           |
|  \\    /   O peration     | Version:  2306                                  |
|   \\  /    A nd           | Website:  www.openfoam.com                      |
|    \\/     M anipulation  |                                                 |
\*---------------------------------------------------------------------------*/
FoamFile
{
    version     2.0;
    format      ascii;
    arch        "LSB;label=32;scalar=64";
    class       volScalarField;
    location    "0.00192";
    object      prefDh_H2;
}
// * * * * * * * * * * * * * * * * * * * * * * * * * * * * * * * * * * * * * //

dimensions      [1 1 -3 0 0 0 0];

internalField   nonuniform List<scalar> 
530
(
2988.56461
2963.80552
2964.77653
3014.25454
3007.13029
2982.72463
2985.85805
3016.95791
3029.29414
3017.8567
3003.92733
3013.13965
3048.85137
3048.69276
3020.8012
3018.64375
3062.77189
3059.05462
3035.39911
3033.22175
3074.9366
3072.02433
3048.71123
3048.10653
3087.3968
3085.72274
3061.04421
3062.20223
3099.50617
3099.37933
3073.12956
3075.72517
3111.17428
3112.49972
3085.72689
3088.82742
3122.50488
3125.47305
3097.94842
3101.85006
3133.7322
3136.19346
3109.56381
3114.56049
3144.64637
3147.61405
3121.18344
3126.50836
3155.0062
3158.92181
3132.88974
3137.77714
3165.72853
3169.72407
3144.65543
3148.44207
3176.66628
3180.05683
3156.41166
3158.65445
3187.85969
3189.58857
3166.44293
3168.90851
3199.02785
3198.98772
3175.8013
3177.83011
3207.80419
3207.58895
3184.76009
3186.45031
3215.86659
3215.92806
3193.23831
3195.23159
3223.49448
3223.9433
3201.15771
3203.82925
3230.80451
3231.81978
3209.11492
3212.15098
3238.20491
3239.57018
3217.06017
3220.35926
3245.61863
3247.18186
3224.82485
3228.38228
3253.02075
3254.64276
3232.24054
3236.293
3260.74251
3262.05314
3239.89236
3243.84271
3268.68036
3269.78951
3248.32731
3251.8192
3276.73183
3277.7805
3256.55539
3260.33402
3284.34598
3285.81675
3264.27391
3268.8799
3292.07201
3294.11041
3272.13242
3277.25084
3301.36985
3303.57697
3281.10018
3286.37515
3318.39217
3321.03195
3296.85117
3300.18641
3310.68169
3314.18453
3322.46545
3324.01275
3308.5413
3311.82017
3336.49439
3337.23654
3314.86829
3317.59621
3342.1693
3342.71652
3322.19205
3324.57581
3348.90218
3349.41268
3329.784
3332.08529
3356.14598
3356.56786
3337.49259
3339.66607
3363.6529
3364.01466
3345.34238
3347.49137
3371.39633
3371.70324
3353.25537
3355.49259
3378.93831
3379.48557
3360.90146
3363.73591
3386.22028
3387.45895
3368.41399
3371.96322
3393.70981
3395.47033
3376.28773
3380.03333
3401.43287
3403.34187
3384.37135
3388.08131
3409.36503
3411.13193
3392.49397
3396.04557
3418.02689
3419.09899
3401.20181
3404.12304
3426.9112
3427.73779
3410.38046
3413.24966
3436.06554
3436.72896
3419.68229
3422.48294
3445.29373
3445.8695
3428.96497
3432.04387
3454.98357
3455.15919
3438.35061
3441.4605
3464.39772
3464.61527
3447.54992
3450.96596
3473.72616
3474.21635
3456.8723
3460.34779
3482.62195
3483.75889
3466.1536
3469.82252
3491.96197
3493.19743
3475.89613
3479.12509
3500.99956
3502.33713
3485.37516
3488.27026
3509.74376
3510.84282
3494.22608
3496.95348
3518.27651
3519.23283
3502.65659
3505.45135
3526.61675
3527.44573
3511.27446
3514.25067
3534.93824
3535.59458
3519.55044
3522.55412
3542.37852
3543.82578
3527.59562
3531.03388
3550.26813
3552.02255
3535.90869
3539.46384
3558.15587
3560.10104
3544.06052
3547.93125
3565.81201
3568.17299
3551.99781
3556.34919
3573.42344
3576.12456
3559.80408
3564.69293
3581.04942
3584.04827
3567.66534
3572.91011
3588.8071
3592.02087
3575.8553
3581.15176
3596.67666
3599.9983
3584.03126
3589.40121
3604.63877
3607.9037
3592.19469
3597.48975
3612.65051
3615.6974
3600.3359
3605.42736
3620.72974
3623.37113
3608.46768
3613.14543
3628.88919
3630.84702
3616.68996
3620.61335
3636.84165
3638.18328
3624.8348
3628.01297
3644.51957
3645.51537
3632.57067
3635.40748
3651.85945
3652.73648
3639.93701
3642.6873
3658.8561
3659.81642
3647.00937
3649.83105
3665.50253
3666.8178
3653.82927
3656.90912
3671.91957
3673.67719
3660.50553
3663.94658
3678.1079
3680.26602
3667.07558
3670.70647
3684.19613
3686.19389
3673.48128
3677.02631
3690.50707
3692.66562
3680.19231
3683.69595
3697.19857
3699.15194
3687.00018
3690.60542
3704.21185
3705.89551
3693.97317
3696.92669
3711.23313
3712.06523
3700.51252
3703.34148
3717.76078
3718.17453
3706.45886
3710.30306
3723.72759
3724.25385
3711.75507
3716.53687
3728.91208
3730.0478
3717.25323
3722.36577
3734.04781
3735.47817
3722.85875
3727.89681
3739.13341
3740.66825
3728.26441
3733.31574
3744.1594
3745.64039
3733.5534
3738.58766
3749.08171
3750.48967
3738.71974
3743.76749
3753.89004
3755.17566
3743.86018
3748.74079
3758.6085
3759.74095
3748.97345
3753.66604
3763.24745
3764.18402
3753.92885
3758.45385
3767.84608
3768.49937
3758.84667
3763.05801
3772.1971
3772.6587
3763.75004
3767.50227
3776.29859
3776.68953
3768.57566
3771.79624
3780.32501
3780.60348
3773.24633
3775.99901
3784.18169
3784.41916
3777.5813
3780.48549
3787.99389
3788.11918
3781.53435
3784.5977
3791.51692
3791.6852
3785.52837
3788.42953
3794.91946
3795.08134
3789.37432
3792.0934
3798.18431
3798.34395
3793.05769
3795.60895
3801.31606
3801.475
3796.58273
3798.97847
3804.31597
3804.47751
3799.94355
3802.20595
3807.18117
3807.35401
3803.13014
3805.30684
3809.91722
3810.09984
3806.15968
3808.12257
3812.4652
3812.70707
3809.11676
3810.87325
3814.98367
3815.17433
3811.96568
3813.52886
3817.44696
3817.52855
3814.73602
3815.9939
3819.72602
3819.77298
3817.26161
3818.39785
3821.89312
3821.94355
3819.65486
3820.73779
3823.94618
3824.01611
3821.84457
3822.98577
3825.88764
3825.9872
3823.94244
3825.01112
3827.77319
3827.92447
3826.17331
3827.05987
3829.99436
3830.07712
3828.40499
3829.31328
3831.71613
3832.29815
3831.69812
3832.43863
3832.98196
3833.7809
3834.06938
3834.93977
3835.31748
3836.23841
3836.66376
3837.62087
3838.10393
3839.08129
3839.6236
3840.6021
3841.2021
3842.15926
3842.81097
3843.72153
3844.4138
3845.25049
3845.96875
3846.70136
3847.43716
3848.02721
3848.65782
3849.14795
3849.74546
3850.18246
3850.63334
3850.98218
3851.29759
3851.54492
3851.74567
3851.89949
3852.01172
3852.09333
3852.14582
3852.18153
3852.20101
3852.21445
3852.21122
3852.20219
3852.19598
3852.19149
3852.18877
3852.18719
3852.18638
3852.18599
3852.18582
3852.18575
3852.18572
3852.18571
3852.18571
3852.18571
3852.18571
3852.18571
3852.18571
3852.18571
3852.18571
3852.18571
3852.18571
3852.18571
3852.18571
3852.18571
3852.18571
3852.18571
3852.18571
3852.18571
3852.18571
3852.18571
3852.18571
3852.18571
3852.18571
3852.18571
)
;

boundaryField
{
    closed
    {
        type            calculated;
        value           nonuniform List<scalar> 0();
    }
    open
    {
        type            calculated;
        value           uniform 3852.18571;
    }
    sides
    {
        type            empty;
    }
    procBoundary5to4
    {
        type            processor;
        value           uniform 2991.79117;
    }
}


// ************************************************************************* //
