/*--------------------------------*- C++ -*----------------------------------*\
| =========                 |                                                 |
| \\      /  F ield         | OpenFOAM: The Open Source CFD Toolbox           |
|  \\    /   O peration     | Version:  2306                                  |
|   \\  /    A nd           | Website:  www.openfoam.com                      |
|    \\/     M anipulation  |                                                 |
\*---------------------------------------------------------------------------*/
FoamFile
{
    version     2.0;
    format      ascii;
    arch        "LSB;label=32;scalar=64";
    class       volScalarField;
    location    "0.00192";
    object      prefDPV_H2;
}
// * * * * * * * * * * * * * * * * * * * * * * * * * * * * * * * * * * * * * //

dimensions      [1 -1 -1 0 0 0 0];

internalField   nonuniform List<scalar> 
530
(
-8.6467218e-05
-8.60787036e-05
-8.61242423e-05
-8.66955787e-05
-8.66334345e-05
-8.62735145e-05
-8.63255525e-05
-8.66786079e-05
-8.68316858e-05
-8.66457094e-05
-8.64942808e-05
-8.65592497e-05
-8.70065838e-05
-8.69925874e-05
-8.66543785e-05
-8.65890979e-05
-8.71274742e-05
-8.70992872e-05
-8.67898711e-05
-8.67234187e-05
-8.72339555e-05
-8.7216135e-05
-8.69106889e-05
-8.68639308e-05
-8.73443338e-05
-8.73379276e-05
-8.70205399e-05
-8.69978576e-05
-8.7451972e-05
-8.74585465e-05
-8.71271204e-05
-8.71267429e-05
-8.75556335e-05
-8.75744993e-05
-8.72370154e-05
-8.72528115e-05
-8.76563618e-05
-8.76892704e-05
-8.73422202e-05
-8.73796179e-05
-8.77566883e-05
-8.77845827e-05
-8.74402455e-05
-8.75032338e-05
-8.7855108e-05
-8.78860833e-05
-8.75406892e-05
-8.76160748e-05
-8.79473002e-05
-8.79866654e-05
-8.76456188e-05
-8.77196881e-05
-8.80423675e-05
-8.80820159e-05
-8.77542269e-05
-8.78152663e-05
-8.81395413e-05
-8.81728214e-05
-8.78641883e-05
-8.79049757e-05
-8.82397727e-05
-8.82568752e-05
-8.79576744e-05
-8.79957301e-05
-8.83407458e-05
-8.83408293e-05
-8.80434812e-05
-8.80744285e-05
-8.84190485e-05
-8.84174639e-05
-8.81249074e-05
-8.81509168e-05
-8.84912422e-05
-8.84919571e-05
-8.82008732e-05
-8.82300316e-05
-8.85597947e-05
-8.85638116e-05
-8.82708772e-05
-8.83074782e-05
-8.86257229e-05
-8.86345609e-05
-8.83420009e-05
-8.83821525e-05
-8.86924741e-05
-8.87041747e-05
-8.84136517e-05
-8.84560213e-05
-8.87584276e-05
-8.87717975e-05
-8.84835767e-05
-8.8528291e-05
-8.88243495e-05
-8.88382195e-05
-8.85499002e-05
-8.8599694e-05
-8.88930536e-05
-8.89043117e-05
-8.86183708e-05
-8.86673921e-05
-8.89636367e-05
-8.89732396e-05
-8.86936764e-05
-8.87386422e-05
-8.9035238e-05
-8.90443516e-05
-8.87667904e-05
-8.88148914e-05
-8.9103233e-05
-8.91159089e-05
-8.88341274e-05
-8.88918315e-05
-8.91721751e-05
-8.91896072e-05
-8.89036359e-05
-8.89671509e-05
-8.9254092e-05
-8.92729286e-05
-8.89876327e-05
-8.90518898e-05
-8.93958954e-05
-8.94214664e-05
-8.91457244e-05
-8.91884889e-05
-8.92926139e-05
-8.93310696e-05
-8.94153309e-05
-8.94309987e-05
-8.92586851e-05
-8.92960942e-05
-8.9558975e-05
-8.95651976e-05
-8.93080617e-05
-8.93412905e-05
-8.96106806e-05
-8.96153213e-05
-8.93701042e-05
-8.93994473e-05
-8.96707914e-05
-8.96751628e-05
-8.94355671e-05
-8.94642669e-05
-8.97350053e-05
-8.97386534e-05
-8.95025653e-05
-8.95297312e-05
-8.98013314e-05
-8.98044818e-05
-8.95714106e-05
-8.95981284e-05
-8.98695602e-05
-8.98722533e-05
-8.96409835e-05
-8.96686034e-05
-8.99361251e-05
-8.99407853e-05
-8.97073739e-05
-8.97417341e-05
-8.99999181e-05
-9.0010146e-05
-8.97722589e-05
-8.98146142e-05
-9.0065073e-05
-9.00795208e-05
-8.98410858e-05
-8.98855175e-05
-9.01321144e-05
-9.01477558e-05
-8.991219e-05
-8.99559061e-05
-9.02008252e-05
-9.02153192e-05
-8.99835255e-05
-9.00252614e-05
-9.0275522e-05
-9.02843166e-05
-9.00599108e-05
-9.0095559e-05
-9.03519675e-05
-9.03588065e-05
-9.01397875e-05
-9.01745651e-05
-9.04305656e-05
-9.04361051e-05
-9.02206417e-05
-9.02542306e-05
-9.05097368e-05
-9.05145848e-05
-9.03011429e-05
-9.03371203e-05
-9.05925582e-05
-9.05942149e-05
-9.03824965e-05
-9.04184024e-05
-9.06721404e-05
-9.06741289e-05
-9.04614468e-05
-9.05004429e-05
-9.07509334e-05
-9.07551009e-05
-9.05413443e-05
-9.05809017e-05
-9.08262586e-05
-9.0835559e-05
-9.0620535e-05
-9.06620688e-05
-9.09050636e-05
-9.0915094e-05
-9.07044752e-05
-9.07411047e-05
-9.09813e-05
-9.09921562e-05
-9.07858587e-05
-9.0818581e-05
-9.10550811e-05
-9.10639831e-05
-9.08611428e-05
-9.08916206e-05
-9.11270117e-05
-9.11348284e-05
-9.0932037e-05
-9.09628706e-05
-9.11973044e-05
-9.12041146e-05
-9.10046389e-05
-9.10370179e-05
-9.12672478e-05
-9.12726202e-05
-9.10735639e-05
-9.11061998e-05
-9.13293999e-05
-9.1340955e-05
-9.11402076e-05
-9.11772766e-05
-9.13949529e-05
-9.14088864e-05
-9.12097035e-05
-9.12477746e-05
-9.14603678e-05
-9.14757745e-05
-9.12776228e-05
-9.13186939e-05
-9.15238211e-05
-9.15424837e-05
-9.13435206e-05
-9.13892489e-05
-9.15867969e-05
-9.16081072e-05
-9.14080941e-05
-9.14591372e-05
-9.16497859e-05
-9.16733783e-05
-9.14729986e-05
-9.15278213e-05
-9.17136832e-05
-9.17389282e-05
-9.15404058e-05
-9.15961525e-05
-9.17783283e-05
-9.18043902e-05
-9.16078203e-05
-9.16641249e-05
-9.18435716e-05
-9.18691527e-05
-9.16752617e-05
-9.17305992e-05
-9.19090653e-05
-9.19329128e-05
-9.17426813e-05
-9.17956633e-05
-9.19745793e-05
-9.19950728e-05
-9.1810237e-05
-9.18586391e-05
-9.20401813e-05
-9.20553808e-05
-9.18788084e-05
-9.19192834e-05
-9.21040469e-05
-9.21144863e-05
-9.19465908e-05
-9.19793717e-05
-9.21656754e-05
-9.21734531e-05
-9.20103712e-05
-9.20395764e-05
-9.22245838e-05
-9.2231446e-05
-9.20705232e-05
-9.20987969e-05
-9.22807453e-05
-9.22882314e-05
-9.21278326e-05
-9.21568257e-05
-9.23341085e-05
-9.23442944e-05
-9.21827523e-05
-9.22143824e-05
-9.23855987e-05
-9.23991547e-05
-9.22364163e-05
-9.22716768e-05
-9.24352033e-05
-9.24518297e-05
-9.22892158e-05
-9.23263577e-05
-9.24839226e-05
-9.24993063e-05
-9.2340128e-05
-9.23765776e-05
-9.25342301e-05
-9.25508252e-05
-9.23944346e-05
-9.24303936e-05
-9.25872952e-05
-9.26023237e-05
-9.24500355e-05
-9.24868773e-05
-9.26426718e-05
-9.26556826e-05
-9.2507568e-05
-9.25377264e-05
-9.2697953e-05
-9.27043884e-05
-9.25610135e-05
-9.25897451e-05
-9.27488817e-05
-9.27521761e-05
-9.26086751e-05
-9.26473689e-05
-9.27954455e-05
-9.27996596e-05
-9.26501132e-05
-9.26981169e-05
-9.28360104e-05
-9.28448597e-05
-9.26936997e-05
-9.27450228e-05
-9.28761461e-05
-9.28872021e-05
-9.27385843e-05
-9.27891224e-05
-9.29158217e-05
-9.29276491e-05
-9.27817901e-05
-9.2832329e-05
-9.29549518e-05
-9.29663667e-05
-9.28241388e-05
-9.28742929e-05
-9.29932118e-05
-9.30040814e-05
-9.28655645e-05
-9.29156831e-05
-9.30305282e-05
-9.30404755e-05
-9.29070347e-05
-9.29553669e-05
-9.30670909e-05
-9.30758779e-05
-9.294848e-05
-9.29948005e-05
-9.31029745e-05
-9.31102857e-05
-9.29886471e-05
-9.30331308e-05
-9.31384809e-05
-9.31436475e-05
-9.30286326e-05
-9.3069918e-05
-9.31720443e-05
-9.31757556e-05
-9.30687963e-05
-9.31054127e-05
-9.32036602e-05
-9.32068212e-05
-9.31083323e-05
-9.31397042e-05
-9.32346495e-05
-9.32369386e-05
-9.31465944e-05
-9.31733673e-05
-9.32642927e-05
-9.32662644e-05
-9.31818234e-05
-9.32100189e-05
-9.32935215e-05
-9.32946698e-05
-9.32135775e-05
-9.32432859e-05
-9.33205181e-05
-9.33219939e-05
-9.32459397e-05
-9.32740564e-05
-9.33465644e-05
-9.33479821e-05
-9.32770867e-05
-9.33034237e-05
-9.33715212e-05
-9.33729128e-05
-9.33068806e-05
-9.33315789e-05
-9.3395425e-05
-9.33968021e-05
-9.33353602e-05
-9.33585416e-05
-9.34182892e-05
-9.3419675e-05
-9.33624648e-05
-9.33843482e-05
-9.34400957e-05
-9.34415546e-05
-9.33880722e-05
-9.34091434e-05
-9.34608865e-05
-9.346241e-05
-9.3412254e-05
-9.34313342e-05
-9.34802264e-05
-9.34821794e-05
-9.34359492e-05
-9.34530107e-05
-9.34993068e-05
-9.35008612e-05
-9.34588181e-05
-9.34739745e-05
-9.3517937e-05
-9.35186556e-05
-9.3481129e-05
-9.34933032e-05
-9.35351225e-05
-9.35355575e-05
-9.35012741e-05
-9.35122523e-05
-9.3551325e-05
-9.35517769e-05
-9.35203422e-05
-9.35307814e-05
-9.35666472e-05
-9.35672433e-05
-9.35376437e-05
-9.35486123e-05
-9.35811099e-05
-9.35819241e-05
-9.35542606e-05
-9.35644754e-05
-9.35951351e-05
-9.35963191e-05
-9.35724245e-05
-9.35808003e-05
-9.36116286e-05
-9.36122768e-05
-9.35909989e-05
-9.35994488e-05
-9.36216797e-05
-9.36268199e-05
-9.36194524e-05
-9.36259514e-05
-9.36297819e-05
-9.36366796e-05
-9.36379159e-05
-9.3645367e-05
-9.36473585e-05
-9.36551922e-05
-9.36575222e-05
-9.36656093e-05
-9.36683831e-05
-9.36765781e-05
-9.3679827e-05
-9.36879587e-05
-9.36916924e-05
-9.36995637e-05
-9.37037586e-05
-9.37111532e-05
-9.3715745e-05
-9.37224371e-05
-9.37273311e-05
-9.37330817e-05
-9.3738223e-05
-9.37427413e-05
-9.3747208e-05
-9.37508775e-05
-9.37551232e-05
-9.37583425e-05
-9.37615175e-05
-9.37640484e-05
-9.37662382e-05
-9.37680018e-05
-9.37693667e-05
-9.37704391e-05
-9.37711785e-05
-9.37717298e-05
-9.37720585e-05
-9.37722897e-05
-9.3772402e-05
-9.37724881e-05
-9.37724436e-05
-9.37723594e-05
-9.3772303e-05
-9.37722637e-05
-9.37722405e-05
-9.37722273e-05
-9.37722206e-05
-9.37722174e-05
-9.37722161e-05
-9.37722155e-05
-9.37722153e-05
-9.37722153e-05
-9.37722152e-05
-9.37722152e-05
-9.37722152e-05
-9.37722152e-05
-9.37722152e-05
-9.37722152e-05
-9.37722152e-05
-9.37722152e-05
-9.37722152e-05
-9.37722152e-05
-9.37722152e-05
-9.37722152e-05
-9.37722152e-05
-9.37722152e-05
-9.37722152e-05
-9.37722152e-05
-9.37722152e-05
-9.37722152e-05
-9.37722152e-05
-9.37722152e-05
-9.37722152e-05
-9.37722152e-05
)
;

boundaryField
{
    closed
    {
        type            calculated;
        value           nonuniform List<scalar> 0();
    }
    open
    {
        type            calculated;
        value           uniform -9.37722152e-05;
    }
    sides
    {
        type            empty;
    }
    procBoundary5to4
    {
        type            processor;
        value           uniform -8.64952377e-05;
    }
}


// ************************************************************************* //
