/*--------------------------------*- C++ -*----------------------------------*\
| =========                 |                                                 |
| \\      /  F ield         | OpenFOAM: The Open Source CFD Toolbox           |
|  \\    /   O peration     | Version:  2306                                  |
|   \\  /    A nd           | Website:  www.openfoam.com                      |
|    \\/     M anipulation  |                                                 |
\*---------------------------------------------------------------------------*/
FoamFile
{
    version     2.0;
    format      ascii;
    arch        "LSB;label=32;scalar=64";
    class       volScalarField;
    location    "0.00196";
    object      PV;
}
// * * * * * * * * * * * * * * * * * * * * * * * * * * * * * * * * * * * * * //

dimensions      [0 0 0 0 0 0 0];

internalField   nonuniform List<scalar> 
531
(
-0.00695255684
-0.0068767683
-0.00688169349
-0.00701446698
-0.00711383314
-0.007079585
-0.00687637199
-0.00687461227
-0.00705447536
-0.00710978358
-0.00711513465
-0.00709064917
-0.00687520324
-0.0068778265
-0.0070684481
-0.00712607656
-0.00708180019
-0.00687775525
-0.00687751662
-0.00704816807
-0.00711873926
-0.00708191691
-0.00687802374
-0.00687820509
-0.00704533596
-0.00711808052
-0.00708371908
-0.00687902432
-0.00687872322
-0.00704486004
-0.00711825181
-0.00708607031
-0.00687995336
-0.00687902594
-0.00704975141
-0.00712117373
-0.00709136733
-0.00688049185
-0.00687978629
-0.00707067961
-0.00714359092
-0.00710766932
-0.00689634126
-0.00688176768
-0.00689238855
-0.00688324277
-0.0069736189
-0.00711097322
-0.00713519076
-0.00711791221
-0.0068843666
-0.00687792054
-0.00709525025
-0.0071031398
-0.00688367847
-0.00688167711
-0.00707257831
-0.00713545747
-0.00710613258
-0.00688474923
-0.00687718021
-0.00708739516
-0.00709373334
-0.00688213258
-0.00688204627
-0.00705181625
-0.0071240466
-0.00709819956
-0.00688423265
-0.00687506586
-0.00709730228
-0.00709019404
-0.00689060394
-0.00687794637
-0.00689005402
-0.00702589858
-0.00711126806
-0.00710071392
-0.00712526961
-0.00710775083
-0.00687749593
-0.00688045335
-0.00705217387
-0.00712573837
-0.00709806453
-0.00688135584
-0.00687485135
-0.0071008554
-0.00709028443
-0.00689067126
-0.00687963543
-0.00689175729
-0.00698412504
-0.00710503204
-0.00710308172
-0.00712119387
-0.0071055617
-0.00687454119
-0.00687998493
-0.00704907132
-0.00712331677
-0.00709546227
-0.00687430039
-0.00688098979
-0.00703872971
-0.0071225443
-0.00707845816
-0.00688089971
-0.00687819718
-0.00688413399
-0.00699947787
-0.00710686338
-0.00711697059
-0.00710647563
-0.00687369886
-0.00688173692
-0.00705188589
-0.00712582479
-0.00709573
-0.00687475406
-0.00687807524
-0.00703785051
-0.00710096235
-0.00705100395
-0.00697259706
-0.00706381133
-0.00706261344
-0.00690801706
-0.00687563836
-0.00689179582
-0.00706037088
-0.00713840107
-0.0071092953
-0.00687895642
-0.00687870055
-0.00710726004
-0.00710912301
-0.00687427795
-0.00688436108
-0.00706085164
-0.00713825378
-0.00711270797
-0.00687898902
-0.00688006711
-0.00710271068
-0.00710469619
-0.0068751377
-0.00688531287
-0.00705561864
-0.00713647528
-0.007114062
-0.00688011957
-0.0068810803
-0.00710956167
-0.0071094263
-0.00687908779
-0.00688297231
-0.00710908092
-0.0071065351
-0.00687948952
-0.00688341434
-0.00710922427
-0.00709695153
-0.00687827569
-0.00687939921
-0.00697000448
-0.00708781576
-0.00712952243
-0.00701883668
-0.00688187353
-0.0070777939
-0.00709535276
-0.00687536684
-0.00687891203
-0.00688505443
-0.00703984396
-0.00710786466
-0.0070926049
-0.00711385283
-0.00707048374
-0.00695419845
-0.00708068458
-0.00707838768
-0.0068805444
-0.00687469534
-0.00688985735
-0.00706761849
-0.00713968688
-0.00705756593
-0.00693927996
-0.00707614451
-0.00708634068
-0.00687575589
-0.00687591597
-0.00688743266
-0.00705183925
-0.0071252239
-0.00706184121
-0.00695283415
-0.0070767536
-0.00708238721
-0.00687778673
-0.0068758091
-0.00688851419
-0.00705228368
-0.00712166568
-0.00706328751
-0.00696631458
-0.00707628086
-0.00707618124
-0.00687890475
-0.00687650269
-0.00689144538
-0.00704752196
-0.00713864209
-0.00711522081
-0.00687896031
-0.00688350605
-0.00702611097
-0.00711702672
-0.0071031738
-0.00687705741
-0.00688086579
-0.00702497149
-0.00709791272
-0.00711638379
-0.00710853204
-0.00687550512
-0.00688274477
-0.00703356946
-0.00712340293
-0.00711102091
-0.00687569217
-0.00688237188
-0.00703072135
-0.00712039869
-0.00710838355
-0.00687589381
-0.00688251157
-0.00702828125
-0.00711963753
-0.00710734717
-0.0068756293
-0.00688354266
-0.007032558
-0.00712645031
-0.00704479131
-0.00688214831
-0.0070617402
-0.00710093382
-0.00688438995
-0.00687989828
-0.00689170887
-0.0070495774
-0.00713675387
-0.0071182743
-0.00687903388
-0.00688181861
-0.00703673747
-0.0071218885
-0.00711466352
-0.0068763429
-0.00688373581
-0.00703106114
-0.0071333738
-0.00710420181
-0.00687884719
-0.00687717033
-0.00688052922
-0.00704202329
-0.00710360582
-0.00711382878
-0.00707532658
-0.00694771856
-0.00706298295
-0.00709097808
-0.00687859487
-0.00687420212
-0.007082005
-0.00709336711
-0.00687898281
-0.00687955425
-0.00703938776
-0.00712140685
-0.00711507801
-0.0068820093
-0.00687921412
-0.0070101848
-0.00709260138
-0.007117448
-0.00704113194
-0.00688077516
-0.0070377701
-0.00709987479
-0.00688517162
-0.00687888705
-0.00707768605
-0.00709110424
-0.00688574724
-0.00688185364
-0.00703111488
-0.00711635461
-0.00711560662
-0.00688504117
-0.00688269757
-0.00702513923
-0.00712039171
-0.007119497
-0.00688362307
-0.00688220657
-0.0070295582
-0.00712604825
-0.00711950405
-0.00688563956
-0.00687733751
-0.00696160422
-0.00707194513
-0.00707361844
-0.00702872533
-0.00709228178
-0.00708429064
-0.00688820707
-0.00687737354
-0.00688012657
-0.00708710329
-0.0070869098
-0.00690732047
-0.00704608775
-0.00709910498
-0.0068874203
-0.00687822966
-0.00703374668
-0.00708987887
-0.00711535995
-0.00708107047
-0.00692614439
-0.0070560505
-0.0071031976
-0.0068906094
-0.00687738955
-0.00708505002
-0.0070924114
-0.00689222945
-0.00687892199
-0.00688565155
-0.00701315595
-0.0070936068
-0.00711362615
-0.00709088378
-0.00694824744
-0.00706135933
-0.00710063173
-0.00689290126
-0.0068770104
-0.00707910138
-0.00710200471
-0.0069062409
-0.00687716211
-0.0070700513
-0.00709250469
-0.00690087324
-0.00687842237
-0.0070362062
-0.00708993913
-0.0071247282
-0.00708508408
-0.0068857172
-0.00702489425
-0.00710917546
-0.00690672976
-0.00688092681
-0.00707056105
-0.00709664433
-0.00689972042
-0.00688286405
-0.00702274227
-0.00712060209
-0.00711349916
-0.00689444248
-0.00687822864
-0.00706405764
-0.00709029893
-0.00690419708
-0.00687784781
-0.00704452211
-0.00709544387
-0.00712698493
-0.00712317815
-0.00688804054
-0.00687978314
-0.00688289694
-0.00703237659
-0.00713010689
-0.00712580356
-0.00688892817
-0.00688100518
-0.00703708309
-0.00712123179
-0.00711709305
-0.00688996876
-0.00687743862
-0.0070658668
-0.0070880252
-0.0068923378
-0.00687851102
-0.00701101871
-0.00709398277
-0.00709471485
-0.00712060328
-0.00711462056
-0.00689295559
-0.00687657177
-0.00707203019
-0.00709280037
-0.00689476734
-0.0068759592
-0.00706680002
-0.00708452926
-0.0068952705
-0.00687698446
-0.00704766534
-0.00709297887
-0.00712109366
-0.00706879473
-0.0068843659
-0.00704649057
-0.00711091911
-0.00689576716
-0.00687890989
-0.00708594237
-0.00710436795
-0.00689707851
-0.00687755807
-0.0070775844
-0.00709458329
-0.00689721734
-0.00687899705
-0.00703043467
-0.00708913415
-0.00709865165
-0.00706819052
-0.00688635294
-0.00687793085
-0.00703571407
-0.00711099545
-0.00708710509
-0.00688852426
-0.00687840778
-0.00704690711
-0.0071197358
-0.0070931016
-0.00688960252
-0.00687554426
-0.00708207448
-0.00711019227
-0.00689999117
-0.0068811439
-0.00705387202
-0.00711855505
-0.00711110391
-0.00688955478
-0.0068787439
-0.00704985931
-0.00711550056
-0.00710954347
-0.0068874279
-0.00687872185
-0.00705589886
-0.00712116673
-0.00711268476
-0.006887892
-0.00687691892
-0.00707502452
-0.00709775414
-0.00689531473
-0.00687968909
-0.00705194208
-0.00712194919
-0.0070871527
-0.00688801257
-0.00687583125
-0.00687580178
-0.00704015838
-0.00710098597
-0.00710496432
-0.00710509661
-0.00689137753
-0.00688053667
-0.00707020957
-0.0071298068
-0.00699986607
-0.00688364547
-0.00706425559
-0.0071055287
-0.00689419008
-0.00688272713
-0.00706969699
-0.00712799115
-0.00710711356
-0.00689104138
-0.0068745684
-0.00709574165
-0.00706605968
-0.00688233543
-0.00706596588
-0.00709262592
-0.00689450106
-0.00688045036
-0.00688049389
-0.00702689797
-0.00710042244
-0.00710450364
-0.00710198035
-0.00688309828
-0.0068781359
-0.00705940931
-0.00710993217
-0.00708716102
-0.00688368125
-0.00687693403
-0.0070657438
-0.00711194641
-0.00709064788
-0.0068825147
-0.0068772495
-0.00707398394
-0.00711932781
-0.00709699674
-0.00688316598
-0.00687566495
-0.00708794906
)
;

boundaryField
{
    closed
    {
        type            zeroGradient;
    }
    open
    {
        type            zeroGradient;
    }
    sides
    {
        type            empty;
    }
    procBoundary1to0
    {
        type            processor;
        value           uniform -0.00711463669;
    }
    procBoundary1to2
    {
        type            processor;
        value           uniform -0.00709777595;
    }
}


// ************************************************************************* //
