/*--------------------------------*- C++ -*----------------------------------*\
| =========                 |                                                 |
| \\      /  F ield         | OpenFOAM: The Open Source CFD Toolbox           |
|  \\    /   O peration     | Version:  2306                                  |
|   \\  /    A nd           | Website:  www.openfoam.com                      |
|    \\/     M anipulation  |                                                 |
\*---------------------------------------------------------------------------*/
FoamFile
{
    version     2.0;
    format      ascii;
    arch        "LSB;label=32;scalar=64";
    class       volScalarField;
    location    "0.00132";
    object      prefDh_H;
}
// * * * * * * * * * * * * * * * * * * * * * * * * * * * * * * * * * * * * * //

dimensions      [1 1 -3 0 0 0 0];

internalField   nonuniform List<scalar> 
530
(
92610.2469
92680.5916
92744.4447
92812.1711
92873.6413
92938.917
92998.1774
93061.1708
93118.3734
93179.2533
93234.5377
93291.119
93341.8386
93395.9059
93444.9503
93497.1477
93544.5839
93595.024
93640.9175
93689.7046
93734.1232
93781.3523
93824.3671
93870.1244
93911.8094
93956.3286
93999.006
94044.7799
94084.9248
94127.768
94166.277
94207.8154
94245.0024
94285.2755
94321.2007
94360.2484
94394.966
94432.8301
94466.3883
94503.1121
94535.5553
94571.1827
94602.5518
94637.1271
94667.4611
94701.029
94730.3643
94762.9701
94791.3411
94823.0313
94850.4694
94881.2923
94907.8252
94937.8316
94963.4831
94991.7712
95015.418
95042.5466
95065.3556
95091.6489
95113.6232
95139.1143
95160.2594
95184.9768
95205.3001
95229.2691
95248.779
95272.023
95290.7282
95313.2698
95331.1786
95353.0398
95370.1603
95391.3623
95407.7029
95428.2645
95443.8364
95463.7716
95478.5906
95497.9055
95511.9959
95530.6847
95544.0832
95562.125
95574.8833
95592.2416
95604.4273
95621.0524
95632.7459
95648.5766
95659.8683
95674.6471
95685.7442
95699.5834
95710.4198
95723.425
95734.1905
95746.1615
95756.8674
95767.836
95778.4649
95788.3982
95798.4427
95807.0662
95816.9129
95824.6543
95834.2415
95841.1606
95850.4348
95856.5837
95865.502
95870.924
95879.4559
95884.1869
95892.2291
95896.303
95903.9968
95907.4148
95914.6797
95917.4678
95924.2884
95926.4717
95932.8306
95934.4326
95940.3139
95941.355
95946.746
95947.2432
95952.135
95952.1017
95956.4892
95955.9356
95959.8168
95958.7508
95962.1259
95960.5539
95963.4246
95961.3517
95963.721
95961.1519
95963.0229
95959.9621
95961.3384
95957.7903
95958.6757
95954.6447
95955.0428
95950.5338
95950.4481
95945.4662
95944.9003
95939.4506
95938.4079
95932.4959
95930.98
95924.6112
95922.6256
95915.8057
95913.3541
95906.0888
95903.1748
95895.4697
95892.0973
95883.9578
95880.1311
95871.5628
95867.2859
95858.294
95853.5718
95844.1616
95838.9995
95829.1764
95823.5814
95813.3517
95807.3315
95796.7032
95790.2661
95779.2504
95772.4025
95761.0149
95753.7583
95742.0208
95734.3485
95722.3043
95714.1785
95701.9924
95693.3826
95680.808
95671.7199
95658.9154
95649.2711
95636.2959
95626.0877
95612.955
95602.2
95588.9073
95577.6362
95564.1731
95552.4229
95538.776
95526.5836
95512.7401
95500.1388
95486.0889
95473.107
95458.8445
95445.5064
95431.028
95417.4108
95402.8082
95388.8761
95374.0494
95359.7942
95344.7414
95330.1766
95314.898
95300.0354
95284.5324
95269.3833
95253.6586
95238.2335
95222.2902
95206.5993
95190.4413
95174.4948
95158.0314
95141.7292
95125.0422
95108.5045
95091.6192
95074.8558
95057.7776
95040.798
95023.5327
95006.346
94988.8999
94971.5152
94953.8946
94936.321
94918.5325
94900.7786
94882.8291
94864.9038
94846.8002
94828.7121
94810.4615
94792.2193
94773.8291
94755.4411
94736.9186
94718.3935
94699.7461
94681.0922
94662.3275
94643.5532
94624.6787
94605.7925
94586.8158
94567.8261
94548.7546
94529.6698
94510.5112
94491.3396
94472.1408
94452.9266
94433.6429
94414.3372
94394.9695
94375.5813
94356.1379
94336.6761
94317.1653
94297.6386
94278.0688
94258.4859
94238.8654
94219.2347
94199.5719
94179.902
94160.2051
94140.5043
94120.7816
94101.058
94081.3176
94061.5796
94041.8296
94022.0852
94002.3333
93982.5906
93962.8448
93943.1116
93923.3796
93903.6637
93883.953
93864.2623
93844.5803
93824.9223
93805.2765
93785.6584
93766.0562
93746.4853
93726.934
93707.4171
93687.924
93668.3322
93648.757
93629.2298
93609.7398
93590.3009
93570.9024
93551.5575
93532.2565
93513.0114
93493.8136
93474.674
93455.5849
93436.5565
93417.5815
93398.6697
93379.8142
93361.0242
93342.2933
93323.6304
93305.0291
93286.4983
93268.0314
93249.6375
93231.3099
93213.0575
93194.8737
93176.7674
93158.7319
93140.7761
93122.8931
93105.092
93087.3658
93069.7234
93052.1579
93034.6782
93017.2773
92999.964
92982.7313
92965.588
92948.5271
92931.5573
92914.6715
92897.8785
92881.1711
92864.5579
92848.0319
92831.6016
92815.26
92799.0153
92782.8608
92766.8045
92750.8396
92734.9743
92719.2013
92703.5296
92687.9506
92672.4747
92657.0917
92641.8139
92626.6554
92611.6436
92596.7221
92581.9032
92567.1769
92552.5533
92538.0243
92523.5983
92509.2685
92495.0423
92480.9133
92466.8888
92452.9623
92439.141
92425.4185
92411.8019
92398.2848
92384.8741
92371.5634
92358.3597
92345.2565
92332.2607
92319.3658
92306.5786
92293.8927
92281.3147
92268.8383
92256.47
92244.2035
92232.0451
92219.9887
92208.0404
92196.194
92184.4557
92172.8194
92161.291
92149.8644
92138.5455
92127.3285
92116.2187
92105.2105
92094.3092
92083.5094
92072.8158
92062.2237
92051.737
92041.3517
92031.0708
92020.887
92010.6497
92000.5157
91990.4875
91980.5616
91970.741
91961.0217
91951.407
91941.8926
91932.4821
91923.1711
91913.9631
91904.8537
91895.8462
91886.9365
91878.1278
91869.4159
91860.8038
91852.2877
91843.8704
91835.548
91827.3232
91819.1924
91811.158
91803.2166
91795.3704
91787.6161
91779.9558
91772.3863
91764.9096
91757.5226
91750.2271
91743.0203
91735.9035
91728.8743
91721.9339
91715.0799
91708.3134
91701.6321
91695.0369
91688.5257
91682.0925
91675.5093
91668.5566
91661.2204
91653.4901
91645.3536
91636.8029
91627.829
91618.4279
91608.5956
91598.3334
91587.6442
91576.5368
91565.0232
91553.1219
91540.8565
91528.2574
91515.3625
91502.2162
91488.8729
91475.3923
91461.8466
91448.3111
91434.8751
91421.6274
91408.6707
91396.1023
91384.031
91372.5529
91361.7711
91351.7677
91342.6247
91334.3952
91327.1243
91320.8237
91315.4888
91311.0824
91307.5462
91304.7982
91302.736
91301.2542
91300.2329
91299.5739
91299.1781
91298.9572
91298.8851
91298.7305
91298.5922
91298.4863
91298.4577
91298.437
91298.4309
91298.429
91298.4281
91298.4279
91298.4278
91298.4278
91298.4278
91298.4278
91298.4278
91298.4278
91298.4278
91298.4278
91298.4278
91298.4278
91298.4278
91298.4278
91298.4278
91298.4278
91298.4278
91298.4278
91298.4278
91298.4278
91298.4278
91298.4278
91298.4278
91298.4278
91298.4278
)
;

boundaryField
{
    closed
    {
        type            calculated;
        value           nonuniform List<scalar> 0();
    }
    open
    {
        type            calculated;
        value           uniform 91298.4278;
    }
    sides
    {
        type            empty;
    }
    procBoundary5to4
    {
        type            processor;
        value           uniform 92543.8157;
    }
}


// ************************************************************************* //
