/*--------------------------------*- C++ -*----------------------------------*\
| =========                 |                                                 |
| \\      /  F ield         | OpenFOAM: The Open Source CFD Toolbox           |
|  \\    /   O peration     | Version:  2306                                  |
|   \\  /    A nd           | Website:  www.openfoam.com                      |
|    \\/     M anipulation  |                                                 |
\*---------------------------------------------------------------------------*/
FoamFile
{
    version     2.0;
    format      ascii;
    arch        "LSB;label=32;scalar=64";
    class       volScalarField;
    location    "0.0001";
    object      p;
}
// * * * * * * * * * * * * * * * * * * * * * * * * * * * * * * * * * * * * * //

dimensions      [1 -1 -2 0 0 0 0];

internalField   nonuniform List<scalar> 
531
(
101640.26
101637.469
101634.671
101631.87
101629.073
101626.284
101623.51
101620.756
101618.03
101615.338
101612.686
101610.081
101607.53
101605.04
101602.617
101600.269
101598.002
101595.822
101593.736
101591.75
101589.87
101588.101
101586.448
101584.915
101583.507
101582.227
101581.079
101580.064
101579.184
101578.44
101577.833
101577.362
101577.027
101576.825
101576.754
101576.811
101576.992
101577.292
101577.707
101578.231
101578.857
101579.579
101580.389
101581.28
101582.245
101583.275
101584.362
101585.498
101586.675
101587.884
101589.119
101590.372
101591.635
101592.902
101594.166
101595.424
101596.67
101597.899
101599.11
101600.3
101601.469
101602.615
101603.74
101604.846
101605.937
101607.015
101608.087
101609.158
101610.236
101611.328
101612.445
101613.594
101614.788
101616.036
101617.351
101618.745
101620.229
101621.817
101623.521
101625.353
101627.325
101629.449
101631.736
101634.197
101636.841
101639.677
101642.711
101645.951
101649.401
101653.064
101656.941
101661.033
101665.337
101669.849
101674.563
101679.472
101684.565
101689.83
101695.253
101700.819
101706.51
101712.307
101718.187
101724.129
101730.108
101736.1
101742.077
101748.012
101753.878
101759.647
101765.289
101770.778
101776.083
101781.179
101786.037
101790.632
101794.94
101798.936
101802.598
101805.907
101808.843
101811.392
101813.537
101815.268
101816.574
101817.448
101817.885
101817.881
101817.437
101816.555
101815.238
101813.493
101811.329
101808.755
101805.784
101802.431
101798.711
101794.641
101790.239
101785.526
101780.523
101775.249
101769.729
101763.984
101758.038
101751.914
101745.635
101739.224
101732.705
101726.1
101719.431
101712.719
101705.986
101699.251
101692.533
101685.851
101679.221
101672.66
101666.183
101659.803
101653.533
101647.384
101641.367
101635.49
101629.763
101624.192
101618.782
101613.538
101608.465
101603.565
101598.841
101594.293
101589.923
101585.73
101581.714
101577.873
101574.206
101570.71
101567.384
101564.225
101561.229
101558.395
101555.719
101553.198
101550.829
101548.608
101546.534
101544.602
101542.811
101541.156
101539.637
101538.25
101536.992
101535.862
101534.857
101533.975
101533.213
101532.57
101532.043
101531.629
101531.326
101531.132
101531.042
101531.055
101531.167
101531.373
101531.67
101532.053
101532.517
101533.056
101533.665
101534.337
101535.066
101535.844
101536.662
101537.514
101538.39
101539.281
101540.177
101541.07
101541.948
101542.802
101543.621
101544.394
101545.112
101545.764
101546.339
101546.828
101547.221
101547.509
101547.682
101547.734
101547.657
101547.443
101547.087
101546.584
101545.931
101545.124
101544.161
101543.041
101541.766
101540.337
101538.756
101537.027
101535.156
101533.149
101531.014
101528.759
101526.394
101523.93
101521.377
101518.75
101516.06
101513.323
101510.551
101507.762
101504.969
101502.188
101499.435
101496.726
101494.075
101491.498
101489.01
101486.625
101484.356
101482.215
101480.213
101478.363
101476.672
101475.148
101473.798
101472.628
101471.64
101470.836
101470.217
101469.781
101469.526
101469.446
101469.536
101469.788
101470.193
101470.74
101471.417
101472.212
101473.111
101474.099
101475.16
101476.28
101477.441
101478.628
101479.826
101481.017
101482.188
101483.323
101484.41
101485.436
101486.39
101487.262
101488.044
101488.731
101489.317
101489.8
101490.179
101490.456
101490.634
101490.719
101490.719
101490.641
101490.499
101490.306
101490.076
101489.825
101489.573
101489.337
101489.14
101489.001
101488.944
101488.991
101489.164
101489.488
101489.984
101490.677
101491.588
101492.738
101494.149
101495.839
101497.827
101500.13
101502.761
101505.735
101509.063
101512.752
101516.81
101521.242
101526.048
101531.229
101536.782
101542.7
101548.976
101555.6
101562.558
101569.835
101577.414
101585.273
101593.393
101601.748
101610.314
101619.063
101627.967
101636.996
101646.119
101655.305
101664.522
101673.738
101682.918
101692.033
101701.048
101709.932
101718.654
101727.184
101735.492
101743.551
101751.333
101758.813
101765.968
101772.776
101779.216
101785.27
101790.921
101796.155
101800.96
101805.325
101809.241
101812.701
101815.703
101818.241
101820.317
101821.93
101823.085
101823.784
101824.035
101823.845
101823.224
101822.182
101820.73
101818.882
101816.652
101814.055
101811.107
101807.824
101804.224
101800.325
101796.145
101791.703
101787.017
101782.108
101776.994
101771.695
101766.23
101760.617
101754.876
101749.024
101743.08
101737.061
101730.985
101724.867
101718.724
101712.571
101706.423
101700.294
101694.198
101688.147
101682.155
101676.233
101670.393
101664.647
101659.005
101653.478
101648.078
101642.814
101637.697
101632.739
101627.949
101623.341
101618.924
101614.711
101610.715
101606.949
101603.425
101600.159
101597.164
101594.455
101592.048
101589.958
101588.201
101586.791
101585.746
101585.078
101584.804
101584.936
101585.488
101586.47
101587.891
101589.76
101592.082
101594.86
101598.095
101601.783
101605.919
101610.493
101615.494
101620.904
101626.704
101632.87
101639.375
101646.187
101653.273
101660.595
101668.111
101675.78
101683.555
101691.39
101699.236
101707.043
101714.762
101722.343
101729.737
101736.897
101743.776
101750.332
101756.522
101762.31
101767.661
101772.544
101776.933
101780.806
101784.145
101786.936
101789.17
101790.844
101791.956
101792.51
101792.515
101791.98
101790.921
101789.355
101787.302
101784.783
101781.824
101778.449
101774.684
101770.558
101766.097
101761.329
101756.281
101750.981
101745.454
101739.724
101733.817
101727.754
101721.557
101715.245
101708.836
101702.348
101695.794
101689.189
101682.545
101675.871
101669.178
101662.472
101655.761
101649.05
101642.343
101635.643
101628.954
101622.276
101615.61
101608.957
101602.317
101595.687
101589.066
101582.453
101575.845
101569.24
101562.635
101556.026
101549.412
101542.789
101536.154
101529.506
101522.843
)
;

boundaryField
{
    closed
    {
        type            zeroGradient;
    }
    open
    {
        type            waveTransmissive;
        gamma           1.25;
        fieldInf        101325;
        lInf            1;
        value           nonuniform List<scalar> 0();
    }
    sides
    {
        type            empty;
    }
    procBoundary3to2
    {
        type            processor;
        value           uniform 101643.039;
    }
    procBoundary3to4
    {
        type            processor;
        value           uniform 101516.164;
    }
}


// ************************************************************************* //
