/*--------------------------------*- C++ -*----------------------------------*\
| =========                 |                                                 |
| \\      /  F ield         | OpenFOAM: The Open Source CFD Toolbox           |
|  \\    /   O peration     | Version:  2306                                  |
|   \\  /    A nd           | Website:  www.openfoam.com                      |
|    \\/     M anipulation  |                                                 |
\*---------------------------------------------------------------------------*/
FoamFile
{
    version     2.0;
    format      ascii;
    arch        "LSB;label=32;scalar=64";
    class       volScalarField;
    location    "0.00176";
    object      PV;
}
// * * * * * * * * * * * * * * * * * * * * * * * * * * * * * * * * * * * * * //

dimensions      [0 0 0 0 0 0 0];

internalField   nonuniform List<scalar> 
531
(
-0.00690489684
-0.0070547711
-0.00715959783
-0.00715183722
-0.0069070739
-0.00690133563
-0.00690537351
-0.00697011275
-0.00712187126
-0.00712627425
-0.00716509162
-0.00715824096
-0.00690563126
-0.00689666565
-0.00712963409
-0.00712794037
-0.00690555918
-0.00689598729
-0.00690394269
-0.00705541844
-0.00716479583
-0.00715816199
-0.00690096868
-0.00689786265
-0.00689791943
-0.00707755103
-0.00712839845
-0.00716741359
-0.00716265293
-0.00690508497
-0.0068970943
-0.00714765305
-0.00715585303
-0.00690696252
-0.00689790787
-0.00690507031
-0.00689713476
-0.0070949138
-0.00712966538
-0.00690124486
-0.00689806558
-0.0070760219
-0.00712241053
-0.00715644608
-0.00715552833
-0.00690181242
-0.00690047988
-0.00690040954
-0.0070857739
-0.00713081904
-0.0069026472
-0.00689780451
-0.00711328249
-0.00711111183
-0.00690163074
-0.00706923945
-0.00714878666
-0.00690079599
-0.0069005162
-0.00690054923
-0.00703102513
-0.00712032427
-0.00715102543
-0.00714734005
-0.00690217127
-0.00689703646
-0.00690144666
-0.00705723528
-0.00714951823
-0.00714501415
-0.00689898102
-0.00689893795
-0.00703647521
-0.00714906842
-0.00714148236
-0.00690020119
-0.00705846648
-0.00715876693
-0.00689728451
-0.00690116726
-0.00707552275
-0.00717664878
-0.00716968167
-0.00690341585
-0.00690036752
-0.00690208449
-0.00690115732
-0.00701364519
-0.00715020466
-0.00714668159
-0.00690123154
-0.0068972016
-0.00690127
-0.00706152992
-0.00714335586
-0.00713842495
-0.00689916392
-0.00689881147
-0.00704348192
-0.00714822104
-0.00713872149
-0.00689988679
-0.00705879599
-0.00715586268
-0.00689703126
-0.0069004182
-0.00707341953
-0.0071639304
-0.00715824365
-0.00690019764
-0.00689897983
-0.00689935587
-0.00709949519
-0.00713254101
-0.00718083062
-0.00717771859
-0.00690644882
-0.00690131372
-0.00690773055
-0.00689995049
-0.00713286218
-0.0071470917
-0.00690790767
-0.00689969756
-0.00690824192
-0.00689838761
-0.00690624087
-0.00708267338
-0.007164322
-0.0071569501
-0.00690288989
-0.00690138272
-0.00709717074
-0.00719222738
-0.00718807933
-0.00690416457
-0.00690393785
-0.00690397653
-0.00712773274
-0.00716102001
-0.00690490994
-0.00690301511
-0.00690429818
-0.00690166854
-0.00707379829
-0.00713481994
-0.00716753368
-0.00716479787
-0.00690460166
-0.00690049289
-0.00690558828
-0.0070966763
-0.00720168208
-0.00719020888
-0.00690720038
-0.0069014012
-0.00690582879
-0.00690051268
-0.00690269053
-0.00709546025
-0.0071367994
-0.0071803707
-0.00717960105
-0.00690429562
-0.00690202989
-0.00690436371
-0.00690058905
-0.00690174644
-0.00708820549
-0.00713119057
-0.00716903986
-0.00716739751
-0.00690382227
-0.00690153153
-0.0069030618
-0.00690036798
-0.00707103023
-0.00713236228
-0.00716462536
-0.00716161365
-0.00690384116
-0.00690054586
-0.00690306198
-0.00689928425
-0.00705870623
-0.00712296927
-0.00715068759
-0.00714613734
-0.00690315294
-0.0068982705
-0.0071240135
-0.00714025188
-0.00690198937
-0.00689949533
-0.00711637318
-0.00714636193
-0.00690007664
-0.00690271663
-0.00708777474
-0.00717942967
-0.00717071124
-0.00690512476
-0.00690094998
-0.00690420375
-0.00690017834
-0.00690145705
-0.00706488645
-0.00711737793
-0.00714894796
-0.00714627096
-0.00690263457
-0.00689878198
-0.00713307222
-0.00713144099
-0.00690151545
-0.00689895526
-0.00690057168
-0.00709488917
-0.00714269861
-0.00717881707
-0.00717896725
-0.00690263012
-0.0069032497
-0.00690088487
-0.00690324201
-0.00708369517
-0.00719366043
-0.00718455137
-0.00690565566
-0.0068999022
-0.00690440821
-0.00689856091
-0.00711205863
-0.00711846937
-0.00690221242
-0.00709541245
-0.00715713576
-0.00690093567
-0.00690136686
-0.0069011821
-0.0070663038
-0.00714276113
-0.00716807882
-0.00716710668
-0.00690318173
-0.0069016492
-0.00690205978
-0.00690079836
-0.00707585841
-0.00713528146
-0.0071633871
-0.00716334598
-0.00690288341
-0.00690272523
-0.00690281786
-0.00711915722
-0.00715241949
-0.00690378623
-0.00690343512
-0.00690314881
-0.00690277846
-0.00699868283
-0.00712958595
-0.00712920859
-0.00716590105
-0.0071605098
-0.00690418602
-0.00689821809
-0.00713526597
-0.00714643626
-0.00690361401
-0.00689898281
-0.00714184233
-0.00714337566
-0.00690324502
-0.006902407
-0.00690220251
-0.00713184087
-0.00714941093
-0.00690593871
-0.00690258147
-0.00690705553
-0.00690187385
-0.00695846348
-0.00712362598
-0.0071361399
-0.00716445701
-0.00716179818
-0.00690325408
-0.00689864754
-0.00713359722
-0.00713100936
-0.00690285978
-0.00689802647
-0.00690248479
-0.00702943272
-0.00714480969
-0.00713269987
-0.00718180742
-0.00717783528
-0.00690358066
-0.00690199977
-0.00690143899
-0.00690189175
-0.00710352713
-0.00716636984
-0.00689800244
-0.00690408711
-0.00709317883
-0.00690430274
-0.0068945316
-0.00710982605
-0.0071243457
-0.00716357923
-0.00716075241
-0.0069013751
-0.00689986845
-0.00689989923
-0.00711446708
-0.00712326793
-0.00689990624
-0.0070978426
-0.00715657145
-0.00690038142
-0.00689978015
-0.0068996872
-0.00709373829
-0.00714506662
-0.00689816727
-0.00690116612
-0.00707253644
-0.00715387585
-0.00714807911
-0.00690079038
-0.00689777999
-0.007104605
-0.00713619473
-0.00689766952
-0.00690037215
-0.00707120909
-0.00715359575
-0.00714613139
-0.00690215652
-0.00689559152
-0.00711519571
-0.0071279184
-0.00690125401
-0.00689625719
-0.00712460622
-0.00712278542
-0.00690042282
-0.00689669796
-0.00689866888
-0.00705752215
-0.00715037773
-0.00714799716
-0.00689790372
-0.00689850948
-0.00707856555
-0.00715977267
-0.0071526935
-0.0069007869
-0.00689439224
-0.00711654089
-0.00713310196
-0.00690057007
-0.00689483027
-0.00712043366
-0.00712631052
-0.00690048223
-0.00689566959
-0.00712043374
-0.00711882251
-0.00690055994
-0.0070420724
-0.00715839013
-0.0068981944
-0.00690098022
-0.0070777825
-0.00716487962
-0.00715418356
-0.00690210511
-0.00689998769
-0.00690015504
-0.00710563567
-0.00712623864
-0.00690100238
-0.00689940226
-0.00689935133
-0.00708411752
-0.00715814588
-0.00715454981
-0.00690053354
-0.0068989638
-0.00707436001
-0.0071504955
-0.00714713611
-0.00689908959
-0.0068977214
-0.00707949634
-0.00715454944
-0.00715131954
-0.00689866694
-0.00689822326
-0.00709005009
-0.00717228583
-0.0071660031
-0.00690139713
-0.00689682513
-0.0068998586
-0.00689597647
-0.00708481731
-0.00711939414
-0.00690008746
-0.00689558655
-0.00709908179
-0.00710866825
-0.00689920774
-0.00689572431
-0.0070374758
-0.00710101745
-0.00713019167
-0.0071254553
-0.00689985454
-0.00689444013
-0.00710310412
-0.00711644904
-0.0068982567
-0.00689504458
-0.00707452067
-0.0071140272
-0.00714013222
-0.00713686782
-0.00689985551
-0.00689511221
-0.00712726624
-0.00712505885
-0.00690063171
-0.00689624172
-0.00689928249
-0.00701877486
-0.00715186692
-0.00714135523
-0.00689766973
-0.00710330616
-0.00714147059
-0.00689818058
-0.00689688286
-0.00689721103
-0.00705034976
-0.00715265709
-0.00713860933
-0.00689751586
-0.00710335518
-0.0071420753
-0.00689854938
-0.00689725106
-0.00689783578
-0.00706740124
-0.00715821143
-0.00714318501
-0.00689920095
-0.00711063304
-0.00715072599
-0.00689999482
-0.00689904732
-0.00689894021
-0.00709645996
-0.00714430546
-0.00690022512
-0.00689864335
-0.00712452426
-0.00712451483
-0.00690017453
-0.00689823229
-0.00689824657
-0.00706358446
-0.0071313698
-0.00715148741
-0.00714894061
-0.006901129
-0.00689727692
-0.00714019283
-0.00713908652
-0.00690004961
-0.00689791215
-0.00689798203
-0.00710028626
-0.00713980984
-0.00689901183
-0.00689731203
-0.00710636836
-0.00712496056
-0.00689833817
-0.00689661182
-0.00708056961
-0.00711835561
-0.00714080319
-0.0071369778
-0.0069005619
-0.00689506574
-0.00711927358
-0.00712865179
-0.0069000482
-0.00689495116
-0.00711431488
-0.00712323659
-0.00689915298
-0.00689513881
-0.00710619254
-0.00711757763
-0.00689768323
-0.00689606865
-0.00707285184
-0.00711367293
-0.00713485849
-0.00713359404
-0.00689841233
-0.0068974239
-0.00710892708
-0.0071354469
-0.00689725341
-0.00690074038
-0.00707993706
-0.00715851937
-0.00714956471
-0.00690330591
-0.00689633308
-0.00713535206
-0.00713731219
-0.00690240873
)
;

boundaryField
{
    closed
    {
        type            zeroGradient;
    }
    open
    {
        type            zeroGradient;
    }
    sides
    {
        type            empty;
    }
    procBoundary3to2
    {
        type            processor;
        value           uniform -0.00689764702;
    }
    procBoundary3to4
    {
        type            processor;
        value           uniform -0.0068978349;
    }
}


// ************************************************************************* //
