/*--------------------------------*- C++ -*----------------------------------*\
| =========                 |                                                 |
| \\      /  F ield         | OpenFOAM: The Open Source CFD Toolbox           |
|  \\    /   O peration     | Version:  2306                                  |
|   \\  /    A nd           | Website:  www.openfoam.com                      |
|    \\/     M anipulation  |                                                 |
\*---------------------------------------------------------------------------*/
FoamFile
{
    version     2.0;
    format      ascii;
    arch        "LSB;label=32;scalar=64";
    class       volScalarField;
    location    "0.00176";
    object      Z;
}
// * * * * * * * * * * * * * * * * * * * * * * * * * * * * * * * * * * * * * //

dimensions      [0 0 0 0 0 0 0];

internalField   nonuniform List<scalar> 
531
(
0.014097812
0.0145594323
0.0148888657
0.0148764897
0.0141243696
0.0140907558
0.0140989456
0.0143073751
0.0147698495
0.0147924295
0.0149146387
0.0149035842
0.0141280104
0.0140855079
0.0147982269
0.0148007604
0.0141328611
0.0140736654
0.01410346
0.0145659677
0.0149147203
0.0149027021
0.0141149758
0.014081195
0.0140859227
0.0146318028
0.0148024337
0.014927274
0.0149202737
0.0141335231
0.0140909202
0.014858541
0.0148941126
0.0141429141
0.0140879814
0.0141099128
0.0140842017
0.0146802532
0.0148017382
0.0141072102
0.0140802214
0.0146239048
0.0147750445
0.0148886233
0.0148868229
0.0141203881
0.0140820534
0.0140946147
0.0146502725
0.0148034834
0.014110545
0.0140770334
0.0147410191
0.0147363562
0.0141108945
0.0146023119
0.0148613587
0.0141150223
0.0140814771
0.0140919709
0.0144823567
0.0147702131
0.0148690078
0.0148639543
0.0141170725
0.014077177
0.0140931794
0.0145706653
0.0148643987
0.0148579411
0.0141029993
0.0140892949
0.0145064708
0.0148668544
0.014846899
0.0141097136
0.0145748061
0.0149007973
0.0141023481
0.0140990275
0.0146303635
0.0149534788
0.0149406847
0.014122077
0.0140943256
0.0140998663
0.0140927453
0.0144337744
0.0148655165
0.0148611701
0.0141080919
0.0140770319
0.014089283
0.0145839114
0.0148434294
0.0148359736
0.0141012633
0.0140883365
0.0145279824
0.014864226
0.014837913
0.0141080013
0.0145758983
0.0148919423
0.0141001149
0.0140964711
0.0146241748
0.014914162
0.0149036253
0.0141083538
0.0140839161
0.0140871593
0.0146996033
0.0148106427
0.0149675987
0.014963035
0.0141354895
0.0140968071
0.0141160261
0.0140908808
0.0147991016
0.0148554075
0.0141320517
0.0140812316
0.0141137418
0.0140742861
0.0140941824
0.0146436392
0.0149037077
0.0148913392
0.0141093655
0.0140967775
0.0146895577
0.0150015728
0.014993533
0.0141218453
0.0140959688
0.014105365
0.0147862958
0.0148997553
0.0141245066
0.01409476
0.0141010773
0.0140909568
0.0146103851
0.0148140431
0.0149201554
0.0149177308
0.0141233958
0.0140854098
0.014107599
0.014691184
0.0150278877
0.0150046248
0.0141298394
0.0140940158
0.0141110786
0.0140835894
0.0140890051
0.0146822893
0.014818078
0.0149651159
0.0149648513
0.014128871
0.014092765
0.0141099407
0.0140822795
0.0140869065
0.0146583476
0.0148013332
0.0149269922
0.0149259746
0.0141236652
0.0140943528
0.0140997955
0.0140896551
0.0146040019
0.0148081409
0.0149124873
0.0149086581
0.014122882
0.0140914481
0.0140994119
0.0140861301
0.0145657181
0.0147793751
0.0148665351
0.0148600796
0.0141145782
0.0140867534
0.0147791244
0.0148378269
0.0141105949
0.0140877839
0.014755468
0.0148541614
0.0141028673
0.0140973106
0.0146640929
0.014957435
0.0149399074
0.0141194085
0.0140892704
0.0141029547
0.01407985
0.0140833842
0.0145853751
0.0147562114
0.0148611353
0.0148578377
0.0141128506
0.0140855777
0.0148108924
0.0148074561
0.0141155186
0.0140778651
0.0140932627
0.0146849546
0.0148428991
0.014965137
0.0149662527
0.0141273914
0.0141047852
0.0141007071
0.0141035521
0.0146517354
0.0150056743
0.0149888815
0.014122562
0.014093759
0.014103214
0.0140854779
0.0147366148
0.0147622075
0.014111543
0.0146859145
0.0148897445
0.0141122603
0.0140850465
0.0140988554
0.0145910802
0.0148433284
0.014926286
0.0149270345
0.0141226815
0.0140957561
0.0140985712
0.0140915747
0.0146220677
0.0148170201
0.0149114342
0.0149122783
0.0141200854
0.0140915584
0.0141034665
0.0147607103
0.0148719679
0.0141187268
0.0140934499
0.0141006041
0.0140905385
0.0143868523
0.0147960871
0.0148005969
0.0149175021
0.0149095406
0.014117814
0.0140898302
0.0148170904
0.014860116
0.0141175057
0.0140867415
0.0148395169
0.014844528
0.0141196559
0.0140880409
0.0140980895
0.0148010967
0.0148619662
0.0141248274
0.0140902015
0.0141137113
0.0140870511
0.0142681674
0.0147776185
0.0148194481
0.0149141321
0.0149117316
0.0141138731
0.0140882045
0.0148130612
0.0148078082
0.0141158256
0.0140765564
0.0140978601
0.0144834231
0.0148479213
0.0148151125
0.014971546
0.0149655664
0.0141222624
0.0141003733
0.0140979509
0.0140987999
0.0147127122
0.0149180267
0.0140948139
0.014104407
0.014685584
0.0141121316
0.0140695847
0.0147305787
0.0147854834
0.0149119697
0.0149078511
0.0141119771
0.0140854894
0.0140926519
0.0147491002
0.0147770668
0.0141053551
0.0146923944
0.0148889119
0.0141069312
0.0140805706
0.0140925547
0.0146787183
0.0148481966
0.0140905405
0.0140895169
0.0146167771
0.014875707
0.0148669469
0.0140976273
0.0140835783
0.0147168049
0.014821029
0.0140911851
0.0140875066
0.014614781
0.014874589
0.0148633397
0.0141008454
0.0140791029
0.0147488708
0.0147983329
0.0141030161
0.0140756558
0.0147823966
0.0147790964
0.0141049252
0.0140702405
0.0140866057
0.0145693696
0.0148698873
0.0148667584
0.0140943096
0.0140888962
0.0146412283
0.0148996399
0.0148896429
0.0141015123
0.0140811678
0.0147578287
0.0148204021
0.0141047579
0.0140770181
0.0147713936
0.0147954713
0.0141048153
0.0140754036
0.0147717731
0.0147673166
0.0141057938
0.0145210819
0.0148985142
0.0140935496
0.0140948923
0.0146342931
0.0149135047
0.0148859258
0.014107297
0.014082733
0.0140905827
0.0147174593
0.0147866995
0.0141052884
0.0140763621
0.0140884958
0.0146514642
0.014893185
0.0148881363
0.01409983
0.01408957
0.0146235393
0.0148699806
0.0148656891
0.01409647
0.0140879005
0.0146413537
0.0148856679
0.0148801434
0.0140984512
0.0140905209
0.0146764993
0.0149400818
0.0149302888
0.0141049168
0.014083483
0.0140851308
0.0140767791
0.0146473532
0.0147667208
0.0140910565
0.0140691795
0.0146937329
0.0147298868
0.0140892265
0.0140665613
0.0145027513
0.0147067091
0.0147990998
0.0147920429
0.0140956769
0.014071894
0.0147110447
0.0147605929
0.0140911671
0.0140718196
0.0146221378
0.0147535452
0.0148374387
0.0148332314
0.014104263
0.0140777055
0.0147949451
0.014790428
0.0141107933
0.0140731154
0.0140917997
0.0144535414
0.0148775375
0.0148464235
0.0140988947
0.0147176158
0.0148453716
0.0141045787
0.0140762102
0.0140871478
0.0145496094
0.0148812669
0.0148379169
0.0140992112
0.014717857
0.0148476309
0.0141054595
0.0140771726
0.0140882249
0.014602431
0.0148972213
0.0148526078
0.0141027772
0.0147411657
0.014872787
0.0141123775
0.0140798802
0.0140961613
0.0146886463
0.0148506121
0.0141007303
0.0140828046
0.0147838108
0.0147828084
0.0141072332
0.014072862
0.0140864937
0.01458494
0.0148090725
0.0148733764
0.0148708514
0.0141109849
0.0140838671
0.0148374963
0.0148337232
0.014112246
0.0140750398
0.0140906609
0.0147004651
0.0148366267
0.0140946232
0.0140806717
0.0147226018
0.0147872963
0.0140924009
0.0140769212
0.0146408342
0.014767035
0.0148388105
0.0148332242
0.0141049252
0.0140784476
0.0147663574
0.0148035945
0.0141017069
0.0140752741
0.0147497292
0.0147843295
0.0140975624
0.0140737458
0.0147233868
0.0147641233
0.0140912779
0.0140741345
0.0146179495
0.0147506842
0.0148208471
0.0148197541
0.0140989448
0.0140827664
0.0147350454
0.0148207109
0.0140930361
0.0140905329
0.0146444071
0.0148911837
0.0148765126
0.0141071559
0.0140828468
0.014816831
0.014829428
0.0141165736
)
;

boundaryField
{
    closed
    {
        type            zeroGradient;
    }
    open
    {
        type            zeroGradient;
    }
    sides
    {
        type            empty;
    }
    procBoundary3to2
    {
        type            processor;
        value           uniform 0.0140736725;
    }
    procBoundary3to4
    {
        type            processor;
        value           uniform 0.0140787885;
    }
}


// ************************************************************************* //
