/*--------------------------------*- C++ -*----------------------------------*\
| =========                 |                                                 |
| \\      /  F ield         | OpenFOAM: The Open Source CFD Toolbox           |
|  \\    /   O peration     | Version:  2306                                  |
|   \\  /    A nd           | Website:  www.openfoam.com                      |
|    \\/     M anipulation  |                                                 |
\*---------------------------------------------------------------------------*/
FoamFile
{
    version     2.0;
    format      ascii;
    arch        "LSB;label=32;scalar=64";
    class       volScalarField;
    location    "0.00162";
    object      prefDh_H2;
}
// * * * * * * * * * * * * * * * * * * * * * * * * * * * * * * * * * * * * * //

dimensions      [1 1 -3 0 0 0 0];

internalField   nonuniform List<scalar> 
531
(
29.2478177
22.9579571
24.8914377
18.73192
21.8647632
37.9949875
38.2230525
37.88173
38.1202314
37.8059369
21.4607502
20.8451149
38.0897979
37.8266392
24.757893
18.3313842
22.9135938
38.0803438
38.3782391
38.1156833
38.2299232
38.0989293
27.6368393
23.91306
22.8652826
23.722336
38.472486
38.1712335
22.8136476
23.8521069
38.5257947
38.2232467
22.7217509
25.6304977
38.4388553
38.2391857
38.4405777
26.3862414
26.2124419
38.30273
38.3063775
38.3136089
29.5691886
24.9716542
25.5224326
23.2909843
23.0988801
19.4260917
21.7576045
38.2635379
38.5602774
38.2513855
38.6042691
38.2262966
28.8114289
22.8776214
25.9750183
38.3508816
38.8128507
26.6285165
27.0610601
38.8683434
38.5959209
28.6165634
26.8767631
25.5230467
26.7390289
38.7967269
38.5969267
28.9957543
26.5348684
25.5671189
25.3057618
22.348873
24.286846
38.7243907
38.6886058
38.7610433
38.7492285
28.9626402
28.599864
38.8812703
38.5208947
28.6948957
27.1907035
25.3287338
25.9024394
38.9042957
38.6783541
28.241442
22.6971453
25.0414448
38.4457947
38.8895246
25.5892035
27.0385124
38.6620509
38.533234
38.6793395
29.0433707
24.3404647
23.9846628
25.8399636
38.6540453
28.89134
23.2834459
38.8033482
38.4147191
28.6022873
22.7087687
25.7144506
38.2805581
38.6859066
38.4881569
28.7720028
24.1415681
25.5222866
38.5135348
38.5516653
28.6890084
22.2543974
24.0196446
38.3008778
38.6049979
24.5957981
24.3437894
38.5865916
38.3571779
38.6682754
38.4408914
28.7796978
24.5036166
25.9886161
22.7914717
22.8959511
38.5167417
38.3656208
29.0088956
21.7476779
26.3335196
38.0579084
28.7582311
22.8283622
38.615138
38.3232678
28.7535205
20.7710806
23.6370712
38.1172219
38.6976526
38.317551
38.6452768
38.5211211
28.9850488
23.7385773
24.9702635
38.4916228
38.5067878
28.7492903
25.0478703
26.2744893
23.2041185
23.2509495
38.4946085
38.4298595
27.0648435
24.6934827
38.5045062
38.4018002
28.8230354
21.791303
24.0746797
38.2020484
38.5733599
38.3226525
38.5329696
38.3969941
29.0561636
25.6809665
24.0999145
23.2432014
38.2664586
38.2673993
25.3508791
17.904496
19.4525062
38.1870528
38.3835133
38.3453229
38.4038493
28.0667677
24.5874644
38.2885042
38.2464301
29.1125365
25.1323729
22.9058014
22.9951537
38.3909401
38.3176572
38.528639
38.4059843
28.9732908
25.3867058
25.2627227
24.7730934
38.2702291
38.3360953
28.9714178
25.445697
23.8550648
23.7663079
38.19054
38.362162
24.5575383
24.0581465
38.3541107
38.3682609
24.0995974
24.4641909
38.5215262
38.4062604
38.5047859
27.5586561
23.462055
38.7254428
38.3935454
28.0371034
22.0514671
23.2063928
38.4140259
38.6464746
27.272706
26.035992
38.7169103
38.3959796
28.7711286
27.2579537
25.1899639
26.2030034
38.693626
29.2315066
23.1598211
38.4579054
38.3786364
25.4661915
24.3882015
38.4103646
38.2840226
23.4139213
23.8673552
38.4738018
38.2370583
38.3781719
26.3454958
21.9123359
38.2614743
38.1481393
23.4540921
23.8198511
38.2330616
38.0758264
38.0712645
28.8425412
22.3412761
20.5586451
20.7240688
38.0140905
37.9220607
37.9804369
26.0088773
21.135811
38.1176864
37.8763136
38.1320296
37.929187
29.2751404
24.6676656
24.2717694
22.1659322
15.848141
15.951171
37.9105582
37.8624733
38.0163565
38.0149689
38.1540756
38.1118034
27.9494785
22.0596183
38.2062688
38.0415213
28.2818221
20.462716
22.6998312
38.0266565
38.252394
38.094472
29.1980009
25.5187792
25.1936252
23.4532654
18.3529399
18.3989796
37.9807879
38.1112142
38.0530574
38.2419805
38.148398
28.2268982
21.0589245
21.8035761
37.9619412
38.3837934
25.1179007
24.7196072
38.1591786
38.3916552
38.2941878
28.3364001
23.8755031
38.4895545
38.2315245
28.8727705
21.4603911
23.2252831
38.3994466
38.6116877
38.5804099
28.7296495
22.4798052
22.5389737
38.5543595
38.7500383
28.6873955
22.3631014
22.4384399
38.8763137
39.0501852
27.5377069
23.174194
39.2763176
39.3178129
27.9698522
20.8507044
20.9062322
39.7664896
40.0885559
25.2395821
20.0282133
40.5140995
40.8014747
24.7477719
15.1813805
16.7315003
41.8805686
42.3835891
42.1589307
42.2799786
42.3566584
42.1486515
20.9362916
18.1382378
40.4524219
41.2822941
40.4117409
17.3751886
14.3701535
38.6627345
39.3524804
38.6900029
39.1746741
38.7529481
39.106433
38.8622595
39.1562687
39.0430512
39.3610496
39.37524
39.810869
40.1014058
40.8246423
41.7493855
43.4754855
46.5328483
47.2667115
44.9868926
42.8620392
40.767972
39.0336044
37.3141436
35.988943
34.7788
33.8210259
32.2903341
31.1426015
31.5356208
30.5808046
29.0388998
28.4043757
27.0175717
26.9998563
25.8828699
26.082488
22.4022853
21.3053775
17.6333669
16.3830111
18.1400338
44.1398712
39.2692404
36.580678
30.5781353
27.6413921
21.7369373
18.4369933
12.7247502
8.90880969
3.38886735
1.67365887
7.28137159
9.15445826
3.85487781
1.6831185
26.3494855
47.8480309
54.4859786
83.8268098
70.1252805
200.973437
200.681981
246.88016
276.24343
332.712225
396.32616
494.476865
639.877385
775.27801
867.728801
980.026266
1134.71204
1256.85132
1354.85064
1460.28267
1547.38636
1649.50664
1745.36407
1854.37124
1943.60957
2037.39957
2100.58039
2175.70178
2232.64615
2302.65895
2355.39361
2421.27168
2469.48936
2530.24569
2573.44654
2630.97076
2669.43485
2724.20929
2758.01846
2810.5266
2843.66967
2894.12139
2927.34095
2978.14198
3013.64348
3071.33211
3095.29721
3126.21844
3145.83898
3175.2831
3193.86201
3222.4289
3241.10476
3269.18271
3286.64891
3313.17855
3334.26083
3366.85552
3387.54674
3414.72282
3431.03948
3454.62672
3470.1848
3491.33726
3505.50615
3525.09388
3538.73323
3557.54837
3571.04619
3588.96945
3602.20842
3618.73629
3632.68301
3649.59115
3663.05514
3678.86449
3691.82322
3706.77242
3719.06404
3732.78645
3744.33054
3757.05042
3767.92634
3779.16033
3789.06122
3799.75223
3809.32389
3819.52865
3828.79685
3838.69866
3848.17707
3858.13068
3867.45921
3877.14821
3886.33486
3895.89701
3905.77954
3915.50534
3924.93288
3934.15435
3942.35649
3950.26681
3958.13528
3965.70927
3973.26755
3980.53383
3987.80427
)
;

boundaryField
{
    closed
    {
        type            calculated;
        value           nonuniform List<scalar> 0();
    }
    open
    {
        type            calculated;
        value           nonuniform List<scalar> 0();
    }
    sides
    {
        type            empty;
    }
    procBoundary4to3
    {
        type            processor;
        value           uniform 38.1202622;
    }
    procBoundary4to5
    {
        type            processor;
        value           uniform 3994.7882;
    }
}


// ************************************************************************* //
