/*--------------------------------*- C++ -*----------------------------------*\
| =========                 |                                                 |
| \\      /  F ield         | OpenFOAM: The Open Source CFD Toolbox           |
|  \\    /   O peration     | Version:  2306                                  |
|   \\  /    A nd           | Website:  www.openfoam.com                      |
|    \\/     M anipulation  |                                                 |
\*---------------------------------------------------------------------------*/
FoamFile
{
    version     2.0;
    format      ascii;
    arch        "LSB;label=32;scalar=64";
    class       volScalarField;
    location    "0.00162";
    object      rho;
}
// * * * * * * * * * * * * * * * * * * * * * * * * * * * * * * * * * * * * * //

dimensions      [1 -3 0 0 0 0 0];

internalField   nonuniform List<scalar> 
531
(
0.939016169
0.958926799
0.952751312
0.971820055
0.96202597
0.903977893
0.903486208
0.904191537
0.9037177
0.904337395
0.963147635
0.96513607
0.903753405
0.904210225
0.952833778
0.972738486
0.958456944
0.903619131
0.902935032
0.903470546
0.903380049
0.903463095
0.94379473
0.955391114
0.958482418
0.955894693
0.902447741
0.903100362
0.958519022
0.955455115
0.902253632
0.902956202
0.958749251
0.949851366
0.902358455
0.90311127
0.902294857
0.947421202
0.947952148
0.902783869
0.902888353
0.902731542
0.931983411
0.951751135
0.950022715
0.956922354
0.957456021
0.968769235
0.96151701
0.902634531
0.901977068
0.9026245
0.901978287
0.902677969
0.938572555
0.95813091
0.948324396
0.902506645
0.901252459
0.946335593
0.945036781
0.901263213
0.901965926
0.936706107
0.945591633
0.949726845
0.946000496
0.90139995
0.901947258
0.934390049
0.946660062
0.949669378
0.950452577
0.959622269
0.953587467
0.901462014
0.901627769
0.901501823
0.901519798
0.938879007
0.940286481
0.901256784
0.902228745
0.935852346
0.944658088
0.950315323
0.948635596
0.901130793
0.901628898
0.94124888
0.95860716
0.951206433
0.902209579
0.901075733
0.949602644
0.945094809
0.901597493
0.902222733
0.901548812
0.938304087
0.953476184
0.954571847
0.948784862
0.901559315
0.938875482
0.95679321
0.901450783
0.902301137
0.938605073
0.958632674
0.949140457
0.902628731
0.901824772
0.902167427
0.936944235
0.95416868
0.949859174
0.902170189
0.902018225
0.940007301
0.960067302
0.954505422
0.902599623
0.901860046
0.952755482
0.953580782
0.901837218
0.902573177
0.90182151
0.902390978
0.937076496
0.95311623
0.948490273
0.958385857
0.958093839
0.902171783
0.902518777
0.938962392
0.961743986
0.947333768
0.903223153
0.936023901
0.958385778
0.902016775
0.902655683
0.939146162
0.964760796
0.955722041
0.903066514
0.901809661
0.9026404
0.902046099
0.902209202
0.938731711
0.955584034
0.951703766
0.902353651
0.902336315
0.93681173
0.951518964
0.947672583
0.957220856
0.957074873
0.902292612
0.902499984
0.94519665
0.952688527
0.90234651
0.902610329
0.938821336
0.961686017
0.954490439
0.902943823
0.902224365
0.90274386
0.902416231
0.902672386
0.938498008
0.94969018
0.95446145
0.957179869
0.90278091
0.902813017
0.950561023
0.973586397
0.968777634
0.902884336
0.902453348
0.902665773
0.902454714
0.942124029
0.952973056
0.90285545
0.902993487
0.938835781
0.951323819
0.958088753
0.957888165
0.902358673
0.902750085
0.902264814
0.902594519
0.938059437
0.950545008
0.950905119
0.952449494
0.902909455
0.902840689
0.939459682
0.950477069
0.955383235
0.955660233
0.903085421
0.902818503
0.953249971
0.954804247
0.902708263
0.902864581
0.954662829
0.953579227
0.902292121
0.902855262
0.902381722
0.943875403
0.956646495
0.901888351
0.902700838
0.942274903
0.960933193
0.95719494
0.902512046
0.901925628
0.944564995
0.948372751
0.90166728
0.902531155
0.937716032
0.944473433
0.95075371
0.94765064
0.901351715
0.937719458
0.9569569
0.901989797
0.9022069
0.949791147
0.953154492
0.9019375
0.902455731
0.956134943
0.954804596
0.901718993
0.902668491
0.902063262
0.94715806
0.960916637
0.902424434
0.902881896
0.956190867
0.955145811
0.902487802
0.903290978
0.903019513
0.939609763
0.959824471
0.965238798
0.964782124
0.903011062
0.903606182
0.903218047
0.948429693
0.963521901
0.902911178
0.903690086
0.903106491
0.903632505
0.936909785
0.95267404
0.953786043
0.960360923
0.979663202
0.979372813
0.903127853
0.903473405
0.903047237
0.903126995
0.902914068
0.902950747
0.942335666
0.960607593
0.902768532
0.903190028
0.941275117
0.965553525
0.958552825
0.903118768
0.902849448
0.903175937
0.937148559
0.949982276
0.950926341
0.956354458
0.972016235
0.971883203
0.903076796
0.903059696
0.903063044
0.902867927
0.902997977
0.941519666
0.963819714
0.961410185
0.903413403
0.902468686
0.951290008
0.952448851
0.902808185
0.902622746
0.90270528
0.941228049
0.955145276
0.902210554
0.902919208
0.938453152
0.962614685
0.957043975
0.902287018
0.902065538
0.902021095
0.939949633
0.959416285
0.959152319
0.902014073
0.901549407
0.938985119
0.959711221
0.959418134
0.901164565
0.900777747
0.943503773
0.957109566
0.900133116
0.900080752
0.941271399
0.964233761
0.96397148
0.898775635
0.898004228
0.95031758
0.966585869
0.896801775
0.896046956
0.951527157
0.981502992
0.976541731
0.892983744
0.892002947
0.892632384
0.892591854
0.89251768
0.893286327
0.962075359
0.970715103
0.898120032
0.896430601
0.898749599
0.971683788
0.981377884
0.904180335
0.902778076
0.904737569
0.903860508
0.905217539
0.904672314
0.905582374
0.905181838
0.905761814
0.905273787
0.905527314
0.904672655
0.90416023
0.902436902
0.90008806
0.89539837
0.886725434
0.884784096
0.891634671
0.897996216
0.90423466
0.909352604
0.914389018
0.918194081
0.92160333
0.924333336
0.929651964
0.933705994
0.932846546
0.937416686
0.943856945
0.946424379
0.951184922
0.951091989
0.953861381
0.952816871
0.965886502
0.970572927
0.983711823
0.98927195
0.988900143
0.911375224
0.926619706
0.936498341
0.956178973
0.966802001
0.986849027
0.998821793
1.0189136
1.03278415
1.05248841
1.05914804
1.04417456
1.03904425
1.05366047
1.05882711
0.972873279
0.917728313
0.911252141
0.864523281
0.914943519
0.703257236
0.709481684
0.656634467
0.629572071
0.592776789
0.558438224
0.514938565
0.463749352
0.427966411
0.406867225
0.385672942
0.360443876
0.343479679
0.331017771
0.319266888
0.310015082
0.300261486
0.291571909
0.282676429
0.275686888
0.268985061
0.264603423
0.259783253
0.256172421
0.252030122
0.248942278
0.245321076
0.242700917
0.239592812
0.237406388
0.234632989
0.232807571
0.230313248
0.228804325
0.226532775
0.225126826
0.223053073
0.221716825
0.219731639
0.218373733
0.216223051
0.215360029
0.214270403
0.213591227
0.212579481
0.211951296
0.210994366
0.210382044
0.20946459
0.208908044
0.208059906
0.207411853
0.206403367
0.205766821
0.204936078
0.204454087
0.203752754
0.20329765
0.202685534
0.202281173
0.20171842
0.201334095
0.200809029
0.2004362
0.199939788
0.199575731
0.199124723
0.198747311
0.198291094
0.197928062
0.197504125
0.197156784
0.196763191
0.196438136
0.19607905
0.195774834
0.19544376
0.195158416
0.194873044
0.194618152
0.194347299
0.194101192
0.193843243
0.193605227
0.193356883
0.193118971
0.192873758
0.192640001
0.192401667
0.192171842
0.191937098
0.191692194
0.191454774
0.191221564
0.190998996
0.190800914
0.190613174
0.190423522
0.190244007
0.190062179
0.189890166
0.189715586
)
;

boundaryField
{
    closed
    {
        type            calculated;
        value           nonuniform List<scalar> 0();
    }
    open
    {
        type            calculated;
        value           nonuniform List<scalar> 0();
    }
    sides
    {
        type            empty;
    }
    procBoundary4to3
    {
        type            processor;
        value           uniform 0.903987072;
    }
    procBoundary4to5
    {
        type            processor;
        value           uniform 0.189550435;
    }
}


// ************************************************************************* //
