/*--------------------------------*- C++ -*----------------------------------*\
| =========                 |                                                 |
| \\      /  F ield         | OpenFOAM: The Open Source CFD Toolbox           |
|  \\    /   O peration     | Version:  2306                                  |
|   \\  /    A nd           | Website:  www.openfoam.com                      |
|    \\/     M anipulation  |                                                 |
\*---------------------------------------------------------------------------*/
FoamFile
{
    version     2.0;
    format      ascii;
    arch        "LSB;label=32;scalar=64";
    class       volScalarField;
    location    "0.00048";
    object      prefDh_T;
}
// * * * * * * * * * * * * * * * * * * * * * * * * * * * * * * * * * * * * * //

dimensions      [1 1 -3 -1 0 0 0];

internalField   nonuniform List<scalar> 
530
(
-0.00058956787
-0.000731918896
-0.000755397583
-0.000750677591
-0.000589382614
-0.000558413291
-0.000512049245
-0.000528547341
-0.00073419895
-0.000745746812
-0.000597162085
-0.000533079135
-0.000555279761
-0.000728379558
-0.000753155241
-0.000612898513
-0.000591838619
-0.000512316071
-0.000517620087
-0.000729118618
-0.000746412402
-0.000609588509
-0.000563715988
-0.000574458288
-0.00072548036
-0.000749769216
-0.000632222452
-0.000597761172
-0.000576124237
-0.000515225696
-0.000521516507
-0.000724006743
-0.000742611578
-0.00061548841
-0.000553698055
-0.00054994057
-0.000710203414
-0.000746606197
-0.000601826515
-0.000548070083
-0.000675255111
-0.00074171052
-0.000601603791
-0.0005273492
-0.000663266892
-0.0007397494
-0.000600469906
-0.000537615642
-0.000663450111
-0.000736686047
-0.000603274734
-0.000512768206
-0.000515352459
-0.000721409679
-0.000740390546
-0.000605777956
-0.00054708205
-0.000669657495
-0.000738117328
-0.000598592816
-0.000502786534
-0.000567126747
-0.000724111781
-0.000681761698
-0.00055792549
-0.000602647827
-0.000724930408
-0.000699770266
-0.000564338768
-0.000543752811
-0.000687510373
-0.000742723376
-0.000589852277
-0.000509283606
-0.000586557073
-0.000734195712
-0.000598412366
-0.000543377566
-0.000587144173
-0.000728514658
-0.00073210823
-0.000590153558
-0.000500327778
-0.000594048843
-0.000734414326
-0.000590591361
-0.000542259029
-0.0005943371
-0.000732771071
-0.000670635555
-0.000562036395
-0.000506322941
-0.000597571851
-0.000732025357
-0.000652988715
-0.000559918211
-0.000508029024
-0.000605519462
-0.000736966826
-0.000590047512
-0.000540161942
-0.000597850593
-0.00073427131
-0.000682007655
-0.000566154121
-0.000505136398
-0.000596031869
-0.000733206994
-0.000660815478
-0.000558160683
-0.000516249654
-0.000621569842
-0.000737701404
-0.000606221661
-0.000540351977
-0.00054472419
-0.000726640013
-0.000744742704
-0.000604042678
-0.000528605254
-0.000527643212
-0.000724467678
-0.000743571594
-0.000599796255
-0.000519627375
-0.000526263019
-0.000724298701
-0.000747301568
-0.000591535452
-0.000521474687
-0.00060323723
-0.000734370873
-0.000649894274
-0.000552513998
-0.000515093637
-0.000622276265
-0.000733554731
-0.000618812336
-0.000534854494
-0.000526962324
-0.000681493626
-0.000743762023
-0.000594819478
-0.000532645989
-0.000614023294
-0.000735965672
-0.000631403976
-0.000541106739
-0.000524371745
-0.000658604681
-0.000739728385
-0.000608991886
-0.00055947474
-0.000590529685
-0.000685793463
-0.000682757971
-0.000598512614
-0.000603425601
-0.000597042958
-0.000614797132
-0.000593271909
-0.000588509014
-0.000590170167
-0.000596004865
-0.00059393176
-0.000590328666
-0.000590417841
-0.000591979589
-0.000592085966
-0.000591196037
-0.000590732538
-0.000591049646
-0.000592311975
-0.000592295328
-0.000589851635
-0.000589470374
-0.00059487087
-0.000598022489
-0.000589069074
-0.000588903697
-0.000595688383
-0.000620441913
-0.000592697817
-0.000596405123
-0.000588526543
-0.000723423391
-0.000641868018
-0.000549134544
-0.000566513652
-0.000703998918
-0.000736048813
-0.000591816875
-0.00051005561
-0.000601631264
-0.000733439723
-0.000592735259
-0.000553299492
-0.000592497912
-0.000728977392
-0.000623264461
-0.000535411189
-0.00053354906
-0.000699695451
-0.000743171567
-0.000588993913
-0.000517115528
-0.000596007425
-0.000732481281
-0.000590755645
-0.000549538235
-0.000591702736
-0.000728848376
-0.000644386261
-0.000540802466
-0.000510329318
-0.000646874381
-0.000741674408
-0.000590979703
-0.00054846666
-0.00060529547
-0.000733119095
-0.000630344941
-0.000531571
-0.000517767915
-0.000686580325
-0.00074492377
-0.000592542684
-0.000542117065
-0.000605820964
-0.000733436847
-0.000640797933
-0.00053746604
-0.000527547012
-0.000703272444
-0.000741982667
-0.000597996811
-0.00051659421
-0.000544450233
-0.000725749305
-0.000747086265
-0.000593550641
-0.000541760827
-0.000600416314
-0.000735102232
-0.000674091963
-0.000559703755
-0.000513042777
-0.00060950371
-0.000734527988
-0.000635110325
-0.000527990481
-0.000522334594
-0.000711730735
-0.000741560125
-0.000597521886
-0.000526963925
-0.000567558535
-0.000730649006
-0.000745803794
-0.00059144538
-0.000519988067
-0.000588827242
-0.000733240631
-0.000748341267
-0.000589352912
-0.000580626985
-0.000588597852
-0.000625512407
-0.000600913098
-0.000590170949
-0.000588633929
-0.00059852928
-0.00059883415
-0.00059049752
-0.000589463652
-0.0005915773
-0.000592728288
-0.000591740907
-0.000590918359
-0.000591069748
-0.00059138884
-0.000591358244
-0.000591190001
-0.00059117207
-0.000591207646
-0.000591217101
-0.000591203345
-0.000591193827
-0.000591194968
-0.000591196897
-0.000591196288
-0.000591194845
-0.000591194662
-0.000591194736
-0.000591194711
-0.000591194608
-0.000591194547
-0.000591194535
-0.000591194526
-0.000591194518
-0.000591194509
-0.000591194506
-0.000591194504
-0.000591194503
-0.000591194502
-0.000591194502
-0.000591194502
-0.000591194501
-0.000591194501
-0.000591194501
-0.000591194501
-0.000591194501
-0.000591194501
-0.000591194501
-0.000591194501
-0.000591194501
-0.000591194501
-0.000591194501
-0.000591194501
-0.000591194501
-0.000591194501
-0.000591194501
-0.000591194501
-0.000591194501
-0.000591194501
-0.000591194501
-0.000591194501
-0.000591194501
-0.000591194501
-0.000591194501
-0.000591194501
-0.000591194501
-0.000591194501
-0.000591194501
-0.000591194501
-0.0005911945
-0.000591194501
-0.000591194502
-0.000591194501
-0.0005911945
-0.0005911945
-0.000591194501
-0.000591194501
-0.000591194501
-0.000591194501
-0.000591194501
-0.000591194501
-0.000591194501
-0.000591194501
-0.000591194501
-0.000591194501
-0.000591194501
-0.000591194501
-0.000591194501
-0.000591194501
-0.0005911945
-0.000591194501
-0.000591194504
-0.000591194503
-0.000591194495
-0.00059119449
-0.000591194523
-0.000591194571
-0.000591194493
-0.000591194289
-0.000591194403
-0.00059119548
-0.000591195456
-0.000591192028
-0.000591191379
-0.000591202499
-0.000591207565
-0.000591180886
-0.000591159441
-0.000591224441
-0.000591326359
-0.000591193971
-0.000590905938
-0.000591078457
-0.000592202962
-0.000592033022
-0.000589670211
-0.000589460482
-0.000596176772
-0.000597997022
-0.000588528217
-0.000589056658
-0.000599876174
-0.000623542334
-0.000590299961
-0.000593511644
-0.000588101973
-0.000726404064
-0.000608855439
-0.000536118606
-0.000579299171
-0.000719767698
-0.00061535602
-0.000552916089
-0.000581071609
-0.000721809312
-0.000715502546
-0.000585988696
-0.000509087423
-0.000583694156
-0.000726931205
-0.000603296046
-0.000546561515
-0.000582702158
-0.00072777433
-0.000595509075
-0.000546599851
-0.000594999657
-0.000727638616
-0.000660718713
-0.000550515044
-0.000501526078
-0.000602174782
-0.000732870679
-0.000594389999
-0.000546961985
-0.000637519876
-0.000733290848
-0.000636869171
-0.000535661669
-0.000504418659
-0.0006281953
-0.000737439193
-0.000598038265
-0.000541991686
-0.000660547035
-0.000735002354
-0.000627365557
-0.000528538216
-0.00050740292
-0.000651712947
-0.000739428075
-0.000601961859
-0.000534868574
-0.000671177044
-0.000736959723
-0.000629750223
-0.000518746681
-0.000499259255
-0.000670640977
-0.000739126219
-0.00060409634
-0.000547052821
-0.000543022878
-0.000710507438
-0.000745001735
-0.000595345178
-0.000523844301
-0.000564338348
-0.000721071559
-0.000744506396
-0.000593715116
-0.000517829996
-0.000527542149
-0.000715153772
-0.000737190887
-0.00060061126
-0.000522966619
-0.000519826231
-0.00070065137
-0.000740333862
-0.0006056059
-0.000500773942
-0.000685669552
-0.000739097756
-0.000593550352
-0.000521475888
-0.000593112671
-0.000724962762
-0.000652806603
-0.000541421293
-0.000593974103
-0.000725878504
-0.000665511172
-0.000546459468
-0.000545770709
-0.000725641564
-0.000748689944
-0.000587043033
-0.000497620445
-0.000581993384
-0.000731460289
-0.000645297988
-0.000565995494
-0.000581731469
-0.000728920726
-0.000751310919
-0.000598327894
-0.000553351465
-0.000511423162
-0.000583610447
-0.000729606143
-0.000743538952
-0.000575821499
-0.000545546817
-0.00068745842
-0.000742827477
-0.00070501183
-0.000591162807
-0.00050630538
-0.000502498093
-0.000589397766
-0.00074183635
-0.000594420589
-0.000544517001
-0.000736231469
-0.000746734284
-0.000594097012
-0.000555441897
-0.000591275432
-0.000744103319
-0.000752025491
-0.000588071092
-0.000507647206
-0.000591248228
-0.000741499467
-0.000747633166
-0.000592796876
-0.000462450999
-0.000472054033
-0.000731637741
-0.000746100097
-0.000607783913
-0.00053045214
-0.000671902215
)
;

boundaryField
{
    closed
    {
        type            calculated;
        value           nonuniform List<scalar> 0();
    }
    open
    {
        type            calculated;
        value           nonuniform List<scalar> 0();
    }
    sides
    {
        type            empty;
    }
    procBoundary2to1
    {
        type            processor;
        value           uniform -0.000492751692;
    }
    procBoundary2to3
    {
        type            processor;
        value           uniform -0.000742301311;
    }
}


// ************************************************************************* //
