/*--------------------------------*- C++ -*----------------------------------*\
| =========                 |                                                 |
| \\      /  F ield         | OpenFOAM: The Open Source CFD Toolbox           |
|  \\    /   O peration     | Version:  2306                                  |
|   \\  /    A nd           | Website:  www.openfoam.com                      |
|    \\/     M anipulation  |                                                 |
\*---------------------------------------------------------------------------*/
FoamFile
{
    version     2.0;
    format      ascii;
    arch        "LSB;label=32;scalar=64";
    class       volScalarField;
    location    "0.00048";
    object      prefDPV_H2O;
}
// * * * * * * * * * * * * * * * * * * * * * * * * * * * * * * * * * * * * * //

dimensions      [1 -1 -1 0 0 0 0];

internalField   nonuniform List<scalar> 
530
(
-3.66455368e-07
-3.8611184e-07
-3.83360903e-07
-3.8359655e-07
-3.71279318e-07
-3.6564264e-07
-3.64634322e-07
-3.65064393e-07
-3.8588302e-07
-3.84047098e-07
-3.7359529e-07
-3.65141985e-07
-3.65566443e-07
-3.86004895e-07
-3.83605981e-07
-3.76355334e-07
-3.66279636e-07
-3.6472864e-07
-3.64766263e-07
-3.86318781e-07
-3.83949535e-07
-3.75992216e-07
-3.65818351e-07
-3.66024674e-07
-3.86180981e-07
-3.835586e-07
-3.79127534e-07
-3.67401096e-07
-3.66075816e-07
-3.6480454e-07
-3.64925613e-07
-3.86561376e-07
-3.84050578e-07
-3.76752531e-07
-3.65651175e-07
-3.65568795e-07
-3.86564404e-07
-3.84642779e-07
-3.67698349e-07
-3.65537288e-07
-3.83477536e-07
-3.84910551e-07
-3.67306466e-07
-3.65130106e-07
-3.82365856e-07
-3.8515267e-07
-3.67394543e-07
-3.65335631e-07
-3.82358234e-07
-3.84610766e-07
-3.744829e-07
-3.64829625e-07
-3.64896568e-07
-3.86553156e-07
-3.85108055e-07
-3.67263949e-07
-3.65563691e-07
-3.82943208e-07
-3.84605769e-07
-3.73796742e-07
-3.64586178e-07
-3.65911401e-07
-3.86339366e-07
-3.84109945e-07
-3.65822804e-07
-3.67342956e-07
-3.85841947e-07
-3.85760226e-07
-3.65981861e-07
-3.65509408e-07
-3.84582692e-07
-3.84610402e-07
-3.70124917e-07
-3.64637257e-07
-3.72701505e-07
-3.85294346e-07
-3.74458387e-07
-3.65455613e-07
-3.69635472e-07
-3.85400537e-07
-3.8549861e-07
-3.66348297e-07
-3.64575572e-07
-3.74009541e-07
-3.85209961e-07
-3.72328891e-07
-3.65399158e-07
-3.74137094e-07
-3.84951874e-07
-3.83241258e-07
-3.65734824e-07
-3.64663053e-07
-3.74687853e-07
-3.84969667e-07
-3.81475761e-07
-3.65724693e-07
-3.64656149e-07
-3.75908013e-07
-3.84959296e-07
-3.71566376e-07
-3.6533111e-07
-3.74789053e-07
-3.84831267e-07
-3.8430162e-07
-3.65796159e-07
-3.64632778e-07
-3.74506309e-07
-3.84942133e-07
-3.82258651e-07
-3.6567356e-07
-3.64811638e-07
-3.78063234e-07
-3.84711235e-07
-3.75416432e-07
-3.65369107e-07
-3.65430919e-07
-3.86331341e-07
-3.84077887e-07
-3.74766057e-07
-3.65067291e-07
-3.65044539e-07
-3.86630068e-07
-3.84223883e-07
-3.7379908e-07
-3.64916323e-07
-3.6501908e-07
-3.86478654e-07
-3.84290804e-07
-3.69568485e-07
-3.64856997e-07
-3.75811849e-07
-3.84878814e-07
-3.81140362e-07
-3.65563982e-07
-3.64801716e-07
-3.78145743e-07
-3.84816531e-07
-3.77320148e-07
-3.65310465e-07
-3.65022005e-07
-3.84013801e-07
-3.84394342e-07
-3.69575492e-07
-3.6509768e-07
-3.7724694e-07
-3.84830701e-07
-3.79029746e-07
-3.6536692e-07
-3.64952404e-07
-3.81887243e-07
-3.84452701e-07
-3.7578688e-07
-3.65790039e-07
-3.66486158e-07
-3.84421653e-07
-3.84189804e-07
-3.67980074e-07
-3.67390252e-07
-3.73933975e-07
-3.77011716e-07
-3.73156345e-07
-3.70933002e-07
-3.72364079e-07
-3.74015105e-07
-3.73592695e-07
-3.72672037e-07
-3.7273592e-07
-3.73211287e-07
-3.73253051e-07
-3.73031759e-07
-3.72906137e-07
-3.7300435e-07
-3.73317797e-07
-3.73323031e-07
-3.72577124e-07
-3.72451388e-07
-3.73827806e-07
-3.74446434e-07
-3.72008827e-07
-3.7036137e-07
-3.73874457e-07
-3.77730321e-07
-3.72932176e-07
-3.66608812e-07
-3.6983566e-07
-3.86316665e-07
-3.80259323e-07
-3.65625345e-07
-3.65957148e-07
-3.8617905e-07
-3.85408096e-07
-3.68123693e-07
-3.64734868e-07
-3.75546236e-07
-3.85284614e-07
-3.72457251e-07
-3.65640165e-07
-3.73970903e-07
-3.85422075e-07
-3.78029218e-07
-3.65298201e-07
-3.65237441e-07
-3.85698803e-07
-3.84848553e-07
-3.69594267e-07
-3.64854628e-07
-3.74630667e-07
-3.85410163e-07
-3.72200376e-07
-3.65574776e-07
-3.73697294e-07
-3.85345806e-07
-3.8053933e-07
-3.65375558e-07
-3.64677455e-07
-3.80771165e-07
-3.84804313e-07
-3.7025521e-07
-3.65516837e-07
-3.75982108e-07
-3.8503519e-07
-3.78912689e-07
-3.65200253e-07
-3.6483561e-07
-3.84465219e-07
-3.84714568e-07
-3.6915634e-07
-3.65383794e-07
-3.76011588e-07
-3.84926857e-07
-3.80140444e-07
-3.65329424e-07
-3.65053654e-07
-3.85826853e-07
-3.84459987e-07
-3.73418618e-07
-3.64864335e-07
-3.65408871e-07
-3.86253934e-07
-3.84659162e-07
-3.68430694e-07
-3.65397841e-07
-3.74999139e-07
-3.84802847e-07
-3.83521744e-07
-3.65671832e-07
-3.64777562e-07
-3.76496291e-07
-3.84895701e-07
-3.79490527e-07
-3.65143465e-07
-3.64942134e-07
-3.86512851e-07
-3.84513723e-07
-3.73168811e-07
-3.65113348e-07
-3.65916992e-07
-3.85970364e-07
-3.84327202e-07
-3.71390433e-07
-3.64924809e-07
-3.66335479e-07
-3.85660257e-07
-3.84828399e-07
-3.68824379e-07
-3.66258734e-07
-3.71288502e-07
-3.78379201e-07
-3.74837703e-07
-3.69937558e-07
-3.70942928e-07
-3.7444326e-07
-3.74552553e-07
-3.72599286e-07
-3.72307323e-07
-3.73049865e-07
-3.73382714e-07
-3.73153542e-07
-3.72950998e-07
-3.73003844e-07
-3.73101711e-07
-3.73097588e-07
-3.73057916e-07
-3.73055143e-07
-3.73066772e-07
-3.73070467e-07
-3.73067535e-07
-3.73065565e-07
-3.73066148e-07
-3.73066942e-07
-3.73066879e-07
-3.73066614e-07
-3.73066606e-07
-3.7306667e-07
-3.73066685e-07
-3.73066673e-07
-3.73066666e-07
-3.73066668e-07
-3.7306667e-07
-3.7306667e-07
-3.73066669e-07
-3.73066669e-07
-3.73066669e-07
-3.73066669e-07
-3.73066669e-07
-3.73066669e-07
-3.73066669e-07
-3.73066669e-07
-3.73066669e-07
-3.73066669e-07
-3.73066669e-07
-3.73066669e-07
-3.73066669e-07
-3.73066669e-07
-3.73066669e-07
-3.73066669e-07
-3.73066669e-07
-3.73066669e-07
-3.73066669e-07
-3.73066669e-07
-3.73066669e-07
-3.73066669e-07
-3.73066669e-07
-3.73066669e-07
-3.73066669e-07
-3.73066669e-07
-3.73066669e-07
-3.73066669e-07
-3.73066669e-07
-3.73066669e-07
-3.73066669e-07
-3.73066669e-07
-3.7306667e-07
-3.7306667e-07
-3.73066669e-07
-3.73066669e-07
-3.73066669e-07
-3.7306667e-07
-3.7306667e-07
-3.73066669e-07
-3.73066669e-07
-3.73066669e-07
-3.7306667e-07
-3.73066669e-07
-3.73066669e-07
-3.73066669e-07
-3.73066669e-07
-3.73066669e-07
-3.73066669e-07
-3.73066669e-07
-3.73066669e-07
-3.73066669e-07
-3.73066669e-07
-3.73066669e-07
-3.73066669e-07
-3.73066669e-07
-3.73066669e-07
-3.7306667e-07
-3.7306667e-07
-3.73066667e-07
-3.73066666e-07
-3.73066674e-07
-3.73066686e-07
-3.73066665e-07
-3.73066604e-07
-3.73066637e-07
-3.73066904e-07
-3.73066907e-07
-3.73065921e-07
-3.73065754e-07
-3.73068592e-07
-3.73069878e-07
-3.73062466e-07
-3.73056185e-07
-3.73073473e-07
-3.73098427e-07
-3.73063942e-07
-3.72976817e-07
-3.73029695e-07
-3.73298036e-07
-3.73269987e-07
-3.72510917e-07
-3.72477169e-07
-3.74085135e-07
-3.74447848e-07
-3.71501863e-07
-3.70284805e-07
-3.74659511e-07
-3.78127452e-07
-3.71885633e-07
-3.66562523e-07
-3.71085279e-07
-3.86238574e-07
-3.76259561e-07
-3.65300598e-07
-3.69406953e-07
-3.86142701e-07
-3.77048975e-07
-3.65644579e-07
-3.70059572e-07
-3.85881113e-07
-3.86392535e-07
-3.66233892e-07
-3.64715309e-07
-3.72275494e-07
-3.85599757e-07
-3.74958354e-07
-3.65427599e-07
-3.71975851e-07
-3.85631254e-07
-3.734768e-07
-3.65455289e-07
-3.74735819e-07
-3.85298843e-07
-3.82292423e-07
-3.65520369e-07
-3.64468798e-07
-3.75711444e-07
-3.85108438e-07
-3.70842749e-07
-3.65460669e-07
-3.79839921e-07
-3.84786239e-07
-3.7966787e-07
-3.65244405e-07
-3.64506339e-07
-3.78855526e-07
-3.84764317e-07
-3.6951948e-07
-3.65336997e-07
-3.8203707e-07
-3.84605678e-07
-3.78441189e-07
-3.65126471e-07
-3.64564334e-07
-3.81230823e-07
-3.84562982e-07
-3.68734821e-07
-3.65170207e-07
-3.82995049e-07
-3.84526291e-07
-3.7876402e-07
-3.64851882e-07
-3.64388472e-07
-3.8294232e-07
-3.84467302e-07
-3.74605599e-07
-3.65454712e-07
-3.6537712e-07
-3.86652036e-07
-3.84027341e-07
-3.7272173e-07
-3.64891421e-07
-3.65850363e-07
-3.85973716e-07
-3.84463979e-07
-3.70681161e-07
-3.65034764e-07
-3.65238905e-07
-3.86950786e-07
-3.84655051e-07
-3.72865518e-07
-3.65129872e-07
-3.64958234e-07
-3.8593409e-07
-3.84308697e-07
-3.67357427e-07
-3.64392027e-07
-3.84259981e-07
-3.84505799e-07
-3.71597481e-07
-3.64930494e-07
-3.68033976e-07
-3.856463e-07
-3.81400883e-07
-3.65328034e-07
-3.6766313e-07
-3.85611381e-07
-3.82654621e-07
-3.65435463e-07
-3.65437392e-07
-3.86033254e-07
-3.83998111e-07
-3.69782864e-07
-3.64276631e-07
-3.69719075e-07
-3.85230734e-07
-3.80625208e-07
-3.65886825e-07
-3.66184726e-07
-3.85438483e-07
-3.83609388e-07
-3.73139078e-07
-3.65404338e-07
-3.64659866e-07
-3.66246255e-07
-3.85491287e-07
-3.85178959e-07
-3.66117903e-07
-3.65460405e-07
-3.84682694e-07
-3.83648986e-07
-3.86335771e-07
-3.68097775e-07
-3.64625058e-07
-3.64350682e-07
-3.71928586e-07
-3.84715763e-07
-3.69767398e-07
-3.65320565e-07
-3.86773396e-07
-3.83947042e-07
-3.71432774e-07
-3.65590972e-07
-3.68105906e-07
-3.84488939e-07
-3.83727045e-07
-3.7000475e-07
-3.64517085e-07
-3.66308403e-07
-3.84775251e-07
-3.83904196e-07
-3.70213273e-07
-3.63608061e-07
-3.63638738e-07
-3.86229984e-07
-3.84204344e-07
-3.67593157e-07
-3.65004367e-07
-3.83105852e-07
)
;

boundaryField
{
    closed
    {
        type            calculated;
        value           nonuniform List<scalar> 0();
    }
    open
    {
        type            calculated;
        value           nonuniform List<scalar> 0();
    }
    sides
    {
        type            empty;
    }
    procBoundary2to1
    {
        type            processor;
        value           uniform -3.64299412e-07;
    }
    procBoundary2to3
    {
        type            processor;
        value           uniform -3.84206975e-07;
    }
}


// ************************************************************************* //
