/*--------------------------------*- C++ -*----------------------------------*\
| =========                 |                                                 |
| \\      /  F ield         | OpenFOAM: The Open Source CFD Toolbox           |
|  \\    /   O peration     | Version:  2306                                  |
|   \\  /    A nd           | Website:  www.openfoam.com                      |
|    \\/     M anipulation  |                                                 |
\*---------------------------------------------------------------------------*/
FoamFile
{
    version     2.0;
    format      ascii;
    arch        "LSB;label=32;scalar=64";
    class       surfaceScalarField;
    location    "0.00192";
    object      phi;
}
// * * * * * * * * * * * * * * * * * * * * * * * * * * * * * * * * * * * * * //

dimensions      [1 0 -1 0 0 0 0];

oriented        oriented;

internalField   nonuniform List<scalar> 
529
(
1.97929879e-06
1.93550502e-06
1.93624654e-06
1.93302732e-06
1.92493292e-06
1.92594184e-06
1.91952754e-06
1.96641131e-06
1.92998642e-06
1.9281535e-06
1.93512251e-06
1.93294084e-06
1.93735442e-06
1.93628593e-06
1.93076156e-06
1.93422211e-06
1.93954097e-06
1.93603177e-06
1.93018067e-06
1.93364288e-06
1.95086033e-06
1.9229827e-06
1.93586031e-06
1.91304646e-06
1.90630217e-06
1.91161297e-06
1.90737871e-06
1.91544141e-06
1.9055787e-06
1.86654367e-06
1.89323115e-06
1.89147171e-06
1.88887331e-06
1.89270032e-06
1.90010159e-06
1.89812125e-06
1.89451957e-06
1.89742897e-06
1.91242553e-06
1.89260279e-06
1.82460812e-06
1.86484613e-06
1.86072473e-06
1.88368405e-06
1.84182775e-06
1.84336623e-06
1.85282183e-06
1.85256861e-06
1.85323852e-06
1.85345024e-06
1.86615754e-06
1.88443629e-06
1.86029602e-06
1.77998285e-06
1.83498346e-06
1.83403427e-06
1.83515054e-06
1.81735256e-06
1.75857682e-06
1.79889001e-06
1.79633301e-06
1.7965177e-06
1.79031036e-06
1.76741577e-06
1.76635724e-06
1.76374003e-06
1.75593653e-06
1.75614561e-06
1.74054754e-06
1.69139872e-06
1.72417809e-06
1.72316809e-06
1.69656713e-06
1.69250283e-06
1.70100875e-06
1.69732787e-06
1.69865995e-06
1.69545051e-06
1.69728997e-06
1.68162838e-06
1.62609324e-06
1.65794238e-06
1.65131226e-06
1.64701422e-06
1.63019917e-06
1.69146644e-06
1.64369683e-06
1.63868775e-06
1.61103466e-06
1.6036174e-06
1.61237559e-06
1.60933189e-06
1.61149409e-06
1.60915527e-06
1.61009128e-06
1.61246445e-06
1.60048216e-06
1.5459705e-06
1.58058632e-06
1.57834494e-06
1.59664721e-06
1.55155047e-06
1.5477112e-06
1.55596701e-06
1.55100415e-06
1.51877525e-06
1.54175391e-06
1.53995184e-06
1.54488581e-06
1.53967924e-06
1.5199047e-06
1.52548099e-06
1.51975808e-06
1.52489783e-06
1.52145435e-06
1.51677046e-06
1.50369057e-06
1.45916107e-06
1.4852816e-06
1.47916292e-06
1.48411741e-06
1.4761937e-06
1.46904763e-06
1.47466637e-06
1.47054629e-06
1.46272947e-06
1.44901725e-06
1.45326718e-06
1.45593355e-06
1.43335474e-06
1.42251936e-06
1.42744037e-06
1.42331385e-06
1.42268147e-06
1.42026663e-06
1.4057747e-06
1.39216316e-06
1.39828871e-06
1.39502705e-06
1.36311447e-06
1.36656342e-06
1.37320403e-06
1.36668236e-06
1.34574571e-06
1.35518271e-06
1.35161652e-06
1.31626762e-06
1.30818969e-06
1.31625025e-06
1.31225144e-06
1.2763269e-06
1.27061854e-06
1.27808882e-06
1.27464368e-06
1.22718128e-06
1.22523138e-06
1.23485549e-06
1.23242206e-06
1.23487362e-06
1.23257386e-06
1.22553649e-06
1.22348953e-06
1.21390266e-06
1.21046386e-06
1.20307927e-06
1.17845284e-06
1.1930973e-06
1.19134284e-06
1.20883299e-06
1.16023717e-06
1.15985108e-06
1.15514094e-06
1.14853089e-06
1.13695281e-06
1.14848137e-06
1.14708239e-06
1.10919853e-06
1.1003591e-06
1.11529325e-06
1.11299468e-06
1.10344409e-06
1.10189325e-06
1.05838962e-06
1.05577618e-06
1.05654906e-06
1.05117682e-06
1.05472298e-06
1.01869388e-06
1.02372642e-06
1.02234766e-06
1.05180596e-06
1.04448543e-06
1.04233946e-06
1.05389674e-06
1.05156408e-06
1.00225158e-06
9.8724486e-07
9.94938769e-07
9.9332746e-07
9.84281779e-07
9.7705341e-07
9.8500235e-07
9.89417295e-07
9.87571917e-07
9.46360112e-07
9.10859015e-07
9.47751224e-07
9.43134971e-07
9.3936906e-07
9.46789208e-07
9.44522368e-07
9.51676484e-07
9.49545594e-07
9.31615641e-07
9.4491862e-07
9.50753317e-07
9.49021916e-07
9.55446876e-07
9.53627083e-07
9.44043929e-07
9.37002263e-07
9.41974215e-07
9.377613e-07
9.50933083e-07
9.34768841e-07
9.10837305e-07
9.0433571e-07
8.96892789e-07
9.06383805e-07
9.03792872e-07
9.09410478e-07
8.79663999e-07
8.63866693e-07
8.70209182e-07
8.59724336e-07
8.43431799e-07
8.50380928e-07
8.70328086e-07
8.62383208e-07
8.42791591e-07
8.66841541e-07
8.72364508e-07
8.71798956e-07
8.75879298e-07
8.74587707e-07
8.9632353e-07
8.37921162e-07
8.5078361e-07
8.58757302e-07
8.52400074e-07
8.44004892e-07
8.52473738e-07
8.52784515e-07
8.41172409e-07
8.15886836e-07
8.12417738e-07
8.04528399e-07
8.0572851e-07
8.10143514e-07
8.08935739e-07
8.15757944e-07
8.14570543e-07
8.18205275e-07
8.12734422e-07
8.01999825e-07
7.91789996e-07
7.96424278e-07
7.93651705e-07
7.62127838e-07
7.57805977e-07
7.63973352e-07
7.6260068e-07
7.52542157e-07
7.3690723e-07
7.3371467e-07
7.37336967e-07
7.42386344e-07
7.44606578e-07
7.45554271e-07
7.5331972e-07
7.31328438e-07
7.18585663e-07
7.25478606e-07
7.2186121e-07
7.26584341e-07
7.31782121e-07
7.36108253e-07
7.46893709e-07
7.3951591e-07
7.24586096e-07
7.30700382e-07
7.29797296e-07
7.03889818e-07
7.00312866e-07
7.06161979e-07
7.07211904e-07
6.97695716e-07
6.86426297e-07
6.89856697e-07
7.22970516e-07
7.46855972e-07
6.94783321e-07
6.98378233e-07
7.08817988e-07
7.12319837e-07
7.2152931e-07
7.25250993e-07
7.10399292e-07
7.21013316e-07
7.6258511e-07
7.43561466e-07
7.47357791e-07
7.41133279e-07
7.49607188e-07
7.69339658e-07
7.7042749e-07
7.71722612e-07
7.5130327e-07
7.45930854e-07
7.45754947e-07
7.44425299e-07
6.98388436e-07
6.81576381e-07
6.94530161e-07
7.3428104e-07
7.17490812e-07
7.18697606e-07
7.27408583e-07
7.28662756e-07
7.33417796e-07
7.22532805e-07
7.00809835e-07
7.18476565e-07
7.45922076e-07
7.39478015e-07
7.39492495e-07
7.14285997e-07
7.14297422e-07
7.21763661e-07
7.22240522e-07
7.33147235e-07
7.33639444e-07
7.21686402e-07
7.08704816e-07
7.30906888e-07
7.35810776e-07
7.35518496e-07
7.38021622e-07
6.93296701e-07
6.92951797e-07
7.24342923e-07
7.2590088e-07
7.28470538e-07
7.3457648e-07
7.07629965e-07
6.99195985e-07
7.01098505e-07
6.94418056e-07
7.02931542e-07
7.00210769e-07
7.05171256e-07
6.41241167e-07
6.43668572e-07
6.80071466e-07
6.84271684e-07
6.87400608e-07
6.9155017e-07
6.93143707e-07
6.95081759e-07
6.89012444e-07
6.72296804e-07
6.88263119e-07
6.95860084e-07
7.0759976e-07
7.10082828e-07
7.07060066e-07
7.02118709e-07
6.90217881e-07
6.9334918e-07
6.94549608e-07
6.87526112e-07
6.85933407e-07
7.16377075e-07
7.1790501e-07
7.20825634e-07
7.24511447e-07
7.19501175e-07
6.98981613e-07
6.97810669e-07
7.06547638e-07
7.54522976e-07
7.2870561e-07
7.31490794e-07
7.60269006e-07
7.17975995e-07
7.08201045e-07
7.12635637e-07
7.15060347e-07
7.21914374e-07
7.07347432e-07
7.0011038e-07
7.02155052e-07
7.01924496e-07
7.1316812e-07
7.10259619e-07
7.18148581e-07
7.34239957e-07
7.34745435e-07
7.45513373e-07
7.43799999e-07
7.59475051e-07
7.7461622e-07
7.77215935e-07
7.79255505e-07
7.66942297e-07
7.61616411e-07
7.62915288e-07
7.78438833e-07
7.75307005e-07
7.76831996e-07
8.07940872e-07
8.0969187e-07
8.1388933e-07
8.11536041e-07
8.04794726e-07
7.95246289e-07
7.96915188e-07
7.97493536e-07
7.89205733e-07
7.875702e-07
7.9104143e-07
7.92567413e-07
7.85855475e-07
7.83761812e-07
7.86349011e-07
7.89968419e-07
7.86485066e-07
7.98068081e-07
7.95320963e-07
8.06281924e-07
8.12173796e-07
8.11056327e-07
8.21994055e-07
8.33555559e-07
8.35312306e-07
8.3809835e-07
8.3306239e-07
8.29788786e-07
8.31085048e-07
8.33512593e-07
8.30786149e-07
8.32338062e-07
8.30331717e-07
8.17545941e-07
7.90869614e-07
8.03232328e-07
8.28463548e-07
8.3011368e-07
8.31785541e-07
8.33792927e-07
8.34222111e-07
8.36637953e-07
7.94069423e-07
7.80193874e-07
7.97979102e-07
8.4313767e-07
8.28203926e-07
8.29314692e-07
8.31620804e-07
8.33449931e-07
8.45270684e-07
8.43858167e-07
8.30098548e-07
8.46463751e-07
8.23923956e-07
8.55227562e-07
8.56942091e-07
8.42362543e-07
8.4211096e-07
8.46937933e-07
8.47755773e-07
8.39600682e-07
8.40355417e-07
8.44523689e-07
8.44717375e-07
8.47682505e-07
8.47583621e-07
8.40515005e-07
8.28468718e-07
8.4052559e-07
8.56633288e-07
8.54821196e-07
8.55154961e-07
8.45049458e-07
8.4183376e-07
8.43920206e-07
8.46821063e-07
8.47236484e-07
8.57175638e-07
8.46975066e-07
8.58126896e-07
8.74155425e-07
8.74504278e-07
8.75055442e-07
8.6832878e-07
8.74000942e-07
8.67582721e-07
8.6587769e-07
8.7356218e-07
8.75012876e-07
8.57628789e-07
8.72564051e-07
8.76818549e-07
8.79461598e-07
8.73251478e-07
8.69988463e-07
8.58073046e-07
8.70032827e-07
8.86682168e-07
8.84446436e-07
8.83790664e-07
8.72100331e-07
8.72195102e-07
8.64486579e-07
8.65349976e-07
8.66843334e-07
8.64725875e-07
8.594425e-07
8.62357191e-07
)
;

boundaryField
{
    closed
    {
        type            calculated;
        value           nonuniform List<scalar> 0();
    }
    open
    {
        type            calculated;
        value           nonuniform List<scalar> 0();
    }
    sides
    {
        type            empty;
        value           nonuniform List<scalar> 0();
    }
    procBoundary2to1
    {
        type            processor;
        value           uniform -1.96586954e-06;
    }
    procBoundary2to3
    {
        type            processor;
        value           uniform 8.62392168e-07;
    }
}


// ************************************************************************* //
