/*--------------------------------*- C++ -*----------------------------------*\
| =========                 |                                                 |
| \\      /  F ield         | OpenFOAM: The Open Source CFD Toolbox           |
|  \\    /   O peration     | Version:  2306                                  |
|   \\  /    A nd           | Website:  www.openfoam.com                      |
|    \\/     M anipulation  |                                                 |
\*---------------------------------------------------------------------------*/
FoamFile
{
    version     2.0;
    format      ascii;
    arch        "LSB;label=32;scalar=64";
    class       volScalarField;
    location    "0.00192";
    object      prefDZ_H;
}
// * * * * * * * * * * * * * * * * * * * * * * * * * * * * * * * * * * * * * //

dimensions      [1 -1 -1 0 0 0 0];

internalField   nonuniform List<scalar> 
530
(
0.000105252709
0.000105763838
0.000110107552
0.000110292071
0.000110193876
0.000107824668
0.000105665873
0.000105735645
0.00010995841
0.000110277117
0.000107262427
0.000106440042
0.000109979092
0.000110289255
0.000107047476
0.000106676932
0.000110014014
0.000110297237
0.000110178659
0.0001078876
0.000106344794
0.000105473835
0.000105501728
0.000110004083
0.000110193766
0.000110116835
0.000110179168
0.000107840154
0.00010567164
0.000105724069
0.00011002248
0.000110281559
0.00010723722
0.000106615487
0.000110057069
0.000110298851
0.000110186176
0.000107884901
0.000106460538
0.000105409785
0.000105407841
0.000110074658
0.000110191626
0.000110169289
0.000107248417
0.000105883265
0.00010997269
0.00011021765
0.000110043855
0.000110242223
0.000108040303
0.000107253775
0.00010639247
0.000106403078
0.000110119114
0.000110194389
0.000107910012
0.000105801563
0.000105833548
0.000110082568
0.000110179115
0.00010791849
0.000105326747
0.000105531971
0.000110091714
0.000110212746
0.000110139295
0.00010789033
0.000105563748
0.000105620416
0.00010996295
0.000110197414
0.000107016323
0.000105911636
0.000109924501
0.00011014015
0.000110041565
0.000110121547
0.000107905929
0.000105479
0.000105513007
0.000110086258
0.000110139872
0.000107946641
0.000104796661
0.000104887507
0.000109975428
0.000110190631
0.000106618947
0.000105663762
0.000109956579
0.000110195628
0.000110057106
0.000110214323
0.000107924185
0.000106522422
0.000105447722
0.000105454511
0.000110112959
0.000110198611
0.00011018326
0.0001070935
0.000106205262
0.000110141874
0.000110213027
0.000110194311
0.000107571545
0.000107162576
0.000110128842
0.000107866075
0.000106002567
0.000110165565
0.000110204893
0.000110183711
0.000107871391
0.000106703715
0.000105762934
0.000105762946
0.000110163031
0.000110219279
0.000110193076
0.000107940244
0.000106191742
0.000110192399
0.000110170768
0.000107860281
0.000105745317
0.000106019418
0.000110141183
0.000107795003
0.000106037358
0.000110144528
0.000110219052
0.000110128608
0.000107860658
0.000105537833
0.000105601575
0.000110087765
0.000110237075
0.00010716034
0.000107160316
0.000110075936
0.000107881442
0.000105225476
0.0001101091
0.000110145243
0.000107021142
0.000106038936
0.00011003745
0.000110213534
0.000106637642
0.000106031512
0.000110010939
0.000110240166
0.000106091452
0.000105991468
0.000109984869
0.000110256551
0.000110004333
0.000110278318
0.000110077994
0.000107879911
0.000106714413
0.000106774481
0.000105197034
0.000105228515
0.000110136642
0.000110149236
0.000110156761
0.000107083211
0.000107111209
0.000110140645
0.000107918289
0.000105104085
0.000110108904
0.000110115141
0.000106738734
0.000105786807
0.000110082068
0.00011017223
0.000106336488
0.000105531971
0.000108716506
0.000110206901
0.000110216993
0.000110246183
0.000110215317
0.000107575051
0.000105696227
0.00010408403
0.00010409779
0.000110052789
0.000110109348
0.000110074321
0.000110143112
0.00010788649
0.000106153105
0.000110231104
0.000110110366
0.000107860636
0.000105491017
0.000105596629
0.000110120831
0.000110259506
0.000107009873
0.000107018021
0.000110168546
0.000107879383
0.000105424674
0.000110224858
0.000110181701
0.000110137549
0.000107914809
0.000104608922
0.000104829411
0.000110096026
0.000110201594
0.000110115232
0.000110227609
0.000107985102
0.000107022406
0.000110163534
0.000110195555
0.000108337136
0.00010733882
0.00010699311
0.000105587541
0.000105623641
0.000110161295
0.000110126551
0.000110144706
0.000107794355
0.000107347666
0.000110123853
0.000107894755
0.000105057264
0.000110249589
0.000110037618
0.000107935754
0.000103764912
0.000104146535
0.000109999448
0.000110122859
0.000110045485
0.000110136395
0.000110126558
0.000106716215
0.00010658544
0.000110133346
0.000107843627
0.00010483764
0.000110291843
0.000110030164
0.000107845182
0.000106185975
0.000106589112
0.00010453975
0.000104665421
0.000110049758
0.000110198079
0.000110022259
0.000110246836
0.000110029164
0.000107985073
0.000106123583
0.000106162837
0.000110239729
0.000110292557
0.000107565725
0.000106798511
0.000110316874
0.000110254031
0.000107862394
0.000106807541
0.00010687058
0.000105398682
0.000105410571
0.0001102697
0.000110225861
0.00011024182
0.000107371222
0.000107191092
0.000110283021
0.000107851113
0.0001056988
0.000110297166
0.000110228551
0.000110231571
0.00010788246
0.000106233987
0.000110314333
0.00011022054
0.000107544564
0.000106624781
0.000110330966
0.000110184096
0.000107828569
0.000106361744
0.000106570236
0.000104916343
0.000104905726
0.000108497596
0.000110179252
0.000110274639
0.000110195912
0.000110248901
0.000110211085
0.00010791305
0.000105604299
0.000105622973
0.000110286591
0.000110183879
0.000107867415
0.000105028213
0.000105165952
0.000110195873
0.0001102415
0.000107205774
0.000106217776
0.000110247958
0.000110205767
0.000107926969
0.000106620333
0.000105230867
0.000105237951
0.000110165309
0.00011017163
0.000110150757
0.000110209477
0.000110152876
0.000107918901
0.000107290863
0.000105943486
0.000105957507
0.000110170094
0.000110237185
0.000106248398
0.000106042572
0.00011021708
0.000110256642
0.000110218114
0.00011026762
0.000107882518
0.000107010179
0.000106080806
0.00010601953
0.000110240142
0.000110215849
0.000107810404
0.000104749677
0.000105092519
0.000110185553
0.000110173983
0.000110211103
0.000107453206
0.000107112169
0.000110196432
0.000107832195
0.000104849438
0.00011033425
0.000110154244
0.000107791061
0.000104122088
0.000104667858
0.000110093479
0.000110240095
0.000110120143
0.000110264991
0.000110143495
0.000107846536
0.000107100357
0.000105835695
0.000105894715
0.000110233973
0.000110217431
0.000110197334
0.000107892358
0.000106196468
0.000110317178
0.00011014652
0.000107819442
0.000105578329
0.000105912138
0.000110158471
0.000110241692
0.000110147301
0.000107882047
0.000106438668
0.000106669168
0.000104829786
0.000104858199
0.000110159118
0.00011017285
0.000110168918
0.000106311949
0.000105932743
0.000110211893
0.000110202681
0.00011020301
0.000107211355
0.000106288799
0.000110247787
0.000110219492
0.000110224301
0.000107881297
0.000105505056
0.000105526991
0.000110256045
0.000110231804
0.000107875263
0.000105246813
0.000105295667
0.000110214315
0.000110219921
0.000107263025
0.000105765689
0.000110269339
0.000110195263
0.000107888399
0.000104722517
0.000105203911
0.000110164002
0.000110215703
0.000110196408
0.00010768391
0.000106210845
0.000110251445
0.000110210818
0.000107233536
0.000106571596
0.000110259069
0.000110218633
0.000107418864
0.000106585557
0.000110271244
0.000110193629
0.00010785532
0.000105987385
0.000105991545
0.000110238295
0.000110176784
0.000107853004
0.000105580522
0.000105646365
0.000110175844
0.000110223151
0.000107235915
0.000106239908
0.000110223027
0.000110187229
0.000107238396
0.000105941716
0.000110246804
0.000110174462
0.00010788091
0.000104277632
0.000104744477
0.000110110528
0.000110224987
0.000110150088
0.000110241441
0.000110180137
0.000107892655
0.000106639185
0.000104918152
0.000104959497
0.00011017925
0.000110198709
0.000110193758
0.000110229594
0.000110202192
0.00010789822
0.000106847562
0.000105717631
0.000105718346
0.000110133683
0.000110215397
0.000106262647
0.00010586909
0.000110121907
0.000110219417
0.000105950333
0.000105919863
0.000110151673
0.000110218974
0.00011017797
0.000110225643
0.000107913665
0.000106925768
0.000105861435
0.000105869879
0.000110111845
0.000110176697
0.00010602901
0.00010567193
0.000110174608
0.000110170975
0.000110233778
0.000110194183
0.000107848017
0.000105499594
0.000105642919
0.000110170503
0.000110236993
0.000107103401
0.00010710592
0.000110227482
0.000107880047
0.000106410561
0.000110246766
0.000107590088
0.000105717952
0.000110172885
0.000110202922
0.000110177714
0.000107885918
0.000106517907
0.000105757214
0.000105756279
0.000110121473
0.000110172652
0.00010604207
0.000106076139
0.000110152919
0.000110189589
0.000110175595
0.000107119928
0.000106340103
0.000110184451
0.000110187236
)
;

boundaryField
{
    closed
    {
        type            calculated;
        value           nonuniform List<scalar> 0();
    }
    open
    {
        type            calculated;
        value           nonuniform List<scalar> 0();
    }
    sides
    {
        type            empty;
    }
    procBoundary2to1
    {
        type            processor;
        value           uniform 0.000107843448;
    }
    procBoundary2to3
    {
        type            processor;
        value           uniform 0.000110191683;
    }
}


// ************************************************************************* //
