/*--------------------------------*- C++ -*----------------------------------*\
| =========                 |                                                 |
| \\      /  F ield         | OpenFOAM: The Open Source CFD Toolbox           |
|  \\    /   O peration     | Version:  2306                                  |
|   \\  /    A nd           | Website:  www.openfoam.com                      |
|    \\/     M anipulation  |                                                 |
\*---------------------------------------------------------------------------*/
FoamFile
{
    version     2.0;
    format      ascii;
    arch        "LSB;label=32;scalar=64";
    class       volScalarField;
    location    "0.00192";
    object      prefDh_T;
}
// * * * * * * * * * * * * * * * * * * * * * * * * * * * * * * * * * * * * * //

dimensions      [1 1 -3 -1 0 0 0];

internalField   nonuniform List<scalar> 
530
(
-0.00043834014
-0.000470124212
-0.00073509351
-0.000742342868
-0.000737049441
-0.000598639678
-0.000465014544
-0.000468129399
-0.000726382805
-0.000742361275
-0.000566830152
-0.00051309672
-0.000728401037
-0.000742709449
-0.000553223129
-0.000528102348
-0.000730774418
-0.000742445015
-0.000736232007
-0.000604376103
-0.000507725041
-0.000452291146
-0.000453724632
-0.000731102088
-0.000737949911
-0.000733855655
-0.000736994158
-0.00059653596
-0.000465223657
-0.000467524922
-0.00073003886
-0.000742559463
-0.000564851006
-0.000524195896
-0.00073325561
-0.000742575233
-0.000736642604
-0.000604201357
-0.000515193502
-0.000448052106
-0.000447866982
-0.000734917149
-0.000737123626
-0.000736867441
-0.000565340487
-0.00047814002
-0.000729017203
-0.00073881429
-0.000729521942
-0.000739760711
-0.000604968595
-0.000564917522
-0.000511310525
-0.000511101266
-0.000736007228
-0.0007375583
-0.000605244413
-0.000473693077
-0.000474985594
-0.000733488001
-0.000737128662
-0.000605203288
-0.00044317636
-0.000455877432
-0.000734080646
-0.000737767945
-0.000733910372
-0.000603526396
-0.000458859856
-0.000461282175
-0.000726917348
-0.000737984328
-0.000551714941
-0.000480150323
-0.000726109305
-0.000734681284
-0.000729375052
-0.000733694417
-0.0006027235
-0.000453218437
-0.000454675741
-0.000733745277
-0.000735171139
-0.00060877587
-0.000409590834
-0.00041453471
-0.000727985584
-0.000737997595
-0.00052614283
-0.000464126116
-0.000728333638
-0.000737918777
-0.000730547045
-0.00073879176
-0.000605046885
-0.000519104174
-0.000450653668
-0.000450866713
-0.000736855084
-0.000737565766
-0.000737519342
-0.000555117404
-0.00049869062
-0.000738357091
-0.000737876181
-0.000737712045
-0.000585616158
-0.000559493443
-0.000736788724
-0.000601539778
-0.000486175237
-0.000739211981
-0.000737055956
-0.000736989889
-0.000599949903
-0.000530631828
-0.000470578199
-0.00047052427
-0.000739248552
-0.000738184974
-0.000737971042
-0.000608653295
-0.000498068375
-0.000739494619
-0.000736296305
-0.000598386701
-0.000469874371
-0.000486812326
-0.000736700598
-0.000599337327
-0.00048830938
-0.000738203744
-0.000737914258
-0.000734162853
-0.000599703466
-0.000456932467
-0.000459992155
-0.000733438463
-0.000739764738
-0.000560232937
-0.000559383984
-0.000733972766
-0.000601634193
-0.000436795629
-0.000735268549
-0.000735005104
-0.000551401366
-0.000488244642
-0.00073152254
-0.000738691575
-0.000527295126
-0.000487424317
-0.000730338236
-0.000740250722
-0.000492568287
-0.000484688862
-0.000730058167
-0.000740831392
-0.000728324608
-0.000741420149
-0.000730064712
-0.000596202391
-0.000531844531
-0.000534796102
-0.000434835335
-0.000436451022
-0.000737343408
-0.000734709675
-0.000735343951
-0.000555051987
-0.00055685473
-0.000737342792
-0.00060450956
-0.000429023904
-0.000735075462
-0.000733355955
-0.0005334621
-0.000472376599
-0.00073422338
-0.000736547994
-0.000507353179
-0.000455723882
-0.000646765329
-0.000738617957
-0.000740115887
-0.000740135429
-0.00073847007
-0.000585613383
-0.000466719235
-0.000363243124
-0.00036420956
-0.000734068644
-0.000733738861
-0.000732059433
-0.000735228128
-0.000605860103
-0.000496078726
-0.000741060863
-0.000732854849
-0.000600252888
-0.000453983622
-0.000459593876
-0.000734960652
-0.000741138861
-0.00055048581
-0.000550022783
-0.000738897451
-0.000604136029
-0.000449355058
-0.000742528041
-0.000736046385
-0.000735379355
-0.000605662533
-0.000397408901
-0.000410697599
-0.000734663201
-0.000738493583
-0.000733440542
-0.000739398205
-0.000610720297
-0.000550809206
-0.000737348292
-0.000736368742
-0.000622373091
-0.000570877233
-0.000549694869
-0.000459569976
-0.000462160239
-0.000738109498
-0.000732862255
-0.000735197039
-0.000600294809
-0.000571793764
-0.000735636651
-0.000597531687
-0.000426178338
-0.000742048789
-0.000729621371
-0.000608008324
-0.000343501515
-0.000367160331
-0.000729968642
-0.000734325714
-0.000731130771
-0.000734380584
-0.000733958104
-0.0005316708
-0.000522962968
-0.000737126307
-0.000599114879
-0.000412226474
-0.000744375532
-0.000728277297
-0.000596313613
-0.000498874744
-0.000523109817
-0.00039317437
-0.00040031949
-0.000732550046
-0.000738121622
-0.00072935812
-0.000740108747
-0.000727887408
-0.000600812878
-0.000494149304
-0.000495495932
-0.000741247981
-0.000742948396
-0.000584789084
-0.000536099109
-0.00074555458
-0.000740277772
-0.000594887859
-0.000536864508
-0.000540705728
-0.000447041819
-0.000447824731
-0.000744167476
-0.000739034975
-0.000740833236
-0.000572469307
-0.000561098903
-0.000744737627
-0.000601133754
-0.000466369755
-0.000745938789
-0.000738746675
-0.000740968282
-0.000603560945
-0.000500628026
-0.000745393792
-0.000738783961
-0.000583085662
-0.000525615619
-0.000746087088
-0.000736501473
-0.00059466383
-0.000509008275
-0.000521636466
-0.000416357113
-0.000415495324
-0.00063225551
-0.0007377953
-0.000743303746
-0.000738388889
-0.000740436402
-0.000738603202
-0.00059804617
-0.00046022511
-0.000461531571
-0.000743921167
-0.000737692099
-0.000602672547
-0.000423880874
-0.000431969524
-0.000738855052
-0.000740694828
-0.000562199971
-0.00049946524
-0.000741539436
-0.000737924636
-0.000608038912
-0.000525655805
-0.000436724308
-0.000437213567
-0.000738695058
-0.000736140525
-0.000736334112
-0.000737381256
-0.000734471159
-0.000598882694
-0.000568058719
-0.000482294366
-0.000482800228
-0.000738011131
-0.000740043909
-0.000501564864
-0.00048797078
-0.000741559954
-0.000740997279
-0.000739397853
-0.000741323625
-0.000598370409
-0.000549702864
-0.000490784531
-0.000486626817
-0.000741582006
-0.000739518055
-0.000600390953
-0.000405925064
-0.000427621036
-0.000739176881
-0.000736067187
-0.000739226216
-0.000578210973
-0.000556315101
-0.000739543751
-0.000594182661
-0.000412399277
-0.000746240121
-0.00073614072
-0.000598592105
-0.000366077248
-0.000400050681
-0.000734330854
-0.000740484975
-0.000734399113
-0.000740756444
-0.000733907948
-0.000597998115
-0.000556308972
-0.000474890893
-0.000479101892
-0.000741992237
-0.000737998011
-0.000738510006
-0.000604577125
-0.000498579985
-0.00074490693
-0.000734829054
-0.000595497382
-0.000459201181
-0.00047961623
-0.000736833728
-0.000739238527
-0.00073465062
-0.000597037381
-0.000514167857
-0.000528231085
-0.000411125437
-0.000412713652
-0.000738022209
-0.000736654359
-0.000737110523
-0.000505341391
-0.0004814625
-0.000741411603
-0.000737484228
-0.000739428954
-0.000562326851
-0.00050411711
-0.000742754369
-0.000737727957
-0.000740069043
-0.00060143369
-0.000454077985
-0.000455318586
-0.000741540024
-0.000740147677
-0.000602669176
-0.000437696267
-0.000440356688
-0.000739628674
-0.000739553638
-0.000565449673
-0.000470804892
-0.000742578037
-0.000738251997
-0.000604210023
-0.000404272057
-0.000434539489
-0.00073805507
-0.000738305807
-0.000738602062
-0.000592280304
-0.000499262068
-0.000741683528
-0.000738183534
-0.00056362199
-0.000522069023
-0.000742167659
-0.000738496394
-0.000575304493
-0.000523110135
-0.000742299263
-0.000737286067
-0.000599103326
-0.000484973062
-0.000485040783
-0.000740418822
-0.000736778624
-0.000599447021
-0.000459240858
-0.000462774867
-0.000737181676
-0.000739337431
-0.000564117274
-0.000501022666
-0.000740171968
-0.000737080802
-0.000563935868
-0.000482229312
-0.000741178082
-0.000736947134
-0.000604589027
-0.000375900411
-0.000405070118
-0.000735209538
-0.000739598856
-0.000736094198
-0.000739504892
-0.000736181161
-0.000605542071
-0.000526976792
-0.000416323381
-0.000419283775
-0.000739861666
-0.000737965065
-0.00073904684
-0.000738654155
-0.000737718528
-0.000603139047
-0.00053988535
-0.000467778149
-0.000467590197
-0.000736153886
-0.000738947175
-0.00050263956
-0.000477104257
-0.000735514064
-0.000739021135
-0.000482674086
-0.000480300155
-0.000737630077
-0.000738829891
-0.000736769187
-0.000738917854
-0.00060283456
-0.000544742665
-0.000477251662
-0.000477360033
-0.000734877182
-0.000736629735
-0.000487608557
-0.000464840105
-0.000738901926
-0.00073657714
-0.000740084063
-0.000737767512
-0.000597180527
-0.00045396845
-0.000462549656
-0.000737011129
-0.000739719251
-0.000555739763
-0.000555897722
-0.000740695467
-0.000602690068
-0.000511802633
-0.000742126551
-0.000586560339
-0.000467627637
-0.000738165102
-0.000737011035
-0.000737050315
-0.000598868054
-0.000519007424
-0.000470357456
-0.000470222414
-0.000735562413
-0.000736259096
-0.000488438395
-0.000490624879
-0.000737659801
-0.000736699502
-0.000737584404
-0.000556720434
-0.000507547686
-0.000739257058
-0.000735768315
)
;

boundaryField
{
    closed
    {
        type            calculated;
        value           nonuniform List<scalar> 0();
    }
    open
    {
        type            calculated;
        value           nonuniform List<scalar> 0();
    }
    sides
    {
        type            empty;
    }
    procBoundary2to1
    {
        type            processor;
        value           uniform -0.000600075511;
    }
    procBoundary2to3
    {
        type            processor;
        value           uniform -0.000738408769;
    }
}


// ************************************************************************* //
