/*--------------------------------*- C++ -*----------------------------------*\
| =========                 |                                                 |
| \\      /  F ield         | OpenFOAM: The Open Source CFD Toolbox           |
|  \\    /   O peration     | Version:  2306                                  |
|   \\  /    A nd           | Website:  www.openfoam.com                      |
|    \\/     M anipulation  |                                                 |
\*---------------------------------------------------------------------------*/
FoamFile
{
    version     2.0;
    format      ascii;
    arch        "LSB;label=32;scalar=64";
    class       volScalarField;
    location    "0.00086";
    object      prefDZ_H2;
}
// * * * * * * * * * * * * * * * * * * * * * * * * * * * * * * * * * * * * * //

dimensions      [1 -1 -1 0 0 0 0];

internalField   nonuniform List<scalar> 
531
(
6.35461119e-05
6.35771756e-05
6.22955375e-05
6.16406811e-05
6.16439373e-05
6.35437875e-05
6.35947162e-05
6.35708338e-05
6.23455413e-05
6.19552741e-05
6.19387377e-05
6.14995499e-05
6.1507421e-05
6.35291048e-05
6.36116888e-05
6.21121864e-05
6.17913761e-05
6.35490662e-05
6.36016681e-05
6.22251397e-05
6.1872316e-05
6.35691463e-05
6.35769016e-05
6.22818665e-05
6.1692332e-05
6.17022013e-05
6.35407693e-05
6.36050075e-05
6.23337014e-05
6.19526953e-05
6.35628048e-05
6.35771111e-05
6.22946098e-05
6.17669827e-05
6.17679374e-05
6.35535978e-05
6.35761326e-05
6.23189628e-05
6.16887511e-05
6.16957745e-05
6.35552788e-05
6.35820563e-05
6.35813725e-05
6.23130917e-05
6.19790027e-05
6.17081793e-05
6.17058582e-05
6.35539281e-05
6.35666415e-05
6.23130772e-05
6.13235633e-05
6.13689168e-05
6.35239962e-05
6.35961281e-05
6.35436075e-05
6.22925552e-05
6.13509385e-05
6.137888e-05
6.34906067e-05
6.35974358e-05
6.19904053e-05
6.16025697e-05
6.35033552e-05
6.35911392e-05
6.19237587e-05
6.165769e-05
6.35118302e-05
6.35866366e-05
6.19698439e-05
6.17075963e-05
6.35277377e-05
6.35759499e-05
6.21141848e-05
6.17539232e-05
6.35491358e-05
6.355299e-05
6.23196798e-05
6.16221839e-05
6.16291392e-05
6.35403241e-05
6.35491832e-05
6.23192444e-05
6.16648637e-05
6.16727531e-05
6.35391115e-05
6.35452951e-05
6.23232697e-05
6.14629508e-05
6.1475351e-05
6.35357587e-05
6.35406962e-05
6.35616718e-05
6.35392162e-05
6.23089394e-05
6.17472368e-05
6.18680573e-05
6.12951524e-05
6.13135777e-05
6.35082965e-05
6.35901918e-05
6.19360048e-05
6.163929e-05
6.3517394e-05
6.35925124e-05
6.19774508e-05
6.17634785e-05
6.35317226e-05
6.35924601e-05
6.20442726e-05
6.1827882e-05
6.35523059e-05
6.35845806e-05
6.21659816e-05
6.1853699e-05
6.35769215e-05
6.35642565e-05
6.23012485e-05
6.16798833e-05
6.16876728e-05
6.35661715e-05
6.35714799e-05
6.23086352e-05
6.16980638e-05
6.16970107e-05
6.35954867e-05
6.35629114e-05
6.22810445e-05
6.1543102e-05
6.15542608e-05
6.35640091e-05
6.36168401e-05
6.22040103e-05
6.18640081e-05
6.35773002e-05
6.3613716e-05
6.22248627e-05
6.20041016e-05
6.35951952e-05
6.35982683e-05
6.22944789e-05
6.20928725e-05
6.18010491e-05
6.1796526e-05
6.3593646e-05
6.35765881e-05
6.22877696e-05
6.15974705e-05
6.16068703e-05
6.357925e-05
6.35971585e-05
6.22883789e-05
6.18487386e-05
6.36089003e-05
6.35721533e-05
6.22741077e-05
6.16385865e-05
6.16460317e-05
6.35774512e-05
6.36188597e-05
6.23300842e-05
6.20048061e-05
6.35954724e-05
6.36076504e-05
6.22988365e-05
6.20886589e-05
6.17746891e-05
6.17772155e-05
6.35799813e-05
6.36002551e-05
6.22010233e-05
6.18943517e-05
6.36033803e-05
6.35768627e-05
6.22878324e-05
6.16971093e-05
6.16991101e-05
6.35897744e-05
6.3576131e-05
6.2299491e-05
6.1704273e-05
6.17073977e-05
6.35921325e-05
6.35657893e-05
6.22950179e-05
6.1631803e-05
6.16350779e-05
6.35814626e-05
6.35643724e-05
6.23104875e-05
6.135929e-05
6.13997398e-05
6.35630534e-05
6.35566718e-05
6.35754983e-05
6.35580252e-05
6.23106487e-05
6.16260105e-05
6.17747116e-05
6.10724822e-05
6.10940636e-05
6.35519861e-05
6.35810889e-05
6.35560246e-05
6.35937959e-05
6.35677682e-05
6.22985587e-05
6.1992207e-05
6.17327685e-05
6.17374784e-05
6.35899744e-05
6.35643393e-05
6.23022078e-05
6.16395068e-05
6.16465484e-05
6.35809662e-05
6.35720474e-05
6.23043671e-05
6.16792406e-05
6.16822175e-05
6.36027779e-05
6.35643682e-05
6.22839237e-05
6.16104459e-05
6.16215186e-05
6.35840807e-05
6.36001212e-05
6.22836257e-05
6.18732358e-05
6.36085042e-05
6.35801658e-05
6.22901991e-05
6.17058626e-05
6.17089789e-05
6.36055554e-05
6.35731002e-05
6.22906802e-05
6.1755361e-05
6.17622619e-05
6.35921035e-05
6.35976161e-05
6.23065225e-05
6.20260769e-05
6.17121994e-05
6.1712693e-05
6.35616718e-05
6.35972362e-05
6.18770726e-05
6.1798462e-05
6.35669175e-05
6.35826803e-05
6.35685263e-05
6.35815748e-05
6.23582847e-05
6.18819672e-05
6.19330646e-05
6.14792505e-05
6.14778675e-05
6.35874677e-05
6.35605713e-05
6.23081954e-05
6.13743105e-05
6.14254955e-05
6.35461678e-05
6.35961177e-05
6.20010625e-05
6.19433285e-05
6.35582937e-05
6.35898945e-05
6.35583927e-05
6.22998235e-05
6.1586143e-05
6.15922674e-05
6.3579563e-05
6.35665149e-05
6.22980556e-05
6.15585251e-05
6.16423398e-05
6.35607604e-05
6.35839484e-05
6.35622657e-05
6.23008769e-05
6.17828742e-05
6.18693492e-05
6.12253979e-05
6.12316032e-05
6.35575971e-05
6.35632556e-05
6.35763108e-05
6.35732415e-05
6.23033134e-05
6.15079113e-05
6.15112464e-05
6.35844895e-05
6.35709813e-05
6.22971349e-05
6.14026552e-05
6.1540759e-05
6.35658067e-05
6.35875854e-05
6.35737798e-05
6.23065135e-05
6.15755132e-05
6.16410289e-05
6.35763477e-05
6.35809146e-05
6.35805422e-05
6.23139246e-05
6.20354186e-05
6.1832089e-05
6.18292707e-05
6.35734152e-05
6.35772291e-05
6.23233196e-05
6.19464726e-05
6.15801063e-05
6.15823459e-05
6.3555574e-05
6.3560853e-05
6.35669374e-05
6.35683801e-05
6.23132487e-05
6.18306591e-05
6.15893043e-05
6.15638147e-05
6.35661482e-05
6.35486502e-05
6.21766537e-05
6.11495835e-05
6.12040275e-05
6.35326485e-05
6.35633249e-05
6.35480801e-05
6.35705215e-05
6.2327409e-05
6.18352978e-05
6.15818714e-05
6.1586393e-05
6.35329422e-05
6.35772014e-05
6.1754403e-05
6.17527927e-05
6.35536055e-05
6.35733107e-05
6.35490138e-05
6.23277579e-05
6.14687561e-05
6.14788681e-05
6.35344691e-05
6.35394866e-05
6.23430969e-05
6.13080298e-05
6.13491277e-05
6.35329326e-05
6.35390397e-05
6.35540661e-05
6.35509971e-05
6.23228061e-05
6.14883985e-05
6.17062066e-05
6.10034915e-05
6.10174893e-05
6.35235509e-05
6.354888e-05
6.35579076e-05
6.35651234e-05
6.23072143e-05
6.13102075e-05
6.14543279e-05
6.35640898e-05
6.36168501e-05
6.35859621e-05
6.22735888e-05
6.15552111e-05
6.15717933e-05
6.36098456e-05
6.36682038e-05
6.22037347e-05
6.1868318e-05
6.36727907e-05
6.36963101e-05
6.22195656e-05
6.18997659e-05
6.15422025e-05
6.15419306e-05
6.37717542e-05
6.37994675e-05
6.19432978e-05
6.0765582e-05
6.08332224e-05
6.39142935e-05
6.39572251e-05
6.40011982e-05
6.40352773e-05
6.41110364e-05
6.40900893e-05
6.1897835e-05
6.04104579e-05
6.06060629e-05
6.37615626e-05
6.39099315e-05
6.37125998e-05
6.05438077e-05
6.02538682e-05
6.35951494e-05
6.37621153e-05
6.36954317e-05
6.38117283e-05
6.3790847e-05
6.38647955e-05
6.38706605e-05
6.39372081e-05
6.39687313e-05
6.40570916e-05
6.41559773e-05
6.43137383e-05
6.46302694e-05
6.51458845e-05
6.47974674e-05
6.45105324e-05
6.42271955e-05
6.39737281e-05
6.37847738e-05
6.36003753e-05
6.35047092e-05
6.33284076e-05
6.31739415e-05
6.3134001e-05
6.31223443e-05
6.29184289e-05
6.28401647e-05
6.27544204e-05
6.27529575e-05
6.27890521e-05
6.24277734e-05
6.22398619e-05
6.17898362e-05
6.17514202e-05
6.1234419e-05
6.46615457e-05
6.46028261e-05
6.44967256e-05
6.34589034e-05
6.30930829e-05
6.22319588e-05
6.17217912e-05
6.08277238e-05
6.03181926e-05
6.04323116e-05
6.0504331e-05
6.06451861e-05
6.27418065e-05
6.50992653e-05
6.84750343e-05
7.0311803e-05
7.5264298e-05
7.82912584e-05
8.15132285e-05
8.46573531e-05
9.61949131e-05
9.71060282e-05
9.87370944e-05
0.000100080355
0.000102503905
0.000104414412
0.000107673134
0.000109936043
0.000113717439
0.00011677883
0.000120747078
0.000123512267
0.000127094984
0.000129493023
0.000132629849
0.000134448217
0.000136997196
0.00013952695
0.000141847002
0.000142636326
0.000144621086
0.000147259718
0.000149077779
0.000148804619
0.000150330945
0.000152883298
0.000153956482
0.000154469324
0.000155629645
0.000156927122
0.00015784751
0.000158865665
0.000159882506
0.000159944846
0.000160730267
0.000161238342
0.000162250514
0.000162032776
0.00016268604
0.000163269068
0.000164649119
0.000164107875
0.000165843371
0.000164976267
0.000165798183
0.000166786391
0.000168784302
0.000166499926
0.000167955304
0.000169330057
0.000169810134
0.00016788178
0.000168996989
0.000170429456
0.000170940638
0.000169486292
0.000170022963
0.000171689466
0.0001718551
0.00017062579
0.000170962671
0.000172019107
0.000172582283
0.000172329908
0.00017169733
0.000171821852
0.000173206522
0.000173336758
0.000172324025
0.000172412201
0.000173748112
0.000173615271
0.000172824105
)
;

boundaryField
{
    closed
    {
        type            calculated;
        value           nonuniform List<scalar> 0();
    }
    open
    {
        type            calculated;
        value           nonuniform List<scalar> 0();
    }
    sides
    {
        type            empty;
    }
    procBoundary4to3
    {
        type            processor;
        value           uniform 6.16867704e-05;
    }
    procBoundary4to5
    {
        type            processor;
        value           uniform 0.000172937261;
    }
}


// ************************************************************************* //
