/*--------------------------------*- C++ -*----------------------------------*\
| =========                 |                                                 |
| \\      /  F ield         | OpenFOAM: The Open Source CFD Toolbox           |
|  \\    /   O peration     | Version:  2306                                  |
|   \\  /    A nd           | Website:  www.openfoam.com                      |
|    \\/     M anipulation  |                                                 |
\*---------------------------------------------------------------------------*/
FoamFile
{
    version     2.0;
    format      ascii;
    arch        "LSB;label=32;scalar=64";
    class       volScalarField;
    location    "0.00086";
    object      prefDZ_T;
}
// * * * * * * * * * * * * * * * * * * * * * * * * * * * * * * * * * * * * * //

dimensions      [1 -1 -1 -1 0 0 0];

internalField   nonuniform List<scalar> 
531
(
-1.22854257e-09
-1.22693288e-09
-1.1969219e-09
-1.18761253e-09
-1.18735521e-09
-1.22863691e-09
-1.22617062e-09
-1.22638882e-09
-1.20367864e-09
-1.18904206e-09
-1.1887361e-09
-1.18692627e-09
-1.18655173e-09
-1.22949544e-09
-1.22675248e-09
-1.18983098e-09
-1.18802588e-09
-1.22907758e-09
-1.22649166e-09
-1.19027508e-09
-1.18857047e-09
-1.22845022e-09
-1.22678139e-09
-1.19518195e-09
-1.18790605e-09
-1.18752814e-09
-1.22852699e-09
-1.22646434e-09
-1.19150854e-09
-1.18896397e-09
-1.22829107e-09
-1.22655534e-09
-1.19645289e-09
-1.18824598e-09
-1.18801384e-09
-1.2283016e-09
-1.22676325e-09
-1.20037864e-09
-1.18778622e-09
-1.18770567e-09
-1.22860171e-09
-1.22603862e-09
-1.22659637e-09
-1.19926562e-09
-1.18911906e-09
-1.18788005e-09
-1.18776311e-09
-1.22906253e-09
-1.22740963e-09
-1.19097355e-09
-1.18623254e-09
-1.18598283e-09
-1.2291683e-09
-1.22639983e-09
-1.22718747e-09
-1.19042184e-09
-1.18655066e-09
-1.18594959e-09
-1.22954979e-09
-1.22713767e-09
-1.18955362e-09
-1.18715661e-09
-1.2297747e-09
-1.22691259e-09
-1.18918652e-09
-1.18746186e-09
-1.22968687e-09
-1.22685656e-09
-1.18934732e-09
-1.18777283e-09
-1.22932658e-09
-1.22686974e-09
-1.18994605e-09
-1.18814554e-09
-1.22857832e-09
-1.22715592e-09
-1.19320541e-09
-1.18772398e-09
-1.18749608e-09
-1.22822678e-09
-1.22717277e-09
-1.19556102e-09
-1.18792342e-09
-1.18775607e-09
-1.22823001e-09
-1.22736308e-09
-1.19445861e-09
-1.18694436e-09
-1.18681019e-09
-1.22894309e-09
-1.22736375e-09
-1.22704386e-09
-1.22718024e-09
-1.19898869e-09
-1.18835564e-09
-1.1884967e-09
-1.18620387e-09
-1.18573083e-09
-1.22954172e-09
-1.22720217e-09
-1.1892735e-09
-1.18735767e-09
-1.2293808e-09
-1.22676015e-09
-1.18942266e-09
-1.18797651e-09
-1.22908712e-09
-1.22658977e-09
-1.18965111e-09
-1.18833667e-09
-1.22867889e-09
-1.2265856e-09
-1.19010518e-09
-1.18858785e-09
-1.22797906e-09
-1.22689833e-09
-1.19412743e-09
-1.18787647e-09
-1.18766156e-09
-1.22778204e-09
-1.22688746e-09
-1.19785941e-09
-1.18781792e-09
-1.18778806e-09
-1.22754686e-09
-1.22716064e-09
-1.1943371e-09
-1.18720685e-09
-1.18676745e-09
-1.22800288e-09
-1.22659e-09
-1.19026891e-09
-1.18835132e-09
-1.22814719e-09
-1.22618227e-09
-1.19028697e-09
-1.18911993e-09
-1.2276697e-09
-1.22601156e-09
-1.19583154e-09
-1.18966163e-09
-1.18821336e-09
-1.18819046e-09
-1.22798324e-09
-1.22694501e-09
-1.19334884e-09
-1.18738147e-09
-1.18711064e-09
-1.22776119e-09
-1.22672392e-09
-1.19051913e-09
-1.18851241e-09
-1.22747925e-09
-1.22686432e-09
-1.19463075e-09
-1.18759705e-09
-1.18719548e-09
-1.22764103e-09
-1.22635571e-09
-1.19094613e-09
-1.18908388e-09
-1.22748631e-09
-1.22592312e-09
-1.19610957e-09
-1.18953722e-09
-1.1881398e-09
-1.18795555e-09
-1.22821174e-09
-1.2264824e-09
-1.19011354e-09
-1.18870382e-09
-1.2275218e-09
-1.22671817e-09
-1.19492649e-09
-1.18783952e-09
-1.18767029e-09
-1.22738811e-09
-1.22685631e-09
-1.19710015e-09
-1.18784427e-09
-1.18779919e-09
-1.22735434e-09
-1.22701481e-09
-1.19592338e-09
-1.18757024e-09
-1.18741737e-09
-1.22757979e-09
-1.22737745e-09
-1.19303393e-09
-1.18630521e-09
-1.18630655e-09
-1.22858235e-09
-1.22741801e-09
-1.2270179e-09
-1.22714558e-09
-1.19943148e-09
-1.18761782e-09
-1.18805903e-09
-1.18488718e-09
-1.18470394e-09
-1.22958245e-09
-1.22716014e-09
-1.22818247e-09
-1.22617866e-09
-1.22650889e-09
-1.19492043e-09
-1.18933417e-09
-1.18788413e-09
-1.18800542e-09
-1.22801444e-09
-1.22707014e-09
-1.19293096e-09
-1.18765952e-09
-1.18745301e-09
-1.2273603e-09
-1.2269669e-09
-1.19621212e-09
-1.18772146e-09
-1.18770862e-09
-1.22718401e-09
-1.22708332e-09
-1.19502197e-09
-1.18746963e-09
-1.18717618e-09
-1.22747447e-09
-1.22665879e-09
-1.19053281e-09
-1.1885974e-09
-1.22723864e-09
-1.22669177e-09
-1.19488595e-09
-1.18782072e-09
-1.18774647e-09
-1.22712735e-09
-1.22681573e-09
-1.19812677e-09
-1.18810746e-09
-1.18790301e-09
-1.22708946e-09
-1.22628752e-09
-1.19683067e-09
-1.18927152e-09
-1.18793695e-09
-1.18766745e-09
-1.2285003e-09
-1.22659464e-09
-1.1887246e-09
-1.18815908e-09
-1.22908875e-09
-1.22658687e-09
-1.22745629e-09
-1.22650932e-09
-1.20377128e-09
-1.18864904e-09
-1.1889445e-09
-1.18667271e-09
-1.18669569e-09
-1.22810077e-09
-1.22761495e-09
-1.19070602e-09
-1.18645629e-09
-1.1862274e-09
-1.22818548e-09
-1.22676762e-09
-1.1893855e-09
-1.18888066e-09
-1.22888864e-09
-1.22571396e-09
-1.22736137e-09
-1.19518408e-09
-1.18738367e-09
-1.18720822e-09
-1.22735833e-09
-1.22719079e-09
-1.19534843e-09
-1.18724137e-09
-1.18740956e-09
-1.22803136e-09
-1.22606168e-09
-1.22668071e-09
-1.19632186e-09
-1.18839555e-09
-1.18855153e-09
-1.1856158e-09
-1.18544991e-09
-1.22923917e-09
-1.22768158e-09
-1.22730678e-09
-1.2273285e-09
-1.19501901e-09
-1.18690979e-09
-1.18680282e-09
-1.22746459e-09
-1.22741707e-09
-1.19334502e-09
-1.18644465e-09
-1.18685496e-09
-1.22830639e-09
-1.22618909e-09
-1.22690402e-09
-1.19312889e-09
-1.18728127e-09
-1.18740203e-09
-1.22799415e-09
-1.2260952e-09
-1.22660579e-09
-1.19882832e-09
-1.18942718e-09
-1.18848264e-09
-1.18837122e-09
-1.22787786e-09
-1.22653317e-09
-1.19266176e-09
-1.18912413e-09
-1.18728912e-09
-1.1872699e-09
-1.22905576e-09
-1.22710761e-09
-1.22719675e-09
-1.22689855e-09
-1.19532191e-09
-1.18855382e-09
-1.18728597e-09
-1.18720025e-09
-1.22866475e-09
-1.2278082e-09
-1.1900424e-09
-1.18542455e-09
-1.18531535e-09
-1.22895583e-09
-1.2275006e-09
-1.22721148e-09
-1.22704997e-09
-1.19677624e-09
-1.18849944e-09
-1.18742905e-09
-1.1871815e-09
-1.22920415e-09
-1.22689335e-09
-1.18818926e-09
-1.18804722e-09
-1.22913815e-09
-1.22608626e-09
-1.2276164e-09
-1.19217368e-09
-1.18702132e-09
-1.18678614e-09
-1.22799739e-09
-1.22775975e-09
-1.19256048e-09
-1.18624796e-09
-1.18624955e-09
-1.22879039e-09
-1.22758633e-09
-1.22710443e-09
-1.22712244e-09
-1.19424059e-09
-1.18712042e-09
-1.18787499e-09
-1.18472052e-09
-1.18451464e-09
-1.22982761e-09
-1.22809161e-09
-1.22758582e-09
-1.22763962e-09
-1.1931742e-09
-1.18603749e-09
-1.18634391e-09
-1.22847315e-09
-1.22615158e-09
-1.22682366e-09
-1.1908392e-09
-1.18703256e-09
-1.18656867e-09
-1.22761382e-09
-1.22618895e-09
-1.18980505e-09
-1.1879268e-09
-1.22703974e-09
-1.2255323e-09
-1.19565599e-09
-1.18774444e-09
-1.18595717e-09
-1.18566322e-09
-1.22728244e-09
-1.22638318e-09
-1.18719895e-09
-1.18116928e-09
-1.18116511e-09
-1.22757337e-09
-1.22613421e-09
-1.22609616e-09
-1.22559373e-09
-1.22436927e-09
-1.2248491e-09
-1.19567177e-09
-1.17615103e-09
-1.1758942e-09
-1.22175282e-09
-1.21755968e-09
-1.21837163e-09
-1.17211533e-09
-1.17008194e-09
-1.21103759e-09
-1.208416e-09
-1.20580448e-09
-1.20237483e-09
-1.19960681e-09
-1.19607584e-09
-1.19313377e-09
-1.18970259e-09
-1.18657244e-09
-1.18343831e-09
-1.18028988e-09
-1.17774853e-09
-1.17555131e-09
-1.17555489e-09
-1.170899e-09
-1.16662424e-09
-1.16160742e-09
-1.15609584e-09
-1.15078052e-09
-1.1440567e-09
-1.1382677e-09
-1.13067747e-09
-1.12527881e-09
-1.12122101e-09
-1.11966993e-09
-1.11219953e-09
-1.10568823e-09
-1.09577062e-09
-1.08613462e-09
-1.07605357e-09
-1.05992512e-09
-1.05077964e-09
-1.03028705e-09
-1.02707796e-09
-1.0003193e-09
-1.03943793e-09
-1.0057265e-09
-1.00160267e-09
-9.68184581e-10
-9.56082948e-10
-9.27881537e-10
-9.11558952e-10
-8.83266174e-10
-8.65142132e-10
-8.45917339e-10
-8.33255969e-10
-8.09859317e-10
-7.77727595e-10
-7.71824386e-10
-8.0120927e-10
-7.6664009e-10
-6.83397978e-10
-6.72880858e-10
-6.45111851e-10
-6.18493444e-10
-5.38038266e-10
-5.32693684e-10
-5.10759881e-10
-5.01323066e-10
-4.77322319e-10
-4.6560511e-10
-4.4042298e-10
-4.27924963e-10
-4.03134758e-10
-3.88213283e-10
-3.65127656e-10
-3.52387001e-10
-3.3284547e-10
-3.20070475e-10
-3.02125391e-10
-2.96546105e-10
-2.838751e-10
-2.63349371e-10
-2.50142984e-10
-2.57764531e-10
-2.4886029e-10
-2.17791725e-10
-2.06960393e-10
-2.25792801e-10
-2.18530711e-10
-1.82884555e-10
-1.77036689e-10
-1.8940456e-10
-1.83542934e-10
-1.65266661e-10
-1.60556828e-10
-1.61757415e-10
-1.56508411e-10
-1.52180821e-10
-1.48141662e-10
-1.45038412e-10
-1.41170009e-10
-1.38438361e-10
-1.33490516e-10
-1.33622461e-10
-1.33650426e-10
-1.23266132e-10
-1.09775269e-10
-1.28303128e-10
-1.37630263e-10
-1.03700033e-10
-8.86810193e-11
-1.23909791e-10
-1.24848199e-10
-8.84287739e-11
-8.61222659e-11
-1.12507491e-10
-1.15044742e-10
-8.63398532e-11
-8.64384038e-11
-1.03363707e-10
-1.09082462e-10
-8.66492509e-11
-8.66127884e-11
-9.86852179e-11
-1.04367615e-10
-9.07789638e-11
-8.67136401e-11
-9.09520804e-11
-1.00911473e-10
-9.62150376e-11
-8.67888851e-11
-8.68249611e-11
-9.80811251e-11
-9.54444657e-11
-8.68403146e-11
-8.67555724e-11
-9.61082382e-11
)
;

boundaryField
{
    closed
    {
        type            calculated;
        value           nonuniform List<scalar> 0();
    }
    open
    {
        type            calculated;
        value           nonuniform List<scalar> 0();
    }
    sides
    {
        type            empty;
    }
    procBoundary4to3
    {
        type            processor;
        value           uniform -1.18758866e-09;
    }
    procBoundary4to5
    {
        type            processor;
        value           uniform -9.47820713e-11;
    }
}


// ************************************************************************* //
