/*--------------------------------*- C++ -*----------------------------------*\
| =========                 |                                                 |
| \\      /  F ield         | OpenFOAM: The Open Source CFD Toolbox           |
|  \\    /   O peration     | Version:  2306                                  |
|   \\  /    A nd           | Website:  www.openfoam.com                      |
|    \\/     M anipulation  |                                                 |
\*---------------------------------------------------------------------------*/
FoamFile
{
    version     2.0;
    format      ascii;
    arch        "LSB;label=32;scalar=64";
    class       volScalarField;
    location    "0.00086";
    object      rho;
}
// * * * * * * * * * * * * * * * * * * * * * * * * * * * * * * * * * * * * * //

dimensions      [1 -3 0 0 0 0 0];

internalField   nonuniform List<scalar> 
531
(
0.903075666
0.902763031
0.937679149
0.954960947
0.954878727
0.903113482
0.902563675
0.903026229
0.934707192
0.947620332
0.947996264
0.95827032
0.958080031
0.903255602
0.902091824
0.943962082
0.951454057
0.902927553
0.902367802
0.9413173
0.94957686
0.902643822
0.902840609
0.938497161
0.953800034
0.953557031
0.903238526
0.902318043
0.938598274
0.94771241
0.9028265
0.902897315
0.93788953
0.952066305
0.952035569
0.903029335
0.902883064
0.936264253
0.953901948
0.953736164
0.902938167
0.902923273
0.90282011
0.936722246
0.947126855
0.95346168
0.95351395
0.902879342
0.902966648
0.939187035
0.962444778
0.961386299
0.903501932
0.902566325
0.903515376
0.939787609
0.96182045
0.961165924
0.904137927
0.902386564
0.946906251
0.955946144
0.90382254
0.90257339
0.948465597
0.954664607
0.903665871
0.902685863
0.947390578
0.953505887
0.903409582
0.902914472
0.944013775
0.952433116
0.903119081
0.903343995
0.938438083
0.955516385
0.95534733
0.903387013
0.903426413
0.937757443
0.954527204
0.95433789
0.903412069
0.903466837
0.938003987
0.95923168
0.958939752
0.903328292
0.903563173
0.903185536
0.903633084
0.936926168
0.952598974
0.9497567
0.963134618
0.962702132
0.903778951
0.902540673
0.948188899
0.955099732
0.903616763
0.902582834
0.947213823
0.952193743
0.9033706
0.902615637
0.94564099
0.950684566
0.903015135
0.902778256
0.942778343
0.950080694
0.902636487
0.903137171
0.938491975
0.95413941
0.953947941
0.902897409
0.902975036
0.937232469
0.953697493
0.953719793
0.902316548
0.903091224
0.938795564
0.957311753
0.957038231
0.902882163
0.902062042
0.94185652
0.949795884
0.902564901
0.902213065
0.941358576
0.946520141
0.902284969
0.902576402
0.938087622
0.944448462
0.951272172
0.951377956
0.902249688
0.902836255
0.938950283
0.956033745
0.955806273
0.902603345
0.90244603
0.939862476
0.950161566
0.90203545
0.902950034
0.938833699
0.955077736
0.954891076
0.902674811
0.902072438
0.938858779
0.946512023
0.90233114
0.902410538
0.937939672
0.944559305
0.951912147
0.951846671
0.902515197
0.902458383
0.941939734
0.949124408
0.902174094
0.902912975
0.938519331
0.953745603
0.953694882
0.902502574
0.902909229
0.937663501
0.953588524
0.953515819
0.902470435
0.903105873
0.938109695
0.955294624
0.955215637
0.902659781
0.90306883
0.938680645
0.961662664
0.960720025
0.902845223
0.903233551
0.902921186
0.903267007
0.936789363
0.955454012
0.951972407
0.968355412
0.967857136
0.902874131
0.902777635
0.903090674
0.902719407
0.90320186
0.938367724
0.946901693
0.952956565
0.952849947
0.902404017
0.903152005
0.938882752
0.955138881
0.954966345
0.902732589
0.903005851
0.937866838
0.954201537
0.954129686
0.902300341
0.903137268
0.938600296
0.955801966
0.955531387
0.902627099
0.902459805
0.940040037
0.949648076
0.902150568
0.902868829
0.938503322
0.953551758
0.95347336
0.902226326
0.90298136
0.93751754
0.952385606
0.952212223
0.902509488
0.902562745
0.937593613
0.946036629
0.953381125
0.95335736
0.902842601
0.902495588
0.9495251
0.951352868
0.902599624
0.902802654
0.90291557
0.902841548
0.934511793
0.949400835
0.948208773
0.95880685
0.958840521
0.902372151
0.903048999
0.939354902
0.961257513
0.960059477
0.903235785
0.902480021
0.946630209
0.94796925
0.902831673
0.90284513
0.903161551
0.938209128
0.956331274
0.956184858
0.902721412
0.90303701
0.938206483
0.956988802
0.955028363
0.902987233
0.902920485
0.903250187
0.937877447
0.951767745
0.949737473
0.964771478
0.964629048
0.902811908
0.903029074
0.902833704
0.90289574
0.938237478
0.958202075
0.958124052
0.902636383
0.90293536
0.938858948
0.960666413
0.95744066
0.90285869
0.902852418
0.902992468
0.938749257
0.956638555
0.955103675
0.902703931
0.903015982
0.902913893
0.936916912
0.94588658
0.950642409
0.950702851
0.902783743
0.902990659
0.938555424
0.947962974
0.956515569
0.956460144
0.902897048
0.903201981
0.903050708
0.903081438
0.937942593
0.950647044
0.956276639
0.956869362
0.902733765
0.903287526
0.94252746
0.966511205
0.965242859
0.903369357
0.90302802
0.903412127
0.902967458
0.937206802
0.950499589
0.956420016
0.956306557
0.903294899
0.902850789
0.952387359
0.952419766
0.9028684
0.903107367
0.903295236
0.938552962
0.959061121
0.958824132
0.903527892
0.903474497
0.938156064
0.962816057
0.961862927
0.903407522
0.903542286
0.903332674
0.903400881
0.9380869
0.958656364
0.953575601
0.969962047
0.969651222
0.90345058
0.903296142
0.903223971
0.903070521
0.938787617
0.962904157
0.959550696
0.902958466
0.902348504
0.902872973
0.940191076
0.957266102
0.956877635
0.902249535
0.901328898
0.942125643
0.949989193
0.901092091
0.900930973
0.939924576
0.949290753
0.95769036
0.957699533
0.89902026
0.898637234
0.948277146
0.975943754
0.974373902
0.895986407
0.89539332
0.894475165
0.893866618
0.89252627
0.892872116
0.946128873
0.984408131
0.979733234
0.900502534
0.898246696
0.902254624
0.980928003
0.987940385
0.906283682
0.90329041
0.905247092
0.903495085
0.904509538
0.903671862
0.904151353
0.903444096
0.903413565
0.902174657
0.900710736
0.897865071
0.891563845
0.880555316
0.889135324
0.896191612
0.903234848
0.909626708
0.914490213
0.919382396
0.922107794
0.927258614
0.931955071
0.934037685
0.935960791
0.94298675
0.946202149
0.949619655
0.950581194
0.950383819
0.961891205
0.968358348
0.982827045
0.985152158
1.00270602
0.925863521
0.932587624
0.936523329
0.966131943
0.977127207
1.00226314
1.01717308
1.04288853
1.05765615
1.05967294
1.06061113
1.06281076
1.01540289
0.962840459
0.891643768
0.864520083
0.790977399
0.74442729
0.703438082
0.66673453
0.554067858
0.546240372
0.534503888
0.523930233
0.50678642
0.492902179
0.471508427
0.456791758
0.434582172
0.41731449
0.397006039
0.383273351
0.366954411
0.356514329
0.34362671
0.335746814
0.325657644
0.31702774
0.308652414
0.304220064
0.297084478
0.290465407
0.284724708
0.283229129
0.278303935
0.273503222
0.270364827
0.266872091
0.263514933
0.261398168
0.258868454
0.255284226
0.252642316
0.252959847
0.250959027
0.249779348
0.247185271
0.248172624
0.246855916
0.245137896
0.241104172
0.244072977
0.24089066
0.240918093
0.23728497
0.23926426
0.236430749
0.237486976
0.233403649
0.235328023
0.234826493
0.235581889
0.232372564
0.233484948
0.232337336
0.232974869
0.230832257
0.230655799
0.230309125
0.230962386
0.22929452
0.228988602
0.228703026
0.228280436
0.228113517
0.228591669
0.22734056
0.227051807
0.227142984
0.227371873
0.226162386
0.226474466
0.226318386
)
;

boundaryField
{
    closed
    {
        type            calculated;
        value           nonuniform List<scalar> 0();
    }
    open
    {
        type            calculated;
        value           nonuniform List<scalar> 0();
    }
    sides
    {
        type            empty;
    }
    procBoundary4to3
    {
        type            processor;
        value           uniform 0.953874618;
    }
    procBoundary4to5
    {
        type            processor;
        value           uniform 0.2262946;
    }
}


// ************************************************************************* //
