/*--------------------------------*- C++ -*----------------------------------*\
| =========                 |                                                 |
| \\      /  F ield         | OpenFOAM: The Open Source CFD Toolbox           |
|  \\    /   O peration     | Version:  2306                                  |
|   \\  /    A nd           | Website:  www.openfoam.com                      |
|    \\/     M anipulation  |                                                 |
\*---------------------------------------------------------------------------*/
FoamFile
{
    version     2.0;
    format      ascii;
    arch        "LSB;label=32;scalar=64";
    class       volScalarField;
    location    "0.00086";
    object      sourcePV;
}
// * * * * * * * * * * * * * * * * * * * * * * * * * * * * * * * * * * * * * //

dimensions      [1 -3 -1 0 0 0 0];

internalField   nonuniform List<scalar> 
531
(
0.00516012406
0.00591655294
0.105246412
0.158724318
0.158186024
0.00511563286
0.00627144387
0.00617169242
0.0828103527
0.145010874
0.145247678
0.164683129
0.163856125
0.00470781226
0.0059984041
0.138188877
0.151721431
0.00490347643
0.00612119841
0.132898957
0.148485951
0.0051995291
0.00598762002
0.111184056
0.156592053
0.155488804
0.00516876296
0.00613379947
0.125705786
0.144983108
0.0052765699
0.0060933564
0.106897736
0.153372432
0.152925129
0.00527334622
0.0059961985
0.093549533
0.156589894
0.156109985
0.00512991546
0.00633364187
0.00607376207
0.097312168
0.143890451
0.15575851
0.155689987
0.00490957354
0.00569364658
0.127183432
0.172146066
0.169870578
0.00486643096
0.00616445527
0.0058019502
0.129335748
0.171149569
0.169368919
0.0046938309
0.00581819315
0.14420077
0.159967133
0.00458123988
0.0059246567
0.146976982
0.157655335
0.00462080455
0.00595137922
0.14486864
0.155617304
0.00478940973
0.00594631371
0.138358784
0.153870198
0.00514239767
0.00581516931
0.119163759
0.159774853
0.159130102
0.00531173284
0.00580788317
0.110603916
0.157970304
0.15734349
0.00531046753
0.00571910307
0.114681439
0.166413217
0.165700513
0.00497119841
0.00571964331
0.00586645776
0.00580614045
0.0982070725
0.154540812
0.148566189
0.173381357
0.172218696
0.00469180313
0.0057884921
0.146504911
0.158423729
0.0047663477
0.00599608409
0.144619182
0.153090579
0.00490324678
0.00607590675
0.141517927
0.15038325
0.0050936749
0.0060785075
0.135845543
0.149501867
0.00542257958
0.00593435449
0.115400465
0.157166119
0.156450661
0.00551772445
0.00593853204
0.102173801
0.156170928
0.156177443
0.00562512199
0.0058114255
0.114205232
0.162932043
0.161826181
0.00541337867
0.00607442566
0.134104518
0.148489768
0.00534257341
0.00626523374
0.132948202
0.14251294
0.00556696404
0.00634528146
0.109115971
0.138855081
0.151560271
0.151754531
0.00541826524
0.00591092972
0.117926433
0.160527612
0.159685322
0.00552561574
0.00601271057
0.12987847
0.149619376
0.00565585756
0.00594929752
0.113000562
0.158805791
0.157830305
0.0055827721
0.00618408705
0.127689023
0.142389857
0.00565377876
0.00638607016
0.108209477
0.138783243
0.152796894
0.152335814
0.00531141334
0.00612561136
0.133854422
0.147579074
0.00563619529
0.0060172284
0.112226915
0.156252344
0.155883482
0.00570080643
0.00595258999
0.104690194
0.155899286
0.155669764
0.00571650291
0.00587952186
0.108798122
0.159102161
0.15872297
0.00561120716
0.00570916067
0.119581094
0.170595169
0.1687371
0.00513758516
0.00569126134
0.0058768306
0.00581923471
0.0966922959
0.15945033
0.152653559
0.182364254
0.18139363
0.00465980297
0.00580928669
0.00532953429
0.00626774916
0.00611603633
0.112476056
0.143643094
0.154515458
0.154476004
0.00540389617
0.00585374093
0.119769075
0.158847287
0.158202146
0.00571496552
0.00590119712
0.107954875
0.156967951
0.156799025
0.00579589343
0.00584754914
0.111801396
0.160011479
0.15904576
0.00566066928
0.00604303747
0.130201113
0.148490245
0.00576965995
0.00602924737
0.112422864
0.155781848
0.15550411
0.00582239332
0.00597195821
0.100899373
0.153733646
0.153023066
0.0058413925
0.00621679125
0.105787537
0.141647338
0.155645234
0.15518291
0.00517703579
0.00607328533
0.148535331
0.15159609
0.00489415938
0.00607808669
0.00567135737
0.0061144313
0.0826391438
0.148128769
0.14600086
0.16536611
0.165457643
0.00536315326
0.0055976865
0.128050401
0.170035263
0.16744194
0.00533009212
0.00599229336
0.143275731
0.145312012
0.00499200457
0.00648372207
0.00571766816
0.111552774
0.161080613
0.160550087
0.00571606907
0.00579673137
0.110924145
0.162235037
0.158348285
0.00540043466
0.00632279377
0.00603646318
0.107491445
0.152813721
0.148606147
0.176100994
0.175731106
0.00482386624
0.00556574611
0.00574079508
0.00573096261
0.112221669
0.164267007
0.163981615
0.00566528821
0.00568950686
0.118148581
0.168730118
0.162611279
0.00526871947
0.0062632884
0.00593048797
0.119145221
0.161465087
0.158402781
0.00541549553
0.00630743891
0.006069436
0.0988570381
0.141492957
0.150434971
0.150375315
0.00547115545
0.00610369727
0.121233283
0.145654628
0.161252344
0.161118571
0.00491245341
0.00583664545
0.005793868
0.00593371851
0.111339822
0.150638773
0.160800132
0.161929194
0.00509759057
0.00550845812
0.135070348
0.179276702
0.176876033
0.00496589678
0.00565123986
0.00578988893
0.00586238641
0.106400985
0.15029869
0.161343466
0.160803056
0.00484678371
0.00593509976
0.153917637
0.153763742
0.00487333667
0.00631221142
0.00559903114
0.123123719
0.166218995
0.165509009
0.00542184721
0.00553319236
0.122061813
0.172843387
0.171011594
0.00504494667
0.00561514258
0.00583917492
0.00583121067
0.115463376
0.165408466
0.155849979
0.18517685
0.184582808
0.00454927619
0.00537411024
0.00561188988
0.00558528498
0.118995964
0.172606691
0.166188262
0.00518952821
0.00627947907
0.00596687922
0.126745854
0.162134128
0.160647425
0.00559200419
0.00626302466
0.132816539
0.147338135
0.00586240203
0.00657261937
0.108246456
0.145107977
0.16119939
0.160697458
0.00575711366
0.00619164656
0.140958199
0.194817851
0.191633269
0.00565507417
0.00636758293
0.00640797851
0.00666882943
0.0073058316
0.00743372847
0.10318744
0.210342858
0.198320744
0.0165029533
0.0187234434
0.0211796292
0.192020175
0.210561138
0.0314806049
0.0315032527
0.0355627397
0.0373131787
0.0407010997
0.0432196114
0.0462561466
0.0486806504
0.0513404683
0.0528852427
0.0541017698
0.0534374732
0.0489759559
0.0377721879
0.0389388649
0.040817597
0.0431912457
0.0460112341
0.0489790004
0.0528813391
0.056566792
0.0627373694
0.0671602203
0.0633709877
0.0519162035
0.050350815
0.0514561887
0.0559323769
0.0621854559
0.0700708501
0.0730073724
0.0732364063
0.0759169558
0.0739799473
0.0744328813
0.0284633499
0.0120442202
0.0119707817
0.0137340332
0.0143189455
0.0156072486
0.0167840002
0.0189439321
0.0204474256
0.0147712089
0.0121657654
0.00666036647
0.00481370454
0.00704920801
0.00796214417
0.013779711
0.0248520315
0.0679463735
0.0967942401
0.132388447
0.578442436
0.679245197
0.693696523
0.816094691
0.935121421
1.14501189
1.41997754
1.71634353
2.1839197
2.7618147
3.40557096
4.02767567
4.73335525
5.30591843
6.03080698
6.859863
7.74745407
7.96633286
8.6765193
10.3550513
11.4464994
10.0802768
10.4256309
13.0842914
13.7844994
10.3985381
10.3739947
13.2223546
13.2417894
10.6556116
10.3802431
11.3197056
10.8081421
9.90261928
9.4204015
8.97249439
8.5025519
7.84633245
7.00339453
7.14732968
7.34359628
5.19483815
2.79337667
6.24367694
8.28719116
1.80795666
0.12317219
5.35358439
5.35144031
0.0940094349
1.58980165e-08
3.11221991
3.3796954
1.64871257e-08
1.71596075e-08
1.55516402
2.2875874
1.7995186e-08
1.83574924e-08
0.901887176
1.5233005
0.17368589
1.94304294e-08
0.179727435
1.04537793
0.58745837
2.04074952e-08
2.05534216e-08
0.71809751
0.489805141
2.12794732e-08
2.12584598e-08
0.524049826
)
;

boundaryField
{
    closed
    {
        type            calculated;
        value           nonuniform List<scalar> 0();
    }
    open
    {
        type            calculated;
        value           nonuniform List<scalar> 0();
    }
    sides
    {
        type            empty;
    }
    procBoundary4to3
    {
        type            processor;
        value           uniform 0;
    }
    procBoundary4to5
    {
        type            processor;
        value           uniform 0;
    }
}


// ************************************************************************* //
