/*--------------------------------*- C++ -*----------------------------------*\
| =========                 |                                                 |
| \\      /  F ield         | OpenFOAM: The Open Source CFD Toolbox           |
|  \\    /   O peration     | Version:  2306                                  |
|   \\  /    A nd           | Website:  www.openfoam.com                      |
|    \\/     M anipulation  |                                                 |
\*---------------------------------------------------------------------------*/
FoamFile
{
    version     2.0;
    format      ascii;
    arch        "LSB;label=32;scalar=64";
    class       volScalarField;
    location    "0.00086";
    object      Z;
}
// * * * * * * * * * * * * * * * * * * * * * * * * * * * * * * * * * * * * * //

dimensions      [0 0 0 0 0 0 0];

internalField   nonuniform List<scalar> 
531
(
0.0140892277
0.0140752813
0.0145786561
0.0148114981
0.0148063924
0.0140900818
0.0140683744
0.0140719057
0.0144706654
0.0147592063
0.0147575948
0.0148337808
0.0148259659
0.0140972693
0.0140711634
0.0147340915
0.0147817692
0.0140926791
0.014070116
0.0147132791
0.0147713975
0.0140866325
0.0140742223
0.0146066725
0.0148040102
0.0147950893
0.0140895753
0.0140696483
0.0146840991
0.0147583779
0.0140860598
0.0140725855
0.0145867957
0.0147917242
0.0147873965
0.0140869122
0.0140741562
0.0145225628
0.0148028439
0.0147997571
0.0140888585
0.0140684539
0.0140725288
0.0145409062
0.014754609
0.0147997321
0.0147982846
0.0140921599
0.0140795445
0.014689115
0.0148636118
0.0148496352
0.0140954621
0.014069909
0.0140798993
0.0146981011
0.0148620291
0.0148468174
0.0141010063
0.0140750659
0.0147599595
0.0148130684
0.0141014275
0.0140739846
0.0147698428
0.014804862
0.0141000839
0.0140739559
0.0147612724
0.0147980277
0.0140962283
0.0140749323
0.0147358763
0.0147931671
0.0140892186
0.0140788859
0.014650412
0.0148177181
0.0148123294
0.0140875176
0.0140793255
0.014608073
0.0148108744
0.0148061977
0.0140876436
0.0140810065
0.0146287045
0.014842515
0.0148376062
0.0140928919
0.0140813994
0.0140773611
0.0140802181
0.0145449144
0.0147984077
0.0147711062
0.0148695252
0.0148586152
0.0140993978
0.0140761195
0.014768386
0.014807563
0.0140974987
0.0140727849
0.014760767
0.014787838
0.0140942345
0.014071571
0.0147481379
0.0147782709
0.0140896468
0.0140721877
0.0147255109
0.014776387
0.0140826934
0.014076107
0.0146297828
0.014806506
0.0148009753
0.0140822116
0.0140754291
0.0145648276
0.0148011259
0.0148008709
0.0140781163
0.0140780892
0.0146215826
0.0148280175
0.0148182537
0.0140839437
0.0140695865
0.014718806
0.0147694246
0.0140838369
0.0140669172
0.0147136053
0.0147481469
0.0140790041
0.014066937
0.0145978356
0.0147357454
0.0147827388
0.014783453
0.0140813286
0.0140754164
0.0146407603
0.0148180001
0.0148112582
0.0140809711
0.0140721455
0.0147013777
0.0147762526
0.0140765361
0.014075208
0.0146148143
0.0148117425
0.0148031462
0.014080276
0.0140677472
0.0146934319
0.014747255
0.0140776911
0.0140655377
0.0145938269
0.0147343425
0.0147879626
0.0147840419
0.0140840625
0.0140701648
0.0147163498
0.0147683094
0.0140772891
0.0140737733
0.0146125375
0.0148017264
0.0147983303
0.0140774693
0.0140748214
0.014576341
0.0148000683
0.0147985314
0.0140770359
0.0140768107
0.0145963156
0.0148129203
0.0148095882
0.0140795107
0.0140795063
0.0146514508
0.0148566222
0.0148474027
0.0140880648
0.0140804389
0.014076026
0.0140783904
0.0145374696
0.0148150831
0.0147865212
0.0149005004
0.0148934497
0.0140958915
0.014076574
0.0140858745
0.0140685075
0.0140730235
0.0146149963
0.0147553541
0.0147937915
0.0147947515
0.0140818518
0.0140773259
0.0146514608
0.0148125564
0.0148074157
0.0140780025
0.0140759489
0.0145932007
0.0148040463
0.0148031068
0.0140749553
0.0140774173
0.0146099772
0.0148163561
0.0148088077
0.0140785506
0.0140714381
0.0147029712
0.0147716634
0.0140748723
0.0140733117
0.0146137802
0.0147992769
0.0147972325
0.0140743265
0.0140747823
0.0145562637
0.0147921504
0.0147868288
0.0140751627
0.0140689804
0.0145826501
0.0147454179
0.0147997307
0.0147949418
0.014087612
0.014071215
0.0147730401
0.0147824059
0.0140912344
0.014072353
0.0140797172
0.0140718875
0.0144715701
0.0147704183
0.0147630104
0.0148345583
0.0148352415
0.0140826632
0.0140815044
0.0146928415
0.0148554296
0.0148402053
0.0140867313
0.0140725426
0.0147540763
0.014759185
0.0140905887
0.0140654583
0.014079893
0.0146105603
0.0148207207
0.0148164004
0.0140781051
0.0140780029
0.0146072372
0.0148249469
0.0148077009
0.0140844169
0.0140684662
0.0140747142
0.014590487
0.0147904508
0.0147717951
0.0148768163
0.014873135
0.0140930611
0.014081749
0.0140780103
0.0140784195
0.0146142761
0.0148315687
0.0148290911
0.014078447
0.0140792349
0.0146429022
0.0148488084
0.014822928
0.0140859133
0.0140690895
0.0140753567
0.014648862
0.0148215798
0.0148078912
0.0140828471
0.0140689569
0.0140726647
0.0145488011
0.0147460546
0.0147798657
0.0147785517
0.0140822777
0.0140724167
0.014661
0.0147629887
0.0148206192
0.0148197759
0.0140919728
0.0140778837
0.0140780101
0.0140757656
0.0146110365
0.0147815
0.0148183834
0.0148230396
0.014088374
0.0140838716
0.0147213818
0.0148908248
0.0148774192
0.0140932476
0.0140804656
0.0140796939
0.0140766675
0.0145881453
0.0147793708
0.0148224589
0.0148173663
0.0140949361
0.0140749972
0.0147938101
0.0147917258
0.0140927079
0.014069516
0.0140824876
0.0146707786
0.0148423494
0.0148364166
0.0140864073
0.0140843064
0.01466724
0.0148672893
0.0148581102
0.0140920773
0.0140831184
0.0140784288
0.0140788145
0.0146325136
0.0148393532
0.0148001248
0.0149130808
0.014907584
0.0141000229
0.0140858435
0.0140815225
0.0140812965
0.0146482038
0.0148638232
0.0148352497
0.0140872188
0.0140664435
0.0140737767
0.0146826807
0.0148223695
0.0148106394
0.014077404
0.0140626173
0.014709023
0.0147602119
0.0140682857
0.0140557138
0.0145847425
0.0147482548
0.0148074139
0.0148022603
0.0140622781
0.0140539287
0.0147246866
0.0149206693
0.0149049199
0.0140537107
0.0140408523
0.0140375692
0.0140318254
0.0140184418
0.0140247679
0.014517876
0.0149391243
0.0148813575
0.0140597761
0.0140215291
0.0140535053
0.0148201048
0.0148792381
0.0140412403
0.0140057045
0.0140046708
0.0139728319
0.0139639495
0.01393727
0.0139230264
0.0138969094
0.0138768989
0.0138473454
0.0138148065
0.0137745345
0.0137066435
0.013611371
0.013563929
0.0135283623
0.0134893183
0.0134495961
0.0134147139
0.013373137
0.0133416076
0.0132983487
0.0132523524
0.0131349725
0.0129930374
0.0128851718
0.0128102108
0.0127263212
0.0126589332
0.0126006224
0.0125812276
0.0125826906
0.0125498051
0.0125881504
0.0125003751
0.0121178925
0.011745635
0.0117879315
0.0117398968
0.0117631419
0.0117536511
0.0117874932
0.0118225348
0.0118734001
0.0117453472
0.011722639
0.0115524555
0.0113526796
0.0114466213
0.0112451741
0.0113296876
0.0113774382
0.0116543919
0.0117207479
0.0119101738
0.012555452
0.0126383305
0.0126157149
0.0126958866
0.0127215726
0.0128270489
0.0128943261
0.013009464
0.0131041568
0.0132528142
0.0133622023
0.0134977833
0.0136048867
0.0136983402
0.0137816513
0.0139275867
0.0140349877
0.0140001485
0.014072155
0.0143416734
0.0144458587
0.0142129818
0.0142501571
0.0146099935
0.0146770984
0.0143005684
0.0143356327
0.0146728619
0.0147101975
0.0145055441
0.0145269317
0.0146870548
0.0146943967
0.014619084
0.0146190452
0.0146012025
0.0146083939
0.0145337886
0.0144784367
0.0145321725
0.014655385
0.0143469999
0.0141220964
0.0145517318
0.0148262228
0.0140514124
0.013755651
0.0145524937
0.0147131614
0.0137903239
0.0136992141
0.0143844799
0.0145330693
0.0137495366
0.0137742391
0.0142436737
0.0144274812
0.0138250819
0.0138185551
0.0141561963
0.0143420209
0.0139931846
0.0138463294
0.0140064147
0.014271012
0.0141264713
0.0138681842
0.0138771274
0.0142070076
0.014130081
0.0138842888
0.0138648147
0.0141549832
)
;

boundaryField
{
    closed
    {
        type            zeroGradient;
    }
    open
    {
        type            zeroGradient;
    }
    sides
    {
        type            empty;
    }
    procBoundary4to3
    {
        type            processor;
        value           uniform 0.0147999406;
    }
    procBoundary4to5
    {
        type            processor;
        value           uniform 0.0141180696;
    }
}


// ************************************************************************* //
