/*--------------------------------*- C++ -*----------------------------------*\
| =========                 |                                                 |
| \\      /  F ield         | OpenFOAM: The Open Source CFD Toolbox           |
|  \\    /   O peration     | Version:  2306                                  |
|   \\  /    A nd           | Website:  www.openfoam.com                      |
|    \\/     M anipulation  |                                                 |
\*---------------------------------------------------------------------------*/
FoamFile
{
    version     2.0;
    format      ascii;
    arch        "LSB;label=32;scalar=64";
    class       volScalarField;
    location    "0.00086";
    object      prefDZ_H2O;
}
// * * * * * * * * * * * * * * * * * * * * * * * * * * * * * * * * * * * * * //

dimensions      [1 -1 -1 0 0 0 0];

internalField   nonuniform List<scalar> 
531
(
-7.76089389e-07
-7.78503932e-07
-7.38656443e-07
-7.36482132e-07
-7.48626944e-07
-7.76365888e-07
-7.78114363e-07
-7.37994889e-07
-7.35864181e-07
-7.45923771e-07
-7.76408663e-07
-7.75934708e-07
-7.40539175e-07
-7.42670559e-07
-7.78656255e-07
-7.78907666e-07
-7.37669966e-07
-7.36187499e-07
-7.48829801e-07
-7.75742483e-07
-7.76324975e-07
-7.41358675e-07
-7.43949963e-07
-7.7778268e-07
-7.79461126e-07
-7.37945746e-07
-7.36967225e-07
-7.52174832e-07
-7.75666775e-07
-7.7908978e-07
-7.37349025e-07
-7.35116825e-07
-7.36435004e-07
-7.48198045e-07
-7.76345913e-07
-7.71153774e-07
-7.37575935e-07
-7.39548209e-07
-7.79084431e-07
-7.73830834e-07
-7.3937161e-07
-7.42906946e-07
-7.77107671e-07
-7.7960883e-07
-7.38516744e-07
-7.37494164e-07
-7.51181682e-07
-7.75911775e-07
-7.70983532e-07
-7.3749459e-07
-7.4038216e-07
-7.77487414e-07
-7.79996766e-07
-7.37798771e-07
-7.36884452e-07
-7.50791547e-07
-7.76373462e-07
-7.67834758e-07
-7.36473764e-07
-7.39618523e-07
-7.78246294e-07
-7.70439104e-07
-7.36862376e-07
-7.39027447e-07
-7.78150016e-07
-7.79506628e-07
-7.39046764e-07
-7.36811643e-07
-7.50450389e-07
-7.7621201e-07
-7.67681651e-07
-7.37428666e-07
-7.42869534e-07
-7.76959734e-07
-7.67844241e-07
-7.37491023e-07
-7.43863014e-07
-7.76862698e-07
-7.66412983e-07
-7.37687585e-07
-7.44941497e-07
-7.76509232e-07
-7.71751205e-07
-7.34409957e-07
-7.34819132e-07
-7.50610556e-07
-7.76192628e-07
-7.65026943e-07
-7.38380102e-07
-7.47562173e-07
-7.76435957e-07
-7.6216235e-07
-7.38033796e-07
-7.48638487e-07
-7.76402199e-07
-7.64439512e-07
-7.34700853e-07
-7.3566806e-07
-7.56082007e-07
-7.76242832e-07
-7.59865504e-07
-7.39145259e-07
-7.52351302e-07
-7.76303439e-07
-7.59917537e-07
-7.3499358e-07
-7.36364745e-07
-7.60755639e-07
-7.76406172e-07
-7.55885235e-07
-7.39381082e-07
-7.56296912e-07
-7.76362225e-07
-7.56135591e-07
-7.35798731e-07
-7.37683767e-07
-7.67346291e-07
-7.76326104e-07
-7.55337983e-07
-7.36204124e-07
-7.37924384e-07
-7.69371025e-07
-7.76428408e-07
-7.53300425e-07
-7.36011938e-07
-7.37862707e-07
-7.69849852e-07
-7.76521995e-07
-7.51780017e-07
-7.35782723e-07
-7.37774426e-07
-7.70628563e-07
-7.76557534e-07
-7.50431725e-07
-7.35567868e-07
-7.37785973e-07
-7.73133527e-07
-7.76357983e-07
-7.47419701e-07
-7.39443114e-07
-7.66206423e-07
-7.76475679e-07
-7.48580744e-07
-7.35327583e-07
-7.38109761e-07
-7.76266727e-07
-7.7593672e-07
-7.46887795e-07
-7.3970426e-07
-7.67581011e-07
-7.7606256e-07
-7.49223506e-07
-7.35783572e-07
-7.38568037e-07
-7.78294701e-07
-7.75715127e-07
-7.4890078e-07
-7.35555307e-07
-7.35717197e-07
-7.39154532e-07
-7.75193673e-07
-7.75545995e-07
-7.49659972e-07
-7.35949924e-07
-7.38567947e-07
-7.78902131e-07
-7.75633335e-07
-7.45109757e-07
-7.38327507e-07
-7.6255846e-07
-7.76374341e-07
-7.48471895e-07
-7.35572552e-07
-7.42658362e-07
-7.7566559e-07
-7.76346486e-07
-7.38810921e-07
-7.37680083e-07
-7.73990339e-07
-7.77091196e-07
-7.41492906e-07
-7.36434949e-07
-7.5473325e-07
-7.75702506e-07
-7.65693357e-07
-7.36727291e-07
-7.37491776e-07
-7.69628996e-07
-7.75784239e-07
-7.52094727e-07
-7.35783337e-07
-7.39860011e-07
-7.76041588e-07
-7.76530368e-07
-7.37979062e-07
-7.35176154e-07
-7.51245582e-07
-7.75673307e-07
-7.71604555e-07
-7.36719868e-07
-7.37036311e-07
-7.59559395e-07
-7.74213914e-07
-7.77141039e-07
-7.38077855e-07
-7.36510733e-07
-7.3806099e-07
-7.40356404e-07
-7.6893598e-07
-7.73171981e-07
-7.77684389e-07
-7.38708168e-07
-7.36552773e-07
-7.54588648e-07
-7.74944049e-07
-7.7488766e-07
-7.35320031e-07
-7.35384823e-07
-7.58412856e-07
-7.75451706e-07
-7.55212453e-07
-7.3742991e-07
-7.50869638e-07
-7.74711902e-07
-7.7152539e-07
-7.35364836e-07
-7.35700819e-07
-7.59356091e-07
-7.75754974e-07
-7.54758327e-07
-7.36393896e-07
-7.45524204e-07
-7.74675809e-07
-7.77360055e-07
-7.36391174e-07
-7.35563246e-07
-7.52833138e-07
-7.74773198e-07
-7.7934285e-07
-7.35579064e-07
-7.35702042e-07
-7.54226596e-07
-7.74557441e-07
-7.79338228e-07
-7.36800878e-07
-7.36952052e-07
-7.57627188e-07
-7.75384294e-07
-7.6402266e-07
-7.33436198e-07
-7.34121646e-07
-7.64397025e-07
-7.76989795e-07
-7.44791034e-07
-7.36199206e-07
-7.64531666e-07
-7.76864648e-07
-7.41320533e-07
-7.36632875e-07
-7.740364e-07
-7.76752834e-07
-7.39324913e-07
-7.3700424e-07
-7.78232949e-07
-7.76168561e-07
-7.41372753e-07
-7.36855757e-07
-7.65068066e-07
-7.75562244e-07
-7.48929996e-07
-7.35806216e-07
-7.47167329e-07
-7.74419745e-07
-7.7667526e-07
-7.34648334e-07
-7.3455657e-07
-7.49761501e-07
-7.74751811e-07
-7.78445232e-07
-7.35533224e-07
-7.36074411e-07
-7.7567606e-07
-7.75934505e-07
-7.44150401e-07
-7.35110811e-07
-7.45700369e-07
-7.74564622e-07
-7.77148231e-07
-7.3610604e-07
-7.364568e-07
-7.71591626e-07
-7.75413749e-07
-7.49016515e-07
-7.35582627e-07
-7.40982191e-07
-7.73942082e-07
-7.75317771e-07
-7.40056461e-07
-7.3481742e-07
-7.4095732e-07
-7.7418964e-07
-7.75394119e-07
-7.39725349e-07
-7.34468193e-07
-7.40770867e-07
-7.74778147e-07
-7.75472702e-07
-7.36642361e-07
-7.35941266e-07
-7.74433922e-07
-7.75928828e-07
-7.4521383e-07
-7.34857333e-07
-7.39322253e-07
-7.75007162e-07
-7.76273313e-07
-7.37098695e-07
-7.37222406e-07
-7.75572148e-07
-7.75897792e-07
-7.42097031e-07
-7.35084564e-07
-7.40563849e-07
-7.75435473e-07
-7.77133124e-07
-7.36488177e-07
-7.36962335e-07
-7.75784254e-07
-7.76085772e-07
-7.41842831e-07
-7.34126453e-07
-7.37163961e-07
-7.75001076e-07
-7.75386397e-07
-7.39032587e-07
-7.37493198e-07
-7.77370771e-07
-7.75723717e-07
-7.43565507e-07
-7.34589399e-07
-7.37096199e-07
-7.75002142e-07
-7.75127288e-07
-7.39680983e-07
-7.37959431e-07
-7.76690958e-07
-7.75448868e-07
-7.43392911e-07
-7.34534262e-07
-7.36901666e-07
-7.75270928e-07
-7.75441356e-07
-7.43900681e-07
-7.34244867e-07
-7.36329711e-07
-7.75213408e-07
-7.74852375e-07
-7.39084942e-07
-7.37384889e-07
-7.76316047e-07
-7.75161195e-07
-7.43139066e-07
-7.34219394e-07
-7.36083182e-07
-7.75331009e-07
-7.74461379e-07
-7.39565054e-07
-7.37333539e-07
-7.76518594e-07
-7.74500102e-07
-7.44850655e-07
-7.34812043e-07
-7.360045e-07
-7.75720787e-07
-7.74344202e-07
-7.47418294e-07
-7.35216327e-07
-7.36201989e-07
-7.76075073e-07
-7.74086331e-07
-7.50821809e-07
-7.36357468e-07
-7.3743282e-07
-7.76094709e-07
-7.73928913e-07
-7.50244337e-07
-7.36002053e-07
-7.36311388e-07
-7.76732585e-07
-7.73952965e-07
-7.47740882e-07
-7.36423595e-07
-7.35151349e-07
-7.36370793e-07
-7.78689816e-07
-7.73370009e-07
-7.73822222e-07
-7.47506599e-07
-7.34763338e-07
-7.34994599e-07
-7.78019528e-07
-7.74595397e-07
-7.4733221e-07
-7.34521658e-07
-7.35324142e-07
-7.78332917e-07
-7.74194089e-07
-7.41587932e-07
-7.36769524e-07
-7.77521025e-07
-7.74855213e-07
-7.46134112e-07
-7.34342187e-07
-7.35267345e-07
-7.78627311e-07
-7.74442579e-07
-7.41628068e-07
-7.36940328e-07
-7.75575449e-07
-7.74824174e-07
-7.40826738e-07
-7.36700736e-07
-7.75482409e-07
-7.75004158e-07
-7.46924796e-07
-7.34894877e-07
-7.35904031e-07
-7.78348955e-07
-7.74355803e-07
-7.41447125e-07
-7.36943156e-07
-7.77057867e-07
-7.74777817e-07
-7.46279764e-07
-7.35087835e-07
-7.36427828e-07
-7.77841982e-07
-7.74145738e-07
-7.41032538e-07
-7.37220907e-07
-7.798579e-07
-7.74483365e-07
-7.4850021e-07
-7.3536061e-07
-7.36796527e-07
-7.77009019e-07
-7.74000672e-07
-7.49575794e-07
-7.35584113e-07
-7.37386388e-07
-7.76514197e-07
-7.7381216e-07
-7.48670578e-07
-7.35879073e-07
-7.35217297e-07
-7.36280179e-07
-7.76604462e-07
-7.74282104e-07
-7.38392683e-07
-7.36522265e-07
-7.77873397e-07
-7.74586108e-07
-7.42559122e-07
-7.34462533e-07
-7.3672358e-07
-7.76226873e-07
-7.74107421e-07
-7.37971106e-07
-7.36118723e-07
-7.76958138e-07
-7.74359154e-07
-7.37795367e-07
-7.37238714e-07
-7.7617779e-07
-7.74622345e-07
-7.38120443e-07
-7.35483248e-07
-7.47360894e-07
-7.75562515e-07
-7.77549167e-07
-7.35031827e-07
-7.35212704e-07
-7.75718767e-07
-7.75514521e-07
-7.37406798e-07
-7.37522669e-07
-7.75352839e-07
-7.75207712e-07
-7.37940736e-07
-7.35291143e-07
-7.41850968e-07
-7.75460068e-07
-7.75767595e-07
-7.36203088e-07
-7.36054015e-07
-7.75611979e-07
-7.7659314e-07
-7.36969751e-07
-7.37971485e-07
-7.74843727e-07
-7.75376866e-07
-7.37742601e-07
-7.35431008e-07
-7.42760273e-07
-7.74226997e-07
-7.74867549e-07
-7.38725465e-07
-7.35828122e-07
-7.44524387e-07
-7.74087188e-07
-7.74885528e-07
-7.38020151e-07
-7.35224173e-07
-7.43706584e-07
-7.74089757e-07
-7.74787234e-07
-7.37804104e-07
-7.35126467e-07
-7.43719838e-07
-7.74015883e-07
-7.74631185e-07
-7.37750473e-07
-7.35051535e-07
-7.43473547e-07
-7.7388845e-07
-7.74421181e-07
-7.37749959e-07
-7.35030534e-07
-7.43319464e-07
-7.73681635e-07
-7.74189223e-07
)
;

boundaryField
{
    closed
    {
        type            calculated;
        value           nonuniform List<scalar> 0();
    }
    open
    {
        type            calculated;
        value           nonuniform List<scalar> 0();
    }
    sides
    {
        type            empty;
    }
    procBoundary1to0
    {
        type            processor;
        value           uniform -7.50693447e-07;
    }
    procBoundary1to2
    {
        type            processor;
        value           uniform -7.38365495e-07;
    }
}


// ************************************************************************* //
