/*--------------------------------*- C++ -*----------------------------------*\
| =========                 |                                                 |
| \\      /  F ield         | OpenFOAM: The Open Source CFD Toolbox           |
|  \\    /   O peration     | Version:  2306                                  |
|   \\  /    A nd           | Website:  www.openfoam.com                      |
|    \\/     M anipulation  |                                                 |
\*---------------------------------------------------------------------------*/
FoamFile
{
    version     2.0;
    format      ascii;
    arch        "LSB;label=32;scalar=64";
    class       surfaceScalarField;
    location    "0.00146";
    object      phi;
}
// * * * * * * * * * * * * * * * * * * * * * * * * * * * * * * * * * * * * * //

dimensions      [1 0 -1 0 0 0 0];

oriented        oriented;

internalField   nonuniform List<scalar> 
529
(
2.1845719e-06
2.17293311e-06
2.16133434e-06
2.1497697e-06
2.13824696e-06
2.12675921e-06
2.11531489e-06
2.10390771e-06
2.09254257e-06
2.08121778e-06
2.0699383e-06
2.0586991e-06
2.04750611e-06
2.03635617e-06
2.0252529e-06
2.01419569e-06
2.00318608e-06
1.99222505e-06
1.98131289e-06
1.97045141e-06
1.95964037e-06
1.94888175e-06
1.93817571e-06
1.9275231e-06
1.91692653e-06
1.9063781e-06
1.89588837e-06
1.88545618e-06
1.87508313e-06
1.86477134e-06
1.85452101e-06
1.8443352e-06
1.83421415e-06
1.8241611e-06
1.81416383e-06
1.80423869e-06
1.79438703e-06
1.78461152e-06
1.77491403e-06
1.76529711e-06
1.75576278e-06
1.74631367e-06
1.73695163e-06
1.72767945e-06
1.71849857e-06
1.70941196e-06
1.70042052e-06
1.6915271e-06
1.68273242e-06
1.67403828e-06
1.66544642e-06
1.65694479e-06
1.64854614e-06
1.64025064e-06
1.63205746e-06
1.62396723e-06
1.61597805e-06
1.60808977e-06
1.60030013e-06
1.59260784e-06
1.58501045e-06
1.57750556e-06
1.57009052e-06
1.56276205e-06
1.55551726e-06
1.54835219e-06
1.54126382e-06
1.53424775e-06
1.52730087e-06
1.5204186e-06
1.5135979e-06
1.50683422e-06
1.50012471e-06
1.4934651e-06
1.48685286e-06
1.48028414e-06
1.47375687e-06
1.46726777e-06
1.46081526e-06
1.4543967e-06
1.44801103e-06
1.44165624e-06
1.43533175e-06
1.42903608e-06
1.42276903e-06
1.41652946e-06
1.41031738e-06
1.40413175e-06
1.39797255e-06
1.39183852e-06
1.38572933e-06
1.37964312e-06
1.37357897e-06
1.36753399e-06
1.36150656e-06
1.355492e-06
1.34948863e-06
1.34347864e-06
1.33746863e-06
1.3314496e-06
1.32541709e-06
1.31935896e-06
1.31327049e-06
1.307136e-06
1.30095088e-06
1.29469714e-06
1.28836887e-06
1.28195152e-06
1.27543056e-06
1.2687852e-06
1.26200909e-06
1.25509127e-06
1.24801864e-06
1.24077622e-06
1.23335451e-06
1.22574309e-06
1.21793311e-06
1.20992039e-06
1.20169791e-06
1.19326805e-06
1.18462758e-06
1.17578579e-06
1.16674496e-06
1.15752179e-06
1.14812533e-06
1.13858007e-06
1.12890287e-06
1.1191259e-06
1.10927625e-06
1.09939121e-06
1.08950552e-06
1.07966591e-06
1.06991518e-06
1.06030562e-06
1.0508848e-06
1.04171216e-06
1.03283966e-06
1.02433061e-06
1.01623984e-06
1.00863222e-06
1.00156332e-06
9.95097154e-07
9.89287663e-07
9.84195476e-07
9.79870452e-07
9.7636725e-07
9.73729237e-07
9.72002671e-07
9.71222168e-07
9.71423444e-07
9.72630389e-07
9.74866441e-07
9.78143205e-07
9.82470591e-07
9.87846874e-07
9.94267745e-07
1.00171768e-06
1.01017806e-06
1.01961968e-06
1.03001013e-06
1.04130728e-06
1.05346596e-06
1.06643239e-06
1.08015027e-06
1.09455592e-06
1.1095839e-06
1.12516273e-06
1.14122025e-06
1.1576795e-06
1.17446415e-06
1.19149428e-06
1.20869203e-06
1.22597697e-06
1.24327238e-06
1.26049967e-06
1.27758568e-06
1.29445584e-06
1.31104275e-06
1.32727773e-06
1.34310093e-06
1.35845116e-06
1.37327744e-06
1.38752738e-06
1.40115961e-06
1.41413157e-06
1.42641167e-06
1.43796801e-06
1.44877826e-06
1.45882191e-06
1.4680847e-06
1.4765582e-06
1.48423437e-06
1.49111762e-06
1.49720362e-06
1.50251054e-06
1.50703463e-06
1.51080895e-06
1.51382638e-06
1.5161371e-06
1.51772432e-06
1.51866134e-06
1.5189114e-06
1.51857839e-06
1.51761341e-06
1.51611184e-06
1.51404919e-06
1.51150211e-06
1.50846306e-06
1.50499489e-06
1.50110196e-06
1.49683524e-06
1.49220811e-06
1.48726153e-06
1.48201481e-06
1.4765012e-06
1.47074303e-06
1.46476792e-06
1.45859896e-06
1.45225968e-06
1.44577242e-06
1.43915773e-06
1.43243631e-06
1.42562641e-06
1.41874672e-06
1.41181363e-06
1.40484371e-06
1.39785184e-06
1.39085251e-06
1.38385933e-06
1.37688491e-06
1.36994176e-06
1.36304087e-06
1.35619375e-06
1.34941002e-06
1.34270032e-06
1.33607314e-06
1.32953833e-06
1.32310346e-06
1.31677765e-06
1.31056772e-06
1.30448212e-06
1.29852704e-06
1.2927103e-06
1.28703756e-06
1.28151601e-06
1.27615994e-06
1.27096682e-06
1.26594134e-06
1.26108951e-06
1.25641557e-06
1.25192493e-06
1.24762134e-06
1.2435096e-06
1.23959294e-06
1.23587554e-06
1.23236013e-06
1.2290502e-06
1.22594797e-06
1.22305627e-06
1.22037675e-06
1.21791158e-06
1.21566186e-06
1.21362909e-06
1.21181382e-06
1.21021691e-06
1.20883835e-06
1.20767838e-06
1.20673646e-06
1.20601225e-06
1.20550471e-06
1.20521294e-06
1.20513544e-06
1.20527081e-06
1.2056171e-06
1.20617249e-06
1.20693462e-06
1.20790127e-06
1.20906975e-06
1.2104375e-06
1.21200151e-06
1.21375896e-06
1.21570656e-06
1.21784124e-06
1.22015955e-06
1.2226582e-06
1.22533517e-06
1.22818556e-06
1.23120562e-06
1.23439183e-06
1.23774034e-06
1.24124754e-06
1.24490955e-06
1.24872269e-06
1.25268308e-06
1.25678698e-06
1.26103056e-06
1.26541006e-06
1.26992165e-06
1.27456162e-06
1.27932618e-06
1.28421163e-06
1.28921426e-06
1.29433042e-06
1.29955646e-06
1.30488881e-06
1.31032388e-06
1.31585819e-06
1.32148823e-06
1.32721061e-06
1.33302192e-06
1.33891885e-06
1.3448981e-06
1.35095647e-06
1.35709076e-06
1.36329787e-06
1.3695747e-06
1.3759183e-06
1.38232565e-06
1.38879392e-06
1.39532021e-06
1.40190181e-06
1.40853593e-06
1.41521998e-06
1.42195128e-06
1.42872735e-06
1.43554566e-06
1.4424038e-06
1.44929938e-06
1.4562301e-06
1.46320986e-06
1.4702203e-06
1.47725923e-06
1.48432459e-06
1.49141426e-06
1.49852628e-06
1.50565864e-06
1.51280946e-06
1.51997681e-06
1.5271589e-06
1.53435389e-06
1.54156005e-06
1.54877563e-06
1.55599897e-06
1.56322838e-06
1.57046225e-06
1.57769897e-06
1.58493697e-06
1.59217471e-06
1.59941067e-06
1.60664333e-06
1.61387122e-06
1.62109287e-06
1.62830684e-06
1.6355117e-06
1.64270604e-06
1.64988844e-06
1.65705753e-06
1.66421191e-06
1.67135022e-06
1.67847109e-06
1.68557318e-06
1.69265513e-06
1.6997156e-06
1.70675325e-06
1.71376676e-06
1.72075479e-06
1.72771602e-06
1.73464913e-06
1.7415528e-06
1.74842571e-06
1.75526656e-06
1.76207402e-06
1.76884679e-06
1.77558357e-06
1.78228304e-06
1.78894389e-06
1.79556484e-06
1.80214457e-06
1.80868181e-06
1.81517522e-06
1.82162356e-06
1.82802549e-06
1.83437978e-06
1.84068509e-06
1.84694021e-06
1.85314381e-06
1.85929469e-06
1.86539153e-06
1.87143314e-06
1.87742051e-06
1.88335026e-06
1.8892211e-06
1.89503189e-06
1.90078136e-06
1.90646839e-06
1.91209175e-06
1.91765033e-06
1.92314295e-06
1.92856852e-06
1.93392591e-06
1.93921405e-06
1.94443186e-06
1.94957832e-06
1.95465238e-06
1.95965307e-06
1.9645794e-06
1.96943044e-06
1.97420525e-06
1.97890295e-06
1.98352267e-06
1.98806357e-06
1.99252486e-06
1.99690575e-06
2.00120551e-06
2.00542343e-06
2.00955883e-06
2.01361109e-06
2.01757962e-06
2.02146385e-06
2.02526329e-06
2.02897748e-06
2.03260599e-06
2.03614846e-06
2.03960457e-06
2.04297404e-06
2.04625664e-06
2.0494522e-06
2.05256058e-06
2.05558168e-06
2.05851548e-06
2.06136198e-06
2.06412123e-06
2.06679334e-06
2.06937846e-06
2.0718768e-06
2.07428862e-06
2.07661421e-06
2.07885393e-06
2.08100819e-06
2.08307745e-06
2.08506217e-06
2.08696298e-06
2.08878039e-06
2.09053114e-06
2.09219974e-06
2.09378696e-06
2.09529359e-06
2.09672045e-06
2.09806843e-06
2.09933843e-06
2.10053144e-06
2.10164844e-06
2.1026926e-06
2.10372883e-06
2.10474597e-06
2.1057309e-06
2.10666837e-06
2.10754082e-06
2.10832819e-06
2.1090078e-06
2.10955423e-06
2.1099393e-06
2.1101321e-06
2.11009916e-06
2.10980474e-06
2.10921147e-06
2.10828108e-06
2.10697549e-06
2.10525815e-06
2.10309556e-06
2.10045903e-06
2.09732656e-06
2.09368465e-06
2.08952993e-06
2.08487028e-06
2.07972516e-06
2.07412515e-06
2.06811091e-06
2.0617327e-06
2.05505219e-06
2.0481501e-06
2.04114273e-06
2.03420981e-06
2.02763084e-06
2.02181883e-06
2.01732931e-06
2.0148169e-06
2.0149181e-06
2.0180699e-06
2.02432419e-06
2.03325429e-06
2.04399291e-06
2.05527523e-06
2.06531453e-06
2.07181486e-06
2.07285165e-06
2.06865072e-06
2.06349437e-06
2.06601098e-06
2.08730271e-06
2.13359924e-06
2.20149944e-06
2.2825529e-06
2.34883091e-06
2.40429219e-06
2.49326449e-06
2.59955583e-06
2.6598885e-06
2.84654977e-06
3.05775212e-06
3.20970743e-06
3.24087476e-06
3.14285038e-06
2.99338045e-06
2.7139744e-06
2.3272372e-06
2.03728375e-06
1.74122418e-06
1.5652384e-06
1.57477947e-06
1.50109599e-06
1.65573319e-06
2.47979119e-06
3.39186036e-06
3.33842818e-06
2.46010365e-06
1.91979245e-06
1.74350809e-06
1.01788474e-06
)
;

boundaryField
{
    closed
    {
        type            calculated;
        value           nonuniform List<scalar> 0();
    }
    open
    {
        type            calculated;
        value           uniform 7.78257796e-07;
    }
    sides
    {
        type            empty;
        value           nonuniform List<scalar> 0();
    }
    procBoundary5to4
    {
        type            processor;
        value           uniform -2.19624018e-06;
    }
}


// ************************************************************************* //
