/*--------------------------------*- C++ -*----------------------------------*\
| =========                 |                                                 |
| \\      /  F ield         | OpenFOAM: The Open Source CFD Toolbox           |
|  \\    /   O peration     | Version:  2306                                  |
|   \\  /    A nd           | Website:  www.openfoam.com                      |
|    \\/     M anipulation  |                                                 |
\*---------------------------------------------------------------------------*/
FoamFile
{
    version     2.0;
    format      ascii;
    arch        "LSB;label=32;scalar=64";
    class       volScalarField;
    location    "0.00146";
    object      prefDPV_H2O;
}
// * * * * * * * * * * * * * * * * * * * * * * * * * * * * * * * * * * * * * //

dimensions      [1 -1 -1 0 0 0 0];

internalField   nonuniform List<scalar> 
530
(
1.09412218e-06
1.09544481e-06
1.09664285e-06
1.09791072e-06
1.09906184e-06
1.10027859e-06
1.10138593e-06
1.10255496e-06
1.10361925e-06
1.10470349e-06
1.10569336e-06
1.10673478e-06
1.10768746e-06
1.10868835e-06
1.10960573e-06
1.11056832e-06
1.11145215e-06
1.11237861e-06
1.11323054e-06
1.11412295e-06
1.11494454e-06
1.11580492e-06
1.11659768e-06
1.11742793e-06
1.11819334e-06
1.11899158e-06
1.11971901e-06
1.12048196e-06
1.12118642e-06
1.12192563e-06
1.12260789e-06
1.12332441e-06
1.12398522e-06
1.12468007e-06
1.12532175e-06
1.12603089e-06
1.12667837e-06
1.12736521e-06
1.12799126e-06
1.12865686e-06
1.12926233e-06
1.1299077e-06
1.1304934e-06
1.13111951e-06
1.13168627e-06
1.13229406e-06
1.13284265e-06
1.13343304e-06
1.13396422e-06
1.13453812e-06
1.13505264e-06
1.13560065e-06
1.13608132e-06
1.13660501e-06
1.1370704e-06
1.1375794e-06
1.13802988e-06
1.13852472e-06
1.13896069e-06
1.13944185e-06
1.13986367e-06
1.14033161e-06
1.14073968e-06
1.14119483e-06
1.1415895e-06
1.14203227e-06
1.14241393e-06
1.1428447e-06
1.1432137e-06
1.14363286e-06
1.14398955e-06
1.14439746e-06
1.14474218e-06
1.14513919e-06
1.14547228e-06
1.14585874e-06
1.14618052e-06
1.14655676e-06
1.14686755e-06
1.1472339e-06
1.147534e-06
1.14789078e-06
1.14818051e-06
1.14852804e-06
1.14880767e-06
1.14914627e-06
1.14941611e-06
1.14974607e-06
1.15000641e-06
1.15032802e-06
1.15057917e-06
1.15089272e-06
1.15113497e-06
1.15144073e-06
1.15167438e-06
1.15197261e-06
1.152198e-06
1.15248318e-06
1.15269573e-06
1.15297307e-06
1.15317792e-06
1.15344785e-06
1.15364523e-06
1.15390768e-06
1.15409787e-06
1.15435274e-06
1.15453607e-06
1.15478328e-06
1.15496004e-06
1.15519508e-06
1.15536824e-06
1.15559447e-06
1.15576676e-06
1.15598005e-06
1.15615151e-06
1.15635207e-06
1.15652267e-06
1.15671075e-06
1.15688036e-06
1.15705627e-06
1.1572247e-06
1.15738881e-06
1.15755583e-06
1.15770852e-06
1.15787385e-06
1.15801557e-06
1.1581789e-06
1.15831009e-06
1.15847109e-06
1.15859222e-06
1.15874836e-06
1.15886122e-06
1.15901425e-06
1.15912015e-06
1.15926786e-06
1.15936717e-06
1.15950937e-06
1.15960239e-06
1.15973893e-06
1.15982591e-06
1.15995667e-06
1.16003783e-06
1.16016275e-06
1.16023826e-06
1.1603573e-06
1.16042733e-06
1.16054047e-06
1.16060515e-06
1.16071239e-06
1.16077185e-06
1.1608732e-06
1.16092753e-06
1.16102303e-06
1.16107232e-06
1.16116201e-06
1.16120634e-06
1.16129027e-06
1.16132971e-06
1.16140794e-06
1.16144255e-06
1.16151514e-06
1.16154499e-06
1.16161201e-06
1.16163715e-06
1.16169867e-06
1.16171915e-06
1.16177524e-06
1.16179112e-06
1.16184186e-06
1.16185319e-06
1.16189864e-06
1.16190548e-06
1.16194572e-06
1.16194814e-06
1.16198323e-06
1.16198128e-06
1.16201129e-06
1.16200505e-06
1.16203004e-06
1.1620196e-06
1.1620396e-06
1.16202506e-06
1.1620401e-06
1.16202157e-06
1.1620317e-06
1.1620093e-06
1.16201452e-06
1.16198838e-06
1.16198874e-06
1.16195895e-06
1.1619545e-06
1.16192117e-06
1.161912e-06
1.16187517e-06
1.16186144e-06
1.16182107e-06
1.16180305e-06
1.16175901e-06
1.16173709e-06
1.16168908e-06
1.16166385e-06
1.1616113e-06
1.16158515e-06
1.161534e-06
1.16150234e-06
1.16145058e-06
1.16141321e-06
1.16135987e-06
1.16131761e-06
1.16126209e-06
1.16121549e-06
1.16115742e-06
1.16110685e-06
1.16104603e-06
1.1609917e-06
1.16092809e-06
1.16087009e-06
1.1608037e-06
1.1607421e-06
1.16067296e-06
1.16060782e-06
1.16053598e-06
1.16046733e-06
1.16039284e-06
1.16032074e-06
1.16024363e-06
1.16016814e-06
1.16008845e-06
1.16000965e-06
1.1599274e-06
1.15984537e-06
1.15976056e-06
1.15967539e-06
1.15958805e-06
1.15949982e-06
1.15940997e-06
1.15931878e-06
1.15922642e-06
1.15913236e-06
1.15903752e-06
1.15894067e-06
1.15884336e-06
1.15874381e-06
1.15864407e-06
1.15854191e-06
1.15843875e-06
1.15833052e-06
1.15822232e-06
1.1581116e-06
1.15800108e-06
1.15788797e-06
1.15777518e-06
1.15765975e-06
1.15754473e-06
1.15742706e-06
1.15730987e-06
1.15719002e-06
1.15707071e-06
1.15694877e-06
1.15682739e-06
1.15670342e-06
1.15658004e-06
1.15645411e-06
1.15632878e-06
1.15620097e-06
1.15607375e-06
1.15594412e-06
1.15581507e-06
1.15568369e-06
1.15555288e-06
1.15541981e-06
1.15528731e-06
1.15515262e-06
1.15501849e-06
1.15488225e-06
1.15474655e-06
1.15460882e-06
1.15447162e-06
1.15433248e-06
1.15419385e-06
1.15405336e-06
1.15391335e-06
1.15377159e-06
1.15363027e-06
1.1534873e-06
1.15334497e-06
1.15320102e-06
1.15305733e-06
1.152912e-06
1.15276692e-06
1.1526203e-06
1.15247392e-06
1.15232607e-06
1.15217846e-06
1.15202948e-06
1.15188071e-06
1.15173066e-06
1.15158082e-06
1.15142979e-06
1.15127895e-06
1.15112699e-06
1.15097523e-06
1.15082244e-06
1.15066983e-06
1.15051627e-06
1.1503629e-06
1.15020864e-06
1.15005457e-06
1.14989969e-06
1.149745e-06
1.14958957e-06
1.14943433e-06
1.14927842e-06
1.14912271e-06
1.14896638e-06
1.14881027e-06
1.1486536e-06
1.14849715e-06
1.14834021e-06
1.1481835e-06
1.14802636e-06
1.14786944e-06
1.14771217e-06
1.14755511e-06
1.14739778e-06
1.14724065e-06
1.14708331e-06
1.14692617e-06
1.1467689e-06
1.14661131e-06
1.1464491e-06
1.14628718e-06
1.14612534e-06
1.14596383e-06
1.1458024e-06
1.14564136e-06
1.1454804e-06
1.14531987e-06
1.14515945e-06
1.14499947e-06
1.14483964e-06
1.14468027e-06
1.14452107e-06
1.14436237e-06
1.14420386e-06
1.14404586e-06
1.1438881e-06
1.14373085e-06
1.14357387e-06
1.14341743e-06
1.14326128e-06
1.14310569e-06
1.14295042e-06
1.14279572e-06
1.14264138e-06
1.14248762e-06
1.14233424e-06
1.14218146e-06
1.14202909e-06
1.14187733e-06
1.14172602e-06
1.14157532e-06
1.14142509e-06
1.1412755e-06
1.1411264e-06
1.14097795e-06
1.14083001e-06
1.14068274e-06
1.14053601e-06
1.14038995e-06
1.14024445e-06
1.14009964e-06
1.13995541e-06
1.13981188e-06
1.13966895e-06
1.13952674e-06
1.13938514e-06
1.13924427e-06
1.13910403e-06
1.13896454e-06
1.1388257e-06
1.1386876e-06
1.13855018e-06
1.13841351e-06
1.13827755e-06
1.13814231e-06
1.13800783e-06
1.13787406e-06
1.13774109e-06
1.137609e-06
1.13747814e-06
1.13734794e-06
1.1372185e-06
1.13708976e-06
1.13696176e-06
1.13683451e-06
1.136708e-06
1.13658225e-06
1.13645725e-06
1.13633304e-06
1.13620958e-06
1.13608693e-06
1.13596503e-06
1.13584395e-06
1.13572365e-06
1.13560416e-06
1.13548546e-06
1.13536759e-06
1.13525052e-06
1.13513428e-06
1.13501885e-06
1.13490426e-06
1.13479049e-06
1.13467756e-06
1.13456545e-06
1.1344542e-06
1.13434378e-06
1.13423421e-06
1.13412548e-06
1.13401761e-06
1.13391058e-06
1.13380441e-06
1.13369909e-06
1.13359463e-06
1.13349103e-06
1.13338829e-06
1.1332864e-06
1.13318538e-06
1.13308522e-06
1.13298592e-06
1.13288748e-06
1.13278991e-06
1.1326932e-06
1.13259735e-06
1.13250236e-06
1.13240824e-06
1.13231498e-06
1.13222257e-06
1.13213103e-06
1.13204035e-06
1.13195053e-06
1.13186155e-06
1.13177344e-06
1.13168302e-06
1.13159316e-06
1.13150419e-06
1.13141612e-06
1.13132894e-06
1.13124264e-06
1.13115723e-06
1.1310727e-06
1.13098904e-06
1.13090618e-06
1.13082118e-06
1.13073116e-06
1.13063591e-06
1.13053523e-06
1.13042892e-06
1.13031679e-06
1.1301987e-06
1.13007446e-06
1.12994399e-06
1.12980716e-06
1.12966396e-06
1.12951436e-06
1.12935843e-06
1.12919626e-06
1.12902807e-06
1.12885409e-06
1.12867472e-06
1.1284904e-06
1.12830175e-06
1.12810942e-06
1.1279143e-06
1.12771731e-06
1.1275196e-06
1.12732237e-06
1.12712704e-06
1.12693503e-06
1.12674797e-06
1.12656744e-06
1.12639513e-06
1.1262326e-06
1.12608141e-06
1.12594288e-06
1.12581814e-06
1.12570798e-06
1.12561285e-06
1.12553275e-06
1.12546726e-06
1.12541549e-06
1.12537616e-06
1.1253477e-06
1.12532827e-06
1.12531604e-06
1.12530913e-06
1.1253061e-06
1.12530535e-06
1.12530609e-06
1.12530845e-06
1.12530588e-06
1.12530446e-06
1.12530373e-06
1.12530342e-06
1.12530329e-06
1.12530324e-06
1.12530323e-06
1.12530322e-06
1.12530322e-06
1.12530322e-06
1.12530322e-06
1.12530322e-06
1.12530322e-06
1.12530322e-06
1.12530322e-06
1.12530322e-06
1.12530322e-06
1.12530322e-06
1.12530322e-06
1.12530322e-06
1.12530322e-06
1.12530322e-06
1.12530322e-06
1.12530322e-06
1.12530322e-06
1.12530322e-06
1.12530322e-06
1.12530322e-06
1.12530322e-06
1.12530322e-06
)
;

boundaryField
{
    closed
    {
        type            calculated;
        value           nonuniform List<scalar> 0();
    }
    open
    {
        type            calculated;
        value           uniform 1.12530322e-06;
    }
    sides
    {
        type            empty;
    }
    procBoundary5to4
    {
        type            processor;
        value           uniform 1.09287393e-06;
    }
}


// ************************************************************************* //
