/*--------------------------------*- C++ -*----------------------------------*\
| =========                 |                                                 |
| \\      /  F ield         | OpenFOAM: The Open Source CFD Toolbox           |
|  \\    /   O peration     | Version:  2306                                  |
|   \\  /    A nd           | Website:  www.openfoam.com                      |
|    \\/     M anipulation  |                                                 |
\*---------------------------------------------------------------------------*/
FoamFile
{
    version     2.0;
    format      ascii;
    arch        "LSB;label=32;scalar=64";
    class       volScalarField;
    location    "0.00146";
    object      prefDPV_T;
}
// * * * * * * * * * * * * * * * * * * * * * * * * * * * * * * * * * * * * * //

dimensions      [1 -1 -1 -1 0 0 0];

internalField   nonuniform List<scalar> 
530
(
-3.89381243e-11
-3.90538463e-11
-3.91573502e-11
-3.9267639e-11
-3.93668206e-11
-3.94720325e-11
-3.95671399e-11
-3.96676052e-11
-3.97589524e-11
-3.98565394e-11
-3.9945778e-11
-4.00393693e-11
-4.01253336e-11
-4.02151417e-11
-4.02979651e-11
-4.03841914e-11
-4.0464002e-11
-4.05468363e-11
-4.06237577e-11
-4.07033786e-11
-4.07775304e-11
-4.08541064e-11
-4.09256042e-11
-4.09992949e-11
-4.106825e-11
-4.11396296e-11
-4.12076248e-11
-4.12775995e-11
-4.13432713e-11
-4.14108098e-11
-4.14742349e-11
-4.15394439e-11
-4.16006965e-11
-4.1663678e-11
-4.17229565e-11
-4.17865859e-11
-4.18459164e-11
-4.1907373e-11
-4.19646442e-11
-4.2024031e-11
-4.207932e-11
-4.21367327e-11
-4.21901154e-11
-4.2245644e-11
-4.22971946e-11
-4.23509251e-11
-4.24007154e-11
-4.24527301e-11
-4.25008297e-11
-4.25512079e-11
-4.25976835e-11
-4.26469575e-11
-4.26926763e-11
-4.27408833e-11
-4.27850927e-11
-4.28318822e-11
-4.2874626e-11
-4.29200475e-11
-4.29613687e-11
-4.30054695e-11
-4.30454098e-11
-4.30882352e-11
-4.3126835e-11
-4.31684285e-11
-4.3205727e-11
-4.32461305e-11
-4.32821655e-11
-4.33214195e-11
-4.33562274e-11
-4.33943713e-11
-4.34279873e-11
-4.34650589e-11
-4.34975171e-11
-4.35335529e-11
-4.35648864e-11
-4.35999218e-11
-4.36301626e-11
-4.36642318e-11
-4.36934111e-11
-4.3726547e-11
-4.37546954e-11
-4.37869296e-11
-4.38140771e-11
-4.38454398e-11
-4.38716161e-11
-4.39021364e-11
-4.39273708e-11
-4.3957076e-11
-4.3981398e-11
-4.40103142e-11
-4.40337534e-11
-4.40619047e-11
-4.40844911e-11
-4.41119001e-11
-4.4133664e-11
-4.41603517e-11
-4.41813237e-11
-4.42076976e-11
-4.42282583e-11
-4.42540165e-11
-4.42738604e-11
-4.42989762e-11
-4.43181297e-11
-4.43426005e-11
-4.4361092e-11
-4.43849139e-11
-4.4402773e-11
-4.44259467e-11
-4.44431988e-11
-4.44654111e-11
-4.44822945e-11
-4.45037415e-11
-4.4520469e-11
-4.45408606e-11
-4.45574445e-11
-4.45767942e-11
-4.45932464e-11
-4.46115669e-11
-4.46278938e-11
-4.46452015e-11
-4.46614039e-11
-4.46777195e-11
-4.46937936e-11
-4.47091417e-11
-4.47250791e-11
-4.47394881e-11
-4.47552755e-11
-4.47687786e-11
-4.47844009e-11
-4.47970341e-11
-4.48123014e-11
-4.48242367e-11
-4.48392192e-11
-4.48505958e-11
-4.48651225e-11
-4.48759733e-11
-4.48900317e-11
-4.49003854e-11
-4.49139653e-11
-4.49238452e-11
-4.49369404e-11
-4.49463665e-11
-4.49589741e-11
-4.49679641e-11
-4.49800831e-11
-4.49886525e-11
-4.50002838e-11
-4.50084464e-11
-4.50195922e-11
-4.502736e-11
-4.50380243e-11
-4.50454073e-11
-4.50555953e-11
-4.50626025e-11
-4.50723203e-11
-4.50789595e-11
-4.5088214e-11
-4.50944922e-11
-4.51032908e-11
-4.51092144e-11
-4.51175651e-11
-4.51231397e-11
-4.51310507e-11
-4.51362818e-11
-4.51437615e-11
-4.51486542e-11
-4.5155711e-11
-4.51602704e-11
-4.51669126e-11
-4.51711437e-11
-4.51773795e-11
-4.51812876e-11
-4.51871248e-11
-4.51907153e-11
-4.51961612e-11
-4.51994401e-11
-4.52045016e-11
-4.52074753e-11
-4.52121586e-11
-4.52148342e-11
-4.52191448e-11
-4.52215299e-11
-4.52254727e-11
-4.52275755e-11
-4.5231155e-11
-4.52329842e-11
-4.52362044e-11
-4.52377687e-11
-4.52406338e-11
-4.52419418e-11
-4.52444566e-11
-4.52455158e-11
-4.52476865e-11
-4.5248503e-11
-4.52503379e-11
-4.52509151e-11
-4.52524263e-11
-4.52527637e-11
-4.52539674e-11
-4.52540595e-11
-4.52549781e-11
-4.52548097e-11
-4.5255412e-11
-4.52548998e-11
-4.52551199e-11
-4.52544996e-11
-4.52544357e-11
-4.52536801e-11
-4.52533587e-11
-4.52524501e-11
-4.52518908e-11
-4.52508188e-11
-4.52500351e-11
-4.52487952e-11
-4.52477955e-11
-4.52463876e-11
-4.52451771e-11
-4.52436032e-11
-4.52421855e-11
-4.52404489e-11
-4.52388269e-11
-4.52369309e-11
-4.52351077e-11
-4.52330557e-11
-4.52310346e-11
-4.52288293e-11
-4.52266143e-11
-4.5224258e-11
-4.52218536e-11
-4.52193482e-11
-4.52167591e-11
-4.52141064e-11
-4.52113377e-11
-4.52085388e-11
-4.52055961e-11
-4.52026523e-11
-4.5199541e-11
-4.51964533e-11
-4.5193179e-11
-4.51899487e-11
-4.51865168e-11
-4.51831452e-11
-4.5179561e-11
-4.51760497e-11
-4.51723183e-11
-4.51685943e-11
-4.51644551e-11
-4.51603965e-11
-4.51561173e-11
-4.51519285e-11
-4.51475145e-11
-4.5143198e-11
-4.51386541e-11
-4.51342126e-11
-4.51295435e-11
-4.51249798e-11
-4.51201902e-11
-4.51155074e-11
-4.51106016e-11
-4.51058028e-11
-4.51007852e-11
-4.50958736e-11
-4.50907484e-11
-4.50857275e-11
-4.50804986e-11
-4.50753719e-11
-4.50700432e-11
-4.50648144e-11
-4.50593897e-11
-4.50540625e-11
-4.50485455e-11
-4.50431236e-11
-4.5037518e-11
-4.50320052e-11
-4.50263146e-11
-4.50207147e-11
-4.50149428e-11
-4.50092594e-11
-4.50034102e-11
-4.49976466e-11
-4.49917242e-11
-4.49858837e-11
-4.49798923e-11
-4.49739779e-11
-4.49679217e-11
-4.496203e-11
-4.49560183e-11
-4.4950064e-11
-4.49439669e-11
-4.49379262e-11
-4.4931749e-11
-4.49256259e-11
-4.49193732e-11
-4.49131719e-11
-4.49068484e-11
-4.49005731e-11
-4.48941831e-11
-4.48878383e-11
-4.48813859e-11
-4.48749761e-11
-4.48684653e-11
-4.48619949e-11
-4.48554298e-11
-4.48489032e-11
-4.48422877e-11
-4.48357093e-11
-4.48290473e-11
-4.48224212e-11
-4.48157166e-11
-4.4809047e-11
-4.48023037e-11
-4.47955945e-11
-4.47888164e-11
-4.47820715e-11
-4.47752624e-11
-4.47684856e-11
-4.47616493e-11
-4.47548442e-11
-4.47479845e-11
-4.47411547e-11
-4.47342754e-11
-4.47274241e-11
-4.47205292e-11
-4.47136595e-11
-4.47067526e-11
-4.46998677e-11
-4.46929525e-11
-4.46860553e-11
-4.46791354e-11
-4.46721989e-11
-4.46649751e-11
-4.46577736e-11
-4.46505635e-11
-4.46433802e-11
-4.46361869e-11
-4.46290239e-11
-4.46218505e-11
-4.46147099e-11
-4.46075594e-11
-4.46004434e-11
-4.45933187e-11
-4.45862294e-11
-4.45791332e-11
-4.45720728e-11
-4.45650076e-11
-4.45579784e-11
-4.45509465e-11
-4.45439507e-11
-4.45369545e-11
-4.45299944e-11
-4.45230359e-11
-4.45161137e-11
-4.45091952e-11
-4.45023129e-11
-4.44954364e-11
-4.44885962e-11
-4.44817637e-11
-4.44749676e-11
-4.44681811e-11
-4.44614311e-11
-4.44546924e-11
-4.44479903e-11
-4.44413013e-11
-4.44346491e-11
-4.44280114e-11
-4.44214109e-11
-4.44148263e-11
-4.44082792e-11
-4.44017492e-11
-4.43952573e-11
-4.43887836e-11
-4.43823484e-11
-4.43759324e-11
-4.43695556e-11
-4.43631988e-11
-4.43568817e-11
-4.43505856e-11
-4.43443296e-11
-4.43380956e-11
-4.43319019e-11
-4.43257317e-11
-4.43196011e-11
-4.43134962e-11
-4.43074297e-11
-4.43013917e-11
-4.42953899e-11
-4.42894204e-11
-4.42834836e-11
-4.42775842e-11
-4.42717468e-11
-4.42660204e-11
-4.42603203e-11
-4.42546526e-11
-4.42490161e-11
-4.42434095e-11
-4.42378376e-11
-4.42322945e-11
-4.42267882e-11
-4.42213104e-11
-4.42158708e-11
-4.42104601e-11
-4.42050884e-11
-4.41997462e-11
-4.41944434e-11
-4.41891711e-11
-4.41839382e-11
-4.41787369e-11
-4.41735752e-11
-4.41684458e-11
-4.41633561e-11
-4.41582996e-11
-4.4153283e-11
-4.41483002e-11
-4.41433573e-11
-4.41384489e-11
-4.41335807e-11
-4.41287474e-11
-4.41239543e-11
-4.41191967e-11
-4.41144795e-11
-4.41097981e-11
-4.41051572e-11
-4.41005523e-11
-4.40959881e-11
-4.40914603e-11
-4.40869732e-11
-4.40825227e-11
-4.40781129e-11
-4.40737399e-11
-4.40694076e-11
-4.40651123e-11
-4.40608576e-11
-4.40566402e-11
-4.40524631e-11
-4.40483237e-11
-4.40442241e-11
-4.40401627e-11
-4.40361406e-11
-4.40321571e-11
-4.40282124e-11
-4.40243066e-11
-4.40204391e-11
-4.40166104e-11
-4.40125941e-11
-4.40085956e-11
-4.40046384e-11
-4.40007228e-11
-4.39968484e-11
-4.3993015e-11
-4.3989223e-11
-4.39854714e-11
-4.39817611e-11
-4.39780867e-11
-4.39743203e-11
-4.39703326e-11
-4.39661168e-11
-4.39616621e-11
-4.39569626e-11
-4.39520085e-11
-4.39467956e-11
-4.39413155e-11
-4.39355664e-11
-4.39295428e-11
-4.39232464e-11
-4.39166755e-11
-4.39098365e-11
-4.39027335e-11
-4.38953791e-11
-4.38877845e-11
-4.38799708e-11
-4.38719578e-11
-4.38637767e-11
-4.3855458e-11
-4.38470442e-11
-4.38385777e-11
-4.3830113e-11
-4.38217044e-11
-4.38134178e-11
-4.38053176e-11
-4.37974777e-11
-4.37899682e-11
-4.37828649e-11
-4.37762354e-11
-4.37701479e-11
-4.37646564e-11
-4.37598087e-11
-4.37556319e-11
-4.3752141e-11
-4.37493251e-11
-4.37471579e-11
-4.37455864e-11
-4.37445452e-11
-4.37439484e-11
-4.37437059e-11
-4.37437253e-11
-4.37439099e-11
-4.37442043e-11
-4.37445161e-11
-4.37448324e-11
-4.37452102e-11
-4.37450948e-11
-4.37450272e-11
-4.374499e-11
-4.37449734e-11
-4.37449657e-11
-4.3744963e-11
-4.3744962e-11
-4.37449615e-11
-4.37449614e-11
-4.37449614e-11
-4.37449614e-11
-4.37449614e-11
-4.37449614e-11
-4.37449614e-11
-4.37449614e-11
-4.37449614e-11
-4.37449614e-11
-4.37449614e-11
-4.37449614e-11
-4.37449614e-11
-4.37449614e-11
-4.37449614e-11
-4.37449614e-11
-4.37449614e-11
-4.37449614e-11
-4.37449614e-11
-4.37449614e-11
-4.37449614e-11
-4.37449614e-11
-4.37449614e-11
)
;

boundaryField
{
    closed
    {
        type            calculated;
        value           nonuniform List<scalar> 0();
    }
    open
    {
        type            calculated;
        value           uniform -4.37449614e-11;
    }
    sides
    {
        type            empty;
    }
    procBoundary5to4
    {
        type            processor;
        value           uniform -3.88300281e-11;
    }
}


// ************************************************************************* //
