/*--------------------------------*- C++ -*----------------------------------*\
| =========                 |                                                 |
| \\      /  F ield         | OpenFOAM: The Open Source CFD Toolbox           |
|  \\    /   O peration     | Version:  2306                                  |
|   \\  /    A nd           | Website:  www.openfoam.com                      |
|    \\/     M anipulation  |                                                 |
\*---------------------------------------------------------------------------*/
FoamFile
{
    version     2.0;
    format      ascii;
    arch        "LSB;label=32;scalar=64";
    class       volScalarField;
    location    "0.00176";
    object      prefDh_H;
}
// * * * * * * * * * * * * * * * * * * * * * * * * * * * * * * * * * * * * * //

dimensions      [1 1 -3 0 0 0 0];

internalField   nonuniform List<scalar> 
530
(
22931.9888
22939.7183
23907.9803
23950.1305
23930.3782
23385.7004
22948.8179
22960.3888
23880.2353
23952.0621
23264.9875
23050.74
23881.12
23948.7231
23174.1081
23121.349
23891.7123
23946.3819
23931.6086
23404.2541
23077.7128
22861.3152
22862.9871
23876.4952
23918.4121
23912.1426
23916.6686
23392.0054
22918.073
22932.9863
23876.2263
23942.1596
23271.5717
23153.708
23890.7063
23943.1088
23930.9757
23405.6488
23077.0975
22821.4263
22825.6677
23883.8817
23926.9878
23920.5905
23332.8328
22918.4358
23874.7375
23927.3666
23903.6711
23934.0354
23412.246
23230.4597
23073.0035
23076.5892
23897.2207
23929.0197
23402.9617
22935.7526
22943.5209
23892.5424
23930.7463
23402.4317
22887.4329
22895.3624
23898.4007
23942.1639
23924.4516
23391.0078
22993.0037
22999.645
23882.3551
23946.4945
23327.6883
23232.6222
23887.4575
23939.3446
23921.601
23411.5879
23249.827
23052.3743
23051.7548
23894.4883
23920.6877
23408.5954
22789.6252
22804.938
23867.145
23932.7153
23164.4872
22913.3232
23857.179
23928.4011
23896.1173
23930.9044
23406.8139
23037.3794
22784.838
22789.1213
23879.8635
23924.2985
23920.2649
23278.2837
23004.9955
23888.0989
23928.8594
23923.084
23410.4708
23229.2469
23889.8573
23404.2774
23000.9856
23891.1151
23929.284
23924.6688
23397.9269
23127.0503
22921.7137
22923.5266
23894.0495
23934.4724
23929.9541
23410.8978
23013.5241
23900.3063
23923.2084
23395.3638
22926.7298
22971.9569
23902.3072
23403.6333
22999.8875
23895.6966
23936.0507
23919.9662
23393.6529
22911.8248
22925.0924
23874.2672
23941.6261
23284.5157
23256.8943
23874.5934
23397.3309
22827.4085
23877.6873
23918.843
23301.9364
23025.4423
23866.2713
23929.4667
23249.4366
23042.8231
23860.7851
23929.0549
23192.3364
23019.9108
23851.118
23919.5504
23888.4182
23916.1634
23419.3426
23102.887
23131.0627
22739.2738
22760.8455
23831.5646
23925.1805
23868.4141
23933.6616
23348.646
23246.9535
23862.2401
23402.2245
22735.5783
23865.0517
23905.1944
23216.3275
22909.5744
23851.7284
23919.8228
23108.6299
22895.3312
23845.2942
23921.5525
23891.743
23922.1201
23400.9896
23065.4334
23145.8831
22821.0346
22835.2923
23847.8004
23927.8015
23887.3708
23932.7433
23413.4463
23075.4416
23896.7979
23921.0697
23392.8237
22832.0507
22848.2979
23865.9524
23945.1944
23247.3805
23201.6416
23866.5804
23394.9067
22851.9491
23879.4104
23921.8578
23906.1636
23405.0578
22765.6164
22781.563
23850.4282
23923.5069
23881.0763
23928.7932
23422.276
23198.4757
23877.9192
23929.1908
23420.625
23216.8919
22850.3906
22859.7575
23840.896
23921.4717
23870.1841
23933.7233
23265.697
23164.9439
23851.2376
23393.4069
22653.7774
23873.5177
23879.1579
23414.6983
22716.4281
22740.1205
23832.9623
23899.3879
23875.0258
23897.1477
23423.9647
22925.3203
22989.7164
23877.206
23408.1932
22877.127
23875.5
23904.3052
23426.0473
23045.1466
22684.643
22692.6292
23804.9123
23903.4567
23873.7149
23911.2104
23909.0463
23911.2102
23396.8404
22881.1898
22891.3832
23867.4253
23935.5895
23343.0865
23028.3017
23873.3184
23931.6066
23428.2068
23067.1852
22706.8984
22715.6211
23843.1691
23923.0254
23875.5959
23934.9492
23353.526
23214.6637
23871.5204
23401.8249
22855.0995
23877.2763
23913.017
23903.3383
23420.955
22989.5626
23874.1891
23924.2152
23376.3064
23069.167
23876.3307
23923.1366
23425.6867
23084.1588
22675.8305
22685.3847
23768.5177
23908.41
23876.2246
23916.0858
23901.2661
23920.2828
23416.1976
23178.3108
22940.5633
22943.2827
23879.248
23904.1207
23414.0549
22765.1851
22780.0368
23855.1677
23914.0858
23351.452
22940.4911
23864.8814
23890.1019
23422.4276
22613.2416
22643.5612
23804.3462
23902.7978
23860.1203
23910.0723
23893.541
23916.8127
23418.5723
23147.4511
22826.1223
22839.521
23848.9869
23924.2046
23067.2927
22905.7469
23836.5512
23926.8427
23876.981
23930.3447
23418.4397
23208.1607
22986.3285
22992.9688
23877.2656
23916.9283
23414.4066
22761.1765
22770.4719
23880.3249
23915.6825
23919.5091
23384.4953
23271.1061
23871.8449
23400.8106
22773.0395
23892.7763
23896.291
23401.0184
22637.5576
22666.5677
23850.4946
23929.9904
23878.7211
23939.9579
23913.2724
23394.5974
23247.5279
22918.2482
22917.3606
23893.6381
23925.6909
23916.6868
23414.5587
23058.7289
23897.1628
23912.3132
23400.1636
22916.0936
22925.904
23877.4896
23932.5967
23903.8185
23399.1934
23130.4195
23133.2196
22720.999
22735.3901
23864.2174
23915.5031
23912.5748
23114.5855
22993.563
23878.4101
23924.6381
23915.0415
23312.495
23064.0718
23879.2169
23936.0395
23901.8453
23396.7397
22870.8543
22879.4367
23887.8048
23912.0849
23404.2236
22821.2419
22838.9391
23869.3274
23928.5168
23365.7904
22969.7493
23885.9805
23915.6007
23407.6751
22736.7004
22751.166
23880.9534
23922.4138
23917.9666
23424.8358
23065.3993
23886.9404
23936.003
23359.1274
23114.2131
23884.1597
23935.8919
23398.4367
23132.8488
23894.6079
23917.7551
23403.5595
22981.3187
22985.2542
23892.7381
23909.9866
23401.3868
22920.6088
22935.3983
23869.4285
23931.9841
23387.2782
23088.3526
23875.8178
23926.2023
23381.6222
23029.0598
23887.7384
23900.5302
23407.9442
22645.3636
22669.9797
23850.4629
23923.6615
23875.8119
23934.0164
23911.7401
23406.9619
23095.4859
22578.0707
22582.4407
23849.4888
23919.5495
23881.039
23930.1816
23915.1561
23405.9702
23180.1722
22872.5578
22882.3712
23861.8187
23927.3568
23173.4045
22983.9251
23855.9766
23933.2769
23118.6696
22995.0004
23851.1353
23933.6967
23881.1982
23936.9033
23419.8463
23256.5361
22966.6129
22977.7574
23871.5176
23933.9792
23218.8047
23143.0413
23877.2714
23920.2646
23902.4351
23497.3035
23266.3749
22932.7628
22943.3162
23885.0924
23936.5558
23305.3541
23295.9322
23886.0458
23395.339
23072.1925
23896.9215
23412.0151
22933.8862
23892.2376
23916.533
23910.3699
23419.9516
23188.9992
22886.3254
22892.4111
23885.7029
23935.4937
23122.7401
23043.2725
23894.5603
23934.06
23925.4435
23305.5885
23123.929
23891.7215
23941.9814
)
;

boundaryField
{
    closed
    {
        type            calculated;
        value           nonuniform List<scalar> 0();
    }
    open
    {
        type            calculated;
        value           nonuniform List<scalar> 0();
    }
    sides
    {
        type            empty;
    }
    procBoundary2to1
    {
        type            processor;
        value           uniform 23391.0496;
    }
    procBoundary2to3
    {
        type            processor;
        value           uniform 23898.9687;
    }
}


// ************************************************************************* //
